ITEM: TIMESTEP
10000000
ITEM: NUMBER OF ATOMS
21411
ITEM: BOX BOUNDS pp pp pp
0.0000000000000000e+00 5.0000000000000000e+01
0.0000000000000000e+00 5.0000000000000000e+01
0.0000000000000000e+00 5.0000000000000000e+01
ITEM: ATOMS id type xs ys zs
19639 1 0.0905898 0.0289361 0.00299428
12799 1 0.0920693 0.0310428 0.00454418
16441 1 0.148621 0.0199778 0.0152521
16442 2 0.148444 0.0243994 0.00807519
16443 1 0.15132 0.0284988 0.001927
3926 3 0.199254 0.021955 0.0223359
3927 1 0.202472 0.0149461 0.0238839
3925 1 0.193589 0.0272746 0.0192006
5315 3 0.285001 0.011644 0.00108505
5314 1 0.292315 0.0140334 0.000285298
17584 1 0.471325 0.0186211 0.00105404
15361 1 0.617401 0.0178451 0.00451752
15362 2 0.6232 0.0203445 0.00843013
15363 1 0.621191 0.028051 0.00838025
19761 1 0.726599 0.0255685 0.0142854
19760 3 0.733847 0.0253547 0.0155778
19759 1 0.74255 0.0265989 0.0141689
9650 2 0.841447 0.0178625 0.00467579
9651 1 0.84463 0.0242529 0.00807418
16359 1 0.952239 0.0125543 0.015811
16358 3 0.96025 0.012995 0.0157943
16357 1 0.963271 0.00686582 0.0124565
10795 1 0.102722 0.0594318 0.0142208
10797 1 0.101617 0.0453572 0.0126568
10796 3 0.104389 0.0516929 0.0160384
12801 1 0.100484 0.0430297 0.0115408
12800 2 0.0968845 0.0369789 0.00822443
21381 1 0.127417 0.0398636 0.00204383
1060 1 0.146225 0.055717 0.0113942
1062 1 0.140028 0.041321 0.00997556
1061 2 0.143844 0.0477214 0.0084316
9805 1 0.212034 0.0553678 0.0097429
21252 1 0.237839 0.055309 0.0274731
9806 3 0.216634 0.0609198 0.00527458
21250 1 0.249957 0.0518773 0.0285787
21251 2 0.243745 0.0482591 0.0273141
14642 3 0.311699 0.0488054 0.00696788
14641 1 0.311343 0.0562677 0.00404881
14643 1 0.311058 0.0454588 0.0133089
9126 1 0.310859 0.0439787 0.0153229
9125 3 0.310231 0.0404474 0.0232482
4530 1 0.332901 0.0535017 0.0203252
9124 1 0.309966 0.0331611 0.0262024
4529 2 0.330152 0.0602706 0.0210133
4746 1 0.436172 0.057933 0.0176269
4744 1 0.428834 0.0562246 0.00666728
4745 3 0.430566 0.0540399 0.0140011
13795 1 0.744995 0.0617113 0.0128639
4528 1 0.326011 0.0646939 0.0256167
1972 1 0.429588 0.0758134 0.00755165
1948 1 0.44486 0.0852018 0.0301766
1950 1 0.42997 0.0854495 0.0312404
1973 2 0.428692 0.0801934 0.000764475
17329 1 0.540525 0.0861991 0.0285226
14689 1 0.566384 0.0929496 0.0263488
15939 1 0.687265 0.0848299 0.0185581
15938 2 0.683728 0.0887302 0.0227768
15937 1 0.681018 0.0933089 0.0287718
13797 1 0.757023 0.0712009 0.0172825
13796 3 0.749638 0.0681593 0.0147465
17638 1 0.759134 0.0725386 0.0180781
17640 1 0.77012 0.0814987 0.024715
17639 2 0.765242 0.0765907 0.0203538
19119 1 0.0389106 0.115109 0.00308395
19118 3 0.03617 0.12203 0.00401584
6893 2 0.107866 0.110301 0.00651206
6892 1 0.107896 0.111676 0.0147479
6894 1 0.105289 0.107096 0.000616381
21069 1 0.315703 0.122883 0.0139312
9644 3 0.367266 0.108279 0.0132819
9645 1 0.363724 0.101095 0.0152634
9643 1 0.368218 0.116038 0.0105255
2274 1 0.402928 0.119962 0.00528212
903 1 0.597608 0.116128 0.00199968
18184 1 0.59572 0.106431 0.0177116
18186 1 0.603392 0.111229 0.0301053
18185 3 0.598813 0.10766 0.0250159
11830 1 0.611081 0.123159 0.0145697
10437 1 0.611499 0.121618 0.0119857
10435 1 0.609294 0.112759 0.000471534
10436 3 0.614104 0.116488 0.00565657
9910 1 0.679064 0.117351 0.0130185
9911 2 0.67415 0.124808 0.0107339
6693 1 0.720727 0.115545 0.0179683
6692 2 0.712378 0.115391 0.0186163
6691 1 0.704846 0.114189 0.0203696
17451 1 0.922366 0.111125 0.00982688
17450 2 0.928958 0.112486 0.0140942
17449 1 0.934428 0.11511 0.0198496
14670 1 0.968808 0.11943 0.0128434
14669 2 0.971707 0.112623 0.00917711
14668 1 0.971365 0.105855 0.00687437
19117 1 0.0355729 0.129521 0.00877244
312 1 0.0521335 0.145415 0.0106606
311 2 0.0569486 0.148309 0.0159131
15089 2 0.0798465 0.129529 0.00171511
15090 1 0.081818 0.127626 0.00937079
15088 1 0.0733034 0.133881 7.08449e-05
11841 1 0.109959 0.136354 0.00300891
11840 2 0.10394 0.131736 0.00328928
11839 1 0.0963604 0.130523 0.00573459
13170 1 0.124702 0.127682 0.000796531
21067 1 0.301986 0.128137 0.00875623
21068 2 0.308804 0.126772 0.0121716
5296 1 0.592539 0.144891 0.00363525
5297 3 0.590613 0.151097 0.00234512
296 2 0.593866 0.133393 0.00769474
295 1 0.593529 0.141622 0.00434517
297 1 0.595442 0.127992 0.0132418
11831 3 0.611503 0.126294 0.0222878
11832 1 0.618476 0.127376 0.0253714
9912 1 0.667631 0.130407 0.0118183
1179 1 0.877111 0.155895 0.0169549
1178 3 0.878226 0.150179 0.0238527
1177 1 0.882068 0.146548 0.0292555
6881 3 0.967587 0.140291 0.00841869
6882 1 0.962301 0.134183 0.00575765
6880 1 0.97333 0.146115 0.00923359
6872 2 0.996779 0.133442 0.00487821
6873 1 0.995173 0.141564 0.00369707
310 1 0.0577756 0.156512 0.0155863
1713 1 0.10102 0.185935 0.0200144
1711 1 0.102186 0.172853 0.0175232
1712 3 0.10084 0.178301 0.0220411
3751 1 0.131009 0.177366 0.00518729
3753 1 0.134602 0.185682 0.0150505
3752 3 0.131361 0.185857 0.00754222
13630 1 0.267291 0.182895 0.0240336
13631 3 0.27326 0.18715 0.0261625
6289 1 0.597705 0.181557 0.0285022
5298 1 0.59225 0.15876 0.00139863
14500 1 0.742542 0.168307 0.0261861
9024 1 0.806862 0.17523 0.0151316
9023 2 0.81427 0.175882 0.0128708
9022 1 0.818913 0.178323 0.00730925
869 2 0.931554 0.168721 0.0128267
868 1 0.924533 0.17025 0.0158561
870 1 0.93762 0.173363 0.017048
1470 1 0.984441 0.168077 0.0129317
1469 2 0.987844 0.169913 0.0061339
1468 1 0.990877 0.165534 0.000444004
13180 1 0.14086 0.204925 0.0251191
13181 2 0.136536 0.208207 0.0309743
1840 1 0.251931 0.209654 0.0274326
13632 1 0.278613 0.19318 0.0244627
16385 3 0.311963 0.205458 0.0037687
16386 1 0.307454 0.20068 0.00821063
16384 1 0.310766 0.212568 0.000551001
6291 1 0.602338 0.196106 0.0300969
15298 1 0.73738 0.200851 0.00777715
2909 2 0.746828 0.190701 0.0277481
2910 1 0.744024 0.192667 0.0211674
15299 2 0.736392 0.194176 0.00219005
9519 1 0.957411 0.21174 0.0079205
9517 1 0.951724 0.195678 0.00871236
9518 3 0.952984 0.204224 0.00702639
15647 3 0.166714 0.237572 0.0276394
15646 1 0.163298 0.241387 0.0203863
7119 1 0.162486 0.242337 0.0178569
7118 3 0.161169 0.245154 0.0106455
7117 1 0.162172 0.249383 0.00429622
19463 2 0.332388 0.229467 0.0277789
19462 1 0.330529 0.235913 0.0296079
1495 1 0.336129 0.246955 0.00456847
12626 3 0.34949 0.238072 0.0154202
12625 1 0.355242 0.234916 0.0203132
12627 1 0.348284 0.239441 0.00786214
19464 1 0.335025 0.221639 0.0271547
195 1 0.413024 0.242528 0.0196836
194 2 0.419712 0.245806 0.0244597
15894 1 0.523289 0.245134 0.0034441
6705 1 0.661431 0.238189 0.000485373
6704 3 0.664836 0.240796 0.00743753
6703 1 0.670533 0.244794 0.00794531
9927 1 0.103422 0.268599 0.00679548
13660 1 0.102483 0.25576 0.0302166
9926 3 0.100537 0.275927 0.00387008
6297 1 0.172309 0.280428 0.0182307
1497 1 0.341822 0.2588 0.00884889
1496 2 0.336423 0.253879 0.00842193
14871 1 0.3892 0.266284 0.0115073
14869 1 0.382134 0.277746 0.018859
14870 2 0.387215 0.272453 0.0165215
193 1 0.425194 0.250976 0.0259801
15892 1 0.512629 0.253689 0.00117967
959 3 0.613319 0.261083 0.0311386
960 1 0.62083 0.264209 0.0276983
13475 3 0.644314 0.273741 0.0297164
13476 1 0.649751 0.279294 0.027331
7479 1 0.658353 0.269781 0.0108986
7478 3 0.664069 0.263236 0.0108487
7477 1 0.671466 0.262296 0.0115277
19966 1 0.825705 0.275933 0.00241974
19967 3 0.8231 0.276362 0.00914036
7370 3 0.90895 0.275501 0.00687095
7369 1 0.912755 0.269382 0.00982111
17432 2 0.956392 0.254735 0.0225401
17431 1 0.963029 0.251943 0.0181603
17433 1 0.949502 0.252542 0.0251499
6296 2 0.165251 0.283787 0.0199908
6295 1 0.157839 0.287771 0.0177493
17802 1 0.323198 0.31223 0.0230586
11844 1 0.324425 0.294948 0.0301997
5243 2 0.717423 0.292636 0.023626
5244 1 0.712301 0.297373 0.0272243
5242 1 0.721443 0.289213 0.0172546
19968 1 0.819711 0.282051 0.0136461
7371 1 0.91131 0.282586 0.00357788
16863 1 0.91188 0.285409 0.00241942
4048 1 0.950648 0.305683 0.029364
4049 2 0.946349 0.308251 0.0239505
21288 1 0.0596566 0.318176 0.0288306
3476 2 0.127507 0.335255 0.0036989
3475 1 0.12903 0.328745 0.00768776
3477 1 0.123307 0.342622 0.00210191
6009 1 0.23575 0.328273 0.00505663
6008 3 0.234635 0.336409 0.00359697
17801 2 0.329639 0.31538 0.018439
17800 1 0.33745 0.319362 0.0165461
13513 1 0.432118 0.328397 0.00880556
13514 3 0.437148 0.335766 0.0109407
13515 1 0.440574 0.341945 0.00562061
2058 1 0.644467 0.318738 0.000659096
10794 1 0.671147 0.342065 0.0036527
4716 1 0.672492 0.326192 0.00588591
4714 1 0.670726 0.339163 0.0036499
4715 2 0.668974 0.332412 0.00269766
18940 1 0.740196 0.318749 0.0283663
20691 1 0.731306 0.322523 0.0220119
20689 1 0.727448 0.327182 0.00695349
18941 3 0.733516 0.317836 0.0309949
18942 1 0.731447 0.321115 0.0246035
20690 3 0.730583 0.326217 0.0145318
16660 1 0.84147 0.31959 0.0030498
16661 3 0.841852 0.312721 0.00768141
16662 1 0.844535 0.31403 0.0154751
7518 1 0.8751 0.333956 0.0186142
7517 2 0.872478 0.33134 0.0115434
7516 1 0.873408 0.329825 0.00347947
4050 1 0.945326 0.315525 0.0204992
19298 2 0.981113 0.32122 0.0264723
19299 1 0.976208 0.326487 0.0240435
19297 1 0.988429 0.320965 0.0243124
5912 3 0.116666 0.351433 5.00415e-05
5911 1 0.121892 0.345127 0.00113
6007 1 0.236265 0.344519 0.00388764
17343 1 0.230402 0.357284 0.0150693
17341 1 0.236671 0.347562 0.00485839
17342 3 0.236286 0.353999 0.00965275
12645 1 0.418213 0.374541 0.0092117
19659 1 0.441795 0.343752 0.00312309
15052 1 0.46274 0.356917 0.0302863
3063 1 0.503811 0.350881 0.0106524
3062 3 0.509788 0.351622 0.0163591
3061 1 0.507079 0.357667 0.0214408
10793 2 0.672269 0.349383 0.00375092
10792 1 0.668871 0.354864 0.000627987
3771 1 0.787004 0.371676 0.0253109
2104 1 0.81738 0.371659 0.0248249
7739 2 0.867935 0.364479 0.0311689
2689 1 0.206625 0.393088 0.0301383
1302 1 0.218274 0.406213 0.0068666
3668 3 0.362811 0.401612 0.0163205
3669 1 0.360684 0.405143 0.00876942
17699 3 0.372571 0.392002 0.0302226
15706 1 0.39216 0.3965 0.0026662
3667 1 0.366931 0.397335 0.0220089
20686 1 0.38989 0.396285 0.000498826
17700 1 0.36829 0.395061 0.0244126
15707 2 0.398108 0.396553 0.00875923
12644 3 0.415987 0.382052 0.00920677
15708 1 0.397788 0.399789 0.016186
12643 1 0.413952 0.389888 0.0106586
7087 1 0.64734 0.398856 0.0237883
7088 3 0.643512 0.391046 0.0229692
7089 1 0.637832 0.385357 0.0227103
3770 2 0.786776 0.376964 0.0199003
2105 3 0.814899 0.377866 0.0214158
5683 1 0.80069 0.403264 0.0167979
5523 1 0.809289 0.388253 0.0204695
2106 1 0.811203 0.385966 0.0204946
5522 2 0.803945 0.393852 0.0209225
5521 1 0.801305 0.400469 0.018162
3769 1 0.790607 0.384569 0.021243
13144 1 0.191567 0.409477 0.0111167
13145 2 0.199969 0.409667 0.0118904
9261 1 0.189798 0.406361 0.0236953
9260 3 0.185701 0.408019 0.0300297
13146 1 0.206678 0.413183 0.0144459
3256 1 0.768518 0.425549 0.020783
3257 3 0.774341 0.420609 0.0236174
3258 1 0.779312 0.417048 0.0290874
7242 1 0.781943 0.415071 0.0310599
5684 3 0.799323 0.410223 0.0133341
5685 1 0.80528 0.416721 0.0137808
18995 3 0.811159 0.4295 0.0151911
18996 1 0.810919 0.435654 0.0190091
18994 1 0.818699 0.424569 0.0159199
5673 1 0.938017 0.421165 0.000156776
10771 1 0.953958 0.434274 0.0189649
21078 1 0.00738686 0.452951 0.0243882
8803 1 0.269088 0.456682 0.0248309
8804 2 0.272527 0.464998 0.0246066
515 3 0.368896 0.453677 0.0240191
516 1 0.370602 0.448006 0.0176832
514 1 0.364659 0.45966 0.0269926
14645 2 0.747213 0.46029 0.0127701
14644 1 0.743184 0.45953 0.0185192
14646 1 0.751653 0.46213 0.00638355
6920 3 0.782114 0.464409 0.0286053
20521 1 0.839287 0.468294 0.0146174
7726 1 0.914918 0.442963 0.00324448
7727 2 0.920491 0.448505 0.000333068
4882 1 0.949894 0.44945 0.0312484
10933 1 0.96062 0.440804 0.00273174
10773 1 0.959616 0.440524 0.00573856
10772 2 0.955146 0.440681 0.0127967
10654 1 0.129915 0.48108 0.000136085
4673 2 0.170031 0.487982 0.0150223
17816 2 0.173382 0.474262 0.0300213
17817 1 0.17632 0.477056 0.023059
4674 1 0.173265 0.490998 0.0205779
4672 1 0.168555 0.484318 0.00857607
8805 1 0.270927 0.472465 0.0231375
16381 1 0.402219 0.497786 0.0308462
16382 2 0.40029 0.489851 0.0304621
6169 1 0.509493 0.497873 0.0122325
6919 1 0.783305 0.47119 0.0252452
6274 1 0.80664 0.497903 0.013229
20522 3 0.846687 0.471921 0.0123699
14537 3 0.860122 0.485727 0.00601051
20523 1 0.853004 0.477332 0.0104635
14536 1 0.855547 0.479854 0.00975095
14538 1 0.865676 0.489705 0.00768896
10276 1 0.0317213 0.0129816 0.0321512
10277 3 0.0400923 0.0108042 0.0324805
10278 1 0.0435464 0.00694662 0.0391843
12610 1 0.0456963 0.00527011 0.0408248
12612 1 0.0571344 0.00371573 0.0395209
12611 3 0.0520051 0.00124768 0.0442746
13102 1 0.0891592 0.0154865 0.0459506
13104 1 0.0890688 0.0282643 0.0523601
13103 3 0.0898693 0.0230225 0.0476485
13942 1 0.418548 0.0237771 0.0530169
2357 2 0.3967 0.00327352 0.05564
6435 1 0.529163 0.0287951 0.0553737
13360 1 0.968307 0.0277434 0.0365959
1055 2 0.96945 0.00335017 0.0411724
1054 1 0.970562 0.010747 0.0400208
13362 1 0.970827 0.0131699 0.0398039
13361 2 0.970728 0.0217454 0.0388755
13943 3 0.417266 0.031693 0.0531496
13944 1 0.420616 0.0366845 0.0496635
6434 3 0.535549 0.0322186 0.0522201
12590 3 0.54186 0.0400871 0.0371677
12589 1 0.540181 0.0358357 0.0435318
6433 1 0.539128 0.0348283 0.0460163
12591 1 0.547183 0.0348997 0.0322697
5069 3 0.844641 0.0424312 0.039583
5068 1 0.837708 0.0458494 0.0427184
5070 1 0.850631 0.045036 0.034666
10389 1 0.269652 0.0711218 0.0389102
15564 1 0.271366 0.0934076 0.0453299
10388 2 0.275472 0.0767128 0.0396936
10387 1 0.276472 0.0818528 0.0430828
1949 3 0.437805 0.0860746 0.0338354
17330 3 0.539415 0.0927165 0.0325467
14691 1 0.565474 0.0855014 0.039243
14690 3 0.56607 0.090072 0.033056
16659 1 0.641201 0.0730848 0.0427918
16658 3 0.640534 0.0801502 0.0464366
16657 1 0.640216 0.0864075 0.0508386
10312 1 0.640178 0.0884799 0.0522957
16073 3 0.683203 0.0925455 0.0558506
16074 1 0.684992 0.08872 0.0616719
15086 2 0.723272 0.0908138 0.0587175
15085 1 0.731773 0.0901596 0.0574521
19319 3 0.948432 0.0851766 0.0516732
19318 1 0.953829 0.0913012 0.0493671
4629 1 0.95575 0.0931794 0.048865
19320 1 0.941847 0.0799533 0.0512727
5074 1 0.0241112 0.108814 0.0616242
21336 1 0.240847 0.111034 0.0503285
21335 3 0.234518 0.114924 0.0512329
21334 1 0.229614 0.12125 0.0483426
18142 1 0.242927 0.109962 0.0497937
18143 3 0.249167 0.106419 0.0471189
15562 1 0.259803 0.101502 0.0471238
18144 1 0.256744 0.103022 0.047044
15563 3 0.265974 0.0966661 0.0483068
21157 1 0.439916 0.123325 0.037469
21215 2 0.484805 0.124582 0.0620812
21214 1 0.485683 0.124958 0.0550813
17331 1 0.537986 0.0973848 0.0387599
10313 3 0.64019 0.0958643 0.0557279
10314 1 0.640633 0.103799 0.0588821
7476 1 0.694323 0.117429 0.0366227
17741 3 0.679144 0.0973464 0.0383093
17740 1 0.68045 0.0945745 0.0315019
17742 1 0.680611 0.0947156 0.0455536
16072 1 0.68136 0.0938186 0.0487151
7475 3 0.698241 0.110257 0.0376254
7474 1 0.706171 0.110145 0.0402656
15087 1 0.721083 0.0973806 0.0560999
4628 2 0.960772 0.0986432 0.0467461
4627 1 0.968347 0.0995222 0.0434568
8642 2 0.00948718 0.133392 0.0428405
8641 1 0.00188121 0.133542 0.0405468
8643 1 0.010879 0.126778 0.0390424
2199 1 0.0166221 0.154263 0.0436936
17610 1 0.209106 0.154373 0.0603104
17143 1 0.229087 0.135962 0.0457614
17144 3 0.230671 0.134113 0.038375
17145 1 0.23586 0.139199 0.0343234
3577 1 0.225442 0.154885 0.0482574
21159 1 0.428803 0.131165 0.0425939
21158 3 0.43677 0.130434 0.0394802
2136 1 0.438626 0.148475 0.0615141
2135 3 0.436861 0.140816 0.0613864
17350 1 0.980571 0.129548 0.0572839
2197 1 0.0275235 0.163353 0.0373993
2198 2 0.022902 0.1569 0.0388476
10657 1 0.028763 0.166117 0.037345
20489 2 0.0507028 0.180928 0.0479746
10659 1 0.0398524 0.176354 0.0419741
20490 1 0.0422131 0.177546 0.0431299
10658 2 0.0332809 0.17274 0.0378592
20488 1 0.056448 0.181341 0.0510228
12701 3 0.077613 0.17489 0.0430527
12702 1 0.075923 0.174395 0.0507241
12700 1 0.0826913 0.181009 0.0386275
3578 3 0.222568 0.161897 0.0504054
3579 1 0.219285 0.167609 0.0504644
21236 3 0.356292 0.169516 0.0338001
21237 1 0.350117 0.171646 0.0391826
21235 1 0.363664 0.164046 0.0339091
16904 2 0.511485 0.164167 0.0323306
16905 1 0.506363 0.167233 0.0358742
16903 1 0.518305 0.168508 0.0341826
8305 1 0.52052 0.16967 0.0350022
8306 2 0.526515 0.17471 0.0378628
16324 1 0.534933 0.176027 0.0451936
16325 2 0.539816 0.177192 0.0516425
8307 1 0.533126 0.175526 0.0433016
16326 1 0.544542 0.171612 0.0538675
3837 1 0.546363 0.169341 0.0546012
3835 1 0.557122 0.160934 0.0613915
3836 3 0.55075 0.162274 0.0567526
2908 1 0.751963 0.184379 0.0321231
14501 2 0.740318 0.166378 0.0330244
14502 1 0.735639 0.16734 0.0394051
20061 1 0.872471 0.176135 0.0390345
20060 2 0.866495 0.172407 0.0333641
20059 1 0.85874 0.169707 0.0331338
10215 1 0.895226 0.187113 0.0475986
12094 1 0.0275186 0.197775 0.0555598
15266 2 0.0208281 0.21445 0.0585589
15267 1 0.0169643 0.207746 0.0555663
3192 1 0.0156681 0.205031 0.0541221
3191 2 0.0123779 0.199247 0.0504055
3190 1 0.0127269 0.192094 0.0499478
12095 2 0.0351864 0.196102 0.05112
3166 1 0.0560788 0.213825 0.0451992
3167 2 0.0502163 0.208189 0.0460951
12096 1 0.041026 0.201464 0.0490147
3168 1 0.0433082 0.20307 0.0482496
13182 1 0.136696 0.213649 0.0373269
3765 1 0.238198 0.213447 0.0532276
1841 3 0.254005 0.211483 0.0347942
1842 1 0.256672 0.212964 0.0412077
17694 1 0.313478 0.198084 0.0525021
17693 3 0.309714 0.200362 0.059063
485 2 0.511834 0.204661 0.054706
484 1 0.512702 0.21206 0.0510533
7064 2 0.524842 0.196616 0.0617422
7065 1 0.519658 0.199894 0.0593572
486 1 0.516909 0.201556 0.0576981
7654 1 0.557238 0.207873 0.0542888
7655 2 0.556166 0.202315 0.0610688
6290 2 0.599346 0.189319 0.0319171
14224 1 0.637242 0.195467 0.0513486
14225 3 0.641675 0.1934 0.0572929
12482 3 0.723858 0.21016 0.0420054
12483 1 0.718819 0.213436 0.0458724
11784 1 0.716583 0.214799 0.0475569
11782 1 0.704745 0.217223 0.057765
12481 1 0.732116 0.212413 0.0409741
339 1 0.780298 0.188394 0.0545752
338 2 0.780549 0.195051 0.0502563
337 1 0.77598 0.19391 0.0430225
2021 3 0.824412 0.204801 0.0441978
2020 1 0.828658 0.197877 0.0412081
2022 1 0.81828 0.20764 0.0486956
2452 1 0.87239 0.203396 0.0473728
2453 2 0.865344 0.203542 0.0533298
2454 1 0.858028 0.202646 0.0484799
14310 1 0.892018 0.204367 0.0529519
10213 1 0.892628 0.201577 0.0520604
10214 3 0.89422 0.194656 0.0489094
14309 2 0.889774 0.212272 0.0542605
15265 1 0.0240834 0.220746 0.0600924
14161 1 0.0788598 0.248842 0.0551393
14162 2 0.0866209 0.24795 0.0593619
1103 2 0.0995948 0.226966 0.0568966
1104 1 0.104517 0.233619 0.0577547
1102 1 0.0936494 0.220653 0.0592278
12003 1 0.129566 0.228794 0.0577606
12002 2 0.123637 0.228609 0.0608371
15648 1 0.167115 0.237798 0.0354979
3249 1 0.205721 0.246547 0.0594883
3764 2 0.236042 0.219078 0.0463981
3763 1 0.23816 0.222878 0.0391521
11783 3 0.71104 0.218846 0.052481
17767 1 0.778081 0.244634 0.0414483
17768 3 0.785686 0.24581 0.0385603
12709 1 0.801186 0.219616 0.0466081
12710 3 0.794214 0.221231 0.0493375
17769 1 0.793 0.248491 0.0363559
11069 3 0.813285 0.234468 0.050775
12711 1 0.790522 0.219085 0.0558294
11068 1 0.812729 0.240033 0.0550457
5888 3 0.830862 0.22971 0.0434458
5887 1 0.838289 0.228876 0.0398463
5889 1 0.823606 0.231161 0.0456596
11070 1 0.8206 0.232145 0.0470729
4862 3 0.863927 0.224502 0.0379691
4861 1 0.856409 0.22549 0.0365801
4863 1 0.872509 0.223408 0.0367594
7440 1 0.875296 0.223251 0.0363765
7438 1 0.888408 0.226967 0.0349338
14308 1 0.890503 0.219708 0.0558001
16165 1 0.890792 0.222507 0.0564145
16166 2 0.889539 0.230751 0.0575733
7439 2 0.882367 0.222108 0.0320894
16167 1 0.889563 0.239093 0.0561952
11310 1 0.889634 0.241768 0.0557849
11309 2 0.890367 0.249298 0.0570766
7675 1 0.922476 0.240962 0.0602493
2769 1 0.0799379 0.251362 0.0403268
2768 2 0.0856384 0.255906 0.0366124
2767 1 0.0893667 0.263379 0.0355633
13661 3 0.10591 0.263042 0.0324253
13662 1 0.105174 0.268665 0.036805
12735 1 0.195424 0.27756 0.0482058
12733 1 0.21094 0.274832 0.0495891
12734 2 0.203745 0.276756 0.0487804
3248 2 0.205901 0.254295 0.0607489
958 1 0.606066 0.259737 0.0336456
13474 1 0.640715 0.268652 0.0343532
11308 1 0.893446 0.255735 0.0605013
16908 1 0.89468 0.258655 0.0618799
2856 1 0.939168 0.251211 0.048812
2854 1 0.93733 0.267373 0.0451781
2855 3 0.935338 0.258735 0.0468862
11756 2 0.917982 0.26125 0.0591047
11757 1 0.92191 0.266037 0.0550812
522 1 0.954648 0.262251 0.0545821
21243 1 0.953734 0.263532 0.0568324
520 1 0.958169 0.251676 0.0434659
521 2 0.956093 0.258569 0.0480606
10594 1 0.969338 0.279292 0.0419
970 1 0.069639 0.308096 0.0353992
1943 2 0.24146 0.2913 0.0389239
1942 1 0.234515 0.292649 0.0420789
1944 1 0.249839 0.289752 0.0425877
8170 1 0.252597 0.289714 0.0435655
8171 2 0.260271 0.289936 0.0463337
8172 1 0.26664 0.294777 0.0471163
16809 1 0.269267 0.297061 0.0469623
5980 1 0.301843 0.303531 0.0395337
5981 3 0.294169 0.300152 0.0379359
16808 3 0.274818 0.302113 0.0478624
5982 1 0.286711 0.303993 0.0389047
16807 1 0.275872 0.305955 0.0549191
14044 1 0.275723 0.307899 0.0575368
11843 2 0.330384 0.296436 0.0352454
11842 1 0.337826 0.293843 0.0350535
415 1 0.736549 0.304938 0.0562291
416 3 0.734019 0.306743 0.0494418
417 1 0.730769 0.308387 0.0424685
2234 2 0.887491 0.30447 0.0404327
2235 1 0.884783 0.300845 0.0463939
2233 1 0.890691 0.30671 0.0335289
10596 1 0.967219 0.284884 0.0520418
18784 1 0.965453 0.285185 0.0553748
18785 2 0.961565 0.28809 0.0614005
10595 2 0.971932 0.28471 0.0461368
5090 2 0.0512652 0.336423 0.0363928
21286 1 0.0507725 0.325542 0.0349604
5089 1 0.0505324 0.328389 0.0355642
21287 2 0.0519235 0.317695 0.033361
972 1 0.0798736 0.313772 0.0393685
971 2 0.0722592 0.315048 0.0362057
243 1 0.224505 0.339997 0.0339272
241 1 0.213235 0.337611 0.0400002
242 2 0.220159 0.339839 0.0412568
15487 1 0.723811 0.319048 0.0542781
15488 2 0.718433 0.320035 0.0479357
15489 1 0.71454 0.321164 0.0404105
16030 1 0.90171 0.322758 0.054419
5091 1 0.047618 0.343799 0.0367403
19687 1 0.166693 0.360513 0.0568295
19688 3 0.170126 0.358036 0.0495781
19689 1 0.170855 0.354189 0.0425182
100 1 0.165154 0.361454 0.0597988
5670 1 0.204724 0.368306 0.0397029
5669 2 0.207263 0.369608 0.0469328
5668 1 0.20387 0.374398 0.0512493
6087 1 0.229578 0.345729 0.0618567
6086 2 0.2224 0.347551 0.061299
15053 2 0.462822 0.356307 0.0373754
15054 1 0.457697 0.349457 0.0366744
21127 1 0.504309 0.357633 0.0471665
21128 3 0.499988 0.361021 0.0526587
21129 1 0.500803 0.358034 0.0601496
10722 1 0.518186 0.351272 0.0515233
10721 2 0.522521 0.354773 0.0569377
4405 1 0.662459 0.361307 0.0386416
4407 1 0.674842 0.365293 0.044748
4406 2 0.667804 0.364798 0.0430349
12186 1 0.775301 0.368681 0.0434819
12185 2 0.768398 0.370723 0.0383824
12184 1 0.760994 0.368628 0.0406568
7738 1 0.862507 0.36945 0.0337187
7740 1 0.872433 0.358265 0.0338244
13911 1 0.873956 0.355769 0.0345732
13910 2 0.876498 0.348468 0.0371777
13909 1 0.87882 0.344488 0.0421333
7204 1 0.149414 0.403236 0.0463768
8564 2 0.170607 0.389207 0.0515928
8563 1 0.167087 0.39522 0.0555116
8565 1 0.17385 0.385479 0.0453403
19170 1 0.171203 0.403508 0.0620548
20441 2 0.199705 0.383034 0.0569482
20440 1 0.202193 0.37695 0.0534958
2690 2 0.203934 0.396642 0.0359348
2691 1 0.203651 0.399953 0.0427702
17698 1 0.372578 0.392373 0.0385965
8558 2 0.47176 0.383692 0.050861
8557 1 0.466092 0.389392 0.0500924
8559 1 0.474211 0.377454 0.0546414
749 2 0.71804 0.388767 0.0374857
750 1 0.712105 0.388557 0.032147
748 1 0.725347 0.393211 0.0408186
7240 1 0.793526 0.404229 0.0352081
14726 2 0.859265 0.375257 0.0618938
17467 1 0.866233 0.380996 0.0578771
14725 1 0.864373 0.379764 0.0587085
17468 2 0.873381 0.383846 0.0572558
17469 1 0.881343 0.386236 0.0595748
17788 1 0.0219158 0.409984 0.0500511
17789 3 0.0223495 0.409025 0.0576795
10854 1 0.137026 0.421015 0.036771
10852 1 0.146624 0.430437 0.0357757
10853 3 0.141597 0.42616 0.039672
20823 1 0.171715 0.419706 0.0620203
7205 2 0.154936 0.409102 0.0494834
7206 1 0.159429 0.409189 0.0554098
9259 1 0.181871 0.414347 0.0350723
19605 1 0.583176 0.436403 0.0570456
7241 3 0.786841 0.409744 0.0345325
4884 1 0.9473 0.436503 0.0400042
5555 3 0.0168455 0.452682 0.048477
21076 1 0.0116827 0.452439 0.038978
5554 1 0.012822 0.452432 0.0419924
21077 3 0.00885881 0.454086 0.0317255
5556 1 0.0203371 0.448774 0.0545181
16103 2 0.180476 0.443263 0.0559388
16104 1 0.182475 0.441995 0.049104
17526 1 0.252592 0.465795 0.0586168
20803 1 0.572009 0.468035 0.0544981
16648 1 0.604302 0.468233 0.0601533
16466 3 0.752045 0.465802 0.0588726
6921 1 0.78182 0.460319 0.0345815
13052 3 0.805742 0.465417 0.0368654
13053 1 0.801155 0.459241 0.0401898
10298 3 0.927874 0.466164 0.0479011
4883 2 0.9456 0.44337 0.0340807
15966 1 0.14697 0.491444 0.0458767
15965 3 0.148997 0.497722 0.0417301
17815 1 0.177708 0.473327 0.0365359
8665 1 0.165738 0.489203 0.0541391
8666 3 0.165708 0.493243 0.062461
4791 1 0.182521 0.493508 0.0609866
4789 1 0.190539 0.492939 0.0609477
17524 1 0.252456 0.476939 0.0486961
17525 2 0.252954 0.474102 0.0561639
15455 2 0.338984 0.480867 0.0454678
15454 1 0.341883 0.488746 0.0458381
15456 1 0.339824 0.47731 0.0383082
11360 3 0.374978 0.483055 0.059422
11361 1 0.379392 0.489704 0.0608094
9346 1 0.381324 0.492144 0.0615179
9347 3 0.385664 0.498564 0.0614365
16383 1 0.401715 0.486259 0.0376766
8221 1 0.441638 0.473591 0.0526713
8222 3 0.447481 0.472052 0.0569191
8223 1 0.454163 0.472736 0.0587964
8134 1 0.586519 0.487298 0.0336531
20804 3 0.57789 0.471473 0.0506464
20805 1 0.578772 0.4737 0.0440249
8136 1 0.587005 0.489594 0.0482461
8135 3 0.587035 0.48578 0.0412841
16649 3 0.595768 0.470756 0.0604869
4681 1 0.690911 0.498021 0.0319993
16465 1 0.755934 0.47072 0.0542376
13051 1 0.81122 0.469717 0.0339713
4207 1 0.852676 0.487946 0.0562532
6673 1 0.854276 0.489288 0.0543567
6674 3 0.859964 0.491999 0.0490702
6675 1 0.864744 0.486855 0.0432963
10297 1 0.921256 0.469244 0.0507978
10299 1 0.934386 0.471508 0.0457927
7294 1 0.010343 0.000700612 0.0771841
7191 1 0.397723 0.0088023 0.064736
2356 1 0.397819 0.00751947 0.0626033
7189 1 0.398461 0.0199788 0.0751247
7190 2 0.398923 0.013781 0.0711827
14422 1 0.50223 0.00306183 0.072839
19489 1 0.500832 0.000774618 0.0708992
14423 2 0.50513 0.0088355 0.0771636
14424 1 0.509215 0.0138732 0.0816757
13175 2 0.577662 0.00570569 0.0725
13176 1 0.578154 0.0111541 0.0772358
4690 1 0.731346 0.00268945 0.0663735
16199 3 0.831062 0.020707 0.0931807
16200 1 0.829826 0.0271648 0.0876058
3327 1 0.918218 0.0054194 0.0810864
16507 1 0.944411 0.0200458 0.0744275
16509 1 0.939518 0.00958364 0.0666934
16508 2 0.940898 0.0176456 0.0671749
844 1 0.144887 0.0600839 0.0648889
7882 1 0.181216 0.0414732 0.0854631
7884 1 0.18982 0.053215 0.07739
7883 3 0.185776 0.046155 0.0796675
9865 1 0.258231 0.0347391 0.0854817
9866 3 0.258685 0.0341279 0.0929625
18854 3 0.27913 0.0510022 0.076274
18855 1 0.279239 0.0572009 0.0823938
18853 1 0.275028 0.045143 0.0733634
20832 1 0.514788 0.0411748 0.0740382
20831 2 0.519678 0.0407704 0.0804224
20830 1 0.527009 0.0453825 0.0817925
298 1 0.812402 0.0585873 0.0852971
845 2 0.138697 0.0643297 0.0690713
19029 1 0.140428 0.0722262 0.0770322
846 1 0.13991 0.0696181 0.0750156
19075 1 0.140393 0.0887926 0.088097
19027 1 0.140811 0.0863368 0.0865112
19028 2 0.143551 0.0789414 0.0827626
18223 1 0.320411 0.0725308 0.0893356
11865 1 0.322253 0.0710218 0.0910192
18225 1 0.309998 0.0688456 0.0844356
18224 3 0.314705 0.0757569 0.0846946
5365 1 0.378753 0.0876779 0.0721693
5367 1 0.36459 0.0812017 0.06464
5366 3 0.37035 0.0853288 0.0699173
6707 2 0.421757 0.0884503 0.07998
6706 1 0.421933 0.0815571 0.0788628
18231 1 0.477774 0.092093 0.0654561
18230 3 0.469398 0.0927995 0.0665419
18077 3 0.660179 0.0881569 0.0831983
18078 1 0.656902 0.081337 0.0795418
300 1 0.813002 0.0722055 0.0884769
299 3 0.816589 0.0648659 0.0882253
9324 1 0.809361 0.0930861 0.0739802
5075 3 0.0296645 0.111024 0.0675466
17296 1 0.0580929 0.111288 0.0706582
5076 1 0.0383566 0.111034 0.06952
17298 1 0.0415675 0.111308 0.0699532
17297 3 0.0498401 0.11197 0.0704143
19076 2 0.13784 0.0944556 0.0932537
900 1 0.191871 0.10549 0.0638662
14073 1 0.209652 0.121857 0.0816676
899 2 0.190199 0.100872 0.0702793
898 1 0.18681 0.0954431 0.0756427
14072 3 0.216125 0.122539 0.0766761
18614 3 0.234056 0.111339 0.0742976
18615 1 0.239921 0.106003 0.0754922
18613 1 0.228939 0.117039 0.0735779
14071 1 0.221691 0.117828 0.079692
9402 1 0.25345 0.124041 0.0890347
9400 1 0.266431 0.11475 0.0909206
9401 2 0.260034 0.11834 0.0898036
15382 1 0.318465 0.115306 0.0936279
9595 1 0.423907 0.0979182 0.077446
6708 1 0.423031 0.0952448 0.0778679
9597 1 0.424187 0.111387 0.0804026
9596 2 0.427087 0.105699 0.0761233
18229 1 0.462385 0.0966442 0.0679722
21216 1 0.48182 0.124705 0.0690057
1289 2 0.573866 0.117058 0.0787367
1290 1 0.574826 0.111508 0.0730488
1288 1 0.578871 0.121142 0.0824095
18076 1 0.662206 0.0938308 0.0860994
9322 1 0.802094 0.104408 0.067568
9323 2 0.80486 0.0978637 0.0698147
17352 1 0.968592 0.123032 0.0636441
16320 1 0.128549 0.152371 0.0691175
2664 1 0.154141 0.1439 0.0723592
2662 1 0.164659 0.149376 0.0692792
2663 3 0.160794 0.142554 0.0696777
5812 1 0.250965 0.126365 0.088667
19375 1 0.269874 0.145717 0.088914
7410 1 0.249559 0.142671 0.0841968
7409 3 0.24898 0.150152 0.0816085
5813 2 0.24684 0.132245 0.0870604
5814 1 0.249204 0.139636 0.0847103
19376 3 0.277057 0.14724 0.0922854
1181 2 0.334739 0.155399 0.0841471
1180 1 0.341996 0.154366 0.0870498
780 1 0.439443 0.151195 0.0625216
2134 1 0.434916 0.133846 0.0641468
15029 3 0.442562 0.15541 0.0845391
15030 1 0.440776 0.153053 0.0928231
4653 1 0.456784 0.150644 0.0734091
4651 1 0.471449 0.147203 0.0798168
4652 3 0.464252 0.147486 0.0750752
20090 3 0.943451 0.15345 0.0700416
6791 3 0.95513 0.142043 0.0811988
6792 1 0.962448 0.143309 0.0810674
6790 1 0.950685 0.146694 0.0768216
20091 1 0.949151 0.148381 0.0752981
17351 2 0.975503 0.126785 0.0633702
17232 1 0.0728353 0.17329 0.0884064
17231 2 0.0727488 0.165001 0.0899855
16318 1 0.117859 0.160958 0.0626597
16319 2 0.124826 0.160132 0.0661339
17609 3 0.210511 0.158203 0.0672127
17608 1 0.209135 0.15998 0.0749078
7408 1 0.247154 0.157702 0.0814236
1182 1 0.332937 0.159265 0.0769806
779 3 0.442866 0.158048 0.0650342
15028 1 0.443301 0.157205 0.0761624
778 1 0.443522 0.157825 0.0732882
9203 3 0.459713 0.173576 0.0720178