ITEM: TIMESTEP
10000000
ITEM: NUMBER OF ATOMS
189
ITEM: BOX BOUNDS pp pp pp
0.0000000000000000e+00 5.0000000000000000e+01
0.0000000000000000e+00 5.0000000000000000e+01
0.0000000000000000e+00 5.0000000000000000e+01
ITEM: ATOMS id type xs ys zs
996 1 0.255775 0.107102 0.433282
995 3 0.255013 0.0994461 0.435046
10363 1 0.273219 0.130806 0.435539
994 1 0.250637 0.0937119 0.438232
18713 3 0.272654 0.0887149 0.448
18714 1 0.274163 0.0817997 0.444706
7162 1 0.284271 0.09231 0.463679
8941 1 0.2359 0.124238 0.45521
18712 1 0.272613 0.095929 0.445718
13257 1 0.254835 0.106246 0.464174
13255 1 0.261279 0.107957 0.450541
13256 3 0.256559 0.104787 0.456664
8943 1 0.249978 0.1184 0.452939
8942 3 0.24295 0.122847 0.451563
7246 1 0.272784 0.098975 0.444676
7248 1 0.274204 0.114038 0.441349
10365 1 0.274241 0.117376 0.440822
7247 3 0.273922 0.105696 0.441349
10364 3 0.274447 0.125285 0.439482
13749 1 0.304585 0.197435 0.457343
13748 3 0.310884 0.201079 0.452192
13747 1 0.316146 0.206589 0.450755
10919 2 0.141312 0.434682 0.450354
10918 1 0.135791 0.429946 0.446855
10920 1 0.143847 0.442793 0.451104
17356 1 0.144899 0.445829 0.451269
17357 3 0.148299 0.453262 0.452236
17358 1 0.152848 0.457501 0.457361
7163 3 0.282126 0.0920001 0.471503
7164 1 0.285053 0.0886207 0.478735
5531 2 0.280653 0.141578 0.471103
5532 1 0.281455 0.133328 0.472607
5530 1 0.276377 0.148168 0.471122
5415 1 0.156999 0.42357 0.497728
13224 1 0.156867 0.425901 0.495906
13223 2 0.156078 0.433566 0.4921
13222 1 0.159925 0.43709 0.486945
7337 3 0.166162 0.442577 0.478795
7338 1 0.161951 0.438522 0.484388
19074 1 0.176086 0.446675 0.476176
7336 1 0.173086 0.44587 0.476701
12548 3 0.194621 0.462727 0.477072
12547 1 0.190755 0.456454 0.475169
12549 1 0.202436 0.464915 0.477345
19073 3 0.183497 0.448756 0.474539
19072 1 0.188886 0.453661 0.474586
5414 3 0.1564 0.416696 0.50261
5413 1 0.161079 0.410213 0.505201
2076 1 0.17455 0.212517 0.645747
2075 2 0.171045 0.20566 0.649268
2074 1 0.171414 0.199728 0.655243
11822 3 0.147247 0.240813 0.638534
11821 1 0.15018 0.234546 0.641457
11823 1 0.146487 0.249369 0.639904
7251 1 0.162415 0.222722 0.653844
13895 3 0.189322 0.240454 0.634195
13894 1 0.191482 0.233915 0.637966
13896 1 0.187005 0.247071 0.630167
948 1 0.163575 0.273327 0.65151
4164 1 0.140688 0.210266 0.664662
9213 1 0.138266 0.212522 0.664797
9212 2 0.132033 0.218742 0.663394
4163 2 0.146435 0.205735 0.663385
4162 1 0.153082 0.205323 0.660418
10375 1 0.171494 0.198045 0.657931
10376 2 0.171644 0.194974 0.665146
10377 1 0.173637 0.193357 0.672889
17091 1 0.17345 0.193147 0.676142
5815 1 0.155102 0.20839 0.674262
17090 2 0.174552 0.192193 0.683934
5816 2 0.159943 0.211213 0.679759
5817 1 0.168243 0.214388 0.679767
8416 1 0.171204 0.215582 0.680237
17089 1 0.170751 0.187502 0.687362
9211 1 0.125395 0.220533 0.659714
8417 2 0.17772 0.219426 0.680749
7249 1 0.153202 0.224865 0.665579
7250 2 0.157026 0.221599 0.659009
8360 2 0.161899 0.238856 0.684014
8359 1 0.167069 0.241413 0.679437
21502 1 0.169202 0.242905 0.67801
21503 2 0.175415 0.247052 0.675375
8418 1 0.185258 0.219283 0.677687
16980 1 0.201518 0.222685 0.671093
16978 1 0.187651 0.21936 0.676864
16979 2 0.194325 0.220377 0.673506
12208 1 0.145671 0.25384 0.668508
12209 2 0.152106 0.258696 0.669961
12210 1 0.156159 0.265015 0.665715
947 2 0.162214 0.270255 0.6578
946 1 0.157529 0.266858 0.663978
21504 1 0.180938 0.252346 0.674685
18417 1 0.183736 0.261901 0.667363
18416 2 0.186423 0.265321 0.674127
18415 1 0.189553 0.267421 0.681074
12915 1 0.1903 0.268173 0.684359
20195 2 0.150596 0.182066 0.706105
20194 1 0.145901 0.181946 0.712516
20196 1 0.156984 0.181638 0.70104
6717 1 0.159334 0.18135 0.698947
6715 1 0.169173 0.185585 0.688715
6716 2 0.165066 0.18098 0.692614
9008 2 0.163676 0.214291 0.710062
9009 1 0.158901 0.211543 0.705085
9420 1 0.1509 0.2355 0.707584
8361 1 0.157913 0.235873 0.690502
9418 1 0.156906 0.234819 0.692933
9419 2 0.15499 0.231997 0.700628
9007 1 0.169502 0.218976 0.710702
12914 2 0.193368 0.269412 0.691464
19917 1 0.191434 0.273049 0.701689
12913 1 0.192321 0.271981 0.698854
19916 2 0.190148 0.275495 0.707512
19915 1 0.1909 0.282255 0.710062
21049 1 0.261245 0.5162 0.698068
12730 1 0.262345 0.527106 0.711932
21051 1 0.261493 0.525754 0.709482
21050 2 0.25866 0.522651 0.70197
12731 3 0.264657 0.528897 0.719988
3303 1 0.523232 0.506533 0.733696
3302 2 0.522891 0.514099 0.728019
3301 1 0.52332 0.521593 0.723825
7427 2 0.266078 0.53665 0.736759
7428 1 0.266431 0.535933 0.744617
12732 1 0.265245 0.53257 0.726296
7426 1 0.266094 0.534261 0.728887
16224 1 0.683596 0.665304 0.90468
12832 1 0.697388 0.592203 0.933058
12834 1 0.709729 0.596829 0.93605
8670 1 0.712394 0.598076 0.934703
8669 3 0.719126 0.600795 0.930396
8668 1 0.725853 0.605493 0.929102
2064 1 0.729214 0.607036 0.929385
2063 2 0.736362 0.610842 0.929038
2062 1 0.739875 0.615571 0.935583
829 1 0.652939 0.668729 0.934819
3863 3 0.666684 0.659631 0.92586
3862 1 0.670569 0.659351 0.933185
9150 1 0.672203 0.659064 0.935926
3864 1 0.672581 0.661123 0.920348
16222 1 0.674244 0.661708 0.917605
16223 3 0.67848 0.664768 0.911205
19207 1 0.938195 0.845161 0.936002
12833 2 0.702306 0.594109 0.937774
14329 1 0.740965 0.617148 0.938411
1045 1 0.752035 0.613521 0.96659
20743 1 0.749324 0.614717 0.967407
14330 2 0.744148 0.621261 0.944675
1046 2 0.759482 0.612283 0.963371
1047 1 0.764652 0.617189 0.961233
2368 1 0.766213 0.619356 0.959697
2369 2 0.771135 0.623784 0.955833
18357 1 0.691966 0.651943 0.940514
18356 3 0.694241 0.645561 0.94478
9148 1 0.679429 0.654155 0.950161
18355 1 0.698822 0.639353 0.943936
7614 1 0.746416 0.644068 0.957438
7612 1 0.745768 0.630224 0.947186
14331 1 0.7456 0.628213 0.946417
7613 2 0.746542 0.638075 0.950624
16127 2 0.743482 0.650427 0.966893
16128 1 0.745792 0.645617 0.959852
2370 1 0.771774 0.631964 0.954178
830 3 0.654243 0.673156 0.941875
831 1 0.658977 0.675393 0.947574
3373 1 0.661167 0.67555 0.949921
3374 3 0.666144 0.675129 0.955994
3375 1 0.665873 0.680524 0.961879
1116 1 0.665724 0.682391 0.964234
9149 3 0.675445 0.656861 0.94245
14348 3 0.690991 0.676953 0.946673
14347 1 0.692824 0.67661 0.95387
14349 1 0.698358 0.677654 0.941231
13207 1 0.895536 0.795508 0.94069
13208 3 0.901924 0.798947 0.938598
13209 1 0.909277 0.80447 0.939256
18344 3 0.919207 0.809997 0.940695
18343 1 0.912021 0.806262 0.939444
2071 1 0.928352 0.815453 0.943757
2072 3 0.934913 0.821237 0.945934
19209 1 0.936044 0.830397 0.94075
2073 1 0.935602 0.827788 0.941829
18345 1 0.926064 0.814052 0.942834
19208 3 0.93707 0.837337 0.93758
20745 1 0.733241 0.614362 0.969545
20744 2 0.741019 0.617718 0.969138
16126 1 0.738668 0.654245 0.97177
1115 3 0.666834 0.686894 0.971129
1114 1 0.670642 0.69081 0.97712
