ITEM: TIMESTEP
0
ITEM: NUMBER OF ATOMS
189
ITEM: BOX BOUNDS pp pp pp
0.0000000000000000e+00 5.0000000000000000e+01
0.0000000000000000e+00 5.0000000000000000e+01
0.0000000000000000e+00 5.0000000000000000e+01
ITEM: ATOMS id type 
2368 1 
2369 2 
2370 1 
3301 1 
3302 2 
3303 1 
3373 1 
3374 3 
3375 1 
5530 1 
5531 2 
5532 1 
7162 1 
7163 3 
7164 1 
8941 1 
8942 3 
8943 1 
9007 1 
9008 2 
9009 1 
9148 1 
9149 3 
9150 1 
12208 1 
12209 2 
12210 1 
12547 1 
12548 3 
12549 1 
13207 1 
13208 3 
13209 1 
13222 1 
13223 2 
13224 1 
14347 1 
14348 3 
14349 1 
17356 1 
17357 3 
17358 1 
5815 1 
5816 2 
5817 1 
6715 1 
6716 2 
6717 1 
7246 1 
7247 3 
7248 1 
7249 1 
7250 2 
7251 1 
9211 1 
9212 2 
9213 1 
10363 1 
10364 3 
10365 1 
10375 1 
10376 2 
10377 1 
13255 1 
13256 3 
13257 1 
14329 1 
14330 2 
14331 1 
18415 1 
18416 2 
18417 1 
18712 1 
18713 3 
18714 1 
19915 1 
19916 2 
19917 1 
20743 1 
20744 2 
20745 1 
21049 1 
21050 2 
21051 1 
1045 1 
1046 2 
1047 1 
2062 1 
2063 2 
2064 1 
3862 1 
3863 3 
3864 1 
4162 1 
4163 2 
4164 1 
5413 1 
5414 3 
5415 1 
7336 1 
7337 3 
7338 1 
8359 1 
8360 2 
8361 1 
8416 1 
8417 2 
8418 1 
8668 1 
8669 3 
8670 1 
11821 1 
11822 3 
11823 1 
12730 1 
12731 3 
12732 1 
12913 1 
12914 2 
12915 1 
13747 1 
13748 3 
13749 1 
16222 1 
16223 3 
16224 1 
19207 1 
19208 3 
19209 1 
21502 1 
21503 2 
21504 1 
829 1 
830 3 
831 1 
946 1 
947 2 
948 1 
994 1 
995 3 
996 1 
1114 1 
1115 3 
1116 1 
2071 1 
2072 3 
2073 1 
2074 1 
2075 2 
2076 1 
7426 1 
7427 2 
7428 1 
7612 1 
7613 2 
7614 1 
9418 1 
9419 2 
9420 1 
10918 1 
10919 2 
10920 1 
12832 1 
12833 2 
12834 1 
13894 1 
13895 3 
13896 1 
16126 1 
16127 2 
16128 1 
16978 1 
16979 2 
16980 1 
17089 1 
17090 2 
17091 1 
18343 1 
18344 3 
18345 1 
18355 1 
18356 3 
18357 1 
19072 1 
19073 3 
19074 1 
20194 1 
20195 2 
20196 1 
