ITEM: TIMESTEP
25000000
ITEM: NUMBER OF ATOMS
11880
ITEM: BOX BOUNDS pp pp pp
0.0000000000000000e+00 5.0000000000000000e+01
0.0000000000000000e+00 5.0000000000000000e+01
0.0000000000000000e+00 5.0000000000000000e+01
ITEM: ATOMS id type xs ys zs
6278 2 0.110941 0.000409092 0.0253658
6279 1 0.102259 0.00233335 0.023146
20072 2 0.0871926 0.100329 0.00246768
20073 1 0.0920241 0.0977136 0.00961087
3235 1 0.228342 0.118253 0.0130639
12558 1 0.228082 0.116996 0.0160224
12557 3 0.227286 0.113788 0.0225989
12556 1 0.227264 0.109266 0.0294315
3236 3 0.229915 0.123359 0.00676304
4175 2 0.282062 0.124042 0.00980449
4174 1 0.275168 0.121674 0.0122432
6316 1 0.118133 0.206416 0.00326992
7137 1 0.27709 0.276261 0.000371896
2229 1 0.0277197 0.294957 0.00334965
2228 2 0.0327499 0.296393 0.00888098
2227 1 0.0391636 0.297229 0.0138233
17692 1 0.249342 0.310354 0.0250764
17693 3 0.24681 0.305558 0.0306263
7135 1 0.267735 0.28938 0.000194548
1532 2 0.0600726 0.330485 0.017964
1533 1 0.0540075 0.331378 0.0142866
1531 1 0.0648835 0.330482 0.0237287
6917 2 0.175698 0.340841 0.0108408
6918 1 0.177924 0.341625 0.00390271
6916 1 0.173845 0.340422 0.0195425
19932 1 0.156839 0.375452 0.0207126
19931 2 0.162145 0.378917 0.0155649
19930 1 0.165873 0.384354 0.0110804
7750 1 0.166994 0.386212 0.00888788
7751 2 0.170776 0.390151 0.00260034
16402 1 0.217103 0.433575 0.0256615
13300 1 0.126828 0.449435 0.0267976
13301 2 0.130616 0.445347 0.0307535
16403 3 0.222401 0.437934 0.0300426
6914 2 0.0313349 0.559059 0.00123816
6915 1 0.0304315 0.566091 0.00585796
10775 2 0.218211 0.0705478 0.048161
10774 1 0.215353 0.0661976 0.0537539
10776 1 0.222689 0.0751629 0.0425043
12865 1 0.269376 0.087334 0.0606129
11859 1 0.238911 0.143414 0.0481312
11858 2 0.235941 0.148747 0.0535855
11857 1 0.230665 0.152369 0.0590171
1686 1 0.227997 0.153523 0.0606661
11901 1 0.188071 0.190742 0.0554429
17694 1 0.246141 0.303528 0.0380615
13302 1 0.134044 0.439952 0.0357706
16404 1 0.227792 0.440644 0.0347538
7491 1 0.219217 0.551961 0.04249
7489 1 0.205608 0.548583 0.0517277
7490 3 0.213145 0.549548 0.0472773
4616 3 0.00518823 0.572923 0.0565002
4617 1 0.00744077 0.565963 0.0598049
4615 1 0.000901317 0.579501 0.0544399
17423 3 0.045632 0.564087 0.0408022
17424 1 0.0533254 0.562865 0.0429353
17422 1 0.0379929 0.565973 0.0401272
9721 1 0.21468 0.563027 0.0411888
9722 3 0.217385 0.571439 0.0385513
9723 1 0.220938 0.57849 0.0371159
8688 1 0.00944889 0.00716317 0.0863193
8687 3 0.00805584 0.0134499 0.0912965
17109 1 0.158521 0.00836332 0.0810247
17108 2 0.160073 0.0121006 0.0881805
1257 1 0.105301 0.062005 0.0851245
1256 2 0.105669 0.0664506 0.0914699
12866 2 0.270848 0.0837683 0.0686266
12867 1 0.27024 0.0788827 0.0758856
3719 2 0.169624 0.109817 0.0862512
3720 1 0.161983 0.114989 0.0860076
3718 1 0.175653 0.104423 0.0856731
19024 1 0.213926 0.0952204 0.0685736
19026 1 0.207547 0.107438 0.075997
19025 2 0.208959 0.100172 0.0718594
1685 2 0.220301 0.155577 0.0631735
12876 1 0.21918 0.152109 0.088228
17296 1 0.129111 0.176047 0.0921265
1684 1 0.213068 0.158559 0.0652877
12875 2 0.216324 0.159165 0.0847074
12874 1 0.213607 0.166439 0.0808103
11899 1 0.19058 0.185323 0.0693438
11900 2 0.188201 0.187848 0.0619884
2637 1 0.199183 0.357368 0.0882828
2636 2 0.193749 0.357655 0.0927865
16715 2 0.160694 0.429717 0.0850165
16714 1 0.159962 0.422136 0.0805075
16716 1 0.161256 0.434663 0.0905195
16683 1 0.0114474 0.450838 0.0845353
16681 1 0.0241557 0.444025 0.0796769
16682 3 0.0176399 0.446289 0.0820851
10329 1 0.183163 0.462864 0.0651969
10328 3 0.176625 0.46646 0.0680984
6018 1 0.212943 0.438333 0.0902294
6017 3 0.220155 0.442721 0.0868695
6016 1 0.22493 0.447736 0.0829279
11803 1 0.155589 0.471931 0.083011
11805 1 0.167845 0.470343 0.0732742
10327 1 0.170275 0.469888 0.0720285
11804 3 0.161034 0.47172 0.0776437
15135 1 0.245153 0.486634 0.0919768
15134 2 0.249784 0.4855 0.0840732
15133 1 0.254106 0.484725 0.0765551
8802 1 0.185613 0.535316 0.0745747
3381 1 0.183298 0.536098 0.0764187
3380 3 0.178289 0.538897 0.0817464
3379 1 0.17623 0.53994 0.0895077
9058 1 0.175663 0.540123 0.092005
8800 1 0.199929 0.532444 0.0664651
8801 2 0.192744 0.533705 0.0699541
8686 1 0.00546932 0.0187675 0.0951799
16386 1 0.124219 0.00570579 0.119878
4733 3 0.157036 0.0235169 0.102833
4732 1 0.15562 0.0266604 0.108937
2940 1 0.155039 0.0280665 0.111285
16384 1 0.139466 0.00966686 0.115698
16385 3 0.13144 0.00698154 0.117275
17107 1 0.159276 0.0159768 0.0948273
4734 1 0.158861 0.0180472 0.0970327
2939 2 0.152588 0.0326314 0.118856
1255 1 0.105154 0.0702671 0.0983972
9372 1 0.112219 0.122921 0.116311
9371 3 0.111636 0.116148 0.112004
9370 1 0.108514 0.109147 0.109004
6535 1 0.16656 0.114002 0.11711
2196 1 0.00898846 0.150259 0.123312
7042 1 0.0770847 0.130904 0.112585
7044 1 0.0896692 0.142039 0.113
7075 1 0.091628 0.144301 0.112926
7043 3 0.0839212 0.135869 0.113059
16632 1 0.063885 0.149652 0.117542
16631 3 0.0691267 0.150588 0.123527
7076 3 0.0980148 0.150169 0.111886
7077 1 0.103402 0.156064 0.112269
1061 2 0.11548 0.132245 0.121483
1060 1 0.112632 0.125326 0.117696
17298 1 0.117184 0.186306 0.0957721
17297 3 0.123261 0.181164 0.093958
9489 1 0.105337 0.157881 0.112537
9488 3 0.11172 0.163998 0.113956
9487 1 0.117132 0.169737 0.114833
1474 1 0.00448374 0.20383 0.109579
1475 3 0.0010963 0.21188 0.108101
12435 1 0.204815 0.216496 0.105686
12433 1 0.197196 0.216765 0.119863
12434 3 0.19999 0.215978 0.111636
14428 1 0.0706204 0.22772 0.120413
14429 2 0.071368 0.235201 0.119571
14430 1 0.0719294 0.243427 0.12368
8107 1 0.0488857 0.27315 0.120061
8109 1 0.0556424 0.257509 0.122291
8108 2 0.0524939 0.265742 0.12197
12841 1 0.253682 0.263661 0.115772
12843 1 0.270612 0.262317 0.117393
12842 2 0.262428 0.262011 0.116212
844 1 0.0295534 0.300899 0.120787
6813 1 0.027303 0.300304 0.123418
845 2 0.0338046 0.301525 0.114924
846 1 0.0376705 0.302871 0.107685
11706 1 0.0801669 0.310787 0.0933514
11386 1 0.0885096 0.310174 0.107676
11387 3 0.094756 0.306676 0.105263
11705 3 0.0731155 0.309306 0.0960626
11704 1 0.06536 0.307 0.0976667
11388 1 0.101143 0.303392 0.10321
4819 1 0.262505 0.29204 0.119176
4821 1 0.264338 0.307904 0.114621
4820 3 0.263927 0.300241 0.116825
135 1 0.224565 0.334184 0.0973892
134 3 0.224854 0.334845 0.106011
133 1 0.224898 0.336686 0.113332
2635 1 0.18632 0.356784 0.0972659
9375 1 0.211661 0.34542 0.123316
3042 1 0.0176797 0.383833 0.0960068
7430 3 0.0293823 0.405119 0.108077
7431 1 0.0236841 0.399778 0.105482
3041 3 0.0193964 0.38999 0.100447
3040 1 0.0220674 0.397012 0.104634
16496 3 0.0796862 0.387686 0.118613
16495 1 0.0719326 0.389657 0.123044
16497 1 0.0875835 0.388171 0.114726
7429 1 0.0352886 0.41101 0.109422
9363 1 0.176076 0.432655 0.0988423
10827 1 0.0697735 0.44753 0.123194
7238 2 0.150331 0.440252 0.118634
7237 1 0.156647 0.440052 0.113519
7239 1 0.144428 0.440801 0.123777
9362 3 0.176748 0.4407 0.102096
9361 1 0.177945 0.448965 0.104062
9970 1 0.268662 0.439695 0.119001
9972 1 0.276557 0.453053 0.121494
9971 2 0.27233 0.446183 0.120287
8425 1 0.000739381 0.491181 0.0936015
2787 1 0.247828 0.511871 0.0949906
2785 1 0.238363 0.513451 0.105736
2786 2 0.242429 0.512496 0.0992972
9059 3 0.174682 0.540591 0.100179
9060 1 0.173537 0.538236 0.106106
7670 3 0.283027 0.57847 0.0937078
7669 1 0.27633 0.575144 0.0954714
13899 1 0.0264862 0.0235235 0.150384
18448 1 0.17913 8.16209e-05 0.146666
13898 2 0.0238111 0.0318697 0.14936
13897 1 0.0193678 0.0392241 0.147487
16429 1 0.146571 0.0344632 0.127491
2938 1 0.148323 0.0340864 0.125028
16430 3 0.141901 0.0365234 0.132815
16431 1 0.135054 0.0388519 0.138213
20336 2 0.143614 0.0556341 0.149801
20335 1 0.136892 0.0551814 0.145762
6537 1 0.167886 0.109988 0.133214
6536 2 0.167205 0.112448 0.125216
16630 1 0.0748095 0.151202 0.127528
3531 1 0.0780286 0.154551 0.144644
3530 3 0.080115 0.146324 0.142875
3529 1 0.0815863 0.139181 0.139431
1062 1 0.117614 0.1393 0.124235
10161 1 0.245182 0.150432 0.150451
10160 3 0.242996 0.145034 0.144562
10159 1 0.242499 0.139109 0.139975
2194 1 0.0143958 0.163957 0.128727
2195 3 0.0124046 0.156485 0.125596
19638 1 0.0692716 0.17156 0.145268
19637 3 0.0731734 0.165134 0.145861
19636 1 0.076947 0.157347 0.144913
18505 1 0.186608 0.178146 0.145632
13072 1 0.163514 0.187262 0.154488
18506 3 0.191744 0.183255 0.148693
18507 1 0.19768 0.186939 0.151612
14740 1 0.182308 0.214016 0.13445
17518 1 0.181232 0.211502 0.135346
17520 1 0.173447 0.199803 0.139843
15688 1 0.171639 0.197973 0.14144
17519 3 0.17817 0.205976 0.13797
15690 1 0.164787 0.188938 0.15246
15689 3 0.16679 0.193148 0.146373
10090 1 0.200658 0.188634 0.152883
14741 3 0.184938 0.221686 0.131564
14742 1 0.188012 0.228301 0.129291
19887 1 0.257252 0.228121 0.153666
6811 1 0.0150951 0.300842 0.133386
6812 3 0.0223279 0.299512 0.129445
4332 1 0.00787967 0.310187 0.130196
12699 1 0.00315865 0.281637 0.131694
2241 1 0.0992352 0.287073 0.151699
4331 2 0.000969718 0.31352 0.130909
20525 3 0.0333894 0.342238 0.149893
9374 3 0.21917 0.3427 0.124965
9373 1 0.225624 0.339392 0.128215
20524 1 0.0301372 0.343419 0.142549
4561 1 0.00241965 0.372772 0.130883
20247 1 0.0871668 0.343579 0.135348
20246 2 0.0951507 0.346559 0.133062
1273 1 0.104218 0.348296 0.130638
20245 1 0.101558 0.347899 0.131143
1274 3 0.11247 0.350407 0.13014
1275 1 0.11867 0.350805 0.130796
12605 3 0.0616897 0.391507 0.128114
12604 1 0.0547492 0.39224 0.132378
12606 1 0.0687837 0.390021 0.125098
8457 1 0.0825239 0.388974 0.143209
18349 1 0.0823261 0.391361 0.141679
8456 3 0.0827991 0.382213 0.147579
18350 3 0.0821465 0.397217 0.137342
8455 1 0.0820641 0.375841 0.153015
18351 1 0.0820988 0.405298 0.135607
7909 1 0.171344 0.437022 0.138284
10825 1 0.0735745 0.450969 0.137826
10826 3 0.0718443 0.449791 0.129918
6460 1 0.14227 0.441464 0.125911
6462 1 0.133954 0.443066 0.138171
6461 2 0.137561 0.442551 0.131624
7910 3 0.168645 0.441304 0.144629
7911 1 0.164991 0.445748 0.150344
4658 2 0.166093 0.559856 0.129986
4659 1 0.16453 0.552441 0.129263
5163 1 0.169242 0.584356 0.142081
5162 2 0.16664 0.578216 0.139182
5161 1 0.166956 0.570308 0.135505
4657 1 0.167054 0.56776 0.134201
1363 1 0.23308 0.0310097 0.183618
1364 2 0.240205 0.0263165 0.185773
4161 1 0.15073 0.0550167 0.157631
4160 2 0.155942 0.0539681 0.163728
20337 1 0.149039 0.0554606 0.155421
19044 1 0.180507 0.0536495 0.167151
19043 3 0.177029 0.0491915 0.173226
4159 1 0.1627 0.0506264 0.166448
19233 1 0.175248 0.0410236 0.180305
19042 1 0.175631 0.043146 0.178881
19232 2 0.174393 0.0343582 0.18339
2821 1 0.189616 0.123379 0.183038
2822 3 0.197897 0.122533 0.180786
2823 1 0.204413 0.122251 0.178152
15712 1 0.0866466 0.176623 0.184314
13073 2 0.161062 0.182546 0.160566
13074 1 0.161444 0.178075 0.168119
10091 3 0.207259 0.193856 0.156046
10872 1 0.216266 0.200073 0.159338
10092 1 0.214003 0.198775 0.158066
10871 3 0.221607 0.203941 0.161448
6409 1 0.190702 0.199629 0.162843
6410 3 0.190994 0.206588 0.164475
6411 1 0.190671 0.214519 0.166336
18847 1 0.247138 0.211589 0.162392
10870 1 0.229045 0.207395 0.162773
18849 1 0.231058 0.208326 0.163223
18848 2 0.239121 0.211066 0.163492
19886 3 0.263904 0.22877 0.156325
19885 1 0.271199 0.228659 0.159627
5798 2 0.0216566 0.280332 0.167549
5797 1 0.0293203 0.2771 0.166133
5799 1 0.0149079 0.282812 0.167727
2398 1 0.0285331 0.300622 0.18562
2239 1 0.089201 0.285814 0.164371
2240 3 0.0949246 0.285532 0.158926
20526 1 0.0356869 0.342085 0.1575
21428 3 0.250253 0.464384 0.178356
21427 1 0.255418 0.460172 0.177264
21429 1 0.244131 0.469249 0.179024
13028 3 0.273221 0.532473 0.162879
13027 1 0.277929 0.533766 0.156586
13029 1 0.267324 0.532531 0.16871
6054 1 0.0234232 0.563688 0.185473
20933 3 0.0529166 0.02688 0.212513
20934 1 0.0516212 0.0284539 0.204489
14643 1 0.051354 0.0292016 0.201575
17773 1 0.0678369 0.0235268 0.193025
17774 3 0.0687472 0.0160036 0.19633
17775 1 0.0697416 0.00867492 0.199462
19231 1 0.171305 0.02662 0.186029
1365 1 0.248106 0.0231578 0.186788
15828 1 0.275036 0.0272782 0.198608
14641 1 0.0528786 0.0355695 0.187256
14642 3 0.0514541 0.0332966 0.194416
19702 1 0.229158 0.0482308 0.19968
19703 3 0.226898 0.0429816 0.205447
19704 1 0.223821 0.0368713 0.209637
15827 3 0.269771 0.0326956 0.194501
15826 1 0.266001 0.0393655 0.1914
8920 1 0.0507208 0.0872603 0.197744
8921 3 0.0581716 0.084758 0.197249
8922 1 0.0658166 0.0815205 0.195891
15713 2 0.0864118 0.170192 0.188045
15714 1 0.0859581 0.16291 0.191999
20083 1 0.245396 0.156097 0.185973
20085 1 0.232222 0.162955 0.19217
20084 2 0.238796 0.159591 0.189341
5836 1 0.234776 0.178935 0.204856
5837 2 0.234153 0.174292 0.211252
14473 1 0.188964 0.244127 0.215537
5343 1 0.198707 0.255853 0.211189
2399 2 0.0338325 0.30709 0.188346
18574 1 0.101217 0.310039 0.193665
4191 1 0.257138 0.308257 0.216025
6035 2 0.0426712 0.322001 0.191437
6034 1 0.0402584 0.315075 0.18976
6036 1 0.044438 0.328233 0.194087
2400 1 0.038215 0.312551 0.189345
18576 1 0.0993715 0.326252 0.197167
18575 2 0.101445 0.318277 0.195702
4189 1 0.252581 0.321474 0.208644
14710 1 0.275841 0.341854 0.211135
4190 2 0.255543 0.314046 0.211906
14711 3 0.279706 0.3368 0.216613
5382 1 0.200002 0.36365 0.19923
5381 2 0.197178 0.370513 0.195114
5380 1 0.193828 0.375592 0.190681
16413 1 0.242114 0.435049 0.208264
13657 1 0.167843 0.453251 0.210439
6560 3 0.17184 0.447442 0.201976
6561 1 0.168816 0.451709 0.207806
6559 1 0.174149 0.442822 0.195953
16412 2 0.247235 0.441502 0.209753
16411 1 0.252456 0.447224 0.211352
21287 2 0.151843 0.497367 0.203984
21288 1 0.152123 0.4944 0.196897
358 1 0.0932566 0.52967 0.2032
13836 1 0.0810764 0.516572 0.209911
13835 2 0.0852038 0.52308 0.207158
13834 1 0.0910093 0.527735 0.204281
21286 1 0.150547 0.501511 0.211292
13278 1 0.275818 0.514416 0.191883
13276 1 0.268239 0.502303 0.187009
13277 3 0.272999 0.507782 0.189427
6052 1 0.0202532 0.550371 0.19153
6053 2 0.0220021 0.557408 0.189738
360 1 0.102681 0.537204 0.193196
359 3 0.098238 0.533145 0.198663
9213 1 0.133161 0.546688 0.214359
9212 2 0.134413 0.53871 0.216604
1201 1 0.218156 0.585351 0.190497
1202 3 0.223267 0.57919 0.190715
1203 1 0.226553 0.573008 0.189433
20932 1 0.0559053 0.0246962 0.219909
18999 1 0.0583506 0.0307264 0.225548
18997 1 0.0736546 0.0232385 0.231012
18998 3 0.0661299 0.0273935 0.228585
3357 1 0.0926547 0.0601339 0.229363
5327 2 0.117333 0.0566141 0.228945
5328 1 0.12545 0.0573922 0.228353
3355 1 0.106595 0.0574257 0.230345
3356 2 0.0997714 0.0582907 0.229837
5326 1 0.109816 0.0572116 0.230197
20440 1 0.242013 0.0365719 0.242594
16956 1 0.0044992 0.0760064 0.241407
16955 3 0.000931167 0.070628 0.235444
16173 1 0.125528 0.0712564 0.224937
2896 1 0.099096 0.0716845 0.234187
2898 1 0.0986832 0.0863338 0.238636
2897 2 0.0996302 0.0791898 0.237155
16172 2 0.132091 0.0740925 0.221486
16171 1 0.138428 0.0785102 0.219572
21590 3 0.125684 0.121037 0.232357
21589 1 0.127277 0.116425 0.226601
7932 1 0.272395 0.116509 0.242354
19265 2 0.277133 0.108003 0.238974
7931 2 0.267278 0.124117 0.244311
19266 1 0.273852 0.114112 0.241678
19170 1 0.282449 0.0972669 0.237131
19264 1 0.281106 0.0997262 0.237776
21591 1 0.12259 0.126135 0.23755
20546 3 0.227628 0.146244 0.237567
15513 1 0.228312 0.153946 0.228819
20547 1 0.228181 0.151269 0.231098
20545 1 0.225938 0.140329 0.242897
7930 1 0.262557 0.130378 0.246067
6213 1 0.0604888 0.178417 0.218555
6212 2 0.0627547 0.186917 0.220065
17481 1 0.177845 0.180059 0.246004
15512 2 0.229647 0.159836 0.223692
15511 1 0.231081 0.165688 0.218675
5838 1 0.23189 0.167851 0.217085
6211 1 0.0650276 0.194091 0.222359
14718 1 0.234432 0.215042 0.227105
14475 1 0.175212 0.248409 0.218812
14474 3 0.181738 0.245944 0.218483
9415 1 0.172381 0.24925 0.219146
9416 3 0.164686 0.248682 0.220962
4237 1 0.212858 0.246864 0.24186
4238 2 0.209439 0.247541 0.234119
4239 1 0.207472 0.248861 0.225883
5341 1 0.206605 0.249414 0.22397
14717 3 0.239673 0.220832 0.228436
14716 1 0.243305 0.226662 0.230369
20872 1 0.0755169 0.253642 0.239456
20873 3 0.0723502 0.25859 0.244453
9417 1 0.157436 0.249866 0.223363
5342 3 0.202869 0.251571 0.217035
20574 1 0.254802 0.277891 0.234297
6324 1 0.257545 0.306092 0.21777
20573 2 0.255488 0.284297 0.232858
6322 1 0.256465 0.294564 0.229192
6323 2 0.256456 0.300373 0.224434
20572 1 0.256031 0.29148 0.230653
14712 1 0.282279 0.331498 0.221593
10012 1 0.252855 0.374598 0.241449
10013 3 0.258198 0.378693 0.245949
13659 1 0.161025 0.457917 0.22462
13658 2 0.164997 0.456326 0.217401
20555 2 0.088251 0.485115 0.230704
20556 1 0.0815707 0.488422 0.228286
20554 1 0.0959421 0.481258 0.230716
18276 1 0.12493 0.514028 0.222806
18274 1 0.130858 0.528719 0.21915
18275 3 0.127805 0.521535 0.221407
9211 1 0.131619 0.531375 0.218439
20442 1 0.247433 0.0468756 0.25356
20441 2 0.244374 0.0417136 0.248531
12653 3 0.269396 0.0884473 0.269573
12654 1 0.272834 0.0889372 0.275934
12652 1 0.264572 0.0876944 0.264017
628 1 0.0460334 0.121255 0.261101
630 1 0.0551254 0.113455 0.249059
629 3 0.0494711 0.117629 0.254321
1056 1 0.198234 0.109171 0.278021
1055 2 0.202893 0.114522 0.273859
1054 1 0.20578 0.119226 0.266646
4637 2 0.209828 0.124654 0.258444
4636 1 0.207003 0.120549 0.264427
11940 1 0.248259 0.117793 0.270655
11939 3 0.247947 0.119617 0.27855
5735 3 0.158672 0.141226 0.252097
5736 1 0.153623 0.136302 0.248413
5734 1 0.165134 0.144822 0.254717
4638 1 0.212952 0.127335 0.251504
6725 3 0.15694 0.171095 0.266965
6724 1 0.14902 0.173272 0.266297
17278 1 0.145464 0.173519 0.266225
17280 1 0.130157 0.175 0.264741
17279 2 0.137601 0.174572 0.265056
17480 2 0.172456 0.182302 0.252389
6726 1 0.165232 0.17025 0.26547
17479 1 0.168898 0.184959 0.258281
6159 1 0.060418 0.278688 0.256796
20874 1 0.069542 0.26388 0.248718
6157 1 0.0683992 0.266412 0.250355
6158 3 0.0642419 0.272928 0.254196
10263 1 0.0821988 0.276747 0.259904
19072 1 0.0234455 0.306568 0.251202
19073 3 0.0233702 0.297598 0.250234
19074 1 0.0221415 0.290389 0.249282
20482 1 0.0580755 0.281078 0.257675
20483 2 0.0525649 0.286201 0.259248
20484 1 0.0465775 0.291202 0.259455
3852 1 0.0850412 0.310883 0.255059
10262 3 0.0824054 0.284696 0.258314
3851 3 0.0858646 0.303125 0.255755
3850 1 0.0841982 0.295877 0.257368
10261 1 0.083461 0.29322 0.257676
14983 1 0.0135942 0.31908 0.256777
14985 1 0.0287278 0.326167 0.254096
14984 2 0.0214186 0.321699 0.253544
6703 1 0.00804129 0.319405 0.268402
6704 3 0.00191475 0.324144 0.271964
10550 3 0.0476734 0.322334 0.258567
10551 1 0.0502675 0.314471 0.257126
10549 1 0.0440724 0.32919 0.25849
13445 3 0.0513334 0.340858 0.277198
6336 1 0.0463917 0.343155 0.268373
13444 1 0.0473961 0.343007 0.270644
15965 3 0.239061 0.339562 0.265862
15966 1 0.242496 0.333654 0.269735
6334 1 0.04161 0.346154 0.253338
6335 2 0.0440832 0.343478 0.26057
10288 1 0.221122 0.356257 0.251915
10290 1 0.231562 0.346246 0.2597
10289 3 0.226155 0.350587 0.256324
15964 1 0.233397 0.344348 0.261401
10014 1 0.263351 0.382599 0.250794
10413 1 0.26519 0.384722 0.25257
17874 1 0.281995 0.404963 0.272466
10412 2 0.268391 0.389519 0.256959
17872 1 0.272989 0.397307 0.262636
17873 2 0.277549 0.401913 0.267132
10411 1 0.271511 0.395558 0.260845
5115 1 0.0314351 0.435324 0.262124
5114 3 0.0351666 0.428252 0.264487
5113 1 0.0407203 0.421549 0.266211
16624 1 0.110313 0.426762 0.259357
16626 1 0.118943 0.41705 0.270877
16625 2 0.114819 0.42267 0.265137
2062 1 0.181006 0.420439 0.271446
2063 2 0.173388 0.421136 0.272981
2064 1 0.164374 0.423678 0.272185
14327 3 0.257206 0.413535 0.275995
14326 1 0.258209 0.417795 0.268527
15727 1 0.114922 0.439892 0.260897
15728 2 0.11896 0.447518 0.261353
15729 1 0.123045 0.454511 0.262853
3508 1 0.124039 0.456796 0.262823
10295 3 0.150766 0.453823 0.272425
10296 1 0.147198 0.447414 0.270159
10294 1 0.154278 0.459685 0.276129
3509 3 0.127891 0.464186 0.263577
3510 1 0.130799 0.47142 0.26434
19545 1 0.268456 0.508783 0.265259
19544 3 0.27112 0.509446 0.257614
19543 1 0.273361 0.50953 0.249701
19784 2 0.118926 0.579293 0.265089
19783 1 0.121536 0.583823 0.258733
19785 1 0.115225 0.573999 0.270925
481 1 0.200799 0.0286724 0.294346
10638 1 0.224512 0.0254964 0.297223
8532 1 0.224853 0.0230139 0.298663
8531 3 0.22558 0.0160004 0.302729
17301 1 0.227503 0.00858404 0.309173
8530 1 0.22698 0.010769 0.307072
482 3 0.205959 0.0313037 0.288838
483 1 0.20921 0.0348049 0.283155
8565 1 0.20147 0.0622644 0.297579
10637 3 0.224877 0.0332726 0.295918
10636 1 0.224908 0.0407652 0.294097
18885 1 0.267807 0.0527376 0.298994
18884 3 0.264538 0.0541234 0.292223
18883 1 0.262009 0.0557314 0.283715
8564 2 0.202804 0.0698762 0.29834
8563 1 0.203008 0.0790929 0.300058
11370 1 0.274063 0.0893509 0.279225
11368 1 0.282472 0.0918183 0.292797
11369 3 0.278112 0.0906823 0.28613
11938 1 0.246348 0.123434 0.285143
21421 1 0.0173343 0.164533 0.29384
21423 1 0.0257363 0.156611 0.28222
21422 2 0.0215631 0.160697 0.288176
3058 1 0.231793 0.172011 0.30876
130 1 0.265885 0.232289 0.307639
131 2 0.269361 0.239782 0.309542
19411 1 0.257791 0.309931 0.297562
13446 1 0.0558965 0.340094 0.283479
7860 1 0.058398 0.339882 0.285419
7409 3 0.0762222 0.325354 0.289252
7408 1 0.0729913 0.330944 0.289253
7858 1 0.0709057 0.333433 0.289089
7859 3 0.0650585 0.337773 0.287656
7410 1 0.0817351 0.319048 0.289684
19413 1 0.255142 0.316984 0.281439
19412 2 0.256908 0.31301 0.290002
2086 1 0.00177779 0.369301 0.301595
16795 1 0.0275778 0.379844 0.296833
16796 3 0.0250825 0.385897 0.302337
16797 1 0.0219503 0.392674 0.305479
11377 1 0.0911568 0.382423 0.279581
11379 1 0.107123 0.385016 0.281189
11378 3 0.0990932 0.383499 0.280295
13404 1 0.252086 0.396287 0.297385
13403 3 0.252743 0.401414 0.289938
14328 1 0.254816 0.408366 0.282046
13402 1 0.254111 0.406218 0.284654
15880 1 0.25804 0.434057 0.295101
15881 3 0.256506 0.425613 0.29521
15882 1 0.25631 0.417171 0.295853
4155 1 0.267978 0.452275 0.295299
4154 3 0.262585 0.445209 0.294803
4153 1 0.258738 0.437174 0.295065
11329 1 0.0988288 0.542378 0.307145
17300 2 0.229894 0.00290052 0.314819
15996 1 0.266207 0.0571806 0.337227
15995 3 0.266615 0.0519127 0.330472
15994 1 0.26858 0.0466012 0.324737
5951 3 0.0920419 0.103848 0.336546
5952 1 0.0837581 0.102763 0.339105
5950 1 0.0985528 0.106307 0.334987
3059 3 0.234084 0.177003 0.314602
3060 1 0.235667 0.181263 0.321381
19892 3 0.0495817 0.235999 0.336413
19891 1 0.053132 0.23932 0.330422
15448 1 0.239278 0.219448 0.334218
15449 3 0.246494 0.22333 0.33249
15450 1 0.253636 0.226772 0.331184
132 1 0.271536 0.246812 0.313419
12406 1 0.080933 0.272136 0.3399
20773 1 0.208399 0.36828 0.313322
20774 2 0.206791 0.37403 0.318697
18844 1 0.209925 0.392835 0.338224
18845 2 0.208086 0.389088 0.33202
20775 1 0.207467 0.380617 0.323498
18846 1 0.207944 0.382977 0.325632
12326 3 0.13636 0.492589 0.336312
12327 1 0.136817 0.486014 0.339668
12325 1 0.136445 0.499923 0.333815
15267 1 0.118534 0.560229 0.33144
11331 1 0.1072 0.550733 0.319896
11330 3 0.102817 0.546711 0.313541
15265 1 0.108772 0.552129 0.321648
15266 2 0.113418 0.55565 0.328876
15302 3 0.218823 0.123421 0.358179
15303 1 0.213195 0.117755 0.356223
12708 1 0.238318 0.14131 0.361209
15301 1 0.22467 0.127972 0.359613
12706 1 0.226921 0.129791 0.360143
12707 2 0.232831 0.135259 0.360718
16725 1 0.265432 0.178474 0.361412
16724 3 0.265518 0.176436 0.368323
7725 1 0.00208912 0.211943 0.343286
7724 2 0.00902678 0.216194 0.342952
7723 1 0.0142664 0.222631 0.342379
19893 1 0.0463734 0.231478 0.343331
3097 1 0.219815 0.238768 0.36996
12407 2 0.0855569 0.275612 0.344289
12408 1 0.0918677 0.28118 0.3493
18282 1 0.03233 0.484774 0.365724
5256 1 0.125422 0.481544 0.370865
2891 3 0.134175 0.480264 0.365399
2892 1 0.141651 0.479411 0.361232
19377 1 0.144654 0.479758 0.359035
2890 1 0.12745 0.481669 0.36962
19376 3 0.151538 0.479973 0.354846
19375 1 0.159731 0.479705 0.352197
9695 2 0.208893 0.0121893 0.40067
9696 1 0.212195 0.00970326 0.393625
11884 1 0.0131146 0.0852917 0.382256
16111 1 0.00943708 0.0843519 0.40095
11886 1 0.00987565 0.0843974 0.398263
11885 2 0.0116216 0.0846685 0.390099
7534 1 0.181217 0.137766 0.396864
7535 2 0.182533 0.143779 0.392775
7536 1 0.185442 0.150211 0.387762
19345 1 0.18085 0.135194 0.398868
20685 1 0.265971 0.16695 0.392396
20684 3 0.264037 0.171025 0.386571
20683 1 0.264117 0.173511 0.378801
16723 1 0.264382 0.174382 0.37603
9382 1 0.273035 0.216092 0.394074
9383 2 0.2799 0.217648 0.392372
20708 3 0.08774 0.230959 0.397288
20707 1 0.0827536 0.228606 0.392193
20709 1 0.0946251 0.232371 0.40128
3099 1 0.228768 0.232575 0.379743
3098 2 0.224526 0.236113 0.374551
12035 3 0.122181 0.336047 0.374288
12036 1 0.115031 0.337214 0.371819
12034 1 0.130445 0.334922 0.373869
1643 3 0.246349 0.32568 0.399566
1644 1 0.244201 0.318139 0.396175
18061 1 0.00639827 0.365818 0.401286
9177 1 0.0899521 0.421799 0.390135
9176 3 0.093317 0.419626 0.383549
9175 1 0.0962738 0.416395 0.376117
3189 1 0.191037 0.415346 0.400507
18281 3 0.0285331 0.485595 0.374252
18280 1 0.0258063 0.487166 0.380776
5255 2 0.118509 0.47964 0.37306
5254 1 0.110046 0.479519 0.376092
10069 1 0.14091 0.493539 0.386235
10071 1 0.13732 0.4813 0.395156
10070 3 0.139832 0.487814 0.391478
5823 1 0.220789 0.522506 0.400511
3831 1 0.23246 0.515317 0.386603
3830 3 0.22795 0.518077 0.392821
3829 1 0.223583 0.521127 0.398529
18024 1 0.249169 0.523647 0.39042
18023 3 0.251591 0.526555 0.397652
20049 1 0.273246 0.526928 0.385059
20048 3 0.275464 0.531743 0.39091
4036 1 0.279726 0.539172 0.400031
20047 1 0.278724 0.537008 0.397602
5725 1 0.175482 0.583496 0.393063
11605 1 0.170108 0.590595 0.375513
19648 1 0.174223 0.562044 0.399643
19649 2 0.180014 0.565319 0.395913
885 1 0.188163 0.570293 0.389967
19650 1 0.186689 0.56898 0.39144
5727 1 0.170833 0.58947 0.378192
5726 2 0.17362 0.58703 0.384887
883 1 0.198015 0.579166 0.381309
884 2 0.194042 0.574034 0.385262
3626 3 0.0152614 0.0289018 0.431851
9694 1 0.205493 0.014016 0.406725
8260 1 0.0279779 0.0543139 0.429262
8262 1 0.0207953 0.0392781 0.430231
3627 1 0.0195748 0.0362547 0.430713
8261 3 0.0246255 0.0464879 0.428446
16113 1 0.0082427 0.0821376 0.417177
16112 2 0.00768868 0.0840948 0.409672
11619 1 0.149769 0.108211 0.421207
11617 1 0.141375 0.100932 0.407593
11618 3 0.145547 0.103422 0.414565
19347 1 0.178022 0.12213 0.40945
12742 1 0.239494 0.119164 0.416408
12744 1 0.237946 0.121142 0.432624
12743 2 0.239568 0.120839 0.423769
19346 3 0.181035 0.128624 0.403937
18148 1 0.174951 0.142958 0.421519
18150 1 0.159536 0.138575 0.424739
18149 3 0.166993 0.140601 0.421997
7485 1 0.250814 0.154588 0.407277
3180 1 0.258245 0.128914 0.424691
3179 2 0.256496 0.135595 0.428745
3178 1 0.254792 0.143367 0.429771
7484 3 0.251591 0.162059 0.405288
7483 1 0.254429 0.1692 0.403152
1941 1 0.0154393 0.205792 0.419009
1940 2 0.0167388 0.201521 0.412412
1939 1 0.0172732 0.197809 0.406759
2732 3 0.00389742 0.223162 0.420774
2733 1 0.0108149 0.226409 0.420838
18598 1 0.0835422 0.246219 0.412697
5314 1 0.102963 0.242274 0.410038
5315 3 0.109943 0.237219 0.412054
5316 1 0.114144 0.230529 0.415211
18599 3 0.0835507 0.253951 0.409285
18600 1 0.0820755 0.260198 0.404222
18115 1 0.171156 0.255603 0.426155
18117 1 0.184799 0.260224 0.420049
18116 2 0.17732 0.257701 0.422726
5759 3 0.066189 0.310317 0.425153
5758 1 0.0718205 0.304853 0.42746
5760 1 0.0601804 0.315298 0.423433
1642 1 0.24807 0.333594 0.4039
18063 1 0.00736628 0.355147 0.412257
18062 3 0.00762145 0.360261 0.407174
3187 1 0.20183 0.404992 0.407179
15244 1 0.0286281 0.423632 0.408667
15245 2 0.0355743 0.420075 0.40653
15246 1 0.0426627 0.416857 0.402981
3188 3 0.196004 0.410502 0.404119
15057 1 0.248872 0.418617 0.413025
15056 3 0.246043 0.412466 0.417962
15055 1 0.242192 0.407282 0.422834
19651 1 0.257318 0.420328 0.417198
19653 1 0.269664 0.417379 0.405716
19652 3 0.263996 0.418361 0.411454
11713 1 0.0526776 0.464188 0.407733
11714 3 0.0604642 0.466736 0.408779
11715 1 0.0680401 0.467414 0.412151
10356 1 0.0704939 0.468644 0.413501
10355 3 0.0764249 0.470884 0.418013
10354 1 0.0817417 0.474318 0.422158
9843 1 0.0832047 0.475906 0.423794
9842 3 0.0880899 0.481847 0.426705
9841 1 0.0935576 0.487694 0.428446
2505 1 0.0960442 0.490059 0.42952
2504 2 0.101908 0.494263 0.431271
5822 3 0.214938 0.524145 0.404998
5821 1 0.207241 0.525731 0.409482
277 1 0.241013 0.511425 0.409667
279 1 0.245255 0.511592 0.425272
278 3 0.243046 0.511395 0.41783
18022 1 0.253763 0.528306 0.404869
1228 1 0.254655 0.529188 0.40767
13617 1 0.0667783 0.555852 0.412476
8835 1 0.275162 0.556589 0.425881
10434 1 0.255966 0.535536 0.426326
8834 3 0.283515 0.557152 0.424463
4037 3 0.281564 0.54494 0.405018
4038 1 0.283857 0.551154 0.40908
1229 3 0.256556 0.531833 0.41534
306 1 0.25638 0.554101 0.421474
305 3 0.264263 0.555453 0.423386
304 1 0.272271 0.556666 0.425773
10433 2 0.254333 0.539097 0.432081
1230 1 0.255966 0.534252 0.42358
14757 1 0.0262309 0.578389 0.426008
14755 1 0.0391385 0.569511 0.421292
14756 2 0.0331237 0.573532 0.424313
5539 1 0.0663504 0.590336 0.411943
13616 2 0.0666871 0.563337 0.413652
13615 1 0.0665033 0.571375 0.415318
5541 1 0.066503 0.574427 0.415388
5540 3 0.0672441 0.582187 0.415246
19989 1 0.119341 0.571888 0.403304
19988 2 0.110417 0.570976 0.404479
19987 1 0.101343 0.567404 0.404683
3625 1 0.0121625 0.0207995 0.434013
21531 1 0.0119426 0.0223722 0.459802
11748 1 0.012025 0.0238453 0.462375
21530 3 0.0117138 0.0169298 0.452988
21529 1 0.0103302 0.0130033 0.445696
14149 1 0.154683 0.00901827 0.449979
14150 3 0.147099 0.00981777 0.451092
14151 1 0.138317 0.00960095 0.451127
10628 3 0.235941 0.124137 0.442716
10629 1 0.23755 0.121776 0.435257
5555 3 0.121577 0.15364 0.452537
5554 1 0.125277 0.150369 0.445828
5556 1 0.117839 0.154496 0.459608
12903 1 0.116677 0.154517 0.462355
20915 2 0.184151 0.135279 0.436381
20916 1 0.176383 0.137604 0.439415
20914 1 0.191242 0.132685 0.433638
5987 3 0.232111 0.128807 0.462062
5988 1 0.234269 0.127414 0.454545
10627 1 0.234958 0.126537 0.45165
3456 1 0.255597 0.270145 0.461571
18482 2 0.271105 0.2568 0.443057
18481 1 0.277029 0.252553 0.439592
18483 1 0.265526 0.258982 0.44807
3454 1 0.264102 0.260474 0.449906
3455 2 0.259963 0.265068 0.4563
7225 1 0.277839 0.336977 0.441562
7226 2 0.284736 0.336353 0.443957
9934 1 0.0245697 0.419881 0.458248