ITEM: TIMESTEP
25000000
ITEM: NUMBER OF ATOMS
2343
ITEM: BOX BOUNDS pp pp pp
0.0000000000000000e+00 5.0000000000000000e+01
0.0000000000000000e+00 5.0000000000000000e+01
0.0000000000000000e+00 5.0000000000000000e+01
ITEM: ATOMS id type vx vy vz 
20788 1 1.58855 2.49569 -5.38067 
18944 3 -1.19186 0.700059 0.242831 
18943 1 -0.534361 -4.87187 4.90823 
18945 1 -5.98389 1.67365 -3.97135 
19448 3 5.02546 -2.6797 -1.3056 
13958 3 1.9757 -2.25284 3.18087 
19281 1 4.58593 2.50192 1.6146 
19280 3 -1.85395 0.360902 2.02523 
19279 1 4.0753 -0.905205 2.48409 
17904 1 -0.863797 -0.952831 -7.23071 
6859 1 3.30514 4.83685 -4.14347 
17903 3 -0.00938261 0.495074 0.537806 
13959 1 3.2845 -3.13319 -0.181316 
20789 2 0.801194 5.18063 -2.29072 
6861 1 10.7891 0.0280861 -2.78968 
6860 3 -2.43988 -0.846388 0.370574 
12692 3 -0.929437 3.72632 0.593933 
12691 1 6.5175 2.29966 -3.34232 
19449 1 -3.46715 -4.95781 5.91126 
12693 1 2.05889 1.33524 -1.77979 
5518 1 -2.29393 2.36356 3.38604 
5519 3 -0.304639 -2.81902 1.32373 
13957 1 -3.48591 6.48331 -3.4217 
2359 1 2.76366 -6.56837 2.43483 
18736 1 -0.933899 -1.46919 -3.91023 
2360 3 -4.71855 2.44084 -2.16347 
17902 1 -0.789259 -8.12717 4.66044 
18737 3 -1.53958 -1.25439 0.846935 
18738 1 6.12039 -0.809387 1.24409 
8527 1 -3.46486 -1.92573 1.19452 
1875 1 -2.26855 1.38767 3.5163 
8528 3 4.5511 1.1857 0.917109 
8529 1 4.09558 -2.57521 -1.56969 
20790 1 4.30014 3.3455 -4.4281 
16383 1 8.06169 -4.4478 1.23309 
16382 2 -4.02006 2.41817 -2.28051 
16381 1 -0.219329 -0.265239 -0.0281384 
14548 1 -5.96291 -3.68697 -2.1066 
17164 1 0.238299 3.91802 3.00093 
14549 3 0.666183 1.66774 1.91135 
14550 1 5.94775 -1.5746 3.66603 
17165 3 1.3384 2.00797 0.60019 
17166 1 -2.39324 1.77137 2.14459 
16032 1 4.41747 -6.79654 4.99453 
16031 3 -3.71801 0.626882 2.38777 
19396 1 -5.89045 0.310604 0.661455 
19397 3 -3.55281 3.84266 -1.81887 
19398 1 3.23627 -2.6979 0.0858698 
7672 1 1.22254 -3.74004 5.63795 
7673 3 -0.821836 0.0934261 -1.63594 
20384 3 1.26812 0.654098 -3.36626 
20383 1 1.15169 0.804423 2.08841 
20385 1 -2.25333 -6.25592 2.92846 
6333 1 -5.40941 -2.64748 1.3918 
10729 1 2.55281 -0.257588 0.254173 
10731 1 -1.06712 0.0449712 -4.71397 
10730 3 -1.96663 -0.388347 -2.01022 
11425 1 6.81055 3.0175 6.10577 
6046 1 -0.987691 -4.02918 5.95748 
12594 1 -2.13966 -4.68561 -2.11268 
12592 1 5.72795 1.86725 8.43214 
11470 1 5.66583 -6.61529 0.973531 
5520 1 1.75051 0.015761 -5.18484 
5110 1 -4.72038 2.51485 5.51026 
5111 3 2.37859 1.96202 -0.920772 
12593 3 0.361041 2.40951 -2.27986 
11074 1 0.0690933 -2.50862 -1.70331 
7684 1 -0.574317 -1.04166 2.41946 
875 3 1.83859 -2.08532 2.27071 
2361 1 3.44276 -7.67434 -4.27405 
18184 1 2.19955 -4.12778 -1.28575 
1874 3 2.38879 -2.81906 -0.382614 
876 1 -5.11315 0.145461 0.953723 
1873 1 -2.65411 3.47624 1.86467 
7686 1 0.584849 -6.24346 -1.11824 
7685 3 -0.643212 0.370725 5.78817 
18185 3 -3.3097 1.92872 -0.395684 
9192 1 1.40598 1.10505 -0.0188321 
18186 1 -0.681969 0.421092 3.33222 
18385 1 1.86807 -5.95202 0.179631 
18386 3 -1.89779 -1.55218 -1.80045 
8365 1 0.196775 -1.10784 4.06936 
8367 1 -0.728048 1.95717 -4.3308 
8366 2 0.314963 2.83424 -0.337995 
5112 1 -0.370117 -3.98818 -4.28477 
18923 3 -0.276574 -0.648252 -2.22938 
18924 1 -2.58408 -0.16948 3.89424 
18922 1 3.05981 1.13929 4.59119 
20821 1 -5.05947 3.03651 1.32096 
16030 1 -2.57665 0.494782 2.15292 
6084 1 6.98659 -0.571702 -0.756077 
6083 3 -2.60535 2.91615 -1.18856 
7674 1 0.242172 2.00905 2.89083 
12016 1 -0.576697 6.23578 -5.75342 
12017 3 -0.117937 -0.889641 1.73272 
6082 1 -2.23463 0.655071 0.00177322 
12018 1 -6.63357 -4.15436 7.32747 
1285 1 -0.620062 4.15229 1.72814 
6564 1 -1.63519 -2.26221 -5.94725 
6562 1 -0.864304 -1.66087 0.407519 
6563 3 -0.647504 3.3008 0.0472678 
16659 1 -4.66216 -2.88427 1.15191 
16657 1 -0.0801683 3.71965 1.0662 
16658 3 -2.12663 -0.462461 3.61183 
20362 1 -4.7666 0.0703859 -2.29517 
20364 1 -1.48184 0.704489 -3.18953 
20363 3 -4.02738 -0.300302 -1.14096 
1099 1 -1.02534 4.93261 5.28873 
1100 3 -1.16409 1.4144 0.261019 
3525 1 -2.77627 4.18069 5.13924 
1101 1 2.85311 -8.85045 3.98984 
3524 3 3.91267 0.107074 -0.506125 
9523 1 -1.17597 -1.99585 -0.802732 
4077 1 -0.818907 0.190681 -1.14942 
17427 1 -2.50079 6.41124 3.52995 
17426 3 2.04731 0.358366 -0.208189 
3523 1 2.23574 5.14247 -5.8028 
17425 1 -1.05354 4.65629 -4.03142 
9524 3 5.09242 -0.901132 -1.51013 
9525 1 -0.142881 -1.59591 -7.02702 
7047 1 -1.02899 -2.74453 -5.77491 
21562 1 1.93272 5.61373 -2.44283 
20382 1 -1.63436 -2.98202 0.707439 
12187 1 -1.71128 -4.56638 4.77494 
20439 1 -1.99075 1.02219 0.586552 
20438 2 1.78653 -5.7365 -3.13018 
21563 2 0.170965 -1.24984 -2.19708 
21564 1 6.56449 -2.43789 1.81291 
15798 1 -1.78 -7.23276 0.924227 
12188 2 3.68693 -1.4824 -2.98062 
12189 1 1.30816 -0.742322 -1.77437 
15797 2 0.0743365 -0.485894 0.73792 
1286 2 5.77566 0.406632 -0.231065 
1287 1 3.43836 0.809863 -1.27378 
19255 1 -4.46347 0.859943 -3.04311 
19256 2 -5.65708 0.253389 -1.24055 
19816 1 -1.18486 0.410522 4.57537 
19818 1 -4.90286 4.28568 1.68533 
6679 1 -1.63039 3.84297 -2.88639 
6680 2 -0.180928 1.55 0.93833 
19817 3 -1.13513 6.75492 0.346197 
6681 1 1.11719 -2.51283 -1.61146 
678 1 -9.36435 -1.336 2.04117 
18152 2 1.66569 1.76584 2.90253 
17992 1 -1.37131 -7.07193 -0.542697 
1902 1 2.55277 5.14084 -0.56604 
19257 1 1.6731 0.201505 -0.196911 
12834 1 1.0565 -0.753502 -3.70329 
8302 1 2.77127 -1.6958 3.46664 
3838 1 -1.73163 -4.64514 -2.24327 
8303 2 -4.06483 -6.17031 1.75351 
8304 1 0.252182 -4.03111 5.17953 
17993 2 3.20653 -2.06974 0.495634 
16782 1 4.14341 -2.16597 3.0413 
17994 1 1.2471 -3.42713 0.060904 
15938 2 -4.18036 -2.77261 -2.33496 
15939 1 -4.22657 -1.04621 -0.130854 
9568 1 -3.09715 -1.93073 -0.287178 
9569 2 -1.46342 0.580376 1.69192 
16781 2 -3.33905 0.6045 -0.121837 
16780 1 2.00158 1.73587 -2.05266 
9570 1 5.65677 -1.62363 1.26014 
17439 1 1.57182 -6.98654 0.252986 
11323 1 -4.95327 -0.271969 -1.12349 
15937 1 -4.02019 2.88228 5.87181 
9493 1 5.64155 6.35194 -4.23124 
9495 1 3.00934 3.01689 1.94893 
4075 1 1.91245 -4.62423 0.0656953 
9494 3 -1.57689 -1.42878 -1.18943 
4076 3 1.3024 2.81356 -0.519649 
7046 3 -2.86695 5.1355 5.42712 
7045 1 -3.59916 -5.6502 0.693282 
16804 1 1.50537 0.7872 0.244079 
20381 2 1.63344 1.99885 0.287971 
20380 1 -7.15366 5.32321 -0.832735 
16806 1 1.61332 4.13014 -1.41071 
6051 1 2.21219 -2.76288 0.354992 
6050 2 -0.062034 -2.97674 2.59293 
7852 1 4.54003 0.811524 -4.56098 
6049 1 -3.00308 1.04509 -6.11087 
16805 2 -3.4999 -1.45177 -3.99556 
136 1 -5.54471 11.648 1.93447 
137 2 0.752837 1.99669 -4.35052 
138 1 4.53119 0.0630858 3.5441 
15983 2 2.14827 0.641491 1.10081 
15982 1 3.36499 0.717735 8.73715 
15984 1 4.62994 -0.0191022 2.93997 
15796 1 0.664764 -4.38293 -3.04936 
5877 1 -0.533864 -6.02954 5.33163 
14829 1 6.83791 0.911241 -9.34802 
11350 1 -0.282585 -6.94682 1.92392 
11351 2 3.64554 -0.208754 1.94784 
14828 2 0.577153 -2.17716 0.864502 
5871 1 -7.51344 1.14681 3.6178 
21594 1 5.95325 0.714452 -1.30905 
5869 1 -0.311422 -4.65374 1.4395 
5870 2 -0.530694 2.37622 2.06859 
13713 1 3.75892 -1.64833 -3.23616 
2185 1 2.31107 -0.938522 -5.41233 
2186 2 -1.6959 0.677484 -1.00776 
16312 1 -3.59352 5.15357 -1.95748 
16313 2 0.0194229 1.04776 2.3837 
16314 1 -0.024665 0.947842 1.72919 
2187 1 1.12215 3.26185 1.22579 
13914 1 -3.9807 1.13389 5.33168 
21039 1 -0.279202 0.106459 2.0361 
20437 1 2.56925 4.73176 3.8042 
13912 1 -3.74689 3.86029 5.20032 
1958 2 0.981419 -1.33683 -1.93887 
16753 1 -2.73486 -3.04315 -1.13319 
13913 2 -5.13551 -1.0951 -1.97181 
16754 2 0.510615 -0.412856 3.42771 
16755 1 4.36994 -2.00398 -0.354433 
676 1 1.54708 -1.54018 -1.43278 
3802 1 1.35565 -5.70707 -1.79123 
21038 2 0.452414 1.97034 -2.63235 
1959 1 -2.81662 3.04447 2.44952 
21037 1 -0.915171 2.68937 -0.654034 
3803 2 2.37769 -0.243099 -3.23973 
3804 1 -1.30819 -4.75967 3.07648 
677 2 1.65231 -3.39252 3.00647 
8383 1 3.97516 -1.08911 4.76911 
9424 1 3.57969 4.91654 -4.74071 
5876 2 -0.386617 -3.0171 1.09594 
5875 1 -4.4381 1.5644 1.63742 
4610 2 3.65031 -3.16265 -0.678965 
4609 1 5.85472 -6.10214 4.97623 
8385 1 6.18011 -4.00884 -4.97612 
8384 2 3.32448 -1.6432 -3.48107 
7000 1 -0.784664 -1.3366 -3.98447 
18153 1 1.47488 0.91184 2.05203 
7002 1 -0.750771 6.53093 -2.66381 
7001 2 0.181098 1.27144 -1.38479 
18921 1 -5.46513 5.02576 -0.234526 
21593 2 -2.55031 1.08181 -1.48594 
14322 1 5.34979 1.14806 2.51093 
21592 1 -1.91193 0.713374 -5.15318 
14321 2 -4.40265 -0.034831 1.35815 
14013 1 5.67201 1.57969 4.47489 
12832 1 4.76357 4.31409 1.50364 
19713 1 6.57638 -4.7147 -6.92612 
19712 2 0.465061 -0.268483 2.56423 
19711 1 -6.36443 3.08698 -7.01647 
6778 1 -1.68117 -2.84961 -4.41221 
3839 2 -1.95392 1.08098 2.16911 
3840 1 -5.38599 4.86503 -6.37163 
12833 2 -4.64042 5.62452 -5.11332 
6779 2 0.451445 -0.313816 2.41324 
14320 1 1.34002 6.6049 -0.100605 
14012 2 0.628638 -0.357947 0.93691 
13744 1 -1.92577 1.91453 4.03469 
17438 2 1.5435 -3.3686 4.02963 
17437 1 1.53398 -5.16135 -1.3521 
11652 1 -2.82022 2.24994 8.41888 
11650 1 -2.63988 4.66505 -2.21756 
11651 2 -2.37711 -2.49899 0.415413 
20104 1 0.828484 6.53528 -1.98679 
13745 2 0.768084 3.84888 0.784389 
7193 2 2.69426 1.05169 0.307237 
1901 2 5.64944 3.83726 -1.76883 
13879 1 0.631015 -7.57168 3.5676 
20105 2 -2.75044 5.65096 -0.0860488 
7555 1 -4.53577 -5.45359 3.215 
7556 2 2.74194 -0.941263 -1.7776 
7192 1 0.672748 0.327065 -4.49511 
11094 1 -0.370367 2.92198 -5.71909 
7557 1 1.68118 -7.81779 0.288789 
20106 1 0.28321 -2.90541 4.07549 
11093 2 0.293038 4.25179 -2.512 
418 1 -1.02919 5.47469 -0.512654 
419 2 -1.98083 -2.15307 -5.31397 
420 1 -1.6424 1.00951 -4.08617 
20962 1 -2.99576 1.71531 4.51752 
20963 2 2.35197 1.7548 2.99702 
20964 1 2.57126 -3.41346 -3.80643 
5897 2 -1.34079 -0.131771 1.15998 
5898 1 0.108964 2.0304 -2.73353 
5808 1 -2.41517 -5.72127 1.83571 
5807 2 -1.69306 2.19482 -1.27605 
5896 1 1.14514 -3.80947 1.14884 
7853 3 3.10176 1.44951 1.33682 
17442 1 -4.86854 5.33796 -0.14484 
17441 2 -1.12746 -0.355656 -0.266226 
19901 2 -5.78138 -1.36952 -3.2386 
17440 1 2.17267 5.31652 -0.90802 
19902 1 1.45262 -7.12271 -3.10525 
21400 1 3.75554 -1.46574 2.84681 
21402 1 -2.5616 -1.26006 1.5719 
9577 1 -3.01626 -1.30468 -2.14648 
19900 1 4.53109 2.46706 -2.64564 
9919 1 -2.3373 -0.968364 1.56122 
11035 1 4.47174 8.86488 -2.02023 
9921 1 -2.38175 6.91448 -1.05092 
9920 2 2.68927 -7.00738 -4.80751 
16079 2 -0.102868 2.51678 -0.90926 
8606 2 0.815432 6.69337 -0.779528 
16080 1 -2.80578 2.58504 1.52921 
2935 1 0.540864 3.11172 0.549565 
8605 1 3.02203 2.05682 2.85912 
15250 1 0.390091 3.06834 0.269073 
8607 1 0.559188 -0.229647 0.112364 
2937 1 -4.33022 0.566852 5.59357 
2936 2 1.62522 1.23449 2.38752 
11037 1 -2.94543 2.03814 -3.37016 
11036 3 -4.78271 -4.19185 -2.11498 
16078 1 1.82888 3.58073 4.02723 
11352 1 3.60882 -1.13315 0.595598 
17999 2 1.69816 -4.62603 -0.56729 
15251 2 1.66396 -0.81893 2.04871 
17998 1 -5.87156 0.433124 2.95199 
15252 1 5.0496 5.87128 5.00381 
18000 1 -4.12646 2.34351 -6.15911 
2717 2 1.27072 0.195129 -1.2791 
2718 1 0.336499 -3.93729 -5.19288 
21391 1 -1.89342 -2.71197 -3.95188 
2716 1 0.058973 -2.44404 -1.11992 
21392 2 1.88759 1.04309 -0.20822 
3548 2 4.08414 2.31151 -3.15875 
3547 1 -2.55101 -1.5774 -6.43639 
448 1 -0.86229 -3.74679 1.88974 
18561 1 6.55016 5.40055 -3.61605 
3549 1 0.143979 -0.148832 -5.31113 
2140 1 -3.22032 -1.89601 -1.90275 
7854 1 0.747307 3.92297 -5.24497 
13712 2 -0.923955 0.520986 -1.18341 
2141 2 -0.229436 -4.05342 -1.25025 
2142 1 -0.674527 0.121821 -0.864535 
450 1 -1.77314 0.284092 -0.0626256 
449 2 1.37713 2.31207 -3.0241 
15053 2 0.765847 1.46023 -1.56253 
15052 1 -0.384777 -3.99675 1.23629 
15054 1 -1.41886 4.93758 -3.87602 
20310 1 0.732083 -0.726522 2.27221 
21401 2 -2.20434 -0.988236 1.08507 
11214 1 0.0931559 4.78058 -5.36079 
11213 2 -4.30046 4.40419 -2.70268 
11212 1 -1.18547 0.118842 -0.831993 
20309 2 1.35436 -1.90027 2.6398 
20308 1 -2.93011 -0.732875 -6.64037 
10581 1 0.948187 2.75435 3.2279 
10580 2 -1.14732 -3.51306 0.159858 
10579 1 3.76351 0.607241 3.92775 
9578 2 1.88771 -2.51709 -2.57228 
10663 1 1.76844 1.36305 -3.77055 
11089 1 -3.92335 3.99275 -5.31308 
11090 2 2.22229 -1.09161 0.318871 
10664 2 -0.608874 0.195322 -1.58877 
11091 1 2.27895 4.48642 -1.11155 
10665 1 -2.2827 -7.79241 0.816979 
12632 2 0.857069 -2.3526 -1.88453 
8925 1 2.84451 -4.54691 1.18895 
3117 1 -4.23712 -3.70887 0.957109 
8924 2 -4.72505 0.671545 -3.43569 
12631 1 -5.29084 -0.158522 2.57812 
2691 1 -1.84269 -2.1464 7.25332 
4611 1 -0.566848 3.88817 -1.99384 
12633 1 -0.965841 -2.65374 -5.22792 
10308 1 -4.3127 -1.12349 5.02586 
5964 1 -3.92149 -0.225618 -6.08613 
3116 2 1.65186 5.11655 1.00143 
10307 2 2.48975 3.98943 -1.58596 
14375 2 -0.656912 3.81881 -2.88081 
14376 1 -2.13122 -1.22906 2.57083 
10306 1 -4.63175 0.518645 -3.14477 
5963 2 1.34481 0.0606987 2.2935 
2690 2 -0.388124 2.76927 -2.91867 
18560 2 4.80664 -3.14238 -0.884677 
21149 2 -0.20695 -1.98983 -0.0450951 
11723 2 0.407173 -2.03515 3.38772 
16990 1 2.12151 1.597 2.27909 
13711 1 0.827512 -2.41401 -5.15954 
14838 1 5.69917 2.55045 0.558643 
8764 1 -3.05399 3.9521 -1.66368 
21148 1 -0.164118 -8.66425 -6.25971 
14836 1 -0.101981 1.09909 -2.81173 
14837 2 -0.515249 -6.75011 5.34963 
16992 1 1.53824 -5.98346 -0.378853 
8766 1 -3.15553 5.08836 -0.0269521 
8765 2 3.82195 -1.56917 -1.27321 
322 1 -2.07283 2.77259 -3.37554 
17071 1 0.66076 -2.48078 -0.202554 
16991 2 2.24876 -2.79651 -0.117805 
4837 1 -2.18994 7.0548 -2.44145 
6780 1 0.898166 -5.31343 1.13911 
1957 1 6.30769 -4.4344 6.70622 
19122 1 -0.485394 -4.96426 1.30115 
19121 2 2.33199 1.25631 2.07332 
19120 1 3.39464 1.69714 -2.70166 
17073 1 -0.989901 -1.74122 0.941017 
13746 1 -1.32927 2.38438 -4.16314 
17317 1 3.33802 2.04971 3.06217 
17072 2 2.44318 1.48147 0.720693 
17318 2 -2.05909 -2.01788 -3.89887 
17319 1 -2.80808 -0.271982 0.072377 
190 1 4.50689 2.46438 6.78788 
4915 1 3.02254 2.9023 1.62649 
191 2 3.49179 -1.0234 1.0478 
502 1 -4.29511 6.47147 0.31461 
1742 2 3.23011 -0.0638397 -1.98261 
5772 1 -1.15045 -2.60124 -0.536673 
17043 1 1.52956 -0.456068 2.32982 
1741 1 -2.62346 -2.98098 -0.461951 
4916 2 1.54875 4.63255 -0.811008 
1743 1 1.67751 -3.68023 0.684273 
17042 2 -0.845681 2.56551 0.633506 
7194 1 9.02768 -5.93683 3.5424 
14182 1 2.37036 -4.75171 -4.36143 
14183 2 2.37014 0.881104 -2.89872 
4917 1 1.03623 4.95652 1.56075 
14184 1 1.91319 2.0194 4.22754 
10139 2 0.356437 1.12515 1.06544 
17041 1 -6.03146 0.325373 -1.83872 
5551 1 3.05105 1.43761 0.0474564 
3115 1 -7.28909 -0.00688959 6.0429 
5962 1 0.956738 -7.74336 -3.9282 
4604 2 0.475642 -0.674029 1.11384 
10140 1 -5.40245 -7.85506 -3.77837 
19626 1 3.32275 -6.98222 0.565319 
11092 1 3.1359 1.41421 0.360713 
19625 2 1.90458 -0.723555 -4.39088 
19624 1 4.03722 10.2091 -5.2102 
4605 1 -9.3043 1.38231 -3.82376 
14173 1 0.244593 -7.12396 2.31565 
5552 2 -0.422483 1.75628 0.71587 
13149 1 3.66681 -2.12516 -2.79792 
11281 1 0.247866 -5.16893 -4.2659 
551 2 -2.80191 0.630475 4.07627 
550 1 1.5275 -2.21064 -4.92558 
8681 2 0.798141 0.499706 0.0440623 
552 1 -4.29982 1.72309 1.65475 
7058 2 0.136999 0.255785 -4.21039 
5806 1 -2.59041 -1.70282 -0.170449 
7059 1 1.63658 -0.12521 -2.52132 
10931 2 -1.65728 1.7525 -1.05425 
10930 1 -5.89068 2.46915 -3.02268 
10932 1 -3.35889 -3.88722 -1.52347 
8680 1 -1.79756 -2.14464 -5.11418 
17040 1 1.26981 -5.35651 -6.09149 
17039 2 2.13491 -1.3912 -1.17335 
13148 2 -1.73461 0.0877101 1.13857 
17038 1 5.44458 -1.81724 -2.81796 
18565 1 1.09575 -0.461372 -1.76249 
18566 2 -1.39313 1.059 -0.749533 
18567 1 -1.15485 -1.3275 -0.655367 
12816 1 3.51123 1.90611 -0.285329 
609 1 2.58647 -2.67878 -2.74113 
10659 1 3.88644 1.59209 -2.35219 
13147 1 -3.43914 1.255 3.48754 
3696 1 3.03059 3.997 6.64035 
10657 1 -0.144322 -0.323661 1.73387 
10658 2 2.87722 -2.16728 1.1386 
3695 2 1.49998 2.6275 2.07478 
3694 1 -3.27772 -2.4794 2.26275 
12815 2 7.1757 -1.58163 -1.7314 
12814 1 5.48216 -0.37973 -0.293465 
21571 1 -0.885811 3.34576 1.79953 
21572 2 2.06159 1.74907 5.46468 
17937 1 2.07138 8.2903 2.92823 
21573 1 6.31738 2.13393 -1.84331 
9954 1 -3.07288 -1.38364 1.80249 
17728 1 -0.540918 -2.67759 -4.71199 
12411 1 -1.47721 -1.53439 -0.444813 
17936 3 2.24991 4.18709 -1.70279 
13718 2 -0.701975 -3.90731 4.00689 
8167 1 7.73652 2.8404 1.65766 
13717 1 -1.47879 5.28301 1.13273 
9952 1 1.74398 -2.68901 0.638392 
17935 1 -2.06059 -2.87971 -0.18274 
8169 1 6.58372 -9.41644 -0.559432 
8168 2 -0.411943 2.01755 -1.19139 
9953 2 -0.341215 -0.630784 -2.41484 
1645 1 -2.01164 -1.42407 1.00814 
1647 1 -0.386059 5.67658 -0.206422 
1646 2 -1.30767 1.0427 -0.769862 
7985 2 0.162781 -0.806465 2.75664 
7986 1 1.32365 -2.82095 1.76314 
10546 1 -3.91862 5.70873 0.704588 
10547 2 0.101596 -2.30195 -0.679876 
21393 1 -3.85299 1.65735 -1.18925 
7984 1 -3.5658 -4.31939 -1.40006 
17932 1 0.811556 1.26528 -3.6121 
17933 2 2.54689 -0.569459 3.95814 
7057 1 -2.84991 1.50267 7.96282 
17934 1 -1.02161 1.56261 2.24301 
10643 2 1.8079 0.346968 -1.55988 
10642 1 -3.30655 0.491587 0.0525034 
15379 1 2.83582 4.7541 -2.98151 
3551 2 2.92638 0.555436 3.02657 
3552 1 -4.79066 -0.722267 -9.34589 
11952 1 7.35903 3.62402 -4.80853 
115 1 3.59284 -1.4767 -3.34207 
3550 1 6.69175 -5.32986 -1.95095 
117 1 -2.71962 -0.705454 6.72345 
116 2 -0.737227 -0.0601699 2.71747 
15380 2 -0.305281 3.28397 1.67152 
15381 1 -0.313912 0.0586616 3.61225 
16071 1 2.64171 -0.87833 1.4302 
16070 2 5.57936 3.6005 -1.99405 
5330 2 0.634195 1.59399 -4.91718 
5329 1 -2.66488 2.19392 0.884734 
16069 1 3.50973 4.71159 -1.61603 
15787 1 2.52875 5.75864 -1.49989 
9579 1 -0.501406 4.40013 -2.43037 
9943 1 -6.87501 2.56055 -5.80274 
9944 2 2.56305 3.37574 -2.36814 
5331 1 3.66811 -4.75998 -4.48821 
3934 1 0.129737 7.02127 4.80725 
8044 1 0.513829 -6.78321 2.11825 
3936 1 -3.77335 -2.81896 3.30912 
3935 2 3.53353 -4.71818 1.31937 
8046 1 1.67103 3.47005 7.30434 
18678 1 1.30232 -0.593059 -1.92487 
18677 2 0.099675 -1.0502 -4.85672 
8045 2 0.382184 -0.344741 -1.53061 
5175 1 5.39036 1.79549 -3.83158 
5174 2 -3.86999 0.0314492 -1.70121 
16836 1 5.17664 0.493146 -1.21814 
5173 1 4.89257 -4.03178 0.809905 
18676 1 -1.67217 -4.5708 5.40589 
6021 1 -1.44861 5.91208 7.8212 
6019 1 -3.19622 3.51678 2.46441 
6020 2 2.46443 -0.840906 1.96508 
1253 2 0.0704824 -2.17001 5.37056 
1252 1 1.93698 -0.0699499 4.8652 
12562 1 1.88896 4.02435 -4.16547 
12563 2 2.53684 3.02731 -4.30209 
1677 1 -0.0432715 -2.8868 -2.92081 
1254 1 1.71564 -3.24211 3.02165 
1676 2 1.50186 -3.61088 -1.00788 
1675 1 -2.89765 -1.97729 7.00761 
8923 1 -6.17535 0.288755 -5.79157 
13719 1 3.08897 -5.34132 0.0631078 
2689 1 -2.82632 1.11085 6.41907 
9718 1 3.52539 -2.64712 -1.05272 
9719 2 -0.807529 4.06724 1.55427 
2261 2 1.0284 1.75718 5.05182 
18790 1 -0.136796 0.668922 0.035932 
2260 1 -0.855934 -3.84605 -0.0388488 
9720 1 -0.975977 3.50702 -2.42591 
8326 1 -0.335833 1.25644 -2.92974 
4594 1 -0.190008 4.68183 -4.22479 
2262 1 -0.174195 -2.38994 1.08218 
15342 1 1.55902 -6.22409 0.490457 
18214 1 2.25391 -3.62459 -4.69033 
18215 3 0.314003 1.06935 3.93051 
751 1 2.49926 -0.45433 4.84481 
3755 3 -3.12306 2.23196 0.635065 
3756 1 1.6121 0.00447047 -3.62959 
12671 2 -0.630871 -1.99151 2.80449 
3754 1 1.43427 4.97807 0.528444 
12670 1 -3.13968 -3.33817 -1.01746 
10548 1 -0.415889 0.725783 -1.98677 
18216 1 -0.942333 2.95752 5.6661 
21150 1 -0.435698 -0.265327 -1.5514 
18559 1 0.578342 0.933873 -3.45571 
11073 1 2.06778 0.219727 3.63959 
12672 1 -5.76372 2.24533 -3.70327 
11660 2 1.45743 -3.08946 -0.279387 
11951 2 -1.94401 0.68686 0.0252051 
11659 1 -3.27474 1.80498 0.501836 
11071 1 6.7913 -4.19437 1.1214 
11072 2 1.76763 -1.48352 4.35184 
11661 1 0.11491 0.714976 -2.49884 
6365 2 -4.95264 -4.31945 3.91698 
323 2 1.65655 -1.14486 5.14283 
9120 1 -1.77535 3.15887 -2.07718 
5857 1 -0.574052 -2.90648 3.74028 
324 1 1.76886 -0.624962 -1.38564 
5858 2 1.7605 -2.29863 1.58965 
5859 1 0.844745 3.11562 -3.61732 
12002 2 -3.46748 0.0490371 0.835852 
12003 1 7.07042 5.33605 -7.59016 
12534 1 -1.21993 0.571848 5.48353 
503 2 0.167033 -0.630118 -0.962299 
12533 2 2.50436 -3.55279 -3.83096 
12532 1 2.27523 -4.26127 7.32865 
504 1 -1.70521 -4.01636 1.87187 
7245 1 2.28058 -1.78675 -2.49452 
192 1 -6.46973 -1.23124 0.961962 
6364 1 -0.666862 0.30208 5.60871 
10138 1 0.758617 6.3392 8.33727 
7925 2 2.47439 -3.73119 -2.19633 
7244 2 0.0128239 0.843851 2.69582 
7243 1 -0.198858 1.6278 2.08167 
3213 1 -0.345442 0.852888 1.68472 
3211 1 -0.252463 0.827719 -2.06085 
3212 2 -0.809939 -0.411582 0.307303 
13361 2 -5.85505 0.527359 -2.69449 
13362 1 -1.75128 -0.417867 -2.78957 
16911 1 2.09192 -4.69711 -0.439078 
16910 2 -3.64126 0.28101 5.10882 
7926 1 -2.10098 2.49825 3.96826 
17118 1 -0.429802 2.10561 -0.616382 
8327 2 1.45899 1.32268 0.504973 
14174 2 2.91248 0.0757427 -0.0126876 
17117 2 1.14264 1.29349 -0.465039 
14175 1 1.01876 -3.51206 -9.562 
16909 1 9.06386 -4.67549 -0.47113 
18446 2 -2.48108 -2.75509 -3.50585 
18447 1 -4.12503 -4.20525 -9.02711 
17614 1 0.41136 -2.66084 2.23035 
17615 2 -2.83436 0.758293 1.25557 
11283 1 0.947516 5.16119 1.03971 
11282 2 0.133819 -1.06054 -1.17614 
6476 2 -0.0288454 -1.90849 -1.97241 
6475 1 -0.0406159 0.651196 -6.94887 
17133 1 -0.418553 3.17354 -5.16238 
17132 2 -3.20218 0.422606 -2.76249 
8682 1 -1.7501 -4.79981 -1.56831 
761 2 -0.325386 2.95844 -1.02954 
17131 1 -4.79551 2.45992 3.61147 
760 1 -0.290935 -4.74832 -3.58815 
762 1 -4.03202 -0.414429 -7.32614 
5181 1 7.49408 -1.16867 3.20501 
5125 1 -4.66018 -3.77374 4.15785 
6477 1 1.6082 -4.09459 2.25181 
5180 2 4.02848 0.0469227 0.910468 
5388 1 -3.08309 2.88165 0.512582 
5387 2 0.976782 0.475697 4.1931 
5179 1 -4.37622 7.73399 -0.981724 
5386 1 -2.33753 2.61911 0.296719 
3183 1 1.17323 5.42247 -5.07992 
3182 2 1.93806 0.266398 1.07901 
608 2 -1.91355 1.69617 0.3404 
607 1 -0.868133 1.90358 1.50695 
3181 1 1.50866 0.101263 0.672136 
20566 1 -2.0652 -4.79474 5.13539 
10847 2 -1.16724 3.33025 0.594017 
10846 1 -1.92614 1.95116 -1.6579 
21295 1 -1.74903 4.82929 3.97269 
20567 2 0.311797 -0.447451 -4.17771 
17730 1 6.37074 -2.28413 2.21206 
20568 1 -2.29473 7.12938 -5.99176 
10848 1 1.29783 -2.186 2.0986 
17729 2 -0.758096 -2.48108 1.65298 
5919 1 -4.24777 4.57629 -2.67855 
4481 2 -2.56509 -0.855287 0.0503144 
4480 1 -0.417714 -2.16868 -1.86256 
11115 1 -7.43492 4.49685 3.46797 
4482 1 2.37249 2.3482 -4.48371 
11113 1 -1.81833 7.29019 -2.23939 
10644 1 -2.53951 -0.481569 1.93172 
11114 2 -0.555563 -2.18026 -2.59218 
3030 1 -3.60862 -0.9197 -0.375599 
3029 2 -1.50732 0.909394 1.75229 
3028 1 -3.14678 5.19653 1.05998 
2339 2 1.4279 -3.19038 -0.529528 
2338 1 2.84123 0.92509 -4.2359 
5143 1 -1.25616 -0.990548 3.12069 
11077 1 -0.0298408 -3.02461 0.874074 
11078 2 -1.56571 -4.02021 6.0036 
16462 1 3.40187 0.171176 5.22275 
2340 1 4.63402 -0.107286 -8.50726 
9945 1 -1.51014 1.12438 -0.463082 
17601 1 -2.20456 -0.102606 -1.34779 
15788 2 -3.51053 -3.30269 -1.49863 
16463 2 -0.0481607 1.66071 2.98214 
16464 1 0.956346 -4.63552 0.114443 
15789 1 1.67726 -1.09827 -0.507065 
17600 2 -3.69035 -1.30033 0.314227 
17643 1 1.71772 2.36939 0.398065 
17642 2 1.81316 1.01619 2.58942 
182 2 2.74948 -1.27479 2.8746 
17641 1 -2.25468 -1.16906 3.21555 
183 1 -3.18786 2.0391 1.43772 
7783 1 0.631989 1.5831 -2.64719 
16835 2 0.0607469 3.60769 1.34453 
17599 1 6.27367 -3.2498 -2.47159 
16834 1 -2.57019 2.58112 -1.04259 
15282 1 0.872415 2.61243 -0.0979725 
15281 2 -1.79724 -1.34141 2.69148 
8243 2 -0.507276 2.87535 5.77871 
15280 1 1.2846 0.107704 0.622475 
8244 1 -4.88867 -2.21021 -0.150985 
11852 2 3.97172 2.51733 2.03857 
1237 1 -4.01281 -1.96211 3.23502 
5918 2 0.0754916 1.46594 0.499732 
5917 1 0.424813 -5.2381 -4.52826 
15340 1 0.971549 9.99813 3.91413 
8242 1 4.61956 -1.22475 -4.995 
11853 1 -9.50983 3.40114 -2.34547 
15477 1 -2.58889 -1.91782 11.2413 
12564 1 3.78109 -0.998384 1.93318 
15476 2 2.44679 1.25882 0.655771 
15475 1 -5.59796 -2.2415 5.67121 
7713 1 -1.01334 1.35812 -0.440492 
7712 2 3.35359 -1.82009 3.25043 
7711 1 5.32466 -4.03077 2.26284 
15341 2 2.37787 -1.17207 0.41774 
4596 1 -1.64997 -1.79714 -1.92623 
4595 2 1.00429 1.31672 1.80869 
753 1 1.7542 2.17673 2.11675 
752 2 2.73237 -0.124848 -0.171151 
828 1 0.660482 -0.477489 2.15729 
21229 1 -2.57221 -2.28221 0.491446 
826 1 0.210506 -1.58913 -0.422093 
9119 2 -1.21095 -0.571657 0.573952 
11950 1 2.05427 -2.22011 -1.348 
827 2 1.90171 -0.91874 -1.10991 
9118 1 -3.2909 2.10433 -1.92611 
2192 3 1.42778 2.25497 0.899499 
67 1 4.21037 -6.1577 2.98804 
68 2 -1.33064 3.28209 1.05019 
69 1 2.62737 -4.19315 -2.70721 
2193 1 -1.05678 0.791684 -2.87755 
5144 2 1.53827 1.28388 -4.98309 
12526 1 3.37077 2.38014 -1.70923 
12527 2 -1.70725 -4.78683 0.835114 
12528 1 -4.52364 1.01545 3.87464 
12115 1 1.84404 0.445368 -1.45858 
12117 1 0.309415 -1.26977 2.58208 
12001 1 1.02553 -7.15144 -1.03366 
12116 2 1.95019 0.969601 0.0637907 
7204 1 -0.650683 7.44435 -5.09921 
7941 1 -2.69523 -0.524742 -1.19835 
1238 2 -0.543516 2.12651 -0.548107 
8095 1 0.993891 -0.890946 6.09741 
8096 2 -0.425732 -2.20472 5.54946 
8097 1 -2.15136 10.011 3.8774 
7940 2 0.790036 -1.95308 -3.67117 
7939 1 0.506641 4.22428 -2.05802 
1239 1 -2.78911 -2.63725 -0.684328 
14242 1 -3.96948 4.55759 -0.529569 
14243 2 1.00993 -0.281679 2.99304 
5093 2 1.58581 -0.287828 4.68217 
13360 1 -3.07552 -1.03261 1.362 
7924 1 0.900942 -1.62365 4.94482 
14244 1 -4.83965 5.25161 3.97459 
4976 2 -0.379097 1.47099 0.253765 
4975 1 -6.03216 2.70554 -7.17423 
5092 1 1.72295 -3.70483 0.43794 
15981 1 3.19322 -3.18913 -3.4907 
5080 1 -0.232033 3.73991 -0.214849 
15980 2 -0.16642 0.275698 1.64629 
4977 1 0.537511 4.07093 2.3972 
16579 1 -0.25553 -4.2927 -3.78487 
18701 2 -1.58462 -0.47705 4.2103 
18702 1 -2.06737 -2.7064 -0.340946 
5081 2 -0.242833 3.77833 1.86251 
6820 1 1.18372 -4.38037 3.7888 
6821 2 0.255738 1.30553 0.391859 
5082 1 5.17453 3.0949 -0.732642 
17616 1 -0.612633 -4.55877 -4.3858 
6748 1 0.143854 -2.56699 -4.22318 
6749 2 -0.884593 0.328627 0.924481 
6750 1 -5.39486 -1.15318 3.7183 
14498 2 -1.84651 -1.04125 -1.65541 
14499 1 -6.85086 6.25735 0.76419 
14497 1 0.888452 0.176993 1.12685 
5127 1 3.40175 -1.7625 -0.0728759 
5126 3 -1.54014 -1.48904 3.8869 
3842 2 -1.84567 -2.62122 -3.54142 
3841 1 -4.48447 -3.14438 -1.38786 
3843 1 1.61609 2.91673 9.1703 
21297 1 8.50264 1.34928 3.90365 
21296 2 -0.65736 2.03421 -2.20204 
9219 1 1.53571 -7.3565 0.979117 
9218 2 -0.835026 3.32968 2.37383 
9217 1 3.22373 -8.84073 -5.94162 
1119 1 -3.30557 -0.043289 3.82699 
1118 2 -2.89215 0.301146 -2.45699 
1117 1 1.57266 -2.31528 3.4082 
8465 2 0.361699 -2.83818 -0.784965 
11079 1 -1.11906 -3.9319 4.91824 
8464 1 2.73371 0.621517 5.27435 
15518 2 0.907721 3.42231 -3.1578 
18641 2 2.6056 0.986773 -3.60801 
18642 1 2.31004 -5.02795 1.39828 
15517 1 4.47805 4.09946 5.9569 
15519 1 -6.54411 0.257681 -3.56336 
7784 2 -2.46217 0.607863 -2.691 
7785 1 -4.46738 -3.59943 3.19645 
18640 1 -6.48406 1.85992 1.29502 
4904 2 -3.59555 -2.00514 -2.89361 
18534 1 -4.41963 -2.62242 1.84294 
18533 2 -3.31986 0.840649 -3.79335 
4905 1 -4.42115 1.79951 5.43597 
181 1 -0.139644 -2.99431 -0.313271 
3321 1 4.16762 -5.94573 3.1909 
20505 1 -2.95123 1.84655 3.09733 
20504 2 1.78178 0.331523 -1.53639 
18532 1 -3.24904 -1.11822 7.48451 
6663 1 -7.27703 -0.76476 1.44804 
4903 1 2.28798 1.61683 0.78534 
6621 1 -1.93743 6.33258 -3.00205 
17052 1 0.587976 -1.91104 -0.488036 
6620 2 -2.07603 -1.78285 -0.519918 
11851 1 1.50434 -1.11248 4.00719 
6619 1 -4.40018 -1.85156 -0.672631 
17051 2 -2.39086 0.409492 4.62299 
17050 1 1.1851 0.216625 2.79909 
20503 1 4.53932 4.31123 1.21514 
6661 1 6.116 2.57946 0.19987 
6662 2 -0.0131479 2.76986 0.270978 
2310 1 -5.90794 2.15375 -3.04055 
2309 2 -6.00354 -1.16952 1.37477 
2308 1 -0.309345 4.7216 0.977103 
13732 1 -5.36028 2.8358 -3.82359 
13240 1 -3.92892 0.695201 0.84591 
10401 1 3.36703 -1.53351 1.21889 
10400 2 0.208779 3.67612 1.37808 
10399 1 3.69636 4.0961 -2.75761 
13241 2 1.87047 1.84307 4.58445 
10425 1 -8.42091 1.31406 0.383433 
2296 1 0.984484 -1.33693 -7.48061 
12523 1 0.0679405 -5.07107 -2.89931 
2191 1 3.57645 -0.0082503 2.41197 
10424 3 1.20678 -2.99526 -0.972775 
2297 2 -1.93493 -1.60494 0.482933 
18952 1 0.877902 0.217053 -1.46785 
5310 1 -2.61379 2.03338 -4.6858 
18954 1 4.7876 5.80951 -0.36507 
5145 1 2.83573 -2.37501 -4.28835 
2298 1 -5.11348 -0.243713 1.90856 
19083 1 -2.40055 -2.76095 -0.133917 
19082 2 -0.936626 1.42701 -0.0283014 
19081 1 1.26411 2.5033 -3.8206 
18953 2 1.92602 4.07204 1.56436 
6252 1 -1.46199 -3.12517 -1.01987 
7205 2 0.55109 0.867487 1.71527 
19656 1 0.833214 1.8612 -6.74412 
7206 1 -1.66631 -2.71026 3.99948 
6250 1 -1.94297 -0.196019 -2.82167 
16771 1 0.568381 -2.42781 -1.56131 
6251 2 -4.28504 -1.62612 -1.62419 
5094 1 -1.56497 -2.61848 -2.64525 
16628 2 0.461607 3.61724 0.904796 
13504 1 -2.26288 4.53952 4.90774 
13303 1 -1.75258 -4.66012 -3.06544 
13304 2 -2.11481 -5.18671 0.0758891 
13305 1 -0.294243 -0.344528 -1.57529 
13506 1 6.48466 -3.60821 -3.13479 
13505 2 -1.61411 2.72982 -0.933558 
13308 1 3.28981 -2.72466 -0.288324 
16629 1 3.46915 -1.50469 -0.246177 
18869 2 -0.853985 4.85857 -5.39346 
19393 1 0.0608515 7.46039 -2.14077 
18870 1 -6.59209 5.69124 -0.0539097 
15979 1 3.36801 -1.0052 4.64697 
1381 1 0.130428 3.47657 -5.19207 
13733 2 -1.33495 -1.42335 -0.124096 
749 2 -0.4627 1.33001 -2.69485 
748 1 -5.80032 -2.51963 4.38333 
750 1 2.36748 5.87116 -7.22552 
13307 3 -1.55728 3.20622 -0.785841 
13306 1 0.521813 -4.11079 -1.27083 
13734 1 5.66477 -1.92506 -4.33689 
13242 1 -5.85052 -3.5192 3.323 
18700 1 0.53238 0.249945 3.9322 
8466 1 0.563533 0.468974 1.71286 
1512 1 -7.10223 -4.16298 -2.51323 
1511 3 -0.0749013 -0.646461 0.986469 
1510 1 0.907679 -5.53772 -2.16802 
17383 1 0.59891 1.84949 2.37294 
17384 2 -0.466857 -2.30453 -0.750282 
17385 1 4.10034 -0.347579 -4.49775 
11358 1 -1.42427 7.88892 -1.99938 
11356 1 -6.42425 -4.69654 2.1282 
11357 3 1.23996 5.98911 -1.46449 
9344 2 -0.784335 0.955097 -3.74891 
9345 1 6.60122 3.47395 -1.40739 
7791 1 -3.72463 6.90397 5.10436 
7789 1 -2.75685 2.8258 1.23122 