ITEM: TIMESTEP
25000000
ITEM: NUMBER OF ATOMS
11880
ITEM: BOX BOUNDS pp pp pp
0.0000000000000000e+00 5.0000000000000000e+01
0.0000000000000000e+00 5.0000000000000000e+01
0.0000000000000000e+00 5.0000000000000000e+01
ITEM: ATOMS id type vx vy vz 
6278 2 2.07057 0.174134 -3.05473 
6279 1 3.68226 3.60915 -2.66535 
20072 2 -1.10662 -0.0973165 2.70514 
20073 1 1.03456 -5.21325 -2.85649 
3235 1 -8.74024 4.39693 0.979671 
12558 1 -4.35942 1.46843 -1.89238 
12557 3 2.79993 -2.62366 3.63214 
12556 1 1.00345 -0.50793 5.36887 
3236 3 -2.36203 -3.77523 -3.06674 
4175 2 1.22416 0.85717 -2.29214 
4174 1 0.0694013 -6.27025 -2.87796 
6316 1 1.91471 -0.885804 -0.694309 
7137 1 6.98363 1.9898 -0.675965 
2229 1 4.65651 6.40153 5.63806 
2228 2 0.323011 -4.37898 -0.11602 
2227 1 -3.76156 1.71546 0.596501 
17692 1 -3.08634 -2.17686 -7.71303 
17693 3 -1.31413 4.70511 3.05003 
7135 1 -1.22007 -1.36873 -2.33106 
1532 2 0.0947016 -0.229117 -0.0574567 
1533 1 -1.23547 2.97888 2.27741 
1531 1 -0.607254 2.9476 6.33018 
6917 2 -0.988937 -0.878962 -1.4095 
6918 1 5.35177 1.31926 -0.565851 
6916 1 -2.64856 4.66533 2.01563 
19932 1 -5.00155 8.60141 -2.54097 
19931 2 -3.05149 -1.42025 -3.3549 
19930 1 -0.532737 3.72471 1.33912 
7750 1 -3.87823 -0.949879 7.5351 
7751 2 2.70819 -0.518121 4.22508 
16402 1 -0.00969973 -6.66145 0.988597 
13300 1 -0.990687 -3.66809 -6.42081 
13301 2 -0.564844 -4.38781 -5.06563 
16403 3 -3.05512 -2.52192 4.49719 
6914 2 1.07085 3.82702 -1.6855 
6915 1 1.41523 0.749192 -3.81604 
10775 2 -0.684381 0.368075 2.33714 
10774 1 5.90049 -6.55731 -6.94175 
10776 1 -0.847989 3.41235 2.20016 
12865 1 -1.9462 -1.2685 4.04305 
11859 1 1.58726 -6.07421 -3.72041 
11858 2 0.612357 1.38567 0.672612 
11857 1 0.565478 -3.54581 -1.1305 
1686 1 -1.8634 -5.64285 1.19986 
11901 1 1.04553 -0.950551 2.0327 
17694 1 0.264968 -0.351959 -4.58769 
13302 1 -1.54719 3.28876 3.47225 
16404 1 -0.854114 -6.58475 5.14433 
7491 1 5.41386 2.15996 1.05448 
7489 1 3.24137 -1.15543 -2.28049 
7490 3 0.795014 -0.189339 1.20454 
4616 3 0.310359 1.60648 -3.14703 
4617 1 -6.01519 -4.30952 5.50449 
4615 1 1.78256 -3.8539 1.0474 
17423 3 2.10715 -0.704066 0.303532 
17424 1 -0.538205 4.7108 -4.62225 
17422 1 0.168031 -2.77613 0.808039 
9721 1 1.69768 -2.99539 3.20158 
9722 3 0.0634512 -2.56146 -3.86049 
9723 1 -2.75779 -0.300265 -7.3323 
8688 1 -1.39449 0.576381 -0.866602 
8687 3 -0.168331 1.05533 1.40286 
17109 1 -0.051209 -3.27216 3.99831 
17108 2 -0.0136215 1.60057 1.29837 
1257 1 -4.41133 0.0279597 5.05688 
1256 2 1.06171 2.0488 -1.41127 
12866 2 3.86688 -0.540322 -3.14395 
12867 1 2.71477 0.849188 -1.30291 
3719 2 -2.48046 -2.3822 0.156963 
3720 1 -3.79543 1.91657 1.19272 
3718 1 -3.22477 2.0763 -0.338816 
19024 1 -1.57761 -0.516342 -0.346846 
19026 1 -1.29985 -0.689131 4.12831 
19025 2 -1.0472 1.82328 1.04744 
1685 2 4.60322 1.75324 -0.316412 
12876 1 1.44572 -1.26929 -4.72968 
17296 1 0.338728 4.3376 -0.0874341 
1684 1 0.354008 2.04541 3.17477 
12875 2 -1.67368 -0.584874 -1.93872 
12874 1 5.50891 5.13006 -2.07466 
11899 1 -3.24937 7.02969 3.30428 
11900 2 -0.923379 -0.078476 0.365878 
2637 1 -2.31927 5.70816 1.78869 
2636 2 -1.14672 1.53528 5.97055 
16715 2 -0.377743 -1.31526 -2.03372 
16714 1 3.61357 0.918862 -0.742943 
16716 1 0.900106 2.32265 -0.0713587 
16683 1 -5.28148 2.2898 -1.87748 
16681 1 -2.76231 0.336717 -0.734955 
16682 3 -2.23341 4.65445 -3.10944 
10329 1 8.85997 -4.08008 2.34648 
10328 3 1.00033 -0.739092 -0.830914 
6018 1 0.347333 3.59202 0.69908 
6017 3 -4.2383 -3.04544 2.11364 
6016 1 5.3776 -1.08998 1.82849 
11803 1 -4.92154 -2.01828 3.13258 
11805 1 -0.35782 -1.4043 -2.63458 
10327 1 1.52846 -3.30828 0.282413 
11804 3 -0.348813 -0.557726 -0.00501959 
15135 1 -2.84802 6.54396 4.5503 
15134 2 1.71713 1.33651 2.41716 
15133 1 2.78103 0.366226 -0.745891 
8802 1 3.0401 -3.35466 -5.81323 
3381 1 -3.47609 -3.17594 2.41978 
3380 3 -2.5131 -0.222885 -1.04384 
3379 1 0.840939 1.62528 -1.11828 
9058 1 -3.87495 -1.07629 1.69474 
8800 1 -2.45896 1.02689 2.36853 
8801 2 1.49848 2.56018 0.132628 
8686 1 -0.968881 4.99249 -0.0122941 
16386 1 3.17748 8.61403 -3.07205 
4733 3 -1.54338 0.539677 -7.73951 
4732 1 1.46354 1.31627 1.1963 
2940 1 -7.50594 2.41681 -1.08472 
16384 1 -0.666007 -0.45643 0.218928 
16385 3 -4.79345 1.68746 3.25699 
17107 1 -3.1876 4.74669 -0.443011 
4734 1 2.11113 -1.22273 -0.722922 
2939 2 1.1315 8.22164 2.68815 
1255 1 -4.27188 -1.33577 0.866717 
9372 1 2.91403 -5.6858 -0.858841 
9371 3 2.22615 -2.5326 -0.765799 
9370 1 -2.2408 -0.370588 -3.61138 
6535 1 0.638726 0.966502 5.29021 
2196 1 -2.6856 0.113448 1.97857 
7042 1 3.75874 0.559152 2.49864 
7044 1 -2.29289 3.05509 0.251776 
7075 1 -5.4414 0.90191 0.474329 
7043 3 0.885963 -0.980795 1.44486 
16632 1 -5.30744 0.606019 -3.39422 
16631 3 0.210586 -1.49219 -1.69934 
7076 3 -2.0045 -2.61739 -2.92331 
7077 1 0.595719 -2.07454 -0.288043 
1061 2 1.82382 2.89972 -2.40181 
1060 1 -3.90942 0.640415 -5.29286 
17298 1 -1.39758 5.07267 -5.70955 
17297 3 0.179705 3.00874 0.68719 
9489 1 0.204491 -3.61084 -5.83139 
9488 3 0.158008 0.0372803 1.57733 
9487 1 -1.69331 3.86128 2.28721 
1474 1 -4.45981 1.54371 4.54842 
1475 3 -3.01873 2.95204 -0.356144 
12435 1 -3.17435 14.9197 -7.14683 
12433 1 -4.5808 3.67995 -2.53462 
12434 3 -1.07229 -0.567584 0.898217 
14428 1 1.1605 7.93412 2.97293 
14429 2 0.0886983 -0.854937 -0.980673 
14430 1 5.5125 2.32364 -1.07126 
8107 1 -0.911251 -2.34122 3.70681 
8109 1 3.51027 -1.59902 -6.16823 
8108 2 0.513863 0.473659 1.67729 
12841 1 -1.76691 -2.5377 0.109713 
12843 1 2.47448 0.271508 3.6389 
12842 2 4.4219 -1.00317 -2.92423 
844 1 2.14166 3.10665 2.14539 
6813 1 -1.77439 0.822596 2.49163 
845 2 1.60933 3.91928 6.23404 
846 1 0.872255 0.68555 -2.62591 
11706 1 -1.96862 3.67049 0.82605 
11386 1 -5.65952 -0.407952 -0.0179741 
11387 3 -2.75016 -0.680228 3.49494 
11705 3 -0.992845 2.86293 4.67634 
11704 1 -1.4345 4.25916 -6.24586 
11388 1 5.63324 0.23652 3.21269 
4819 1 2.69989 -1.8865 2.36898 
4821 1 4.35996 4.27629 -2.93925 
4820 3 -1.81807 -1.49606 2.65862 
135 1 -1.30576 -1.00828 3.28257 
134 3 -1.1338 -3.6135 4.65312 
133 1 4.07616 3.58649 -5.19419 
2635 1 -5.35882 -0.967869 1.95068 
9375 1 0.42472 2.06425 -3.50426 
3042 1 1.11311 -0.493967 1.16748 
7430 3 0.484713 4.53371 -0.905861 
7431 1 -3.01289 -1.34064 -2.77462 
3041 3 -2.53107 2.31455 -0.332979 
3040 1 0.735516 2.78407 -4.27437 
16496 3 3.99917 -3.78405 -3.52133 
16495 1 -0.928272 4.17855 0.0270381 
16497 1 3.15522 1.35632 0.809492 
7429 1 2.30286 0.0584024 6.645 
9363 1 -1.86775 -3.98043 -4.54745 
10827 1 2.75611 1.54003 -4.91884 
7238 2 3.62747 -3.26432 1.96567 
7237 1 5.40555 1.33274 -1.25763 
7239 1 -3.62101 -0.149216 -1.27548 
9362 3 -1.71134 -4.37384 0.314752 
9361 1 -2.66291 -0.664491 -0.0522571 
9970 1 -3.44808 0.922529 -0.205748 
9972 1 -0.296121 4.20992 2.56948 
9971 2 -2.83108 -6.25904 4.03036 
8425 1 -0.294664 5.15934 -0.0854641 
2787 1 -5.12657 -5.48248 7.10492 
2785 1 4.66038 3.87444 1.20602 
2786 2 2.26564 -1.60441 0.203573 
9059 3 -1.88289 -1.92337 -1.31074 
9060 1 2.29173 2.6888 1.36821 
7670 3 -1.82293 -1.55563 1.01342 
7669 1 1.85972 4.72157 -6.45693 
13899 1 -1.89998 2.10898 3.66593 
18448 1 0.952227 8.04306 -0.406327 
13898 2 -0.579754 -1.34619 -3.51227 
13897 1 2.42606 -0.75754 4.70139 
16429 1 3.25288 3.04168 -2.57307 
2938 1 -1.03241 -4.90174 6.13007 
16430 3 -2.71774 -0.459933 1.4487 
16431 1 1.06756 6.08004 0.978218 
20336 2 2.59678 3.86458 0.574563 
20335 1 0.435008 2.09838 -3.929 
6537 1 9.25443 2.9488 -2.20983 
6536 2 0.70039 -2.25667 0.0671086 
16630 1 7.11094 -7.49826 -1.93168 
3531 1 7.35555 5.62654 0.430886 
3530 3 2.49708 -5.48465 0.223671 
3529 1 -0.479358 11.2312 1.95518 
1062 1 1.92187 5.5376 4.27323 
10161 1 8.65387 -1.12532 -0.947126 
10160 3 3.19931 1.81504 -1.10604 
10159 1 0.890835 -2.30751 3.47727 
2194 1 -1.09477 2.89138 -6.45898 
2195 3 -2.5487 -1.30003 -0.722581 
19638 1 -0.707901 -1.57782 -6.04243 
19637 3 -0.142035 0.318145 -1.29074 
19636 1 -6.37696 -0.530918 2.08939 
18505 1 -5.31569 -2.86304 -1.57746 
13072 1 3.65479 1.7663 -2.80655 
18506 3 0.890805 1.80456 3.82246 
18507 1 3.4528 2.40403 2.43797 
14740 1 1.65238 -0.522017 -2.25069 
17518 1 6.83838 2.26052 -4.66674 
17520 1 -1.55322 0.375319 5.03347 
15688 1 0.566088 1.57257 0.582961 
17519 3 -0.753781 3.6377 1.41562 
15690 1 -3.50965 -2.31466 -8.17335 
15689 3 -1.14873 1.26429 1.72349 
10090 1 3.77305 -2.19744 0.988332 
14741 3 5.45177 1.22604 -1.57784 
14742 1 0.891388 2.46558 -2.6126 
19887 1 -3.99312 0.449278 3.50822 
6811 1 -4.37309 1.54102 -6.44343 
6812 3 2.8174 1.04614 -3.95647 
4332 1 -3.64833 1.10099 3.63374 
12699 1 0.71065 -0.981868 -0.139418 
2241 1 1.92148 -0.0935399 -2.32268 
4331 2 -0.052141 -1.89389 1.45231 
20525 3 -1.84558 -3.12317 -5.46036 
9374 3 -2.93682 -4.8491 -0.312421 
9373 1 5.70638 -2.8784 3.8907 
20524 1 -2.97601 -6.00927 -0.81056 
4561 1 -0.287843 -1.47212 9.45794 
20247 1 2.91364 -2.47719 -0.986442 
20246 2 2.81965 -0.218094 -0.0294662 
1273 1 0.19641 -0.591565 5.57678 
20245 1 4.14312 -3.79921 -4.42186 
1274 3 -3.87039 1.07578 -2.27541 
1275 1 0.678835 0.238983 3.84616 
12605 3 -1.47887 0.612318 -2.86578 
12604 1 -3.22547 -1.25762 1.85973 
12606 1 4.06517 3.78854 0.576566 
8457 1 4.40511 1.69676 -4.08714 
18349 1 5.25381 0.99619 -0.869547 
8456 3 2.3808 5.99638 -1.67862 
18350 3 -2.87147 3.31183 -1.571 
8455 1 0.396546 -5.421 -0.863845 
18351 1 -0.381137 4.24433 -0.551396 
7909 1 9.70485 -5.8987 0.401678 
10825 1 3.44089 1.07572 -1.42564 
10826 3 4.13881 3.68709 -3.8183 
6460 1 4.36618 -1.6253 -4.00137 
6462 1 0.737773 -0.998622 -4.3818 
6461 2 -4.01538 0.909244 3.85961 
7910 3 1.18262 0.854884 -4.40307 
7911 1 1.67197 2.79928 6.26775 
4658 2 -0.708447 4.4843 2.51545 
4659 1 2.94781 1.73991 6.22658 
5163 1 -4.88828 -9.61778 -4.29537 
5162 2 -0.546038 2.14923 1.3265 
5161 1 1.40972 0.496017 -2.08174 
4657 1 3.73213 -2.94158 0.840135 
1363 1 5.3147 -1.23235 -4.47636 
1364 2 0.663559 -4.2316 -4.47628 
4161 1 1.50664 -4.54883 4.81465 
4160 2 -1.48573 -0.353341 1.95837 
20337 1 -2.50452 -2.98282 4.33306 
19044 1 -0.753552 3.37943 -8.00036 
19043 3 -0.59683 -1.81907 1.47424 
4159 1 2.27212 -1.32033 -6.45574 
19233 1 1.08069 1.36631 -1.72195 
19042 1 2.77301 3.3329 4.88657 
19232 2 0.727112 -2.71643 -2.6022 
2821 1 4.25497 -0.564883 -5.46674 
2822 3 0.527893 4.61372 -5.81612 
2823 1 -0.922346 -1.20892 -2.77405 
15712 1 0.259876 -2.44402 -0.268147 
13073 2 0.766186 -1.34638 -0.978812 
13074 1 -1.76375 4.78537 0.0176917 
10091 3 1.94255 -1.45952 2.21791 
10872 1 -0.582342 -3.21152 -0.0858832 
10092 1 -0.700355 1.50323 -5.18269 
10871 3 -0.29636 1.43507 5.99117 
6409 1 0.865507 -1.24799 5.03246 
6410 3 0.611439 2.34516 0.76759 
6411 1 -2.42257 -4.13083 -1.38669 
18847 1 5.56923 3.54723 4.59294 
10870 1 -0.142796 0.810213 0.851108 
18849 1 -1.95947 -1.55033 2.4928 
18848 2 1.74096 -0.979976 2.41029 
19886 3 -1.14497 -5.3902 -2.99944 
19885 1 -0.944788 -1.52337 0.988125 
5798 2 1.29236 2.67974 -5.55864 
5797 1 3.21995 -3.73199 -3.47809 
5799 1 0.83463 4.36298 1.25171 
2398 1 5.44207 -5.4747 -4.77166 
2239 1 -1.34269 -1.69645 5.55415 
2240 3 0.35667 2.70687 2.77833 
20526 1 1.37428 -7.2333 -0.859356 
21428 3 -2.74146 2.90584 0.0331495 
21427 1 3.75906 0.241558 1.78251 
21429 1 -1.21309 4.00651 -3.79639 
13028 3 2.36733 -3.85157 0.630259 
13027 1 2.33734 3.40849 -2.04868 
13029 1 -3.98664 8.66902 -0.417861 
6054 1 -7.80545 -4.18835 1.46522 
20933 3 3.82406 -0.00732086 1.85647 
20934 1 0.984699 -3.38036 6.6671 
14643 1 -3.51862 -4.6399 0.10219 
17773 1 -3.52366 6.15805 2.1428 
17774 3 0.224663 -2.11648 -2.78134 
17775 1 -4.6833 -1.58123 -9.33095 
19231 1 -1.12353 -1.22532 -7.29762 
1365 1 -5.78287 1.95573 2.16848 
15828 1 -0.816796 -1.00114 -1.90833 
14641 1 -4.47943 -2.58247 -0.432549 
14642 3 0.783704 -0.712064 -3.36395 
19702 1 -0.852356 0.310922 -2.17551 
19703 3 -0.825095 4.13424 -0.035554 
19704 1 0.570049 0.686524 -6.61157 
15827 3 5.26774 -5.76034 2.72434 
15826 1 -2.05056 1.84778 -4.37361 
8920 1 -1.70901 3.74772 4.06943 
8921 3 -2.83721 -0.802709 -1.37344 
8922 1 -2.4378 -0.413327 3.66818 
15713 2 -3.84264 2.44371 2.92638 
15714 1 -2.36572 -2.58917 3.99517 
20083 1 -2.46594 -2.34354 -3.41277 
20085 1 -0.615546 -7.06117 6.66975 
20084 2 1.08337 -3.86888 -2.82542 
5836 1 3.31836 -0.526032 -1.92788 
5837 2 -7.08586 -2.09342 -0.20126 
14473 1 3.43774 3.06228 -5.14031 
5343 1 1.4014 -1.15648 -1.41725 
2399 2 -5.83465 -0.863374 -3.13053 
18574 1 4.16363 -4.96485 -6.88343 
4191 1 3.39235 4.81407 1.26966 
6035 2 0.0892664 -4.84062 2.62637 
6034 1 -2.5953 -9.58177 2.16036 
6036 1 -1.1493 4.72804 -2.54328 
2400 1 3.32046 -5.87069 1.28049 
18576 1 -0.429809 6.55207 0.266044 
18575 2 -2.40075 0.524641 -1.61243 
4189 1 -1.60416 -4.08216 5.19176 
14710 1 -3.40669 0.765803 2.00479 
4190 2 0.651861 1.61997 -1.09042 
14711 3 2.92329 -2.51813 0.402916 
5382 1 -2.62615 -2.07082 0.781198 
5381 2 -0.60988 2.20361 -0.336748 
5380 1 -2.25757 5.5119 0.809354 
16413 1 0.17157 -3.08291 2.01055 
13657 1 -0.180048 -2.3674 1.44078 
6560 3 0.966451 -4.21899 1.44301 
6561 1 -2.20831 -2.15781 -0.927884 
6559 1 -8.93008 -2.83877 5.00408 
16412 2 0.318637 -1.72811 5.51979 
16411 1 -0.569831 4.28133 -1.29671 
21287 2 -3.69043 -4.57862 5.87396 
21288 1 -0.44791 -1.95823 7.81414 
358 1 -0.245179 -5.38216 1.33277 
13836 1 6.0708 -0.620392 6.15697 
13835 2 1.32419 0.288736 2.92605 
13834 1 -0.0861346 3.31296 1.34741 
21286 1 0.530458 6.25188 -1.36983 
13278 1 -3.87718 -2.28355 -3.71537 
13276 1 5.41038 4.14232 -3.78401 
13277 3 -0.454614 1.96716 -0.640106 
6052 1 0.0589457 2.12055 2.80006 
6053 2 -1.53444 1.92402 -5.58537 
360 1 -6.31778 1.13711 2.66623 
359 3 0.254232 -6.02862 -3.56437 
9213 1 -0.344857 -5.23938 -6.30997 
9212 2 1.68571 4.12293 -0.0969765 
1201 1 -0.445295 2.18393 -1.53059 
1202 3 1.02088 -2.79431 0.596747 
1203 1 -2.21288 3.28713 -11.064 
20932 1 -2.58092 0.730719 2.88747 
18999 1 1.40691 1.41055 -0.681502 
18997 1 1.99152 2.18568 -1.30063 
18998 3 -0.847577 3.72466 1.0462 
3357 1 -0.886578 -4.56314 0.000318503 
5327 2 1.50053 0.364468 3.7543 
5328 1 0.565314 2.48542 -2.31297 
3355 1 -4.37873 -0.291256 -1.51495 
3356 2 6.62368 -4.12331 4.37494 
5326 1 -2.73597 10.3951 0.223415 
20440 1 1.13289 1.57107 -0.789082 
16956 1 2.47008 1.88013 0.984733 
16955 3 5.2019 4.04015 1.67813 
16173 1 -2.30885 3.27932 -4.99566 
2896 1 -3.58784 2.8924 4.79433 
2898 1 1.7839 -0.581067 2.84773 
2897 2 -0.6135 -3.1826 -0.992254 
16172 2 -3.45163 -1.84018 1.48997 
16171 1 1.51703 -1.13159 2.99534 
21590 3 -0.328417 0.942916 -0.00203542 
21589 1 4.15288 -2.46851 4.13104 
7932 1 -0.997155 1.38676 -0.704067 
19265 2 4.38109 2.79706 -1.22468 
7931 2 -1.91231 -3.46545 2.95329 
19266 1 0.1096 -2.79413 -3.43224 
19170 1 -3.81903 4.15415 -0.595876 
19264 1 2.79938 -3.03928 2.75824 
21591 1 0.807058 0.366837 -0.937112 
20546 3 1.90234 4.25314 1.94744 
15513 1 -3.26377 2.24053 -4.99689 
20547 1 1.36568 4.63884 -2.90634 
20545 1 0.518112 -1.96862 -5.07525 
7930 1 4.89027 -2.85437 1.55147 
6213 1 1.69531 4.47281 -0.418985 
6212 2 -1.36212 -2.13303 -4.8278 
17481 1 -0.325302 1.52908 -4.40503 
15512 2 -0.0379017 4.05881 -1.17022 
15511 1 0.278488 -4.77699 -2.62589 
5838 1 2.20932 -1.67791 -6.2238 
6211 1 -8.00815 1.55732 -2.6729 
14718 1 -0.0892644 -3.91975 0.920648 
14475 1 -1.26862 0.0787474 6.12566 
14474 3 -1.71122 2.18213 0.449175 
9415 1 -0.64602 6.40304 -3.86546 
9416 3 2.40724 0.724558 -3.79142 
4237 1 -1.25267 -5.58454 -3.13045 
4238 2 -0.612308 6.49769 -2.29297 
4239 1 5.90728 -6.23547 -0.288105 
5341 1 2.22286 -0.306092 0.177382 
14717 3 0.338577 1.80916 5.28809 
14716 1 3.20792 -2.49865 -2.01216 
20872 1 -3.66066 0.880025 1.07887 
20873 3 -3.20361 3.33859 1.58042 
9417 1 1.46413 2.18939 -1.69806 
5342 3 -1.87983 -1.58783 -0.493719 
20574 1 -0.225805 -0.546318 4.09108 
6324 1 3.58812 4.48979 0.7478 
20573 2 5.35913 2.43931 3.43114 
6322 1 -2.19388 4.47055 0.0992876 
6323 2 1.39714 5.23984 -4.59559 
20572 1 3.65303 -3.34651 6.00913 
14712 1 9.25805 3.71019 0.815005 
10012 1 6.41547 1.24385 8.26557 
10013 3 2.53772 -1.52894 0.394724 
13659 1 5.07506 -3.16479 0.241233 
13658 2 2.33053 2.70965 4.8662 
20555 2 3.2338 2.31586 1.40506 
20556 1 2.40832 -0.621451 -2.14545 
20554 1 6.65063 -0.256763 3.11112 
18276 1 -4.67697 0.691841 5.19427 
18274 1 1.02362 -0.189278 -1.9472 
18275 3 1.26388 -2.30095 0.880147 
9211 1 3.3896 2.17678 4.18348 
20442 1 0.976332 -1.82561 9.52421 
20441 2 1.04484 -1.26532 -0.67875 
12653 3 -0.209279 -1.1376 4.40696 
12654 1 -0.589214 -1.14953 6.09285 
12652 1 1.98669 -3.18073 2.51421 
628 1 -4.15583 1.29841 4.45664 
630 1 -3.95494 4.99117 -0.853316 
629 3 0.989405 2.0134 2.59911 
1056 1 0.647435 3.88532 -0.0237883 
1055 2 1.23631 1.01151 0.111732 
1054 1 -0.814096 -2.79742 5.09765 
4637 2 -2.32125 2.64622 -4.26572 
4636 1 -4.5722 -4.7184 2.07949 
11940 1 1.01339 7.98348 3.95648 
11939 3 1.32581 -3.96976 -2.43566 
5735 3 -0.25002 3.16539 -1.3863 
5736 1 -1.47864 -3.90207 -4.38871 
5734 1 4.54377 4.13712 6.25247 
4638 1 4.35552 -3.28115 -0.550645 
6725 3 -0.69131 0.619857 5.47832 
6724 1 -2.34222 -0.633026 4.08935 
17278 1 -2.20976 5.99059 -5.70805 
17280 1 -5.25966 4.24505 -3.45824 
17279 2 -1.63152 3.87674 -0.739285 
17480 2 -1.32045 -2.29083 2.67519 
6726 1 -0.8719 -0.0431442 5.09239 
17479 1 -3.03616 -0.947375 -2.5854 
6159 1 1.32927 2.04077 -0.94282 
20874 1 -0.691307 0.717933 -4.25652 
6157 1 7.40791 2.3881 -5.12918 
6158 3 1.71331 1.93483 -2.955 
10263 1 2.04661 -2.11244 2.38628 
19072 1 2.76626 -3.76092 4.80751 
19073 3 -0.812108 -2.56045 -1.59252 
19074 1 -3.52354 -0.670913 -2.02521 
20482 1 1.88162 4.09588 0.361091 
20483 2 -1.03673 0.685494 -0.392302 
20484 1 2.5914 -2.09984 -1.41213 
3852 1 6.36321 5.41622 -2.76537 
10262 3 0.365838 -0.631908 2.46943 
3851 3 0.154473 -1.55342 1.22785 
3850 1 2.69034 -1.05531 1.78811 
10261 1 -1.19416 -0.391153 -4.1574 
14983 1 -3.81074 -2.61674 4.41458 
14985 1 -2.69549 -4.93427 -1.33833 
14984 2 -1.42539 1.31057 -0.405822 
6703 1 -1.32478 -5.93098 1.9368 
6704 3 -1.5895 2.43324 -2.48208 
10550 3 0.148122 -1.22682 -1.58746 
10551 1 -1.60927 -2.52728 7.4349 
10549 1 -2.81414 -2.55656 -3.11807 
13445 3 -1.71844 2.05594 1.85207 
6336 1 4.63161 0.316929 -0.741426 
13444 1 2.63929 3.8353 2.90632 
15965 3 1.84306 3.30885 1.59592 
15966 1 -3.62717 -2.10836 -8.04871 
6334 1 5.56364 -2.40471 3.99311 
6335 2 0.656622 -3.76847 1.93362 
10288 1 -1.67505 -2.71732 2.9868 
10290 1 2.34801 2.61112 0.152503 
10289 3 -0.107856 -1.19483 0.823368 
15964 1 2.4608 7.75682 -1.35491 
10014 1 -0.816659 1.45554 4.09583 
10413 1 3.19227 0.873625 -1.91381 
17874 1 -3.86698 3.0454 2.07996 
10412 2 1.58796 -0.117079 -1.63059 
17872 1 -1.21774 1.48283 -0.106101 
17873 2 4.19894 4.80651 1.12381 
10411 1 5.0813 0.652212 2.404 
5115 1 5.81653 -4.14635 2.40951 
5114 3 -3.33219 -0.291743 -6.01436 
5113 1 8.42183 -1.74 -3.91418 
16624 1 -0.649837 -0.399727 2.35372 
16626 1 -0.746717 -1.02717 3.61743 
16625 2 -1.01632 0.680167 1.64215 
2062 1 5.47804 3.03922 -4.18068 
2063 2 0.853906 0.348353 -1.02746 
2064 1 0.149054 -1.32746 -3.39149 
14327 3 -3.7677 6.85145 -2.22137 
14326 1 8.03091 -0.404588 1.81576 
15727 1 2.22024 -3.93849 -2.46505 
15728 2 -3.7114 -0.902224 -2.442 
15729 1 4.78784 -0.22882 3.11826 
3508 1 -1.05141 4.15663 4.33198 
10295 3 -3.02787 -1.5247 1.79063 
10296 1 8.7547 -4.10667 -0.23337 
10294 1 0.978712 -4.42884 -0.207835 
3509 3 0.524087 1.05488 3.52581 
3510 1 3.76435 0.032781 3.67408 
19545 1 0.188287 9.50245 1.50022 
19544 3 0.865034 3.01875 0.22082 
19543 1 -1.5384 -1.99072 -2.35623 
19784 2 2.79249 -4.29664 -3.08323 
19783 1 0.505254 1.71661 2.21411 
19785 1 2.23929 1.14031 2.35999 
481 1 -0.673395 3.7274 -2.52536 
10638 1 -2.47233 1.30953 -0.457677 
8532 1 -3.57623 -5.75268 1.72595 
8531 3 -0.722882 3.43902 1.2185 
17301 1 -2.82666 -2.96251 -2.3602 
8530 1 3.97654 5.62161 -2.64918 
482 3 1.93169 3.09541 -0.377208 
483 1 4.14813 -5.48148 0.786084 
8565 1 -1.74791 -1.38932 -0.602128 
10637 3 2.48717 -0.721897 -3.37234 
10636 1 3.73809 -0.871439 4.67488 
18885 1 2.09445 3.1864 4.22225 
18884 3 3.99338 1.1478 1.67056 
18883 1 -2.39401 -0.779468 -5.28537 
8564 2 0.197615 1.71992 1.97709 
8563 1 -4.70118 -2.70739 1.41898 
11370 1 4.25626 -4.3092 -0.700085 
11368 1 6.8763 -1.6178 -1.42416 
11369 3 -0.280576 0.111337 0.0837338 
11938 1 3.61789 2.06407 -0.611049 
21421 1 3.46742 0.499403 -2.85967 
21423 1 2.49476 1.14699 -4.119 
21422 2 -0.400942 0.508551 0.628336 
3058 1 -2.01844 0.203814 -1.86221 
130 1 -3.68882 -2.6897 0.926089 
131 2 2.79654 1.11395 1.26984 
19411 1 -4.79436 5.00791 -1.46728 
13446 1 3.44793 -0.250548 -0.902749 
7860 1 2.45089 2.73764 -8.99398 
7409 3 -1.95498 0.478563 -1.58164 
7408 1 -0.122652 -3.21529 -2.2769 
7858 1 2.83649 -2.18835 1.98067 
7859 3 -1.40475 -0.49519 1.36545 
7410 1 -3.409 -0.548982 3.04906 
19413 1 0.442128 -2.71314 1.36672 
19412 2 -0.049762 0.869437 -1.59889 
2086 1 -0.0911952 -1.01128 1.08178 
16795 1 -1.20549 2.13205 -0.105859 
16796 3 -5.37491 -0.369119 5.66881 
16797 1 5.26709 2.32555 4.79353 
11377 1 -0.609514 -2.69638 1.62735 
11379 1 -1.16703 -2.62132 3.23811 
11378 3 -3.28999 -1.85415 -0.633416 
13404 1 -4.1741 -3.8189 1.5365 
13403 3 1.03137 -2.72752 5.18089 
14328 1 -4.46545 -0.711957 0.947744 
13402 1 -1.55661 1.94897 0.114382 
15880 1 -3.44783 1.33378 -1.11425 
15881 3 -1.70354 0.685293 -1.83589 
15882 1 5.3201 -0.486765 0.849432 
4155 1 -3.8912 3.57363 -2.82689 
4154 3 5.23978 4.09282 -0.400641 
4153 1 -7.04058 3.15064 1.17829 
11329 1 -0.0603531 0.128697 -1.35923 
17300 2 -3.84642 0.656331 -2.22449 
15996 1 -3.76875 -0.411297 -5.2464 
15995 3 -0.88028 0.23229 1.726 
15994 1 2.80959 -2.58861 4.00498 
5951 3 1.42151 -5.45271 -1.22969 
5952 1 4.75484 0.169034 0.495005 
5950 1 -1.63415 -4.44092 2.98356 
3059 3 -2.40092 1.22956 3.77536 
3060 1 7.71329 1.02914 -0.860042 
19892 3 -6.48877 1.55897 -3.86076 
19891 1 0.361119 -4.27257 5.21436 
15448 1 -1.56438 -2.66741 -5.35015 
15449 3 -1.8907 -2.46035 -2.59182 
15450 1 2.07001 -1.64898 -0.574473 
132 1 -5.63261 -0.397905 -2.26977 
12406 1 -1.47108 -0.267711 1.14753 
20773 1 -2.74429 -1.10115 1.54627 
20774 2 -2.58476 -2.70597 -0.66145 
18844 1 -1.84544 -0.376164 -5.33471 
18845 2 0.296252 -3.68809 -0.805692 
20775 1 1.13108 -1.21211 -5.28699 
18846 1 -0.340078 0.485791 -0.900854 
12326 3 -0.285751 -4.82931 0.222781 
12327 1 0.355629 -2.46636 4.27086 
12325 1 -6.54376 1.73726 -0.0422011 
15267 1 -1.72964 -6.36613 -3.2428 
11331 1 2.73991 0.169761 0.516754 
11330 3 -1.08782 1.71496 -0.446179 
15265 1 -7.49128 0.745982 3.25542 
15266 2 -1.61073 -2.13916 -2.97454 
15302 3 -1.41281 1.79488 2.51107 
15303 1 3.71128 -1.55579 5.68207 
12708 1 -1.42143 2.63761 0.6329 
15301 1 -4.04642 1.51116 4.67904 
12706 1 -0.936919 -2.0814 1.6731 
12707 2 -2.92145 -4.4697 4.07265 
16725 1 -4.97938 -1.37908 2.8876 
16724 3 -0.623171 0.209679 -0.624668 
7725 1 0.180192 -3.60397 -1.94347 
7724 2 -6.46606 2.07542 1.97199 
7723 1 2.45292 -5.48881 -0.107008 
19893 1 1.52383 0.248488 0.93478 
3097 1 0.8788 4.01431 -0.175785 
12407 2 -0.589186 3.45384 -2.73568 
12408 1 5.12253 3.6782 1.48499 
18282 1 -5.09492 1.22064 3.39706 
5256 1 3.08084 -2.78559 -1.46785 
2891 3 4.99484 -2.25756 -2.78912 
2892 1 3.8261 -2.41826 -2.13741 
19377 1 -2.74075 0.245346 0.026799 
2890 1 2.64601 -0.427907 5.66077 
19376 3 -1.41712 -1.05578 0.860036 
19375 1 0.805831 1.22946 5.51909 
9695 2 -2.66683 -2.1642 -0.0155224 
9696 1 1.07808 -1.03184 2.78542 
11884 1 -0.690213 -1.23023 0.0624185 
16111 1 0.671253 6.39619 2.00746 
11886 1 -4.19837 0.903872 -0.141334 
11885 2 0.0763586 2.52398 1.31668 
7534 1 -1.24867 -1.69181 3.98022 
7535 2 0.843879 -0.682472 3.09073 
7536 1 7.78464 -0.951376 0.222191 
19345 1 -1.14804 -3.60827 -2.36421 
20685 1 4.21767 3.80648 4.02562 
20684 3 0.588803 0.390651 0.150799 
20683 1 -2.04658 -1.15602 -2.93007 
16723 1 -0.14681 -1.63851 1.37779 
9382 1 -0.682684 -3.10629 -8.34375 
9383 2 2.40764 1.90644 2.05472 
20708 3 -4.04961 -0.149974 -2.30357 
20707 1 -2.06238 4.68712 -0.0969415 
20709 1 -1.70549 3.83466 -5.38592 
3099 1 -1.3027 -0.538888 -0.712372 
3098 2 -3.06998 1.57011 2.4809 
12035 3 -0.961464 -3.52906 -2.87072 
12036 1 -1.54348 0.680801 3.84477 
12034 1 3.47771 2.45156 1.52755 
1643 3 2.171 3.12648 0.0110216 
1644 1 -0.932413 -2.57091 0.610167 
18061 1 -3.91662 -0.38648 -0.915155 
9177 1 -1.15694 8.61495 4.17452 
9176 3 -2.67369 4.53712 1.89761 
9175 1 -3.77721 -4.02865 -1.31094 
3189 1 -7.29199 3.88175 -2.61208 
18281 3 -3.10104 -0.658506 -1.251 
18280 1 2.10357 -0.392223 -6.48211 
5255 2 3.1147 3.28906 -0.122529 
5254 1 -0.809262 2.07089 -7.57734 
10069 1 -3.32114 3.11904 -1.03106 
10071 1 -1.00026 -1.92096 -4.0744 
10070 3 -0.786558 -5.08134 -0.0376143 
5823 1 1.97005 0.654552 -1.72326 
3831 1 6.14277 -0.947417 2.54185 
3830 3 -2.3689 -0.170942 -1.28877 
3829 1 -0.485096 1.94496 1.01446 
18024 1 -1.95189 -2.36122 1.0546 
18023 3 -4.80815 -0.412913 -0.521228 
20049 1 0.485453 -5.58699 0.648247 
20048 3 -1.02153 -0.772152 2.55431 
4036 1 -5.99109 0.917156 0.732461 
20047 1 3.59257 -0.229316 2.92959 
5725 1 -3.15241 3.45963 1.16329 
11605 1 -6.77138 -4.39842 3.82266 
19648 1 1.44458 2.48765 -3.60008 
19649 2 3.47609 2.31717 0.882001 
885 1 1.09203 0.510439 1.57773 
19650 1 6.05761 1.34904 -3.08556 
5727 1 0.246917 -4.81096 -2.01125 
5726 2 -1.26381 -0.105424 3.76166 
883 1 7.50658 3.38681 1.08806 
884 2 0.625019 -6.18804 -2.15682 
3626 3 2.14831 0.159072 -1.41569 
9694 1 0.142891 -5.31792 -2.06447 
8260 1 -1.5057 -3.40157 2.57313 
8262 1 -5.12886 5.49109 7.40084 
3627 1 -4.77931 -3.54514 2.72443 
8261 3 -2.63558 -1.09912 5.6015 
16113 1 -2.33663 0.409005 -2.98577 
16112 2 -0.052085 1.19531 -1.39483 
11619 1 -1.87468 -0.0175349 -1.73028 
11617 1 -4.62475 1.80737 0.339499 
11618 3 1.21292 -2.53332 -1.22213 
19347 1 -2.51764 0.754017 -0.715883 
12742 1 -2.80963 0.256056 -3.60428 
12744 1 -0.0131594 -1.15426 -3.78829 
12743 2 3.96484 1.81309 -0.0660028 
19346 3 4.3319 3.29629 -1.08163 
18148 1 -3.51145 1.86342 -0.789073 
18150 1 -0.0263219 -0.772006 1.83519 
18149 3 -1.27848 2.40934 -3.4938 
7485 1 3.15978 2.35728 1.12982 
3180 1 4.50832 -3.05405 1.75256 
3179 2 2.54927 -1.48908 -3.02018 
3178 1 -3.11006 0.323917 1.05806 
7484 3 -0.818826 1.10577 1.54151 
7483 1 1.31843 5.49465 2.13447 
1941 1 -0.222557 -0.506788 -2.03287 
1940 2 -2.34296 1.18129 -3.56878 
1939 1 1.07817 -0.456169 -4.11636 
2732 3 -0.915086 1.49566 -3.1591 
2733 1 -2.95537 1.21711 -0.555637 
18598 1 4.19277 3.47155 3.67026 
5314 1 0.959923 3.52557 4.1452 
5315 3 3.2034 -4.45782 1.14919 
5316 1 4.03019 -1.70167 3.64951 
18599 3 -3.2273 1.79116 0.501302 
18600 1 0.944711 4.08214 -1.65497 
18115 1 4.21341 -0.138034 1.73337 
18117 1 -3.16508 2.13468 2.40164 
18116 2 -0.141422 -2.74763 -6.89491 
5759 3 0.395608 3.83358 4.20564 
5758 1 -2.92021 0.664634 3.96647 
5760 1 -1.02999 -5.15991 -2.16346 
1642 1 4.24902 2.94015 2.48782 
18063 1 -2.3669 -5.2453 -0.650404 
18062 3 -0.900127 -2.36969 0.978621 
3187 1 -2.45238 1.3879 1.32551 
15244 1 0.703948 11.1577 0.386965 
15245 2 0.811022 -0.790506 5.80523 
15246 1 -0.710516 3.56468 2.19103 
3188 3 1.42917 -1.19113 5.02026 
15057 1 2.20827 -2.21409 -1.94674 
15056 3 1.66594 -2.83369 3.23429 
15055 1 -6.00862 1.90815 -1.29223 
19651 1 0.625196 -0.293738 -2.21892 
19653 1 -4.9148 -1.72522 -4.44237 
19652 3 -4.574 -3.76749 2.05167 
11713 1 -0.482733 -0.126475 -0.330301 
11714 3 -0.0223504 -4.86652 -1.10402 
11715 1 -2.03835 3.13424 0.842126 
10356 1 -1.94795 -6.54316 -0.443223 
10355 3 0.579202 3.34538 -0.0397717 
10354 1 -2.98071 3.51487 -2.28486 
9843 1 -3.15842 1.1444 0.316408 
9842 3 2.23292 -1.99959 -1.14764 
9841 1 -7.6864 0.402768 4.24637 
2505 1 3.23098 -2.90906 3.39008 
2504 2 5.61481 1.44153 -1.7718 
5822 3 -2.40949 -1.24323 -2.58794 
5821 1 3.71812 0.939954 -7.31396 
277 1 -0.291536 -11.3965 -0.610544 
279 1 2.28303 -2.68826 -2.64226 
278 3 -1.11315 0.481373 -4.24247 
18022 1 -1.94924 1.27538 -4.89221 
1228 1 0.596084 -1.51218 1.81589 
13617 1 3.87393 -3.18443 -0.740911 
8835 1 -4.55207 0.0885657 1.88202 
10434 1 -5.16758 1.10686 0.490547 
8834 3 -1.85427 0.384014 1.22009 
4037 3 1.13267 0.324846 0.110331 
4038 1 -6.66349 2.65395 4.07678 
1229 3 -2.65297 1.15328 -2.27773 
306 1 -4.90099 -0.732992 5.54788 
305 3 3.3289 -2.51114 2.16016 
304 1 2.79704 4.30311 -3.09028 
10433 2 -0.211984 -2.5536 -4.74652 
1230 1 1.30314 2.05723 2.05402 
14757 1 -4.64 -5.80948 1.7929 
14755 1 5.14492 -1.16935 5.31365 
14756 2 -2.4934 0.882083 -3.69171 
5539 1 0.144186 -2.98561 -1.49278 
13616 2 -3.37485 -2.3054 -0.246799 
13615 1 3.11752 3.89399 1.46118 
5541 1 -0.259735 2.40474 -2.32089 
5540 3 -2.48313 3.78188 -0.637594 
19989 1 -3.14381 4.89324 -0.989858 
19988 2 4.70993 -2.38999 -0.19243 
19987 1 -0.732922 -1.86057 -5.43438 
3625 1 1.14283 2.44116 -7.23087 
21531 1 4.88502 -0.840884 2.39545 
11748 1 2.86311 5.10746 1.30826 
21530 3 -2.66388 -1.01677 -0.806152 
21529 1 1.72935 -2.27787 -2.85162 
14149 1 0.605453 0.435886 -1.57362 
14150 3 -0.475497 1.58593 1.07483 
14151 1 -5.86162 -6.80404 -3.36104 
10628 3 0.389833 1.85538 -0.481756 
10629 1 0.246163 1.87894 0.810316 
5555 3 -0.140995 3.43329 0.236065 
5554 1 1.53655 5.88533 0.386566 
5556 1 -3.13476 1.70389 -1.97445 
12903 1 -3.31248 2.62956 -4.01321 
20915 2 1.73602 4.73389 0.649119 
20916 1 0.719703 -1.06769 -0.57674 
20914 1 0.665834 -0.9528 4.09728 
5987 3 -0.571466 0.114999 -0.595794 
5988 1 -2.66862 -5.7169 1.38499 
10627 1 4.67754 -7.78892 -2.24717 
3456 1 1.88248 -5.5674 -4.51816 
18482 2 -0.823707 0.477668 -0.745997 
18481 1 -3.18842 -8.54867 0.302975 
18483 1 -3.31888 5.40705 -1.6106 
3454 1 2.18898 -2.15417 -0.563685 
3455 2 -3.47574 -0.630846 2.85349 
7225 1 1.08258 -0.314175 -3.72134 
7226 2 -2.15392 -3.03131 -2.45261 
9934 1 -4.62481 2.87997 2.98042 
9935 2 1.91103 -0.815692 -2.06715 
9936 1 2.06526 4.94475 -0.228758 
14950 1 -4.61783 0.343149 -2.0603 
14951 2 2.47842 0.662698 0.19872 
21308 2 0.525493 -1.17999 1.33369 
21307 1 -2.56465 3.27224 0.247434 
14952 1 -2.95007 -1.03872 4.40645 
21309 1 3.15318 4.44319 0.911789 