ITEM: TIMESTEP
0
ITEM: NUMBER OF ATOMS
1422
ITEM: BOX BOUNDS pp pp pp
0.0000000000000000e+00 5.0000000000000000e+01
0.0000000000000000e+00 5.0000000000000000e+01
0.0000000000000000e+00 5.0000000000000000e+01
ITEM: ATOMS id type 
487 1 
488 2 
489 1 
1387 1 
1388 2 
1389 1 
1447 1 
1448 2 
1449 1 
2527 1 
2528 2 
2529 1 
2530 1 
2531 2 
2532 1 
3247 1 
3248 2 
3249 1 
3301 1 
3302 2 
3303 1 
3490 1 
3491 2 
3492 1 
3664 1 
3665 2 
3666 1 
4564 1 
4565 2 
4566 1 
4807 1 
4808 2 
4809 1 
5587 1 
5588 2 
5589 1 
5590 1 
5591 2 
5592 1 
5641 1 
5642 2 
5643 1 
5704 1 
5705 2 
5706 1 
5884 1 
5885 2 
5886 1 
6841 1 
6842 2 
6843 1 
7021 1 
7022 2 
7023 1 
7027 1 
7028 2 
7029 1 
7201 1 
7202 2 
7203 1 
7741 1 
7742 2 
7743 1 
7747 1 
7748 2 
7749 1 
8050 1 
8051 3 
8052 1 
8944 1 
8945 2 
8946 1 
9007 1 
9008 2 
9009 1 
9121 1 
9122 2 
9123 1 
10267 1 
10268 2 
10269 1 
1219 1 
1220 2 
1221 1 
2233 1 
2234 2 
2235 1 
2293 1 
2294 2 
2295 1 
2356 1 
2357 2 
2358 1 
2479 1 
2480 2 
2481 1 
2539 1 
2540 2 
2541 1 
2602 1 
2603 2 
2604 1 
3313 1 
3314 2 
3315 1 
3553 1 
3554 2 
3555 1 
3616 1 
3617 2 
3618 1 
3739 1 
3740 2 
3741 1 
4576 1 
4577 2 
4578 1 
4762 1 
4763 2 
4764 1 
5719 1 
5720 3 
5721 1 
6022 1 
6023 2 
6024 1 
7222 1 
7223 2 
7224 1 
7762 1 
7763 2 
7764 1 
7879 1 
7880 2 
7881 1 
8236 1 
8237 2 
8238 1 
8293 1 
8294 2 
8295 1 
9076 1 
9077 2 
9078 1 
10342 1 
10343 2 
10344 1 
331 1 
332 2 
333 1 
1165 1 
1166 2 
1167 1 
1471 1 
1472 3 
1473 1 
1588 1 
1589 2 
1590 1 
2248 1 
2249 2 
2250 1 
2368 1 
2369 2 
2370 1 
2425 1 
2426 2 
2427 1 
2488 1 
2489 2 
2490 1 
3205 1 
3206 2 
3207 1 
3265 1 
3266 2 
3267 1 
3751 1 
3752 3 
3753 1 
4654 1 
4655 2 
4656 1 
4705 1 
4706 2 
4707 1 
5494 1 
5495 2 
5496 1 
6751 1 
6752 2 
6753 1 
7228 1 
7229 2 
7230 1 
7234 1 
7235 2 
7236 1 
8185 1 
8186 2 
8187 1 
8245 1 
8246 2 
8247 1 
8905 1 
8906 2 
8907 1 
9271 1 
9272 2 
9273 1 
9334 1 
9335 2 
9336 1 
9988 1 
9989 2 
9990 1 
9994 1 
9995 2 
9996 1 
10345 1 
10346 2 
10347 1 
10414 1 
10415 2 
10416 1 
46 1 
47 2 
48 1 
337 1 
338 2 
339 1 
457 1 
458 2 
459 1 
1183 1 
1184 2 
1185 1 
1243 1 
1244 2 
1245 1 
1420 1 
1421 3 
1422 1 
2263 1 
2264 3 
2265 1 
2383 1 
2384 2 
2385 1 
2626 1 
2627 2 
2628 1 
3463 1 
3464 2 
3465 1 
3466 1 
3467 2 
3468 1 
4540 1 
4541 2 
4542 1 
4600 1 
4601 3 
4602 1 
4726 1 
4727 2 
4728 1 
4777 1 
4778 2 
4779 1 
4786 1 
4787 2 
4788 1 
5563 1 
5564 2 
5565 1 
5617 1 
5618 2 
5619 1 
7120 1 
7121 2 
7122 1 
7897 1 
7898 3 
7899 1 
8200 1 
8201 2 
8202 1 
9157 1 
9158 2 
9159 1 
10243 1 
10244 2 
10245 1 
10417 1 
10418 2 
10419 1 
178 1 
179 2 
180 1 
1312 1 
1313 2 
1314 1 
1432 1 
1433 2 
1434 1 
1618 1 
1619 2 
1620 1 
2395 1 
2396 2 
2397 1 
2572 1 
2573 2 
2574 1 
3229 1 
3230 2 
3231 1 
3289 1 
3290 2 
3291 1 
3769 1 
3770 2 
3771 1 
4375 1 
4376 2 
4377 1 
4378 1 
4379 2 
4380 1 
4675 1 
4676 2 
4677 1 
4729 1 
4730 2 
4731 1 
5689 1 
5690 2 
5691 1 
5755 1 
5756 3 
5757 1 
5812 1 
5813 2 
5814 1 
5938 1 
5939 2 
5940 1 
6058 1 
6059 2 
6060 1 
9115 1 
9116 2 
9117 1 
541 1 
542 3 
543 1 
661 1 
662 2 
663 1 
721 1 
722 2 
723 1 
1021 1 
1022 2 
1023 1 
1867 1 
1868 2 
1869 1 
2041 1 
2042 2 
2043 1 
2824 1 
2825 2 
2826 1 
3064 1 
3065 2 
3066 1 
4261 1 
4262 2 
4263 1 
5050 1 
5051 2 
5052 1 
5221 1 
5222 2 
5223 1 
5230 1 
5231 2 
5232 1 
5404 1 
5405 2 
5406 1 
6127 1 
6128 2 
6129 1 
6184 1 
6185 2 
6186 1 
6601 1 
6602 2 
6603 1 
6604 1 
6605 2 
6606 1 
8461 1 
8462 2 
8463 1 
8761 1 
8762 2 
8763 1 
9607 1 
9608 2 
9609 1 
9661 1 
9662 2 
9663 1 
9670 1 
9671 2 
9672 1 
9730 1 
9731 2 
9732 1 
10570 1 
10571 2 
10572 1 
10864 1 
10865 2 
10866 1 
553 1 
554 2 
555 1 
556 1 
557 3 
558 1 
736 1 
737 2 
738 1 
742 1 
743 3 
744 1 
799 1 
800 2 
801 1 
913 1 
914 2 
915 1 
922 1 
923 2 
924 1 
1756 1 
1757 3 
1758 1 
2119 1 
2120 2 
2121 1 
2662 1 
2663 3 
2664 1 
2719 1 
2720 2 
2721 1 
3079 1 
3080 2 
3081 1 
5122 1 
5123 2 
5124 1 
5359 1 
5360 2 
5361 1 
6073 1 
6074 2 
6075 1 
6556 1 
6557 2 
6558 1 
7639 1 
7640 2 
7641 1 
7699 1 
7700 2 
7701 1 
8473 1 
8474 2 
8475 1 
8653 1 
8654 3 
8655 1 
9616 1 
9617 2 
9618 1 
9622 1 
9623 3 
9624 1 
9862 1 
9863 2 
9864 1 
10939 1 
10940 2 
10941 1 
685 1 
686 2 
687 1 
1051 1 
1052 2 
1053 1 
2674 1 
2675 2 
2676 1 
2791 1 
2792 2 
2793 1 
2914 1 
2915 2 
2916 1 
2968 1 
2969 2 
2970 1 
2971 1 
2972 2 
2973 1 
3085 1 
3086 2 
3087 1 
3991 1 
3992 2 
3993 1 
4951 1 
4952 3 
4953 1 
5305 1 
5306 2 
5307 1 
6154 1 
6155 2 
6156 1 
6214 1 
6215 2 
6216 1 
6508 1 
6509 3 
6510 1 
6574 1 
6575 2 
6576 1 
6631 1 
6632 2 
6633 1 
6634 1 
6635 2 
6636 1 
7291 1 
7292 2 
7293 1 
7411 1 
7412 2 
7413 1 
7585 1 
7586 2 
7587 1 
8491 1 
8492 2 
8493 1 
8494 1 
8495 2 
8496 1 
8554 1 
8555 2 
8556 1 
8674 1 
8675 2 
8676 1 
9685 1 
9686 2 
9687 1 
10588 1 
10589 2 
10590 1 
10834 1 
10835 2 
10836 1 
583 1 
584 2 
585 1 
703 1 
704 2 
705 1 
1717 1 
1718 2 
1719 1 
1720 1 
1721 2 
1722 1 
2203 1 
2204 2 
2205 1 
4957 1 
4958 2 
4959 1 
5086 1 
5087 3 
5088 1 
5257 1 
5258 2 
5259 1 
5320 1 
5321 2 
5322 1 
5383 1 
5384 2 
5385 1 
6223 1 
6224 2 
6225 1 
6280 1 
6281 2 
6282 1 
6406 1 
6407 2 
6408 1 
6586 1 
6587 2 
6588 1 
7417 1 
7418 2 
7419 1 
7606 1 
7607 2 
7608 1 
8803 1 
8804 2 
8805 1 
9646 1 
9647 2 
9648 1 
9760 1 
9761 2 
9762 1 
1012 1 
1013 2 
1014 1 
3892 1 
3893 2 
3894 1 
3895 1 
3896 3 
3897 1 
4015 1 
4016 2 
4017 1 
4249 1 
4250 2 
4251 1 
4255 1 
4256 2 
4257 1 
4312 1 
4313 2 
4314 1 
4318 1 
4319 2 
4320 1 
4969 1 
4970 2 
4971 1 
6238 1 
6239 3 
6240 1 
7372 1 
7373 2 
7374 1 
7678 1 
7679 2 
7680 1 
7738 1 
7739 2 
7740 1 
8809 1 
8810 2 
8811 1 
9838 1 
9839 2 
9840 1 
9889 1 
9890 2 
9891 1 
9895 1 
9896 2 
9897 1 
9955 1 
9956 2 
9957 1 
10609 1 
10610 2 
10611 1 
10735 1 
10736 2 
10737 1 
10789 1 
10790 2 
10791 1 
10798 1 
10799 2 
10800 1 
11038 1 
11039 2 
11040 1 
11230 1 
11231 2 
11232 1 
12070 1 
12071 2 
12072 1 
12361 1 
12362 2 
12363 1 
13384 1 
13385 2 
13386 1 
13564 1 
13565 2 
13566 1 
13567 1 
13568 2 
13569 1 
14461 1 
14462 2 
14463 1 
15541 1 
15542 2 
15543 1 
15544 1 
15545 2 
15546 1 
15550 1 
15551 2 
15552 1 
16327 1 
16328 2 
16329 1 
17467 1 
17468 2 
17469 1 
17524 1 
17525 2 
17526 1 
18424 1 
18425 3 
18426 1 
18430 1 
18431 3 
18432 1 
18541 1 
18542 2 
18543 1 
18547 1 
18548 2 
18549 1 
18727 1 
18728 2 
18729 1 
18787 1 
18788 2 
18789 1 
20830 1 
20831 2 
20832 1 
20941 1 
20942 2 
20943 1 
21010 1 
21011 2 
21012 1 
11173 1 
11174 2 
11175 1 
11233 1 
11234 2 
11235 1 
11296 1 
11297 2 
11298 1 
11353 1 
11354 2 
11355 1 
11413 1 
11414 3 
11415 1 
11422 1 
11423 2 
11424 1 
12136 1 
12137 2 
12138 1 
12139 1 
12140 2 
12141 1 
12502 1 
12503 2 
12504 1 
12553 1 
12554 2 
12555 1 
13396 1 
13397 2 
13398 1 
13579 1 
13580 2 
13581 1 
14296 1 
14297 2 
14298 1 
14299 1 
14300 2 
14301 1 
14359 1 
14360 2 
14361 1 
14599 1 
14600 2 
14601 1 
15376 1 
15377 2 
15378 1 
15496 1 
15497 2 
15498 1 
15553 1 
15554 2 
15555 1 
15742 1 
15743 2 
15744 1 
16582 1 
16583 2 
16584 1 
17482 1 
17483 2 
17484 1 
17536 1 
17537 2 
17538 1 
17539 1 
17540 2 
17541 1 
17659 1 
17660 2 
17661 1 
18673 1 
18674 3 
18675 1 
13348 1 
13349 2 
13350 1 
14314 1 
14315 2 
14316 1 
14365 1 
14366 2 
14367 1 
15445 1 
15446 2 
15447 1 
16594 1 
16595 2 
16596 1 
17548 1 
17549 3 
17550 1 
17794 1 
17795 2 
17796 1 
18394 1 
18395 3 
18396 1 
18811 1 
18812 2 
18813 1 
18814 1 
18815 2 
18816 1 
20851 1 
20852 2 
20853 1 
11437 1 
11438 3 
11439 1 
11497 1 
11498 2 
11499 1 
12340 1 
12341 2 
12342 1 
13237 1 
13238 2 
13239 1 
13426 1 
13427 2 
13428 1 
14257 1 
14258 2 
14259 1 
14317 1 
14318 2 
14319 1 
14557 1 
14558 2 
14559 1 
15457 1 
15458 2 
15459 1 
16483 1 
16484 2 
16485 1 
16603 1 
16604 2 
16605 1 
16606 1 
16607 2 
16608 1 
17377 1 
17378 2 
17379 1 
17563 1 
17564 2 
17565 1 
17626 1 
17627 2 
17628 1 
17803 1 
17804 2 
17805 1 
18526 1 
18527 2 
18528 1 
18637 1 
18638 2 
18639 1 
18817 1 
18818 2 
18819 1 
19720 1 
19721 2 
19722 1 
19846 1 
19847 2 
19848 1 
20623 1 
20624 2 
20625 1 
20863 1 
20864 2 
20865 1 
20920 1 
20921 2 
20922 1 
21046 1 
21047 2 
21048 1 
11218 1 
11219 2 
11220 1 
11389 1 
11390 2 
11391 1 
12232 1 
12233 2 
12234 1 
12295 1 
12296 2 
12297 1 
12535 1 
12536 3 
12537 1 
12598 1 
12599 2 
12600 1 
13192 1 
13193 2 
13194 1 
13318 1 
13319 2 
13320 1 
13429 1 
13430 2 
13431 1 
14689 1 
14690 3 
14691 1 
15415 1 
15416 2 
15417 1 
15598 1 
15599 3 
15600 1 
15655 1 
15656 2 
15657 1 
15778 1 
15779 3 
15780 1 
16369 1 
16370 2 
16371 1 
16438 1 
16439 2 
16440 1 
16609 1 
16610 2 
16611 1 
16615 1 
16616 3 
16617 1 
17392 1 
17393 2 
17394 1 
17815 1 
17816 2 
17817 1 
18529 1 
18530 2 
18531 1 
18592 1 
18593 2 
18594 1 
18595 1 
18596 3 
18597 1 
18715 1 
18716 2 
18717 1 
18772 1 
18773 2 
18774 1 
18892 1 
18893 2 
18894 1 
19495 1 
19496 2 
19497 1 
19609 1 
19610 2 
19611 1 
19675 1 
19676 2 
19677 1 
19855 1 
19856 3 
19857 1 
19909 1 
19910 2 
19911 1 
20575 1 
20576 2 
20577 1 
20578 1 
20579 2 
20580 1 
20635 1 
20636 2 
20637 1 
21055 1 
21056 2 
21057 1 
21058 1 
21059 2 
21060 1 
11530 1 
11531 2 
11532 1 
11584 1 
11585 2 
11586 1 
11710 1 
11711 2 
11712 1 
11761 1 
11762 2 
11763 1 
11890 1 
11891 3 
11892 1 
11941 1 
11942 2 
11943 1 
12664 1 
12665 2 
12666 1 
12784 1 
12785 2 
12786 1 
12964 1 
12965 3 
12966 1 
13024 1 
13025 2 
13026 1 
13087 1 
13088 2 
13089 1 
15001 1 
15002 2 
15003 1 
15004 1 
15005 2 
15006 1 
15247 1 
15248 2 
15249 1 
15784 1 
15785 2 
15786 1 
16201 1 
16202 2 
16203 1 
16747 1 
16748 2 
16749 1 
16801 1 
16802 2 
16803 1 
17167 1 
17168 3 
17169 1 
17230 1 
17231 2 
17232 1 
17821 1 
17822 2 
17823 1 
17884 1 
17885 2 
17886 1 
17890 1 
17891 2 
17892 1 
18310 1 
18311 2 
18312 1 
11593 1 
11594 2 
11595 1 
11662 1 
11663 2 
11664 1 
12679 1 
12680 2 
12681 1 
12736 1 
12737 2 
12738 1 
12916 1 
12917 2 
12918 1 
13039 1 
13040 3 
13041 1 
13639 1 
13640 2 
13641 1 
13873 1 
13874 2 
13875 1 
13876 1 
13877 2 
13878 1 
15136 1 
15137 2 
15138 1 
15199 1 
15200 2 
15201 1 
16879 1 
16880 2 
16881 1 
19273 1 
19274 2 
19275 1 
19339 1 
19340 3 
19341 1 
20062 1 
20063 2 
20064 1 
20176 1 
20177 2 
20178 1 
20476 1 
20477 2 
20478 1 
11728 1 
11729 2 
11730 1 
11794 1 
11795 2 
11796 1 
11968 1 
11969 2 
11970 1 
12685 1 
12686 2 
12687 1 
12745 1 
12746 2 
12747 1 
12868 1 
12869 2 
12870 1 
12928 1 
12929 3 
12930 1 
14008 1 
14009 2 
14010 1 
14125 1 
14126 2 
14127 1 
15088 1 
15089 2 
15090 1 
15214 1 
15215 2 
15216 1 
15814 1 
15815 3 
15816 1 
15985 1 
15986 2 
15987 1 
16105 1 
16106 2 
16107 1 
17068 1 
17069 2 
17070 1 
17134 1 
17135 3 
17136 1 
17248 1 
17249 2 
17250 1 
18025 1 
18026 2 
18027 1 
18085 1 
18086 2 
18087 1 
19045 1 
19046 2 
19047 1 
19348 1 
19349 2 
19350 1 
19948 1 
19949 2 
19950 1 
20131 1 
20132 2 
20133 1 
20191 1 
20192 2 
20193 1 
20251 1 
20252 2 
20253 1 
21145 1 
21146 2 
21147 1 
21154 1 
21155 2 
21156 1 
21568 1 
21569 3 
21570 1 
11683 1 
11684 2 
11685 1 
12703 1 
12704 2 
12705 1 
13123 1 
13124 2 
13125 1 
13780 1 
13781 2 
13782 1 
13960 1 
13961 2 
13962 1 
14017 1 
14018 2 
14019 1 
14083 1 
14084 2 
14085 1 
14206 1 
14207 3 
14208 1 
14800 1 
14801 3 
14802 1 
16006 1 
16007 2 
16008 1 
16060 1 
16061 2 
16062 1 
16846 1 
16847 2 
16848 1 
16903 1 
16904 2 
16905 1 
17086 1 
17087 2 
17088 1 
17866 1 
17867 2 
17868 1 
17920 1 
17921 2 
17922 1 
18106 1 
18107 2 
18108 1 
18946 1 
18947 2 
18948 1 
19000 1 
19001 2 
19002 1 
19057 1 
19058 2 
19059 1 
19297 1 
19298 2 
19299 1 
19423 1 
19424 2 
19425 1 
20326 1 
20327 2 
20328 1 
20500 1 
20501 2 
20502 1 
21097 1 
21098 2 
21099 1 
21277 1 
21278 3 
21279 1 
21337 1 
21338 2 
21339 1 
11638 1 
11639 2 
11640 1 
11749 1 
11750 2 
11751 1 
11932 1 
11933 2 
11934 1 
13132 1 
13133 2 
13134 1 
13909 1 
13910 2 
13911 1 
13975 1 
13976 2 
13977 1 
13978 1 
13979 2 
13980 1 
14809 1 
14810 2 
14811 1 
14998 1 
14999 2 
15000 1 
16189 1 
16190 2 
16191 1 
16792 1 
16793 2 
16794 1 
17155 1 
17156 2 
17157 1 
18949 1 
18950 2 
18951 1 
19378 1 
19379 2 
19380 1 
19438 1 
19439 2 
19440 1 
20038 1 
20039 2 
20040 1 
20092 1 
20093 2 
20094 1 
20272 1 
20273 3 
20274 1 
21118 1 
21119 2 
21120 1 
21169 1 
21170 2 
21171 1 
21358 1 
21359 2 
21360 1 
21475 1 
21476 2 
21477 1 
