ITEM: TIMESTEP
25000000
ITEM: NUMBER OF ATOMS
2343
ITEM: BOX BOUNDS pp pp pp
0.0000000000000000e+00 5.0000000000000000e+01
0.0000000000000000e+00 5.0000000000000000e+01
0.0000000000000000e+00 5.0000000000000000e+01
ITEM: ATOMS id type xs ys zs
20788 1 0.0347255 0.0308426 0.396723
18944 3 0.0877543 0.0198972 0.39408
18943 1 0.084601 0.0242505 0.388789
18945 1 0.0918551 0.0162153 0.399883
19448 3 0.083016 0.000817351 0.399735
13958 3 0.103932 0.00362904 0.396413
19281 1 0.117035 0.00795401 0.372878
19280 3 0.120078 0.00856231 0.38093
19279 1 0.120711 0.00987489 0.389574
17904 1 0.121251 0.0099405 0.392778
6859 1 0.118422 0.0297111 0.394421
17903 3 0.123004 0.0103957 0.40041
13959 1 0.101724 0.000759808 0.389426
20789 2 0.0374394 0.0354587 0.402181
6861 1 0.124382 0.0449037 0.393197
6860 3 0.12185 0.0371074 0.393767
12692 3 0.0800649 0.00927941 0.415471
12691 1 0.0818851 0.00555574 0.409317
19449 1 0.0823153 0.00388777 0.406778
12693 1 0.0787395 0.0126075 0.422554
5518 1 0.0782425 0.0143098 0.424421
5519 3 0.0766651 0.0192219 0.430075
13957 1 0.102945 0.0067024 0.403369
2359 1 0.103337 0.0160364 0.423265
18736 1 0.103536 0.014605 0.420543
2360 3 0.101945 0.0178944 0.430293
17902 1 0.124686 0.0112426 0.408309
18737 3 0.102895 0.0114942 0.413077
18738 1 0.102784 0.00812441 0.4061
8527 1 0.125712 0.0143842 0.427881
1875 1 0.124892 0.0149856 0.430768
8528 3 0.126299 0.0126332 0.420045
8529 1 0.125421 0.0117384 0.411862
20790 1 0.0420512 0.0385324 0.409143
16383 1 0.0441141 0.0395046 0.411151
16382 2 0.0504161 0.0416297 0.415305
16381 1 0.0564038 0.0433646 0.420552
14548 1 0.0584507 0.0440593 0.422534
17164 1 0.0888657 0.0435552 0.409352
14549 3 0.0648799 0.0463654 0.427416
14550 1 0.06938 0.0480136 0.432793
17165 3 0.0816527 0.0404454 0.410538
17166 1 0.0732835 0.0378989 0.410886
16032 1 0.0918168 0.0376784 0.424622
16031 3 0.0936641 0.0400788 0.432752
19396 1 0.113757 0.0329986 0.404447
19397 3 0.115022 0.0328018 0.412747
19398 1 0.115351 0.0330985 0.419148
7672 1 0.114988 0.0333401 0.422182
7673 3 0.114966 0.034464 0.429673
20384 3 0.137137 0.0317945 0.42126
20383 1 0.130312 0.0340913 0.417648
20385 1 0.142849 0.0317218 0.426136
6333 1 0.0301313 0.00433275 0.458779
10729 1 0.0318005 0.00461055 0.456352
10731 1 0.0363548 0.00185049 0.440598
10730 3 0.0347747 0.00446768 0.448623
11425 1 0.0882184 0.00127981 0.438975
6046 1 0.0640174 0.00315392 0.463732
12594 1 0.0878942 0.00187674 0.44123
12592 1 0.0845699 0.00798047 0.455251
11470 1 0.0837593 0.00887135 0.45814
5520 1 0.0754412 0.0236974 0.438433
5110 1 0.0747438 0.0252934 0.440916
5111 3 0.071684 0.0283847 0.447757
12593 3 0.0868983 0.00521722 0.448115
11074 1 0.105313 0.00151777 0.453063
7684 1 0.117943 0.0199056 0.462968
875 3 0.10316 0.00364316 0.46293
2361 1 0.100796 0.0204064 0.437823
18184 1 0.100071 0.0216869 0.44061
1874 3 0.122211 0.0158616 0.437822
876 1 0.10498 0.00217539 0.456112
1873 1 0.120918 0.0171381 0.44631
7686 1 0.120709 0.0173387 0.449519
7685 3 0.120163 0.0177125 0.455989
18185 3 0.0994199 0.0232134 0.448848
9192 1 0.0975093 0.0270149 0.459273
18186 1 0.0979393 0.0258222 0.456413
18385 1 0.0306296 0.0366413 0.457299
18386 3 0.0315607 0.0313939 0.463659
8365 1 0.0519589 0.0596643 0.449429
8367 1 0.0444966 0.0517602 0.437735
8366 2 0.0486671 0.0556593 0.443577
5112 1 0.0693169 0.03126 0.454241
18923 3 0.0752561 0.0478302 0.440503
18924 1 0.0712737 0.0481214 0.434828
18922 1 0.0805799 0.0490245 0.445716
20821 1 0.122567 0.0419179 0.457687
16030 1 0.0962755 0.0433201 0.440075
6084 1 0.0972927 0.0443328 0.442923
6083 3 0.0988505 0.0480108 0.449383
7674 1 0.1166 0.0345404 0.436709
12016 1 0.117192 0.0347862 0.439798
12017 3 0.118889 0.0366526 0.447734
6082 1 0.0993443 0.0516831 0.456761
12018 1 0.12164 0.0405686 0.454807
1285 1 0.25175 0.845864 0.246866
6564 1 0.253383 0.845733 0.24454
6562 1 0.265617 0.845283 0.233393
6563 3 0.259378 0.845018 0.239567
16659 1 0.169256 0.657358 0.265641
16657 1 0.168467 0.642802 0.272002
16658 3 0.170131 0.650767 0.269539
20362 1 0.136707 0.67562 0.274314
20364 1 0.143099 0.688783 0.269519
20363 3 0.140535 0.682727 0.273045
1099 1 0.168976 0.659879 0.264624
1100 3 0.168285 0.667954 0.262064
3525 1 0.17009 0.679985 0.26037
1101 1 0.169324 0.676984 0.26109
3524 3 0.17073 0.686925 0.257746
9523 1 0.174065 0.689044 0.276869
4077 1 0.17265 0.686771 0.277405
17427 1 0.169464 0.713045 0.259733
17426 3 0.170007 0.705316 0.25639
3523 1 0.17123 0.694889 0.256372
17425 1 0.171542 0.697689 0.25613
9524 3 0.178843 0.695548 0.274901
9525 1 0.18414 0.700948 0.272202
7047 1 0.285178 0.77989 0.277192
21562 1 0.218517 0.807251 0.273227
20382 1 0.216462 0.807232 0.275782
12187 1 0.252527 0.810547 0.273212
20439 1 0.250292 0.811901 0.274533
20438 2 0.243067 0.815625 0.277106
21563 2 0.224035 0.807117 0.267304
21564 1 0.22997 0.808195 0.262375
15798 1 0.284326 0.813822 0.272983
12188 2 0.25757 0.806016 0.269571
12189 1 0.262166 0.800689 0.265979
15797 2 0.277174 0.815418 0.277568
1286 2 0.248172 0.846154 0.253813
1287 1 0.242534 0.845834 0.259889
19255 1 0.240521 0.846733 0.262428
19256 2 0.234244 0.849158 0.267905
19816 1 0.280661 0.8228 0.252365
19818 1 0.271036 0.827136 0.263634
6679 1 0.269352 0.828346 0.265868
6680 2 0.264001 0.830657 0.270269
19817 3 0.276 0.82422 0.257764
6681 1 0.257828 0.833759 0.274774
678 1 0.255963 0.834422 0.275933
18152 2 0.28126 0.847033 0.277623
17992 1 0.247457 0.879274 0.274227
1902 1 0.245237 0.880102 0.276088
19257 1 0.228917 0.85164 0.272865
12834 1 0.226508 0.852441 0.275164
8302 1 0.226205 0.874003 0.27105
3838 1 0.224281 0.874194 0.273387
8303 2 0.231152 0.872732 0.265279
8304 1 0.236228 0.872559 0.258306
17993 2 0.252721 0.876715 0.269963
16782 1 0.283683 0.871672 0.265313
17994 1 0.259062 0.874859 0.265709
15938 2 0.276795 0.852447 0.256182
15939 1 0.27198 0.853812 0.262301
9568 1 0.269791 0.853929 0.26447
9569 2 0.264433 0.855028 0.270403
16781 2 0.278137 0.873698 0.270239
16780 1 0.273479 0.873957 0.277169
9570 1 0.258639 0.855902 0.275619
17439 1 0.256286 0.856907 0.2773
11323 1 0.285497 0.8516 0.249639
15937 1 0.283308 0.851952 0.251353
9493 1 0.156985 0.655873 0.287797
9495 1 0.164576 0.66912 0.282933
4075 1 0.165856 0.672141 0.282311
9494 3 0.161207 0.66204 0.285521
4076 3 0.169219 0.679689 0.279869
7046 3 0.281158 0.777797 0.284667
7045 1 0.27653 0.775652 0.291341
16804 1 0.187453 0.805822 0.29611
20381 2 0.210575 0.806608 0.280256
20380 1 0.204154 0.805924 0.285264
16806 1 0.201607 0.805401 0.287287
6051 1 0.219119 0.810092 0.302676
6050 2 0.211567 0.811262 0.304262
7852 1 0.201994 0.813732 0.309502
6049 1 0.204713 0.813026 0.308329
16805 2 0.194128 0.804726 0.291181
136 1 0.222053 0.808982 0.301912
137 2 0.229334 0.807116 0.299536
138 1 0.234526 0.802785 0.29797
15983 2 0.243599 0.798022 0.294225
15982 1 0.236914 0.801669 0.297149
15984 1 0.249017 0.793027 0.293639
15796 1 0.270026 0.816145 0.2809
5877 1 0.267347 0.816723 0.282226
14829 1 0.277035 0.810761 0.306439
11350 1 0.273874 0.810459 0.307182
11351 2 0.265902 0.810984 0.30962
14828 2 0.285256 0.812033 0.305159
5871 1 0.186366 0.827221 0.282307
21594 1 0.18896 0.846136 0.280118
5869 1 0.188053 0.842748 0.279535
5870 2 0.185988 0.834645 0.279486
13713 1 0.189545 0.84659 0.307637
2185 1 0.192095 0.845689 0.305542
2186 2 0.198447 0.843517 0.300015
16312 1 0.217719 0.83426 0.286317
16313 2 0.211902 0.836736 0.289467
16314 1 0.206252 0.839747 0.294333
2187 1 0.204671 0.841055 0.295459
13914 1 0.220941 0.83208 0.285051
21039 1 0.222719 0.829954 0.309287
20437 1 0.235989 0.82044 0.279715
13912 1 0.233549 0.821984 0.280549
1958 2 0.224002 0.849082 0.30465
16753 1 0.252334 0.820399 0.291835
13913 2 0.227251 0.826996 0.283003
16754 2 0.245115 0.822982 0.296203
16755 1 0.238201 0.825708 0.300046
676 1 0.244035 0.840145 0.284573
3802 1 0.242113 0.841404 0.286819
21038 2 0.229059 0.828515 0.304861
1959 1 0.229943 0.847811 0.299283
21037 1 0.235665 0.826437 0.300872
3803 2 0.237027 0.844067 0.291851
3804 1 0.23237 0.84693 0.297645
677 2 0.25002 0.837793 0.279492
8383 1 0.28264 0.827521 0.292642
9424 1 0.284991 0.827117 0.290833
5876 2 0.261498 0.819326 0.286001
5875 1 0.254623 0.819789 0.290202
4610 2 0.261721 0.832177 0.307195
4609 1 0.267826 0.830952 0.30304
8385 1 0.270324 0.830191 0.301518
8384 2 0.277355 0.828322 0.297492
7000 1 0.262061 0.850384 0.297136
18153 1 0.275589 0.846975 0.283829
7002 1 0.273473 0.846796 0.28607
7001 2 0.268536 0.848331 0.291979
18921 1 0.280866 0.845552 0.30853
21593 2 0.188746 0.853325 0.281519
14322 1 0.188395 0.864501 0.283706
21592 1 0.188328 0.861625 0.282407
14321 2 0.188428 0.872348 0.28699
14013 1 0.21191 0.880974 0.287873
12832 1 0.217943 0.856719 0.285781
19713 1 0.216083 0.857381 0.287873
19712 2 0.211056 0.86008 0.294544
19711 1 0.204996 0.863185 0.299492
6778 1 0.202836 0.863932 0.301576
3839 2 0.218238 0.876627 0.279038
3840 1 0.213579 0.880285 0.284829
12833 2 0.221647 0.854335 0.28094
6779 2 0.196011 0.866262 0.306251
14320 1 0.191282 0.879387 0.290337
14012 2 0.207783 0.88228 0.294254
13744 1 0.22819 0.8679 0.304019
17438 2 0.249758 0.859236 0.283442
17437 1 0.24401 0.861378 0.2886
11652 1 0.230611 0.866417 0.301889
11650 1 0.241807 0.862144 0.290684
11651 2 0.235287 0.863731 0.295983
20104 1 0.250602 0.877723 0.307879
13745 2 0.223182 0.87057 0.308863
7193 2 0.253358 0.852015 0.303879
1901 2 0.239665 0.881093 0.28112
13879 1 0.282753 0.869191 0.299287
20105 2 0.256275 0.878504 0.300912
7555 1 0.271362 0.873761 0.279721
7556 2 0.266962 0.875562 0.285847
7192 1 0.259293 0.850769 0.299101
11094 1 0.2799 0.869039 0.301582
7557 1 0.262229 0.87712 0.291924
20106 1 0.260475 0.877579 0.294002
11093 2 0.273818 0.868996 0.307941
418 1 0.190206 0.773226 0.311401
419 2 0.194717 0.77502 0.318661
420 1 0.200849 0.776239 0.324333
20962 1 0.202683 0.776312 0.32621
20963 2 0.20847 0.777281 0.33074
20964 1 0.214449 0.77641 0.3354
5897 2 0.185308 0.80076 0.336498
5898 1 0.178156 0.804059 0.336906
5808 1 0.175482 0.805237 0.337325
5807 2 0.168568 0.808226 0.339711
5896 1 0.192151 0.799869 0.333256
7853 3 0.194922 0.815547 0.314117
17442 1 0.195189 0.799417 0.331253
17441 2 0.202816 0.799262 0.328461
19901 2 0.219986 0.797395 0.322533
17440 1 0.209267 0.798985 0.326394
19902 1 0.211918 0.798628 0.325378
21400 1 0.220158 0.818082 0.327309
21402 1 0.205383 0.817851 0.333539
9577 1 0.203053 0.818148 0.335113
19900 1 0.226659 0.796861 0.320193
9919 1 0.229386 0.796532 0.319294
11035 1 0.247438 0.794242 0.312543
9921 1 0.244234 0.794925 0.313936
9920 2 0.236948 0.795975 0.317013
16079 2 0.248053 0.814032 0.316233
8606 2 0.242058 0.804611 0.336176
16080 1 0.240379 0.815027 0.319417
2935 1 0.237101 0.815596 0.32129
8605 1 0.249775 0.804413 0.335445
15250 1 0.252458 0.80431 0.334637
8607 1 0.234318 0.803833 0.340104
2937 1 0.222788 0.817885 0.326117
2936 2 0.230001 0.817335 0.323802
11037 1 0.262042 0.789705 0.310412
11036 3 0.254486 0.792079 0.311145
16078 1 0.256599 0.811607 0.313508
11352 1 0.259195 0.811381 0.312302
17999 2 0.277278 0.803681 0.325408
15251 2 0.259351 0.804034 0.332419
17998 1 0.269593 0.80282 0.328278
15252 1 0.266958 0.802546 0.329008
18000 1 0.284958 0.801905 0.323224
2717 2 0.125561 0.842626 0.31817
2718 1 0.124937 0.848416 0.312505
21391 1 0.127971 0.836328 0.326718
2716 1 0.127194 0.837691 0.324292
21392 2 0.129942 0.832649 0.333381
3548 2 0.149131 0.842286 0.332207
3547 1 0.154699 0.837473 0.330811
448 1 0.157145 0.83639 0.330076
18561 1 0.14026 0.848278 0.335354
3549 1 0.142681 0.846501 0.334335
2140 1 0.186631 0.820725 0.318609
7854 1 0.188969 0.819568 0.31718
13712 2 0.184313 0.850031 0.312947
2141 2 0.180793 0.824368 0.320093
2142 1 0.173513 0.828483 0.323231
450 1 0.170398 0.830061 0.324452
449 2 0.163636 0.832937 0.328759
15053 2 0.182773 0.839647 0.335322
15052 1 0.177547 0.843373 0.339151
15054 1 0.188255 0.838364 0.329701
20310 1 0.190473 0.83766 0.327739
21401 2 0.211897 0.818412 0.329913
11214 1 0.22032 0.830717 0.310372
11213 2 0.21304 0.831171 0.313466
11212 1 0.206116 0.833795 0.316542
20309 2 0.197442 0.836845 0.321864
20308 1 0.203779 0.834433 0.317925
10581 1 0.221525 0.839266 0.331961
10580 2 0.215627 0.840705 0.335624
10579 1 0.209068 0.841594 0.340245
9578 2 0.196197 0.819626 0.338872
10663 1 0.223886 0.838581 0.330514
11089 1 0.252519 0.83548 0.312715
11090 2 0.245647 0.836536 0.316339
10664 2 0.230482 0.837292 0.324835
11091 1 0.239421 0.836906 0.319801
10665 1 0.236956 0.836935 0.320933
12632 2 0.248291 0.827935 0.336409
8925 1 0.250741 0.847936 0.334692
3117 1 0.253266 0.848189 0.332451
8924 2 0.244775 0.847806 0.339715
12631 1 0.241311 0.82714 0.34021
2691 1 0.285466 0.843913 0.335633
4611 1 0.254822 0.835031 0.311233
12633 1 0.255533 0.829026 0.332016
10308 1 0.258029 0.828503 0.33088
5964 1 0.278667 0.846365 0.311072
3116 2 0.260024 0.849407 0.327569
10307 2 0.265813 0.826381 0.326579
14375 2 0.284547 0.827192 0.31934
14376 1 0.275853 0.82482 0.321635
10306 1 0.272864 0.824996 0.322748
5963 2 0.273391 0.849188 0.316419
2690 2 0.277841 0.844189 0.338632
18560 2 0.134781 0.852464 0.339539
21149 2 0.158382 0.863852 0.337385
11723 2 0.146636 0.880889 0.328708
16990 1 0.166468 0.880184 0.336492
13711 1 0.177651 0.853195 0.317166
14838 1 0.17475 0.855223 0.318859
8764 1 0.189292 0.870205 0.313007
21148 1 0.162774 0.862869 0.330892
14836 1 0.164241 0.862311 0.328575
14837 2 0.169337 0.859196 0.323092
16992 1 0.176553 0.875719 0.325642
8766 1 0.178677 0.874461 0.323618
8765 2 0.183987 0.872208 0.317995
322 1 0.187355 0.861304 0.336774
17071 1 0.189472 0.860509 0.334924
16991 2 0.17176 0.878089 0.330807
4837 1 0.164828 0.881223 0.339324
6780 1 0.191364 0.869178 0.311016
1957 1 0.217998 0.850516 0.309807
19122 1 0.215459 0.851443 0.312473
19121 2 0.209549 0.85378 0.317466
19120 1 0.203429 0.854844 0.322774
17073 1 0.200826 0.85581 0.324792
13746 1 0.217253 0.872999 0.314844
17317 1 0.215201 0.873704 0.317355
17072 2 0.195894 0.857821 0.330317
17318 2 0.209921 0.875772 0.323427
17319 1 0.204752 0.876745 0.328931
190 1 0.202912 0.87769 0.331123
4915 1 0.221036 0.859613 0.334143
191 2 0.197333 0.879547 0.337078
502 1 0.219053 0.859836 0.336448
1742 2 0.23156 0.87988 0.330171
5772 1 0.223404 0.881052 0.33878
17043 1 0.248321 0.877684 0.309848
1741 1 0.225755 0.880769 0.336407
4916 2 0.226999 0.858971 0.329155
1743 1 0.235473 0.879729 0.324184
17042 2 0.242231 0.879552 0.315336
7194 1 0.248054 0.854726 0.309883
14182 1 0.24625 0.855347 0.312098
14183 2 0.241366 0.857048 0.317805
4917 1 0.232598 0.858509 0.324546
14184 1 0.234808 0.857957 0.322936
10139 2 0.249218 0.869906 0.335693
17041 1 0.237677 0.879837 0.321763
5551 1 0.277366 0.882077 0.33245
3115 1 0.266145 0.851105 0.322105
5962 1 0.268388 0.850824 0.320365
4604 2 0.28149 0.865342 0.330792
10140 1 0.255209 0.870162 0.329879
19626 1 0.257251 0.870507 0.327809
11092 1 0.268783 0.868717 0.314974
19625 2 0.262732 0.869782 0.322606
19624 1 0.267283 0.869105 0.317402
4605 1 0.275653 0.864618 0.336209
14173 1 0.273228 0.864319 0.337962
5552 2 0.271422 0.882304 0.338523
13149 1 0.211281 0.785793 0.357141
11281 1 0.102071 0.786635 0.364379
551 2 0.140044 0.801429 0.358951
550 1 0.138339 0.807734 0.362196
8681 2 0.153336 0.810521 0.370947
552 1 0.143391 0.795427 0.354239
7058 2 0.153117 0.817956 0.347355
5806 1 0.162169 0.812633 0.343118
7059 1 0.159804 0.813657 0.344467
10931 2 0.169465 0.80547 0.363051
10930 1 0.176728 0.804253 0.360988
10932 1 0.162362 0.806952 0.365466
8680 1 0.159359 0.808398 0.366504
17040 1 0.179766 0.803785 0.360179
17039 2 0.188358 0.80534 0.359173
13148 2 0.219179 0.787058 0.355906
17038 1 0.196824 0.805548 0.357365
18565 1 0.199763 0.805668 0.356508
18566 2 0.207504 0.806247 0.35381
18567 1 0.215308 0.805891 0.350049
12816 1 0.217527 0.809856 0.369278
609 1 0.215246 0.808983 0.370353
10659 1 0.218262 0.805721 0.348891
13147 1 0.226491 0.789512 0.354765
3696 1 0.229192 0.790613 0.354288
10657 1 0.23187 0.803844 0.34119
10658 2 0.225157 0.805056 0.344683
3695 2 0.236764 0.791626 0.352191
3694 1 0.243455 0.792389 0.350781
12815 2 0.223863 0.811785 0.365448
12814 1 0.231957 0.813705 0.362225
21571 1 0.234872 0.813673 0.360959
21572 2 0.242993 0.814454 0.357836
17937 1 0.24618 0.792419 0.350562
21573 1 0.250018 0.814363 0.354513
9954 1 0.252973 0.814085 0.353922
17728 1 0.253668 0.797722 0.370883
12411 1 0.281623 0.798275 0.349678
17936 3 0.254451 0.791672 0.349916
13718 2 0.276821 0.817968 0.345298
8167 1 0.279438 0.797578 0.34893
13717 1 0.269552 0.817346 0.348148
9952 1 0.267242 0.816377 0.350105
17935 1 0.262236 0.791553 0.348377
8169 1 0.26524 0.791397 0.347516
8168 2 0.272567 0.793407 0.347049
9953 2 0.260562 0.814012 0.352059
1645 1 0.271297 0.79767 0.367229
1647 1 0.256519 0.798181 0.370155
1646 2 0.263845 0.798727 0.367774
7985 2 0.123478 0.838357 0.35922
7986 1 0.116485 0.841946 0.359817
10546 1 0.114246 0.843162 0.359945
10547 2 0.107736 0.848128 0.361102
21393 1 0.130202 0.828935 0.341587
7984 1 0.129827 0.833156 0.357406
17932 1 0.131906 0.831743 0.356333
17933 2 0.138147 0.827621 0.35276
7057 1 0.146718 0.822291 0.348182
17934 1 0.144221 0.823915 0.349373
10643 2 0.150032 0.830567 0.369174
10642 1 0.156328 0.83004 0.364476
15379 1 0.158176 0.82993 0.363053
3551 2 0.153151 0.849363 0.355268
3552 1 0.1472 0.849321 0.360952
11952 1 0.145483 0.850116 0.362496
115 1 0.175214 0.844478 0.34113
3550 1 0.159618 0.84911 0.351219
117 1 0.162595 0.848964 0.349494
116 2 0.169258 0.847045 0.344725
15380 2 0.164 0.829103 0.358116
15381 1 0.170924 0.827787 0.353247
16071 1 0.173609 0.827165 0.351783
16070 2 0.180452 0.823656 0.348646
5330 2 0.184613 0.844845 0.35813
5329 1 0.178967 0.844996 0.363235
16069 1 0.187134 0.822027 0.345489
15787 1 0.189313 0.825026 0.370712
9579 1 0.189804 0.821513 0.343853
9943 1 0.17645 0.845115 0.365232
9944 2 0.171047 0.844456 0.370779
5331 1 0.192027 0.84396 0.35356
3934 1 0.194581 0.84366 0.35131
8044 1 0.191937 0.825563 0.36892
3936 1 0.207041 0.842069 0.342142
3935 2 0.200736 0.842579 0.346497
8046 1 0.204689 0.825809 0.358724
18678 1 0.207584 0.82577 0.357032
18677 2 0.213911 0.827314 0.352712
8045 2 0.197771 0.826427 0.362979
5175 1 0.219322 0.845977 0.359405
5174 2 0.213391 0.845852 0.363778
16836 1 0.204949 0.845474 0.369496
5173 1 0.207603 0.845688 0.367764
18676 1 0.220622 0.828315 0.348404
6021 1 0.223457 0.828749 0.347319
6019 1 0.238775 0.827221 0.341634
6020 2 0.231514 0.828289 0.344597
1253 2 0.247122 0.836564 0.359488
1252 1 0.240183 0.835492 0.364285
12562 1 0.238082 0.835175 0.365768
12563 2 0.231614 0.834294 0.369728
1677 1 0.222177 0.846306 0.357212
1254 1 0.252455 0.837718 0.354055
1676 2 0.227763 0.847873 0.351565
1675 1 0.235712 0.847656 0.347235
8923 1 0.238208 0.847535 0.344958
13719 1 0.284497 0.818399 0.341873
2689 1 0.270984 0.842005 0.342886
9718 1 0.254954 0.8379 0.352815
9719 2 0.261848 0.839308 0.348339
2261 2 0.273663 0.829004 0.366852
18790 1 0.282819 0.830046 0.361533
2260 1 0.280044 0.82961 0.363334
9720 1 0.268563 0.84101 0.344382
8326 1 0.273196 0.847799 0.36576
4594 1 0.270325 0.846557 0.367424
2262 1 0.26688 0.826947 0.369558
15342 1 0.264746 0.82607 0.37002
18214 1 0.0839226 0.855606 0.36581
18215 3 0.0913201 0.855917 0.363958
751 1 0.126269 0.878755 0.369814
3755 3 0.109743 0.868218 0.361614
3756 1 0.104047 0.870946 0.367382
12671 2 0.123349 0.862323 0.349454
3754 1 0.11627 0.866307 0.356875
12670 1 0.118555 0.8653 0.354681
10548 1 0.101156 0.85204 0.362382
18216 1 0.0986602 0.852992 0.362854
21150 1 0.153084 0.866126 0.34193
18559 1 0.129357 0.857305 0.342545
11073 1 0.151061 0.867262 0.343884
12672 1 0.127354 0.859151 0.344358
11660 2 0.133941 0.874737 0.36212
11951 2 0.140412 0.852019 0.368123
11659 1 0.13959 0.873031 0.357447
11071 1 0.141315 0.872664 0.355491
11072 2 0.145876 0.869958 0.350266
11661 1 0.127978 0.878128 0.367571
6365 2 0.185591 0.882163 0.351794
323 2 0.181379 0.863382 0.342189
9120 1 0.161747 0.865255 0.366273
5857 1 0.175067 0.86372 0.351045
324 1 0.176718 0.863265 0.348534
5858 2 0.169655 0.865045 0.357182
5859 1 0.163475 0.865262 0.363661
12002 2 0.18816 0.864786 0.368756
12003 1 0.193178 0.86453 0.36273
12534 1 0.195371 0.864632 0.360009
503 2 0.21328 0.861253 0.342185
12533 2 0.200482 0.86333 0.354301
12532 1 0.20609 0.862589 0.34958
504 1 0.207931 0.862363 0.34801
7245 1 0.216654 0.868203 0.370179
192 1 0.192556 0.880583 0.342947
6364 1 0.190623 0.880743 0.345324
10138 1 0.243383 0.867898 0.342415
7925 2 0.250098 0.879563 0.369368
7244 2 0.222443 0.868142 0.364715
7243 1 0.227793 0.867942 0.358705
3213 1 0.230424 0.867974 0.356546
3211 1 0.241594 0.8675 0.344735
3212 2 0.236193 0.867925 0.350862
13361 2 0.240417 0.855716 0.369062
13362 1 0.246323 0.855749 0.36337
16911 1 0.248337 0.855835 0.361529
16910 2 0.253701 0.856685 0.356097
7926 1 0.254326 0.879903 0.361481
17118 1 0.25561 0.880064 0.359036
8327 2 0.27912 0.85087 0.359956
14174 2 0.267188 0.862161 0.342715
17117 2 0.259373 0.882072 0.352846
14175 1 0.260727 0.860643 0.348057
16909 1 0.258715 0.859862 0.349776
18446 2 0.280323 0.873725 0.356349
18447 1 0.27461 0.871992 0.361876
17614 1 0.271758 0.87141 0.363721
17615 2 0.266776 0.868856 0.369323
11283 1 0.0990345 0.784036 0.379797
11282 2 0.100685 0.786077 0.372869
6476 2 0.188181 0.780927 0.379407
6475 1 0.187234 0.775944 0.372523
17133 1 0.118623 0.815327 0.399837
17132 2 0.124961 0.815243 0.393798
8682 1 0.14688 0.812562 0.374806
761 2 0.139769 0.815206 0.38125
17131 1 0.130592 0.815736 0.388267
760 1 0.132769 0.815796 0.386112
762 1 0.144809 0.813412 0.37657
5181 1 0.153272 0.787696 0.397368
5125 1 0.135622 0.796738 0.397002
6477 1 0.187103 0.787234 0.383057
5180 2 0.159065 0.792949 0.395016
5388 1 0.167309 0.798746 0.392907
5387 2 0.17495 0.801954 0.390361
5179 1 0.164869 0.797328 0.393429
5386 1 0.181912 0.802615 0.386965
3183 1 0.184282 0.803086 0.385452
3182 2 0.190225 0.803493 0.381871
608 2 0.207236 0.807423 0.374426
607 1 0.200424 0.806852 0.377936
3181 1 0.197624 0.806058 0.379735
20566 1 0.219938 0.790785 0.37906
10847 2 0.219717 0.811434 0.392713
10846 1 0.213587 0.815114 0.392856
21295 1 0.196427 0.803741 0.399325
20567 2 0.226759 0.793281 0.378758
17730 1 0.236885 0.795664 0.375345
20568 1 0.23443 0.795345 0.376422
10848 1 0.225425 0.806608 0.394322
17729 2 0.245206 0.796487 0.372476
5919 1 0.233429 0.816369 0.380859
4481 2 0.117139 0.83427 0.388732
4480 1 0.123888 0.834773 0.384341
11115 1 0.126815 0.83468 0.382897
4482 1 0.110328 0.8351 0.393418
11113 1 0.141284 0.834257 0.374771
10644 1 0.143661 0.833665 0.373196
11114 2 0.133701 0.834596 0.378672
3030 1 0.14352 0.830324 0.396044
3029 2 0.150223 0.828996 0.392586
3028 1 0.15758 0.827437 0.390054
2339 2 0.156459 0.848023 0.382698
2338 1 0.150365 0.849102 0.387622
5143 1 0.148365 0.849818 0.389743
11077 1 0.140784 0.831325 0.397408
11078 2 0.134845 0.833778 0.401311
16462 1 0.160243 0.826916 0.388454
2340 1 0.163248 0.846564 0.377652
9945 1 0.165449 0.846269 0.375738
17601 1 0.176255 0.823797 0.400218
15788 2 0.182706 0.824334 0.37527
16463 2 0.16669 0.825267 0.384259
16464 1 0.172989 0.824956 0.379864
15789 1 0.175585 0.824737 0.378519
17600 2 0.183605 0.82484 0.396927
17643 1 0.18951 0.845193 0.38061
17642 2 0.184149 0.84646 0.386541
182 2 0.171087 0.844494 0.399692
17641 1 0.17909 0.846455 0.392047
183 1 0.176637 0.846116 0.39417
7783 1 0.173745 0.823165 0.401502
16835 2 0.198495 0.846187 0.374408
17599 1 0.190484 0.825493 0.393973
16834 1 0.191808 0.84534 0.378662
15282 1 0.193139 0.825495 0.392726
15281 2 0.20094 0.827183 0.388187
8243 2 0.215734 0.829518 0.378676
15280 1 0.207338 0.828113 0.384802
8244 1 0.209477 0.828528 0.3832
11852 2 0.216732 0.831775 0.401008
1237 1 0.205395 0.849175 0.401062
5918 2 0.241382 0.818514 0.379659
5917 1 0.248787 0.821088 0.376904
15340 1 0.25125 0.8221 0.37624
8242 1 0.222662 0.831848 0.374565
11853 1 0.222616 0.834325 0.397918
15477 1 0.225303 0.83541 0.396619
12564 1 0.225067 0.832074 0.373177
15476 2 0.231771 0.837749 0.393624
15475 1 0.237861 0.839424 0.389215
7713 1 0.24043 0.840105 0.387587
7712 2 0.246889 0.841961 0.382717
7711 1 0.253253 0.844394 0.378817
15341 2 0.258944 0.823709 0.373929
4596 1 0.255847 0.844884 0.377016
4595 2 0.263226 0.846311 0.372189
753 1 0.116865 0.881435 0.381997
752 2 0.122235 0.879621 0.375633
828 1 0.123374 0.860094 0.387037
21229 1 0.113929 0.881945 0.383985
826 1 0.132976 0.855162 0.375868
9119 2 0.157074 0.866765 0.372585
11950 1 0.134998 0.854306 0.373484
827 2 0.128686 0.858156 0.381736
9118 1 0.151736 0.868106 0.378516
2192 3 0.129005 0.875378 0.398253
67 1 0.150127 0.86909 0.380633
68 2 0.144651 0.871789 0.38732
69 1 0.138247 0.873038 0.391362
2193 1 0.135954 0.873712 0.39282
5144 2 0.144067 0.850778 0.394989
12526 1 0.157527 0.871276 0.401967
12527 2 0.16367 0.870189 0.396179
12528 1 0.169149 0.867869 0.390297
12115 1 0.171765 0.867201 0.388223
12117 1 0.182519 0.865524 0.377217
12001 1 0.184308 0.865614 0.37522
12116 2 0.177442 0.865603 0.383093
7204 1 0.188752 0.86645 0.402293
7941 1 0.214509 0.868274 0.372291
1238 2 0.211023 0.850547 0.394356
8095 1 0.190816 0.86693 0.400031
8096 2 0.196292 0.867082 0.393111
8097 1 0.203135 0.867738 0.387594
7940 2 0.209523 0.867776 0.378229
7939 1 0.205322 0.86808 0.384917
1239 1 0.215593 0.851512 0.388868
14242 1 0.217741 0.851618 0.386814
14243 2 0.224247 0.852171 0.380977
5093 2 0.223367 0.871318 0.396448
13360 1 0.23375 0.854573 0.374497
7924 1 0.244491 0.878305 0.37452
14244 1 0.231287 0.85404 0.376362
4976 2 0.235427 0.876307 0.382751
4975 1 0.229639 0.87466 0.387937
5092 1 0.227548 0.87384 0.390013
15981 1 0.247897 0.86092 0.394229
5080 1 0.249762 0.861491 0.391853
15980 2 0.242037 0.860941 0.399234
4977 1 0.242147 0.877279 0.377063
16579 1 0.282983 0.86738 0.37219
18701 2 0.268049 0.860287 0.402234
18702 1 0.274843 0.863613 0.400119
5081 2 0.254994 0.863255 0.384545
6820 1 0.277766 0.864379 0.399247
6821 2 0.284855 0.866246 0.395644
5082 1 0.25962 0.86665 0.377633
17616 1 0.261543 0.86739 0.37559
6748 1 0.217573 0.780277 0.420917
6749 2 0.212534 0.778638 0.413875
6750 1 0.209111 0.778722 0.406536
14498 2 0.150002 0.809785 0.411167
14499 1 0.155797 0.805319 0.407986
14497 1 0.144226 0.813178 0.413483
5127 1 0.129372 0.787415 0.407833
5126 3 0.13257 0.792704 0.403328
3842 2 0.135468 0.816526 0.418571
3841 1 0.141565 0.814316 0.414722
3843 1 0.129819 0.818208 0.423415
21297 1 0.183379 0.806001 0.407367
21296 2 0.189997 0.804274 0.403748
9219 1 0.212754 0.80245 0.411551
9218 2 0.219691 0.806644 0.416334
9217 1 0.226273 0.806963 0.419928
1119 1 0.117803 0.837437 0.419044
1118 2 0.121558 0.836968 0.412894
1117 1 0.126762 0.835153 0.406888
8465 2 0.122996 0.821593 0.431271
11079 1 0.128282 0.834965 0.405467
8464 1 0.128094 0.819236 0.425672
15518 2 0.146974 0.834823 0.426704
18641 2 0.156779 0.839931 0.412611
18642 1 0.15231 0.838579 0.418369
15517 1 0.150744 0.838181 0.420404
15519 1 0.143273 0.829806 0.43233
7784 2 0.16524 0.821822 0.405803
7785 1 0.158688 0.823514 0.409611
18640 1 0.16201 0.842371 0.40754
4904 2 0.185822 0.820445 0.417956
18534 1 0.176697 0.840279 0.422666
18533 2 0.172088 0.836749 0.42745
4905 1 0.180445 0.820598 0.424409
181 1 0.164472 0.843008 0.405187
3321 1 0.162411 0.846806 0.429883
20505 1 0.178307 0.841469 0.420767
20504 2 0.184213 0.84333 0.416828
18532 1 0.166654 0.832538 0.431562
6663 1 0.203836 0.84904 0.403057
4903 1 0.191301 0.822325 0.413531
6621 1 0.193643 0.822984 0.411942
17052 1 0.217917 0.834686 0.42317
6620 2 0.200731 0.826195 0.408517
11851 1 0.210269 0.829521 0.404372
6619 1 0.207534 0.82863 0.405863
17051 2 0.216674 0.841363 0.418642
17050 1 0.213315 0.847166 0.4152
20503 1 0.190632 0.845937 0.413408
6661 1 0.193156 0.846681 0.411789
6662 2 0.198821 0.849374 0.407923
2310 1 0.213698 0.818491 0.429205
2309 2 0.215154 0.825469 0.427267
2308 1 0.217428 0.832115 0.424506
13732 1 0.228486 0.849106 0.420196
13240 1 0.247388 0.843691 0.411947
10401 1 0.266396 0.840456 0.407604
10400 2 0.271363 0.834065 0.405473
10399 1 0.276554 0.828393 0.403807
13241 2 0.25409 0.848372 0.40903
10425 1 0.123095 0.879458 0.406795
2296 1 0.120637 0.864966 0.429855
12523 1 0.118827 0.866332 0.431758
2191 1 0.124956 0.878594 0.404776
10424 3 0.117202 0.881082 0.411551
2297 2 0.124833 0.860062 0.424701
18952 1 0.144702 0.878378 0.415515
5310 1 0.142711 0.879877 0.417329
18954 1 0.155604 0.87181 0.404112
5145 1 0.139936 0.852274 0.402795
2298 1 0.129598 0.856245 0.419671
19083 1 0.131151 0.8552 0.417461
19082 2 0.135302 0.853356 0.410923
19081 1 0.13856 0.852867 0.404978
18953 2 0.149035 0.874544 0.409524
6252 1 0.162805 0.851801 0.418845
7205 2 0.183933 0.864402 0.407788
19656 1 0.189771 0.880872 0.417501
7206 1 0.177937 0.862139 0.411872
6250 1 0.175163 0.86096 0.41343
16771 1 0.188648 0.863219 0.431272
6251 2 0.168359 0.857927 0.416735
5094 1 0.219683 0.870456 0.403684
16628 2 0.196903 0.881772 0.408876
13504 1 0.191015 0.864165 0.429886
13303 1 0.218178 0.870428 0.406362
13304 2 0.213011 0.868776 0.413223
13305 1 0.20756 0.867128 0.419122
13506 1 0.205253 0.867177 0.421148
13505 2 0.197884 0.865807 0.425796
13308 1 0.217533 0.877268 0.433325
16629 1 0.191583 0.880876 0.415048
18869 2 0.250188 0.882128 0.402963
19393 1 0.240943 0.87089 0.431338
18870 1 0.243518 0.879834 0.407099
15979 1 0.236944 0.859147 0.40455
1381 1 0.222753 0.865492 0.428596
13733 2 0.231473 0.85312 0.412872
749 2 0.234477 0.879722 0.414059
748 1 0.240898 0.879738 0.409185
750 1 0.229155 0.879164 0.419563
13307 3 0.222406 0.878774 0.427906
13306 1 0.226967 0.878817 0.421629
13734 1 0.23533 0.857908 0.406753
13242 1 0.259864 0.853569 0.405847
18700 1 0.26234 0.855338 0.404792
8466 1 0.117366 0.823516 0.436727
1512 1 0.114615 0.823546 0.438833
1511 3 0.108252 0.824183 0.443526
1510 1 0.102289 0.826061 0.448656
17383 1 0.149247 0.840842 0.447081
17384 2 0.151072 0.843701 0.454856
17385 1 0.154163 0.843174 0.463104
11358 1 0.189018 0.824846 0.433949
11356 1 0.198809 0.838847 0.43744
11357 3 0.192755 0.832845 0.435081
9344 2 0.206035 0.846563 0.437197
9345 1 0.200644 0.841038 0.438159
7791 1 0.219319 0.847014 0.451797
7789 1 0.236127 0.848541 0.450372
7790 2 0.227819 0.848543 0.450403
12825 1 0.109307 0.865719 0.459253