ITEM: TIMESTEP
25000000
ITEM: NUMBER OF ATOMS
1953
ITEM: BOX BOUNDS pp pp pp
0.0000000000000000e+00 5.0000000000000000e+01
0.0000000000000000e+00 5.0000000000000000e+01
0.0000000000000000e+00 5.0000000000000000e+01
ITEM: ATOMS id type vx vy vz 
288 1 -1.46917 2.98068 2.55902 
287 3 -0.0606135 -2.93462 -3.03264 
8468 3 -0.0136281 2.21621 2.01741 
8469 1 -3.57008 1.72142 -7.39315 
2597 3 -1.32366 3.81409 -1.68937 
6303 1 1.146 -2.38163 -0.247648 
2598 1 -0.675134 1.99945 5.15013 
286 1 -2.05082 -0.152802 -1.4729 
6826 1 -8.94709 -1.2829 0.0917551 
6828 1 -5.00793 1.69948 -3.03231 
6827 3 1.95045 -1.31022 2.01624 
18966 1 0.89468 0.888731 2.9064 
18965 3 3.57774 -0.604296 -2.11533 
11152 1 0.81452 -0.156007 -3.82417 
13374 1 -2.51873 0.0802756 -3.57749 
2502 1 6.10062 -3.9413 -0.813788 
18964 1 1.94573 5.69991 0.482438 
14077 1 -0.776981 0.407187 3.84198 
14078 3 1.34709 -5.55599 -0.521153 
14079 1 -5.16808 4.1758 1.06769 
20435 3 -2.50336 -2.09883 -0.455617 
20436 1 -0.314947 7.11365 -1.35778 
13372 1 0.978838 1.40676 3.21944 
13373 3 -0.554686 -2.66578 1.14299 
2500 1 -4.88882 0.701534 4.67396 
2501 3 2.48336 -1.0741 3.76261 
18407 3 -3.52332 0.764735 1.8845 
18406 1 2.56223 0.0986872 -2.49988 
18408 1 -1.99876 0.437291 -2.80041 
3891 1 -4.99983 6.69048 -6.79827 
3890 3 5.26342 2.07182 -0.231295 
3889 1 0.286884 -4.7753 -1.55043 
18388 1 -2.56182 1.33974 0.909935 
6302 3 -1.59155 -1.33778 0.427593 
8541 1 1.88042 -2.08191 -4.77333 
19176 1 -2.75954 -0.310955 -0.810316 
6301 1 1.502 0.809087 -4.11926 
19175 3 -2.03967 -1.92556 -2.49016 
18389 2 1.09448 1.58577 4.17447 
18390 1 -0.920778 -3.79242 -6.07813 
445 1 -1.28848 -0.402599 3.45125 
446 3 -1.34754 2.59429 -0.286132 
11153 3 -2.23636 0.284643 3.11858 
447 1 -0.638811 -1.92096 2.85228 
11154 1 -1.06116 -4.12708 -1.64695 
19174 1 0.860706 -3.64511 -2.41085 
12839 3 3.22726 0.221414 2.57581 
12838 1 3.44209 -0.768463 2.8081 
12840 1 -1.71443 2.42751 0.0370763 
11893 1 -4.47084 4.07971 0.0509539 
15753 1 5.04839 -2.87105 -2.10211 
15752 3 -3.20252 2.12726 -1.42344 
4635 1 1.65893 -2.46732 -3.97403 
4634 3 -0.673492 0.483413 -0.109661 
4633 1 -0.451919 7.073 -0.315943 
13797 1 -3.22388 3.00812 4.30477 
13796 3 2.45884 0.137221 2.65408 
2561 2 -0.622811 -0.542142 2.99344 
2562 1 3.10792 3.28797 -0.13429 
2252 3 1.87769 -1.86616 -0.323266 
2253 1 -2.40493 -3.14467 -1.3407 
8208 1 -2.85311 1.00772 -1.89374 
5965 1 -1.16694 -0.173912 -4.31781 
5967 1 -1.7755 -3.6709 4.29864 
5966 3 -0.332805 -0.494199 2.97713 
2560 1 -3.68237 5.80075 8.0164 
8207 3 3.81763 2.00029 -4.02689 
5574 1 -1.8637 3.40699 2.1666 
7570 1 -0.25702 4.28319 -1.43606 
7571 3 0.623359 -2.44475 2.29503 
2251 1 2.95556 1.64197 -4.35551 
13830 1 -3.96513 12.079 4.64023 
20008 1 -0.916744 -0.82478 -2.04813 
7572 1 0.194961 3.36471 -0.320361 
13829 3 2.64117 0.901907 4.59686 
8540 2 1.47675 -0.254686 -6.54414 
8539 1 -2.08404 0.920954 -0.408858 
13828 1 2.2225 -1.20141 4.01402 
14509 1 -1.90175 7.0555 4.44294 
10677 1 1.74682 -0.285159 -0.641535 
14510 3 1.8283 1.20352 -2.1781 
8709 1 -3.43184 7.3563 3.19132 
17570 3 0.971916 1.60075 -1.1508 
11895 1 4.21541 -2.21664 -1.36419 
17569 1 2.73997 -6.15507 -0.557513 
11894 3 2.07621 1.45269 -0.642994 
8206 1 -2.75909 4.18504 -0.789774 
3441 1 -2.52602 -5.56334 -1.13052 
18800 3 0.394441 0.592965 3.00671 
3987 1 7.08952 4.3042 -2.11928 
18801 1 -5.22446 1.85299 -3.15204 
15777 1 -5.30747 3.06841 0.344628 
1669 1 -0.485884 -6.63336 -4.71498 
1670 2 0.646213 2.9648 -4.36179 
10676 3 6.14572 2.97961 -1.36984 
1671 1 -0.636992 -5.13499 -0.965999 
10675 1 -0.601763 -0.647771 3.49772 
4027 1 -3.26755 5.98283 0.994349 
10299 1 -9.4016 -2.276 -11.5156 
4028 2 1.46523 -3.13967 -5.33713 
3440 3 0.908889 -1.98882 -3.55969 
3439 1 7.91494 -2.97932 -0.244436 
10297 1 5.07908 0.405501 1.33171 
10298 3 0.0322071 6.08887 -0.787937 
1090 1 1.59378 -3.39731 4.18861 
1091 3 -2.74034 1.69514 2.75299 
3986 3 1.853 -0.297501 2.00205 
3985 1 -0.917266 8.04162 5.6481 
1092 1 -1.00728 -1.24159 4.51185 
15776 3 0.121927 -2.62708 -0.393177 
15775 1 0.528468 -0.0638121 3.21198 
17176 1 1.35633 5.96097 6.10121 
17178 1 -6.70901 -2.01825 -4.40877 
17177 3 -2.93262 1.92735 -2.4268 
4770 1 -0.392437 -3.72592 3.21538 
4123 1 -4.36961 -0.33606 5.9763 
14306 2 5.40435 4.40593 2.23997 
14305 1 8.69766 2.57779 0.68021 
14307 1 -4.27636 -0.691972 5.01365 
13808 2 1.64026 -0.230196 0.965762 
6193 1 -1.69149 2.98816 -3.38083 
6194 2 -1.79991 -1.73409 -2.64569 
7541 2 1.49706 -0.799885 -1.18992 
7542 1 -0.605048 -1.18401 -2.61851 
19013 2 2.1191 -0.673066 0.69196 
19014 1 -1.34296 0.369943 1.33735 
19012 1 4.61921 -5.38072 4.84063 
13807 1 1.42043 0.0430822 -4.07072 
13809 1 -4.63034 -4.42934 -0.635745 
13663 1 -9.04461 3.61347 -0.724942 
13664 2 -3.92206 -0.0550649 -1.04628 
13665 1 -1.14754 -1.76681 2.10746 
9553 1 -2.43732 -3.83896 0.348303 
6195 1 -3.98443 -3.14667 -0.0572661 
9554 3 -3.4512 -5.57986 -0.530906 
1797 1 3.92783 2.47635 -3.70142 
1796 2 -1.74695 2.18061 -2.73268 
14787 1 -2.19641 4.06073 0.429156 
11032 1 3.22983 -2.98637 -2.57454 
11033 3 -0.766654 1.16919 0.146654 
1615 1 3.81763 -3.50709 1.60915 
8146 1 -1.57259 -2.00418 -5.10415 
13533 1 4.21355 -3.06572 2.08295 
13531 1 -3.33723 1.17019 5.80513 
13532 3 -1.49937 -0.165437 0.315519 
1393 1 -2.99261 -0.124837 -4.49329 
8147 3 -2.64832 2.27627 1.44477 
9441 1 2.84157 -2.71737 -0.558952 
1795 1 -1.86568 1.38898 4.30002 
4228 1 1.45353 -3.92668 0.942923 
657 1 -1.65039 -3.48093 -1.87101 
4143 1 1.73125 -3.3587 0.894561 
656 3 -5.1041 3.88494 -1.52704 
655 1 5.82567 -0.00432729 0.192839 
4142 3 -0.266368 -0.236687 0.64023 
14785 1 0.154618 0.967106 0.938959 
4141 1 -4.37152 1.95385 2.5969 
14786 3 1.80193 1.373 1.4214 
9449 3 -3.32861 -2.17903 -2.37996 
9448 1 -5.63687 5.99993 -1.37531 
7131 1 7.90578 -7.70029 3.65678 
7130 3 1.43694 -0.262561 -1.77615 
5032 1 -1.1331 2.78183 3.82249 
17986 1 -2.03664 0.207771 -0.454503 
17987 3 -6.0946 0.113769 1.4923 
17988 1 1.29644 -3.46645 1.97485 
19541 3 0.31937 1.14164 -3.98516 
19542 1 1.79855 -0.824217 8.36706 
7179 1 0.433773 4.38035 -3.24221 
12905 3 1.50334 -0.456554 -2.41781 
10453 1 -6.03192 -3.54657 1.91681 
8959 1 2.76218 3.20116 -2.33853 
19540 1 -1.01925 0.280185 1.55137 
9440 2 -0.23467 5.20344 -2.68337 
9439 1 0.558765 0.206381 -3.39379 
1909 1 1.31388 -1.60465 -1.11631 
1910 3 0.04695 2.4846 -4.16381 
1911 1 -0.0646019 -4.14027 5.12379 
9659 3 -2.32365 -0.757496 1.96064 
9658 1 0.756188 -1.85266 3.03365 
4992 1 3.64069 -3.49639 -0.452273 
9660 1 0.412715 1.79267 -1.50781 
21111 1 0.0620815 0.184379 6.02637 
11571 1 -1.69992 -4.4419 -0.476482 
21110 3 -3.50594 3.57264 0.120381 
21109 1 -1.86814 -2.47487 -1.16641 
4991 3 -3.07362 4.62244 -0.879987 
11570 3 6.44929 0.848074 2.21231 
12906 1 -0.639897 -0.948269 -3.30898 
4009 1 0.186891 -0.181127 6.3779 
13676 3 -0.459048 -1.39658 1.88285 
4010 3 -0.394128 -0.781925 0.454859 
200 3 -4.88241 -3.62974 3.42695 
199 1 3.42065 -4.71246 -7.55164 
20169 1 -0.511064 3.41107 -3.67394 
13675 1 1.92351 -5.97827 0.123492 
201 1 2.65181 8.50152 -4.63367 
13677 1 2.19736 2.13737 0.571294 
7677 1 0.738634 0.0457307 4.94789 
13021 1 -5.29881 2.36612 -2.333 
18497 3 0.530558 1.08279 -0.257086 
18498 1 -1.242 -6.40223 -0.139105 
21425 3 6.84105 0.111035 0.356959 
7650 1 0.599901 -4.04849 -0.457454 
21424 1 1.61014 2.09518 -3.70975 
7649 3 0.461058 -0.33323 0.982842 
11514 1 -0.00750384 1.01275 -2.24987 
11513 3 5.979 -3.23219 -1.18601 
11512 1 -2.01818 2.41576 2.51566 
11490 1 1.88031 7.1458 -4.52442 
10198 1 4.7937 2.64569 1.25382 
14674 1 -1.68613 2.22395 -3.77242 
14675 3 -0.238702 -3.10175 -4.72924 
16539 1 -1.68273 -0.704574 7.80074 
10199 3 -2.07559 -1.07955 0.257125 
14676 1 5.97891 0.7837 -3.99795 
7648 1 0.864561 5.09619 -2.4858 
11394 1 -0.0606229 -4.07394 -7.17677 
11393 3 -1.95691 -3.78005 0.648117 
11392 1 2.54719 -1.73879 -3.77929 
2740 1 3.53888 3.07463 -3.60617 
2741 3 4.73628 0.199232 -3.67846 
19774 1 -2.59474 -0.0297092 -5.24359 
4388 3 -3.4784 0.584326 0.820897 
6689 3 2.10163 1.94753 2.29897 
8401 1 3.00684 3.70514 -0.340183 
6690 1 -4.57986 1.79792 -4.20055 
8402 2 0.470648 -0.997459 2.30201 
8403 1 -1.70294 -2.71807 -1.76862 
4192 1 -4.71461 -4.24325 -2.62472 
2201 3 -0.281456 -2.12849 2.5044 
14636 3 -2.88218 -0.655125 0.142886 
14905 1 -3.19678 -1.57986 6.25625 
2202 1 4.58272 -3.27909 4.62387 
7252 1 1.90332 4.45911 -2.83412 
14637 1 0.771221 -2.09152 0.599842 
7253 3 3.14823 -0.95325 -1.49392 
14906 3 -0.465677 -2.38863 2.89049 
7254 1 -1.07518 -3.71274 3.5986 
14907 1 0.486839 3.06684 -0.977608 
19417 1 -1.67815 -5.7655 3.40494 
13995 1 -0.304415 0.0840041 4.73581 
13994 3 -0.274649 -0.696112 -0.657792 
19418 3 4.40497 2.97239 -1.84527 
11643 1 -0.94378 1.08613 -1.92581 
7441 1 0.479572 3.22796 4.70993 
7442 3 -0.425774 -0.0557527 1.86932 
2679 1 5.55225 -7.11396 3.47464 
6688 1 -3.9361 -8.39468 -0.484438 
11736 1 -4.59457 0.948059 -4.10631 
14882 3 -1.61501 0.467849 0.081563 
14881 1 1.65196 -0.237342 -1.17345 
14883 1 9.20433 3.91818 -6.53986 
8371 1 -7.98371 -0.973605 3.77001 
8372 3 4.66612 -1.37382 1.82114 
7320 1 -0.326063 2.62725 7.12087 
7318 1 3.96811 0.543841 -2.00816 
7319 3 3.82323 1.496 6.05039 
11735 3 -0.429217 2.24904 -1.16214 
20281 1 -1.46411 -3.11383 -1.17079 
7443 1 -0.875704 1.72187 2.98766 
1114 1 1.36179 -1.06696 -3.6688 
1115 3 -1.27115 1.06785 -5.69335 
6851 3 1.44229 0.104021 5.45564 
6852 1 -1.02117 -7.93931 -4.50251 
6850 1 0.809244 -4.21847 3.3441 
1914 1 2.22041 -3.17727 -1.65908 
11034 1 3.49059 -0.588871 3.35667 
8467 1 2.43135 0.525974 -0.4397 
11503 1 -4.25775 6.59275 2.10066 
12960 1 -5.83953 -0.878759 -0.00705676 
13984 1 -2.48733 2.86602 -0.435815 
1616 3 1.20452 -0.148787 -0.110365 
8478 1 3.67182 1.47866 6.25484 
1617 1 1.29629 -8.66939 0.660694 
19104 1 0.961232 -3.0603 3.74585 
13985 3 -0.0966142 -4.84534 -1.31418 
8476 1 -10.0877 -0.56115 -2.74109 
8477 3 0.120348 -0.740672 7.36206 
13986 1 -1.77009 -1.83963 -6.99524 
18181 1 2.73258 -7.2634 -2.86455 
3817 1 3.53594 -1.94152 -1.16919 
3818 3 6.39726 -2.93941 -4.35151 
2596 1 0.959255 -4.67905 0.989847 
1913 3 -0.347918 -1.42856 1.42197 
1912 1 0.944014 -0.402339 4.6099 
17263 1 -2.54012 2.26295 -1.23019 
17265 1 4.18957 -5.43929 -0.633342 
14547 1 2.30054 -0.773628 -5.9483 
17264 3 -0.522952 0.673363 -0.607153 
5033 3 -3.07932 0.012402 4.17466 
9450 1 1.70043 0.0591282 4.73534 
18714 1 2.88019 -1.7995 -6.94604 
18713 3 -1.37031 -2.52039 -0.695435 
18712 1 1.42853 1.92726 -3.53247 
7422 1 4.93946 3.14598 2.14422 
5034 1 0.0756433 0.727334 0.502419 
12958 1 1.86297 -0.251942 -2.87071 
12959 3 1.4802 3.613 0.590135 
7421 3 -0.274039 0.554463 3.22895 
7178 3 2.87065 0.376129 2.793 
10744 1 7.31647 -1.62001 1.21058 
5271 1 -6.90372 -2.30404 -0.696402 
5270 3 5.18521 3.6553 -2.64749 
5269 1 -0.835249 -4.29462 -1.05263 
16731 1 3.1793 2.33928 4.3947 
7177 1 8.64312 -5.79178 7.34444 
8902 1 2.00825 7.58139 2.27492 
16730 3 1.56153 -0.179743 6.52166 
12904 1 1.07241 6.23908 1.169 
16729 1 4.25122 4.14158 -10.5929 
13023 1 0.1523 1.34219 -2.05686 
18037 1 3.18777 0.00399261 -2.59245 
8903 3 -4.48114 2.61805 2.76747 
18366 1 -1.24857 7.44496 -2.32995 
18365 3 1.793 2.32839 -4.15427 
3925 1 4.81104 8.42899 4.09939 
18364 1 -0.485428 0.87354 -4.03371 
18711 1 0.943957 0.173721 -0.392716 
15070 1 -2.81938 6.91365 0.245006 
18710 3 -1.70999 1.89926 -3.45504 
11569 1 -1.69805 3.98516 -4.57856 
18709 1 -3.11836 -0.816803 2.1235 
15071 3 -2.70757 -1.76575 0.836172 
15072 1 -0.218179 0.286939 -0.603583 
3933 1 -2.50843 5.39068 -6.47921 
13766 3 -0.143229 -5.01142 4.01709 
3932 3 2.67837 1.30447 -1.84641 
13765 1 1.27696 2.38362 -0.558246 
16537 1 -2.72529 2.34944 -2.60599 
13767 1 -1.784 -4.33113 -0.227102 
11602 1 -1.11487 1.70417 -6.05698 
19775 3 -4.73643 2.10158 -3.36681 
13022 3 2.44371 0.5601 4.79999 
7676 3 3.53742 -1.28337 -1.26923 
7675 1 2.36272 -3.08737 1.29697 
9126 1 -0.252474 1.50056 4.65779 
3419 3 -0.46912 3.71192 0.735401 
9125 3 3.62912 0.62138 -1.19667 
3418 1 -4.24317 6.60172 6.55528 
19776 1 2.16166 -3.72052 2.6015 
3420 1 -1.40106 -3.83771 6.79178 
15709 1 -3.04617 1.32989 0.142682 
16538 3 0.170111 4.11441 3.50791 
9667 1 3.51902 -0.544795 9.32828 
9668 3 0.309846 0.739757 -2.02101 
9669 1 -1.82655 -0.880771 -9.67768 
10200 1 4.81617 -3.77874 0.755553 
16998 1 0.17641 3.47838 3.53521 
16997 3 -2.59806 1.13025 -1.60384 
16996 1 0.352564 -3.43437 -4.71579 
17251 1 4.73083 4.88845 1.08422 
14857 1 1.12009 -3.92426 -1.09138 
14402 3 0.228799 0.339707 3.5105 
14401 1 -3.95601 3.77463 -1.81772 
6123 1 -0.283448 -0.277613 4.74339 
6122 3 -1.75165 0.229307 3.26916 
17252 3 -0.542988 -1.21868 -2.93316 
2742 1 -1.55445 3.37753 0.984422 
17104 1 0.492412 2.58064 2.10055 
17105 3 -1.91935 -2.96704 -1.60948 
11524 1 -0.504159 -7.03672 5.3579 
11097 1 -2.90024 1.20126 -3.42641 
17106 1 -1.51825 -4.88084 -0.853146 
5394 1 1.77746 -4.00794 -3.76505 
11525 3 0.858935 -2.56848 4.3796 
11526 1 2.10347 -1.98 -4.58497 
13993 1 -6.41837 2.66491 -2.70703 
11096 3 -0.352307 3.19649 3.74021 
1729 1 0.557525 1.36474 -2.18217 
8830 1 0.384204 1.78708 0.252524 
6121 1 -0.959841 0.707414 -0.0457129 
9038 3 -1.26171 -2.03224 3.39645 
8698 1 -4.06958 -1.56279 -1.05494 
8699 3 4.56913 0.885281 -1.91229 
8700 1 -0.954791 0.897447 4.12451 
6210 1 4.14819 -2.32768 2.19791 
9039 1 -3.19874 -4.81365 4.32218 
4194 1 3.13428 -0.351165 -1.02016 
4193 3 2.2273 -0.68755 -2.48878 
6209 3 -1.16682 -1.65033 0.735254 
11642 3 1.77814 -1.46798 -2.92139 
11641 1 -1.46005 -1.36732 -8.27699 
1894 1 -2.17083 0.388265 5.15224 
1895 3 -0.542216 3.6923 0.713511 
1896 1 -4.24161 3.12631 0.689715 
7695 1 4.05788 0.896319 -0.203289 
14530 1 -9.75837 3.69769 4.09077 
5599 1 -2.64048 1.89047 0.589751 
8373 1 5.92907 3.27488 -3.1675 
12449 3 -0.205707 1.61578 4.61427 
12450 1 -5.75459 -5.64284 4.27732 
14962 1 5.81496 -6.29052 0.750507 
20721 1 8.60318 -1.23935 -1.77701 
5601 1 2.32305 -2.15409 -4.53637 
5600 3 3.12408 4.29373 -0.244873 
20720 3 0.429543 -0.287982 -1.65259 
20719 1 1.06991 -1.84947 2.89459 
12448 1 -3.46328 -0.826208 0.333772 
8935 1 -2.6908 1.20385 1.907 
8936 3 3.52995 0.868857 1.99238 
1116 1 -1.27629 0.21525 4.72008 
8937 1 -2.49965 4.43894 -3.89201 
5272 1 -0.680114 0.438539 1.37632 
15971 3 2.77716 0.0864796 0.463083 
15970 1 -6.21748 -1.90855 4.43319 
63 1 2.47906 0.663838 -0.70573 
20010 1 -1.53334 4.422 -4.97563 
3819 1 2.6374 4.65439 1.30684 
61 1 5.33352 0.913953 3.81632 
62 3 -0.21844 1.74519 -0.0692016 
17761 1 -4.72844 -2.28213 1.31149 
17762 3 -2.44618 -0.163934 2.90532 
11505 1 1.48525 4.20312 -3.66334 
6072 1 0.175055 1.41118 -2.96197 
6071 3 2.21148 -0.601143 2.07866 
8600 3 1.13799 1.64035 0.0725195 
8599 1 9.29785 0.695831 4.11868 
17763 1 -0.328779 -5.34497 4.49259 
11504 3 3.49925 -2.10777 -0.923932 
18182 3 0.53893 -3.14278 -1.7698 
789 1 8.76587 3.81887 -3.80154 
18183 1 0.944084 3.30053 -11.7366 
788 3 2.54775 -1.15288 -2.09478 
6136 1 -1.41092 -2.56399 1.4554 
787 1 7.80586 3.7047 4.08398 
17303 3 -1.61018 -6.55133 2.21194 
8533 1 -2.40308 -2.91018 3.96212 
8707 1 -4.20767 -1.04898 -7.44166 
17304 1 3.17629 1.20881 0.0238863 
14545 1 4.19898 -1.34489 -2.71487 
14546 3 -2.99969 -0.24135 -6.11048 
12144 1 -1.52742 -2.36252 -0.302395 
7501 1 -0.266776 -0.167685 7.4377 
12143 3 4.3965 1.13071 1.31668 
7420 1 3.34312 -4.71624 -3.54256 
12142 1 4.98775 -6.35621 1.98627 
10983 1 9.22165 -0.837442 -3.64525 
10982 3 0.0614111 2.27135 0.403486 
10746 1 2.78038 1.45907 -4.42603 
10981 1 -1.11684 -6.54974 -4.6445 
10745 3 -4.29442 5.08322 1.50801 
5218 1 1.63722 -2.88812 -3.49044 
6138 1 -4.82585 -2.88451 -2.72996 
6137 3 -0.947648 0.667097 -1.46167 
18038 3 -1.04049 1.07187 0.943344 
18039 1 -5.12629 -0.0782324 4.16465 
8904 1 0.230067 1.59476 -0.571165 
6856 1 0.405594 -1.70049 0.485163 
6857 3 0.30205 0.472071 -1.13186 
6858 1 -0.433307 -0.862704 -2.31165 
3214 1 -3.2864 -1.47054 5.25897 
3926 3 -2.02749 6.15111 -0.62044 
3927 1 -1.90222 1.775 1.00776 
20661 1 -5.56698 -1.4068 -8.79551 
13460 3 1.10591 1.3182 0.998375 
13461 1 -3.68118 -4.22068 -1.44565 
11604 1 -2.89574 0.811025 -2.63884 
20041 1 1.52743 1.97992 -1.20943 
11737 1 -1.9872 0.781584 -5.32392 
11603 3 1.72157 -5.22699 1.6674 
7341 1 -4.26737 5.59508 2.65556 
11738 3 -2.92113 1.30745 3.1534 
3931 1 2.4822 5.33102 1.84349 
11739 1 -1.19012 -1.69682 0.911543 
7340 3 -0.859797 -0.439081 -1.12604 
7339 1 4.08616 1.13588 -2.43111 
141 1 -2.35724 5.29114 0.397123 
140 3 -0.259533 2.27243 -0.565957 
13231 1 3.01502 -2.62868 -2.23052 
15126 1 -2.37573 -0.400122 2.18234 
15125 3 -4.15295 4.90502 0.933998 
2950 1 -0.180885 -1.73783 3.64388 
15124 1 -4.46505 -0.174112 -0.286164 
9124 1 4.02486 3.67901 1.32592 
15710 3 -0.980521 0.393159 -1.20624 
14543 3 2.06242 -0.180833 0.706899 
13232 3 2.18924 0.197577 -3.06089 
15711 1 2.65742 4.26688 5.6279 
2951 3 2.50774 1.26992 -1.99782 
14544 1 -3.04821 6.20438 4.02595 
5392 1 -1.45001 0.57729 -2.96369 
14542 1 0.944972 3.51559 -2.99895 
3598 1 4.79055 -0.433942 -1.05528 
20660 3 -2.05055 -2.40462 0.71745 
20659 1 -0.872654 1.13188 1.94434 
11674 1 -1.79688 0.452184 5.35031 
11675 3 -1.63228 -0.707142 -0.96293 
11676 1 -2.63297 3.08829 1.34682 
5979 1 -0.541824 4.45139 -2.84556 
17192 3 -1.93177 -1.51125 3.5197 
17193 1 6.53186 -0.899619 1.98628 
17253 1 -1.57195 -0.00304181 0.784414 
17191 1 0.532421 -2.60664 -2.27483 
13214 3 2.53749 -1.09756 1.8025 
13213 1 -0.0403456 -3.12656 0.489422 
14403 1 -0.345137 -0.923563 -0.448257 
14858 3 4.99688 -0.647917 0.670177 
14859 1 -4.55771 0.309353 -2.60036 
14449 1 5.58417 -1.68892 -3.40286 
13215 1 1.24393 2.82269 -0.0841131 
14450 3 3.74698 -1.60032 2.11917 
20140 1 2.81941 -1.62822 -3.08127 
17341 1 9.6789 -0.225911 -3.88282 
5393 3 -2.949 -0.36641 -3.12877 
11095 1 -3.76116 0.553573 -0.0435009 
3658 1 -3.37535 0.236145 -2.52862 
3659 3 -1.02554 1.00424 -1.11137 
3660 1 0.993524 7.74973 -1.47193 
13896 1 -1.53979 -7.0886 -2.78279 
17322 1 3.58902 5.71708 -0.194335 
1731 1 -2.42925 -4.60441 1.08749 
1730 3 5.0839 0.72565 -2.82118 
8854 1 7.63606 2.84586 4.27421 
8855 3 1.02323 -2.95381 0.173878 
8856 1 1.22083 1.14167 7.29017 
14964 1 -10.5357 -3.16447 3.51776 
9037 1 -0.501063 1.88091 -0.250197 
5484 1 -0.925333 -2.721 4.03943 
5483 3 -3.57745 -6.4838 -0.925664 
5482 1 5.17869 -3.66716 -2.60127 
18831 1 -3.09995 -1.27068 1.71771 
14531 3 3.65989 2.63139 3.77157 
4101 1 -1.88739 -1.80143 -3.40079 
4100 3 -2.95892 -3.08579 -1.98041 
14532 1 6.02446 3.36848 -2.3241 
14466 1 -0.940828 -0.504516 -4.72293 
6208 1 0.677569 -2.3243 1.5687 
4099 1 1.28885 -1.5971 -2.10115 
7694 3 0.366037 1.60273 -0.317669 
7693 1 3.71961 2.08546 7.20347 
15287 3 0.339232 -3.1736 -0.709149 
15288 1 -1.06824 -1.84639 2.71515 
14465 3 -0.953431 1.66162 1.78224 
2861 3 -0.730099 1.76016 0.494772 
15286 1 5.35443 0.307317 5.47058 
2862 1 2.95699 -3.14836 -4.58493 
2860 1 -0.884004 -2.5564 -0.850862 
14963 3 -0.0131811 0.962282 1.16114 
5274 1 0.598638 -2.28138 4.1037 
5273 3 -0.994564 1.28644 2.01882 
12817 1 2.96734 4.56652 -1.00822 
15972 1 -3.38716 3.23773 -1.09634 
20461 1 3.32542 0.201442 1.27909 
20462 3 -1.82974 1.94679 -1.67008 
20009 3 -1.97061 0.74307 -4.02161 
5572 1 2.20663 -6.95843 3.53337 
5573 3 3.92247 3.95317 -0.403359 
20463 1 -1.97216 1.96573 -5.27418 
8601 1 4.76506 -5.07238 -0.362543 
6070 1 0.489507 0.897591 2.97594 
6736 1 -1.30709 -3.16019 -1.45912 
6737 3 -3.61405 0.197532 4.33045 
6738 1 -9.95801 -7.05184 -0.973154 
17497 1 1.67503 2.0802 -2.27699 
14511 1 -2.82485 5.8509 -0.466703 
8708 3 -0.318971 -4.34808 0.616636 
20034 1 -2.13259 4.74546 4.53684 
17302 1 -1.85331 2.25984 -2.29819 
9396 1 -4.11585 -1.45846 3.50755 
9394 1 -4.23946 5.73976 0.296145 
14581 1 -3.11465 -1.71661 3.40065 
14582 3 1.53985 -2.50586 -2.8692 
9395 3 -1.89118 -2.19788 -1.8279 
8535 1 -2.7138 2.24777 -3.9652 
8534 3 -0.412745 1.5218 -1.12627 
17712 1 -3.34774 -6.4588 -0.0876768 
17711 3 3.2557 -0.3149 3.71305 
17710 1 0.321603 1.15318 2.88894 
20033 3 0.784947 -0.266323 1.70881 
10513 1 -3.80184 -2.21431 -6.7469 
10514 2 -0.980133 -1.4057 -0.343537 
12818 3 2.1871 -0.913927 -2.33407 
10515 1 3.05824 0.110236 -3.15174 
12819 1 -4.97711 4.9941 4.1993 
3471 1 2.58419 2.2022 0.454205 
3470 3 -2.91475 -4.43353 -3.15146 
7503 1 3.94934 -4.93774 0.601521 
7502 3 2.46934 5.76847 -1.70483 
2150 3 0.185122 2.35764 3.7135 
2149 1 -5.55661 1.62934 -0.208833 
5220 1 0.941167 -3.84173 1.49514 
5219 3 2.40451 3.15226 1.58667 
20043 1 0.988424 -0.320929 -0.612911 
6028 1 2.22936 4.15318 -0.202879 
6029 3 1.1153 -0.670166 -0.507949 
20042 3 -1.82224 1.79454 0.554435 
6030 1 -4.06307 -3.73815 -0.45494 
2108 3 -0.14349 0.71066 -2.92423 
2952 1 -2.44926 3.67593 0.507457 
2107 1 5.4208 4.47868 1.59572 
3215 3 -1.42887 3.58462 0.680987 
14147 3 0.259493 -6.2534 -4.32726 
14146 1 3.81778 -1.37701 -7.71268 
3216 1 -3.12926 -1.87527 -1.18325 
2109 1 -2.42216 5.12616 1.42179 
14148 1 -1.32729 1.47311 7.33968 
20557 1 1.80467 1.73753 0.295416 
16235 3 0.450381 4.33532 -2.55222 
6798 1 0.208377 1.04954 -5.25348 
13312 1 -2.53613 2.01268 -1.43915 
13459 1 -4.06993 -3.49112 0.918577 
13314 1 -3.73853 -4.91889 3.45463 
13313 3 -0.490056 -5.25774 3.44351 
13357 1 -2.94711 0.128821 -3.62821 
679 1 -8.18811 -0.771683 -5.89837 
11673 1 3.31859 3.0203 3.64611 
139 1 -6.85867 0.554054 0.236391 
11671 1 -0.562001 2.77671 3.7078 
11672 3 2.38138 3.72891 0.214886 
6167 3 2.12624 0.438713 -1.73797 
15320 3 3.44355 -1.52763 -1.96714 
15319 1 -3.04092 1.84193 4.77424 
16236 1 1.30244 2.92137 -2.85225 
15321 1 -0.165824 1.7126 -2.78139 
13233 1 3.1443 -2.81849 3.06833 
3384 1 -0.0156916 3.99292 -0.686462 
3600 1 2.15841 2.8201 0.375741 
3599 3 2.96811 2.23411 -0.266537 
3383 3 -4.2875 2.03716 -0.452519 
20690 3 -1.30126 4.4975 -0.692073 
20689 1 -2.66909 -4.95368 0.531843 
6168 1 3.19673 3.75299 -0.68953 
17343 1 -6.32341 -6.3094 1.0428 
17342 3 3.86675 2.40105 1.79707 
14451 1 -4.73143 5.01486 -3.63347 
17512 1 2.05694 -3.06297 -0.839609 
1233 1 0.713086 -4.15467 -6.28924 
1232 3 1.35864 -3.38301 -0.593301 
20141 3 -6.59039 -1.55302 0.0209815 
1231 1 -3.95167 2.74482 -0.0508082 
20142 1 -2.02235 4.47936 0.778266 
7368 1 -3.53123 -3.77241 -1.3652 
7367 3 3.08284 -3.05605 -2.2321 
17321 3 2.87638 1.88233 0.09701 
17320 1 1.42007 0.307456 -3.06327 
13895 3 -3.61779 -1.53702 -1.95079 
4055 3 2.60546 -4.10266 -2.74625 
6519 1 -6.97927 1.55763 -2.1027 
4056 1 3.73244 -1.34675 -0.842038 
13894 1 -3.64254 5.11751 4.68203 
6518 3 0.158656 5.57445 0.226721 
6038 3 -7.3213 0.561375 2.46941 
21549 1 0.858308 -2.31145 3.14245 
6037 1 -1.94863 -0.432534 0.967321 
6517 1 0.991443 3.6483 -0.104873 
4054 1 -1.99496 3.78499 2.61629 
12567 1 -8.93213 3.98419 0.643948 
5978 3 1.69532 -1.00972 -1.93194 
20691 1 -3.54943 1.9654 -3.73722 
5977 1 -8.45544 2.35629 3.32881 
18830 3 -0.463695 -3.23395 3.05984 
18829 1 -6.13848 -0.283124 -4.67623 
8001 1 6.54726 4.65493 1.19817 
8000 3 0.841145 0.721556 4.35824 
7999 1 4.13486 -3.87891 -8.11944 
1951 1 -1.54557 4.074 -0.881867 
18805 1 -1.20837 12.2706 0.756412 
14464 1 4.9459 -2.73633 -1.10894 
14872 1 2.3526 -6.99415 1.48913 
7815 1 -0.783637 2.3976 0.186951 
21548 3 -2.60463 -1.87588 -3.00123 
21547 1 -1.6522 1.506 -0.829731 
14873 3 -0.546472 2.49041 -1.29911 
14874 1 -13.4939 -0.879453 -0.742582 
14109 1 1.9949 1.07458 -4.69551 
14108 3 -2.90117 0.153681 -1.4952 
7814 3 -0.412549 -3.04933 -2.51582 
17498 3 -3.65607 1.65503 -4.00501 
3132 1 6.81861 -3.83825 -7.32264 
3948 1 -0.11945 4.33866 -3.87691 
4125 1 0.203503 6.97991 1.2568 
2588 3 -1.0123 2.8539 0.495296 
3131 3 -1.12999 1.61326 -0.412629 
17499 1 -4.11129 -2.79141 0.189465 
2587 1 5.17203 -2.97069 -3.20566 
3130 1 0.597978 -0.947782 3.52579 
20805 1 -3.48187 -2.46676 1.40182 
2589 1 -0.00476326 -4.26313 -0.625961 
18955 1 -1.36751 3.19132 -3.88572 
4029 1 -3.63382 0.798995 6.23094 
14583 1 -0.9888 0.579412 0.509892 
18957 1 7.05231 -0.505875 -2.33757 
18956 3 3.15864 -1.80044 2.31547 
6796 1 6.62433 1.95071 1.52705 
4149 1 -1.47858 1.71144 4.15499 
4148 3 -0.477216 -0.522449 3.13432 
3539 3 0.475518 -4.13701 -3.95148 
3538 1 6.71049 2.7382 -6.61063 
10977 1 -2.25559 -4.24387 4.64118 
3469 1 0.289005 -1.54411 -2.09633 
3972 1 2.46037 4.84264 2.43002 
2151 1 -5.29363 -0.301934 1.38882 
20803 1 5.67632 0.404429 -1.63867 
20804 3 0.853376 3.12653 -0.922039 
17457 1 0.119703 -1.87069 6.85277 
3971 3 -0.652544 2.77117 0.811703 
3970 1 2.70214 -4.61502 -1.60345 
17456 3 -1.49229 -0.500639 -1.29566 
6486 1 1.63196 -0.577684 3.33786 
9131 3 3.32605 -0.147356 4.40517 
6797 3 1.41101 0.860562 1.39289 
20559 1 -8.41237 -4.53707 -4.98736 
9132 1 -3.16456 -0.509302 2.84665 
20558 3 -2.05805 0.0516986 -2.42011 
10970 3 0.884631 0.77414 -3.9229 
16234 1 -2.65181 3.96749 4.41164 
10971 1 -0.641744 -5.91388 0.409879 
10969 1 0.995342 -1.46566 1.03831 
14190 1 -0.935816 4.7216 -3.70714 
9130 1 -1.87498 1.45824 -0.0430566 
13358 3 -1.35427 -0.798751 -2.11223 
6484 1 1.97198 -0.476396 0.50558 
6485 3 -2.9932 -1.88893 3.81181 
13359 1 -0.628972 -4.57837 1.43227 
5312 3 0.110797 -1.61045 1.36592 
5313 1 -0.808283 0.2981 -3.59162 
6166 1 3.40209 -0.22364 1.35646 
681 1 0.203556 2.79914 4.16016 
680 3 -0.640924 1.2881 -2.13439 
1131 1 0.498101 1.86426 -0.11632 
1130 3 3.85777 0.942482 1.56931 
1129 1 1.2518 -1.74543 0.437917 
4963 1 2.24088 0.962656 8.38332 
3374 3 1.54524 2.6634 -2.78742 
3373 1 -2.39985 -5.44089 -4.52911 
804 1 -1.44717 -0.808311 -3.82553 
803 3 -4.24244 -0.20841 0.304358 
802 1 7.69232 -3.01149 5.50763 
3382 1 -0.699593 8.13006 -2.00992 
12511 1 3.68511 3.03507 2.93493 
3139 1 -8.25762 -2.56995 -6.98636 
12512 3 1.91087 0.859167 2.44191 
19837 1 -3.32884 3.9429 -4.08486 
3140 3 3.11813 -1.89491 0.709204 
17514 1 -0.569648 -4.62199 1.69515 
3375 1 -5.0868 8.4796 -2.00097 
7366 1 -0.562631 2.97303 0.586754 
465 1 7.96251 5.96665 -7.25322 
464 3 0.204465 -0.105926 -2.19237 
120 1 0.0676587 -1.2182 1.91331 
463 1 -0.149562 2.71661 -1.35273 
119 3 -1.24199 -0.0960583 3.21217 
13845 1 -1.80474 -5.46091 -0.347142 
13844 3 -3.79928 -0.494067 1.60656 
17513 3 3.36059 -2.73146 -3.52562 
12513 1 1.35743 7.42529 -8.86403 
12566 3 2.95099 -0.636551 0.252772 
12565 1 2.61618 0.827659 -3.37424 
11065 1 -2.98298 2.09535 -2.75201 
11066 3 -4.89009 -1.93977 -6.20419 
14411 3 -0.383297 -1.4214 -0.368685 
14410 1 5.21679 2.08242 4.64329 
14412 1 4.19081 4.68498 -0.359378 
6039 1 -2.44131 1.44065 -5.02125 
11463 1 2.77102 -4.68096 2.35639 
1952 3 -0.820548 5.15342 -1.7422 
18807 1 -4.63226 3.53045 -5.69382 
18806 3 -2.1966 5.61237 0.673621 
14107 1 2.11282 3.04409 1.67817 
3274 1 -3.27639 -1.64934 -2.99872 
1953 1 4.6145 -6.56991 -0.353579 
12269 3 0.640408 1.95923 -1.5092 
3275 3 2.6006 -0.0823659 -2.06594 
3276 1 -5.53301 -9.53721 5.03659 
12268 1 1.48225 1.75748 0.885876 
13145 2 2.6762 -0.895319 -4.00264 
3946 1 -7.50598 1.80187 -2.07896 
13146 1 -3.46959 -1.89287 -0.104737 
3947 2 0.77855 2.10657 2.27231 
13144 1 -0.104475 2.98962 -6.26268 
4124 2 2.64463 -1.4448 2.39418 
19971 1 1.93846 4.96268 5.46018 
5581 1 -3.90304 -1.13882 3.79984 
10975 1 3.17052 0.45779 -2.94065 
4769 2 -0.164519 -1.22974 -0.148054 
4768 1 -3.76032 -4.46172 -0.748642 
14877 1 -3.33427 0.234772 -2.61866 
17559 1 0.337732 7.71032 -6.94683 
17558 3 2.51252 -1.71281 6.65329 
4147 1 2.72923 -2.95373 -6.05471 
17557 1 5.25711 3.48138 -7.69373 
10976 3 0.195274 -2.72762 2.00257 
5582 2 -0.45795 0.225806 0.549242 
17455 1 -0.181474 -0.554269 1.95222 
5583 1 0.0449469 2.92018 -6.81311 
14526 1 2.98447 3.15966 -2.61474 
14525 3 0.790798 -0.837713 1.06104 
21254 3 -4.77466 0.125214 -1.12069 
21253 1 2.38465 2.92203 8.31834 
21255 1 -4.77063 1.25294 0.163061 
5407 1 1.69743 -1.99617 -0.558517 
701 3 1.30993 -0.500769 -4.81157 
14524 1 -1.04064 -5.24823 0.464639 
702 1 0.633118 -0.468282 -0.625076 
14188 1 0.00147806 -1.58826 2.03856 
14189 3 1.31807 -1.40302 2.24227 
5311 1 -1.77458 -2.48285 -3.8689 
6493 1 3.08544 -1.80971 0.116327 
6494 3 -1.02994 3.25577 0.580147 
6495 1 2.55709 -3.94266 3.82805 
4964 3 -0.880357 -5.40419 1.81467 
4965 1 -6.21684 -1.36826 -7.65485 
9249 1 0.573804 2.8424 -0.533504 
21080 3 4.70059 2.93921 0.94094 
19839 1 1.71566 4.24271 -3.47184 
21079 1 2.2127 5.01891 -1.7141 
9248 3 -1.53461 1.48224 1.25453 
19838 3 -2.1483 -0.790778 0.497771 
8994 1 -0.125417 -3.64687 2.73777 
8993 3 -1.0539 -1.60441 -0.769326 
9247 1 -5.37279 0.298458 4.1733 
3141 1 4.26178 1.03654 5.84417 
12204 1 -3.25693 -4.69346 0.279428 
12203 3 0.686885 0.847816 -0.0699903 
12202 1 -2.20961 -1.76794 0.812418 
15637 1 6.3659 -0.649701 6.29329 
21081 1 -4.72137 4.73379 1.38972 
11566 1 2.15575 1.02043 -1.53461 
11567 3 1.84 0.113852 -1.67682 
11568 1 3.31758 -4.49065 -2.66102 
118 1 -2.6328 -0.261075 1.88572 
13843 1 -0.317775 0.858099 1.47733 
11845 1 2.03215 2.89478 8.15477 
11067 1 -3.43731 -2.33947 3.61337 
11846 3 1.94502 0.330081 1.61998 
11847 1 6.96063 0.662627 -2.85386 
20367 1 4.5752 -1.78114 3.37884 
5787 1 -0.184647 -1.05677 4.61472 
175 1 -9.2108 -2.44339 -5.28493 
176 3 -1.19486 -1.72311 -1.20717 
177 1 -3.36781 -2.16217 -5.49236 
20366 3 3.61121 0.546826 -0.297611 
5751 1 0.884214 2.90562 1.74587 
12270 1 -1.33638 3.23662 2.95992 
21544 1 -1.22475 0.536965 -7.91379 
21545 3 -1.59725 1.63557 -1.98584 
21546 1 1.29682 -0.0638839 -6.15959 
7716 1 3.05973 -7.26522 -1.44759 
7714 1 2.25895 8.47105 0.505976 
7715 3 5.58414 2.77451 -3.76306 
402 1 -0.832776 1.91951 -5.99949 
4498 1 -0.32381 0.57872 1.50001 
4499 2 2.30055 -4.16178 0.225248 
20118 1 -0.784449 1.54588 -1.44657 
19969 1 -0.511539 -7.77887 -0.952575 
4500 1 3.44511 -4.19726 -3.20604 
19970 2 -0.556461 0.462798 -3.5125 
20117 2 0.370187 1.15006 3.16783 
13931 2 -2.72779 0.143241 -2.68476 
13930 1 -0.509096 1.6358 -7.65129 
20116 1 -6.73925 -3.59452 2.28989 
14876 3 -1.99536 2.0481 -0.822131 
14875 1 3.75719 7.05403 3.94178 
14745 1 0.68746 -1.45085 -8.00559 
14744 3 0.301567 1.13857 -1.93517 
8938 1 -0.695937 0.256627 0.651291 
8940 1 -3.94007 -1.52164 1.53988 
13932 1 -0.547414 -5.07583 -5.79357 
8939 2 -1.86714 -1.33671 -2.07893 
700 1 3.33057 -0.922644 -3.22511 