ITEM: TIMESTEP
25000000
ITEM: NUMBER OF ATOMS
198
ITEM: BOX BOUNDS pp pp pp
0.0000000000000000e+00 5.0000000000000000e+01
0.0000000000000000e+00 5.0000000000000000e+01
0.0000000000000000e+00 5.0000000000000000e+01
ITEM: ATOMS id type xs ys zs
15634 1 0.659886 0.0349845 0.671125
7878 1 0.689008 0.028242 0.699852
7877 2 0.68843 0.0200897 0.700301
14223 1 0.691182 0.00877143 0.701239
7876 1 0.690588 0.0123135 0.701113
10918 1 0.688122 0.0313277 0.699221
14222 2 0.693301 0.00134462 0.700011
7708 1 0.73863 0.0243822 0.705506
15636 1 0.661387 0.0344664 0.686121
15635 2 0.660409 0.0348863 0.678586
9559 1 0.687638 0.0500754 0.697587
10919 2 0.688035 0.0386201 0.698677
10920 1 0.687862 0.0471014 0.698281
3706 1 0.662154 0.0342297 0.689113
9560 2 0.686782 0.0576078 0.697055
3707 2 0.664617 0.0338914 0.695686
3708 1 0.668711 0.0351014 0.702882
7596 1 0.669615 0.0356599 0.705913
9561 1 0.68603 0.0648389 0.697468
15087 1 0.685176 0.0676961 0.697847
15086 2 0.683364 0.0751123 0.698778
7315 1 0.681968 0.0851677 0.695142
15085 1 0.682657 0.0822482 0.696401
7316 2 0.680276 0.0916857 0.691424
7317 1 0.678984 0.0996443 0.688997
5205 1 0.682498 0.00269398 0.716912
8965 1 0.683055 0.00553306 0.717936
8966 2 0.685798 0.0136425 0.71859
8967 1 0.688948 0.0213023 0.716852
14388 1 0.690117 0.0241129 0.716491
14267 2 0.676779 0.0297521 0.73159
14268 1 0.678431 0.0277625 0.73798
9701 2 0.721452 0.0128129 0.728832
9702 1 0.715164 0.0166628 0.731717
941 2 0.707654 0.0240892 0.736296
942 1 0.713079 0.0186733 0.732657
14387 2 0.693642 0.0307013 0.717905
18384 1 0.721729 0.0266968 0.718001
14619 1 0.728625 0.00574673 0.725677
7709 2 0.745871 0.0283049 0.709065
9700 1 0.726647 0.00767552 0.726488
7710 1 0.751525 0.031551 0.712996
9355 1 0.744928 0.0280225 0.726105
14618 2 0.734576 0.000648419 0.724165
4384 1 0.688871 0.0458641 0.730513
4385 2 0.688307 0.0550949 0.728681
14266 1 0.675126 0.0330861 0.724248
7594 1 0.674286 0.0342953 0.721355
7595 2 0.672553 0.0361991 0.713993
4386 1 0.687125 0.0636906 0.727404
14386 1 0.70065 0.0355033 0.720412
20814 1 0.702731 0.0375021 0.721063
20813 2 0.707784 0.0427725 0.721776
20812 1 0.713295 0.0482149 0.723184
18367 1 0.715801 0.0496125 0.723089
18368 2 0.722614 0.0537865 0.72475
9356 2 0.74497 0.0359973 0.727996
18383 2 0.726808 0.0334419 0.718672
18382 1 0.731996 0.0382259 0.722015
1522 1 0.738257 0.0582407 0.736532
10603 1 0.737356 0.061043 0.737284
1524 1 0.741672 0.045349 0.730478
9357 1 0.742338 0.0426843 0.729581
1523 2 0.740581 0.0518249 0.733544
18369 1 0.728976 0.0577282 0.725326
4913 2 0.676027 0.0899588 0.720693
4420 1 0.686701 0.0660033 0.726285
4421 2 0.683678 0.0733259 0.722955
4422 1 0.680723 0.0806486 0.722162
4914 1 0.67936 0.083249 0.721959
8443 1 0.697129 0.0924629 0.716462
8444 2 0.698458 0.0881364 0.723532
8445 1 0.700832 0.0836491 0.730504
4447 1 0.701636 0.0822519 0.732371
4448 2 0.705129 0.0768364 0.737978
4912 1 0.673886 0.0976711 0.718957
18629 2 0.672082 0.110751 0.727801
18630 1 0.670286 0.115788 0.733151
18628 1 0.673936 0.106002 0.720619
19172 2 0.678786 0.0192279 0.764278
10155 1 0.691584 0.00650952 0.741206
3252 1 0.677554 0.0228274 0.754983
19173 1 0.677419 0.0221577 0.757832
3251 2 0.678157 0.0241218 0.747802
3250 1 0.678466 0.0266538 0.740717
940 1 0.701377 0.0285486 0.738775
3050 2 0.700346 0.0247641 0.763387
3049 1 0.699998 0.0230089 0.75569
10154 2 0.698646 0.0058804 0.745014
10153 1 0.705492 0.00627789 0.747668
5765 2 0.715124 0.00851445 0.75371
5764 1 0.707765 0.00695183 0.749273
5766 1 0.722682 0.0109812 0.756676
20215 1 0.69948 0.0301437 0.739492
3051 1 0.699371 0.0278451 0.770106
10229 2 0.66973 0.0617394 0.748664
10957 1 0.688977 0.0494773 0.763711
10228 1 0.672793 0.0546217 0.74925
18834 1 0.674574 0.0517994 0.748757
18832 1 0.685165 0.0416331 0.746068
18833 2 0.679425 0.0465402 0.74731
20217 1 0.687807 0.0397702 0.744933
3567 1 0.720151 0.040867 0.759361
20216 2 0.69471 0.0356924 0.742378
9567 1 0.718952 0.0438146 0.741646
9193 1 0.716431 0.0464256 0.741735
1331 2 0.695178 0.0617145 0.748433
10958 2 0.696648 0.0470635 0.763375
1330 1 0.702025 0.0565741 0.746753
9195 1 0.704492 0.0550864 0.746137
3565 1 0.706786 0.0444431 0.763896
3566 2 0.713641 0.0429676 0.761627
10959 1 0.704285 0.0453383 0.764076
9194 2 0.71081 0.0508402 0.742763
2048 2 0.724861 0.0624398 0.765635
16858 1 0.733285 0.0539547 0.75228
9565 1 0.730481 0.0326355 0.743295
16859 2 0.740182 0.0510713 0.755394
9566 2 0.724841 0.0379059 0.743093
16860 1 0.746928 0.0475352 0.757931
9691 1 0.679969 0.0750981 0.74426
9692 2 0.683717 0.0812951 0.7453
1332 1 0.689147 0.068675 0.747434
10230 1 0.667653 0.0688003 0.747161
9693 1 0.687968 0.087678 0.747257
6454 1 0.702925 0.0720953 0.766274
9320 2 0.715637 0.0692849 0.752183
9319 1 0.719716 0.0673617 0.758731
2049 1 0.720991 0.0661549 0.760896
10101 1 0.695724 0.0869773 0.756885
9321 1 0.711753 0.07125 0.745484
4449 1 0.710012 0.0725458 0.743687
10100 2 0.697771 0.0810675 0.761815
10099 1 0.701553 0.0741026 0.764738
10604 2 0.734797 0.0673434 0.740346
13346 2 0.734169 0.082328 0.751293
13347 1 0.733423 0.0763334 0.745968
10605 1 0.733572 0.074072 0.743804
13345 1 0.73415 0.0880183 0.757807
8713 1 0.717565 0.10201 0.754237
8714 2 0.723091 0.0991796 0.759193
18378 1 0.728257 0.0982206 0.768777
8715 1 0.727168 0.0981598 0.766779
19171 1 0.6809 0.0173908 0.771591
7776 1 0.7158 0.0089865 0.77759
7775 2 0.708918 0.00502993 0.781786
13471 1 0.699407 0.0294407 0.773123
7774 1 0.702838 0.000490398 0.784598
13473 1 0.698363 0.0364345 0.786465
13472 2 0.698191 0.0330697 0.779143
1452 1 0.698472 0.0378029 0.789112
1451 3 0.697081 0.0413764 0.796641
5693 2 0.718794 0.0373546 0.789755
5692 1 0.714618 0.043067 0.786895
6066 1 0.713055 0.0455959 0.785977
6065 2 0.709606 0.0514436 0.783085
6456 1 0.706853 0.0601616 0.776419
6064 1 0.707484 0.0580771 0.778263
5694 1 0.723708 0.0311845 0.792868
8213 2 0.745806 0.0444996 0.791732
15195 1 0.729008 0.0546867 0.773235
8212 1 0.740286 0.0460713 0.786241
15193 1 0.737931 0.0469839 0.7841
15194 2 0.732458 0.0496853 0.778248
8214 1 0.75104 0.0431187 0.796967
2047 1 0.727814 0.0568792 0.771563
6373 1 0.707952 0.0835576 0.772951
6374 2 0.715826 0.0832622 0.773593
4512 1 0.719065 0.0623858 0.799077
6455 2 0.70503 0.0661221 0.771111
4510 1 0.727647 0.0657694 0.78628
6375 1 0.723271 0.0830825 0.773465
10771 1 0.725811 0.082378 0.773273
4511 2 0.723582 0.0643714 0.791632
10772 2 0.733263 0.07982 0.771547
10773 1 0.741219 0.0776839 0.772024
18377 2 0.732008 0.0994847 0.775974
9848 2 0.738334 0.09947 0.79458
9847 1 0.735587 0.100913 0.7868
9849 1 0.739109 0.0970129 0.802489
18376 1 0.734408 0.101068 0.783481
1450 1 0.696263 0.0450232 0.804162
18795 1 0.69576 0.0454421 0.807337
18794 2 0.694062 0.0457871 0.815717
9784 1 0.693832 0.044872 0.826964
18793 1 0.693995 0.045079 0.824044
9785 2 0.695993 0.0427067 0.834673
9786 1 0.70019 0.0384695 0.840474
4663 1 0.674372 0.98618 0.712592
5203 1 0.675546 0.988623 0.713257
4665 1 0.668954 0.973211 0.70582
4664 2 0.672066 0.979224 0.709857
5204 2 0.679597 0.996109 0.715435
14221 1 0.695961 0.993096 0.699051
14617 1 0.739676 0.994468 0.724785
11779 1 0.741679 0.991298 0.725119
11780 2 0.745724 0.983887 0.726861
11781 1 0.748327 0.976172 0.725969
