ITEM: TIMESTEP
25000000
ITEM: NUMBER OF ENTRIES
1333
ITEM: BOX BOUNDS pp pp pp
0 50
0 50
0 50
ITEM: ENTRIES c_binfo[1] c_binfo[2] c_binfo[3] 
3 16616 16617 
3 16615 16616 
1 2490 16615 
2 14999 15000 
2 14998 14999 
3 11890 11891 
3 2263 2264 
1 2263 11890 
2 15542 15543 
3 2264 2265 
3 5087 5088 
3 13039 13040 
3 5086 5087 
1 5086 13039 
2 6059 6060 
1 6060 12966 
3 12964 12965 
3 12965 12966 
3 13040 13041 
1 3897 13041 
3 3896 3897 
3 3895 3896 
1 3895 8200 
3 17168 17169 
3 17167 17168 
2 6058 6059 
1 6058 17167 
2 5587 5588 
2 5588 5589 
2 9890 9891 
2 9889 9890 
1 9889 20191 
2 9158 9159 
2 9157 9158 
2 20624 20625 
1 20193 20625 
2 20623 20624 
2 20191 20192 
2 20192 20193 
1 9891 19350 
2 19349 19350 
2 13192 13193 
1 13192 19348 
2 19348 19349 
2 13193 13194 
2 5939 5940 
2 5938 5939 
1 5940 9994 
2 2489 2490 
2 9994 9995 
2 2488 2489 
2 9995 9996 
2 10790 10791 
1 10791 19297 
2 19298 19299 
2 19297 19298 
2 11230 11231 
2 10789 10790 
1 10789 11230 
2 4675 4676 
2 4676 4677 
2 9076 9077 
2 11231 11232 
1 11232 15541 
2 15541 15542 
2 20635 20636 
2 12341 12342 
2 12340 12341 
2 20636 20637 
1 48 4677 
2 15986 15987 
2 18947 18948 
2 47 48 
2 922 923 
2 46 47 
1 46 922 
2 18946 18947 
2 15985 15986 
1 15985 18946 
2 923 924 
3 14206 14207 
3 21568 21569 
3 8653 8654 
1 8653 21568 
3 21569 21570 
2 5618 5619 
2 5617 5618 
3 8051 8052 
1 8052 9955 
3 8050 8051 
2 13960 13961 
1 13960 14208 
2 13961 13962 
3 14207 14208 
2 16060 16061 
1 16060 17169 
2 16061 16062 
2 3491 3492 
1 3492 13581 
2 3490 3491 
1 3490 8655 
2 17804 17805 
3 8654 8655 
2 17803 17804 
2 9956 9957 
1 2235 9957 
2 9955 9956 
2 8200 8201 
2 8201 8202 
1 13962 14008 
2 14008 14009 
2 2203 2204 
1 2203 5589 
2 2204 2205 
2 1219 1220 
1 1219 8202 
2 1220 1221 
1 1221 3291 
2 6073 6074 
1 6073 14010 
2 14009 14010 
1 9159 16062 
2 3302 3303 
2 13580 13581 
2 9862 9863 
1 9862 13237 
2 13238 13239 
2 13237 13238 
2 2603 2604 
2 13579 13580 
1 2604 13579 
2 3301 3302 
1 3301 12072 
2 12071 12072 
2 12070 12071 
2 9863 9864 
1 13239 17805 
2 10571 10572 
2 10570 10571 
2 4969 4970 
1 4969 10570 
2 12785 12786 
2 12784 12785 
2 6074 6075 
2 9608 9609 
2 9607 9608 
1 2205 9609 
2 1243 1244 
1 1243 9607 
2 3290 3291 
2 3289 3290 
1 3289 12784 
2 6022 6023 
1 6022 6075 
2 6023 6024 
1 6024 21097 
2 21097 21098 
2 8803 8804 
2 5404 5405 
1 5404 8803 
2 2602 2603 
1 2602 5406 
2 2572 2573 
1 2572 12070 
2 2573 2574 
1 9864 13641 
2 5405 5406 
2 7223 7224 
1 2574 7224 
2 13640 13641 
2 13639 13640 
1 3894 13639 
2 4970 4971 
1 4971 21012 
2 21011 21012 
3 15815 15816 
3 15814 15815 
1 2397 12786 
2 2395 2396 
1 2395 16609 
2 16609 16610 
2 2396 2397 
2 19675 19676 
2 4726 4727 
1 4726 19675 
2 4727 4728 
2 8804 8805 
2 1244 1245 
1 705 1245 
2 704 705 
2 21098 21099 
2 2294 2295 
1 2295 21099 
2 3665 3666 
2 3664 3665 
1 3664 8805 
1 4728 13194 
2 7222 7223 
2 6601 6602 
1 6601 7222 
2 6602 6603 
2 3893 3894 
1 6603 13428 
2 3892 3893 
1 3892 12703 
2 12703 12704 
2 12704 12705 
2 18949 18950 
2 4318 4319 
1 4318 15816 
2 21010 21011 
2 4654 4655 
2 14558 14559 
2 14557 14558 
1 14557 18949 
1 14559 21010 
2 4319 4320 
1 2970 4654 
2 2968 2969 
2 2969 2970 
2 4655 4656 
1 4320 16749 
2 6281 6282 
2 6280 6281 
2 14314 14315 
2 16610 16611 
1 16611 21337 
2 21337 21338 
2 21338 21339 
2 14315 14316 
2 13910 13911 
2 19496 19497 
2 6586 6587 
1 6586 9076 
2 6587 6588 
2 15247 15248 
1 3666 15247 
2 703 704 
1 703 6558 
2 15248 15249 
2 2293 2294 
1 2293 8187 
2 6557 6558 
2 19495 19496 
2 6556 6557 
1 6556 19495 
2 8185 8186 
1 8185 11595 
2 8186 8187 
1 13911 15249 
2 15553 15554 
2 1184 1185 
2 19676 19677 
1 6588 19677 
2 13427 13428 
2 13426 13427 
1 13426 15555 
2 3205 3206 
1 3205 12705 
2 15554 15555 
2 3206 3207 
2 1183 1184 
1 1183 3207 
2 5591 5592 
2 5590 5591 
1 5590 18951 
1 5592 11353 
3 6509 6510 
2 8246 8247 
2 8245 8246 
1 8245 11685 
2 11684 11685 
2 18950 18951 
1 4656 17526 
2 17524 17525 
2 16747 16748 
1 6510 16747 
2 16748 16749 
2 17525 17526 
2 11530 11531 
1 11530 17524 
2 11761 11762 
2 11762 11763 
3 19856 19857 
2 457 458 
3 19855 19856 
1 459 19855 
2 458 459 
3 542 543 
1 543 19857 
3 541 542 
1 541 4779 
2 4778 4779 
2 4777 4778 
1 4777 11497 
2 11497 11498 
2 11498 11499 
1 11499 15600 
3 15599 15600 
2 13975 13976 
2 8810 8811 
1 8811 15598 
3 15598 15599 
2 13976 13977 
2 20092 20093 
2 17249 17250 
2 17248 17249 
1 11424 17248 
1 5259 6633 
2 5258 5259 
2 4262 4263 
2 6632 6633 
2 6631 6632 
2 4261 4262 
1 9732 11296 
2 11296 11297 
2 2234 2235 
2 11297 11298 
2 8809 8810 
1 8809 11298 
1 7029 13977 
2 7028 7029 
2 7027 7028 
1 7027 17890 
2 17890 17891 
2 5359 5360 
2 5360 5361 
2 20093 20094 
2 4255 4256 
2 11422 11423 
2 11423 11424 
2 9686 9687 
1 9687 11422 
1 4257 5359 
2 5257 5258 
1 5257 15742 
2 15742 15743 
2 15743 15744 
2 10864 10865 
1 10864 15744 
2 4256 4257 
2 5642 5643 
2 5641 5642 
1 5641 19720 
1 4263 6408 
2 6407 6408 
2 6406 6407 
1 6406 16608 
2 19720 19721 
2 19721 19722 
3 6238 6239 
3 6239 6240 
2 9731 9732 
2 9730 9731 
2 487 488 
1 487 9730 
2 488 489 
1 489 11638 
1 3066 18310 
2 18311 18312 
2 18310 18311 
2 2233 2234 
1 2233 18312 
2 17891 17892 
2 16879 16880 
1 16879 17892 
2 16880 16881 
1 10590 15417 
2 15416 15417 
2 15415 15416 
1 5361 15415 
2 4808 4809 
2 9685 9686 
2 2369 2370 
2 4807 4808 
2 2368 2369 
1 2368 4807 
1 2370 9685 
2 10865 10866 
2 9271 9272 
1 9271 10866 
2 9272 9273 
1 9273 14361 
2 16607 16608 
1 915 19722 
2 16606 16607 
2 15550 15551 
1 15550 16606 
2 15551 15552 
2 914 915 
1 7701 15552 
2 18527 18528 
2 913 914 
1 913 18528 
2 16847 16848 
2 11638 11639 
2 3065 3066 
2 3064 3065 
2 2791 2792 
1 2791 3064 
2 2792 2793 
2 17885 17886 
1 11640 17884 
2 17884 17885 
2 11639 11640 
2 11584 11585 
1 11584 16881 
2 10588 10589 
1 10588 17821 
2 17821 17822 
2 11585 11586 
2 17822 17823 
2 1387 1388 
1 1387 11586 
2 5690 5691 
2 5689 5690 
1 5689 8461 
1 4809 5691 
2 8461 8462 
2 10589 10590 
2 14360 14361 
2 14359 14360 
2 2527 2528 
1 2527 14359 
2 2528 2529 
1 8238 17626 
2 21476 21477 
2 11038 11039 
1 11038 21477 
2 2425 2426 
1 2425 5232 
2 18526 18527 
2 8237 8238 
1 11040 18526 
2 11039 11040 
2 7700 7701 
2 8236 8237 
2 7699 7700 
1 7699 8236 
2 16846 16847 
1 2427 16846 
2 2426 2427 
2 15088 15089 
2 20863 20864 
1 3618 20865 
2 20864 20865 
1 2793 9670 
2 9670 9671 
1 4251 17886 
2 4249 4250 
1 4249 17377 
2 14125 14126 
2 17377 17378 
2 4250 4251 
2 9671 9672 
1 9672 14125 
2 18727 18728 
2 11749 11750 
2 1388 1389 
2 18728 18729 
1 3267 10345 
1 8463 18729 
2 8462 8463 
1 1389 11751 
2 11750 11751 
2 10345 10346 
2 3266 3267 
2 3265 3266 
1 3265 17823 
2 2626 2627 
1 2626 17628 
1 1014 5221 
1 4959 7881 
2 17627 17628 
2 5221 5222 
2 2627 2628 
2 7880 7881 
2 17626 17627 
1 2529 5223 
2 7879 7880 
1 7879 21475 
2 5222 5223 
2 21475 21476 
2 5231 5232 
2 20131 20132 
1 4578 5230 
2 5230 5231 
2 4577 4578 
2 20132 20133 
2 4541 4542 
2 15089 15090 
2 3616 3617 
1 3616 4542 
2 3617 3618 
1 15090 20133 
2 4540 4541 
2 15137 15138 
2 15136 15137 
1 15136 20092 
2 4705 4706 
2 7372 7373 
1 7372 20094 
2 18542 18543 
1 12234 18541 
2 18541 18542 
2 12599 12600 
2 7373 7374 
2 15496 15497 
1 15496 18816 
2 18815 18816 
2 18814 18815 
2 17795 17796 
2 583 584 
1 583 4707 
2 584 585 
2 4706 4707 
2 17794 17795 
2 19045 19046 
2 19046 19047 
2 12598 12599 
1 12504 12598 
2 12503 12504 
2 7607 7608 
2 12232 12233 
1 7608 12232 
2 12233 12234 
2 12502 12503 
2 11728 11729 
1 11728 12502 
1 15378 19057 
1 7374 19059 
2 19057 19058 
2 15377 15378 
2 19058 19059 
2 14365 14366 
2 15497 15498 
2 12139 12140 
1 12139 15498 
2 12140 12141 
2 2119 2120 
1 2119 17796 
2 2120 2121 
1 3087 14367 
2 14366 14367 
1 585 14365 
2 20251 20252 
1 2121 20251 
2 4378 4379 
1 2043 4378 
2 2042 2043 
2 2041 2042 
1 2041 19047 
2 12679 12680 
2 3553 3554 
1 3553 12916 
2 7606 7607 
1 7606 11389 
2 11389 11390 
2 11729 11730 
1 5052 11730 
2 5051 5052 
2 3229 3230 
1 3229 11391 
2 3230 3231 
2 11390 11391 
2 4786 4787 
1 4786 14599 
2 14599 14600 
2 5050 5051 
1 5050 13089 
2 15376 15377 
1 3555 15376 
2 3554 3555 
2 7417 7418 
1 7417 14601 
2 14600 14601 
2 12916 12917 
2 20252 20253 
2 8674 8675 
1 8674 12141 
2 8675 8676 
2 7748 7749 
1 7749 8676 
2 20578 20579 
2 18812 18813 
2 18811 18812 
2 20579 20580 
1 20253 20580 
2 3086 3087 
1 7293 18811 
2 3085 3086 
1 3085 18813 
1 21057 21060 
2 21059 21060 
2 21058 21059 
1 21058 21169 
2 21169 21170 
2 4379 4380 
2 17537 17538 
1 4380 17538 
2 9989 9990 
2 10267 10268 
2 9988 9989 
1 9988 10267 
2 6634 6635 
2 12680 12681 
1 738 12681 
2 737 738 
2 5813 5814 
1 5814 13087 
1 3231 12297 
1 9009 12295 
2 12296 12297 
2 13088 13089 
2 13087 13088 
2 12295 12296 
1 8475 12918 
2 7418 7419 
1 687 7419 
2 686 687 
2 12917 12918 
2 8474 8475 
1 1167 20578 
2 7747 7748 
2 1166 1167 
2 6214 6215 
1 6214 7747 
1 6216 21360 
2 6215 6216 
2 1165 1166 
1 1165 6184 
2 6184 6185 
2 20039 20040 
2 6185 6186 
2 7292 7293 
2 7291 7292 
1 7291 20040 
2 10268 10269 
2 17536 17537 
2 4375 4376 
2 13978 13979 
1 13978 17536 
2 21170 21171 
1 4377 21171 
2 4376 4377 
2 13979 13980 
1 13566 13980 
2 6635 6636 
2 7741 7742 
2 14297 14298 
3 9622 9623 
1 4788 16603 
2 16603 16604 
2 16604 16605 
2 4787 4788 
2 332 333 
2 331 332 
1 331 17920 
2 17920 17921 
2 17921 17922 
1 1434 17922 
2 7742 7743 
2 17086 17087 
1 7743 17086 
2 17087 17088 
1 9117 19440 
2 19439 19440 
2 19438 19439 
2 21056 21057 
2 21055 21056 
3 20272 20273 
1 20272 21055 
3 20273 20274 
2 14296 14297 
1 14296 19438 
2 7762 7763 
3 9623 9624 
2 16369 16370 
1 9624 16369 
2 12736 12737 
1 12736 16371 
2 16370 16371 
2 1433 1434 
2 1432 1433 
2 9116 9117 
2 20177 20178 
1 9123 17088 
2 9122 9123 
2 9121 9122 
1 9121 18789 
2 16106 16107 
2 20176 20177 
2 9115 9116 
1 9115 16107 
2 18788 18789 
2 7763 7764 
2 1717 1718 
1 1717 7764 
2 1718 1719 
2 18772 18773 
2 18773 18774 
2 5494 5495 
2 5495 5496 
2 12745 12746 
2 12746 12747 
2 12737 12738 
2 11662 11663 
1 11662 12747 
2 11663 11664 
2 21118 21119 
2 16105 16106 
1 15786 16105 
2 2914 2915 
2 1022 1023 
2 18787 18788 
1 18787 21120 
2 21119 21120 
1 1023 15784 
2 15784 15785 
2 15785 15786 
2 2915 2916 
1 15006 21118 
2 7201 7202 
2 21146 21147 
2 7202 7203 
1 7203 16203 
1 1719 13123 
1 13125 21145 
2 21145 21146 
2 13124 13125 
2 13123 13124 
2 16201 16202 
2 16202 16203 
2 12869 12870 
1 558 12666 
2 12665 12666 
2 12664 12665 
3 5719 5720 
1 5719 17550 
3 17549 17550 
3 17548 17549 
3 5720 5721 
1 4602 5755 
3 4600 4601 
1 4600 11439 
3 11438 11439 
3 11437 11438 
3 4601 4602 
2 19948 19949 
2 19949 19950 
3 11891 11892 
2 9838 9839 
1 9840 11892 
2 9839 9840 
2 20921 20922 
2 12868 12869 
2 10418 10419 
2 10417 10418 
2 9077 9078 
3 557 558 
1 9078 20922 
3 556 557 
1 556 18948 
2 20920 20921 
1 1722 20920 
2 1721 1722 
2 18715 18716 
2 18716 18717 
2 17230 17231 
2 4564 4565 
1 4564 6753 
1 4566 17230 
2 4565 4566 
2 2825 2826 
2 2824 2825 
1 2481 18432 
2 2480 2481 
1 2664 2824 
3 18430 18431 
3 18431 18432 
3 5756 5757 
3 2663 2664 
3 2662 2663 
1 2662 5757 
3 4952 4953 
3 4951 4952 
2 17867 17868 
2 17231 17232 
1 5721 18430 
3 5755 5756 
1 17868 18673 
3 18673 18674 
3 18674 18675 
2 721 722 
2 722 723 
2 19001 19002 
2 19000 19001 
1 19000 21339 
2 11594 11595 
2 11968 11969 
1 11968 19497 
2 5320 5321 
1 5320 11970 
2 11969 11970 
2 11593 11594 
1 6129 11593 
2 6128 6129 
2 6127 6128 
1 6127 20832 
2 11941 11942 
2 11795 11796 
2 11794 11795 
1 11794 11941 
2 13909 13910 
1 11796 13909 
1 1185 5124 
2 5123 5124 
2 5122 5123 
1 5122 20575 
2 20575 20576 
2 8495 8496 
1 8496 8907 
2 8906 8907 
2 11683 11684 
1 11683 11710 
2 11711 11712 
2 11710 11711 
2 9761 9762 
2 6752 6753 
2 6751 6752 
1 6751 11712 
1 9762 11355 
2 11354 11355 
2 14083 14084 
1 13350 14083 
2 14084 14085 
2 11531 11532 
3 6508 6509 
1 6508 14085 
2 11353 11354 
1 2826 3771 
2 3770 3771 
2 15655 15656 
2 3769 3770 
1 3769 15655 
2 15656 15657 
2 16582 16583 
3 18424 18425 
3 18425 18426 
2 10342 10343 
1 10342 18426 
2 10343 10344 
1 10344 16582 
2 9896 9897 
2 1720 1721 
2 11942 11943 
2 5321 5322 
1 663 6154 
2 662 663 
2 9895 9896 
1 9895 20830 
2 20830 20831 
2 20831 20832 
2 661 662 
1 661 5322 
2 5383 5384 
1 5383 10836 
1 5385 11943 
2 5384 5385 
2 8905 8906 
1 8905 10416 
2 20576 20577 
2 14257 14258 
1 14257 20577 
2 14258 14259 
1 14259 17541 
1 15447 21048 
2 15446 15447 
2 10414 10415 
1 10414 19848 
2 19847 19848 
2 10415 10416 
2 21047 21048 
2 9760 9761 
1 9760 15445 
2 15445 15446 
2 13349 13350 
2 13348 13349 
1 13348 14317 
2 14317 14318 
2 14318 14319 
2 7229 7230 
1 2541 14319 
2 2479 2480 
1 2479 19425 
2 19424 19425 
2 19423 19424 
1 2250 19423 
2 2249 2250 
2 2248 2249 
1 2248 13567 
1 6156 17866 
2 17866 17867 
2 6155 6156 
2 6154 6155 
2 10835 10836 
2 10834 10835 
2 799 800 
1 799 10834 
2 800 801 
2 17539 17540 
2 17540 17541 
2 19846 19847 
2 5704 5705 
1 5704 19846 
2 5705 5706 
2 21046 21047 
1 17070 21046 
2 17069 17070 
2 17068 17069 
2 15214 15215 
1 15214 17068 
2 15215 15216 
2 13876 13877 
2 13877 13878 
2 2540 2541 
2 2539 2540 
2 20062 20063 
2 7228 7229 
1 7228 12555 
2 12553 12554 
1 12553 20062 
2 12554 12555 
1 13878 20502 
3 14800 14801 
3 14801 14802 
1 14802 15216 
1 18597 20064 
3 18596 18597 
3 18595 18596 
2 20063 20064 
3 1421 1422 
2 19909 19910 
2 14126 14127 
2 17378 17379 
2 19910 19911 
1 8763 19911 
2 8762 8763 
2 5564 5565 
2 5563 5564 
1 5563 17379 
1 5565 18894 
2 8944 8945 
1 8944 11749 
2 10346 10347 
2 9616 9617 
1 9616 18727 
2 4313 4314 
1 8493 9618 
1 4314 8946 
2 8945 8946 
2 9617 9618 
2 18025 18026 
2 18026 18027 
1 10347 18027 
2 8492 8493 
2 3466 3467 
1 3466 18025 
2 1013 1014 
2 7586 7587 
2 8494 8495 
1 8494 15553 
2 7585 7586 
1 7585 20478 
2 5884 5885 
2 1012 1013 
1 1012 5884 
2 5885 5886 
1 2532 5886 
2 4957 4958 
1 4957 7587 
2 178 179 
1 178 11532 
2 179 180 
2 13873 13874 
1 13873 19380 
2 19379 19380 
2 15545 15546 
2 15544 15545 
1 2358 15544 
2 19378 19379 
1 2628 19378 
2 4958 4959 
1 180 6606 
2 2357 2358 
2 4576 4577 
1 4576 15546 
2 10609 10610 
2 10243 10244 
1 10243 15657 
2 10244 10245 
1 10245 10609 
2 10610 10611 
1 11175 15778 
2 11174 11175 
1 15780 18396 
3 15778 15779 
3 15779 15780 
2 11173 11174 
2 5305 5306 
2 5306 5307 
2 13319 13320 
2 8761 8762 
2 18892 18893 
1 13320 18892 
2 18893 18894 
2 7739 7740 
2 4312 4313 
1 4312 11932 
2 11932 11933 
1 7740 11934 
1 555 3468 
2 3467 3468 
2 11933 11934 
2 8491 8492 
1 8491 15003 
2 15002 15003 
2 15001 15002 
1 15001 17467 
2 17467 17468 
2 554 555 
2 17468 17469 
2 14017 14018 
1 14017 20476 
2 20477 20478 
2 14018 14019 
2 2531 2532 
2 2530 2531 
1 2530 13398 
2 16595 16596 
2 16594 16595 
1 13875 16596 
2 13397 13398 
1 2973 16594 
2 20476 20477 
2 13874 13875 
2 6605 6606 
2 6604 6605 
1 6604 7230 
2 13024 13025 
2 13025 13026 
2 2356 2357 
2 1618 1619 
1 1618 2356 
2 16583 16584 
2 13567 13568 
2 13568 13569 
2 12686 12687 
2 12685 12686 
3 18394 18395 
3 18395 18396 
2 16327 16328 
2 7738 7739 
2 13318 13319 
1 13318 16327 
2 553 554 
1 553 13780 
2 13780 13781 
1 7680 17469 
2 7679 7680 
2 7678 7679 
1 14019 18549 
2 18548 18549 
2 18547 18548 
2 9646 9647 
1 9646 18547 
2 14462 14463 
2 13396 13397 
1 13396 14463 
2 2972 2973 
2 2971 2972 
2 14461 14462 
1 14461 18108 
2 18107 18108 
2 7235 7236 
2 15457 15458 
1 15457 16792 
2 7234 7235 
1 7234 20853 
2 20500 20501 
2 3080 3081 
2 3079 3080 
1 3079 20851 
2 20852 20853 
2 20851 20852 
2 20501 20502 
1 12930 15459 
3 12929 12930 
2 15458 15459 
3 12928 12929 
2 9647 9648 
3 743 744 
2 18106 18107 
3 742 743 
1 742 18106 
1 744 17136 
1 4017 6225 
2 6224 6225 
1 1422 6223 
2 6223 6224 
3 1420 1421 
1 1420 19341 
3 19340 19341 
3 19339 19340 
1 1473 19339 
3 1472 1473 
3 1471 1472 
3 17134 17135 
3 17135 17136 
3 11413 11414 
3 11414 11415 
2 4015 4016 
1 4015 11415 
2 4016 4017 
2 11218 11219 
1 11218 16006 
2 16006 16007 
2 16007 16008 
2 11219 11220 
2 736 737 
2 5812 5813 
1 5812 16008 
2 19610 19611 
2 1589 1590 
2 1588 1589 
1 1588 9007 
2 9007 9008 
2 9335 9336 
1 9336 19611 
2 9008 9009 
2 9334 9335 
2 8473 8474 
1 8473 9334 
2 1052 1053 
2 1051 1052 
1 1051 21358 
2 3991 3992 
1 3991 8554 
2 8555 8556 
2 8554 8555 
1 8556 20038 
2 21358 21359 
2 18085 18086 
1 16905 18085 
2 16904 16905 
2 3992 3993 
2 16903 16904 
1 6186 16903 
2 21359 21360 
2 20038 20039 
2 13564 13565 
1 13564 17815 
2 17815 17816 
2 17816 17817 
2 6841 6842 
1 6841 17817 
1 1314 1869 
2 1313 1314 
2 1868 1869 
2 2674 2675 
2 1867 1868 
1 1867 4375 
2 13565 13566 
1 9663 10611 
2 2675 2676 
2 9662 9663 
2 9661 9662 
2 17483 17484 
2 17482 17483 
1 17482 21279 
3 21278 21279 
3 21277 21278 
1 11220 18529 
2 18529 18530 
2 18530 18531 
1 18639 19275 
2 18638 18639 
2 10736 10737 
2 10735 10736 
1 1590 3739 
2 18637 18638 
1 18637 19609 
2 19609 19610 
2 3739 3740 
2 3740 3741 
1 3741 4764 
2 4763 4764 
1 1053 17565 
2 18086 18087 
1 17394 18087 
2 17564 17565 
2 14300 14301 
2 14299 14300 
1 3993 14299 
2 17392 17393 
2 17563 17564 
2 337 338 
1 337 14301 
2 3314 3315 
1 3315 17563 
2 17393 17394 
2 1312 1313 
1 1312 16483 
1 6843 16438 
2 6842 6843 
2 16438 16439 
2 16483 16484 
2 16484 16485 
1 2721 16485 
2 16439 16440 
1 1620 2385 
1 2676 14689 
3 14689 14690 
2 7411 7412 
2 7412 7413 
3 14690 14691 
2 2384 2385 
2 1619 1620 
2 19274 19275 
2 10940 10941 
2 10939 10940 
1 10939 19273 
2 19273 19274 
2 16801 16802 
2 7121 7122 
2 16328 16329 
1 7122 16329 
2 4762 4763 
1 4762 16189 
2 16189 16190 
2 16190 16191 
2 13781 13782 
2 7639 7640 
1 7639 17392 
2 7640 7641 
2 3313 3314 
1 3313 18819 
2 338 339 
1 339 16794 
2 18818 18819 
2 18817 18818 
1 3465 18817 
2 16793 16794 
2 16792 16793 
1 12363 16440 
2 2720 2721 
2 12361 12362 
1 12361 20326 
2 2383 2384 
1 2383 12138 
2 12362 12363 
2 2719 2720 
2 12137 12138 
2 12136 12137 
2 20326 20327 
2 20327 20328 
2 13133 13134 
2 13132 13133 
1 13132 18594 
2 18593 18594 
2 18592 18593 
1 3753 13134 
2 7120 7121 
2 3247 3248 
2 3464 3465 
2 3463 3464 
3 12535 12536 
3 12536 12537 
1 7899 12535 
3 7898 7899 
1 12537 20328 
3 7897 7898 
2 7021 7022 
2 7022 7023 
2 14809 14810 
1 14809 17157 
2 14810 14811 
2 17156 17157 
2 17155 17156 
2 8293 8294 
2 685 686 
1 685 17155 
2 15004 15005 
1 1449 15004 
2 15005 15006 
2 1448 1449 
2 10798 10799 
2 10799 10800 
2 1447 1448 
1 1447 1758 
2 1021 1022 
1 1021 10798 
1 15201 21147 
2 15200 15201 
2 15199 15200 
2 6574 6575 
1 6574 15199 
1 8295 10737 
2 8294 8295 
1 13386 14811 
2 13385 13386 
2 13384 13385 
1 4731 13384 
2 13430 13431 
1 6576 13429 
2 13429 13430 
2 11233 11234 
2 11234 11235 
2 6575 6576 
2 21154 21155 
2 21155 21156 
2 16802 16803 
2 3248 3249 
2 4730 4731 
2 4729 4730 
2 20942 20943 
2 20941 20942 
3 3752 3753 
3 3751 3752 
2 17660 17661 
2 17659 17660 
3 1757 1758 
3 1756 1757 
