ITEM: TIMESTEP
25000000
ITEM: NUMBER OF ATOMS
1422
ITEM: BOX BOUNDS pp pp pp
0.0000000000000000e+00 5.0000000000000000e+01
0.0000000000000000e+00 5.0000000000000000e+01
0.0000000000000000e+00 5.0000000000000000e+01
ITEM: ATOMS id type vx vy vz 
16616 3 1.53607 -1.19993 -2.95403 
16617 1 -0.430417 -8.85628 -1.34377 
16615 1 -3.44207 0.53153 2.56197 
2490 1 -3.8536 0.770533 -2.29887 
14999 2 -1.94506 -0.0276639 0.0193396 
14998 1 3.42489 2.72441 -0.536277 
11890 1 -1.1794 -2.51569 -0.954983 
2263 1 1.15749 -3.26431 1.79818 
15543 1 0.983345 -2.1817 -3.45185 
15542 2 0.626392 4.90009 2.68062 
2264 3 -4.81429 -2.86828 0.615055 
2265 1 -1.57361 1.60373 1.97811 
5088 1 6.05764 -5.25721 4.06693 
5087 3 0.222217 -1.84707 0.652144 
13039 1 -0.503899 -2.9494 -8.07182 
5086 1 -4.39569 -1.52594 0.441051 
6059 2 -0.298003 1.50885 2.9513 
6060 1 2.24878 3.22395 -1.15226 
12966 1 -0.800947 0.874587 4.30018 
12964 1 2.60899 0.900856 -4.03185 
12965 3 3.44038 1.96486 4.87332 
13040 3 -3.91122 -1.37489 -1.2964 
13041 1 -1.96659 0.736417 2.05764 
3897 1 -3.59943 -2.87522 -1.02522 
3896 3 2.45004 0.733952 -3.29005 
3895 1 -0.600407 5.49917 1.40997 
17168 3 1.015 -0.949034 -0.353406 
17167 1 -2.38922 3.53484 -2.65319 
6058 1 -1.10119 -4.30125 -5.30012 
5587 1 2.94243 -2.93492 -2.48807 
5588 2 0.997774 -0.47591 -2.95108 
5589 1 -3.47602 5.13477 -0.472033 
9890 2 0.993791 6.77937 -0.243319 
9889 1 -0.152653 1.99353 -3.53379 
9158 2 2.68427 -1.41221 -3.45345 
9157 1 1.08102 3.67227 -1.61924 
20625 1 1.75581 -2.72719 4.61201 
20624 2 2.65914 -0.487086 0.910218 
20193 1 -5.59769 3.29943 -1.83161 
20623 1 0.96183 4.10441 3.79621 
20191 1 -1.3205 2.25094 5.57719 
20192 2 -1.41584 1.41337 -0.881751 
9891 1 -0.586083 -5.88374 1.38411 
19350 1 5.75704 -3.69044 -1.78188 
19349 2 -1.27799 6.14521 -3.5849 
13192 1 -3.54853 -0.140522 -1.1847 
19348 1 4.27811 2.45072 -4.31365 
13193 2 0.845562 -2.31109 -2.584 
5939 2 2.33561 -0.990043 -0.316822 
5938 1 1.43856 0.627723 1.53101 
5940 1 5.00017 1.52634 -3.12643 
2489 2 1.49032 -0.823699 -2.38265 
9994 1 -1.97089 3.90992 -3.61411 
2488 1 5.40148 2.63556 1.69784 
9995 2 -1.31877 -3.27779 -1.33288 
9996 1 0.71804 -1.89744 -3.29757 
10790 2 2.69726 2.07472 1.53705 
10791 1 -2.66441 -2.94212 1.89056 
19298 2 -3.07821 -1.09071 1.10403 
19297 1 1.45536 0.642635 4.566 
11230 1 4.29008 -0.892145 -6.26975 
10789 1 1.23179 -7.57205 -3.35131 
15000 1 -3.4329 0.280467 0.286013 
4675 1 -4.91616 -1.4184 2.24844 
4676 2 -2.35004 1.82765 -0.300766 
9076 1 0.774327 -1.22869 -6.88125 
11231 2 1.52779 -3.72675 -2.37099 
11232 1 -3.4249 2.85199 0.965714 
15541 1 2.31383 0.819728 2.37357 
20635 1 1.76556 -1.28597 -1.98049 
12341 2 -2.84908 0.0899553 1.73301 
12340 1 -0.399366 -5.20005 -3.40275 
12342 1 -1.6159 -1.60756 -2.66889 
20636 2 0.732181 -1.04594 0.128518 
20637 1 -5.81895 2.48821 -1.74008 
4677 1 -3.08283 7.08711 -6.59491 
48 1 -1.52877 1.81233 2.33614 
15986 2 -5.6286 1.07869 -0.169124 
15987 1 -2.90111 -0.185203 -1.39047 
18947 2 1.0418 3.57593 -3.89502 
47 2 -2.29891 -4.8621 -0.208759 
922 1 -3.1249 0.556483 -1.14207 
46 1 7.27736 1.11353 -0.57229 
18946 1 -2.07249 -0.682484 -2.20882 
15985 1 4.17989 0.683389 1.33696 
923 2 1.78398 1.30274 -0.548351 
8247 1 5.28725 2.57845 4.09756 
14206 1 0.584971 -0.639546 0.572536 
21568 1 -0.802795 6.34528 -3.52286 
8653 1 -0.757747 1.12426 -3.04244 
21570 1 2.20961 -3.58078 5.39855 
21569 3 -1.59462 3.08068 -3.0236 
5618 2 -1.86579 4.92156 -3.42438 
5617 1 -4.20851 -1.93018 -0.114614 
8051 3 0.334278 -3.09303 -1.20441 
8052 1 4.04271 -2.2209 -0.532879 
8050 1 8.75169 -1.31182 0.241697 
14208 1 -2.74893 2.59833 -1.30741 
13960 1 3.6473 0.797633 0.730513 
13961 2 0.259469 0.756713 -0.18508 
14207 3 -1.2896 4.84722 -0.390368 
16060 1 -3.00352 -5.42094 -6.48049 
17169 1 2.42519 -0.428259 -1.87427 
16061 2 0.71511 0.982273 0.856187 
3491 2 1.41589 0.96091 -2.81883 
3492 1 3.32308 -1.74084 7.31503 
3490 1 0.220081 -3.65601 2.15781 
8655 1 4.16143 -1.43814 5.44778 
17804 2 -0.0539788 -4.39399 -0.938994 
3303 1 2.01146 -1.54155 7.10831 
17805 1 -2.57651 4.76314 3.91671 
8654 3 1.70331 -0.0192577 1.49492 
17803 1 1.44253 0.113121 2.5368 
9956 2 0.99377 0.395054 -2.15084 
9957 1 3.1473 -4.56324 -3.48274 
2235 1 -1.0466 4.12413 1.65289 
9955 1 1.89149 -6.74848 4.12072 
8200 1 3.54961 -3.69299 -1.51308 
8201 2 -0.26032 -2.40079 -0.393931 
13962 1 -1.51554 -1.4165 2.04455 
14008 1 0.70118 -1.27101 -3.789 
8202 1 -3.34908 1.0095 -0.854405 
2203 1 -2.04478 3.91588 2.2166 
2204 2 -1.55775 2.95717 -1.68852 
1219 1 -1.07074 0.113355 -0.211113 
1220 2 3.21 1.76126 -1.65374 
1221 1 -1.17514 -0.222439 2.09759 
6073 1 -0.0506751 1.21674 -1.17079 
14010 1 -0.114913 -1.14022 -3.06344 
14009 2 0.804875 -1.17675 -1.87219 
9159 1 0.213742 7.17791 1.45787 
16062 1 -1.25066 -2.90942 -2.87871 
13581 1 2.42206 3.6853 -0.796639 
3302 2 5.08369 -2.7214 -3.48404 
13580 2 -2.88472 -0.818535 -1.60099 
9862 1 9.01105 1.2494 0.34595 
13238 2 -0.433437 0.820973 2.0377 
13237 1 1.60301 6.04022 -3.80661 
2603 2 -3.27986 -1.04055 4.04777 
13579 1 1.54004 1.39056 1.93229 
2604 1 -0.939655 -1.7016 -1.88116 
3301 1 4.96038 -4.62241 -2.51029 
12072 1 -1.16874 -4.98922 -1.04566 
12071 2 -0.915952 -6.11274 -2.10564 
12070 1 -2.56835 -4.58074 7.62675 
9863 2 1.56379 2.85269 2.13017 
13239 1 1.2539 -1.68893 -3.69014 
10572 1 3.01679 -0.638539 -1.06837 
10571 2 -3.35301 0.622953 -1.5931 
10570 1 -6.15404 -3.43772 0.180361 
4969 1 6.73743 3.00193 -0.209342 
12785 2 -1.28506 -1.21737 4.49171 
12784 1 3.41135 -5.34482 -0.264351 
3291 1 1.43543 -3.33382 4.67666 
6074 2 -2.98207 -2.64908 -4.2247 
9608 2 -0.590814 -2.92909 -2.08774 
9607 1 4.03323 -4.63733 0.694997 
2205 1 7.61452 -1.81306 -0.184756 
9609 1 0.183914 2.07801 0.674239 
1243 1 2.23776 -0.356302 3.41352 
3290 2 -1.51333 -2.62369 2.49756 
3289 1 -4.78087 0.597795 -1.9258 
6075 1 -1.24587 -2.62743 -1.02809 
6022 1 4.82305 -0.221434 0.102516 
6023 2 1.46279 0.65683 -2.22358 
6024 1 -4.29804 1.31689 2.99095 
21097 1 -1.59212 1.43905 -4.45315 
8803 1 -1.95001 -1.85703 -4.51088 
5404 1 1.72407 -6.73046 0.0903412 
2602 1 -0.595444 -1.03446 -0.201802 
2572 1 1.8359 1.47054 -0.251988 
5406 1 0.609959 -0.360414 3.65325 
2573 2 -5.87504 0.797042 -1.71078 
9864 1 0.942061 -4.65101 -3.4451 
5405 2 -0.555402 1.75834 1.30555 
7223 2 -0.800082 0.603639 -0.372958 
2574 1 4.09164 1.65135 5.69617 
7224 1 2.89704 1.09155 0.278727 
13641 1 -5.08492 -4.33122 2.15824 
13640 2 -0.391379 2.40403 4.51243 
13639 1 1.28237 -5.16594 -1.88254 
3894 1 2.03116 -3.4322 0.469492 
4970 2 -4.12135 -1.69529 4.22227 
4971 1 4.33188 -1.26805 -2.9521 
21012 1 -8.88712 -1.36325 -0.830901 
21011 2 3.97483 0.33375 2.0212 
15815 3 -3.49559 3.19346 -0.982937 
15814 1 -3.51923 0.261427 -2.64441 
12786 1 -4.99683 3.16459 -4.88853 
2397 1 1.26691 3.0142 2.73451 
2395 1 7.36552 -1.77362 2.26514 
16609 1 -4.08639 0.568057 -7.955 
2396 2 -2.78536 1.39538 0.38888 
19299 1 -0.0791293 0.520256 -0.89936 
19675 1 6.20564 -0.494277 -0.907037 
4726 1 -0.554866 4.49777 5.20727 
4727 2 2.23652 -2.33463 2.92057 
8804 2 0.526676 3.69956 1.8123 
1244 2 -3.43145 -0.667554 -0.696308 
1245 1 0.75042 -4.97607 2.51935 
705 1 2.02201 -2.03085 1.85685 
704 2 0.180586 0.723688 -1.18087 
21098 2 -0.530051 -1.30889 2.9154 
2294 2 1.14839 -1.84632 0.45858 
21099 1 1.18755 -7.92506 -2.44394 
2295 1 1.66077 1.35941 4.76647 
3665 2 -0.567094 -1.61509 0.490327 
8805 1 -0.176678 -2.08333 -5.18875 
3664 1 3.11908 -0.373467 4.8644 
13194 1 -3.78754 -6.81241 -1.19445 
4728 1 4.62958 2.02742 5.59978 
7222 1 -0.627257 1.72837 5.47107 
6601 1 1.13582 -1.55112 -6.29187 
6602 2 0.168299 2.45636 -1.6673 
3893 2 3.01863 -1.65703 -2.165 
13428 1 -6.33645 2.92021 -5.66497 
6603 1 -2.91581 -1.65467 -0.957655 
3892 1 -0.651331 3.24159 0.746731 
12703 1 3.1282 -1.27366 0.822912 
12704 2 -0.77456 -1.17106 -1.08779 
12705 1 -4.08214 2.9914 -3.52719 
18949 1 0.884115 -0.445635 1.43024 
15816 1 -1.65516 -2.01481 -4.6037 
4318 1 -1.18957 2.78864 -8.46264 
21010 1 4.1035 0.0409544 -0.917563 
4654 1 1.57779 0.0167209 -0.00519793 
14558 2 -2.83812 3.95977 -1.94077 
14557 1 0.291308 -0.00683294 -1.54586 
14559 1 -0.244669 -2.07145 -5.2244 
4319 2 0.488738 -2.75633 0.77997 
2970 1 0.668001 5.81271 5.08858 
2968 1 -1.27061 -0.20867 5.11721 
2969 2 0.0839912 0.220909 -0.384477 
4655 2 -3.35405 1.65413 -2.48838 
4320 1 -3.20116 1.59743 -1.77144 
16749 1 1.01233 1.11167 -2.85314 
6281 2 1.24077 0.522729 -2.08771 
6280 1 1.78734 -4.26305 -1.25285 
14314 1 -0.68865 1.11339 3.10763 
14316 1 6.56802 -1.23409 4.82724 
16610 2 1.40899 0.942987 1.6912 
21339 1 -1.51691 -3.73976 2.42366 
16611 1 1.52413 -2.27163 6.69836 
21337 1 -4.47358 -0.578978 1.61604 
21338 2 3.65396 -0.639138 -2.48817 
14315 2 -0.646536 -1.22995 1.9342 
6282 1 -3.04617 0.088613 0.809454 
13910 2 -0.944154 2.96235 2.62653 
19496 2 -0.0549981 2.62772 0.576118 
6586 1 -3.82991 2.3822 3.77776 
6587 2 -0.26622 -0.786199 -3.21568 
15247 1 -2.78484 -5.32907 -1.20292 
3666 1 1.31893 -1.63312 2.81808 
703 1 6.56306 -4.51007 -4.54674 
6558 1 -1.23655 4.4079 3.21814 
15248 2 1.06121 -2.40409 2.6809 
2293 1 0.377885 -2.56563 0.57473 
8187 1 -2.69627 4.95453 -1.57065 
6557 2 2.56677 -1.26508 0.545515 
19495 1 -0.674671 0.73777 -4.57692 
6556 1 1.84412 -1.86927 -3.77934 
8185 1 -2.83825 -4.3077 -2.27968 
8186 2 -6.39127 -0.591461 1.83548 
11595 1 0.506023 -3.30472 5.06656 
15249 1 5.70159 -1.67094 -3.55026 
13911 1 -1.75289 1.11138 -0.218836 
15553 1 -1.99821 4.58585 -2.63275 
1184 2 1.19938 -1.07968 0.840711 
19676 2 -2.24338 1.20259 -0.847718 
6588 1 0.0720227 -2.09189 -2.79251 
19677 1 -2.63828 4.77978 -7.48355 
13427 2 -2.6317 1.06309 0.00367883 
13426 1 2.13255 -4.9529 1.44574 
15555 1 -3.95543 -0.672232 -1.8208 
3205 1 -4.88255 0.209699 1.80485 
15554 2 -1.22313 -5.03451 3.88482 
3206 2 1.18094 3.79385 0.662166 
3207 1 -1.17742 -3.22529 4.3321 
1183 1 2.59737 5.28593 -5.86829 
18951 1 -1.43604 3.87781 0.754069 
5591 2 1.11407 -1.01041 2.51572 
5590 1 4.96015 -1.02589 -0.712415 
5592 1 0.552633 -4.44598 2.15786 
6509 3 1.64393 -0.247308 -3.81953 
8246 2 -1.707 -1.64723 1.22317 
8245 1 8.00881 -1.4978 2.16798 
11684 2 1.02319 -1.95304 -0.014142 
11685 1 -3.29996 -8.55214 1.02538 
18950 2 1.81775 -3.70613 -2.654 
17526 1 -5.05409 3.52781 -0.0589105 
4656 1 -4.01874 0.960226 0.794372 
17524 1 -0.377891 -2.23747 -1.74214 
16747 1 -3.41871 2.55165 2.30995 
6510 1 5.14506 -0.294582 0.655421 
16748 2 -4.3123 -5.95904 1.64482 
17525 2 1.11829 1.26528 -1.77932 
11530 1 -4.89686 -3.26577 1.7315 
11763 1 -0.634016 -0.386105 0.388981 
11761 1 1.16008 -0.119316 5.9828 
11762 2 -2.12456 -0.505881 0.771836 
19856 3 2.33963 1.83632 -1.57194 
457 1 -0.0575664 4.41327 4.18109 
19855 1 -2.8021 -0.336649 -1.3378 
459 1 -3.10579 -3.83579 -1.93794 
458 2 1.3316 0.989546 3.70232 
542 3 2.71035 -5.26885 0.0243219 
543 1 1.74158 -1.82812 2.4294 
19857 1 -2.47283 -0.440082 -1.33899 
4779 1 2.18806 1.71601 -5.02936 
541 1 -1.8771 0.278813 -1.63334 
5619 1 2.11726 1.22005 -1.71576 
4778 2 -0.615551 1.25102 -3.73544 
4777 1 -0.982248 6.83658 -3.19242 
11497 1 8.70779 -5.44712 2.83658 
11498 2 -5.58822 -0.184035 1.79563 
11499 1 5.0025 -1.85053 1.20407 
15600 1 -6.38976 -4.10109 2.2808 
15599 3 -3.73014 -0.124543 -0.651536 
13975 1 -8.18801 1.56408 -3.71219 
8810 2 0.217442 1.55013 0.633633 
8811 1 4.92831 1.75159 0.0539904 
15598 1 0.34694 0.672162 -2.49449 
13976 2 -1.2553 0.905825 -2.20211 
20092 1 -7.96738 -5.5521 0.00706497 
17249 2 -2.13222 2.50614 1.90151 
17250 1 -2.45131 9.59877 1.95674 
17248 1 1.74979 -0.586996 3.47558 
11424 1 -5.02484 -2.6207 -0.0364576 
5259 1 1.23835 -1.07903 1.32145 
5258 2 -0.649446 0.315043 5.35765 
6633 1 -4.7744 1.87692 -4.98932 
5643 1 -2.89152 -1.64835 4.6714 
4262 2 -0.316732 0.125045 -1.76081 
6632 2 -3.14917 4.03108 4.4425 
6631 1 -0.226005 -3.10095 -4.27632 
4261 1 -2.29135 5.56259 5.26734 
9732 1 -1.58003 -3.22375 -1.96475 
11296 1 1.75585 5.69657 1.13803 
11298 1 -5.20688 -1.71806 0.506505 
2234 2 -0.132615 3.29789 1.23504 
11297 2 3.50204 3.69423 0.770512 
8809 1 -4.374 2.50815 0.577871 
13977 1 -4.61386 -5.33725 -0.607219 
7029 1 -0.708289 2.30783 0.816 
7028 2 2.87506 -4.09512 -0.0292799 
7027 1 -5.5562 0.479156 0.61285 
17890 1 2.69894 -1.18775 5.8947 
5359 1 0.251209 -0.884858 2.35533 
5360 2 1.48673 2.11432 0.473455 
20093 2 -1.60355 -4.41602 -2.36341 
4255 1 1.11126 -4.18362 -5.17032 
11422 1 -0.439964 1.65442 -1.04812 
11423 2 -1.2309 0.507249 1.25648 
9686 2 1.07721 -5.43053 -1.24926 
9687 1 -3.22691 -2.33543 4.33065 
4257 1 -3.70814 2.07892 -1.69325 
5257 1 0.200167 3.69711 5.67454 
15742 1 2.40736 2.02752 0.108919 
15743 2 -4.09449 -0.115832 2.00031 
15744 1 1.53356 -0.745314 3.27891 
10864 1 -1.93979 1.69341 3.86625 
4256 2 1.03646 1.83739 2.68994 
5642 2 5.68496 -4.19599 1.30371 
5641 1 2.80066 1.1415 0.130972 
4263 1 -1.6404 -1.28731 -0.169213 
6407 2 -2.78136 4.56329 -1.30471 
6408 1 -2.71845 -2.3529 3.90721 
6406 1 8.91467 -0.433552 -4.56357 
16608 1 -0.285851 -0.539119 0.151591 
19720 1 7.00842 1.98753 -0.685599 
19721 2 -0.258353 1.11738 -2.69668 
19722 1 2.19839 1.12508 8.09752 
6238 1 -2.83461 -1.19583 -2.42245 
6239 3 -0.135082 1.85706 2.34798 
9731 2 -4.10633 -2.04058 1.22678 
9730 1 -4.78793 -3.7793 -1.554 
487 1 -4.02342 3.8943 2.53135 
488 2 -0.585642 -0.447483 -3.61104 
489 1 1.37668 2.31601 1.98687 
3066 1 -4.38239 3.51479 4.55353 
18311 2 -1.46743 -2.3083 -2.52042 
18310 1 0.201285 -3.18776 -0.888898 
2233 1 3.78378 -0.333597 8.07483 
18312 1 -0.658697 1.64045 0.0791974 
17891 2 -0.135998 -0.886556 -1.44959 
17892 1 3.45841 -7.06971 0.0932306 
16879 1 -3.87077 -2.91151 2.38787 
16880 2 4.72392 2.68628 -5.52733 
10590 1 0.270249 3.30112 -3.17274 
15416 2 1.23629 -2.41556 1.2321 
15417 1 8.42727 -0.28369 2.07724 
15415 1 -2.35837 1.47652 0.803006 
5361 1 4.8986 -0.658297 1.02321 
4808 2 -1.35483 -3.56398 0.402131 
9685 1 0.315121 1.99849 -1.66761 
2369 2 -1.63911 0.720971 4.78857 
4807 1 -2.73116 5.39667 -1.14704 
2368 1 4.39052 5.84814 0.715889 
2370 1 1.72328 2.66201 7.19039 
10865 2 2.29946 1.48721 1.72353 
9271 1 -1.41385 3.35315 -4.51695 
10866 1 2.66005 2.82923 0.995033 
9272 2 0.48611 1.54606 -0.0652714 
9273 1 2.59768 -3.15965 1.92029 
16607 2 1.33911 3.77669 2.19395 
915 1 7.31302 4.03042 6.18316 
16606 1 1.13741 -4.86568 -0.439339 
15550 1 -3.75775 0.878939 0.299259 
15551 2 1.67593 -1.59566 1.75238 
914 2 -1.90613 -3.92143 0.969531 
15552 1 3.47094 -3.88098 -0.526205 
7701 1 0.557579 1.16723 -0.814267 
18527 2 -2.97813 -1.66381 -0.796714 
913 1 0.950145 -0.999376 -11.2181 
18528 1 2.88099 1.45936 -0.822704 
16848 1 2.01371 -1.52594 1.11949 
16847 2 -1.90033 1.61226 0.19333 
11638 1 0.252956 -1.53951 -2.01752 
3065 2 -1.47403 1.27085 -1.30545 
3064 1 -5.78102 4.61251 6.81885 
2791 1 -0.545104 0.373049 1.71641 
2792 2 -5.03567 1.82594 -1.62018 
17885 2 0.885775 -2.46457 -2.11433 
11640 1 0.105772 -2.3749 1.27222 
17884 1 5.00298 5.58869 0.853087 
11639 2 -0.678023 0.729797 3.20827 
16881 1 -0.732605 0.0691936 1.72962 
11584 1 4.19165 2.96039 -0.112162 
10588 1 -0.199892 0.0141336 -0.192538 
17821 1 3.05163 1.58055 -1.23739 
11585 2 4.50754 1.29197 -0.922765 
17822 2 2.75635 -0.722788 -1.81616 
11586 1 -4.06239 -4.82324 2.20003 
1387 1 6.09535 1.64644 0.952075 
5690 2 0.601337 1.67466 -2.95935 
5689 1 0.145431 -1.25876 4.18667 
4809 1 -5.04411 3.47831 -8.60333 
5691 1 -0.327088 -11.499 -1.39023 
8461 1 0.449453 4.99555 2.58132 
10589 2 1.56005 0.550584 -3.57701 
14361 1 -6.76332 0.585 -2.13898 
14360 2 -0.00916955 0.404284 -1.12628 
14359 1 2.81993 1.85586 -2.20871 
2527 1 -1.19552 -0.434944 1.72522 
2528 2 -0.32905 1.29738 0.270582 
8238 1 1.60345 2.40159 1.35446 
21476 2 2.61433 -3.76913 3.90762 
11038 1 -1.1802 0.764623 -3.14335 
21477 1 10.4751 1.16987 3.88846 
2425 1 1.31098 -2.34261 2.20685 
5232 1 -0.429843 -4.12041 -2.42509 
18526 1 -3.1757 -4.06243 -0.587009 
8237 2 -4.84122 -4.43463 1.52843 
11040 1 -5.07507 -4.14297 -1.46352 
11039 2 0.282749 2.96703 2.1992 
7700 2 -5.93761 -0.224332 1.69304 
8236 1 0.367492 4.92826 1.6646 
7699 1 1.01 1.43434 -1.07251 
16846 1 -0.739137 1.50109 -3.88564 
2427 1 -1.2223 -4.75594 0.896745 
2426 2 -4.13386 -0.149478 0.683173 
15088 1 7.38072 -0.698007 3.48033 
20863 1 -3.28985 -0.219116 -6.35964 
3618 1 3.30871 -0.182696 3.13034 
20864 2 -1.34448 3.75623 0.809437 
20865 1 5.03211 -3.09878 -2.19098 
2793 1 -4.99915 -1.34686 3.00551 
9670 1 -2.12242 5.85678 -1.80734 
17886 1 0.302003 2.86773 0.486767 
4251 1 7.80512 3.48204 1.12131 
4249 1 1.15465 2.93412 -0.0198953 
14125 1 1.39563 7.2325 -5.07935 
17377 1 -1.20424 -2.37121 -2.33273 
4250 2 1.46789 0.80628 -0.154876 
9671 2 5.6872 0.102223 0.0316681 
9672 1 -0.283318 -2.29946 5.55284 
18727 1 1.7363 -0.61599 -1.49669 
11749 1 -0.0460142 -7.47133 0.0263103 
1388 2 3.31786 0.491988 6.06638 
17823 1 -1.48219 2.53445 0.325944 
18728 2 4.52021 4.19887 -1.51871 
11751 1 -5.0633 -2.31803 -3.07309 
3267 1 -7.81991 1.82088 0.122256 
8463 1 -0.158458 -3.39754 0.948541 
18729 1 -0.148755 -1.52667 0.131116 
8462 2 -1.40226 -0.815493 0.775526 
1389 1 4.51881 2.25023 1.75224 
11750 2 -1.34141 -0.510089 -4.6696 
10345 1 0.0899291 -0.983141 -2.42889 
3266 2 -2.3543 1.80871 3.40755 
3265 1 -0.0270207 -0.973298 4.45027 
2626 1 3.03586 -2.71 -3.77138 
17628 1 -2.30426 -4.41075 -2.34253 
1014 1 1.69102 1.19623 0.223288 
4959 1 -0.608281 0.0692824 3.04569 
17627 2 1.75704 3.24567 3.35296 
5221 1 0.761116 -0.0428413 0.656693 
2627 2 1.18013 -1.12235 1.43597 
7880 2 0.77255 6.14775 1.68139 
7881 1 3.10584 -2.69863 6.79732 
17626 1 -1.91531 -2.34846 -1.01075 
2529 1 -0.242447 3.61039 1.99144 
5223 1 -1.08026 0.12009 1.13323 
7879 1 0.812246 -2.91672 -7.1083 
5222 2 -0.21915 -1.00637 -4.93129 
21475 1 -7.38852 -1.90983 -2.06842 
5231 2 -5.51166 2.07146 -2.0459 
20131 1 -2.47823 -4.48564 0.72882 
4578 1 -1.42125 -5.71736 2.45879 
5230 1 -5.02527 -3.33291 1.3345 
4577 2 -1.67299 1.06919 -0.248424 
20132 2 3.34973 -2.96265 -0.902853 
4541 2 0.841959 1.41545 -2.12664 
4542 1 1.77239 -5.31858 -2.64768 
15089 2 1.12128 0.322508 -0.588791 
20133 1 0.0101537 -1.10263 0.07809 
3616 1 0.396421 0.455646 -0.842391 
3617 2 1.22906 0.210427 -1.88978 
15090 1 2.79897 2.63329 4.42248 
4540 1 -3.99608 -1.6796 1.37048 
15137 2 -3.25018 1.56657 -0.770606 
15138 1 -7.36504 0.445156 4.26166 
15136 1 0.503219 -0.785592 4.50532 
4705 1 -2.94009 -4.8765 6.43213 
20094 1 -2.51729 1.52967 5.09767 
7372 1 -3.89253 1.49952 -4.66559 
12600 1 -2.00101 -0.97254 2.26857 
18542 2 1.5841 0.922853 2.49132 
18543 1 -3.0692 3.77397 1.59601 
12234 1 -3.84273 -2.87734 -2.39967 
18541 1 -2.36322 -0.292156 4.19378 
12599 2 -2.158 -0.278864 4.74201 
7373 2 -4.40053 0.258212 1.00172 
15496 1 -13.6427 3.84073 4.15779 
18816 1 -3.74333 0.10988 -0.863998 
18815 2 2.3415 -2.47083 -1.35929 
18814 1 -2.03048 -3.28759 2.22526 
17795 2 -0.094097 0.547034 4.25195 
4707 1 -0.679893 2.7371 1.61091 
583 1 -4.33266 4.32928 -1.50645 
584 2 1.20082 -1.4055 3.66107 
4706 2 -2.75146 -0.491589 -0.37896 
17794 1 -3.54511 -6.65066 4.79938 
19045 1 4.3003 -3.96698 3.06229 
19046 2 -0.434382 3.46306 -2.17468 
6240 1 -5.54587 -1.50446 4.57041 
12598 1 4.26446 0.366034 -3.13624 
12504 1 2.47976 1.76155 -2.73536 
12503 2 0.270466 -1.23845 -2.03673 
7607 2 -0.846841 -0.273745 -1.16371 
12232 1 -0.468109 2.78353 3.58621 
7608 1 -4.78521 1.62204 0.788493 
12233 2 -5.47239 -1.6647 4.40933 
12502 1 0.517768 3.98849 -1.98717 
11728 1 0.371416 -0.3059 1.01921 
15378 1 -4.73523 -4.12354 -7.08887 
7374 1 0.919963 3.58166 -2.44018 
19057 1 -3.63507 1.76446 -2.03981 
15377 2 0.815013 -0.128102 1.00446 
19058 2 -1.70138 1.44406 1.95489 
19059 1 7.3568 -2.14392 -3.32411 
14365 1 -1.98971 0.36959 1.58631 
15497 2 -1.28699 -1.01599 -0.934031 
15498 1 6.59569 -4.09721 -2.69389 
12139 1 -1.63993 4.52987 -1.43549 
12140 2 1.84994 -2.38734 -2.38084 
12141 1 -4.14207 5.64754 0.165857 
17796 1 -1.23143 -2.86081 1.66704 
2119 1 -1.42943 -3.13713 0.188277 
2120 2 -0.985789 3.79647 2.22814 
3087 1 3.45286 0.896682 -2.3508 
14367 1 0.513814 2.07771 1.32524 
14366 2 2.606 -1.77327 -1.77768 
585 1 4.27645 3.48139 -3.25169 
20251 1 -1.87721 -4.7538 -0.234502 
2121 1 3.76531 -4.86979 3.37098 
4378 1 -0.122212 -2.37873 -3.25165 
2043 1 -3.97624 -0.464274 2.19614 
2042 2 -2.53511 -0.217955 -0.882744 
2041 1 -2.70773 1.17238 2.79897 
19047 1 -2.82496 2.05254 0.516237 
20274 1 2.89381 2.59299 2.19113 
12679 1 3.54703 -3.0504 6.21662 
3553 1 -5.63151 6.62302 -1.6245 
7606 1 -1.00861 -1.70789 -1.395 
11389 1 1.54975 0.322656 -5.19148 
11729 2 0.503125 4.02962 -0.829698 
11391 1 -4.48576 1.80932 -7.22677 
11730 1 -0.193674 -0.541101 -2.46199 
5052 1 -2.63517 -3.50418 -0.256252 
5051 2 1.52708 0.984352 -3.55188 
3229 1 0.682193 -4.48151 -3.3143 
3230 2 -1.45891 -0.143174 0.195031 
11390 2 0.299932 3.27355 1.15141 
4786 1 -0.995464 0.523335 -5.62713 
14599 1 -3.72222 -1.9308 -0.690079 
5050 1 2.39112 1.00455 3.0926 
15376 1 0.939052 1.35809 4.09092 
3555 1 5.44373 -2.95951 2.24364 
3554 2 2.3867 3.72476 0.33844 
14601 1 0.459717 -0.671174 1.61874 
7417 1 1.45027 1.94219 4.63976 
14600 2 0.904475 1.18527 -0.751288 
12916 1 -2.85326 2.84679 4.06467 
20252 2 5.24371 -1.42116 3.61713 
18813 1 1.95338 -0.821479 2.16365 
8674 1 -4.36019 5.01999 1.86266 
8675 2 -2.11473 -4.37832 -5.26308 
7748 2 -3.95338 -1.50737 2.53106 
8676 1 -3.468 -7.74856 -2.11127 
7749 1 4.00485 3.92669 0.959113 
20578 1 -0.908971 9.9654 -5.83559 
18812 2 -1.65177 0.330974 -1.95008 
18811 1 2.46813 7.97754 1.01554 
20580 1 4.50706 -0.0232712 -3.80823 
20579 2 2.53019 4.04381 1.64876 
20253 1 -5.16394 4.37988 2.00634 
3086 2 -1.996 2.00362 -2.34216 
7293 1 -2.34697 -0.597758 2.73563 
3085 1 -4.54374 -2.77038 2.94155 
21057 1 2.44794 1.04929 0.67485 
21060 1 4.5009 5.2167 4.91227 
21059 2 -0.231607 -1.67176 0.00348401 
21058 1 0.37365 -2.36921 4.8415 
21169 1 1.7476 -0.704002 -4.95023 
4379 2 -0.685953 2.00074 1.46901 
17537 2 -1.9388 1.16173 2.53472 
4380 1 2.65989 2.92055 0.420658 
17538 1 -8.03258 5.68845 -1.0382 
9990 1 -0.422524 -0.12321 -1.95155 
9989 2 0.553871 0.480842 2.90464 
10267 1 2.89814 6.56492 3.67424 
9988 1 0.441873 5.7671 -8.25776 
6634 1 -0.191254 -1.37704 -5.6768 
5496 1 3.38656 -4.38506 -6.23987 
12680 2 2.38316 -1.9723 -1.88689 
12681 1 0.792266 7.1332 -3.08031 
738 1 -2.13312 -2.99758 -2.12116 
737 2 -4.78785 0.756975 5.24916 
5813 2 0.395125 -0.10921 -1.38162 
5814 1 -6.01187 7.76337 5.05795 
13089 1 3.29502 8.45478 2.54206 
3231 1 3.46791 4.60642 3.87233 
9009 1 3.11197 4.06766 0.12529 
12297 1 -3.51631 8.56186 0.380052 
12296 2 -0.633521 -0.975472 0.724654 
13088 2 3.32518 -0.53399 2.02213 
13087 1 -0.193259 -1.0346 2.96923 
12295 1 -4.3624 -1.90861 -4.5509 
8475 1 -2.0023 -3.58556 -2.05982 
7418 2 -1.55612 1.07193 -2.88989 
7419 1 0.0106128 -0.52094 -5.22834 
687 1 0.761579 1.95509 -3.67193 
686 2 4.3819 2.61212 -1.09958 
12917 2 2.08629 -2.19081 3.57674 
8474 2 -6.17576 -2.14545 1.49162 
12918 1 -0.965605 -4.37505 -6.43792 
1167 1 -6.82279 -0.503342 -4.14609 
7747 1 -2.20841 0.470305 0.121505 
1166 2 -0.507487 -0.162924 -0.315897 
6214 1 -0.976976 1.7588 -2.75289 
6216 1 0.840583 0.378893 -2.08906 
21360 1 -9.21396 -4.76895 1.5879 
6215 2 -2.71337 1.76291 -0.983772 
1165 1 -1.16794 -3.69569 2.64088 
6184 1 1.15728 -6.34765 3.56272 
20039 2 3.1399 2.58894 -2.31033 
6185 2 -2.62745 3.55332 3.40044 
20040 1 -0.279201 9.27639 2.10695 
7292 2 -3.33524 -0.904543 -3.93662 
7291 1 -1.97975 -7.22195 -0.638961 
10268 2 1.01403 4.02058 -3.12395 
17536 1 1.65337 0.547289 -4.52421 
4375 1 7.45893 -1.83895 -1.11802 
13978 1 -7.41016 0.802684 2.73428 
21170 2 1.20735 0.356231 -1.08215 
4377 1 3.07983 0.411488 -0.247956 
21171 1 -0.273872 1.78768 -0.969451 
4376 2 0.85555 3.78893 -1.08266 
13979 2 4.19374 -1.00125 2.62701 
13980 1 -3.54993 0.972009 -1.29759 
13566 1 0.936132 5.17739 2.60441 
10269 1 -2.97229 -1.21992 -3.24238 
6636 1 -0.324622 0.109114 3.37576 
6635 2 -2.34956 1.65002 1.35538 
333 1 5.27453 3.43201 -9.57331 
7741 1 -4.29129 0.965642 -2.20214 
14298 1 1.26108 -2.49279 -2.24378 
14297 2 1.04711 -3.54792 0.644044 
9622 1 8.62653 0.150011 0.945034 
4788 1 1.01472 -2.25291 0.0250367 
16603 1 -1.59647 -0.343893 -1.01724 
16605 1 1.06787 -5.08906 -1.95773 
16604 2 1.58172 -3.19861 3.46247 
4787 2 1.38838 1.00325 1.2921 
332 2 -4.40579 1.00739 -1.48767 
331 1 -5.75033 -3.59934 0.0255708 
17920 1 -4.66699 -2.09529 3.57737 
17921 2 2.37054 -1.17906 4.79897 
1434 1 -0.454309 -1.35969 1.73686 
17922 1 -2.65425 3.85232 -2.04295 
7742 2 -1.02719 -1.19198 0.504676 
17086 1 1.68634 -1.39996 -5.44113 
7743 1 -2.22979 -1.11042 -1.3968 
17087 2 1.0233 -1.276 -3.2744 
19440 1 -1.54615 1.9898 -1.70376 
9117 1 -1.24235 4.19838 -5.97177 
19439 2 0.517792 -1.30603 -1.31873 
19438 1 -1.68008 -1.80878 2.40008 
17088 1 -2.38261 1.76967 -4.98107 
21056 2 0.22835 -2.45119 -0.351068 
21055 1 -5.00305 -2.4675 6.31124 
20272 1 -3.10189 -0.0798233 -10.3394 
20273 3 0.528386 5.51531 -4.69048 
14296 1 -3.01236 -1.03398 -4.39399 
7762 1 -3.51928 0.849734 -0.257085 
9623 3 -0.562583 -0.465059 -0.495907 
16369 1 -0.311568 4.33259 2.006 
9624 1 5.22134 -0.452449 -1.80955 
12736 1 -3.11375 3.0396 0.0919632 
16371 1 0.00916529 2.31015 3.24265 
16370 2 4.3766 -3.2639 0.646156 
1433 2 -7.65751 -1.67433 0.786758 
1432 1 0.55584 4.23915 0.238937 
9116 2 0.385747 2.74402 -2.93968 
20178 1 2.30266 2.20944 -1.46154 
20177 2 2.31444 -4.77547 0.934236 
9123 1 3.51459 -0.222563 1.51424 
9122 2 -1.69197 -2.00502 -1.74926 
9121 1 7.42824 4.61354 -3.26057 
18789 1 -1.70314 0.565478 -0.461099 
16106 2 4.66272 2.38497 -0.0377938 
20176 1 -1.31186 1.78779 -0.797797 
9115 1 -7.18773 -4.47152 6.03082 
16107 1 -5.31257 2.95487 4.13826 
18788 2 1.99133 -2.8166 0.647769 
7763 2 0.224606 -0.201933 0.49057 
7764 1 2.59215 5.56602 -3.67397 
1717 1 2.15615 -0.14264 2.50166 
1718 2 -2.93022 -2.46723 2.73895 
18772 1 -3.60789 -2.98232 -1.79223 
18773 2 3.59408 -1.15998 0.220385 
18774 1 3.41024 -2.7654 1.348 
5494 1 4.33195 -2.16836 0.120228 
5495 2 -1.40418 -0.851281 2.54849 
12745 1 5.85619 0.910791 5.95148 
12746 2 -3.3911 3.05002 4.22093 
12738 1 1.44699 -0.24166 -4.33858 
12737 2 0.408883 1.36795 4.24376 
12747 1 -4.15242 -1.03095 0.290266 
11662 1 5.07736 0.0888609 4.66284 
11664 1 -1.77469 1.28908 -0.663544 
11663 2 -1.38762 -3.19834 2.99444 
21118 1 2.37295 -0.394123 -5.10042 
16105 1 7.66962 -2.98675 0.11662 
15786 1 2.29043 -1.95533 0.583448 
2914 1 0.048189 -3.88598 5.06166 
1022 2 3.979 1.01766 1.65886 
18787 1 -2.64154 -0.0344745 1.74692 
21120 1 5.08642 2.33933 -6.23216 
21119 2 3.00367 2.34354 0.698484 
1023 1 -3.39044 -2.23088 -4.30386 
15784 1 3.71236 -5.52532 3.44079 
15785 2 -3.40305 2.34116 -0.0472408 
2915 2 -1.65315 -2.60177 3.18206 
2916 1 -3.0178 -8.39107 -0.462421 
15006 1 2.55175 -0.83688 0.757198 
7201 1 2.74866 0.0385083 -0.449144 
21146 2 1.49768 0.147069 -1.92906 
7202 2 -4.52826 1.94919 0.0620046 
7203 1 -4.97108 0.311239 -2.20669 
1719 1 3.63168 0.505792 1.61723 
13125 1 -1.98035 -5.07502 -2.09885 
21145 1 -7.05385 1.436 6.8555 
13124 2 -0.151218 -5.42753 -3.64075 
13123 1 -1.31922 0.887034 -0.359075 
16201 1 5.27064 0.509498 -0.450915 
16202 2 -2.0755 -1.64943 0.229876 
16203 1 0.728195 -1.83899 -1.11226 
12870 1 -1.49045 -0.291782 -1.54243 
12869 2 2.76323 -2.28506 -0.826681 
558 1 0.903487 -1.21427 -0.305556 
12665 2 -4.03125 -1.31513 -0.736499 
12666 1 3.8277 -1.00284 -2.60105 
12664 1 -3.58881 7.76777 0.334255 
5719 1 0.234286 -2.17996 1.83237 
17550 1 -2.56191 -1.82768 -2.63078 
17549 3 3.36009 -2.59963 2.86144 
17548 1 2.45739 -3.20581 2.35878 
5720 3 -2.44978 7.08618 0.961142 
4602 1 -0.162592 -3.34042 1.1864 
11439 1 0.0936803 -0.13092 1.68753 
4600 1 -0.839311 -5.48132 2.38735 
11438 3 4.67017 3.79879 -3.00009 
11437 1 -5.41247 -4.97858 -0.27584 
4601 3 -1.49741 1.36641 3.3827 
19948 1 -0.820426 -2.50254 -0.132711 
19949 2 -1.94189 -0.665847 4.5456 
11891 3 -0.833412 -1.00978 2.816 
19950 1 -1.0146 1.46392 -1.9758 
9838 1 -5.74848 1.05054 -3.60127 
11892 1 -6.37463 5.22178 -5.01567 
9840 1 -2.5714 -4.48944 0.740669 
9839 2 -1.57985 0.15747 -4.83591 
20921 2 -1.6978 -2.25535 -1.81995 
12868 1 1.22592 -0.471948 -5.33394 
924 1 -3.61763 -3.5352 -0.983652 
10419 1 4.81224 -4.96282 -3.37747 
10418 2 4.05197 4.64123 2.72258 
10417 1 -1.66943 -0.939797 2.10578 
9077 2 2.67549 -1.32985 1.90838 
557 3 1.09081 3.52582 2.64363 
9078 1 -7.31286 -0.014382 -2.08203 
556 1 -1.75 -2.01813 0.496693 
18948 1 -1.06573 -3.06151 -4.3328 
20920 1 3.9832 3.54819 5.60037 
1722 1 -3.54413 -1.53714 5.41527 
1721 2 -2.03175 0.320107 -2.71887 
18715 1 -1.17284 1.80107 0.658252 
18717 1 -4.37399 -2.67368 -1.48759 
18716 2 -2.98213 2.18671 2.14499 
17230 1 -0.860429 -1.54806 -4.08324 
4564 1 -2.14046 -1.1438 -3.17351 
6753 1 -2.51085 -0.102169 -0.793848 
4566 1 -4.42669 4.03631 -3.32571 
4565 2 4.31097 2.58297 -3.28018 
2825 2 0.0743736 0.384197 2.71324 
2824 1 -8.50794 -1.88343 3.2516 
2481 1 2.48331 5.93663 4.43901 
18432 1 4.33682 3.01924 6.60609 
2480 2 1.61622 -2.19817 0.831627 
2664 1 -1.76991 -0.95211 -3.22975 
18430 1 0.426318 -2.43163 -0.366396 
18431 3 0.462396 -0.895307 0.569379 
5756 3 -1.13195 3.80142 0.239433 
2663 3 -2.80158 -2.20371 -0.147178 
5757 1 1.59566 4.54781 -1.73896 
2662 1 -7.57233 -2.59347 2.01392 
4952 3 1.77374 -1.16226 -2.80672 
4951 1 -8.77516 -3.15836 2.62306 
4953 1 2.52494 -1.59628 5.18792 
17867 2 -0.209716 0.661364 0.911143 
17231 2 -0.156083 3.17572 2.25078 
17232 1 -1.65683 1.41836 -2.80736 
5721 1 -1.13149 -1.05492 -0.274532 
5755 1 -2.41521 2.51342 -0.196204 
17868 1 10.3109 -0.33658 -0.178083 
18673 1 -4.12645 3.03714 -3.98459 
18674 3 0.435305 2.82681 -1.14104 
18675 1 0.468466 2.51924 2.34007 
721 1 -0.054675 -2.71886 2.84398 
722 2 1.08502 -0.403625 0.0507548 
19002 1 5.65183 -3.73313 -1.23363 
19001 2 1.21907 -1.41212 3.83262 
19000 1 -5.64035 2.57016 -1.6562 
14127 1 -2.53284 2.73695 -3.88479 
11594 2 -0.861058 3.25787 -0.364229 
19497 1 -5.91033 0.770498 -5.00297 
11968 1 0.885204 -0.531216 0.117572 
5320 1 -1.65432 -6.58896 3.4204 
11970 1 -3.19214 -0.512996 7.07393 
11969 2 -2.73687 1.66959 3.38195 