ITEM: TIMESTEP
0
ITEM: NUMBER OF ATOMS
2343
ITEM: BOX BOUNDS pp pp pp
0.0000000000000000e+00 5.0000000000000000e+01
0.0000000000000000e+00 5.0000000000000000e+01
0.0000000000000000e+00 5.0000000000000000e+01
ITEM: ATOMS id type 
67 1 
68 2 
69 1 
127 1 
128 3 
129 1 
181 1 
182 2 
183 1 
190 1 
191 2 
192 1 
310 1 
311 2 
312 1 
1207 1 
1208 2 
1209 1 
1261 1 
1262 3 
1263 1 
1381 1 
1382 2 
1383 1 
1510 1 
1511 3 
1512 1 
2221 1 
2222 3 
2223 1 
2404 1 
2405 3 
2406 1 
2407 1 
2408 3 
2409 1 
2464 1 
2465 2 
2466 1 
3181 1 
3182 2 
3183 1 
3547 1 
3548 2 
3549 1 
3550 1 
3551 2 
3552 1 
4381 1 
4382 3 
4383 1 
4630 1 
4631 3 
4632 1 
5470 1 
5471 2 
5472 1 
5584 1 
5585 3 
5586 1 
5770 1 
5771 2 
5772 1 
6661 1 
6662 2 
6663 1 
7204 1 
7205 2 
7206 1 
7810 1 
7811 3 
7812 1 
7924 1 
7925 2 
7926 1 
7984 1 
7985 2 
7986 1 
8044 1 
8045 2 
8046 1 
8167 1 
8168 2 
8169 1 
8224 1 
8225 3 
8226 1 
8890 1 
8891 2 
8892 1 
9184 1 
9185 2 
9186 1 
9190 1 
9191 3 
9192 1 
10027 1 
10028 3 
10029 1 
136 1 
137 2 
138 1 
322 1 
323 2 
324 1 
373 1 
374 3 
375 1 
502 1 
503 2 
504 1 
1636 1 
1637 3 
1638 1 
2296 1 
2297 2 
2298 1 
2359 1 
2360 3 
2361 1 
2413 1 
2414 2 
2415 1 
2416 1 
2417 2 
2418 1 
2536 1 
2537 3 
2538 1 
3319 1 
3320 2 
3321 1 
3559 1 
3560 3 
3561 1 
3679 1 
3680 2 
3681 1 
4462 1 
4463 2 
4464 1 
4582 1 
4583 2 
4584 1 
4759 1 
4760 3 
4761 1 
4816 1 
4817 2 
4818 1 
5533 1 
5534 3 
5535 1 
5593 1 
5594 3 
5595 1 
5773 1 
5774 2 
5775 1 
5893 1 
5894 2 
5895 1 
5896 1 
5897 2 
5898 1 
5962 1 
5963 2 
5964 1 
6019 1 
6020 2 
6021 1 
6673 1 
6674 3 
6675 1 
6679 1 
6680 2 
6681 1 
6859 1 
6860 3 
6861 1 
7033 1 
7034 3 
7035 1 
7816 1 
7817 2 
7818 1 
7939 1 
7940 2 
7941 1 
7993 1 
7994 2 
7995 1 
8059 1 
8060 2 
8061 1 
8242 1 
8243 2 
8244 1 
8299 1 
8300 3 
8301 1 
8302 1 
8303 2 
8304 1 
8962 1 
8963 3 
8964 1 
9022 1 
9023 2 
9024 1 
10222 1 
10223 3 
10224 1 
10399 1 
10400 2 
10401 1 
91 1 
92 2 
93 1 
145 1 
146 3 
147 1 
154 1 
155 2 
156 1 
448 1 
449 2 
450 1 
1168 1 
1169 2 
1170 1 
1285 1 
1286 2 
1287 1 
1534 1 
1535 3 
1536 1 
1645 1 
1646 2 
1647 1 
2308 1 
2309 2 
2310 1 
2311 1 
2312 3 
2313 1 
2608 1 
2609 2 
2610 1 
3208 1 
3209 3 
3210 1 
3211 1 
3212 2 
3213 1 
3325 1 
3326 3 
3327 1 
3694 1 
3695 2 
3696 1 
3754 1 
3755 3 
3756 1 
4594 1 
4595 2 
4596 1 
5551 1 
5552 2 
5553 1 
5674 1 
5675 2 
5676 1 
5794 1 
5795 3 
5796 1 
5845 1 
5846 2 
5847 1 
5848 1 
5849 2 
5850 1 
5908 1 
5909 2 
5910 1 
6748 1 
6749 2 
6750 1 
6805 1 
6806 3 
6807 1 
6928 1 
6929 2 
6930 1 
6991 1 
6992 3 
6993 1 
7045 1 
7046 3 
7047 1 
8305 1 
8306 2 
8307 1 
10045 1 
10046 3 
10047 1 
220 1 
221 2 
222 1 
340 1 
341 2 
342 1 
1237 1 
1238 2 
1239 1 
1423 1 
1424 2 
1425 1 
1663 1 
1664 2 
1665 1 
2257 1 
2258 2 
2259 1 
2260 1 
2261 2 
2262 1 
2446 1 
2447 2 
2448 1 
3406 1 
3407 3 
3408 1 
3460 1 
3461 3 
3462 1 
3523 1 
3524 3 
3525 1 
4357 1 
4358 3 
4359 1 
4426 1 
4427 3 
4428 1 
4480 1 
4481 2 
4482 1 
4603 1 
4604 2 
4605 1 
4837 1 
4838 2 
4839 1 
4903 1 
4904 2 
4905 1 
5806 1 
5807 2 
5808 1 
5857 1 
5858 2 
5859 1 
5917 1 
5918 2 
5919 1 
5920 1 
5921 3 
5922 1 
6046 1 
6047 3 
6048 1 
6820 1 
6821 2 
6822 1 
7000 1 
7001 2 
7002 1 
7006 1 
7007 3 
7008 1 
7057 1 
7058 2 
7059 1 
7243 1 
7244 2 
7245 1 
7783 1 
7784 2 
7785 1 
7846 1 
7847 2 
7848 1 
7963 1 
7964 3 
7965 1 
8137 1 
8138 2 
8139 1 
8266 1 
8267 3 
8268 1 
8323 1 
8324 3 
8325 1 
8326 1 
8327 2 
8328 1 
8923 1 
8924 2 
8925 1 
9217 1 
9218 2 
9219 1 
9343 1 
9344 2 
9345 1 
10003 1 
10004 3 
10005 1 
10063 1 
10064 3 
10065 1 
10183 1 
10184 2 
10185 1 
10306 1 
10307 2 
10308 1 
10363 1 
10364 3 
10365 1 
10423 1 
10424 3 
10425 1 
10483 1 
10484 3 
10485 1 
10543 1 
10544 2 
10545 1 
10546 1 
10547 2 
10548 1 
115 1 
116 2 
117 1 
352 1 
353 3 
354 1 
418 1 
419 2 
420 1 
1252 1 
1253 2 
1254 1 
1318 1 
1319 3 
1320 1 
1675 1 
1676 2 
1677 1 
2329 1 
2330 3 
2331 1 
2338 1 
2339 2 
2340 1 
3298 1 
3299 3 
3300 1 
3352 1 
3353 3 
3354 1 
3652 1 
3653 3 
3654 1 
3772 1 
3773 3 
3774 1 
4609 1 
4610 2 
4611 1 
4795 1 
4796 3 
4797 1 
4915 1 
4916 2 
4917 1 
4918 1 
4919 3 
4920 1 
5518 1 
5519 3 
5520 1 
5869 1 
5870 2 
5871 1 
5875 1 
5876 2 
5877 1 
5929 1 
5930 2 
5931 1 
6049 1 
6050 2 
6051 1 
6055 1 
6056 3 
6057 1 
6778 1 
6779 2 
6780 1 
6838 1 
6839 3 
6840 1 
6895 1 
6896 3 
6897 1 
6898 1 
6899 3 
6900 1 
7192 1 
7193 2 
7194 1 
7255 1 
7256 2 
7257 1 
7258 1 
7259 3 
7260 1 
7789 1 
7790 2 
7791 1 
7852 1 
7853 3 
7854 1 
8095 1 
8096 2 
8097 1 
8215 1 
8216 2 
8217 1 
8218 1 
8219 3 
8220 1 
9049 1 
9050 2 
9051 1 
9118 1 
9119 2 
9120 1 
10009 1 
10010 2 
10011 1 
10018 1 
10019 3 
10020 1 
10075 1 
10076 3 
10077 1 
10132 1 
10133 3 
10134 1 
10138 1 
10139 2 
10140 1 
10189 1 
10190 2 
10191 1 
10192 1 
10193 3 
10194 1 
10435 1 
10436 3 
10437 1 
550 1 
551 2 
552 1 
607 1 
608 2 
609 1 
670 1 
671 3 
672 1 
847 1 
848 3 
849 1 
910 1 
911 2 
912 1 
961 1 
962 3 
963 1 
1741 1 
1742 2 
1743 1 
2044 1 
2045 3 
2046 1 
2101 1 
2102 3 
2103 1 
2641 1 
2642 3 
2643 1 
2827 1 
2828 2 
2829 1 
2941 1 
2942 2 
2943 1 
3841 1 
3842 2 
3843 1 
3847 1 
3848 2 
3849 1 
3901 1 
3902 3 
3903 1 
4984 1 
4985 3 
4986 1 
5107 1 
5108 3 
5109 1 
5110 1 
5111 3 
5112 1 
5227 1 
5228 3 
5229 1 
5284 1 
5285 3 
5286 1 
6250 1 
6251 2 
6252 1 
6364 1 
6365 2 
6366 1 
6427 1 
6428 3 
6429 1 
6541 1 
6542 2 
6543 1 
7447 1 
7448 3 
7449 1 
7684 1 
7685 3 
7686 1 
8464 1 
8465 2 
8466 1 
8521 1 
8522 3 
8523 1 
8527 1 
8528 3 
8529 1 
8764 1 
8765 2 
8766 1 
9364 1 
9365 2 
9366 1 
9424 1 
9425 2 
9426 1 
9427 1 
9428 3 
9429 1 
9430 1 
9431 3 
9432 1 
9601 1 
9602 3 
9603 1 
10684 1 
10685 3 
10686 1 
10750 1 
10751 3 
10752 1 
10930 1 
10931 2 
10932 1 
11041 1 
11042 2 
11043 1 
619 1 
620 3 
621 1 
673 1 
674 3 
675 1 
676 1 
677 2 
678 1 
973 1 
974 3 
975 1 
1099 1 
1100 3 
1101 1 
1873 1 
1874 3 
1875 1 
1999 1 
2000 2 
2001 1 
2659 1 
2660 3 
2661 1 
2713 1 
2714 3 
2715 1 
2716 1 
2717 2 
2718 1 
2893 1 
2894 3 
2895 1 
3142 1 
3143 3 
3144 1 
3802 1 
3803 2 
3804 1 
3856 1 
3857 2 
3858 1 
3982 1 
3983 3 
3984 1 
4039 1 
4040 3 
4041 1 
4213 1 
4214 3 
4215 1 
4942 1 
4943 2 
4944 1 
4999 1 
5000 2 
5001 1 
5053 1 
5054 2 
5055 1 
5173 1 
5174 2 
5175 1 
5179 1 
5180 2 
5181 1 
6082 1 
6083 3 
6084 1 
6562 1 
6563 3 
6564 1 
6619 1 
6620 2 
6621 1 
7276 1 
7277 3 
7278 1 
7279 1 
7280 2 
7281 1 
7456 1 
7457 3 
7458 1 
7519 1 
7520 3 
7521 1 
7696 1 
7697 3 
7698 1 
8422 1 
8423 3 
8424 1 
8536 1 
8537 3 
8538 1 
8593 1 
8594 2 
8595 1 
8602 1 
8603 3 
8604 1 
8662 1 
8663 3 
8664 1 
8776 1 
8777 3 
8778 1 
9493 1 
9494 3 
9495 1 
9613 1 
9614 3 
9615 1 
9682 1 
9683 3 
9684 1 
9919 1 
9920 2 
9921 1 
10579 1 
10580 2 
10581 1 
10639 1 
10640 3 
10641 1 
10642 1 
10643 2 
10644 1 
10702 1 
10703 3 
10704 1 
10876 1 
10877 3 
10878 1 
10933 1 
10934 2 
10935 1 
748 1 
749 2 
750 1 
751 1 
752 2 
753 1 
874 1 
875 3 
876 1 
991 1 
992 2 
993 1 
994 1 
995 3 
996 1 
1954 1 
1955 3 
1956 1 
2014 1 
2015 3 
2016 1 
2068 1 
2069 3 
2070 1 
2125 1 
2126 2 
2127 1 
2185 1 
2186 2 
2187 1 
2191 1 
2192 3 
2193 1 
2665 1 
2666 3 
2667 1 
2728 1 
2729 2 
2730 1 
2794 1 
2795 3 
2796 1 
3028 1 
3029 2 
3030 1 
3088 1 
3089 3 
3090 1 
3874 1 
3875 3 
3876 1 
3934 1 
3935 2 
3936 1 
4171 1 
4172 3 
4173 1 
5065 1 
5066 3 
5067 1 
5068 1 
5069 3 
5070 1 
5125 1 
5126 3 
5127 1 
5131 1 
5132 2 
5133 1 
5248 1 
5249 3 
5250 1 
5308 1 
5309 3 
5310 1 
6091 1 
6092 3 
6093 1 
6145 1 
6146 3 
6147 1 
6271 1 
6272 2 
6273 1 
6331 1 
6332 3 
6333 1 
6388 1 
6389 2 
6390 1 
6511 1 
6512 3 
6513 1 
7345 1 
7346 3 
7347 1 
7354 1 
7355 2 
7356 1 
7711 1 
7712 2 
7713 1 
8365 1 
8366 2 
8367 1 
8605 1 
8606 2 
8607 1 
8731 1 
8732 3 
8733 1 
8785 1 
8786 3 
8787 1 
9391 1 
9392 3 
9393 1 
9568 1 
9569 2 
9570 1 
9805 1 
9806 3 
9807 1 
10645 1 
10646 3 
10647 1 
11071 1 
11072 2 
11073 1 
11074 1 
11075 3 
11076 1 
706 1 
707 2 
708 1 
760 1 
761 2 
762 1 
826 1 
827 2 
828 1 
880 1 
881 3 
882 1 
1117 1 
1118 2 
1119 1 
1123 1 
1124 3 
1125 1 
1723 1 
1724 2 
1725 1 
1900 1 
1901 2 
1902 1 
1957 1 
1958 2 
1959 1 
2080 1 
2081 3 
2082 1 
2140 1 
2141 2 
2142 1 
2686 1 
2687 3 
2688 1 
2866 1 
2867 3 
2868 1 
2983 1 
2984 2 
2985 1 
5080 1 
5081 2 
5082 1 
5143 1 
5144 2 
5145 1 
5317 1 
5318 3 
5319 1 
5386 1 
5387 2 
5388 1 
7363 1 
7364 3 
7365 1 
7600 1 
7601 3 
7602 1 
8383 1 
8384 2 
8385 1 
8680 1 
8681 2 
8682 1 
9520 1 
9521 2 
9522 1 
9523 1 
9524 3 
9525 1 
9577 1 
9578 2 
9579 1 
9820 1 
9821 3 
9822 1 
9943 1 
9944 2 
9945 1 
10600 1 
10601 3 
10602 1 
10657 1 
10658 2 
10659 1 
10660 1 
10661 3 
10662 1 
10663 1 
10664 2 
10665 1 
10777 1 
10778 3 
10779 1 
10846 1 
10847 2 
10848 1 
10897 1 
10898 3 
10899 1 
11017 1 
11018 2 
11019 1 
11020 1 
11021 3 
11022 1 
11077 1 
11078 2 
11079 1 
2689 1 
2690 2 
2691 1 
2809 1 
2810 3 
2811 1 
2935 1 
2936 2 
2937 1 
3115 1 
3116 2 
3117 1 
3838 1 
3839 2 
3840 1 
3955 1 
3956 3 
3957 1 
4072 1 
4073 2 
4074 1 
4075 1 
4076 3 
4077 1 
4078 1 
4079 3 
4080 1 
4132 1 
4133 2 
4134 1 
4975 1 
4976 2 
4977 1 
5092 1 
5093 2 
5094 1 
5329 1 
5330 2 
5331 1 
5332 1 
5333 3 
5334 1 
5455 1 
5456 3 
5457 1 
6109 1 
6110 3 
6111 1 
6175 1 
6176 2 
6177 1 
6475 1 
6476 2 
6477 1 
7555 1 
7556 2 
7557 1 
7615 1 
7616 3 
7617 1 
7672 1 
7673 3 
7674 1 
8392 1 
8393 3 
8394 1 
8572 1 
8573 2 
8574 1 
8575 1 
8576 2 
8577 1 
8812 1 
8813 3 
8814 1 
9478 1 
9479 3 
9480 1 
9532 1 
9533 3 
9534 1 
9718 1 
9719 2 
9720 1 
9952 1 
9953 2 
9954 1 
10669 1 
10670 2 
10671 1 
10729 1 
10730 3 
10731 1 
10909 1 
10910 3 
10911 1 
10972 1 
10973 2 
10974 1 
11035 1 
11036 3 
11037 1 
11089 1 
11090 2 
11091 1 
11092 1 
11093 2 
11094 1 
11101 1 
11102 2 
11103 1 
11104 1 
11105 2 
11106 1 
11281 1 
11282 2 
11283 1 
11350 1 
11351 2 
11352 1 
11470 1 
11471 3 
11472 1 
12187 1 
12188 2 
12189 1 
12610 1 
12611 3 
12612 1 
13141 1 
13142 2 
13143 1 
13147 1 
13148 2 
13149 1 
13150 1 
13151 3 
13152 1 
13450 1 
13451 2 
13452 1 
13504 1 
13505 2 
13506 1 
14470 1 
14471 3 
14472 1 
14590 1 
14591 2 
14592 1 
14644 1 
14645 2 
14646 1 
15307 1 
15308 3 
15309 1 
15547 1 
15548 3 
15549 1 
16381 1 
16382 2 
16383 1 
16627 1 
16628 2 
16629 1 
17641 1 
17642 2 
17643 1 
17764 1 
17765 3 
17766 1 
18490 1 
18491 3 
18492 1 
18790 1 
18791 2 
18792 1 
19447 1 
19448 3 
19449 1 
19510 1 
19511 3 
19512 1 
19624 1 
19625 2 
19626 1 
19687 1 
19688 3 
19689 1 
20530 1 
20531 3 
20532 1 
20584 1 
20585 3 
20586 1 
20761 1 
20762 3 
20763 1 
20821 1 
20822 2 
20823 1 
20890 1 
20891 3 
20892 1 
11113 1 
11114 2 
11115 1 
11236 1 
11237 3 
11238 1 
11356 1 
11357 3 
11358 1 
11476 1 
11477 3 
11478 1 
12199 1 
12200 3 
12201 1 
12496 1 
12497 3 
12498 1 
12559 1 
12560 3 
12561 1 
12562 1 
12563 2 
12564 1 
13162 1 
13163 2 
13164 1 
13219 1 
13220 2 
13221 1 
13342 1 
13343 3 
13344 1 
13513 1 
13514 3 
13515 1 
13573 1 
13574 2 
13575 1 
14242 1 
14243 2 
14244 1 
14662 1 
14663 3 
14664 1 
15322 1 
15323 2 
15324 1 
15379 1 
15380 2 
15381 1 
15676 1 
15677 2 
15678 1 
15679 1 
15680 3 
15681 1 
16462 1 
16463 2 
16464 1 
16573 1 
16574 3 
16575 1 
16579 1 
16580 2 
16581 1 
17293 1 
17294 3 
17295 1 
17593 1 
17594 3 
17595 1 
17599 1 
17600 2 
17601 1 
17653 1 
17654 3 
17655 1 
17662 1 
17663 2 
17664 1 
18559 1 
18560 2 
18561 1 
18676 1 
18677 2 
18678 1 
18736 1 
18737 3 
18738 1 
18742 1 
18743 2 
18744 1 
18859 1 
18860 2 
18861 1 
19639 1 
19640 3 
19641 1 
19642 1 
19643 3 
19644 1 
19699 1 
19700 2 
19701 1 
19816 1 
19817 3 
19818 1 
19819 1 
19820 3 
19821 1 
19879 1 
19880 2 
19881 1 
20599 1 
20600 3 
20601 1 
20962 1 
20963 2 
20964 1 
11125 1 
11126 3 
11127 1 
11251 1 
11252 2 
11253 1 
11314 1 
11315 3 
11316 1 
11374 1 
11375 3 
11376 1 
11425 1 
11426 3 
11427 1 
12205 1 
12206 3 
12207 1 
12385 1 
12386 3 
12387 1 
12388 1 
12389 2 
12390 1 
12631 1 
12632 2 
12633 1 
13171 1 
13172 3 
13173 1 
13468 1 
13469 2 
13470 1 
13588 1 
13589 3 
13590 1 
14254 1 
14255 3 
14256 1 
14374 1 
14375 2 
14376 1 
14431 1 
14432 3 
14433 1 
14434 1 
14435 3 
14436 1 
14548 1 
14549 3 
14550 1 
14554 1 
14555 3 
14556 1 
14668 1 
14669 2 
14670 1 
15694 1 
15695 2 
15696 1 
16474 1 
16475 2 
16476 1 
16588 1 
16589 3 
16590 1 
16648 1 
16649 3 
16650 1 
17305 1 
17306 2 
17307 1 
17425 1 
17426 3 
17427 1 
17614 1 
17615 2 
17616 1 
17728 1 
17729 2 
17730 1 
18385 1 
18386 3 
18387 1 
18391 1 
18392 3 
18393 1 
18445 1 
18446 2 
18447 1 
18508 1 
18509 3 
18510 1 
18565 1 
18566 2 
18567 1 
18751 1 
18752 3 
18753 1 
18754 1 
18755 3 
18756 1 
18868 1 
18869 2 
18870 1 
19594 1 
19595 3 
19596 1 
19654 1 
19655 2 
19656 1 
19711 1 
19712 2 
19713 1 
19828 1 
19829 3 
19830 1 
20731 1 
20732 3 
20733 1 
20734 1 
20735 3 
20736 1 
20788 1 
20789 2 
20790 1 
20911 1 
20912 3 
20913 1 
20968 1 
20969 3 
20970 1 
11323 1 
11324 2 
11325 1 
12100 1 
12101 3 
12102 1 
12220 1 
12221 3 
12222 1 
12460 1 
12461 3 
12462 1 
12523 1 
12524 3 
12525 1 
12526 1 
12527 2 
12528 1 
12637 1 
12638 2 
12639 1 
12643 1 
12644 3 
12645 1 
13240 1 
13241 2 
13242 1 
13303 1 
13304 2 
13305 1 
13306 1 
13307 3 
13308 1 
13360 1 
13361 2 
13362 1 
14320 1 
14321 2 
14322 1 
14437 1 
14438 2 
14439 1 
14497 1 
14498 2 
14499 1 
14500 1 
14501 2 
14502 1 
15337 1 
15338 3 
15339 1 
15340 1 
15341 2 
15342 1 
15517 1 
15518 2 
15519 1 
15583 1 
15584 3 
15585 1 
15703 1 
15704 2 
15705 1 
16360 1 
16361 3 
16362 1 
16657 1 
16658 3 
16659 1 
17317 1 
17318 2 
17319 1 
17383 1 
17384 2 
17385 1 
17437 1 
17438 2 
17439 1 
17440 1 
17441 2 
17442 1 
17443 1 
17444 2 
17445 1 
17500 1 
17501 3 
17502 1 
18640 1 
18641 2 
18642 1 
18700 1 
18701 2 
18702 1 
18877 1 
18878 3 
18879 1 
19777 1 
19778 3 
19779 1 
19900 1 
19901 2 
19902 1 
20566 1 
20567 2 
20568 1 
21037 1 
21038 2 
21039 1 
11158 1 
11159 3 
11160 1 
11212 1 
11213 2 
11214 1 
11278 1 
11279 2 
11280 1 
11452 1 
11453 3 
11454 1 
12115 1 
12116 2 
12117 1 
12352 1 
12353 3 
12354 1 
12409 1 
12410 2 
12411 1 
12532 1 
12533 2 
12534 1 
12592 1 
12593 3 
12594 1 
14398 1 
14399 3 
14400 1 
14458 1 
14459 2 
14460 1 
14512 1 
14513 2 
14514 1 
15475 1 
15476 2 
15477 1 
15529 1 
15530 3 
15531 1 
15538 1 
15539 3 
15540 1 
15589 1 
15590 3 
15591 1 
15592 1 
15593 3 
15594 1 
16555 1 
16556 2 
16557 1 
16558 1 
16559 2 
16560 1 
16669 1 
16670 3 
16671 1 
17689 1 
17690 3 
17691 1 
18412 1 
18413 3 
18414 1 
18532 1 
18533 2 
18534 1 
18775 1 
18776 3 
18777 1 
19672 1 
19673 3 
19674 1 
19729 1 
19730 3 
19731 1 
20995 1 
20996 3 
20997 1 
11650 1 
11651 2 
11652 1 
11770 1 
11771 3 
11772 1 
11821 1 
11822 3 
11823 1 
11830 1 
11831 3 
11832 1 
11950 1 
11951 2 
11952 1 
12001 1 
12002 2 
12003 1 
12670 1 
12671 2 
12672 1 
12727 1 
12728 3 
12729 1 
12850 1 
12851 2 
12852 1 
13744 1 
13745 2 
13746 1 
13861 1 
13862 2 
13863 1 
14041 1 
14042 2 
14043 1 
14827 1 
14828 2 
14829 1 
15064 1 
15065 3 
15066 1 
15127 1 
15128 3 
15129 1 
15250 1 
15251 2 
15252 1 
15787 1 
15788 2 
15789 1 
15790 1 
15791 2 
15792 1 
15847 1 
15848 3 
15849 1 
16030 1 
16031 3 
16032 1 
16087 1 
16088 3 
16089 1 
16144 1 
16145 3 
16146 1 
16804 1 
16805 2 
16806 1 
16984 1 
16985 3 
16986 1 
16990 1 
16991 2 
16992 1 
17041 1 
17042 2 
17043 1 
17050 1 
17051 2 
17052 1 
17101 1 
17102 2 
17103 1 
17164 1 
17165 3 
17166 1 
18007 1 
18008 3 
18009 1 
18184 1 
18185 3 
18186 1 
18967 1 
18968 3 
18969 1 
18970 1 
18971 3 
18972 1 
19027 1 
19028 2 
19029 1 
19030 1 
19031 2 
19032 1 
19081 1 
19082 2 
19083 1 
19090 1 
19091 3 
19092 1 
19204 1 
19205 3 
19206 1 
19207 1 
19208 3 
19209 1 
19330 1 
19331 3 
19332 1 
20104 1 
20105 2 
20106 1 
20470 1 
20471 3 
20472 1 
21367 1 
21368 2 
21369 1 
21550 1 
21551 3 
21552 1 
11653 1 
11654 3 
11655 1 
11659 1 
11660 2 
11661 1 
11722 1 
11723 2 
11724 1 
12016 1 
12017 3 
12018 1 
12799 1 
12800 2 
12801 1 
12913 1 
12914 2 
12915 1 
13696 1 
13697 3 
13698 1 
13879 1 
13880 2 
13881 1 
13942 1 
13943 3 
13944 1 
13999 1 
14000 3 
14001 1 
14173 1 
14174 2 
14175 1 
14182 1 
14183 2 
14184 1 
14779 1 
14780 2 
14781 1 
14782 1 
14783 2 
14784 1 
14836 1 
14837 2 
14838 1 
15016 1 
15017 3 
15018 1 
15142 1 
15143 2 
15144 1 
15256 1 
15257 3 
15258 1 
15796 1 
15797 2 
15798 1 
15853 1 
15854 3 
15855 1 
15979 1 
15980 2 
15981 1 
15982 1 
15983 2 
15984 1 
16039 1 
16040 3 
16041 1 
16096 1 
16097 3 
16098 1 
16216 1 
16217 3 
16218 1 
16279 1 
16280 2 
16281 1 
16753 1 
16754 2 
16755 1 
16762 1 
16763 3 
16764 1 
16876 1 
16877 2 
16878 1 
17116 1 
17117 2 
17118 1 
17233 1 
17234 2 
17235 1 
17902 1 
17903 3 
17904 1 
17959 1 
17960 3 
17961 1 
18136 1 
18137 3 
18138 1 
18259 1 
18260 2 
18261 1 
18919 1 
18920 2 
18921 1 
18922 1 
18923 3 
18924 1 
19216 1 
19217 2 
19218 1 
19279 1 
19280 3 
19281 1 
19342 1 
19343 3 
19344 1 
19393 1 
19394 3 
19395 1 
19396 1 
19397 3 
19398 1 
20113 1 
20114 3 
20115 1 
20293 1 
20294 3 
20295 1 
20362 1 
20363 3 
20364 1 
20473 1 
20474 3 
20475 1 
21139 1 
21140 2 
21141 1 
21193 1 
21194 2 
21195 1 
21199 1 
21200 3 
21201 1 
21256 1 
21257 3 
21258 1 
21319 1 
21320 2 
21321 1 
21439 1 
21440 3 
21441 1 
21493 1 
21494 3 
21495 1 
21562 1 
21563 2 
21564 1 
11851 1 
11852 2 
11853 1 
12691 1 
12692 3 
12693 1 
12748 1 
12749 2 
12750 1 
12811 1 
12812 3 
12813 1 
12814 1 
12815 2 
12816 1 
13711 1 
13712 2 
13713 1 
14011 1 
14012 2 
14013 1 
14911 1 
14912 2 
14913 1 
14968 1 
14969 3 
14970 1 
15934 1 
15935 3 
15936 1 
16108 1 
16109 3 
16110 1 
16771 1 
16772 2 
16773 1 
16834 1 
16835 2 
16836 1 
17071 1 
17072 2 
17073 1 
17131 1 
17132 2 
17133 1 
17848 1 
17849 3 
17850 1 
17965 1 
17966 3 
17967 1 
18151 1 
18152 2 
18153 1 
18214 1 
18215 3 
18216 1 
18991 1 
18992 3 
18993 1 
19228 1 
19229 2 
19230 1 
20065 1 
20066 2 
20067 1 
20068 1 
20069 3 
20070 1 
20248 1 
20249 3 
20250 1 
20308 1 
20309 2 
20310 1 
21148 1 
21149 2 
21150 1 
21328 1 
21329 2 
21330 1 
21391 1 
21392 2 
21393 1 
21445 1 
21446 3 
21447 1 
21565 1 
21566 3 
21567 1 
21571 1 
21572 2 
21573 1 
11926 1 
11927 2 
11928 1 
11986 1 
11987 3 
11988 1 
12823 1 
12824 3 
12825 1 
12886 1 
12887 3 
12888 1 
13117 1 
13118 2 
13119 1 
13120 1 
13121 2 
13122 1 
13126 1 
13127 2 
13128 1 
13717 1 
13718 2 
13719 1 
13957 1 
13958 3 
13959 1 
14086 1 
14087 2 
14088 1 
14137 1 
14138 3 
14139 1 
14143 1 
14144 3 
14145 1 
14197 1 
14198 2 
14199 1 
14203 1 
14204 2 
14205 1 
15280 1 
15281 2 
15282 1 
15823 1 
15824 3 
15825 1 
15937 1 
15938 2 
15939 1 
16246 1 
16247 3 
16248 1 
16780 1 
16781 2 
16782 1 
16900 1 
16901 2 
16902 1 
16906 1 
16907 2 
16908 1 
18046 1 
18047 2 
18048 1 
18943 1 
18944 3 
18945 1 
19120 1 
19121 2 
19122 1 
19240 1 
19241 2 
19242 1 
19363 1 
19364 2 
19365 1 
20380 1 
20381 2 
20382 1 
20383 1 
20384 3 
20385 1 
20437 1 
20438 2 
20439 1 
20497 1 
20498 3 
20499 1 
20503 1 
20504 2 
20505 1 
21400 1 
21401 2 
21402 1 
21463 1 
21464 2 
21465 1 
21526 1 
21527 3 
21528 1 
11752 1 
11753 3 
11754 1 
11818 1 
11819 3 
11820 1 
12058 1 
12059 2 
12060 1 
12832 1 
12833 2 
12834 1 
13678 1 
13679 3 
13680 1 
13732 1 
13733 2 
13734 1 
13912 1 
13913 2 
13914 1 
13915 1 
13916 3 
13917 1 
13969 1 
13970 2 
13971 1 
14029 1 
14030 2 
14031 1 
14035 1 
14036 3 
14037 1 
14212 1 
14213 2 
14214 1 
15052 1 
15053 2 
15054 1 
15958 1 
15959 3 
15960 1 
16069 1 
16070 2 
16071 1 
16078 1 
16079 2 
16080 1 
16135 1 
16136 3 
16137 1 
16138 1 
16139 2 
16140 1 
16312 1 
16313 2 
16314 1 
16909 1 
16910 2 
16911 1 
17038 1 
17039 2 
17040 1 
17098 1 
17099 3 
17100 1 
17152 1 
17153 3 
17154 1 
17932 1 
17933 2 
17934 1 
17935 1 
17936 3 
17937 1 
17992 1 
17993 2 
17994 1 
17998 1 
17999 2 
18000 1 
18052 1 
18053 3 
18054 1 
18292 1 
18293 2 
18294 1 
18352 1 
18353 3 
18354 1 
18952 1 
18953 2 
18954 1 
19135 1 
19136 3 
19137 1 
19255 1 
19256 2 
19257 1 
19312 1 
19313 3 
19314 1 
19972 1 
19973 2 
19974 1 
19975 1 
19976 3 
19977 1 
20149 1 
20150 2 
20151 1 
21112 1 
21113 3 
21114 1 
21172 1 
21173 3 
21174 1 
21229 1 
21230 3 
21231 1 
21295 1 
21296 2 
21297 1 
21298 1 
21299 3 
21300 1 
21472 1 
21473 3 
21474 1 
21592 1 
21593 2 
21594 1 
21595 1 
21596 3 
21597 1 
