ITEM: TIMESTEP
0
ITEM: NUMBER OF ATOMS
11880
ITEM: BOX BOUNDS pp pp pp
0.0000000000000000e+00 5.0000000000000000e+01
0.0000000000000000e+00 5.0000000000000000e+01
0.0000000000000000e+00 5.0000000000000000e+01
ITEM: ATOMS id type 
1 1 
2 3 
3 1 
4 1 
5 3 
6 1 
10 1 
11 2 
12 1 
121 1 
122 2 
123 1 
124 1 
125 2 
126 1 
130 1 
131 2 
132 1 
184 1 
185 3 
186 1 
187 1 
188 2 
189 1 
241 1 
242 2 
243 1 
244 1 
245 2 
246 1 
247 1 
248 2 
249 1 
250 1 
251 3 
252 1 
301 1 
302 3 
303 1 
304 1 
305 3 
306 1 
307 1 
308 2 
309 1 
361 1 
362 3 
363 1 
364 1 
365 3 
366 1 
367 1 
368 2 
369 1 
370 1 
371 2 
372 1 
421 1 
422 3 
423 1 
424 1 
425 3 
426 1 
430 1 
431 2 
432 1 
481 1 
482 3 
483 1 
484 1 
485 2 
486 1 
490 1 
491 2 
492 1 
1141 1 
1142 2 
1143 1 
1150 1 
1151 2 
1152 1 
1201 1 
1202 3 
1203 1 
1204 1 
1205 3 
1206 1 
1210 1 
1211 3 
1212 1 
1264 1 
1265 3 
1266 1 
1267 1 
1268 2 
1269 1 
1324 1 
1325 2 
1326 1 
1384 1 
1385 3 
1386 1 
1441 1 
1442 2 
1443 1 
1444 1 
1445 2 
1446 1 
1504 1 
1505 2 
1506 1 
1561 1 
1562 2 
1563 1 
1567 1 
1568 2 
1569 1 
1570 1 
1571 2 
1572 1 
1621 1 
1622 2 
1623 1 
1624 1 
1625 2 
1626 1 
2227 1 
2228 2 
2229 1 
2281 1 
2282 2 
2283 1 
2287 1 
2288 2 
2289 1 
2344 1 
2345 2 
2346 1 
2350 1 
2351 2 
2352 1 
2401 1 
2402 3 
2403 1 
2410 1 
2411 2 
2412 1 
2461 1 
2462 3 
2463 1 
2467 1 
2468 3 
2469 1 
2470 1 
2471 3 
2472 1 
2581 1 
2582 2 
2583 1 
2584 1 
2585 3 
2586 1 
2590 1 
2591 2 
2592 1 
3187 1 
3188 3 
3189 1 
3190 1 
3191 2 
3192 1 
3241 1 
3242 2 
3243 1 
3244 1 
3245 2 
3246 1 
3307 1 
3308 2 
3309 1 
3310 1 
3311 2 
3312 1 
3367 1 
3368 3 
3369 1 
3370 1 
3371 3 
3372 1 
3427 1 
3428 2 
3429 1 
3481 1 
3482 2 
3483 1 
3541 1 
3542 3 
3543 1 
3544 1 
3545 3 
3546 1 
3601 1 
3602 3 
3603 1 
3604 1 
3605 2 
3606 1 
3607 1 
3608 3 
3609 1 
3610 1 
3611 2 
3612 1 
3661 1 
3662 3 
3663 1 
3667 1 
3668 3 
3669 1 
3721 1 
3722 2 
3723 1 
3724 1 
3725 2 
3726 1 
3727 1 
3728 2 
3729 1 
3730 1 
3731 2 
3732 1 
4321 1 
4322 3 
4323 1 
4324 1 
4325 3 
4326 1 
4327 1 
4328 2 
4329 1 
4330 1 
4331 2 
4332 1 
4390 1 
4391 2 
4392 1 
4441 1 
4442 3 
4443 1 
4450 1 
4451 3 
4452 1 
4501 1 
4502 3 
4503 1 
4504 1 
4505 3 
4506 1 
4507 1 
4508 3 
4509 1 
4561 1 
4562 2 
4563 1 
4567 1 
4568 2 
4569 1 
4570 1 
4571 3 
4572 1 
4624 1 
4625 2 
4626 1 
4627 1 
4628 2 
4629 1 
4681 1 
4682 2 
4683 1 
4684 1 
4685 3 
4686 1 
4687 1 
4688 2 
4689 1 
4690 1 
4691 2 
4692 1 
4741 1 
4742 3 
4743 1 
4744 1 
4745 3 
4746 1 
4747 1 
4748 3 
4749 1 
4801 1 
4802 2 
4803 1 
4804 1 
4805 3 
4806 1 
4810 1 
4811 3 
4812 1 
4861 1 
4862 3 
4863 1 
4864 1 
4865 2 
4866 1 
4867 1 
4868 3 
4869 1 
4870 1 
4871 2 
4872 1 
5461 1 
5462 2 
5463 1 
5467 1 
5468 2 
5469 1 
5521 1 
5522 2 
5523 1 
5524 1 
5525 3 
5526 1 
5530 1 
5531 2 
5532 1 
5644 1 
5645 3 
5646 1 
5650 1 
5651 3 
5652 1 
5701 1 
5702 2 
5703 1 
5821 1 
5822 3 
5823 1 
5824 1 
5825 3 
5826 1 
5827 1 
5828 2 
5829 1 
5830 1 
5831 3 
5832 1 
5881 1 
5882 2 
5883 1 
5887 1 
5888 3 
5889 1 
5890 1 
5891 2 
5892 1 
5941 1 
5942 3 
5943 1 
5944 1 
5945 3 
5946 1 
5947 1 
5948 2 
5949 1 
5950 1 
5951 3 
5952 1 
6004 1 
6005 2 
6006 1 
6007 1 
6008 3 
6009 1 
6010 1 
6011 3 
6012 1 
6667 1 
6668 3 
6669 1 
6670 1 
6671 2 
6672 1 
6724 1 
6725 3 
6726 1 
6730 1 
6731 3 
6732 1 
6781 1 
6782 2 
6783 1 
6787 1 
6788 2 
6789 1 
6844 1 
6845 3 
6846 1 
6901 1 
6902 2 
6903 1 
6904 1 
6905 2 
6906 1 
6907 1 
6908 2 
6909 1 
6961 1 
6962 3 
6963 1 
6964 1 
6965 3 
6966 1 
6967 1 
6968 3 
6969 1 
7024 1 
7025 2 
7026 1 
7030 1 
7031 2 
7032 1 
7081 1 
7082 3 
7083 1 
7090 1 
7091 2 
7092 1 
7141 1 
7142 3 
7143 1 
7144 1 
7145 2 
7146 1 
7147 1 
7148 3 
7149 1 
7150 1 
7151 2 
7152 1 
7210 1 
7211 3 
7212 1 
7744 1 
7745 2 
7746 1 
7750 1 
7751 2 
7752 1 
7801 1 
7802 3 
7803 1 
7804 1 
7805 2 
7806 1 
7807 1 
7808 3 
7809 1 
7867 1 
7868 2 
7869 1 
7927 1 
7928 3 
7929 1 
7930 1 
7931 2 
7932 1 
7981 1 
7982 3 
7983 1 
7987 1 
7988 3 
7989 1 
7990 1 
7991 3 
7992 1 
8047 1 
8048 3 
8049 1 
8101 1 
8102 3 
8103 1 
8104 1 
8105 3 
8106 1 
8107 1 
8108 2 
8109 1 
8110 1 
8111 3 
8112 1 
8161 1 
8162 2 
8163 1 
8170 1 
8171 2 
8172 1 
8221 1 
8222 3 
8223 1 
8227 1 
8228 3 
8229 1 
8281 1 
8282 3 
8283 1 
8884 1 
8885 3 
8886 1 
8887 1 
8888 2 
8889 1 
8941 1 
8942 3 
8943 1 
8947 1 
8948 3 
8949 1 
8950 1 
8951 3 
8952 1 
9001 1 
9002 3 
9003 1 
9004 1 
9005 2 
9006 1 
9010 1 
9011 2 
9012 1 
9067 1 
9068 3 
9069 1 
9070 1 
9071 2 
9072 1 
9127 1 
9128 3 
9129 1 
9181 1 
9182 2 
9183 1 
9250 1 
9251 2 
9252 1 
9301 1 
9302 3 
9303 1 
9304 1 
9305 2 
9306 1 
9310 1 
9311 2 
9312 1 
9967 1 
9968 2 
9969 1 
9970 1 
9971 2 
9972 1 
10021 1 
10022 3 
10023 1 
10024 1 
10025 3 
10026 1 
10081 1 
10082 3 
10083 1 
10087 1 
10088 3 
10089 1 
10090 1 
10091 3 
10092 1 
10144 1 
10145 2 
10146 1 
10147 1 
10148 3 
10149 1 
10150 1 
10151 3 
10152 1 
10201 1 
10202 2 
10203 1 
10204 1 
10205 2 
10206 1 
10207 1 
10208 3 
10209 1 
10261 1 
10262 3 
10263 1 
10264 1 
10265 2 
10266 1 
10270 1 
10271 2 
10272 1 
10327 1 
10328 3 
10329 1 
10330 1 
10331 2 
10332 1 
10381 1 
10382 2 
10383 1 
10384 1 
10385 3 
10386 1 
10390 1 
10391 3 
10392 1 
10441 1 
10442 2 
10443 1 
10444 1 
10445 3 
10446 1 
10447 1 
10448 2 
10449 1 
10450 1 
10451 2 
10452 1 
10504 1 
10505 3 
10506 1 
10507 1 
10508 3 
10509 1 
10510 1 
10511 2 
10512 1 
19 1 
20 3 
21 1 
22 1 
23 3 
24 1 
73 1 
74 3 
75 1 
76 1 
77 3 
78 1 
79 1 
80 3 
81 1 
82 1 
83 2 
84 1 
133 1 
134 3 
135 1 
142 1 
143 3 
144 1 
193 1 
194 2 
195 1 
196 1 
197 2 
198 1 
202 1 
203 3 
204 1 
256 1 
257 2 
258 1 
313 1 
314 3 
315 1 
316 1 
317 2 
318 1 
319 1 
320 2 
321 1 
376 1 
377 2 
378 1 
379 1 
380 2 
381 1 
382 1 
383 2 
384 1 
433 1 
434 2 
435 1 
439 1 
440 3 
441 1 
442 1 
443 3 
444 1 
493 1 
494 3 
495 1 
496 1 
497 2 
498 1 
499 1 
500 3 
501 1 
1153 1 
1154 3 
1155 1 
1156 1 
1157 2 
1158 1 
1162 1 
1163 2 
1164 1 
1213 1 
1214 2 
1215 1 
1216 1 
1217 3 
1218 1 
1273 1 
1274 3 
1275 1 
1276 1 
1277 2 
1278 1 
1279 1 
1280 2 
1281 1 
1282 1 
1283 3 
1284 1 
1333 1 
1334 3 
1335 1 
1336 1 
1337 2 
1338 1 
1339 1 
1340 2 
1341 1 
1342 1 
1343 2 
1344 1 
1396 1 
1397 2 
1398 1 
1399 1 
1400 3 
1401 1 
1402 1 
1403 3 
1404 1 
1456 1 
1457 3 
1458 1 
1459 1 
1460 2 
1461 1 
1462 1 
1463 2 
1464 1 
1513 1 
1514 2 
1515 1 
1516 1 
1517 2 
1518 1 
1519 1 
1520 2 
1521 1 
1573 1 
1574 2 
1575 1 
1576 1 
1577 3 
1578 1 
1639 1 
1640 2 
1641 1 
1642 1 
1643 3 
1644 1 
2239 1 
2240 3 
2241 1 
2242 1 
2243 3 
2244 1 
2299 1 
2300 3 
2301 1 
2302 1 
2303 2 
2304 1 
2353 1 
2354 2 
2355 1 
2473 1 
2474 2 
2475 1 
2482 1 
2483 2 
2484 1 
2533 1 
2534 3 
2535 1 
2593 1 
2594 3 
2595 1 
3193 1 
3194 2 
3195 1 
3196 1 
3197 2 
3198 1 
3199 1 
3200 3 
3201 1 
3202 1 
3203 2 
3204 1 
3253 1 
3254 3 
3255 1 
3256 1 
3257 3 
3258 1 
3259 1 
3260 2 
3261 1 
3316 1 
3317 2 
3318 1 
3322 1 
3323 3 
3324 1 
3379 1 
3380 3 
3381 1 
3442 1 
3443 3 
3444 1 
3496 1 
3497 2 
3498 1 
3556 1 
3557 3 
3558 1 
3613 1 
3614 2 
3615 1 
3619 1 
3620 2 
3621 1 
3622 1 
3623 2 
3624 1 
3673 1 
3674 2 
3675 1 
3682 1 
3683 3 
3684 1 
3736 1 
3737 2 
3738 1 
4339 1 
4340 2 
4341 1 
4342 1 
4343 3 
4344 1 
4393 1 
4394 3 
4395 1 
4453 1 
4454 2 
4455 1 
4456 1 
4457 2 
4458 1 
4459 1 
4460 3 
4461 1 
4519 1 
4520 3 
4521 1 
4522 1 
4523 3 
4524 1 
4573 1 
4574 2 
4575 1 
4579 1 
4580 2 
4581 1 
4636 1 
4637 2 
4638 1 
4642 1 
4643 2 
4644 1 
4693 1 
4694 3 
4695 1 
4696 1 
4697 3 
4698 1 
4699 1 
4700 3 
4701 1 
4753 1 
4754 2 
4755 1 
4756 1 
4757 2 
4758 1 
4813 1 
4814 3 
4815 1 
4819 1 
4820 3 
4821 1 
4822 1 
4823 2 
4824 1 
4873 1 
4874 3 
4875 1 
4876 1 
4877 2 
4878 1 
4879 1 
4880 3 
4881 1 
4882 1 
4883 2 
4884 1 
5473 1 
5474 2 
5475 1 
5536 1 
5537 2 
5538 1 
5539 1 
5540 3 
5541 1 
5542 1 
5543 3 
5544 1 
5602 1 
5603 3 
5604 1 
5659 1 
5660 2 
5661 1 
5713 1 
5714 3 
5715 1 
5716 1 
5717 2 
5718 1 
5779 1 
5780 2 
5781 1 
5782 1 
5783 2 
5784 1 
5833 1 
5834 2 
5835 1 
5836 1 
5837 2 
5838 1 
5842 1 
5843 3 
5844 1 
5899 1 
5900 3 
5901 1 
5902 1 
5903 3 
5904 1 
5956 1 
5957 3 
5958 1 
6013 1 
6014 2 
6015 1 
6016 1 
6017 3 
6018 1 
6676 1 
6677 2 
6678 1 
6682 1 
6683 2 
6684 1 
6733 1 
6734 2 
6735 1 
6739 1 
6740 2 
6741 1 
6742 1 
6743 3 
6744 1 
6793 1 
6794 2 
6795 1 
6799 1 
6800 3 
6801 1 
6913 1 
6914 2 
6915 1 
6916 1 
6917 2 
6918 1 
6973 1 
6974 2 
6975 1 
6976 1 
6977 3 
6978 1 
6979 1 
6980 2 
6981 1 
6982 1 
6983 2 
6984 1 
7042 1 
7043 3 
7044 1 
7096 1 
7097 2 
7098 1 
7099 1 
7100 2 
7101 1 
7156 1 
7157 2 
7158 1 
7213 1 
7214 3 
7215 1 
7216 1 
7217 2 
7218 1 
7756 1 
7757 2 
7758 1 
7822 1 
7823 3 
7824 1 
7873 1 
7874 2 
7875 1 
7882 1 
7883 3 
7884 1 
7996 1 
7997 3 
7998 1 
8002 1 
8003 2 
8004 1 
8053 1 
8054 3 
8055 1 
8056 1 
8057 3 
8058 1 
8062 1 
8063 2 
8064 1 
8113 1 
8114 2 
8115 1 
8116 1 
8117 2 
8118 1 
8122 1 
8123 2 
8124 1 
8173 1 
8174 2 
8175 1 
8176 1 
8177 2 
8178 1 
8182 1 
8183 2 
8184 1 
8239 1 
8240 2 
8241 1 
8296 1 
8297 2 
8298 1 
8893 1 
8894 2 
8895 1 
8896 1 
8897 2 
8898 1 
8899 1 
8900 2 
8901 1 
8953 1 
8954 2 
8955 1 
8956 1 
8957 2 
8958 1 
9013 1 
9014 3 
9015 1 
9073 1 
9074 2 
9075 1 
9082 1 
9083 2 
9084 1 
9133 1 
9134 3 
9135 1 
9139 1 
9140 2 
9141 1 
9142 1 
9143 2 
9144 1 
9196 1 
9197 2 
9198 1 
9199 1 
9200 2 
9201 1 
9256 1 
9257 3 
9258 1 
9259 1 
9260 3 
9261 1 
9262 1 
9263 3 
9264 1 
9316 1 
9317 2 
9318 1 
9322 1 
9323 2 
9324 1 
9973 1 
9974 3 
9975 1 
9979 1 
9980 2 
9981 1 
9982 1 
9983 2 
9984 1 
10036 1 
10037 2 
10038 1 
10039 1 
10040 3 
10041 1 
10042 1 
10043 3 
10044 1 
10096 1 
10097 2 
10098 1 
10102 1 
10103 3 
10104 1 
10156 1 
10157 3 
10158 1 
10159 1 
10160 3 
10161 1 
10162 1 
10163 3 
10164 1 
10219 1 
10220 2 
10221 1 
10273 1 
10274 2 
10275 1 
10276 1 
10277 3 
10278 1 
10282 1 
10283 2 
10284 1 
10393 1 
10394 3 
10395 1 
10396 1 
10397 3 
10398 1 
10402 1 
10403 2 
10404 1 
10459 1 
10460 3 
10461 1 
10462 1 
10463 2 
10464 1 
10516 1 
10517 2 
10518 1 
10522 1 
10523 3 
10524 1 
25 1 
26 2 
27 1 
31 1 
32 3 
33 1 
34 1 
35 3 
36 1 
88 1 
89 3 
90 1 
94 1 
95 3 
96 1 
151 1 
152 2 
153 1 
208 1 
209 3 
210 1 
325 1 
326 2 
327 1 
328 1 
329 3 
330 1 
334 1 
335 2 
336 1 
385 1 
386 3 
387 1 
388 1 
389 2 
390 1 
391 1 
392 3 
393 1 
451 1 
452 3 
453 1 
505 1 
506 3 
507 1 
508 1 
509 2 
510 1 
511 1 
512 2 
513 1 
514 1 
515 3 
516 1 
1171 1 
1172 3 
1173 1 
1174 1 
1175 2 
1176 1 
1225 1 
1226 3 
1227 1 
1228 1 
1229 3 
1230 1 
1288 1 
1289 2 
1290 1 
1291 1 
1292 3 
1293 1 
1348 1 
1349 2 
1350 1 
1354 1 
1355 2 
1356 1 
1405 1 
1406 2 
1407 1 
1408 1 
1409 3 
1410 1 
1411 1 
1412 2 
1413 1 
1465 1 
1466 2 
1467 1 
1468 1 
1469 2 
1470 1 
1474 1 
1475 3 
1476 1 
1525 1 
1526 3 
1527 1 
1528 1 
1529 2 
1530 1 
1531 1 
1532 2 
1533 1 
1585 1 
1586 3 
1587 1 
1591 1 
1592 2 
1593 1 
1594 1 
1595 2 
1596 1 
1651 1 
1652 3 
1653 1 
1654 1 
1655 3 
1656 1 
2254 1 
2255 3 
2256 1 
2305 1 
2306 3 
2307 1 
2365 1 
2366 3 
2367 1 
2371 1 
2372 3 
2373 1 
2374 1 
2375 2 
2376 1 
2428 1 
2429 2 
2430 1 
2431 1 
2432 3 
2433 1 
2434 1 
2435 2 
2436 1 
2485 1 
2486 2 
2487 1 
2491 1 
2492 2 
2493 1 
2494 1 
2495 3 
2496 1 
2545 1 
2546 2 
2547 1 
2551 1 
2552 3 
2553 1 
2605 1 
2606 2 
2607 1 
2614 1 
2615 2 
2616 1 
3268 1 
3269 2 
3270 1 
3271 1 
3272 2 
3273 1 
3328 1 
3329 3 
3330 1 
3334 1 
3335 3 
3336 1 
3388 1 
3389 3 
3390 1 
3391 1 
3392 2 
3393 1 
3394 1 
3395 3 
3396 1 
3445 1 
3446 2 
3447 1 
3448 1 
3449 2 
3450 1 
3451 1 
3452 3 
3453 1 
3454 1 
3455 2 
3456 1 
3505 1 
3506 3 
3507 1 
3508 1 
3509 3 
3510 1 
3511 1 
3512 2 
3513 1 
3568 1 
3569 2 
3570 1 
3571 1 
3572 3 
3573 1 
3574 1 
3575 2 
3576 1 
3625 1 
3626 3 
3627 1 
3634 1 
3635 2 
3636 1 
3691 1 
3692 3 
3693 1 
3745 1 
3746 3 
3747 1 
4348 1 
4349 3 
4350 1 
4351 1 
4352 3 
4353 1 
4354 1 
4355 2 
4356 1 
4408 1 
4409 2 
4410 1 
4465 1 
4466 3 
4467 1 
4468 1 
4469 2 
4470 1 
4474 1 
4475 2 
4476 1 
4528 1 
4529 2 
4530 1 
4531 1 
4532 3 
4533 1 
4534 1 
4535 2 
4536 1 
4585 1 
4586 3 
4587 1 
4588 1 
4589 2 
4590 1 
4591 1 
4592 3 
4593 1 
4645 1 
4646 2 
4647 1 
4648 1 
4649 2 
4650 1 
4651 1 
4652 3 
4653 1 
4708 1 
4709 3 
4710 1 
4765 1 
4766 3 
4767 1 
4774 1 
4775 2 
4776 1 
4825 1 
4826 3 
4827 1 
4828 1 
4829 3 
4830 1 
4831 1 
4832 3 
4833 1 
4885 1 
4886 3 
4887 1 
4888 1 
4889 3 
4890 1 
4894 1 
4895 3 
4896 1 
5485 1 
5486 2 
5487 1 
5488 1 
5489 2 
5490 1 
5491 1 
5492 2 
5493 1 
5545 1 
5546 3 
5547 1 
5554 1 
5555 3 
5556 1 
5605 1 
5606 2 
5607 1 
5608 1 
5609 2 
5610 1 
5614 1 
5615 2 
5616 1 
5665 1 
5666 3 
5667 1 
5671 1 
5672 3 
5673 1 
5725 1 
5726 2 
5727 1 
5728 1 
5729 2 
5730 1 
5734 1 
5735 3 
5736 1 
5791 1 
5792 3 
5793 1 
5854 1 
5855 2 
5856 1 
5905 1 
5906 2 
5907 1 
5914 1 
5915 2 
5916 1 
5968 1 
5969 3 
5970 1 
5971 1 
5972 3 
5973 1 
5974 1 
5975 3 
5976 1 
6025 1 
6026 3 
6027 1 
6031 1 
6032 2 
6033 1 
6034 1 
6035 2 
6036 1 
6685 1 
6686 2 
6687 1 
6691 1 
6692 2 
6693 1 
6694 1 
6695 3 
6696 1 
6745 1 
6746 2 
6747 1 
6754 1 
6755 3 
6756 1 
6808 1 
6809 3 
6810 1 
6811 1 
6812 3 
6813 1 
6865 1 
6866 2 
6867 1 
6868 1 
6869 2 
6870 1 
6871 1 
6872 2 
6873 1 
6874 1 
6875 3 
6876 1 
6925 1 
6926 3 
6927 1 
6988 1 
6989 2 
6990 1 
7054 1 
7055 3 
7056 1 
7108 1 
7109 3 
7110 1 
7111 1 
7112 2 
7113 1 
7114 1 
7115 2 
7116 1 
7168 1 
7169 3 
7170 1 
7171 1 
7172 2 
7173 1 
7174 1 
7175 2 
7176 1 
7225 1 
7226 2 
7227 1 
7231 1 
7232 3 
7233 1 
7765 1 
7766 3 
7767 1 
7768 1 
7769 2 
7770 1 
7771 1 
7772 3 
7773 1 
7828 1 
7829 2 
7830 1 
7834 1 
7835 3 
7836 1 
7885 1 
7886 3 
7887 1 
7888 1 
7889 2 
7890 1 
7891 1 
7892 2 
7893 1 
7894 1 
7895 3 
7896 1 
7945 1 
7946 2 
7947 1 
7948 1 
7949 3 
7950 1 
7951 1 
7952 3 
7953 1 
8005 1 
8006 2 
8007 1 
8008 1 
8009 3 
8010 1 
8011 1 
8012 3 
8013 1 
8065 1 
8066 2 
8067 1 
8068 1 
8069 3 
8070 1 
8071 1 
8072 2 
8073 1 
8074 1 
8075 3 
8076 1 
8131 1 
8132 3 
8133 1 
8134 1 
8135 3 
8136 1 
8194 1 
8195 3 
8196 1 
8248 1 
8249 3 
8250 1 
8251 1 
8252 3 
8253 1 
8254 1 
8255 2 
8256 1 
8308 1 
8309 2 
8310 1 
8314 1 
8315 2 
8316 1 
8908 1 
8909 3 
8910 1 
8914 1 
8915 3 
8916 1 
8971 1 
8972 2 
8973 1 
9025 1 
9026 2 
9027 1 
9028 1 
9029 3 
9030 1 
9031 1 
9032 2 
9033 1 
9034 1 
9035 3 
9036 1 
9085 1 
9086 3 
9087 1 
9088 1 
9089 2 
9090 1 
9094 1 
9095 2 
9096 1 
9145 1 
9146 3 
9147 1 
9148 1 
9149 3 
9150 1 
9154 1 
9155 3 
9156 1 
9205 1 
9206 3 
9207 1 
9208 1 
9209 3 
9210 1 
9211 1 
9212 2 
9213 1 
9265 1 
9266 3 
9267 1 
9325 1 
9326 2 
9327 1 
9328 1 
9329 2 
9330 1 
9985 1 
9986 3 
9987 1 
10105 1 
10106 3 
10107 1 
10108 1 
10109 2 
10110 1 
10114 1 
10115 3 
10116 1 
10165 1 
10166 2 
10167 1 
10225 1 
10226 3 
10227 1 
10234 1 
10235 3 
10236 1 
10285 1 
10286 3 
10287 1 
10288 1 
10289 3 
10290 1 
10294 1 
10295 3 
10296 1 
10348 1 
10349 3 
10350 1 
10354 1 
10355 3 
10356 1 
10405 1 
10406 3 
10407 1 
10408 1 
10409 3 
10410 1 
10411 1 
10412 2 
10413 1 
10468 1 
10469 3 
10470 1 
10525 1 
10526 3 
10527 1 
10528 1 
10529 2 
10530 1 
10531 1 
10532 2 
10533 1 
37 1 
38 2 
39 1 
40 1 
41 2 
42 1 
43 1 
44 2 
45 1 
97 1 
98 3 
99 1 
103 1 
104 3 
105 1 
106 1 
107 2 
108 1 
160 1 
161 3 
162 1 
166 1 
167 2 
168 1 
217 1 
218 3 
219 1 
223 1 
224 2 
225 1 
226 1 
227 2 
228 1 
277 1 
278 3 
279 1 
280 1 
281 2 
282 1 
283 1 
284 2 
285 1 
403 1 
404 3 
405 1 
406 1 
407 3 
408 1 
460 1 
461 2 
462 1 
517 1 
518 3 
519 1 
520 1 
521 2 
522 1 
526 1 
527 2 
528 1 
1180 1 
1181 2 
1182 1 
1246 1 
1247 2 
1248 1 
1297 1 
1298 2 
1299 1 
1300 1 
1301 2 
1302 1 
1303 1 
1304 3 
1305 1 
1306 1 
1307 2 
1308 1 
1357 1 
1358 2 
1359 1 
1360 1 
1361 3 
1362 1 
1363 1 
1364 2 
1365 1 
1366 1 
1367 2 
1368 1 
1417 1 
1418 3 
1419 1 
1480 1 
1481 3 
1482 1 
1483 1 
1484 3 
1485 1 
1537 1 
1538 3 
1539 1 
1540 1 
1541 2 
1542 1 
1543 1 
1544 2 
1545 1 
1546 1 
1547 3 
1548 1 
1603 1 
1604 3 
1605 1 
1606 1 
1607 3 
1608 1 
1657 1 
1658 3 
1659 1 
2320 1 
2321 3 
2322 1 
2323 1 
2324 3 
2325 1 
2326 1 
2327 3 
2328 1 
2380 1 
2381 2 
2382 1 
2386 1 
2387 3 
2388 1 
2437 1 
2438 2 
2439 1 
2497 1 
2498 3 
2499 1 
2503 1 
2504 2 
2505 1 
2557 1 
2558 2 
2559 1 
2563 1 
2564 2 
2565 1 
2566 1 
2567 2 
2568 1 
2617 1 
2618 3 
2619 1 
2620 1 
2621 2 
2622 1 
3220 1 
3221 3 
3222 1 
3223 1 
3224 3 
3225 1 
3226 1 
3227 3 
3228 1 
3277 1 
3278 2 
3279 1 
3280 1 
3281 2 
3282 1 
3286 1 
3287 3 
3288 1 
3340 1 
3341 2 
3342 1 
3343 1 
3344 2 
3345 1 
3346 1 
3347 2 
3348 1 
3397 1 
3398 3 
3399 1 
3403 1 
3404 3 
3405 1 
3517 1 
3518 3 
3519 1 
3577 1 
3578 3 
3579 1 
3580 1 
3581 2 
3582 1 
3586 1 
3587 3 
3588 1 
3637 1 
3638 2 
3639 1 
3643 1 
3644 2 
3645 1 
3646 1 
3647 3 
3648 1 
3697 1 
3698 2 
3699 1 
3700 1 
3701 3 
3702 1 
3760 1 
3761 3 
3762 1 
3763 1 
3764 2 
3765 1 
3766 1 
3767 2 
3768 1 
4366 1 
4367 3 
4368 1 
4417 1 
4418 3 
4419 1 
4423 1 
4424 3 
4425 1 
4483 1 
4484 2 
4485 1 
4486 1 
4487 2 
4488 1 
4537 1 
4538 2 
4539 1 
4543 1 
4544 2 
4545 1 
4606 1 
4607 2 
4608 1 
4657 1 
4658 2 
4659 1 
4660 1 
4661 2 
4662 1 
4666 1 
4667 2 
4668 1 
4717 1 
4718 3 
4719 1 
4720 1 
4721 2 
4722 1 
4723 1 
4724 2 
4725 1 
4840 1 
4841 3 
4842 1 
4843 1 
4844 2 
4845 1 
4846 1 
4847 2 
4848 1 
4900 1 
4901 3 
4902 1 
5506 1 
5507 2 
5508 1 
5560 1 
5561 3 
5562 1 
5566 1 
5567 2 
5568 1 
5620 1 
5621 2 
5622 1 
5623 1 
5624 2 
5625 1 
5626 1 
5627 2 
5628 1 
5677 1 
5678 3 
5679 1 
5680 1 
5681 3 
5682 1 
5737 1 
5738 3 
5739 1 
5740 1 
5741 2 
5742 1 
5746 1 
5747 2 
5748 1 
5797 1 
5798 2 
5799 1 
5800 1 
5801 2 
5802 1 
5863 1 
5864 2 
5865 1 
5866 1 
5867 3 
5868 1 
5923 1 
5924 3 
5925 1 
5926 1 
5927 3 
5928 1 
5980 1 
5981 3 
5982 1 
5983 1 
5984 2 
5985 1 
5986 1 
5987 3 
5988 1 
6040 1 
6041 3 
6042 1 
6043 1 
6044 3 
6045 1 
6697 1 
6698 2 
6699 1 
6700 1 
6701 3 
6702 1 
6703 1 
6704 3 
6705 1 
6706 1 
6707 2 
6708 1 
6757 1 
6758 3 
6759 1 
6760 1 
6761 2 
6762 1 
6763 1 
6764 3 
6765 1 
6766 1 
6767 3 
6768 1 
6817 1 
6818 2 
6819 1 
6823 1 
6824 3 
6825 1 
6877 1 
6878 2 
6879 1 
6880 1 
6881 3 
6882 1 
6883 1 
6884 3 
6885 1 
6886 1 
6887 2 
6888 1 
6937 1 
6938 2 
6939 1 
6940 1 
6941 2 
6942 1 
6943 1 
6944 3 
6945 1 
6946 1 
6947 3 
6948 1 
6997 1 
6998 3 
6999 1 
7003 1 
7004 2 
7005 1 
7060 1 
7061 3 
7062 1 
7063 1 
7064 2 
7065 1 
7066 1 
7067 3 
7068 1 
7126 1 
7127 3 
7128 1 
7180 1 
7181 2 
7182 1 
7183 1 
7184 3 
7185 1 
7186 1 
7187 2 
7188 1 
7237 1 
7238 2 
7239 1 
7777 1 
7778 3 
7779 1 
7780 1 
7781 3 
7782 1 
7786 1 
7787 2 
7788 1 
7837 1 
7838 3 
7839 1 
7840 1 
7841 2 
7842 1 
7900 1 
7901 3 
7902 1 
7906 1 
7907 3 
7908 1 
7957 1 
7958 3 
7959 1 
8017 1 
8018 2 
8019 1 
8023 1 
8024 2 
8025 1 
8026 1 
8027 3 
8028 1 
8077 1 
8078 3 
8079 1 
8083 1 
8084 2 
8085 1 
8086 1 
8087 2 
8088 1 
8140 1 
8141 3 
8142 1 
8143 1 
8144 2 
8145 1 
8197 1 
8198 2 
8199 1 
8257 1 
8258 3 
8259 1 
8260 1 
8261 3 
8262 1 
8263 1 
8264 2 
8265 1 
8317 1 
8318 2 
8319 1 
8320 1 
8321 3 
8322 1 
8917 1 
8918 3 
8919 1 
8920 1 
8921 3 
8922 1 
8926 1 
8927 2 
8928 1 
8983 1 
8984 3 
8985 1 
8986 1 
8987 3 
8988 1 
9040 1 
9041 2 
9042 1 
9046 1 
9047 3 
9048 1 
9100 1 
9101 3 
9102 1 
9106 1 
9107 2 
9108 1 
9160 1 
9161 2 
9162 1 
9163 1 
9164 3 
9165 1 
9166 1 
9167 2 
9168 1 
9220 1 
9221 3 
9222 1 
9223 1 
9224 3 
9225 1 
9277 1 
9278 2 
9279 1 
9283 1 
9284 3 
9285 1 
9286 1 
9287 2 
9288 1 
9340 1 
9341 3 
9342 1 
9346 1 
9347 3 
9348 1 
9997 1 
9998 2 
9999 1 
10060 1 
10061 2 
10062 1 
10066 1 
10067 3 
10068 1 
10117 1 
10118 2 
10119 1 
10120 1 
10121 3 
10122 1 
10123 1 
10124 3 
10125 1 
10177 1 
10178 2 
10179 1 
10237 1 
10238 2 
10239 1 
10246 1 
10247 2 
10248 1 
10300 1 
10301 3 
10302 1 
10357 1 
10358 2 
10359 1 
10360 1 
10361 3 
10362 1 
10420 1 
10421 2 
10422 1 
10426 1 
10427 2 
10428 1 
10480 1 
10481 2 
10482 1 
10537 1 
10538 2 
10539 1 
10540 1 
10541 3 
10542 1 
49 1 
50 3 
51 1 
58 1 
59 3 
60 1 
109 1 
110 3 
111 1 
112 1 
113 3 
114 1 
169 1 
170 3 
171 1 
172 1 
173 3 
174 1 
232 1 
233 2 
234 1 
238 1 
239 3 
240 1 
289 1 
290 3 
291 1 
292 1 
293 3 
294 1 
295 1 
296 2 
297 1 
298 1 
299 3 
300 1 
349 1 
350 3 
351 1 
358 1 
359 3 
360 1 
409 1 
410 2 
411 1 
412 1 
413 2 
414 1 
415 1 
416 3 
417 1 
469 1 
470 2 
471 1 
472 1 
473 3 
474 1 
478 1 
479 2 
480 1 
529 1 
530 3 
531 1 
535 1 
536 3 
537 1 
538 1 
539 3 
540 1 
1189 1 
1190 3 
1191 1 
1192 1 
1193 3 
1194 1 
1198 1 
1199 2 
1200 1 
1249 1 
1250 2 
1251 1 
1255 1 
1256 2 
1257 1 
1309 1 
1310 3 
1311 1 
1315 1 
1316 2 
1317 1 
1369 1 
1370 3 
1371 1 
1375 1 
1376 2 
1377 1 
1378 1 
1379 3 
1380 1 
1435 1 
1436 3 
1437 1 
1438 1 
1439 2 
1440 1 
1489 1 
1490 2 
1491 1 
1492 1 
1493 2 
1494 1 
1495 1 
1496 2 
1497 1 
1552 1 
1553 3 
1554 1 
1555 1 
1556 3 
1557 1 
1558 1 
1559 3 
1560 1 
1672 1 
1673 3 
1674 1 
2269 1 
2270 3 
2271 1 
2272 1 
2273 2 
2274 1 
2332 1 
2333 2 
2334 1 
2389 1 
2390 2 
2391 1 
2392 1 
2393 3 
2394 1 
2398 1 
2399 2 
2400 1 
2449 1 
2450 2 
2451 1 
2455 1 
2456 3 
2457 1 
2458 1 
2459 2 
2460 1 
2509 1 
2510 3 
2511 1 
2512 1 
2513 3 
2514 1 
2515 1 
2516 2 
2517 1 
2518 1 
2519 3 
2520 1 
2575 1 
2576 2 
2577 1 
2578 1 
2579 3 
2580 1 
2629 1 
2630 2 
2631 1 
2632 1 
2633 3 
2634 1 
2635 1 
2636 2 
2637 1 
2638 1 
2639 2 
2640 1 
3235 1 
3236 3 
3237 1 
3292 1 
3293 3 
3294 1 
3349 1 
3350 2 
3351 1 
3355 1 
3356 2 
3357 1 
3358 1 
3359 2 
3360 1 
3409 1 
3410 2 
3411 1 
3412 1 
3413 2 
3414 1 
3472 1 
3473 3 
3474 1 
3475 1 
3476 2 
3477 1 
3478 1 
3479 3 
3480 1 
3529 1 
3530 3 
3531 1 
3589 1 
3590 2 
3591 1 
3592 1 
3593 2 
3594 1 
3595 1 
3596 3 
3597 1 
3649 1 
3650 2 
3651 1 
3709 1 
3710 2 
3711 1 
3715 1 
3716 2 
3717 1 
3718 1 
3719 2 
3720 1 
3775 1 
3776 2 
3777 1 
3778 1 
3779 3 
3780 1 
4369 1 
4370 2 
4371 1 
4432 1 
4433 2 
4434 1 
4438 1 
4439 3 
4440 1 
4489 1 
4490 3 
4491 1 
4492 1 
4493 2 
4494 1 
4552 1 
4553 3 
4554 1 
4558 1 
4559 3 
4560 1 
4612 1 
4613 3 
4614 1 
4615 1 
4616 3 
4617 1 
4669 1 
4670 2 
4671 1 
4672 1 
4673 2 
4674 1 
4732 1 
4733 3 
4734 1 
4738 1 
4739 3 
4740 1 
4789 1 
4790 2 
4791 1 
4855 1 
4856 3 
4857 1 
4858 1 
4859 3 
4860 1 
5509 1 
5510 3 
5511 1 
5512 1 
5513 3 
5514 1 
5515 1 
5516 2 
5517 1 
5575 1 
5576 3 
5577 1 
5632 1 
5633 3 
5634 1 
5635 1 
5636 2 
5637 1 
5695 1 
5696 2 
5697 1 
5758 1 
5759 3 
5760 1 
5809 1 
5810 2 
5811 1 
5815 1 
5816 2 
5817 1 
5872 1 
5873 2 
5874 1 
5878 1 
5879 3 
5880 1 
5932 1 
5933 3 
5934 1 
5935 1 
5936 3 
5937 1 
5998 1 
5999 3 
6000 1 
6052 1 
6053 2 
6054 1 
6709 1 
6710 3 
6711 1 
6712 1 
6713 2 
6714 1 
6718 1 
6719 3 
6720 1 
6772 1 
6773 2 
6774 1 
6775 1 
6776 2 
6777 1 
6829 1 
6830 2 
6831 1 
6832 1 
6833 3 
6834 1 
6835 1 
6836 2 
6837 1 
6889 1 
6890 3 
6891 1 
6892 1 
6893 2 
6894 1 
6952 1 
6953 3 
6954 1 
6955 1 
6956 3 
6957 1 
6958 1 
6959 2 
6960 1 
7012 1 
7013 3 
7014 1 
7069 1 
7070 3 
7071 1 
7072 1 
7073 2 
7074 1 
7075 1 
7076 3 
7077 1 
7078 1 
7079 2 
7080 1 
7132 1 
7133 3 
7134 1 
7135 1 
7136 2 
7137 1 
7138 1 
7139 3 
7140 1 
7249 1 
7250 2 
7251 1 
7792 1 
7793 2 
7794 1 
7795 1 
7796 2 
7797 1 
7798 1 
7799 2 
7800 1 
7855 1 
7856 3 
7857 1 
7858 1 
7859 3 
7860 1 
7909 1 
7910 3 
7911 1 
7912 1 
7913 3 
7914 1 
7915 1 
7916 2 
7917 1 
7969 1 
7970 3 
7971 1 
7972 1 
7973 2 
7974 1 
7975 1 
7976 2 
7977 1 
7978 1 
7979 3 
7980 1 
8032 1 
8033 3 
8034 1 
8035 1 
8036 2 
8037 1 
8089 1 
8090 3 
8091 1 
8098 1 
8099 3 
8100 1 
8155 1 
8156 3 
8157 1 
8158 1 
8159 2 
8160 1 
8209 1 
8210 2 
8211 1 
8275 1 
8276 3 
8277 1 
8278 1 
8279 3 
8280 1 
8329 1 
8330 2 
8331 1 
8338 1 
8339 3 
8340 1 
8929 1 
8930 2 
8931 1 
8932 1 
8933 3 
8934 1 
8995 1 
8996 3 
8997 1 
8998 1 
8999 2 
9000 1 
9052 1 
9053 2 
9054 1 
9055 1 
9056 2 
9057 1 
9058 1 
9059 3 
9060 1 
9109 1 
9110 3 
9111 1 
9112 1 
9113 3 
9114 1 
9169 1 
9170 3 
9171 1 
9172 1 
9173 3 
9174 1 
9175 1 
9176 3 
9177 1 
9178 1 
9179 2 
9180 1 
9232 1 
9233 3 
9234 1 
9235 1 
9236 2 
9237 1 
9238 1 
9239 2 
9240 1 
9289 1 
9290 2 
9291 1 
9292 1 
9293 2 
9294 1 
9295 1 
9296 2 
9297 1 
9298 1 
9299 2 
9300 1 
9349 1 
9350 2 
9351 1 
9352 1 
9353 3 
9354 1 
10012 1 
10013 3 
10014 1 
10015 1 
10016 3 
10017 1 
10069 1 
10070 3 
10071 1 
10072 1 
10073 2 
10074 1 
10078 1 
10079 2 
10080 1 
10129 1 
10130 2 
10131 1 
10249 1 
10250 2 
10251 1 
10252 1 
10253 3 
10254 1 
10255 1 
10256 3 
10257 1 
10258 1 
10259 3 
10260 1 
10309 1 
10310 2 
10311 1 
10312 1 
10313 3 
10314 1 
10318 1 
10319 2 
10320 1 
10369 1 
10370 2 
10371 1 
10372 1 
10373 2 
10374 1 
10375 1 
10376 2 
10377 1 
10378 1 
10379 2 
10380 1 
10429 1 
10430 3 
10431 1 
10432 1 
10433 2 
10434 1 
10438 1 
10439 3 
10440 1 
10489 1 
10490 3 
10491 1 
10492 1 
10493 3 
10494 1 
10495 1 
10496 2 
10497 1 
10498 1 
10499 3 
10500 1 
10549 1 
10550 3 
10551 1 
10552 1 
10553 2 
10554 1 
10558 1 
10559 2 
10560 1 
544 1 
545 3 
546 1 
547 1 
548 2 
549 1 
601 1 
602 2 
603 1 
610 1 
611 3 
612 1 
724 1 
725 2 
726 1 
727 1 
728 3 
729 1 
781 1 
782 2 
783 1 
784 1 
785 3 
786 1 
790 1 
791 3 
792 1 
841 1 
842 3 
843 1 
844 1 
845 2 
846 1 
850 1 
851 2 
852 1 
901 1 
902 3 
903 1 
904 1 
905 2 
906 1 
907 1 
908 3 
909 1 
967 1 
968 2 
969 1 
970 1 
971 2 
972 1 
1024 1 
1025 2 
1026 1 
1027 1 
1028 2 
1029 1 
1081 1 
1082 3 
1083 1 
1084 1 
1085 3 
1086 1 
1087 1 
1088 3 
1089 1 
1681 1 
1682 3 
1683 1 
1684 1 
1685 2 
1686 1 
1690 1 
1691 2 
1692 1 
1744 1 
1745 3 
1746 1 
1801 1 
1802 2 
1803 1 
1804 1 
1805 3 
1806 1 
1861 1 
1862 3 
1863 1 
1864 1 
1865 2 
1866 1 
1921 1 
1922 3 
1923 1 
1927 1 
1928 2 
1929 1 
1930 1 
1931 3 
1932 1 
1981 1 
1982 3 
1983 1 
1984 1 
1985 3 
1986 1 
1987 1 
1988 2 
1989 1 
1990 1 
1991 3 
1992 1 
2161 1 
2162 3 
2163 1 
2167 1 
2168 2 
2169 1 
2170 1 
2171 3 
2172 1 
2644 1 
2645 2 
2646 1 
2647 1 
2648 3 
2649 1 
2650 1 
2651 2 
2652 1 
2704 1 
2705 3 
2706 1 
2710 1 
2711 3 
2712 1 
2761 1 
2762 2 
2763 1 
2767 1 
2768 2 
2769 1 
2821 1 
2822 3 
2823 1 
2830 1 
2831 3 
2832 1 
2881 1 
2882 3 
2883 1 
2884 1 
2885 2 
2886 1 
2887 1 
2888 2 
2889 1 
2890 1 
2891 3 
2892 1 
2947 1 
2948 2 
2949 1 
3001 1 
3002 2 
3003 1 
3004 1 
3005 3 
3006 1 
3010 1 
3011 3 
3012 1 
3061 1 
3062 3 
3063 1 
3067 1 
3068 3 
3069 1 
3070 1 
3071 3 
3072 1 
3121 1 
3122 3 
3123 1 
3124 1 
3125 3 
3126 1 
3127 1 
3128 3 
3129 1 
3781 1 
3782 2 
3783 1 
3784 1 
3785 3 
3786 1 
3787 1 
3788 2 
3789 1 
3790 1 
3791 2 
3792 1 
3844 1 
3845 2 
3846 1 
3850 1 
3851 3 
3852 1 
3910 1 
3911 3 
3912 1 
3961 1 
3962 3 
3963 1 
4021 1 
4022 2 
4023 1 
4024 1 
4025 3 
4026 1 
4030 1 
4031 3 
4032 1 
4081 1 
4082 2 
4083 1 
4084 1 
4085 3 
4086 1 
4090 1 
4091 3 
4092 1 
4144 1 
4145 2 
4146 1 
4150 1 
4151 3 
4152 1 
4207 1 
4208 3 
4209 1 
4210 1 
4211 2 
4212 1 
4264 1 
4265 2 
4266 1 
4267 1 
4268 2 
4269 1 
4270 1 
4271 3 
4272 1 
4921 1 
4922 3 
4923 1 
4924 1 
4925 2 
4926 1 
4930 1 
4931 2 
4932 1 
4981 1 
4982 2 
4983 1 
5041 1 
5042 3 
5043 1 
5044 1 
5045 2 
5046 1 
5161 1 
5162 2 
5163 1 
5167 1 
5168 2 
5169 1 
5170 1 
5171 2 
5172 1 
5224 1 
5225 3 
5226 1 
5281 1 
5282 2 
5283 1 
5290 1 
5291 2 
5292 1 
5341 1 
5342 3 
5343 1 
5344 1 
5345 2 
5346 1 
5347 1 
5348 2 
5349 1 
5350 1 
5351 3 
5352 1 
5401 1 
5402 2 
5403 1 
6067 1 
6068 3 
6069 1 
6130 1 
6131 3 
6132 1 
6181 1 
6182 2 
6183 1 
6187 1 
6188 3 
6189 1 
6190 1 
6191 2 
6192 1 
6241 1 
6242 3 
6243 1 
6244 1 
6245 3 
6246 1 
6247 1 
6248 3 
6249 1 
6304 1 
6305 3 
6306 1 
6307 1 
6308 3 
6309 1 
6310 1 
6311 3 
6312 1 
6361 1 
6362 2 
6363 1 
6367 1 
6368 3 
6369 1 
6370 1 
6371 3 
6372 1 
6421 1 
6422 2 
6423 1 
6424 1 
6425 2 
6426 1 
6430 1 
6431 2 
6432 1 
6487 1 
6488 3 
6489 1 
6544 1 
6545 3 
6546 1 
6547 1 
6548 3 
6549 1 
6550 1 
6551 3 
6552 1 
6610 1 
6611 3 
6612 1 
7264 1 
7265 3 
7266 1 
7267 1 
7268 2 
7269 1 
7270 1 
7271 2 
7272 1 
7321 1 
7322 3 
7323 1 
7327 1 
7328 2 
7329 1 
7384 1 
7385 2 
7386 1 
7387 1 
7388 2 
7389 1 
7390 1 
7391 2 
7392 1 
7444 1 
7445 3 
7446 1 
7450 1 
7451 2 
7452 1 
7561 1 
7562 2 
7563 1 
7564 1 
7565 2 
7566 1 
7621 1 
7622 3 
7623 1 
7624 1 
7625 3 
7626 1 
7630 1 
7631 2 
7632 1 
7687 1 
7688 3 
7689 1 
7690 1 
7691 3 
7692 1 
8341 1 
8342 3 
8343 1 
8344 1 
8345 3 
8346 1 
8347 1 
8348 3 
8349 1 
8350 1 
8351 3 
8352 1 
8404 1 
8405 2 
8406 1 
8407 1 
8408 2 
8409 1 
8410 1 
8411 3 
8412 1 
8470 1 
8471 3 
8472 1 
8524 1 
8525 2 
8526 1 
8530 1 
8531 3 
8532 1 
8581 1 
8582 2 
8583 1 
8587 1 
8588 2 
8589 1 
8641 1 
8642 2 
8643 1 
8647 1 
8648 2 
8649 1 
8701 1 
8702 3 
8703 1 
8710 1 
8711 3 
8712 1 
8767 1 
8768 2 
8769 1 
8770 1 
8771 3 
8772 1 
8821 1 
8822 3 
8823 1 
8827 1 
8828 2 
8829 1 
9361 1 
9362 3 
9363 1 
9370 1 
9371 3 
9372 1 
9421 1 
9422 2 
9423 1 
9481 1 
9482 3 
9483 1 
9484 1 
9485 3 
9486 1 
9487 1 
9488 3 
9489 1 
9490 1 
9491 2 
9492 1 
9541 1 
9542 2 
9543 1 
9547 1 
9548 3 
9549 1 
9550 1 
9551 3 
9552 1 
9604 1 
9605 2 
9606 1 
9610 1 
9611 2 
9612 1 
9664 1 
9665 2 
9666 1 
9721 1 
9722 3 
9723 1 
9727 1 
9728 3 
9729 1 
9781 1 
9782 2 
9783 1 
9790 1 
9791 3 
9792 1 
9841 1 
9842 3 
9843 1 
9844 1 
9845 2 
9846 1 
9901 1 
9902 2 
9903 1 
9904 1 
9905 2 
9906 1 
9907 1 
9908 3 
9909 1 
9910 1 
9911 2 
9912 1 
10567 1 
10568 2 
10569 1 
10621 1 
10622 2 
10623 1 
10627 1 
10628 3 
10629 1 
10681 1 
10682 3 
10683 1 
10690 1 
10691 3 
10692 1 
10741 1 
10742 3 
10743 1 
10747 1 
10748 2 
10749 1 
10804 1 
10805 2 
10806 1 
10807 1 
10808 2 
10809 1 
10861 1 
10862 2 
10863 1 
10867 1 
10868 3 
10869 1 
10870 1 
10871 3 
10872 1 
10921 1 
10922 3 
10923 1 
10927 1 
10928 3 
10929 1 
10984 1 
10985 2 
10986 1 
10987 1 
10988 2 
10989 1 
10990 1 
10991 3 
10992 1 
11047 1 
11048 3 
11049 1 
559 1 
560 3 
561 1 
562 1 
563 3 
564 1 
613 1 
614 2 
615 1 
616 1 
617 3 
618 1 
682 1 
683 2 
684 1 
733 1 
734 2 
735 1 
793 1 
794 2 
795 1 
796 1 
797 3 
798 1 
856 1 
857 2 
858 1 
859 1 
860 2 
861 1 
916 1 
917 2 
918 1 
976 1 
977 2 
978 1 
979 1 
980 2 
981 1 