ITEM: TIMESTEP
25000000
ITEM: NUMBER OF ENTRIES
177
ITEM: BOX BOUNDS pp pp pp
0 50
0 50
0 50
ITEM: ENTRIES c_binfo[1] c_binfo[2] c_binfo[3] 
2 15634 15635 
1 7878 10918 
2 7877 7878 
2 7876 7877 
1 7876 14223 
2 10918 10919 
2 14222 14223 
2 7708 7709 
2 15635 15636 
2 9559 9560 
1 9559 10920 
2 10919 10920 
2 3706 3707 
1 3706 15636 
2 9560 9561 
2 3707 3708 
1 3708 7596 
1 9561 15087 
2 15086 15087 
2 7315 7316 
1 7315 15085 
2 15085 15086 
2 7316 7317 
1 5205 8965 
2 8965 8966 
2 8966 8967 
1 8967 14388 
2 14267 14268 
2 9701 9702 
2 941 942 
1 942 9702 
2 14387 14388 
2 7709 7710 
2 9700 9701 
1 9700 14619 
2 9355 9356 
2 14618 14619 
2 4384 4385 
2 4385 4386 
2 14266 14267 
2 7594 7595 
1 7594 14266 
2 7595 7596 
1 4386 4420 
2 14386 14387 
1 14386 20814 
2 20813 20814 
2 20812 20813 
2 18367 18368 
1 18367 20812 
2 18368 18369 
2 9356 9357 
2 18383 18384 
2 18382 18383 
2 1522 1523 
1 1522 10603 
2 10603 10604 
1 1524 9357 
2 1523 1524 
2 4913 4914 
2 4420 4421 
2 4421 4422 
1 4422 4914 
2 8443 8444 
2 8444 8445 
2 4447 4448 
1 4447 8445 
2 4448 4449 
2 4912 4913 
2 18629 18630 
2 18628 18629 
2 19172 19173 
1 3252 19173 
2 3251 3252 
2 3250 3251 
1 3250 14268 
2 940 941 
1 940 20215 
2 3050 3051 
2 3049 3050 
2 10154 10155 
2 10153 10154 
2 5765 5766 
2 5764 5765 
1 5764 10153 
2 20215 20216 
1 3051 13471 
2 10229 10230 
2 10957 10958 
2 10228 10229 
1 10228 18834 
2 18832 18833 
1 18832 20217 
2 18833 18834 
2 20216 20217 
2 9193 9194 
1 9193 9567 
2 1331 1332 
2 10958 10959 
2 1330 1331 
1 1330 9195 
2 3565 3566 
1 3565 10959 
2 3566 3567 
2 9194 9195 
2 2048 2049 
2 16858 16859 
2 9565 9566 
2 16859 16860 
2 9566 9567 
2 9691 9692 
2 9692 9693 
2 6454 6455 
1 6454 10099 
2 9320 9321 
2 9319 9320 
1 2049 9319 
1 4449 9321 
2 10100 10101 
2 10099 10100 
2 10604 10605 
2 13346 13347 
1 10605 13347 
2 13345 13346 
2 8713 8714 
2 8714 8715 
1 8715 18378 
2 19171 19172 
2 7775 7776 
2 13471 13472 
2 7774 7775 
2 13472 13473 
1 1452 13473 
3 1451 1452 
2 5693 5694 
2 5692 5693 
1 5692 6066 
2 6065 6066 
2 6064 6065 
1 6064 6456 
2 8213 8214 
2 8212 8213 
1 8212 15193 
2 15193 15194 
2 15194 15195 
2 2047 2048 
1 2047 15195 
2 6373 6374 
2 6374 6375 
2 6455 6456 
2 4510 4511 
1 6375 10771 
2 10771 10772 
2 4511 4512 
2 10772 10773 
2 18377 18378 
2 9848 9849 
2 9847 9848 
1 9847 18376 
2 18376 18377 
3 1450 1451 
1 1450 18795 
2 18794 18795 
2 9784 9785 
1 9784 18793 
2 18793 18794 
2 9785 9786 
2 4663 4664 
1 4663 5203 
2 5203 5204 
2 4664 4665 
2 5204 5205 
2 14221 14222 
2 14617 14618 
2 11779 11780 
1 11779 14617 
2 11780 11781 
