LAMMPS data file via write_data, version 7 Aug 2019, timestep = 20000000

11880 atoms
3 atom types
9007 bonds
3 bond types
6134 angles
3 angle types

0.0000000000000000e+00 5.0000000000000000e+01 xlo xhi
0.0000000000000000e+00 5.0000000000000000e+01 ylo yhi
0.0000000000000000e+00 5.0000000000000000e+01 zlo zhi

Masses

1 0.25
2 0.5
3 0.5

Bond Coeffs # harmonic

1 6000 0.15
2 2000 0.4
3 2000 0.4

Angle Coeffs # harmonic

1 100 180
2 50 180
3 50 180

Atoms # angle

7917 1 1 1.0476343780803501e+00 2.5232209426414651e+00 1.0877328134804911e+00
15021 1 1 1.2007966407173820e+00 2.4643622448797546e+00 1.1345156325004540e+00
7916 2 2 7.1312809098016394e-01 2.6187311782443854e+00 9.6823097797501012e-01
7915 1 1 4.3522303013451513e-01 2.8543837922935218e+00 8.5328390651513841e-01
6419 3 3 2.4216812973582416e+00 1.9083292172168673e+00 1.4263139237977907e+00
6418 1 1 2.8406780476086939e+00 1.7966857538499048e+00 1.4859137556264008e+00
12948 1 1 2.9865992887286166e+00 1.8106717803594390e+00 1.4920360983999781e+00
15019 1 1 1.9042157909756403e+00 2.1742417312733231e+00 1.3169070544097614e+00
15020 2 2 1.5653290113859373e+00 2.3214393733876650e+00 1.2531412947690876e+00
6420 1 1 2.0497272944536586e+00 2.1210325304351350e+00 1.3306664828563401e+00
20791 1 1 2.9844055017253663e+00 1.9399718356969318e+00 3.3836341218567811e-01
12947 3 3 3.3921420399984790e+00 1.8588871331281576e+00 1.4390941326982567e+00
2817 1 1 3.9030628612183458e+00 2.0609991963487793e+00 1.1377578729418021e+00
2816 3 3 4.2219106904203256e+00 2.2477387024367270e+00 1.0317660500423202e+00
12946 1 1 3.7505353548777109e+00 2.0005441198588430e+00 1.1975784668596512e+00
2815 1 1 4.4931216727786918e+00 2.5099912398751663e+00 9.1962552893803950e-01
20792 2 2 3.3783746761445363e+00 2.0033807843600639e+00 1.3313815778876231e-01
20793 1 1 3.6811714418708696e+00 2.1619765311907719e+00 2.4164694252576169e-02
20709 1 1 1.1505061372886221e+01 1.7077072159935263e+00 6.5578397835335334e-01
20708 3 3 1.1470065826812444e+01 2.1084006349022038e+00 5.1113833298235878e-01
20707 1 1 1.1554647463888003e+01 2.4812902353076205e+00 3.9402581275283333e-01
15472 1 1 1.2514980551817505e+01 2.9141942093320106e+00 7.9932191588501722e-01
10080 1 1 1.1669516684349330e+00 3.5287695099268572e+00 1.4082432090230397e+00
21185 2 2 9.1914576238223222e-01 4.0840046549229845e+00 1.0414483701984685e+00
21184 1 1 1.0241735689358931e+00 4.0802783625462178e+00 1.4224562204540419e+00
21186 1 1 7.1243043249527715e-01 4.0422134492485426e+00 7.2774520401246467e-01
10079 2 2 1.5452154244774599e+00 3.3630984876532786e+00 1.4252853767826501e+00
10078 1 1 1.9009418686648458e+00 3.2629151007152792e+00 1.3621285251730935e+00
10769 3 3 4.8688363544317639e+00 4.4507395180841911e+00 6.4719432273850375e-01
10770 1 1 5.1406710413043353e+00 4.1918705431312508e+00 7.0225559489095690e-01
15474 1 1 1.2213564026222652e+01 3.6429264489144777e+00 1.2063500184637526e+00
15473 2 2 1.2385361416859372e+01 3.3139497457885381e+00 9.8277298938675495e-01
16943 2 2 2.8391341086508163e+01 4.1471333575333817e+00 2.6592725030295294e-01
16942 1 1 2.8243803638239047e+01 4.1906370986175654e+00 6.3747574398461926e-01
8622 1 1 2.5568517491611482e+00 5.1976061929408433e+00 1.0627434269171552e+00
8620 1 1 2.6529424622631201e+00 5.8586445491995107e+00 6.6127554673060063e-01
8621 3 3 2.6158323740735199e+00 5.4951693397743462e+00 8.3370221000161815e-01
10768 1 1 4.6774063926944001e+00 4.7325203925034280e+00 4.8053168492375298e-01
2270 3 3 1.3320441703667408e+01 6.0727099263629665e+00 1.6482945364702370e-01
2271 1 1 1.3545431175346588e+01 5.8098418260673759e+00 2.1632798730856131e-02
11495 2 2 2.1688201607944741e+01 5.0451306911335934e+00 8.5159802376654348e-01
11496 1 1 2.1623166747350705e+01 5.3698981170025011e+00 7.2018515139549422e-01
11494 1 1 2.1731400805779653e+01 4.7005722271863046e+00 1.0118935898858124e+00
21410 3 3 1.2958055043407407e+01 6.8720014556935505e+00 5.8799422327134987e-01
21409 1 1 1.3086598380061346e+01 6.5227587905796920e+00 4.2974793243409787e-01
2269 1 1 1.3141443402272335e+01 6.3862046357097224e+00 3.3986421032037506e-01
21411 1 1 1.2813261821636919e+01 7.2256088895821096e+00 7.6924917280748673e-01
21177 1 1 1.7426272401110339e+01 6.5597625153971695e+00 3.8020692790243660e-01
21176 3 3 1.7677159967959721e+01 6.4523432207957319e+00 6.3675796507336824e-01
21175 1 1 1.7900158002935822e+01 6.4475482978569811e+00 9.6616258234685481e-01
20529 1 1 4.8570721548023927e+00 1.0700661116351593e+01 2.8451400183497361e-01
8319 1 1 2.5440633395876140e+00 1.1024226532024946e+01 1.3954709801663765e+00
8318 2 2 2.9394684128883610e+00 1.0973142303302977e+01 1.4653059704347002e+00
6011 3 3 7.9250734227680990e+00 1.3285985467575259e+01 1.1727771308015458e+00
6012 1 1 7.6703966473097376e+00 1.3284320774852926e+01 1.4662692230403498e+00
6010 1 1 8.0994107643053201e+00 1.3341700734403430e+01 8.5658038803883341e-01
10310 2 2 8.3795950271451201e+00 1.3269184833373931e+01 3.9276708779234254e-01
10311 1 1 8.1626849336522689e+00 1.3311947694905600e+01 7.4308427777018360e-01
10309 1 1 8.6112862593368646e+00 1.3158944210227574e+01 3.4818891887537111e-02
18177 1 1 1.9416465044517345e+01 1.3786492424890399e+01 1.4265510782588549e+00
17478 1 1 1.9422677141383787e+01 1.3895998088270913e+01 1.3220381139375263e+00
7430 3 3 2.0745731425147909e+01 1.3829780441434332e+01 1.0785646253377117e+00
7431 1 1 2.0609776136914274e+01 1.3800821956512891e+01 7.2823353961005632e-01
3040 1 1 2.0514257552039158e+01 1.3802803108373809e+01 6.1908371406915630e-01
3041 3 3 2.0375260254472515e+01 1.3836934246417277e+01 1.9618490677242886e-01
7429 1 1 2.0860653557486813e+01 1.3944977511678387e+01 1.4326619939822320e+00
13748 3 3 7.5807743597136303e+00 1.4155757473215219e+01 7.6525174668519921e-02
13749 1 1 7.2194769498546210e+00 1.4411682391165066e+01 2.5357586497470941e-01
13747 1 1 7.9700230437620236e+00 1.4069545584992971e+01 3.1253223277217489e-02
17477 3 3 1.9437310048083052e+01 1.4127263920692558e+01 9.8676899810162533e-01
17476 1 1 1.9485785349082537e+01 1.4281534246586242e+01 6.3185743357457069e-01
9585 1 1 2.2082554020581792e+01 1.4372177166539467e+01 2.7537944115453272e-01
9584 3 3 2.2437418187475675e+01 1.4567434733315627e+01 4.0386633995786647e-01
9583 1 1 2.2811141674694870e+01 1.4585608710391751e+01 4.5640200384613483e-01
14673 1 1 2.7583526180455451e+01 5.4440167535237549e-01 1.8335265545212176e+00
14671 1 1 2.8360352553765569e+01 2.5170801271543575e-01 1.6736951046162103e+00
14672 2 2 2.7947201878237220e+01 3.8296216922620502e-01 1.7393073682019418e+00
13542 1 1 2.1121836680704174e+01 2.8530806012367624e+00 1.6125120729516773e+00
13540 1 1 2.1817926975249282e+01 2.6131050940246925e+00 1.6406446935890948e+00
13541 2 2 2.1484788012190755e+01 2.7279107888476077e+00 1.6022278641755385e+00
16798 1 1 1.0463049018459982e+00 4.1077162487118084e+00 1.5508553146717037e+00
16800 1 1 1.2892932414000311e+00 4.2506385415876773e+00 2.2490607148309603e+00
16799 2 2 1.1957647209768991e+00 4.1439072262947647e+00 1.9231197415710359e+00
3594 1 1 1.1609966009812629e+01 4.3571951310127455e+00 2.1705539825817031e+00
3593 2 2 1.1482609106981313e+01 4.7336763690431658e+00 2.0927770950793367e+00
3592 1 1 1.1367709840194109e+01 5.0353149387609939e+00 1.8640453353613742e+00
13818 1 1 1.1310753377122548e+01 5.1542163664040128e+00 1.7770511143250960e+00
13817 3 3 1.1106648192917651e+01 5.4481245345647675e+00 1.6348324338973133e+00
13816 1 1 1.0861813464278887e+01 5.7826786856410441e+00 1.5566771452590162e+00
10464 1 1 7.7854387540154035e-01 6.9986055821592812e+00 2.3436811921047442e+00
10463 2 2 1.0045149648834406e+00 7.0687097866275819e+00 2.6862855241431625e+00
10462 1 1 1.1716828355751978e+00 7.1482512744999047e+00 3.0109391318421963e+00
10069 1 1 1.5207313857136773e+01 7.0401117741044432e+00 2.4195623907533852e+00
10070 3 3 1.5214121316880775e+01 6.7077390350300155e+00 2.7236475922755168e+00
10071 1 1 1.5130666485413306e+01 6.3826275199604821e+00 2.9591386514483466e+00
12547 1 1 2.1688656793263842e+01 9.2363686709041222e+00 1.9364903859723153e+00
12548 3 3 2.1694722598715867e+01 9.2022584994247882e+00 2.2999564617445323e+00
12549 1 1 2.1784042390019867e+01 9.2189098079087834e+00 2.6975979770529714e+00
1325 2 2 2.4991737354060280e+01 8.8936855398935677e+00 2.8968954371158442e+00
1324 1 1 2.4959860511841374e+01 8.6003547501347466e+00 2.6144769804526438e+00
17638 1 1 4.9091522314242715e+00 1.0212328143664960e+01 2.1599750234431796e+00
17640 1 1 4.8453090965308627e+00 9.4924183872582475e+00 1.8331576534416134e+00
17639 2 2 4.8360159043627675e+00 9.8480242469540364e+00 2.0157759838868463e+00
13819 1 1 1.9901388523362627e+01 9.7617386465036073e+00 2.9663632664892723e+00
10149 1 1 2.1415419814560060e+01 1.0043919693730308e+01 2.1951178565563949e+00
10148 3 3 2.1393553433364293e+01 1.0327532000588958e+01 2.4190813406756151e+00
15832 1 1 2.1531005907650147e+01 1.0721908219590425e+01 2.7550369732614515e+00
10147 1 1 2.1502180433392407e+01 1.0607755954888722e+01 2.6656355816962378e+00
19724 3 3 2.7267465812368485e+01 1.0045325709124935e+01 2.0180860476091738e+00
19723 1 1 2.7338487563486606e+01 9.6721878987730090e+00 1.8434768617747948e+00
4209 1 1 2.7276181392792267e+01 1.0614497154155449e+01 2.1716013744019951e+00
19725 1 1 2.7297075378468040e+01 1.0468483483528590e+01 2.1383631189188534e+00
8317 1 1 3.2961284950627912e+00 1.0962773865243715e+01 1.5937755939280440e+00
15833 2 2 2.1638783092452613e+01 1.1033757027272795e+01 2.9696612054792415e+00
4208 3 3 2.7201357332088911e+01 1.0989021578646497e+01 2.2645793716954508e+00
4207 1 1 2.7191264714375841e+01 1.1396093342512085e+01 2.3695188772324030e+00
17619 1 1 1.3802217353457731e+01 1.3378969474155273e+01 2.5684098635633927e+00
17618 3 3 1.3843075521815347e+01 1.3624937586558071e+01 2.2811589048839154e+00
1653 1 1 1.5791846562551413e+01 1.3614916313033540e+01 2.5760598321804937e+00
18176 2 2 1.9349955387897779e+01 1.3541424502293216e+01 1.7466876622630541e+00
18175 1 1 1.9206516478148046e+01 1.3204539404792238e+01 1.9545454839950527e+00
10287 1 1 1.2153713150479208e+01 1.4999029689823432e+01 2.2843637289442262e+00
10286 3 3 1.2494951794605306e+01 1.5035726938370955e+01 2.4408839461188574e+00
10285 1 1 1.2856508805496260e+01 1.5015476352926578e+01 2.6067362792634632e+00
18030 1 1 1.2972816118996864e+01 1.5001416136563204e+01 2.7044806660409599e+00
18029 3 3 1.3237257351903750e+01 1.5053841966767065e+01 3.0058825403183640e+00
17617 1 1 1.3900868626881522e+01 1.4021465516928339e+01 2.0623774778189654e+00
1652 3 3 1.5671597736286843e+01 1.4006152388279595e+01 2.5457148628832482e+00
1651 1 1 1.5668777958745196e+01 1.4399370922837404e+01 2.5365774160259140e+00
2146 1 1 1.8627669171219281e+01 1.3958321100024559e+01 2.9662201478717547e+00
18135 1 1 2.6004379683853575e+01 1.4012227196730919e+01 2.0764613023310474e+00
18134 2 2 2.6189083469143956e+01 1.4277211843159098e+01 2.3891066031684249e+00
18133 1 1 2.6291888046040320e+01 1.4563045576082736e+01 2.6145038662034947e+00
11196 1 1 1.6716636286072589e+01 2.3135482900861546e+00 4.3061619957097754e+00
11195 3 3 1.6927005761404182e+01 2.6247096602065274e+00 4.2852283033956420e+00
11194 1 1 1.7172906718382041e+01 2.8599127294667523e+00 4.3302088687359461e+00
12557 3 3 2.4867959792600427e+01 2.8730433429935873e+00 3.3722091330311894e+00
12558 1 1 2.4637401946385875e+01 2.5917278085798263e+00 3.2200959743586668e+00
12556 1 1 2.5178966980924866e+01 3.1409810635308339e+00 3.5323973310156198e+00
3726 1 1 2.4627999208594250e+01 4.6103296450817481e+00 4.0269336990133757e+00
9912 1 1 2.5206745288366239e+00 5.8244766820395091e+00 3.8796748054487522e+00
9911 2 2 2.2598657806750451e+00 6.0156157418588325e+00 3.6564881395336188e+00
18149 3 3 9.7668909878967298e+00 5.3887846663393377e+00 3.8092856398472996e+00
18148 1 1 9.6476663238561891e+00 5.3822436637355437e+00 3.3872902737822725e+00
18150 1 1 9.8969427310257139e+00 5.4767733492235458e+00 4.1719360989566985e+00
3724 1 1 2.5330678436029110e+01 4.9469581067683883e+00 3.9829714595890207e+00
3725 2 2 2.4981990290981589e+01 4.7732629930813868e+00 3.9450597158229970e+00
17184 1 1 3.1536199280751126e-01 7.7208020650714131e+00 4.4284515674313099e+00
9910 1 1 2.0326428594636545e+00 6.2368522393509469e+00 3.4110787961833329e+00
18909 1 1 1.1586334935046750e+01 6.4841045953761904e+00 4.1482097422304998e+00
18907 1 1 1.1221441356687846e+01 7.1766266932831568e+00 4.3003708141836485e+00
18908 2 2 1.1424541315612062e+01 6.8312529838398932e+00 4.2263082272652941e+00
1326 1 1 2.5059290198900655e+01 9.2233004954602489e+00 3.1706697726236048e+00
13820 3 3 2.0160413303523345e+01 9.8263488872214229e+00 3.2349762880269344e+00
13821 1 1 2.0371995624799194e+01 9.9462841224454070e+00 3.4898521199946662e+00
12077 3 3 4.1968267740264142e+00 1.1733993446282089e+01 4.2594341416699901e+00
12076 1 1 4.0425860520886747e+00 1.1385599706295752e+01 4.2376486525340447e+00
12078 1 1 4.4301620453669157e+00 1.2034432338486960e+01 4.3140256986656285e+00
15834 1 1 2.1744563618444616e+01 1.1325490862400468e+01 3.2110411641677068e+00
11217 1 1 2.1879564161063371e+01 1.1754372496366937e+01 4.0019419159292458e+00
11216 3 3 2.1799542292135005e+01 1.2141423847219739e+01 3.9768827003160232e+00
15354 1 1 2.0865323796493524e+01 1.3792502383385703e+01 4.0762932812984234e+00
15352 1 1 2.0363003188056762e+01 1.3768240095133427e+01 3.4839431555962395e+00
15353 3 3 2.0603629701094402e+01 1.3802658459389683e+01 3.7867261242798373e+00
11215 1 1 2.1738233974274930e+01 1.2557297839253701e+01 3.9822085847191389e+00
14863 1 1 2.1752633250305063e+01 1.2714200568115844e+01 4.0046202454478799e+00
14864 3 3 2.1795225871447499e+01 1.3126381054892841e+01 4.0895980602010678e+00
14865 1 1 2.1821919762094023e+01 1.3504439016218065e+01 4.1482930920787711e+00
4671 1 1 1.1782755141646275e+00 1.5022853156870804e+01 3.3291298144009396e+00
4670 2 2 1.3667197885624800e+00 1.5157695583954220e+01 3.5900834276399287e+00
4669 1 1 1.6110755107940300e+00 1.5310475433362978e+01 3.7961536554337147e+00
12596 2 2 9.6245362725429970e+00 1.4963599689988961e+01 3.8697579659230015e+00
12595 1 1 9.9050761874582101e+00 1.4737400801104872e+01 3.9343297908437309e+00
12597 1 1 9.1980512916950516e+00 1.5059607867527166e+01 3.9060070895964083e+00
18028 1 1 1.3496441982954938e+01 1.5176061509479720e+01 3.2977661916762377e+00
2148 1 1 1.8598388742875773e+01 1.4569114989890720e+01 3.4160150879791504e+00
2147 2 2 1.8581743885306974e+01 1.4270552958035783e+01 3.1926273551771893e+00
7781 3 3 1.2605670619005525e+00 1.1343319745264302e-01 5.2986750987525566e+00
7782 1 1 1.4077440111096748e+00 2.8882971667848167e-01 4.9373355675320694e+00
15330 1 1 1.1258001265916887e+01 5.0932515370340903e-01 4.9857035959157461e+00
15329 3 3 1.1307444526803607e+01 1.7168640152408357e-01 5.0985614761447184e+00
462 1 1 2.0963094880401108e+01 5.5818280698111733e-01 5.9270261748659792e+00
2962 1 1 2.3957982666996664e+01 1.3706603383584555e+00 5.4463466586127574e+00
2964 1 1 2.4356819355763850e+01 1.9992235602403750e+00 5.1480282724191131e+00
2963 3 3 2.4128352300120461e+01 1.6849103635569471e+00 5.2705985857096209e+00
17375 3 3 1.8995449392290155e+01 4.2879051314982730e+00 5.2683988149643808e+00
17376 1 1 1.8697715375061932e+01 4.4895923258806478e+00 5.3127156921654253e+00
17374 1 1 1.9328193089082877e+01 4.1405858006329828e+00 5.2514432790446213e+00
5013 1 1 2.8963966143696286e+01 4.5859780804404178e+00 4.6018248226500180e+00
13632 1 1 1.3186372943429787e+00 6.1433813206259593e+00 5.7047660275116829e+00
3580 1 1 8.6890960417432819e+00 5.4690611411584618e+00 4.9247643741773901e+00
3581 2 2 8.7351508199975765e+00 5.1937563158401181e+00 5.2141784500247548e+00
3582 1 1 8.7759272631790246e+00 4.9791532884006111e+00 5.5571165090132082e+00
5011 1 1 2.8453610320142065e+01 4.8517892306537354e+00 5.2350052968669871e+00
5012 3 3 2.8674563541024707e+01 4.7058405847501144e+00 4.9063024416726559e+00
17182 1 1 3.4986976159121330e-01 6.9626532371883467e+00 4.7312767088131062e+00
17183 2 2 3.5749961709452038e-01 7.3436843121874009e+00 4.5693798622719735e+00
13631 3 3 1.5917340592745737e+00 6.2998762863255626e+00 5.9158089002580612e+00
1571 2 2 2.6648403634100237e+01 8.7663440639047465e+00 5.9520609960889397e+00
1572 1 1 2.6812501137624007e+01 8.4381995095564442e+00 5.7934395063508086e+00
6879 1 1 1.5984252488882906e+00 1.0365738874861499e+01 5.6257084722432893e+00
6878 2 2 1.6546731558615231e+00 1.0204740559637193e+01 5.9582542783585453e+00
18553 1 1 9.3922863237429599e+00 1.3420398303435078e+01 5.0276723124690665e+00
18555 1 1 9.8632204539738684e+00 1.2701487168639312e+01 4.7799934588918411e+00
18554 3 3 9.5824767602620025e+00 1.3074766434655382e+01 4.8941374480742565e+00
19707 1 1 1.2623744235673549e+00 1.4683359572373845e+01 5.6273541538163281e+00
19706 3 3 1.5316199581438210e+00 1.4862777003624673e+01 5.8126816095309355e+00
19705 1 1 1.8657663929371957e+00 1.5135221208790320e+01 5.8651453388787136e+00
5982 1 1 1.0355664882324518e+00 1.5224746915738048e+00 7.4993310079470925e+00
460 1 1 2.1041554758218641e+01 1.2784119938309655e+00 6.3863705473971786e+00
461 2 2 2.1055164603123220e+01 9.1735200347136781e-01 6.1315693517443313e+00
11197 1 1 2.1020551580265579e+01 1.4195067767225293e+00 6.4991351507408410e+00
1356 1 1 2.2955870583636010e+01 4.7905221656719388e-01 7.1002779622335037e+00
1355 2 2 2.3266064592288135e+01 4.7623283602467564e-01 6.8004254563187869e+00
1354 1 1 2.3507077116797507e+01 5.2797636841467011e-01 6.4705746154473989e+00
2992 1 1 2.5934238516373860e+01 3.7009397188493681e-01 7.4151410386654764e+00
5981 3 3 8.8037956172079990e-01 1.7931181580224325e+00 7.1503533025418271e+00
5980 1 1 6.8098253418462407e-01 2.0769653330152282e+00 6.9389124623151588e+00
21466 1 1 1.9483881794803832e+01 2.7847716588700320e+00 7.5155806620119199e+00
21468 1 1 1.8675972176682794e+01 2.8574765116407801e+00 7.5561881256354608e+00
11199 1 1 2.0983674913508867e+01 1.9542119194515148e+00 7.0358408541850812e+00
11198 3 3 2.0958058250751019e+01 1.6697934067277178e+00 6.7734704493308895e+00
17290 1 1 2.0990644250909373e+01 2.0616943675556043e+00 7.1402760871594584e+00
17291 2 2 2.1097886054777028e+01 2.3615265550055162e+00 7.3589998382446336e+00
6760 1 1 2.6005440128230841e+01 2.5119625354267638e+00 6.4733608579226214e+00
6762 1 1 2.5540609712615844e+01 2.5292085741202399e+00 7.1662677341873406e+00
6761 2 2 2.5759006907297884e+01 2.5655327634454652e+00 6.7988662907398822e+00
16221 1 1 1.8212084406686905e+01 4.3627526390909939e+00 7.4808380947565265e+00
14060 3 3 2.2739730033693416e+01 3.3423390193168321e+00 7.4861110041955348e+00
14059 1 1 2.2605256628597573e+01 3.3314385787327021e+00 7.1547504288885051e+00
18322 1 1 2.3845816680946978e+01 4.4287641974389107e+00 6.6603451642949816e+00
18324 1 1 2.3143866407757308e+01 4.3298878493653321e+00 7.0166752544943094e+00
18323 2 2 2.3458200203336130e+01 4.3568315466865171e+00 6.8098140164866487e+00
8553 1 1 2.8583756130513368e+01 4.9358296084543358e+00 7.2074837732375761e+00
8552 3 3 2.8763030186470655e+01 5.2725716063015611e+00 7.0368189535838193e+00
8551 1 1 2.8850582951675147e+01 5.6018515037619112e+00 6.8286753671576870e+00
13630 1 1 1.8208530467928321e+00 6.4639384723525399e+00 6.1633237979492002e+00
20179 1 1 1.9055106252372604e+00 6.5659126552119362e+00 6.2732793623917793e+00
20180 2 2 2.1678412701513099e+00 6.7623284362484286e+00 6.4646168975735065e+00
20181 1 1 2.4366258043888083e+00 7.0049771886073566e+00 6.5573648506018420e+00
7462 1 1 2.5722501824175854e+00 7.0834996483391706e+00 6.6230152886865072e+00
7463 2 2 2.8763704736662454e+00 7.3635772993662680e+00 6.7301840351619076e+00
7464 1 1 3.1525322033032581e+00 7.6023165848073058e+00 6.8156979090694279e+00
3016 1 1 3.2933758345459223e+00 7.6441190626837816e+00 6.8449601489530956e+00
21508 1 1 4.7176397023576999e-01 8.9117705723539284e+00 7.3776202025050805e+00
21509 3 3 4.5903893332066542e-01 9.1385534233843586e+00 7.0634099500680358e+00
3017 2 2 3.6943639507088673e+00 7.7675685305312001e+00 6.8900487852403751e+00
3018 1 1 4.0716648240011075e+00 7.9159906304020247e+00 6.8721957668302549e+00
20211 1 1 4.2079407005562794e+00 7.9849236112984618e+00 6.8691440034336555e+00
20210 3 3 4.5714579191127909e+00 8.1438901037452887e+00 6.9325833969816104e+00
20209 1 1 4.9510706924606414e+00 8.2512573586559643e+00 6.9958684328288943e+00
9970 1 1 1.3679945250092857e+01 9.1461410349892791e+00 7.3696101757375372e+00
9972 1 1 1.3865152320407947e+01 8.3887142862599582e+00 7.3994475353479601e+00
9971 2 2 1.3805007294139120e+01 8.7479620625059642e+00 7.3698492850945998e+00
15081 1 1 2.4402583903489717e+01 9.2293284058054610e+00 7.4479705746470968e+00
15079 1 1 2.5213654057959864e+01 8.9280237974652330e+00 7.5124215681554372e+00
15080 3 3 2.4816325858050963e+01 9.0472343965590980e+00 7.4488874116472861e+00
390 1 1 2.5350546082910444e+01 8.8653476970285308e+00 7.5578991551127546e+00
1570 1 1 2.6530206470706233e+01 9.0293360493702028e+00 6.1693146540422825e+00
21510 1 1 4.6767052455402236e-01 9.3679885194641557e+00 6.6707429762947843e+00
6877 1 1 1.5763562319074069e+00 9.9600623110521820e+00 6.3279354126788885e+00
14032 1 1 1.2858574508195241e+01 1.0758865954298312e+01 6.1929662284564415e+00
14033 2 2 1.2842520576372401e+01 1.1128325186750441e+01 6.3743733743583624e+00
5239 1 1 1.2881284679287129e+01 1.1688800583820287e+01 6.4259944663268769e+00
14034 1 1 1.2852741549512952e+01 1.1513984669957507e+01 6.4458319720992847e+00
5240 3 3 1.2996659331138931e+01 1.2043399967308916e+01 6.3234367723765921e+00
5241 1 1 1.3147805925261647e+01 1.2358886982029897e+01 6.2026560515760760e+00
1879 1 1 6.8472614118519792e-01 1.3721783856328642e+01 6.7830979342647151e+00
82 1 1 1.5284815424275669e+01 1.3109511947720890e+01 6.6282109208541460e+00
84 1 1 1.5481007169726389e+01 1.2499874393674105e+01 7.0239061736110813e+00
83 2 2 1.5416542378843905e+01 1.2769952282901736e+01 6.8258010503865414e+00
10995 1 1 1.6577232405894794e+01 1.3461903599946826e+01 6.8249358502061117e+00
3121 1 1 1.6135944143744414e+01 1.3687545786420692e+01 7.5647116319649692e+00
10993 1 1 1.7352092374048986e+01 1.3294178178759736e+01 6.9507031340778038e+00
10994 3 3 1.6981395412037042e+01 1.3422529105489735e+01 6.9072664461440807e+00
1881 1 1 3.4416016495855645e-01 1.4408138105485392e+01 6.5098741974322669e+00
1880 3 3 4.8468001188994631e-01 1.4078141542891956e+01 6.6634123728955306e+00
18123 1 1 7.4191193557217376e+00 1.4172776742075392e+01 7.4802380443781749e+00
8377 1 1 1.7676733606463845e+01 1.5056693718260689e+01 6.2533967443267553e+00
8378 2 2 1.7348889609397620e+01 1.5273604904143898e+01 6.2252374067589322e+00
3180 1 1 1.1832939510956281e+01 8.1817184133633036e-02 8.1528591765599199e+00
3179 2 2 1.1515986661173811e+01 2.4291929729180751e-02 7.9464370783534335e+00
7187 2 2 1.3667415945686288e+01 5.6259427212153990e-02 8.4597102403056947e+00
7188 1 1 1.4082803234102238e+01 1.5178405055947719e-01 8.3030807715723132e+00
2993 3 3 2.5912464187011462e+01 3.0397352460820365e-01 7.8090077285065655e+00
2994 1 1 2.5995367021233804e+01 3.6087531074706442e-01 8.2155861031329653e+00
19631 3 3 2.6615726375319241e+01 2.3181130456811638e-01 8.6906759679010257e+00
19632 1 1 2.6673319714845352e+01 9.1721688894079417e-02 8.3481997324527857e+00
2304 1 1 3.2602063156717525e+00 2.1033308414799912e+00 8.8114982496075793e+00
2302 1 1 3.8690132182665264e+00 2.4955503174529232e+00 8.5411539283969056e+00
2303 2 2 3.5506951998575671e+00 2.2912418165404143e+00 8.6358569198558186e+00
21467 2 2 1.9060140653162303e+01 2.8254053467212050e+00 7.5979831444675234e+00
17292 1 1 2.1338800012277812e+01 2.5863636029464665e+00 7.6324605066823938e+00
16894 1 1 1.5090609532793748e+01 3.2731472768881762e+00 8.2433322947101804e+00
16895 2 2 1.5504181196321968e+01 3.3530452679162108e+00 8.2859585616111318e+00
16896 1 1 1.5898521777464076e+01 3.3543611688386328e+00 8.3799228368123355e+00
16220 3 3 1.7841138672511121e+01 4.4182043175775094e+00 7.6458463717910723e+00
16219 1 1 1.7454140532155922e+01 4.5372015505256371e+00 7.7983622338973158e+00
14061 1 1 2.2879107496113779e+01 3.3387265016980501e+00 7.8701785657872803e+00
17461 1 1 2.2917023925805058e+01 3.3457446532291439e+00 8.0303006072760983e+00
17463 1 1 2.3331693784929129e+01 3.4265204861331546e+00 8.7104855659826352e+00
17462 2 2 2.3152199079791597e+01 3.3590014118820193e+00 8.3505391396168456e+00
16756 1 1 6.6837796071955733e+00 7.7385028040855941e+00 8.5432197601928586e+00
2518 1 1 9.0056543404698743e+00 7.6122577716364503e+00 7.9556125072850339e+00
7882 1 1 8.8761953951688177e+00 7.6324195455796389e+00 7.9227035571359892e+00
7883 3 3 8.5002764640231625e+00 7.7404944346169771e+00 7.8615135371152407e+00
2519 3 3 9.3798892544974031e+00 7.5913177276708321e+00 8.1487018481013411e+00
2520 1 1 9.7672456447021503e+00 7.5816193134911796e+00 8.3615280081075696e+00
598 1 1 1.2363748159431413e+01 7.6316192931505560e+00 8.2561612064608507e+00
10014 1 1 8.1460477865407332e-01 8.3344221513395844e+00 9.0856237309784973e+00
10012 1 1 1.6190914184736049e+00 8.2961555036280625e+00 9.0584387911759467e+00
16757 2 2 6.8236497740948696e+00 8.1476393607364237e+00 8.4020876750791409e+00
6317 2 2 6.7239233199453228e+00 9.0763856922069426e+00 8.2561289646188634e+00
6318 1 1 6.7766213024661264e+00 8.6788444441303803e+00 8.3858948153217590e+00
16758 1 1 6.7804113652902984e+00 8.5059883554504783e+00 8.3977059337554358e+00
7884 1 1 8.1307097931322243e+00 7.8284842449209648e+00 7.7359556600934480e+00
3645 1 1 8.9659147854610257e+00 8.7911974718968722e+00 8.3235904365828617e+00
3541 1 1 8.9932633111776941e+00 8.7054368031080323e+00 8.4500664625068467e+00
3644 2 2 8.8286283508879979e+00 9.0338960558894197e+00 7.9861903123173752e+00
3643 1 1 8.7293819598371662e+00 9.2735207269820688e+00 7.7013353582833775e+00
3543 1 1 9.1379157503087534e+00 8.2036466480288652e+00 9.0386449948403609e+00
3542 3 3 9.0582771855022930e+00 8.4675541834733306e+00 8.7669628900719463e+00
599 3 3 1.2746454893365915e+01 7.7937936260344367e+00 8.1816132895478439e+00
600 1 1 1.3138251252364096e+01 7.8309338684673975e+00 8.1272420656508793e+00
389 2 2 2.5705636198616872e+01 8.7750885017381766e+00 7.7009109573851475e+00
388 1 1 2.6052946574377380e+01 8.6504198869837392e+00 7.7787417502072724e+00
6316 1 1 6.7245142056302720e+00 9.4849440743956315e+00 8.0708477996199015e+00
5635 1 1 1.6505126236185284e+01 1.2171329632071254e+01 8.4174811217952961e+00
6106 1 1 1.8936744147622345e+01 1.1728276801569436e+01 7.9240044520110757e+00
6108 1 1 1.8379085471441780e+01 1.2172083392412913e+01 7.5923895999789952e+00
6107 2 2 1.8683158329898657e+01 1.1887630351368925e+01 7.6776294351685461e+00
7092 1 1 1.8932918963274545e+01 1.1319120063470871e+01 9.0158109070970394e+00
3775 1 1 1.8977835387525126e+01 1.1184056514007096e+01 9.0454934962880333e+00
1690 1 1 1.8528179958578750e+01 1.2169519578352114e+01 8.8154946808556183e+00
7090 1 1 1.8595598007941184e+01 1.2034169247953185e+01 8.8625804929646392e+00
7091 2 2 1.8757971818205313e+01 1.1668299295937619e+01 8.9574252505327063e+00
20268 1 1 1.3308477927543102e+01 1.3004149153599453e+01 8.9597797917446531e+00
5636 2 2 1.6355666814397683e+01 1.2416931327398069e+01 8.0682636396344556e+00
3122 3 3 1.6114251039579905e+01 1.3317278515071749e+01 7.8048245761674826e+00
5637 1 1 1.6176625028657401e+01 1.2779505696881381e+01 7.9503768885059056e+00
3123 1 1 1.6127106325514440e+01 1.2940178850059239e+01 7.9050819611491026e+00
1692 1 1 1.8197355093230772e+01 1.2814292691256973e+01 8.4365887763515062e+00
1691 2 2 1.8381938217417702e+01 1.2526422218014348e+01 8.6565877874667461e+00
12992 2 2 2.1253266036674113e+01 1.3815657026020343e+01 8.8398363483238729e+00
19918 1 1 2.1344645128327798e+01 1.3389923323602195e+01 8.5307288095512508e+00
12991 1 1 2.1296442175461451e+01 1.3510302944961442e+01 8.6227487335575770e+00
19919 2 2 2.1533881132762602e+01 1.3124895981104480e+01 8.3663577094296055e+00
19920 1 1 2.1711476250362225e+01 1.2892537174201859e+01 8.0642055332642624e+00
18121 1 1 6.6617592698801280e+00 1.4124126517847079e+01 7.7828848493642955e+00
18122 3 3 7.0322007201453287e+00 1.4161346468960398e+01 7.6408682221637969e+00
12993 1 1 2.1324727905419742e+01 1.4122282339326189e+01 9.0665186504606528e+00
1093 1 1 2.4598328471459258e+01 1.4780194717530339e+01 8.1958277868877261e+00
1094 2 2 2.4909598607815919e+01 1.4852775203226843e+01 8.4279900203711939e+00
12792 1 1 2.5205826098783231e+01 1.5087803718707919e+01 8.8545884336600196e+00
1095 1 1 2.5127334203985811e+01 1.5024399066851551e+01 8.7226089802033027e+00
13552 1 1 3.0454673872659113e+00 1.1344910875637228e-01 1.0242983459812859e+01
19269 1 1 6.4390998185463619e+00 1.3596581908749299e+00 9.7715069830866099e+00
19267 1 1 6.1276503859711919e+00 7.5857644313972794e-01 1.0249545444073739e+01
19268 3 3 6.2837150393196737e+00 1.0403523366478464e+00 1.0010835196328861e+01
8888 2 2 2.4049853297968991e+01 1.2158018563487831e+00 9.7083655189625091e+00
8887 1 1 2.4182516564739814e+01 1.5311573537920442e+00 9.4122184831734650e+00
8889 1 1 2.3894733214634574e+01 8.1082879610831171e-01 9.8540825373860805e+00
19630 1 1 2.6543195403333311e+01 3.2549332976037315e-01 9.0980067759310579e+00
14710 1 1 6.9304945134950593e+00 2.5002962542482172e+00 1.0137923598826969e+01
14711 3 3 6.6270305048286176e+00 2.3767825227463426e+00 9.8825180802247807e+00
14712 1 1 6.3599339587140982e+00 2.2431033729567775e+00 9.6077201937353980e+00
8320 1 1 2.8265050431902157e+01 1.7097035001627472e+00 1.0434973732855564e+01
8321 3 3 2.8096458481713118e+01 2.0271159114376478e+00 1.0488642438794896e+01
18634 1 1 9.1856120068934555e+00 7.6647588409040228e+00 9.6996558368014405e+00
11015 2 2 2.5011240785734330e+01 7.6714639217777512e+00 9.4210700349342638e+00
11014 1 1 2.4836037632980904e+01 7.3970366076333498e+00 9.2323002328208705e+00
2083 1 1 2.4700573163850528e+01 6.8247282789810342e+00 1.0316743895669489e+01
10013 3 3 1.2206732378251628e+00 8.3003348748659356e+00 9.0952152887728932e+00
10413 1 1 6.5832487571000564e-01 8.3668810730351861e+00 9.0945322427274711e+00
10412 2 2 3.0128539327955556e-01 8.4869647990122701e+00 9.1565498572633235e+00
18636 1 1 9.1591589974647150e+00 8.1089942359619496e+00 9.1371220481740387e+00