ITEM: TIMESTEP
25000000
ITEM: NUMBER OF ATOMS
1827
ITEM: BOX BOUNDS pp pp pp
0.0000000000000000e+00 5.0000000000000000e+01
0.0000000000000000e+00 5.0000000000000000e+01
0.0000000000000000e+00 5.0000000000000000e+01
ITEM: ATOMS id type vx vy vz 
570 1 0.21218 3.46146 2.01386 
569 3 3.17864 0.135068 -1.29065 
568 1 -1.87597 8.56913 2.68982 
13271 2 6.92058 -0.541243 -2.63646 
1030 1 -5.4895 1.26589 2.58452 
13272 1 -2.47286 0.981422 0.93032 
13270 1 -5.61536 -0.398754 2.56042 
8570 2 3.99825 -3.67496 0.872314 
8569 1 1.86795 2.25937 5.68184 
2765 3 -0.467267 -1.70452 -1.66133 
2764 1 2.06345 -0.114407 -1.44859 
2766 1 -2.18211 2.58538 -1.26177 
18693 1 3.08563 -2.53543 -0.511365 
21136 1 2.97075 1.66811 0.877131 
20170 1 -3.45006 3.52563 5.54504 
20171 3 -2.68187 -1.97004 -2.57362 
18692 3 -0.2278 0.974062 -1.51844 
20172 1 1.27401 -1.13083 1.14721 
533 3 -3.76743 -2.51705 7.36995 
532 1 0.34642 4.17632 -6.14069 
16459 1 -0.754743 3.8878 1.8558 
2476 1 -2.37237 -1.6936 6.40096 
2477 3 -2.77095 -0.796483 -5.92532 
2478 1 -2.0254 0.393182 6.65472 
534 1 -7.55521 3.2805 -0.154085 
5996 3 -1.47093 0.136125 1.61631 
17880 1 0.988467 4.33979 0.439842 
17879 2 -0.293839 -1.29076 1.89168 
5995 1 0.0542532 -0.524323 1.60156 
17878 1 -0.108007 -3.78026 -0.0707487 
15768 1 -3.43572 -7.43575 -2.30828 
821 3 1.59415 -2.74502 -2.64015 
822 1 -5.4232 5.06718 -0.629624 
820 1 -9.2581 0.864109 -3.87063 
643 1 6.22072 -0.561138 -7.38817 
8692 1 3.5398 -7.18489 -4.2926 
8694 1 -3.67479 5.41779 0.144526 
8693 2 3.69649 6.5728 -2.29369 
267 1 1.16191 4.19426 5.82873 
644 2 0.526186 5.62392 -1.29902 
645 1 -3.54115 -0.714464 4.17765 
21470 3 -0.479136 1.42318 1.52002 
5105 3 2.221 -1.27442 -1.49044 
21471 1 -0.478085 7.1069 -1.2883 
5104 1 2.45023 7.42516 -0.578888 
11955 1 1.46611 -2.193 5.35421 
5106 1 4.75613 -4.84979 3.81136 
4639 1 3.29046 -1.63435 -1.08139 
4640 2 -4.40319 3.32458 3.31964 
3024 1 -2.05316 2.23201 1.75315 
3023 3 1.80693 -3.77938 2.35789 
18021 1 -3.51809 -4.5827 2.92416 
18020 3 0.654918 -1.81572 1.61553 
10240 1 3.98583 -2.81073 -1.97718 
21469 1 8.1859 0.510496 -2.74945 
10796 3 -0.591332 -1.32116 4.56045 
10797 1 -4.60439 1.29962 2.75222 
10479 1 -1.3639 2.59971 1.96619 
1121 3 0.779348 2.07929 2.0648 
1122 1 -0.19554 -3.45776 0.473047 
18495 1 0.124803 -3.16961 -2.20839 
1120 1 -2.22355 -1.46007 -2.59248 
18494 3 -1.12116 -0.919968 2.28843 
10325 3 -2.31916 -3.97844 3.8276 
10324 1 -1.88604 -1.09909 0.556525 
18493 1 -3.03861 3.24194 -5.7836 
21025 1 7.59943 2.60242 3.6738 
10326 1 -4.65149 -4.77962 -1.52217 
21027 1 4.67756 1.88837 2.53764 
21026 2 0.792179 -3.03033 2.64081 
1031 3 2.45536 3.93038 -1.68925 
10477 1 -4.01759 2.5833 -2.18204 
10478 2 0.491832 3.83127 -2.96871 
1032 1 -4.5413 3.07559 0.472951 
18088 1 4.10546 2.48599 -1.87244 
18089 2 -1.05741 -4.60239 -3.93103 
18090 1 8.07277 1.6118 5.47846 
6577 1 -3.56757 2.29995 -4.9796 
13591 1 -2.86803 -0.552865 -0.306598 
11954 3 0.939741 0.639268 -0.0133895 
11953 1 3.35465 1.22719 -0.675875 
2440 1 -4.46227 0.624036 2.29864 
2441 3 3.81773 0.888845 0.0350967 
20087 3 -1.02925 -2.15147 -3.29385 
20088 1 -4.32756 -3.62172 -0.11121 
17329 1 -3.44637 -3.56443 -6.62651 
8722 1 -2.21105 -3.33079 -5.93414 
14812 1 -0.134311 -3.37112 2.53488 
8723 3 3.52722 0.742384 -0.367436 
8724 1 8.02931 -2.67466 -3.69849 
7195 1 4.19042 -0.748013 0.168592 
7196 3 -0.138005 -1.12187 -0.151966 
3331 1 0.0647957 1.48976 -1.53065 
6349 1 1.96527 2.18084 1.66052 
6350 3 -0.7334 -1.96623 4.02301 
6351 1 -0.548705 0.811612 -5.01335 
4641 1 -2.77091 1.48592 2.78282 
64 1 -0.136559 3.837 -4.50962 
1161 1 -4.79135 6.58707 -1.77683 
1160 3 1.22112 -2.04824 -2.13797 
1159 1 4.70205 0.449188 1.61353 
14842 1 -2.47455 1.71777 1.73515 
14843 3 -0.202548 0.910728 4.91922 
6578 3 -5.13832 -1.88966 2.60446 
4435 1 4.76751 2.99967 -3.6161 
65 3 -2.83636 0.357176 -2.46528 
3022 1 4.43958 3.01194 -7.19579 
15132 1 -0.394477 -5.2114 4.57342 
15131 3 2.32936 2.40637 -0.860579 
15145 1 -4.09883 -5.07503 2.23027 
15146 3 -2.79353 -2.62881 -0.789935 
15147 1 -1.59548 0.8782 -0.0904963 
8650 1 -0.00238935 3.4239 -2.42202 
8651 3 -1.41874 -0.238472 5.05714 
15130 1 0.67913 1.08083 2.11059 
12067 1 -4.26557 2.82308 -0.240999 
347 3 2.45897 -0.196177 4.21272 
2442 1 2.54309 1.76863 -4.52207 
17330 3 1.51545 -0.880986 -2.18038 
6196 1 -0.0657794 -2.02664 -5.06172 
6198 1 -1.1166 -5.40997 1.72012 
6197 3 5.00481 -2.07281 2.96016 
17331 1 -3.07991 -1.16481 -4.24209 
8439 1 4.094 2.44322 -1.03384 
8438 3 -2.04868 -6.56335 -0.0517527 
8437 1 0.198785 -8.75289 5.4613 
348 1 -1.54824 4.90144 2.84908 
11625 1 -0.897264 -4.15096 4.626 
475 1 -1.14835 -1.97358 0.735389 
7197 1 -5.94831 2.63861 4.1948 
5138 3 -3.24065 0.160309 -0.175434 
14813 3 -2.11287 2.59409 1.19422 
11623 1 -0.489426 -9.34084 -4.4802 
14814 1 -0.684858 2.82588 2.19915 
11624 2 -0.0922777 4.57756 0.455304 
17142 1 -1.47206 -0.466868 5.00982 
17141 3 -0.656612 0.552972 6.76375 
17140 1 -1.76933 -0.127718 -0.243756 
5139 1 0.151007 -5.41238 3.45783 
2166 1 -6.40029 -3.73277 2.29766 
10795 1 1.45555 -1.60626 1.98559 
15916 1 4.08992 3.78169 2.92846 
10582 1 -2.02816 3.77844 -5.33383 
20396 3 2.60555 5.72606 -0.212062 
20395 1 -2.52967 1.21855 -2.95673 
10584 1 -4.42988 -4.37097 0.863298 
10583 3 -0.5731 -0.596179 2.21478 
4437 1 3.38039 -3.64296 -3.23186 
7872 1 1.8271 -2.37881 -0.386852 
4436 3 -2.00563 -0.116873 0.422432 
7871 3 3.56282 -3.02145 0.0544202 
4087 1 -2.30112 1.26006 4.90556 
13592 3 -3.46206 1.71221 2.47917 
13593 1 6.09765 2.03446 0.160842 
741 1 -0.65486 0.953977 0.0948933 
740 3 -1.69033 1.50653 3.84424 
10648 1 3.74844 4.08592 -0.162243 
11836 1 0.784878 2.09403 -0.805819 
11837 3 0.862416 -1.21723 -4.26347 
2421 1 -1.61561 6.04109 0.545817 
11838 1 7.06895 -2.45047 -0.876671 
10649 3 3.3717 -0.226111 -1.84094 
20086 1 -1.99342 1.89093 0.405942 
16621 1 0.446679 -2.35936 -1.75226 
16622 3 -2.36678 -0.278328 -7.25664 
3909 1 3.0961 0.629181 3.64288 
3908 3 0.400417 2.51895 -3.65871 
3907 1 -3.46279 4.75571 -2.72101 
667 1 3.804 0.0170623 -9.26171 
14830 1 -1.72252 6.48182 -0.338393 
2694 1 1.61387 -6.78661 -2.59877 
668 3 0.908269 1.0909 1.65689 
14831 3 0.107695 4.50716 -2.85875 
20284 1 3.28538 -0.930793 4.90366 
2693 3 3.19978 2.48285 -1.97713 
8637 1 0.596718 3.42726 -4.15555 
20285 3 3.75846 0.030504 0.605487 
8636 3 -2.35326 4.22726 -3.36206 
8635 1 0.0360976 -0.330461 1.53048 
20286 1 7.9688 -4.02004 -0.65239 
6579 1 5.99443 -1.58435 -0.209512 
739 1 0.249887 -1.22913 0.666592 
10339 1 0.0891873 1.448 -5.12976 
276 1 3.97235 4.98181 2.0534 
10340 3 2.59766 -0.644881 -1.40777 
275 3 -1.70799 -1.96665 -0.608568 
10341 1 5.30784 5.02897 -0.674031 
2420 3 1.08702 -1.67509 -1.69806 
2419 1 -0.0266701 2.79427 -2.26505 
12262 1 -3.32944 5.82062 -3.25358 
14293 1 -1.99184 7.48063 6.41648 
274 1 3.60367 2.14102 -3.00867 
10650 1 4.20184 4.59753 -5.67147 
15756 1 2.72292 1.30633 1.70974 
14794 1 -1.63676 2.40377 -0.27852 
16623 1 0.870428 1.2839 0.58642 
1551 1 -1.02252 2.22446 -5.65622 
8646 1 8.68425 -2.23423 1.146 
1550 3 0.0720801 1.37512 2.55265 
8645 3 -4.22529 1.10765 -0.844693 
1549 1 1.85721 -3.32829 1.93232 
11827 1 9.00736 -4.5446 4.82092 
11828 3 -2.25673 -2.26791 -0.858863 
15755 3 -3.07965 2.34589 -0.368122 
18588 1 4.78257 4.21917 1.61031 
4059 1 -0.394586 -3.95506 -4.1747 
4058 3 -2.14781 -1.94814 2.80445 
4711 1 -2.57222 0.345869 -3.68162 
4057 1 -2.81555 -1.57862 -4.05871 
4713 1 0.847355 -3.41254 0.587365 
4712 3 -3.78084 -1.177 -1.19212 
15917 3 -1.97243 -1.07891 -0.361427 
15918 1 4.34305 -2.43127 -0.541132 
1768 1 2.11733 2.73541 0.549542 
1769 2 3.68237 -3.78108 0.84201 
20397 1 2.78579 0.726233 -0.89367 
11181 1 5.23417 -0.571571 -0.719789 
11180 3 0.825314 -1.63496 1.47253 
11179 1 2.36103 2.2576 -2.19234 
7870 1 -1.77197 -1.32051 -5.31127 
15043 1 2.81793 -0.48725 -6.99366 
15044 3 -2.40303 -0.987107 -1.03673 
15045 1 -3.16159 -2.13445 0.43699 
16120 1 2.05235 -2.31435 -1.69001 
1635 1 3.232 0.792124 5.5007 
1634 3 0.439445 0.816122 -2.97538 
10126 1 -5.12554 2.01611 2.45494 
10127 3 1.97978 -3.83385 -1.88786 
11866 1 1.72301 -0.918623 1.35448 
1770 1 -4.04703 1.73001 1.93564 
11867 3 2.176 0.877957 1.13577 
11868 1 0.407154 0.196986 1.30869 
9 1 0.401173 -0.841914 0.0127621 
8611 1 -4.32972 -1.60765 -0.978876 
8612 3 -2.43029 -1.17122 0.506152 
8613 1 1.0004 -0.611487 0.0764031 
6615 1 0.138092 1.77334 4.31182 
6614 3 -1.98928 -0.576626 0.702152 
8 3 -0.762248 2.17345 3.54822 
14832 1 -3.94463 -2.30633 -0.462763 
3690 1 2.84701 -1.19718 -4.78101 
3689 3 0.959844 -0.254936 -0.212619 
3688 1 3.48795 -3.00118 -6.28563 
16186 1 -0.104967 -7.02439 -3.64092 
18691 1 2.22982 -0.294075 3.21426 
12520 1 -2.17857 0.168315 -0.381238 
4088 3 4.77754 2.09008 -2.5329 
12521 3 1.67225 1.15558 2.51341 
16187 3 4.29179 -0.38047 -5.07481 
4089 1 3.76772 4.47657 6.66489 
20126 3 -0.547945 -2.41307 0.631434 
20127 1 1.83028 2.62766 5.91005 
12522 1 2.90456 -1.04836 3.26256 
16188 1 1.27382 -1.09044 3.26365 
21435 1 -4.4036 -2.38376 2.57792 
20125 1 -0.185747 4.36349 1.41362 
21022 1 0.628638 -1.14768 4.85766 
12420 1 -0.513943 5.90392 5.05905 
16550 3 1.47191 0.136139 -2.40333 
14294 3 1.05014 -0.653271 0.0427635 
16121 3 3.54764 -0.480783 -1.61995 
14295 1 -2.44409 0.890537 -2.31727 
16549 1 -3.7792 3.30316 -2.24005 
21023 3 -1.08501 -4.15391 2.9763 
16122 1 5.25684 5.62898 2.07656 
1428 1 -1.12722 2.47297 2.91319 
1427 3 0.949596 -0.798894 1.52799 
1426 1 6.00884 -3.15084 3.6016 
10630 1 -6.89958 1.15928 -0.832358 
1633 1 -4.11209 1.74878 -4.23809 
15754 1 7.48057 2.16419 -0.336939 
8782 1 0.895782 -2.01166 2.42173 
8968 1 -1.92607 -4.02176 2.33166 
10128 1 -1.88126 -0.506804 0.707959 
1500 1 2.46944 0.0620563 3.44438 
1499 3 -2.34897 2.16252 1.42294 
1498 1 2.98919 -0.269997 1.23542 
9064 1 8.89684 2.32728 -2.22624 
9065 3 -1.1787 2.94686 -2.80102 
8969 3 1.08264 0.657131 1.69917 
10631 3 0.20576 -3.01943 -3.58695 
8783 3 -2.3315 0.362213 0.489992 
8784 1 -5.518 -0.950259 1.11346 
6613 1 3.91563 2.98715 2.39672 
8970 1 -2.75856 -3.35541 5.30518 
4735 1 -3.899 -2.81855 4.10108 
17004 1 -4.73843 -1.28088 -2.21056 
7 1 -1.73735 0.0711439 4.81646 
6922 1 6.60257 6.4817 7.36467 
6923 3 -0.33037 0.516839 -1.64147 
17003 3 0.0106931 -0.594306 1.88295 
6924 1 -2.6618 -2.34089 5.71131 
17002 1 1.72989 -4.12078 -0.990358 
9928 1 -6.16063 0.602395 -6.9607 
15264 1 2.80028 1.17584 -2.14036 
4736 3 1.52436 1.006 3.92084 
9929 3 0.791623 -1.85287 3.36648 
9930 1 0.934961 0.196725 3.52189 
13335 1 4.32691 4.68896 1.38251 
10575 1 3.11613 0.751951 1.14443 
10574 2 -0.72126 -0.246792 4.95092 
16460 3 -0.451414 -3.43967 -2.53178 
16461 1 -3.95433 -0.925897 -5.32853 
16863 1 -6.31341 -2.25666 5.32892 
10573 1 3.22776 2.09964 3.91319 
12858 1 2.157 0.475442 -2.25353 
12857 2 0.758642 0.975178 -1.12988 
12856 1 5.12583 5.45268 -2.71999 
20992 1 0.455418 -5.45222 0.59912 
3111 1 -4.68423 0.14288 5.53428 
3110 3 1.34125 0.429205 -0.851797 
3109 1 -5.40675 -6.03158 -1.4837 
715 1 -5.46292 -0.341108 3.59554 
20993 3 0.462864 3.35918 1.28656 
20994 1 -3.7031 4.44705 -3.36309 
17938 1 0.989557 -2.80864 -6.63374 
17939 3 0.880947 -2.79565 2.83512 
9709 1 -0.203804 -1.72859 2.4445 
9710 3 0.883208 -1.83598 0.588913 
17940 1 1.72384 1.3552 -4.35724 
20025 1 7.0096 0.938847 5.68518 
16918 1 -3.75106 -5.32114 -1.88696 
20024 3 0.189141 2.2238 -1.1663 
20023 1 -2.28918 -4.12087 2.02222 
16919 3 -0.574679 0.438279 -4.03012 
16920 1 -6.68031 2.6327 0.984227 
14404 1 -6.32337 3.44781 -3.58567 
17951 3 -2.41534 -0.883307 0.434265 
17952 1 -0.789136 0.490754 5.85363 
6921 1 -4.31696 -1.69349 -1.4755 
7332 1 -9.19668 3.45438 3.27138 
16862 3 0.759366 4.09328 -0.272852 
21138 1 -5.62483 1.34081 -5.06325 
18013 1 4.73381 -2.8676 5.27972 
18014 3 -0.702701 1.70951 2.29636 
7331 3 -5.01699 -0.46858 4.99401 
18015 1 0.0155618 4.32936 -3.78605 
15717 1 1.54577 -1.65192 3.20342 
21137 3 3.43877 -1.20724 -5.28721 
20692 1 3.92502 -1.33069 -0.622857 
17950 1 4.94548 3.61984 5.66238 
20693 3 1.65322 2.85023 -0.724608 
21434 3 0.753656 -2.16751 -1.84908 
15716 3 -0.635093 1.68107 -0.267652 
15715 1 9.91677 2.05989 -2.5284 
3712 1 1.62154 -1.50134 -1.11804 
3713 3 2.70745 -2.72791 -3.32678 
21433 1 2.39024 6.64166 3.00092 
1734 1 -2.60774 0.529571 -2.42808 
3714 1 3.25457 -0.501344 -2.51828 
1733 3 -3.5142 -1.36472 4.09704 
1732 1 -3.80057 1.91498 1.61024 
11989 1 -2.45827 0.505571 -4.39923 
11990 3 -2.38758 1.3618 0.0565102 
19456 1 1.68103 -6.64236 -1.54148 
9711 1 0.355213 3.26274 -1.74934 
19117 1 -6.12279 -0.790975 4.1578 
11991 1 -4.38441 0.177336 3.33971 
19118 3 2.46072 3.71616 -2.48632 
19119 1 -4.88337 -0.511046 -7.24649 
19192 1 -1.6487 3.53141 0.613987 
19678 1 -0.554184 2.4908 -2.98912 
19679 3 -2.67621 -0.999881 4.28021 
19193 3 -3.709 1.32501 -2.55409 
8851 1 0.362785 0.167262 -3.51066 
19194 1 -2.12195 3.53892 1.85465 
19680 1 -2.44052 2.41693 -2.61798 
18225 1 2.44429 0.934172 0.491687 
12132 1 -3.33815 1.24918 2.53242 
12131 3 -0.712234 -2.87313 4.81807 
17472 1 -0.461237 4.04149 -1.13825 
17471 3 -1.56689 1.84592 3.50445 
15268 1 1.94154 0.473352 -4.26208 
15269 3 1.22095 0.66627 -0.6957 
4678 1 4.82528 -1.6832 1.60198 
15270 1 1.16529 4.43825 -0.640807 
717 1 5.47284 0.198293 -4.14466 
716 3 1.53048 3.30221 0.826241 
4679 3 4.45012 -0.79257 0.833307 
17268 1 -1.08053 -3.23371 -1.49929 
17267 3 -5.56604 -2.92956 1.1735 
13341 1 2.59733 -1.1255 0.843268 
9724 1 -0.969148 -1.1614 -3.11592 
9725 3 -0.217667 -1.87727 -2.21759 
1979 3 -6.29498 0.791181 -4.84289 
14406 1 0.710623 -6.39001 -0.776172 
14405 3 -6.00502 -3.0441 0.372188 
15767 3 0.992521 -4.10294 -3.81174 
20055 1 0.225801 5.09445 -1.65456 
2037 1 3.18417 2.34542 -1.78034 
7330 1 3.94365 -0.721346 1.58005 
2035 1 -3.68857 -2.89935 3.46746 
2036 3 -4.55257 -3.42451 2.03463 
20054 3 -1.51284 -0.879379 0.829657 
15766 1 -0.464112 -1.43326 3.68981 
16861 1 -0.110027 1.09297 0.815183 
9204 1 1.89396 7.63032 1.23048 
9202 1 -3.09692 2.58313 0.458643 
18329 3 -1.36883 4.23737 0.383522 
20053 1 -2.78465 -5.77946 -2.09712 
18328 1 3.57713 -1.01366 -0.881223 
17470 1 -4.40965 4.92686 -2.27261 
16818 1 -7.60717 -2.7338 5.74286 
16816 1 4.95802 3.25341 4.69599 
16817 3 2.58322 2.9782 -0.553365 
20454 1 2.1064 -1.44198 6.67586 
20453 3 1.51436 -2.30116 -1.22741 
9203 3 4.81098 -2.12822 -1.05352 
3967 1 0.0829329 -2.89115 -2.10529 
15734 3 -1.3513 4.92551 1.18575 
10366 1 1.15859 2.62219 0.150304 
19458 1 7.01402 2.43291 -0.999369 
3969 1 -5.24954 -0.963389 1.69628 
19457 3 -1.78671 -0.401845 1.37009 
10367 3 -0.968822 1.45437 -0.591069 
4680 1 -0.705747 0.315878 -2.38451 
20452 1 4.10552 3.28572 -0.694568 
3968 3 0.57518 -0.334824 1.85941 
15733 1 9.32967 0.974913 3.79011 
13695 1 -0.998744 5.30763 -3.38315 
13694 3 -1.67557 8.63511 0.122466 
13693 1 -1.73474 -2.05019 -1.19284 
6609 1 -3.69204 -1.89257 -5.53562 
10368 1 2.09374 -2.80558 -3.52606 
9726 1 0.165461 -1.22213 -0.821595 
8852 3 -0.520808 2.47136 3.45449 
1978 1 4.80974 5.19951 -2.87436 
6607 1 1.82405 -0.435774 4.23549 
6608 3 0.325443 -1.08706 -1.2852 
19079 3 -2.31007 0.856582 2.68521 
6172 1 2.43185 -1.77883 -9.14527 
19080 1 -1.98818 -1.44675 2.78871 
8591 2 1.89404 6.11511 -0.0941768 
4412 3 -1.7533 2.86817 4.8347 
8592 1 -0.489015 2.86482 0.500273 
8853 1 2.53726 -4.9356 1.66354 
8590 1 2.6241 3.66925 2.33748 
4413 1 1.28367 -1.74563 3.92469 
4411 1 -0.480511 4.95884 -7.28528 
20386 1 -2.421 4.55129 2.67236 
14861 2 -4.85341 2.2835 0.057759 
14862 1 -8.84332 1.10718 -3.02581 
11878 1 0.156337 1.44329 -0.318966 
11879 3 -3.90054 1.00024 -2.91302 
14860 1 5.42632 2.27941 0.607868 
10241 3 1.14686 0.203227 -2.0503 
6500 3 -0.859656 -0.985682 -0.348614 
6499 1 -3.41862 1.93378 -5.21121 
6501 1 -1.06001 4.13927 -1.14673 
11613 1 -2.50831 -2.62774 4.81785 
17247 1 -1.44377 4.70986 -2.99722 
11612 3 -2.14358 -0.540475 -4.00329 
11611 1 -1.24695 -3.21634 0.897857 
3421 1 -0.722456 5.38404 -0.162592 
20330 2 -0.6871 3.16848 -1.89559 
20329 1 -0.792953 2.12313 -0.221386 
14868 1 -3.14726 -1.71528 -2.69245 
14867 3 -2.53199 -3.27756 1.84766 
14866 1 6.17699 -2.52612 0.269223 
10614 1 2.79368 -6.42749 -1.69845 
3332 3 -0.234264 5.02945 1.44558 
855 1 3.16309 1.84383 -4.26093 
19518 1 -3.32121 1.11262 2.84524 
19516 1 6.84163 -5.04769 0.655104 
9861 1 -3.14485 -2.32979 3.3223 
9860 3 1.8796 3.59215 -0.949318 
19517 3 1.30552 -3.9651 -1.34437 
9688 1 -1.57494 -1.4658 -2.56221 
11880 1 2.20324 -5.68568 -1.72629 
9689 3 -2.6686 1.12885 -4.45073 
9859 1 1.5756 -0.583916 6.32123 
854 3 -0.600168 -0.713118 1.78524 
8040 1 3.26274 -4.74918 -1.25507 
66 1 3.33919 1.11303 -0.676042 
10242 1 -2.11891 -0.230293 2.35963 
4899 1 -2.24413 5.29049 -5.01139 
5631 1 4.88568 -6.47612 9.13978 
5630 3 5.24962 3.38169 2.43559 
4771 1 -3.59207 0.263348 0.345237 
12069 1 4.86486 -4.19479 -3.16953 
4836 1 1.97198 4.21532 -1.35329 
5629 1 0.136788 4.39029 3.48017 
18019 1 6.189 -5.09809 -2.66179 
4898 3 -0.934731 -1.66151 0.758481 
4772 3 -0.459135 1.35008 -1.22717 
4897 1 1.6631 -0.801495 2.83582 
4835 3 1.61637 3.07902 0.336762 
12068 3 1.27805 -1.18169 -0.0747389 
10095 1 2.13428 -4.94696 4.3333 
17067 1 1.55117 6.44793 5.15805 
8652 1 -0.881451 3.35172 -3.19781 
10094 3 -1.7103 0.619371 -1.35242 
1703 3 -6.0328 -2.47101 -1.87277 
1704 1 -0.956235 -2.8039 -8.30508 
346 1 6.34158 -2.75029 -6.11764 
10093 1 -0.961755 -3.50572 2.70911 
17976 1 -2.16039 -2.02994 -3.4204 
1702 1 0.306108 -3.41276 -2.48308 
17053 1 0.691192 3.37983 5.18353 
477 1 3.35344 5.61118 1.72582 
12757 1 3.61442 4.5826 0.13544 
17975 3 -2.15691 0.203006 -1.41753 
476 3 -0.18888 0.56791 1.38588 
5137 1 -0.0370351 -1.53197 -6.13437 
3424 1 0.561913 -1.06858 2.03229 
3425 3 -0.753711 1.73504 -0.199335 
3426 1 2.91099 0.426855 -1.26943 
13252 1 -4.79629 -2.711 0.554554 
9690 1 -3.02189 0.312075 6.04386 
16066 1 -3.41772 -4.16623 -5.8252 
16067 3 -0.851665 2.08276 3.1415 
16068 1 -6.90372 1.3695 -1.03069 
18649 1 4.99691 -4.0135 2.46611 
17066 3 0.156276 -0.722366 0.252565 
17065 1 -1.71725 -1.16975 0.312595 
17023 1 0.327753 1.60024 0.254768 
17024 3 -1.45534 -2.10432 -2.95283 
4773 1 2.89523 -2.93434 -0.61225 
19402 1 -0.783821 5.82324 -4.88359 
19403 3 1.30902 0.440035 -4.36967 
13465 1 -8.95689 0.814457 -4.87583 
13466 3 0.550332 -4.6734 1.07421 
17025 1 2.0373 0.914087 -3.33564 
19861 1 -1.87486 0.254468 -3.54712 
19404 1 -0.837312 2.90096 -1.07388 
16059 1 5.32729 -7.22914 2.08023 
16058 3 5.79567 0.915598 2.15734 
17054 3 -0.658302 0.350005 -2.66608 
17245 1 -0.407639 -0.237262 -2.31258 
17246 3 2.86734 -0.202189 0.102567 
17055 1 1.52994 3.69892 0.880908 
11929 1 -1.43148 2.85284 6.29944 
17974 1 -2.38769 1.3386 2.1232 
11930 3 -1.76364 -0.597757 0.0597509 
10051 1 0.20938 3.432 -0.321616 
11931 1 1.69737 -0.773134 -1.94745 
13253 3 -0.883948 0.798609 0.752642 
13254 1 2.10611 3.53997 -4.61971 
16983 1 4.81111 -1.71211 0.296511 
16982 3 -1.24749 0.563523 1.84329 
16981 1 0.726684 -9.09164 -3.96278 
16837 1 2.73007 2.57029 -7.46532 
12089 2 0.266901 -1.03284 2.76616 
12090 1 1.02845 -4.39226 -3.1712 
20846 3 3.78478 -0.381829 -0.834404 
20845 1 4.87425 -2.08112 -0.928272 
13467 1 -2.70546 -3.29162 1.07083 
12253 1 -2.14575 -8.56067 0.0215569 
12254 3 2.78326 0.0885624 -0.246448 
12255 1 -0.684026 -2.34335 -0.476422 
10053 1 -3.78802 -2.63733 -4.0891 
12489 1 -1.39531 -2.29299 -2.18433 
12488 3 1.97576 0.862928 3.1234 
5559 1 0.406209 0.522817 -5.02641 
5558 3 4.27166 4.51849 -1.55272 
5557 1 0.226864 0.152828 4.8504 
10052 3 -0.184818 3.41292 1.7282 
16838 3 -1.95044 0.0649249 -0.577819 
16839 1 -1.65943 -0.133725 1.6314 
16029 1 0.142316 -4.59477 -9.07701 
16028 3 -0.765764 -0.300626 1.91799 
16027 1 -0.325688 -2.26711 -7.63869 
19924 1 -6.69815 -0.906462 1.26459 
19925 2 -0.971598 0.457092 -1.46371 
12088 1 -0.0565599 -1.23851 0.120126 
20940 1 -0.296351 -2.35435 -4.74848 
3422 2 1.42729 -1.90835 -1.20668 
10873 1 1.94502 -1.96911 -2.25568 
3423 1 -1.66742 -3.0687 3.70393 
345 1 -3.60992 -1.18498 6.5917 
10874 3 -2.54744 2.35374 0.924409 
10875 1 -2.03922 2.27219 -0.519823 
344 3 -2.88917 0.345411 -7.28511 
9080 3 3.19726 -1.83167 -2.69286 
20331 1 -0.250409 -4.11494 -2.06925 
9081 1 5.29538 -6.78094 2.83324 
9079 1 -4.03745 1.75561 5.56373 
19926 1 -2.72791 0.803155 0.555424 
8571 1 -1.18676 0.587235 -3.07137 
10613 3 -1.46298 -0.188713 1.26611 
10196 3 0.856923 -4.70273 1.38058 
6643 1 -1.8086 -0.632831 1.75481 
6644 3 -1.32574 -3.17366 4.13633 
6645 1 -1.60037 -1.91054 -2.35778 
633 1 -0.0138774 -5.98479 -0.813549 
10195 1 2.47818 2.10152 6.8462 
10197 1 -0.453235 1.42865 -5.55976 
3333 1 -2.15326 -7.24837 3.35717 
669 1 1.36606 -3.23128 3.04794 
12955 1 -0.180022 -2.4915 1.40018 
853 1 3.28176 -2.32736 2.18277 
1507 1 -1.61752 0.368417 -2.41434 
18488 3 0.0940312 -1.53354 1.41692 
1508 3 0.42186 -0.503652 1.94783 
14261 3 -1.53776 -0.739848 0.454704 
18489 1 4.98341 2.11243 1.05845 
14262 1 -3.19799 -5.18521 1.8972 
1509 1 -1.98998 -1.12609 4.10506 
632 3 2.44957 -1.87603 -4.43589 
18487 1 7.46354 -2.04695 2.08104 
4333 1 6.11585 0.238896 0.463211 
14260 1 -1.09438 0.327628 -0.645829 
2692 1 2.07046 -0.781922 -0.278472 
14844 1 0.664535 0.498622 3.47401 
12264 1 5.57247 0.415463 -1.12149 
10000 1 0.75508 -2.8734 2.04134 
10001 3 0.44913 1.66453 -3.54915 
4834 1 3.97533 7.62388 3.07689 
14446 1 -0.470145 -1.26676 -1.81238 
10176 1 -3.07282 6.02076 1.51999 
20446 1 -5.04949 0.584794 -8.15242 
10002 1 -2.18067 -2.40603 -2.04617 
18504 1 0.393978 5.00405 4.68365 
10175 3 -0.360117 5.82316 -2.26678 
14447 3 -2.80036 -1.23472 3.21259 
10174 1 -1.98633 1.81432 -5.69911 
12263 3 7.95615 -0.413409 0.551475 
1582 1 1.45763 4.67493 -2.18605 
10561 1 -2.31415 7.42328 -2.23798 
10562 3 3.3329 2.70668 -1.5363 
1583 3 0.363849 0.95765 1.57166 
1584 1 5.64511 1.5272 -3.70999 
8644 1 -1.89596 -1.57866 -0.186464 
12758 3 0.952421 -1.98943 -0.566941 
2165 3 1.58011 2.7175 1.45792 
12759 1 -2.89215 0.341253 -0.105741 
18587 3 -2.10598 -3.38296 -1.7147 
2164 1 -0.504643 -1.90856 1.52229 
18033 1 0.720637 -0.482301 0.251549 
18032 3 -0.0169718 -7.80494 2.44528 
18031 1 -1.63086 1.74762 0.206515 
17726 3 -0.691084 -5.44659 -1.26164 
20466 1 7.86931 -3.19342 -0.0439231 
17725 1 3.18209 0.530554 -1.82845 
1708 1 -3.71732 2.25401 -1.448 
3240 1 -0.102077 1.77197 -1.32212 
3239 3 -1.93873 -0.752562 1.56713 
17727 1 0.489065 0.209995 -3.19624 
11829 1 -3.98336 -0.975814 -2.83302 
12542 3 -1.62105 2.41647 -0.106243 
18586 1 -0.689574 8.19912 -4.27119 
1965 1 -1.65804 2.92767 -6.9916 
1964 3 5.42007 -2.31443 5.49029 
1963 1 -2.50886 4.90189 4.48995 
12543 1 2.13865 3.62679 0.30787 
10612 1 -4.15267 1.37274 -4.76736 
12306 1 -4.81368 -1.69842 -2.4865 
12305 3 -1.30681 -0.282171 -3.06705 
13700 3 -3.66288 -2.44809 1.2745 
13701 1 7.48946 0.462905 0.9072 
9472 1 4.47484 4.25883 0.958832 
12304 1 3.77352 2.66193 -3.60101 
17590 1 -4.09314 1.46125 -1.50957 
17591 3 2.76675 2.38655 -3.36797 
9473 3 6.5152 1.35103 0.218092 
9474 1 -2.07536 -0.892198 -0.0444117 
17706 1 -0.441457 -2.4244 4.88847 
18650 3 0.576281 -2.72418 4.89791 
18651 1 -1.47147 5.04719 0.180409 
8721 1 -1.16191 -5.82875 -1.62545 
8039 3 0.231437 -2.75094 2.48495 
14448 1 7.61954 -1.51073 2.97359 
8038 1 0.529761 -1.87806 5.93425 
6816 1 -3.0523 6.20716 0.31993 
6815 3 0.035123 1.17888 -1.65378 
6814 1 -3.87515 -0.0805517 0.910109 
15579 1 -5.48637 -7.0648 -9.46203 
13156 1 6.46297 5.36689 -7.6951 
18503 3 2.94636 -0.13115 -1.54875 
13157 3 -6.6053 0.0663757 -0.111562 
16057 1 3.25227 -2.73817 -0.74299 
10633 1 -2.13189 -2.22051 4.90619 
15578 3 -1.64344 -3.96078 -0.967046 
10563 1 -1.37424 2.17382 -0.389781 
14337 1 -4.7963 -1.41946 -2.22976 
14336 3 -2.24434 -1.28998 4.48831 
14335 1 -1.42264 0.779522 0.864208 
10634 3 -4.93422 2.82193 0.178714 
10635 1 -1.46788 2.00385 2.91768 
15577 1 3.16902 3.39212 0.209538 
21207 1 0.910998 1.38424 0.854004 
1501 1 2.28066 0.984499 5.1234 
21206 3 -0.904982 3.3119 -0.864716 
1502 3 -1.65684 -0.178814 -3.24606 
3886 1 4.94421 -0.338102 -0.0345039 
3887 3 -0.93873 4.92633 -0.817073 
1709 3 -1.61507 3.42668 2.0408 
3238 1 1.5494 -0.639754 0.391421 
1698 1 4.66526 2.45142 -3.61954 
1710 1 -0.514004 1.20324 4.56124 
20465 3 5.18962 -1.47316 3.46465 
20346 1 -2.55322 -5.50978 1.1352 
1697 3 1.05485 -0.543564 -1.13002 
20464 1 3.02675 5.95019 -1.63974 
12624 1 -2.19522 -4.95159 -2.84923 
12623 3 0.124119 -2.19296 -0.451921 
12622 1 3.36445 -3.01268 -0.210441 
1327 1 -7.20329 1.14548 0.997427 
1696 1 0.85566 -6.06482 -4.01873 
429 1 -5.08265 -7.44181 -3.51081 
428 3 1.92472 1.53276 0.898419 
20345 3 -0.29704 0.935895 1.06818 
18733 1 -0.710178 0.251117 9.55612 
18734 3 0.690223 -1.27211 -3.01418 
20344 1 0.389552 2.73143 -1.6138 
18735 1 0.506134 -1.08445 -5.51777 
12849 1 2.48786 4.93153 -1.7767 
12848 3 0.467806 -1.58936 -1.50213 
17799 1 -0.280196 -1.50148 6.36205 
20847 1 1.62755 1.8127 -4.99311 
8720 3 -1.53101 0.319225 -3.77745 
8719 1 -3.64676 -0.658947 2.13939 
9924 1 2.22577 2.39047 6.08742 
9923 2 -0.797146 -4.62787 0.951978 
9922 1 2.95405 -6.32903 0.94006 
4216 1 -4.37503 1.92177 0.216003 
19862 3 1.01767 -3.36515 0.995431 
13158 1 2.95671 2.39323 -0.0710898 
19863 1 1.134 5.21025 1.46181 
9018 1 -3.50002 -4.10532 -1.34718 
9017 3 4.87063 -4.3364 -0.40363 
9016 1 2.14351 -0.738322 1.77463 
3027 1 0.557618 1.15465 -0.60394 
10182 1 0.342045 -0.480363 4.78746 
12027 1 -1.02165 -0.803794 2.60601 
12026 3 1.09204 -5.60986 -6.88837 
12025 1 -1.88745 -7.88752 -1.42661 
934 1 0.340273 -5.21129 0.0193417 
935 3 -0.265898 -0.729218 1.34988 
936 1 6.31331 -1.021 -2.08118 
3026 3 1.02407 -1.02704 -0.649962 
4396 1 6.98745 -0.92226 -0.604313 
2226 1 -0.682386 -5.11752 -1.96489 
1503 1 0.724299 -2.07496 6.15106 
1908 1 0.423255 -9.06875 -2.06061 
1907 3 -3.691 -3.52342 0.487887 
1906 1 2.35926 -1.26407 2.81481 
18112 1 6.43056 2.75119 -3.11954 
18113 3 -4.29466 0.67402 0.215462 
19219 1 3.81507 4.49368 2.31381 
21205 1 5.72443 2.65738 -4.86106 
16182 1 -0.90228 -1.21133 5.58153 
12487 1 0.859559 5.67472 -0.681135 
14409 1 6.63102 0.168633 -7.81965 
3888 1 4.61825 1.12765 -1.95425 
1328 3 -0.906135 -3.62454 0.67396 
1329 1 -2.8119 -2.71681 0.157466 
862 1 -0.753713 2.23024 0.952799 
863 3 -1.23463 1.00395 2.09421 
864 1 0.423068 -5.29794 -0.37762 
427 1 -0.569832 2.76838 4.03405 
1270 1 -0.280384 4.18446 -4.83431 
1891 1 -0.528427 -2.36054 -1.00054 
1271 3 -1.88506 -2.27594 -1.3775 
20938 1 -0.57442 0.462431 0.373356 
9333 1 -0.854566 -6.96153 -1.77688 
12847 1 3.32842 -3.47006 3.66173 
17798 3 -1.32156 0.957491 3.5437 
17797 1 1.89296 4.54592 -0.777423 
11581 1 -0.262392 0.298209 0.688277 
11582 3 -0.734902 0.573704 1.02047 
1272 1 1.05544 -7.07714 -0.601766 
20939 2 0.480163 5.2733 -0.627985 
9331 1 -0.089705 3.736 2.29722 
9332 2 5.56633 1.27679 -0.80819 
4217 3 0.184358 -5.15504 1.29986 
343 1 -7.43986 -2.70573 0.907207 
10143 1 -3.91675 -0.252367 -2.80199 
3025 1 -3.50003 0.704296 -0.338448 
18114 1 0.383658 0.895279 2.35248 
19220 3 -3.41304 -4.35596 1.39032 
19221 1 -4.41928 -7.33012 -5.45021 
4397 3 -1.00921 -0.374614 -5.0084 
12075 1 2.0209 -2.31 -3.44838 
12073 1 -2.06123 1.12998 -0.801679 
12074 3 0.257951 -1.8267 1.65329 
4398 1 1.45271 0.757316 -3.13728 
20370 1 3.48551 1.38744 -0.586722 
14408 3 1.31068 0.13562 -0.726681 
14407 1 4.49862 1.58911 -6.37629 
20368 1 -3.10341 -3.54184 0.770246 
2052 1 2.93439 -1.11911 -1.93509 
2051 3 3.35102 3.45219 -1.12967 
20369 3 -0.110207 -0.313704 -0.438983 
2050 1 2.07459 6.87112 6.9676 
13722 1 4.48193 -2.96462 0.73599 
10860 1 5.07169 1.01911 -1.02392 
11583 1 2.69276 2.42334 -3.57099 
10168 1 -6.14589 -0.672094 6.64808 
10859 3 -0.477841 -0.172761 2.55939 
10169 2 -1.90903 -0.57085 2.96139 
10170 1 -5.77984 -1.62429 -2.67159 
12957 1 0.608718 6.32119 3.22787 
18264 1 0.0632558 0.838806 2.18138 
18263 3 -2.87112 -0.538572 0.326701 
18262 1 -5.15138 -2.74984 6.04814 
4800 1 1.05061 -0.901335 0.00133379 
12956 3 1.40129 4.03141 1.11961 
4334 3 -1.2686 1.64144 4.09976 
12419 3 -0.482827 -5.21327 0.268738 
4799 3 -0.453668 -0.0992769 -0.0816076 
4335 1 -0.74963 -3.24005 -0.2677 
7545 1 -0.324019 0.81705 -3.21344 
8991 1 -3.93338 1.85001 4.4188 
12418 1 1.07928 -1.50057 5.10621 
8990 3 -6.40303 -2.31467 3.38126 
4798 1 -0.185237 -8.02951 -4.35495 
13741 1 3.75882 -1.26445 3.67427 
8989 1 0.00587971 -1.04688 -18.3029 
14795 3 1.32887 0.442695 -1.17621 
12804 1 -0.142614 -4.87037 -0.184277 
14796 1 1.56478 -0.283652 -3.5729 
15420 1 3.139 4.31093 -6.20787 
15419 3 1.47915 -0.351603 2.47137 
15418 1 0.48498 5.01537 1.2543 
6001 1 -5.48673 -2.1534 4.27124 
12038 3 1.80604 -3.72496 3.55711 
6002 3 3.44351 -1.81328 6.3813 
12039 1 0.918652 -1.35549 0.840114 
16551 1 4.67555 -3.14651 1.69971 
12642 1 -4.0426 3.22758 -1.03122 
21024 1 -5.7168 -1.93392 -0.554085 
20447 3 1.98625 -2.05675 3.73725 
9066 1 -8.77925 5.3582 -0.516432 
12175 1 -1.18808 -6.22891 -0.1852 
12641 3 1.99349 2.2629 -5.1985 
10557 1 4.2296 -1.04559 1.35577 
12640 1 -7.47264 -0.952853 -1.31256 
17757 1 -1.8265 -1.97229 -0.945486 
10555 1 7.20896 -6.77051 3.61444 
18238 1 -3.48619 1.88612 -1.68857 
17756 3 -0.997762 -2.01746 -3.34353 
10556 3 -3.22202 -0.139845 1.90138 
18239 3 -0.356495 -1.62015 -2.09088 
17755 1 0.709662 -2.63737 6.94061 
18240 1 2.67749 7.70659 -1.2456 
12176 3 0.593198 1.29854 -2.1155 
12177 1 -3.0509 2.68772 -5.55156 
5253 1 -3.42554 -4.42653 -2.83387 
5252 3 1.49039 2.43562 3.26402 
16289 3 -1.35018 -0.455158 -1.0368 
15652 1 -3.07539 -2.81807 -2.4521 
16290 1 7.4809 2.36561 -3.31365 
15653 3 -0.315579 2.64287 1.12098 
16288 1 -1.90796 -0.576724 -1.08377 
4737 1 0.0322507 1.46676 3.108 
15262 1 -1.9047 2.87833 -0.0493557 
15263 3 -2.61101 -1.52961 2.33214 
12541 1 -2.63927 10.0894 1.68296 
20240 3 3.52281 0.372668 1.30285 
20241 1 0.117379 -2.19668 0.831104 
13334 3 2.67956 0.167468 -4.68273 
13333 1 -1.57619 9.92476 1.90482 
4221 1 1.23363 5.52842 -0.0526449 
20239 1 -1.35467 -3.04495 3.00462 
4220 2 5.54668 0.979627 2.38569 
4219 1 -0.370683 -1.64204 0.381002 
11365 1 4.84303 -3.93686 0.519579 
13699 1 -4.08875 -3.16715 -3.73313 
20815 1 -1.18532 -2.1985 1.67344 
20816 3 3.05195 0.835869 -1.09757 