ITEM: TIMESTEP
25000000
ITEM: NUMBER OF ENTRIES
1840
ITEM: BOX BOUNDS pp pp pp
0 50
0 50
0 50
ITEM: ENTRIES c_binfo[1] c_binfo[2] c_binfo[3] 
3 287 288 
3 8468 8469 
3 2597 2598 
1 2598 6303 
3 286 287 
3 6826 6827 
3 6827 6828 
3 18965 18966 
3 11152 11153 
1 2502 14079 
3 18964 18965 
3 14077 14078 
1 14077 18964 
3 14078 14079 
3 20435 20436 
3 13372 13373 
3 13373 13374 
3 2500 2501 
3 2501 2502 
3 18407 18408 
3 18406 18407 
3 3890 3891 
3 3889 3890 
2 18388 18389 
3 6302 6303 
1 8541 19176 
3 6301 6302 
3 19175 19176 
2 18389 18390 
3 445 446 
1 445 18390 
3 446 447 
3 11153 11154 
1 447 4635 
1 11154 19174 
3 19174 19175 
3 12839 12840 
3 12838 12839 
1 12838 15753 
3 11893 11894 
1 11893 12840 
3 15752 15753 
3 4634 4635 
3 4633 4634 
3 13796 13797 
2 2561 2562 
3 2252 2253 
3 5965 5966 
1 5965 8208 
3 5966 5967 
2 2560 2561 
1 2560 5967 
3 8207 8208 
3 7570 7571 
3 7571 7572 
3 2251 2252 
1 2251 13830 
3 20008 20009 
1 7572 20008 
3 13829 13830 
2 8540 8541 
2 8539 8540 
1 8539 13828 
3 13828 13829 
3 14509 14510 
1 10677 14509 
3 14510 14511 
3 17570 17571 
3 17569 17570 
3 11894 11895 
3 8206 8207 
1 3441 17569 
3 18800 18801 
1 3987 18801 
2 1669 1670 
2 1670 1671 
3 10676 10677 
1 1671 10675 
3 10675 10676 
2 4027 4028 
2 4028 4029 
3 3440 3441 
3 3439 3440 
1 3439 10297 
3 10297 10298 
3 10298 10299 
3 1090 1091 
3 1091 1092 
3 3986 3987 
3 3985 3986 
1 1092 3985 
3 15776 15777 
3 15775 15776 
3 17176 17177 
3 17177 17178 
2 4123 4124 
1 4123 17176 
2 14306 14307 
2 14305 14306 
2 13808 13809 
2 6193 6194 
1 6193 20118 
2 6194 6195 
2 7541 7542 
1 7542 19014 
2 19013 19014 
2 19012 19013 
2 13807 13808 
1 13807 19012 
2 13663 13664 
1 13663 13809 
2 13664 13665 
3 9553 9554 
3 9554 9555 
2 1796 1797 
3 11032 11033 
3 11033 11034 
3 1615 1616 
3 8146 8147 
1 8146 13533 
3 13531 13532 
3 13532 13533 
3 1393 1394 
1 1393 1615 
3 8147 8148 
2 1795 1796 
1 1795 4228 
3 4228 4229 
1 657 4143 
3 656 657 
3 655 656 
1 655 9441 
3 4142 4143 
3 14785 14786 
3 4141 4142 
1 4141 14785 
3 14786 14787 
3 9449 9450 
3 9448 9449 
1 7131 9448 
3 7130 7131 
3 5032 5033 
1 5032 17986 
3 17986 17987 
3 17987 17988 
3 19541 19542 
1 7179 19542 
3 12905 12906 
3 10453 10454 
1 10453 17988 
3 8959 8960 
1 8959 19540 
3 19540 19541 
2 9440 9441 
2 9439 9440 
3 1909 1910 
3 1910 1911 
3 9659 9660 
3 9658 9659 
1 4992 9658 
1 9660 15070 
1 11571 21111 
3 21110 21111 
3 21109 21110 
1 21109 21438 
3 4991 4992 
3 11570 11571 
3 4009 4010 
1 4009 12906 
3 13676 13677 
3 4010 4011 
3 200 201 
3 199 200 
1 199 20169 
3 13675 13676 
1 13675 18498 
1 201 7677 
3 13021 13022 
1 13021 13677 
3 18497 18498 
3 21425 21426 
1 7650 21424 
3 21424 21425 
3 7649 7650 
1 11514 16539 
3 11513 11514 
3 11512 11513 
1 11490 11512 
3 10198 10199 
1 10198 14674 
3 14674 14675 
3 14675 14676 
3 10199 10200 
3 7648 7649 
1 7648 9667 
3 11393 11394 
3 11392 11393 
3 2740 2741 
1 2740 11394 
3 2741 2742 
3 19774 19775 
3 4388 4389 
3 6689 6690 
2 8401 8402 
2 8402 8403 
3 4192 4193 
1 4192 8403 
3 2201 2202 
3 14636 14637 
3 14905 14906 
1 2202 14905 
3 7252 7253 
1 7252 14637 
3 7253 7254 
3 14906 14907 
1 7254 8698 
3 19417 19418 
1 13995 19417 
3 13994 13995 
3 19418 19419 
3 7441 7442 
1 7441 11643 
3 7442 7443 
1 2679 3186 
3 6688 6689 
3 14882 14883 
3 14881 14882 
3 8371 8372 
3 8372 8373 
3 7318 7319 
3 7319 7320 
3 11735 11736 
3 20281 20282 
1 7443 20281 
3 1114 1115 
3 1115 1116 
3 6851 6852 
1 6852 8467 
3 6850 6851 
1 1914 6850 
3 8467 8468 
3 11503 11504 
1 11503 12960 
3 13984 13985 
1 13984 19104 
3 1616 1617 
1 8478 13531 
1 1617 2596 
3 13985 13986 
3 8476 8477 
3 8477 8478 
1 13986 18181 
3 18181 18182 
3 3817 3818 
1 3817 8476 
3 3818 3819 
3 2596 2597 
3 1913 1914 
3 1912 1913 
3 17263 17264 
1 14547 17265 
3 17264 17265 
3 5033 5034 
1 9450 18714 
3 18713 18714 
3 18712 18713 
1 7422 18712 
1 5034 12958 
3 12958 12959 
3 12959 12960 
3 7421 7422 
3 7178 7179 
3 10744 10745 
1 5271 10744 
3 5270 5271 
3 5269 5270 
1 5269 12904 
3 7177 7178 
1 7177 16731 
3 8902 8903 
1 8902 13023 
3 16730 16731 
3 12904 12905 
3 16729 16730 
1 16729 18037 
3 18037 18038 
3 8903 8904 
3 18365 18366 
3 3925 3926 
1 3925 18364 
3 18364 18365 
3 15070 15071 
3 18710 18711 
3 11569 11570 
1 11569 18709 
3 18709 18710 
3 15071 15072 
1 3933 15072 
3 13766 13767 
3 3932 3933 
3 13765 13766 
1 13765 16537 
3 16537 16538 
3 11602 11603 
1 11602 18711 
3 19775 19776 
3 13022 13023 
3 7676 7677 
3 7675 7676 
1 7675 9126 
3 3419 3420 
3 9125 9126 
3 3418 3419 
1 3418 15709 
1 3420 19776 
3 15709 15710 
3 16538 16539 
3 9667 9668 
3 9668 9669 
1 9669 17251 
1 10200 16998 
3 16997 16998 
3 16996 16997 
3 17251 17252 
3 14857 14858 
1 14857 16996 
3 14402 14403 
3 14401 14402 
1 6123 14401 
3 6122 6123 
3 17252 17253 
1 2742 17104 
3 17104 17105 
3 17105 17106 
3 11524 11525 
1 11097 11524 
1 5394 17106 
3 11525 11526 
1 11526 13993 
3 13993 13994 
3 11096 11097 
3 1729 1730 
1 1729 8830 
3 8830 8831 
3 6121 6122 
1 6121 14907 
3 9038 9039 
3 8698 8699 
3 8699 8700 
1 6210 8700 
1 4194 9039 
3 4193 4194 
3 6209 6210 
3 11642 11643 
3 11641 11642 
3 1894 1895 
1 1894 11641 
3 1895 1896 
1 1896 7695 
3 14530 14531 
3 5599 5600 
1 5599 14530 
3 12449 12450 
3 14962 14963 
1 14962 20721 
1 5601 8373 
3 5600 5601 
3 20720 20721 
3 20719 20720 
3 12448 12449 
1 12448 20719 
3 8935 8936 
3 8936 8937 
1 1116 8935 
3 5272 5273 
1 5272 8937 
3 15971 15972 
3 15970 15971 
1 63 15970 
1 3819 17761 
3 61 62 
3 62 63 
3 17761 17762 
3 17762 17763 
1 6072 11505 
3 6071 6072 
3 8600 8601 
3 8599 8600 
1 8599 17763 
3 11504 11505 
3 18182 18183 
1 789 18183 
3 788 789 
3 6136 6137 
1 6136 8533 
3 787 788 
1 787 8707 
3 17303 17304 
3 8533 8534 
3 8707 8708 
1 17304 18039 
3 14545 14546 
3 14546 14547 
3 7501 7502 
1 7501 12144 
3 12143 12144 
3 7420 7421 
1 7420 12142 
3 12142 12143 
3 10982 10983 
1 10746 10983 
3 10981 10982 
3 10745 10746 
3 5218 5219 
1 5218 10981 
1 6138 20982 
3 6137 6138 
3 18038 18039 
3 6856 6857 
1 6856 8904 
3 6857 6858 
3 3214 3215 
1 3214 6858 
3 3926 3927 
1 3927 20661 
3 13460 13461 
1 11604 13461 
3 20041 20042 
3 11737 11738 
1 11737 20041 
3 11603 11604 
1 7341 13767 
3 11738 11739 
3 3931 3932 
1 3931 11739 
3 7340 7341 
3 7339 7340 
1 141 7339 
3 140 141 
3 13231 13232 
1 13231 15711 
3 15125 15126 
3 2950 2951 
1 2950 15124 
3 15124 15125 
3 9124 9125 
1 9124 15126 
3 15710 15711 
3 14543 14544 
3 13232 13233 
3 2951 2952 
3 5392 5393 
1 5392 14544 
3 14542 14543 
3 3598 3599 
1 3598 14542 
3 20660 20661 
3 20659 20660 
3 11674 11675 
1 11674 20659 
3 11675 11676 
1 5979 11676 
3 17192 17193 
1 17193 17341 
3 17191 17192 
1 17191 17253 
3 13214 13215 
3 13213 13214 
1 13213 14403 
3 14858 14859 
3 14449 14450 
1 14449 14859 
1 13215 20140 
3 14450 14451 
3 20140 20141 
3 17341 17342 
3 5393 5394 
3 11095 11096 
3 3658 3659 
1 3658 11095 
3 3659 3660 
1 3660 13896 
1 1731 19150 
3 1730 1731 
3 8854 8855 
3 8855 8856 
1 8856 14964 
3 9037 9038 
1 5484 9037 
3 5483 5484 
3 5482 5483 
1 5482 18831 
3 14531 14532 
1 4101 17322 
3 4100 4101 
1 14466 14532 
3 6208 6209 
3 4099 4100 
1 4099 6208 
3 7694 7695 
3 7693 7694 
1 7693 15288 
3 15287 15288 
3 14465 14466 
3 2861 2862 
3 15286 15287 
1 15286 21547 
1 2862 7815 
3 2860 2861 
1 2860 5274 
3 14963 14964 
3 5273 5274 
3 12817 12818 
1 12817 15972 
3 20461 20462 
3 20462 20463 
3 20009 20010 
3 5572 5573 
1 5572 8601 
3 5573 5574 
3 6070 6071 
1 6070 6736 
3 6736 6737 
3 6737 6738 
1 6738 17497 
3 17497 17498 
1 14511 20034 
3 8708 8709 
3 17302 17303 
1 9396 17302 
3 9394 9395 
1 9394 14581 
3 14581 14582 
3 14582 14583 
3 9395 9396 
1 8535 17712 
3 8534 8535 
3 17711 17712 
3 17710 17711 
1 17710 18957 
3 20033 20034 
2 10513 10514 
2 10514 10515 
3 12818 12819 
1 10515 12819 
1 3471 7503 
3 3470 3471 
3 7502 7503 
3 2150 2151 
3 2149 2150 
1 2149 5220 
3 5219 5220 
3 6028 6029 
1 6028 20043 
3 6029 6030 
3 20042 20043 
3 2108 2109 
3 2107 2108 
1 2107 2952 
3 3215 3216 
3 14147 14148 
3 14146 14147 
1 3216 14146 
1 2109 20557 
3 20557 20558 
3 16235 16236 
1 6798 14148 
3 13312 13313 
1 13312 13357 
3 13459 13460 
1 13314 13459 
3 13313 13314 
3 13357 13358 
3 679 680 
1 679 11673 
3 139 140 
1 139 11671 
3 11671 11672 
3 11672 11673 
3 6167 6168 
3 15320 15321 
3 15319 15320 
1 15319 16236 
1 13233 15321 
1 3384 3600 
3 3599 3600 
3 3383 3384 
3 20690 20691 
3 20689 20690 
1 6168 17343 
3 17342 17343 
3 17512 17513 
1 1233 17512 
3 1232 1233 
3 20141 20142 
3 1231 1232 
1 1231 14451 
1 7368 20142 
3 7367 7368 
3 17321 17322 
3 17320 17321 
3 13895 13896 
3 4055 4056 
1 6519 17320 
1 4056 13894 
3 13894 13895 
3 6518 6519 
3 6038 6039 
3 6037 6038 
1 6037 21549 
3 6517 6518 
1 6517 12567 
3 4054 4055 
1 4054 12513 
3 5978 5979 
3 5977 5978 
3 18830 18831 
3 18829 18830 
1 8001 18829 
3 8000 8001 
3 7999 8000 
3 1951 1952 
1 1951 7999 
3 18805 18806 
3 14464 14465 
1 14464 14872 
3 14872 14873 
3 21548 21549 
3 21547 21548 
3 14873 14874 
1 14109 14874 
3 14108 14109 
3 7814 7815 
3 17498 17499 
1 3132 3948 
3 2588 2589 
3 3131 3132 
3 2587 2588 
1 2587 14583 
3 3130 3131 
1 3130 17499 
1 2589 4125 
3 18955 18956 
1 4029 18955 
3 18956 18957 
3 6796 6797 
1 4149 6796 
3 4148 4149 
3 3539 3540 
3 3538 3539 
1 3538 10977 
3 3469 3470 
1 3972 6030 
1 2151 20803 
3 20803 20804 
3 20804 20805 
3 3971 3972 
3 3970 3971 
1 3970 17457 
3 17456 17457 
3 9131 9132 
3 6797 6798 
1 9132 20559 
3 20558 20559 
3 10970 10971 
3 16234 16235 
1 10971 16234 
3 10969 10970 
1 10969 14190 
3 9130 9131 
1 9130 14524 
3 13358 13359 
3 6484 6485 
1 6484 13359 
3 6485 6486 
3 5312 5313 
3 6166 6167 
1 681 5313 
3 680 681 
1 1131 6166 
3 1130 1131 
3 1129 1130 
1 1129 4963 
3 4963 4964 
3 3374 3375 
3 3373 3374 
1 3373 9249 
1 804 19837 
3 803 804 
3 802 803 
1 802 3382 
3 3382 3383 
3 12511 12512 
3 3139 3140 
1 3139 12511 
3 12512 12513 
3 19837 19838 
3 3140 3141 
1 3375 17514 
3 7366 7367 
1 465 7366 
3 464 465 
1 120 463 
3 463 464 
3 119 120 
1 13845 18807 
3 13844 13845 
3 17513 17514 
3 12566 12567 
3 12565 12566 
3 11065 11066 
1 11065 12565 
3 11066 11067 
3 14411 14412 
3 14410 14411 
1 6039 11463 
3 1952 1953 
3 18806 18807 
3 14107 14108 
3 3274 3275 
1 3274 14107 
1 1953 14410 
3 12269 12270 
3 3275 3276 
1 3276 12268 
3 12268 12269 
2 13145 13146 
2 3946 3947 
1 3946 13146 
2 3947 3948 
2 13144 13145 
2 4124 4125 
2 5581 5582 
1 5581 19971 
3 10975 10976 
2 4769 4770 
2 4768 4769 
1 4768 10975 
1 14877 17559 
3 17558 17559 
3 4147 4148 
1 4147 17557 
3 17557 17558 
3 10976 10977 
2 5582 5583 
3 17455 17456 
1 5583 17455 
3 14525 14526 
3 21254 21255 
3 21253 21254 
2 5407 5408 
1 5407 21255 
3 701 702 
3 14524 14525 
1 702 14188 
3 14188 14189 
3 14189 14190 
3 5311 5312 
1 5311 6495 
3 6493 6494 
3 6494 6495 
3 4964 4965 
3 21080 21081 
1 19839 21079 
3 21079 21080 
3 9248 9249 
3 19838 19839 
1 8994 9247 
3 8993 8994 
3 9247 9248 
1 3141 12204 
3 12203 12204 
3 12202 12203 
1 12202 15637 
2 15637 15638 
3 11566 11567 
3 11567 11568 
3 118 119 
3 13843 13844 
3 11845 11846 
1 11845 14412 
3 11846 11847 
1 11847 20367 
3 175 176 
1 175 5787 
3 176 177 
1 177 11067 
3 20366 20367 
1 5751 12270 
3 21544 21545 
3 21545 21546 
3 7714 7715 
3 7715 7716 
1 402 4498 
2 4498 4499 
2 4499 4500 
2 19969 19970 
1 4500 19969 
2 19970 19971 
2 20117 20118 
2 13931 13932 
2 13930 13931 
1 13930 20116 
2 20116 20117 
3 14876 14877 
3 14875 14876 
3 14744 14745 
2 8938 8939 
1 8940 13932 
2 8939 8940 
3 700 701 
2 5408 5409 
3 8992 8993 
2 15638 15639 
3 5786 5787 
3 5785 5786 
3 20365 20366 
2 400 401 
1 400 9555 
2 401 402 
1 2958 3114 
3 2957 2958 
3 2956 2957 
1 2956 4414 
3 4414 4415 
1 1395 9309 
3 12343 12344 
1 12343 19102 
3 19102 19103 
3 1394 1395 
3 19103 19104 
3 16310 16311 
3 4415 4416 
2 100 101 
1 100 436 
3 436 437 
2 101 102 
1 102 7944 
3 11744 11745 
3 11743 11744 
1 3828 11745 
3 12344 12345 
1 14772 21414 
1 11556 12345 
3 21413 21414 
3 14771 14772 
3 3988 3989 
3 16309 16310 
3 6949 6950 
1 6949 11743 
3 11275 11276 
1 11275 16309 
1 1935 3735 
3 1934 1935 
3 11276 11277 
2 7943 7944 
2 7942 7943 
1 3093 7942 
1 1002 11620 
2 11620 11621 
3 3092 3093 
2 11621 11622 
3 14770 14771 
3 5803 5804 
1 5803 6598 
3 6598 6599 
3 6599 6600 
1 6600 15229 
3 3989 3990 
3 15229 15230 
3 5804 5805 
3 1933 1934 
1 1933 18436 
3 18436 18437 
1 3990 9799 
3 9799 9800 
3 9800 9801 
3 17758 17759 
3 658 659 
1 658 17758 
3 659 660 
3 17759 17760 
3 11608 11609 
1 11608 16653 
1 17760 19737 
3 18437 18438 
3 7592 7593 
3 6652 6653 
1 6652 7593 
3 6653 6654 
3 7591 7592 
3 19852 19853 
1 11151 19852 
3 19853 19854 
3 11119 11120 
1 11119 19854 
1 5649 14185 
3 4387 4388 
1 4387 8883 
3 14185 14186 
1 4389 19774 
3 5648 5649 
3 11609 11610 
1 11610 20881 
3 20881 20882 
3 14959 14960 
1 1794 14959 
3 1793 1794 
3 14575 14576 
1 14575 20256 
3 20255 20256 
3 20254 20255 
3 19036 19037 
1 19036 20254 
3 14576 14577 
3 14960 14961 
3 20882 20883 
3 9716 9717 
3 9715 9716 
3 12862 12863 
1 12862 13662 
3 13661 13662 
3 13660 13661 
3 205 206 
1 205 3184 
3 11272 11273 
1 11272 16042 
3 16042 16043 
1 2673 13660 
3 3184 3185 
3 3185 3186 
3 5647 5648 
3 838 839 
1 838 5647 
3 1792 1793 
1 1792 14022 
3 2012 2013 
3 2011 2012 
1 2011 14505 
2 4546 4547 
1 2013 4546 
3 16075 16076 
2 13804 13805 
1 13804 16077 
3 16076 16077 
3 17746 17747 
3 17747 17748 
2 13805 13806 
3 11273 11274 
3 3532 3533 
3 9470 9471 
3 9469 9470 
1 9469 11790 
3 3113 3114 
3 3112 3113 
1 3112 6580 
3 7301 7302 
3 7300 7301 
1 7300 10279 
3 10279 10280 
3 6580 6581 
3 4000 4001 
1 4000 15751 
3 4001 4002 
1 6582 11152 
3 6581 6582 
3 15898 15899 
1 15898 16311 
1 438 20434 
1 4002 15900 
3 15899 15900 
3 17285 17286 
3 8515 8516 
1 8515 17284 
3 17284 17285 
3 20434 20435 
3 437 438 
3 8516 8517 
3 3827 3828 
3 3826 3827 
1 3826 7302 
3 2974 2975 
1 2974 3988 
3 2975 2976 
3 16267 16268 
1 16267 21412 
3 21412 21413 
1 2976 15403 
3 15403 15404 
3 16268 16269 
1 16269 20980 
3 20980 20981 
3 15404 15405 
3 3304 3305 
1 3304 12135 
3 3734 3735 
3 3733 3734 
1 3733 12133 
3 12133 12134 
3 12134 12135 
3 9635 9636 
1 16545 18208 
3 16544 16545 
1 9636 13425 
2 1001 1002 
2 1000 1001 
1 1000 8517 
3 16543 16544 
3 2104 2105 
1 2104 16543 
3 2105 2106 
3 15230 15231 
3 7480 7481 
1 7480 9379 
3 1186 1187 
1 1186 15231 
3 1187 1188 
3 9379 9380 
3 15524 15525 
1 1188 9282 
3 9634 9635 
1 9634 19735 
3 19735 19736 
1 12441 15523 
3 15523 15524 
1 15525 16651 
3 19736 19737 
3 16651 16652 
3 16652 16653 
3 12998 12999 
1 12999 15202 
3 15202 15203 
3 15203 15204 
3 7352 7353 
3 7481 7482 
1 7482 11121 
3 11120 11121 
3 10334 10335 
1 10335 12864 
3 10333 10334 
1 2844 10333 
3 8831 8832 
1 8832 14187 
3 14186 14187 
3 12997 12998 
1 12997 14577 
3 3430 3431 
1 3430 14961 
3 3431 3432 
1 3432 6144 
3 4906 4907 
3 4907 4908 
2 11006 11007 
1 4908 11005 
2 11005 11006 
3 6143 6144 
1 13650 17637 
3 20675 20676 
3 16043 16044 
3 12863 12864 
3 10759 10760 
1 10759 16044 
3 10760 10761 
3 12943 12944 
1 12943 20676 
1 14394 17130 
3 14393 14394 
3 14392 14393 
3 206 207 
1 207 14392 
1 11007 16075 
3 17636 17637 
3 14504 14505 
3 17635 17636 
3 14503 14504 
1 14503 17635 
3 20819 20820 
3 20818 20819 
1 16305 17748 
3 16304 16305 
3 16303 16304 
1 2184 16303 
3 2183 2184 
2 9188 9189 
2 9187 9188 
3 3964 3965 
1 3964 9187 
3 3533 3534 
1 3534 7162 
3 11788 11789 
1 11788 20674 
3 20674 20675 
1 12315 13536 
3 12314 12315 
3 12313 12314 
3 11789 11790 
3 7162 7163 
3 7163 7164 
3 15751 15752 
3 10280 10281 
1 2709 10281 
3 2708 2709 
3 2707 2708 
1 2707 20032 
3 20032 20033 
3 7246 7247 
1 7246 14622 
3 14621 14622 
3 3305 3306 
1 3306 14620 
3 14620 14621 
3 1414 1415 
1 1414 18171 
3 1415 1416 
1 1416 18210 
3 13795 13796 
3 20981 20982 
3 8797 8798 
1 5685 8797 
3 5684 5685 
3 5683 5684 
1 5683 15405 
3 9281 9282 
3 9280 9281 
3 7039 7040 
1 7039 9280 
3 10007 10008 
3 7040 7041 
3 10006 10007 
1 10008 12439 
1 6936 10006 
3 18208 18209 
3 18209 18210 
3 9794 9795 
3 9793 9794 
1 9793 13423 
3 13423 13424 
3 13424 13425 
3 11167 11168 
1 11167 17542 
3 17542 17543 
3 21316 21317 
3 21317 21318 
3 12439 12440 
3 2797 2798 
1 2797 9381 
3 9380 9381 
3 2798 2799 
3 19151 19152 
3 12440 12441 
3 17543 17544 
1 15204 17544 
3 6142 6143 
1 6142 11961 
3 11960 11961 
3 11959 11960 
1 11959 13543 
3 13543 13544 
3 19769 19770 
3 19768 19769 
3 15559 15560 
1 15559 19768 
3 4156 4157 
1 4156 21318 
1 4158 7351 
3 7351 7352 
3 4157 4158 
3 2843 2844 
3 5036 5037 
3 2842 2843 
1 2842 5037 
3 7343 7344 
3 12629 12630 
1 7344 17128 
3 17128 17129 
3 5035 5036 
1 5035 8313 
3 12628 12629 
3 17129 17130 
3 19150 19151 
3 2110 2111 
1 2110 4906 
1 2112 19770 
3 13649 13650 
3 2111 2112 
3 13648 13649 
3 212 213 
1 213 13648 
3 211 212 
1 211 2625 
3 16873 16874 
3 12550 12551 
1 12550 16875 
3 16874 16875 
1 8082 10761 
3 12944 12945 
3 19160 19161 
1 12945 19159 
3 19159 19160 
3 8080 8081 
1 8080 12630 
3 8081 8082 
1 19161 21064 
3 3976 3977 
1 3976 19243 
3 12023 12024 
3 832 833 
1 832 12049 
3 20780 20781 
3 20779 20780 
1 20779 20820 
3 833 834 
3 12049 12050 
3 2182 2183 
1 2182 12022 
3 12022 12023 
1 1197 3966 
3 764 765 
3 3965 3966 
3 763 764 
3 12551 12552 
3 13535 13536 
3 13534 13535 
1 3978 13534 
3 3977 3978 
3 1196 1197 
3 1195 1196 
1 7248 17571 
3 7247 7248 
3 8798 8799 
1 8799 21325 
3 21325 21326 
3 21326 21327 
2 18170 18171 
3 11045 11046 
2 18169 18170 
1 18169 18799 
3 5960 5961 
1 5961 11044 
3 11044 11045 
3 7843 7844 
3 21388 21389 
1 1236 11046 
3 18799 18800 
3 7844 7845 
3 7088 7089 
1 7041 7089 
3 6934 6935 
1 6934 20218 
3 6935 6936 
3 2336 2337 
3 18256 18257 
3 7087 7088 
1 7087 18256 
3 5959 5960 
1 5959 9795 
3 20218 20219 
3 20219 20220 
3 11168 11169 
3 3364 3365 
1 3364 4785 
1 3366 11169 
3 3365 3366 
3 14737 14738 
1 13464 14737 
1 10674 21390 
3 21389 21390 
3 10673 10674 
3 1597 1598 
3 1598 1599 
3 10672 10673 
1 10672 12292 
3 6784 6785 
1 6784 18699 
1 1602 2799 
3 18698 18699 
3 1600 1601 
1 1600 2337 
3 8312 8313 
3 1601 1602 
3 21128 21129 
3 8311 8312 
1 8311 21129 
3 21127 21128 
3 6785 6786 
3 18697 18698 
1 18697 19152 
3 14738 14739 
3 13544 13545 
1 13545 14739 
3 3377 3378 
1 3378 5548 
3 15560 15561 
3 2623 2624 
1 2623 3376 
3 3376 3377 
3 3083 3084 
1 3084 15561 
3 12293 12294 
3 12292 12293 
3 9743 9744 
3 9742 9743 
3 7342 7343 
3 6061 6062 
1 6061 7342 
3 6062 6063 
3 16154 16155 
1 6063 16153 
3 16153 16154 
3 1145 1146 
1 8913 12628 
3 2624 2625 
3 8912 8913 
3 9314 9315 
3 8911 8912 
1 8911 9315 
1 5769 19201 
3 5768 5769 
3 5767 5768 
1 5767 14736 
3 21040 21041 
3 19201 19202 
3 19202 19203 
1 19203 21040 
3 11123 11124 
3 14080 14081 
3 14081 14082 
3 20101 20102 
1 14082 20101 
3 7507 7508 
1 7507 7813 
3 21064 21065 
3 1144 1145 
1 1144 21066 
3 21065 21066 
3 19244 19245 
3 19243 19244 
3 13474 13475 
1 13474 19245 
3 13475 13476 
3 7508 7509 
3 7813 7814 
3 12050 12051 
3 11122 11123 
1 11122 12051 
3 14734 14735 
3 14735 14736 
1 15075 21327 
3 15073 15074 
3 15074 15075 
3 21305 21306 
3 21304 21305 
1 9339 21304 
3 9338 9339 
3 9337 9338 
3 1004 1005 
3 3535 3536 
3 3536 3537 
3 1003 1004 
1 1003 3535 
1 3537 4783 
3 4783 4784 
3 1235 1236 
3 1234 1235 
3 18257 18258 
1 20220 21306 
3 2335 2336 
1 2335 9226 
1 9021 9228 
3 9227 9228 
3 9226 9227 
3 9020 9021 
1 3540 18258 
3 10487 10488 
3 4784 4785 
3 13462 13463 
3 13463 13464 
3 10486 10487 
1 10486 13462 
1 10488 16056 
3 5744 5745 
3 12104 12105 
1 3744 12103 
3 1766 1767 
3 1765 1766 
1 1765 12478 
1 12480 21127 
3 12478 12479 
3 12479 12480 
3 730 731 
1 730 9151 
3 9151 9152 
3 9152 9153 
3 12103 12104 
3 731 732 
1 6786 12105 
3 5548 5549 
3 3704 3705 
3 5549 5550 
3 3703 3704 
1 3703 14484 
3 14483 14484 
3 3082 3083 
1 3082 13642 
3 21041 21042 
3 13642 13643 
3 13643 13644 
3 14348 14349 
1 14349 16644 
3 14347 14348 
3 6571 6572 
1 1146 6571 
1 732 16155 
3 6572 6573 
1 6573 11419 
3 11419 11420 
3 11420 11421 
3 8030 8031 
1 8031 11461 
3 11461 11462 
3 11462 11463 
3 16643 16644 
3 9313 9314 
1 9313 14482 
3 14482 14483 
3 8204 8205 
3 8203 8204 
3 16642 16643 
3 4139 4140 
3 4138 4139 
3 20102 20103 
3 7154 7155 
1 7509 15478 
3 15478 15479 
1 7155 15480 
3 15479 15480 
1 13476 15387 
2 15386 15387 
2 15385 15386 
3 6482 6483 
3 6481 6482 
1 6481 9436 
3 9436 9437 
3 9437 9438 
1 1005 14307 
3 9556 9557 
1 9556 21364 
3 9019 9020 
1 9019 9438 
3 21364 21365 
3 21365 21366 
3 3742 3743 
1 3742 21366 
3 9557 9558 
3 7160 7161 
1 1767 7159 
3 7159 7160 
3 16054 16055 
3 16055 16056 
3 3743 3744 
3 2347 2348 
1 666 2347 
1 2349 9153 
3 2348 2349 
1 3705 15271 
3 5743 5744 
3 15271 15272 
3 15272 15273 
3 1747 1748 
3 5749 5750 
3 5750 5751 
3 20587 20588 
3 8029 8030 
1 8029 20589 
3 20588 20589 
3 3671 3672 
1 3672 20802 
3 3670 3671 
1 3670 7153 
3 1748 1749 
3 20801 20802 
3 12157 12158 
3 12158 12159 
3 7153 7154 
2 1661 1662 
1 1662 17778 
2 1660 1661 
2 7540 7541 
1 7540 14743 
3 14743 14744 
2 818 819 
1 819 6483 
2 817 818 
2 4094 4095 
3 665 666 
3 664 665 
2 17198 17199 
2 4093 4094 
1 4093 17199 
2 17197 17198 
3 5789 5790 
3 2116 2117 
1 2116 17197 
1 2118 5790 
3 2117 2118 
3 20800 20801 
3 5788 5789 
3 17776 17777 
3 17777 17778 
3 7220 7221 
3 7219 7220 
2 14684 14685 
2 14683 14684 
2 3677 3678 
2 3676 3677 
2 13289 13290 
2 19942 19943 
2 19943 19944 
2 13288 13289 
3 997 998 
3 2569 2570 
3 20551 20552 
3 8975 8976 
3 20552 20553 
3 8974 8975 
1 8974 20553 
3 695 696 
1 696 7221 
3 3338 3339 
3 694 695 
1 694 3339 
1 11322 14239 
3 11321 11322 
3 16519 16520 
3 692 693 
3 19696 19697 
3 19697 19698 
2 8557 8558 
1 8557 19696 
2 8558 8559 
2 7016 7017 
3 18622 18623 
3 11320 11321 
1 11320 18622 
3 18623 18624 
3 5299 5300 
1 5299 9105 
3 5300 5301 
3 11203 11204 
3 10501 10502 
1 10501 11203 
3 10502 10503 
3 11204 11205 
3 808 809 
3 809 810 
3 21274 21275 
1 1809 21274 
3 466 467 
1 466 21235 
1 999 7015 
2 7015 7016 
3 21275 21276 
3 998 999 
1 468 8127 
3 467 468 
2 5839 5840 
3 2570 2571 
3 17899 17900 
1 16038 16950 
3 8125 8126 
3 8126 8127 
3 16949 16950 
3 16948 16949 
3 18356 18357 
3 4229 4230 
1 4230 8235 
1 1137 4225 
3 18355 18356 
1 2208 8148 
3 9308 9309 
3 2207 2208 
3 2206 2207 
1 2206 3337 
3 1136 1137 
3 1135 1136 
1 1135 9307 
3 9307 9308 
3 3337 3338 
3 11555 11556 
3 18616 18617 
2 12146 12147 
2 12145 12146 
1 12145 18616 
3 8234 8235 
3 18617 18618 
3 691 692 
3 8233 8234 
1 8233 16698 
3 16697 16698 
3 16696 16697 
3 14824 14825 
1 14824 18618 
3 7129 7130 
1 7129 20035 
1 4011 5289 
1 6414 20551 
3 20035 20036 
3 20036 20037 
3 6413 6414 
3 6412 6413 
1 6412 10455 
3 10454 10455 
3 5288 5289 
3 17126 17127 
3 7381 7382 
1 7381 14770 
3 11554 11555 
1 11554 17125 
3 14239 14240 
3 17125 17126 
3 8960 8961 
1 8961 14241 
3 14240 14241 
3 7382 7383 
3 14825 14826 
3 21437 21438 
3 21436 21437 
1 16521 21436 
3 16520 16521 
3 20168 20169 
3 20167 20168 
1 12771 20167 
3 4990 4991 
1 4990 6463 
3 6463 6464 
3 6464 6465 
1 6465 19698 
3 9103 9104 
3 5287 5288 
1 5287 9103 
3 12770 12771 
3 9104 9105 
3 12769 12770 
3 12626 12627 
3 18496 18497 
1 7383 12627 
3 14356 14357 
1 14356 18496 
1 11205 14358 
3 14357 14358 
1 7017 12769 
1 21426 21577 
3 21577 21578 
3 21578 21579 
1 810 21579 
1 10215 11392 
3 5611 5612 
1 5611 14676 
3 10214 10215 
3 11489 11490 
3 11488 11489 
1 11488 13687 
3 13688 13689 
3 13687 13688 
3 5612 5613 
3 1807 1808 
1 1807 10213 
3 10213 10214 
3 1808 1809 
1 5613 17901 
3 21236 21237 
3 8881 8882 
1 8881 21237 
3 839 840 
3 21235 21236 
1 840 8548 
3 8882 8883 
2 15941 15942 
2 5840 5841 
2 15940 15941 
1 5841 15942 
3 2200 2201 
1 2200 15940 
3 16036 16037 
2 5732 5733 
2 5731 5732 
1 5731 14635 
3 16037 16038 
3 4180 4181 
1 4180 16036 
1 4182 19419 
3 17900 17901 
3 14635 14636 
3 4181 4182 
3 2678 2679 
3 8549 8550 
3 8548 8549 
3 2677 2678 
3 11734 11735 
3 20282 20283 
1 6717 8836 
2 8837 8838 
2 8836 8837 
1 3678 8838 
2 7423 7424 
2 6715 6716 
2 14981 14982 
3 20591 20592 
2 6716 6717 
2 20726 20727 
2 20725 20726 
2 355 356 
1 355 7425 
1 357 20590 
3 20590 20591 
2 356 357 
2 7424 7425 
2 4121 4122 
1 4227 16774 
3 16774 16775 
3 16775 16776 
2 14980 14981 
1 14980 16776 
3 4226 4227 
3 10913 10914 
3 10912 10913 
1 10912 18895 
3 18895 18896 
3 18896 18897 
3 16372 16373 
1 18897 20592 
3 5366 5367 
3 5365 5366 
3 10172 10173 
3 1070 1071 
3 1069 1070 
1 1069 16423 
2 16423 16424 
3 21029 21030 
3 1147 1148 
1 1147 3750 
2 16424 16425 
3 10171 10172 
1 10171 21030 
3 21028 21029 
3 12625 12626 
1 10173 12625 
3 148 149 
1 148 7962 
3 1148 1149 
2 4120 4121 
1 4120 21028 
3 8188 8189 
3 149 150 
3 17702 17703 
3 17701 17702 
3 1390 1391 
1 1390 8188 
3 1391 1392 
3 18584 18585 
1 4416 14986 
3 14986 14987 
3 14987 14988 
1 14988 16374 
3 4225 4226 
3 8479 8480 
1 8479 11277 
3 16373 16374 
1 1071 5293 
1 5295 6951 
3 5294 5295 
3 5293 5294 
1 10914 17127 
3 6950 6951 
3 3091 3092 
1 3091 14806 
3 14807 14808 
3 8480 8481 
3 14806 14807 
1 9801 13102 
3 13102 13103 
3 3937 3938 
1 3937 5805 
3 3938 3939 
3 13103 13104 
3 3748 3749 
1 3748 13104 
3 3749 3750 
1 3939 17703 
1 660 13519 
3 8015 8016 
3 4444 4445 
1 4444 18438 
3 4445 4446 
3 17194 17195 
1 14808 17194 
3 17195 17196 
1 4446 8014 
3 8014 8015 
3 13520 13521 
1 13926 17196 
3 13519 13520 
3 11149 11150 
3 7960 7961 
1 7960 11149 
3 8189 8190 
3 4781 4782 
3 4780 4781 
1 4780 8190 
1 4782 20883 
3 7961 7962 
3 11150 11151 
3 19037 19038 
2 1111 1112 
1 13521 14715 
3 13925 13926 
3 14713 14714 
3 14714 14715 
2 1112 1113 
1 1113 13924 
3 13924 13925 
3 14021 14022 
3 14020 14021 
3 16193 16194 
3 16192 16193 
3 2671 2672 
1 2671 16192 
3 2672 2673 
2 4547 4548 
1 1047 19038 
2 1046 1047 
2 1045 1046 
1 1045 18583 
3 18583 18584 
2 12040 12041 
1 12040 13806 
2 12041 12042 
1 4548 9589 
2 9589 9590 
2 9590 9591 
