ITEM: TIMESTEP
25000000
ITEM: NUMBER OF ATOMS
1977
ITEM: BOX BOUNDS pp pp pp
0.0000000000000000e+00 5.0000000000000000e+01
0.0000000000000000e+00 5.0000000000000000e+01
0.0000000000000000e+00 5.0000000000000000e+01
ITEM: ATOMS id type xs ys zs
1614 1 0.495968 0.296793 0.0925565
12230 3 0.505516 0.28356 0.109812
12231 1 0.49786 0.279789 0.110514
1612 1 0.495309 0.309555 0.103645
1613 3 0.49618 0.303388 0.0976173
945 1 0.456497 0.341772 0.122579
6864 1 0.46091 0.37483 0.122279
11721 1 0.507327 0.363653 0.121023
13168 1 0.50732 0.366559 0.121525
21312 1 0.502674 0.263206 0.148193
14925 1 0.484649 0.28599 0.154562
5687 3 0.506376 0.285973 0.134966
1876 1 0.505832 0.282045 0.154601
14370 1 0.439402 0.302073 0.153071
17679 1 0.491573 0.295394 0.148832
17678 2 0.490352 0.302345 0.151535
17677 1 0.489426 0.31041 0.152462
15406 1 0.488841 0.313652 0.153186
7584 1 0.506101 0.313247 0.139367
13527 1 0.506361 0.316099 0.140213
5686 1 0.505527 0.294892 0.13607
7582 1 0.505557 0.297861 0.136101
7583 2 0.504661 0.30516 0.137401
944 2 0.458357 0.34924 0.126454
10521 1 0.50168 0.328197 0.126181
10520 2 0.497421 0.334539 0.125776
10519 1 0.493365 0.342489 0.126897
15408 1 0.48818 0.329812 0.154159
814 1 0.488116 0.333282 0.153706
15883 1 0.491891 0.34496 0.127735
815 2 0.486415 0.341378 0.152892
816 1 0.487782 0.349855 0.153573
13526 2 0.506983 0.323611 0.14187
19185 1 0.507717 0.349037 0.143578
13525 1 0.507809 0.330303 0.143597
1819 1 0.469026 0.358176 0.152291
10831 1 0.451714 0.364575 0.153525
16 1 0.4588 0.3745 0.152184
17 2 0.453127 0.37296 0.14628
18 1 0.44793 0.370011 0.140783
6863 2 0.460605 0.367179 0.126144
6862 1 0.459642 0.359387 0.127224
943 1 0.45943 0.356748 0.127299
1820 2 0.471393 0.359182 0.144416
1821 1 0.474027 0.360629 0.137312
15884 2 0.48829 0.352418 0.129491
8191 1 0.487858 0.352981 0.153556
15885 1 0.486967 0.359489 0.132037
8274 1 0.486789 0.362274 0.132756
8273 2 0.486336 0.369934 0.133342
8272 1 0.48738 0.37787 0.133885
17332 1 0.487723 0.381078 0.134426
3363 1 0.507408 0.36752 0.143719
15844 1 0.507864 0.370862 0.143863
8192 2 0.48914 0.360357 0.154232
3362 2 0.506432 0.360916 0.142439
3361 1 0.507155 0.352364 0.143003
13176 1 0.506188 0.404398 0.149361
16832 2 0.494551 0.406029 0.129864
17333 2 0.488387 0.388027 0.134259
17334 1 0.49099 0.39611 0.133221
16833 1 0.492398 0.399224 0.132573
13175 2 0.507568 0.396947 0.147376
15346 1 0.505929 0.407323 0.150026
9739 1 0.504949 0.233521 0.177192
6972 1 0.504932 0.250555 0.185571
9740 3 0.50616 0.240638 0.180442
10576 1 0.485358 0.249062 0.166921
8428 1 0.485405 0.227386 0.184151
9741 1 0.505428 0.248015 0.184499
14271 1 0.472017 0.280278 0.168603
12713 2 0.447711 0.282101 0.179149
12712 1 0.450503 0.280543 0.173323
21311 2 0.505117 0.26444 0.155104
10577 3 0.48521 0.256036 0.169013
10578 1 0.4866 0.261899 0.172339
7191 1 0.487251 0.264569 0.173892
7190 2 0.487986 0.271829 0.177837
7189 1 0.489194 0.278781 0.182498
14923 1 0.495326 0.274689 0.160652
14924 2 0.48981 0.279767 0.15708
21310 1 0.507199 0.266182 0.161318
17574 1 0.489047 0.281544 0.183578
20919 1 0.507625 0.267442 0.163262
14369 2 0.442372 0.302289 0.16049
14368 1 0.444441 0.304332 0.167776
11905 1 0.445214 0.305218 0.170249
14270 2 0.470805 0.288506 0.167753
14269 1 0.46964 0.29483 0.166228
17062 1 0.468951 0.297965 0.165787
17063 2 0.468386 0.30622 0.16435
14534 2 0.468836 0.298559 0.184589
11906 2 0.447784 0.308335 0.177247
14535 1 0.469068 0.307303 0.183718
2278 1 0.469562 0.310699 0.183445
17064 1 0.467445 0.313712 0.163842
57 1 0.467153 0.316295 0.163427
2279 2 0.469163 0.318347 0.183967
11907 1 0.448933 0.311078 0.184747
14854 1 0.4989 0.307947 0.172645
14855 2 0.492453 0.312623 0.173568
14102 2 0.507218 0.304593 0.185002
16376 2 0.443985 0.338951 0.157364
16377 1 0.441733 0.331342 0.157439
19812 1 0.443402 0.339626 0.176194
5410 1 0.443267 0.342324 0.175642
16375 1 0.446059 0.346603 0.157986
10833 1 0.446956 0.349206 0.157926
19810 1 0.446198 0.32414 0.17956
19811 2 0.444745 0.331699 0.177669
56 2 0.467385 0.324779 0.161728
55 1 0.467078 0.333161 0.160321
13539 1 0.466888 0.336353 0.159978
13538 2 0.467927 0.343215 0.160883
2280 1 0.468076 0.326307 0.184469
15099 1 0.467877 0.329547 0.184934
15098 2 0.467154 0.337585 0.184905
12962 2 0.506818 0.325357 0.164919
12963 1 0.507871 0.318704 0.162407
15407 2 0.488339 0.321333 0.1549
5722 1 0.505758 0.335244 0.168198
14856 1 0.488504 0.32052 0.173559
17881 1 0.487163 0.323498 0.173998
17882 2 0.485824 0.331423 0.174684
17883 1 0.485367 0.339311 0.177971
939 1 0.485224 0.34269 0.17857
938 2 0.484458 0.349672 0.179031
5723 2 0.504488 0.343436 0.169226
12961 1 0.506157 0.332422 0.167141
13647 1 0.421175 0.353358 0.171937
13645 1 0.421608 0.370856 0.176063
13646 2 0.421752 0.362577 0.175199
20488 1 0.421414 0.373817 0.176374
20489 2 0.420788 0.382033 0.176807
5411 2 0.443554 0.3507 0.175657
5412 1 0.443238 0.358493 0.174856
6295 1 0.443568 0.361378 0.174908
6296 2 0.444229 0.36895 0.175261
5670 1 0.424034 0.352988 0.184691
10832 2 0.448269 0.357195 0.156319
13537 1 0.467287 0.351159 0.162129
6727 1 0.468041 0.354299 0.162421
6728 2 0.468979 0.361674 0.164731
6297 1 0.444799 0.376669 0.17548
6729 1 0.467481 0.370348 0.166138
5502 1 0.467038 0.373655 0.166361
5501 2 0.465361 0.38069 0.165472
13512 1 0.445071 0.378943 0.175475
5724 1 0.503398 0.351237 0.16958
9268 1 0.502652 0.371538 0.170232
10948 1 0.502661 0.374649 0.17054
937 1 0.4853 0.357884 0.179925
11023 1 0.485276 0.360663 0.180006
8193 1 0.488593 0.367706 0.156499
11024 2 0.486045 0.367604 0.179801
11025 1 0.485438 0.375103 0.180017
5164 1 0.485317 0.377921 0.179859
16699 1 0.488419 0.370146 0.157171
16700 2 0.487339 0.377499 0.157807
9269 2 0.50403 0.362836 0.169958
10949 2 0.502598 0.381948 0.173572
9270 1 0.503056 0.354489 0.170024
20490 1 0.422476 0.389942 0.177473
13507 1 0.446319 0.398533 0.173745
13510 1 0.446674 0.395249 0.174036
13508 2 0.446338 0.405969 0.174887
2341 1 0.467696 0.41065 0.167788
5500 1 0.46587 0.388381 0.165196
13511 2 0.446483 0.386569 0.173997
12544 1 0.466581 0.391923 0.165264
12545 2 0.468026 0.399751 0.166757
12546 1 0.467986 0.407958 0.167645
1966 1 0.502861 0.410825 0.179334
12920 2 0.486697 0.413395 0.164463
12919 1 0.487184 0.405651 0.161875
16701 1 0.486866 0.385054 0.158986
2736 1 0.486913 0.387885 0.159371
2735 2 0.487241 0.394692 0.160846
3296 2 0.483495 0.405582 0.182821
5165 2 0.484178 0.386184 0.180987
5166 1 0.484702 0.394263 0.181728
3295 1 0.484262 0.397742 0.181894
18397 1 0.502988 0.407838 0.178836
2734 1 0.487471 0.40285 0.161201
18399 1 0.50205 0.392534 0.175948
10950 1 0.501845 0.389226 0.175581
18398 2 0.50385 0.400607 0.177955
3297 1 0.48263 0.412804 0.183722
11590 1 0.453899 0.188316 0.216499
11591 2 0.452402 0.196643 0.213662
11592 1 0.452056 0.203723 0.213043
2275 1 0.451748 0.206774 0.212441
2276 2 0.45135 0.214571 0.211868
2277 1 0.451819 0.221871 0.211115
15312 1 0.452191 0.225473 0.211235
15311 3 0.45299 0.233313 0.211585
15310 1 0.454157 0.242187 0.211155
4401 1 0.453983 0.246067 0.211277
4400 2 0.453796 0.253919 0.211544
8429 3 0.484835 0.234894 0.187197
8430 1 0.484096 0.241464 0.190197
15183 1 0.484365 0.244576 0.191404
15182 2 0.484587 0.252641 0.194536
6313 1 0.478006 0.228727 0.214466
12714 1 0.443992 0.284143 0.185832
7529 2 0.467143 0.281415 0.190903
7530 1 0.465482 0.273705 0.193207
4399 1 0.453438 0.261788 0.213228
3417 1 0.453148 0.26515 0.213553
3416 3 0.452374 0.273057 0.211845
3415 1 0.450105 0.28119 0.211687
14724 1 0.449536 0.283548 0.211189
6971 2 0.504518 0.258665 0.187297
6970 1 0.50478 0.266103 0.190554
4115 2 0.50405 0.275307 0.195921
15181 1 0.484806 0.25945 0.197198
770 2 0.484254 0.269446 0.200127
13555 1 0.481863 0.280354 0.204077
771 1 0.483171 0.277709 0.20281
769 1 0.484846 0.262434 0.197826
931 1 0.502303 0.285545 0.200421
4114 1 0.50256 0.282735 0.199456
4116 1 0.504729 0.268729 0.191823
10465 1 0.425988 0.297583 0.188922
10467 1 0.429982 0.312319 0.197564
10466 2 0.428031 0.305203 0.193563
7528 1 0.468508 0.287964 0.18813
14533 1 0.468692 0.291011 0.186723
14723 2 0.448039 0.291229 0.208284
3870 1 0.474474 0.296057 0.206524
14722 1 0.448087 0.297954 0.204678
20082 1 0.448784 0.300549 0.203797
20081 2 0.44915 0.308085 0.200872
20080 1 0.448761 0.315573 0.1996
3869 2 0.470442 0.302833 0.205656
3868 1 0.469142 0.310412 0.20648
21265 1 0.468672 0.313367 0.206359
13557 1 0.475919 0.292588 0.206775
8435 2 0.502715 0.311076 0.206314
13556 2 0.479291 0.286885 0.206434
17573 2 0.487781 0.288928 0.186691
17572 1 0.48769 0.296251 0.189887
9465 1 0.487463 0.299348 0.191524
9464 2 0.485988 0.306851 0.193223
9463 1 0.486369 0.314954 0.195127
16638 1 0.485985 0.318383 0.195314
933 1 0.503589 0.299769 0.203758
8436 1 0.502981 0.317885 0.208687
8434 1 0.503443 0.303044 0.204281
932 2 0.50281 0.292561 0.201862
3943 1 0.424116 0.340319 0.21617
3944 2 0.424714 0.342607 0.208201
5669 2 0.42493 0.349809 0.191766
5668 1 0.425151 0.346467 0.197966
3945 1 0.425079 0.345524 0.200866
21266 2 0.466627 0.321435 0.206538
9751 1 0.448619 0.318465 0.199395
15097 1 0.464684 0.345336 0.186464
946 1 0.464501 0.348339 0.186802
9752 2 0.447896 0.326266 0.197989
7325 2 0.446525 0.344983 0.197561
21267 1 0.464106 0.330106 0.206015
7326 1 0.448358 0.33686 0.198241
9753 1 0.448319 0.334097 0.198511
20985 1 0.463874 0.332785 0.205565
20984 2 0.463059 0.340237 0.205906
20983 1 0.462478 0.347394 0.206544
20617 1 0.462346 0.349779 0.206759
15489 1 0.503256 0.320841 0.209018
16810 1 0.505709 0.333673 0.190107
15488 2 0.503592 0.329072 0.209681
4716 1 0.502545 0.339646 0.209429
4715 2 0.501607 0.347299 0.211465
16637 2 0.485739 0.326651 0.195848
16636 1 0.485162 0.333338 0.197711
18718 1 0.484773 0.336591 0.198803
18719 2 0.483427 0.343534 0.202044
16812 1 0.503476 0.349223 0.190584
15487 1 0.50305 0.33676 0.209249
16811 2 0.503854 0.341333 0.190073
13115 2 0.50581 0.32235 0.188712
13114 1 0.505616 0.330311 0.18998
11791 1 0.435003 0.382001 0.213017
11792 2 0.436755 0.37496 0.214202
7049 2 0.440468 0.381275 0.195224
11793 1 0.438671 0.367026 0.216358
17946 1 0.443663 0.356342 0.197725
7050 1 0.441145 0.373262 0.197282
17944 1 0.441365 0.370251 0.197689
17945 2 0.44165 0.363133 0.198098
948 1 0.46379 0.363767 0.187359
7324 1 0.444617 0.353054 0.19772
947 2 0.463857 0.356522 0.188146
16491 1 0.463371 0.36626 0.187487
20618 2 0.461282 0.357229 0.208577
20619 1 0.45983 0.366198 0.209313
229 1 0.459508 0.369432 0.209495
230 2 0.459063 0.377164 0.208273
16490 2 0.463318 0.373914 0.187203
16489 1 0.464245 0.38181 0.187127
4714 1 0.501266 0.354906 0.211683
13321 1 0.502943 0.352265 0.190707
15429 1 0.500981 0.3575 0.211576
18720 1 0.483019 0.351456 0.202337
10389 1 0.482746 0.354711 0.202466
13322 2 0.502244 0.360126 0.190999
15428 2 0.499566 0.364503 0.211545
13323 1 0.50191 0.368349 0.191767
16980 1 0.501595 0.371144 0.192609
10388 2 0.481738 0.363546 0.20168
10387 1 0.48142 0.370649 0.201959
15760 1 0.481052 0.374147 0.20125
16979 2 0.502123 0.378794 0.195756
15427 1 0.498515 0.372282 0.212295
17620 1 0.498066 0.374795 0.212741
7053 1 0.412519 0.387171 0.193097
54 1 0.436128 0.411882 0.195599
7052 2 0.418617 0.385173 0.199065
14391 1 0.434315 0.385121 0.212701
5478 1 0.43699 0.40854 0.194808
5477 2 0.437924 0.399905 0.19368
5476 1 0.438478 0.391813 0.193379
14390 2 0.433733 0.393189 0.212721
7048 1 0.439107 0.388937 0.193915
14389 1 0.434239 0.400401 0.213922
85 1 0.433675 0.403271 0.214377
7051 1 0.423733 0.38282 0.204429
6584 2 0.455393 0.41265 0.207969
231 1 0.456852 0.385097 0.208248
12885 1 0.456222 0.387669 0.207784
1752 1 0.465844 0.400172 0.188487
12884 2 0.454362 0.394786 0.206816
1750 1 0.46463 0.384388 0.187287
12883 1 0.453699 0.401805 0.207095
6585 1 0.453394 0.404652 0.206845
1751 2 0.466198 0.392307 0.187977
18423 1 0.465568 0.403305 0.188618
18422 2 0.464138 0.411252 0.190139
20563 1 0.47805 0.411797 0.205391
11978 2 0.498793 0.413739 0.200508
17621 2 0.497573 0.382096 0.215213
17000 2 0.476714 0.401338 0.204314
15761 2 0.479289 0.382145 0.201283
17001 1 0.477622 0.408224 0.20517
16978 1 0.501877 0.386216 0.197894
18361 1 0.501878 0.388834 0.198101
11977 1 0.498546 0.406779 0.200235
15762 1 0.477084 0.389269 0.202314
16999 1 0.47671 0.392785 0.202473
18362 2 0.501249 0.39561 0.198808
18363 1 0.499032 0.403756 0.199655
9927 1 0.495537 0.253018 0.231307
9925 1 0.491019 0.23984 0.223077
9926 3 0.494662 0.246362 0.22834
6315 1 0.488977 0.237118 0.22125
6314 2 0.483881 0.231829 0.217879
15298 1 0.442348 0.258747 0.223996
15299 2 0.440654 0.266508 0.227284
12428 3 0.442388 0.283373 0.236395
15300 1 0.441358 0.273409 0.231683
12429 1 0.441805 0.276329 0.232908
13380 1 0.467831 0.277898 0.226009
8332 1 0.46766 0.28075 0.22548
13379 3 0.470149 0.270136 0.227906
13378 1 0.472803 0.262637 0.230072
18235 1 0.495422 0.256069 0.232524
18236 3 0.493415 0.26392 0.235341
7727 2 0.490987 0.281293 0.239577
18237 1 0.492398 0.271797 0.236511
7726 1 0.492115 0.274236 0.237021
14128 1 0.43551 0.292904 0.221779
12808 1 0.440375 0.310883 0.222046
14129 2 0.437248 0.301113 0.222261
14130 1 0.439612 0.308349 0.222202
8333 2 0.467055 0.288109 0.225919
8334 1 0.467093 0.295691 0.226392
19351 1 0.466958 0.298747 0.226716
19352 2 0.466612 0.306756 0.227498
19353 1 0.464879 0.314537 0.227221
21507 1 0.464141 0.317394 0.227733
12427 1 0.445064 0.28929 0.23971
19786 1 0.505274 0.312552 0.229457
19787 2 0.505521 0.305425 0.226621
19788 1 0.506282 0.29683 0.225129
15259 1 0.50466 0.315727 0.230078
2315 2 0.506744 0.286777 0.222995
7510 1 0.48829 0.288772 0.224687
7511 2 0.487067 0.29642 0.22226
7512 1 0.485706 0.303587 0.220962
10830 1 0.485424 0.306395 0.220426
2316 1 0.506537 0.294118 0.22437
10829 2 0.484368 0.314961 0.219453
7728 1 0.48973 0.28939 0.241253
5655 1 0.489469 0.292885 0.241636
5654 2 0.489455 0.300453 0.241539
5653 1 0.487614 0.308075 0.241512
270 1 0.486845 0.311139 0.241715
2268 1 0.440946 0.348263 0.219725
622 1 0.441046 0.345405 0.219924
623 2 0.44225 0.337654 0.218335
12809 2 0.441802 0.319176 0.222121
12810 1 0.442841 0.327344 0.220096
624 1 0.442599 0.329912 0.219277
11052 1 0.422893 0.328933 0.236768
11051 2 0.427368 0.335585 0.237431
11050 1 0.432835 0.341198 0.23812
9789 1 0.434626 0.343157 0.238475
9788 2 0.439716 0.349695 0.240904
15153 1 0.448004 0.327506 0.243916
21506 2 0.461374 0.324905 0.228377
21505 1 0.459608 0.333414 0.228948
8152 1 0.458788 0.337006 0.22966
8153 2 0.457892 0.344823 0.229545
269 2 0.484004 0.318461 0.240163
20562 1 0.479328 0.347788 0.242781
10828 1 0.480878 0.322926 0.220556
10564 1 0.480031 0.325746 0.220973
10565 2 0.478684 0.333247 0.222423
15260 2 0.502628 0.322476 0.230947
268 1 0.483085 0.326835 0.24079
10566 1 0.478764 0.340791 0.22302
6357 1 0.478474 0.343678 0.223441
15783 1 0.482792 0.329716 0.241245
15261 1 0.502113 0.330274 0.231063
15782 2 0.481199 0.33752 0.241644
15781 1 0.479894 0.345026 0.242517
11485 1 0.502145 0.332964 0.231354
11486 2 0.503021 0.340834 0.231994
11487 1 0.501899 0.348539 0.232583
2267 2 0.439365 0.35594 0.218723
2266 1 0.438899 0.364239 0.217491
9787 1 0.446571 0.356034 0.242467
8154 1 0.456863 0.352432 0.229266
13653 1 0.456537 0.355463 0.229118
13652 2 0.456019 0.363613 0.229562
13651 1 0.456268 0.371028 0.229222
18589 1 0.455556 0.374267 0.228957
18590 2 0.454082 0.381763 0.229195
9466 1 0.471929 0.380717 0.244226
9467 2 0.473533 0.373189 0.245612
20560 1 0.475152 0.363386 0.243973
9468 1 0.474686 0.366201 0.244446
21216 1 0.449416 0.377458 0.242987
6356 2 0.478366 0.350441 0.222189
18681 1 0.501218 0.351142 0.232811
20561 2 0.477556 0.355205 0.243218
9811 1 0.480943 0.377386 0.221615
3168 1 0.480823 0.379973 0.221231
6355 1 0.478178 0.3577 0.222387
9813 1 0.478711 0.360641 0.222401
9812 2 0.480126 0.369119 0.222236
18680 2 0.49985 0.359456 0.233312
18679 1 0.496318 0.366725 0.233592
12859 1 0.495362 0.369085 0.23419
12860 2 0.494028 0.376581 0.237418
86 2 0.431968 0.410388 0.217386
1488 1 0.440379 0.398098 0.244969
11842 1 0.47122 0.412887 0.225629
16082 2 0.464232 0.41083 0.246771
11013 1 0.471419 0.38409 0.24424
18591 1 0.452624 0.390429 0.228743
9244 1 0.452447 0.393308 0.229
9245 2 0.450003 0.400596 0.231126
9246 1 0.44796 0.407875 0.233943
20677 1 0.447443 0.410527 0.234798
11844 1 0.474655 0.398052 0.223824
11843 2 0.472428 0.405416 0.224934
3166 1 0.475264 0.39479 0.223235
11012 2 0.470212 0.39218 0.243701
11011 1 0.467011 0.399257 0.244971
16081 1 0.466165 0.40165 0.24522
17622 1 0.496937 0.388649 0.217634
3167 2 0.478105 0.38689 0.221935
12861 1 0.492579 0.384056 0.239311
13389 1 0.496092 0.391523 0.218202
13388 2 0.495578 0.399661 0.22085
13387 1 0.493941 0.407736 0.222611
5428 1 0.49299 0.41052 0.223129
1222 1 0.492057 0.387088 0.239897
1223 2 0.491805 0.395146 0.240444
21379 1 0.490145 0.406705 0.243148
1224 1 0.49076 0.403235 0.242286
15668 3 0.482811 0.26623 0.255121
15667 1 0.484633 0.274163 0.251526
15669 1 0.478768 0.260655 0.260465
18313 1 0.459656 0.315867 0.260956
18314 2 0.466249 0.314354 0.255891
18315 1 0.472083 0.311604 0.251528
900 1 0.506804 0.294257 0.268466
899 2 0.503321 0.301802 0.268963
2833 1 0.507403 0.304966 0.249313
7831 1 0.507422 0.291075 0.268898
3262 1 0.502121 0.313042 0.269892
2834 2 0.505988 0.312964 0.24984
12098 2 0.48623 0.314354 0.262568
12097 1 0.487121 0.307808 0.266918
898 1 0.50249 0.310248 0.269368
14719 1 0.425543 0.330417 0.264485
14720 2 0.430641 0.327326 0.258323
14721 1 0.432885 0.323806 0.251598
15152 2 0.452792 0.33132 0.24775
15151 1 0.458312 0.335583 0.252023
7504 1 0.460602 0.337041 0.253541
7506 1 0.469337 0.346613 0.260996
7505 2 0.46589 0.342379 0.255726
5440 1 0.47063 0.348286 0.26346
12099 1 0.483317 0.319444 0.257639
2835 1 0.50443 0.320005 0.250676
3263 2 0.501206 0.320646 0.271962
17338 1 0.503704 0.323122 0.251243
3264 1 0.499546 0.328376 0.272717
9243 1 0.498871 0.331198 0.27308
17339 2 0.502686 0.330772 0.252584
17340 1 0.50148 0.339044 0.254075
3628 1 0.500379 0.342104 0.254619
3629 2 0.498812 0.349631 0.255434
9242 2 0.497353 0.339123 0.273347
9241 1 0.49675 0.34652 0.273486
20868 1 0.496341 0.349292 0.273638
13018 1 0.428603 0.37062 0.269669
13019 2 0.436626 0.369262 0.269024
13020 1 0.443063 0.365127 0.269669
5441 2 0.474813 0.351039 0.269026
5851 1 0.445836 0.363827 0.269279
5853 1 0.459091 0.355806 0.263564
21214 1 0.457021 0.38197 0.256388
5852 2 0.452899 0.360122 0.267082
21215 2 0.452842 0.378103 0.250393
5442 1 0.477671 0.355773 0.27549
8415 1 0.506532 0.380586 0.270508
20867 2 0.495707 0.357234 0.273922
3630 1 0.49697 0.357444 0.257058
7611 1 0.495766 0.360262 0.257278
7610 2 0.491382 0.367879 0.256514
7609 1 0.488338 0.375914 0.25594
2601 1 0.487665 0.37839 0.256397
20866 1 0.492189 0.365266 0.27528
19018 1 0.491528 0.367685 0.276239
1486 1 0.428126 0.394442 0.255771
1487 2 0.433983 0.396518 0.250529
19733 2 0.46502 0.386818 0.263542
19734 1 0.459088 0.383631 0.258808
19732 1 0.471751 0.39061 0.266592
745 1 0.478059 0.413619 0.262922
15343 1 0.505233 0.383767 0.270666
2600 2 0.48457 0.385543 0.258189
1649 2 0.507132 0.401427 0.253911
18658 1 0.503128 0.411487 0.259024
15344 2 0.503464 0.39103 0.271712
10967 2 0.478145 0.402827 0.262225
10966 1 0.480623 0.395945 0.259618
2599 1 0.481892 0.393008 0.258998
10968 1 0.477814 0.410306 0.262123
1648 1 0.503981 0.409001 0.258057
15345 1 0.501399 0.397731 0.273713
14640 1 0.50031 0.400312 0.274319
14639 3 0.496839 0.407521 0.277952
3485 2 0.494113 0.347334 0.302932
3486 1 0.488248 0.342284 0.301879
20990 2 0.469345 0.37386 0.288605
20991 1 0.473529 0.366345 0.288315
9274 1 0.475199 0.364114 0.288926
20989 1 0.464899 0.378995 0.291946
10687 1 0.46342 0.381322 0.2932
19019 2 0.489331 0.373394 0.279887
19020 1 0.487097 0.380896 0.281839
3484 1 0.500928 0.352106 0.303571
18266 2 0.507395 0.368075 0.291224
9275 2 0.479734 0.358245 0.291463
9276 1 0.483906 0.351705 0.292792
18267 1 0.504673 0.375099 0.293588
21406 1 0.503426 0.377268 0.294147
10688 3 0.458759 0.38702 0.2968
10689 1 0.455069 0.392365 0.301916
7400 2 0.473206 0.407542 0.285882
16726 1 0.486296 0.383962 0.281969
14638 1 0.493869 0.413554 0.282593
7399 1 0.477951 0.401606 0.283111
16728 1 0.479432 0.398921 0.282461
21407 2 0.498456 0.383762 0.297175
16727 2 0.483775 0.391807 0.282158
21408 1 0.493927 0.388883 0.300647
14606 3 0.500064 0.424961 0.124895
14605 1 0.50201 0.432249 0.124744
18939 1 0.502193 0.435489 0.124809
18938 2 0.501015 0.443523 0.125652
14607 1 0.497222 0.417537 0.126732
15347 2 0.5049 0.415045 0.151052
14056 1 0.505753 0.424177 0.1547
16831 1 0.496454 0.414501 0.127849
15348 1 0.505723 0.421659 0.153948
20144 2 0.48225 0.467595 0.150278
20143 1 0.479988 0.471063 0.14405
18937 1 0.49947 0.450689 0.128216
11305 1 0.499434 0.4539 0.12919
11307 1 0.498108 0.468211 0.135694
11306 2 0.499708 0.461339 0.131878
19791 1 0.443734 0.432178 0.177312
4911 1 0.443023 0.434944 0.17766
4910 2 0.442447 0.442575 0.179803
13509 1 0.44548 0.414085 0.175517
19790 2 0.444748 0.424383 0.176948
19789 1 0.445338 0.416958 0.176182
4235 2 0.463759 0.437264 0.171616
4236 1 0.464684 0.429382 0.171888
2343 1 0.464858 0.426753 0.171395
2342 2 0.465789 0.41961 0.168524
14172 1 0.481995 0.415903 0.183726
16720 1 0.485449 0.423864 0.165576
12921 1 0.485579 0.420609 0.165333
16721 2 0.485702 0.432006 0.165229
16722 1 0.487128 0.440093 0.16503
14343 1 0.499387 0.429797 0.179993
14342 2 0.498202 0.437669 0.181283
1968 1 0.499309 0.426996 0.180085
1967 2 0.500411 0.418352 0.179163
19629 1 0.486995 0.442528 0.164122
14171 2 0.481553 0.424419 0.18497
21261 1 0.506291 0.442267 0.159292
14058 1 0.506037 0.439253 0.158347
14057 2 0.506197 0.431889 0.156935
4909 1 0.441934 0.449476 0.183905
4234 1 0.462982 0.445052 0.171669
15949 1 0.463023 0.448386 0.172042
15950 2 0.463089 0.456048 0.17276
15951 1 0.464563 0.463408 0.17389
2841 1 0.464719 0.466366 0.174149
2840 2 0.464586 0.474248 0.176646
20145 1 0.485071 0.467555 0.158316
21260 2 0.507128 0.450121 0.160281
14341 1 0.496745 0.445698 0.182359
19627 1 0.482973 0.455933 0.156028
15495 1 0.486441 0.467506 0.161048
15493 1 0.490268 0.468929 0.176044
15494 2 0.488737 0.468392 0.169053
18864 1 0.496303 0.448389 0.183076
19628 2 0.485176 0.449954 0.161049
21259 1 0.50717 0.458776 0.159109
2839 1 0.464078 0.481888 0.177071
13201 1 0.499783 0.486944 0.170761
10188 1 0.486705 0.493683 0.158591
10187 2 0.492303 0.491309 0.164145
10186 1 0.497364 0.488442 0.169249
13202 3 0.505159 0.483385 0.172609
4928 2 0.500257 0.509704 0.183008
4927 1 0.503633 0.517734 0.179844
9367 1 0.431778 0.430298 0.198811
9368 2 0.430008 0.438109 0.200384
52 1 0.432292 0.427795 0.198461
53 2 0.434446 0.419608 0.196073
9369 1 0.425546 0.444656 0.200268
3880 1 0.434246 0.436635 0.213771
18421 1 0.462353 0.419199 0.190732
17546 2 0.45461 0.431308 0.213001
1812 1 0.461543 0.421927 0.190944
1811 2 0.458117 0.428674 0.19163
1810 1 0.456009 0.435963 0.191666
17547 1 0.455835 0.424024 0.210856
3522 1 0.455547 0.43906 0.191993
6583 1 0.455867 0.420678 0.210068
14354 2 0.475094 0.43699 0.209622
17545 1 0.451736 0.43954 0.215671
16687 1 0.451436 0.442074 0.216044
14353 1 0.474169 0.44476 0.212228
14355 1 0.476354 0.430064 0.206734
20564 2 0.477391 0.419468 0.206756
20565 1 0.47709 0.427125 0.206334
14170 1 0.479527 0.432304 0.186586
10137 1 0.478801 0.434784 0.187313
10136 2 0.477427 0.443037 0.187673
11979 1 0.498209 0.422285 0.202167
17076 1 0.493262 0.440163 0.204394
17075 2 0.495246 0.432194 0.203941
17074 1 0.497333 0.424603 0.202216
4497 1 0.492034 0.442914 0.203759
4989 1 0.412324 0.457121 0.193935
4987 1 0.42363 0.446857 0.19942
4988 2 0.417908 0.45117 0.196388
3521 2 0.45513 0.447114 0.194588
3520 1 0.45686 0.454237 0.198359
12369 1 0.473411 0.448347 0.213378
16688 2 0.45074 0.450547 0.216751
12368 2 0.472739 0.456098 0.216129
16689 1 0.448233 0.459064 0.215027
70 1 0.470694 0.464545 0.196385
71 2 0.475161 0.459078 0.192914
19213 1 0.469413 0.466762 0.197765
19214 2 0.467279 0.473191 0.201742
18863 2 0.495029 0.4559 0.186068
11860 1 0.493179 0.466165 0.188123
18862 1 0.493261 0.463442 0.187802
11861 2 0.492418 0.473628 0.188164
4496 2 0.491001 0.450625 0.205465
10135 1 0.477239 0.450059 0.189346
72 1 0.476701 0.45293 0.189727
4495 1 0.489238 0.457893 0.207297
19684 1 0.488721 0.4606 0.207734
19685 2 0.48708 0.469157 0.208861
19215 1 0.463687 0.480795 0.203235
11862 1 0.492899 0.481933 0.18924
10695 1 0.493279 0.484857 0.189223
10694 3 0.49612 0.492133 0.189865
4929 1 0.498565 0.502615 0.186396
10693 1 0.497761 0.499845 0.187211
19686 1 0.48535 0.476437 0.208858
2523 1 0.485311 0.478714 0.20865
2522 2 0.485367 0.48653 0.206696
2521 1 0.484053 0.495407 0.205221
3400 1 0.483724 0.498626 0.205037
3401 3 0.483223 0.506148 0.203889
16612 1 0.486373 0.533563 0.200395
16613 3 0.485106 0.525894 0.201393
16614 1 0.482976 0.516989 0.20183
3402 1 0.482199 0.513664 0.202423
87 1 0.429717 0.418147 0.218178
3882 1 0.434892 0.434568 0.22978
3881 2 0.434362 0.435829 0.222255
20678 2 0.446218 0.417875 0.236898
20679 1 0.445403 0.42606 0.237245
7825 1 0.466207 0.432577 0.229591
19292 2 0.463583 0.442958 0.232155
19291 1 0.465384 0.435476 0.230228
7826 2 0.46768 0.424075 0.22754
7827 1 0.470639 0.415816 0.226086
17364 1 0.488121 0.428017 0.225271
17362 1 0.487727 0.443914 0.225593
17363 2 0.488066 0.436234 0.225546
5430 1 0.488451 0.425581 0.225181
5429 2 0.490163 0.418114 0.223659
10721 2 0.505239 0.428235 0.238121
637 1 0.506055 0.417436 0.234804
21381 1 0.487219 0.421899 0.245806
5994 1 0.487071 0.424965 0.246438
21380 2 0.488207 0.41423 0.244522
1103 2 0.506894 0.442692 0.219224
18327 1 0.503504 0.43986 0.240718
10720 1 0.505653 0.420318 0.235532
10722 1 0.504126 0.436502 0.240085
12367 1 0.473401 0.462974 0.220371
19293 1 0.459079 0.449669 0.230038
13309 1 0.507489 0.454752 0.220049
18325 1 0.500998 0.455347 0.243827
9900 1 0.48751 0.447284 0.225804
9899 2 0.488512 0.455543 0.226719
9898 1 0.490092 0.463075 0.227935
16099 1 0.49038 0.465377 0.228459
16100 2 0.491152 0.473698 0.229564
1104 1 0.506887 0.451256 0.219747
18326 2 0.501941 0.446896 0.241748
13310 2 0.507388 0.46268 0.219452
1818 1 0.500207 0.498815 0.235118
16101 1 0.493617 0.481574 0.230627
1816 1 0.494555 0.483652 0.23132
1817 3 0.49789 0.490729 0.234082
17021 2 0.459017 0.428817 0.253556
17020 1 0.455983 0.434971 0.258782
16083 1 0.462451 0.418038 0.249139
17022 1 0.461658 0.42119 0.250358
5993 2 0.48539 0.432417 0.248425
12822 1 0.480383 0.442205 0.250442
746 2 0.47813 0.42077 0.264942
5992 1 0.48176 0.439503 0.250188
747 1 0.476823 0.429049 0.267407
18660 1 0.498792 0.426923 0.263945
19009 1 0.49733 0.429925 0.264713
19010 2 0.495194 0.43747 0.265994
19011 1 0.493121 0.444243 0.268517
18659 2 0.501328 0.419138 0.261609
12820 1 0.474483 0.455676 0.255095
19475 3 0.474683 0.4674 0.27505
19476 1 0.468213 0.46303 0.273303
21331 1 0.492026 0.44727 0.269755
12821 3 0.477671 0.449454 0.251894
21332 3 0.491154 0.45495 0.272355
21333 1 0.489353 0.46298 0.275676
20979 1 0.501004 0.471235 0.257106
19474 1 0.480462 0.472199 0.277141
18471 1 0.482606 0.474567 0.277915
6721 1 0.49857 0.47295 0.256824
20978 3 0.507186 0.466059 0.256802
6723 1 0.48627 0.482448 0.258061
18470 3 0.487375 0.480546 0.278162
18469 1 0.488868 0.488607 0.276262
6722 3 0.492547 0.478146 0.257227
7401 1 0.46824 0.414225 0.289266
3759 1 0.492744 0.41511 0.283984
12265 1 0.477217 0.430321 0.291401
3757 1 0.487127 0.425554 0.294603
3758 2 0.489145 0.420093 0.288786
12267 1 0.47654 0.444739 0.294039
12266 2 0.47687 0.437845 0.293876
13602 1 0.477161 0.447611 0.293509
13601 3 0.47858 0.456101 0.292676
13600 1 0.480303 0.464391 0.292682
14778 1 0.546038 0.284708 0.101307
14777 3 0.54437 0.291907 0.101912
14776 1 0.544242 0.299867 0.102331
19578 1 0.54392 0.302376 0.1035
5189 2 0.564311 0.320593 0.102829
5190 1 0.55821 0.315118 0.103412
10084 1 0.526314 0.324588 0.0948424
5911 1 0.525314 0.324576 0.0763113
5912 3 0.526593 0.324036 0.0839788
5913 1 0.526599 0.324888 0.091954
10085 2 0.525923 0.322643 0.102506
3958 1 0.533418 0.353349 0.10222
5188 1 0.569727 0.326366 0.101227
2173 1 0.523451 0.389508 0.0806429
10624 1 0.520152 0.401911 0.0934732
10625 2 0.519978 0.409508 0.0974132
10626 1 0.519378 0.416555 0.101663
2175 1 0.520323 0.400227 0.0915838
2174 3 0.522442 0.395975 0.085441
19869 1 0.536016 0.24024 0.136058
12229 1 0.513013 0.288048 0.108754
5688 1 0.510445 0.278764 0.136419
10216 1 0.527057 0.261598 0.124496
10217 3 0.528748 0.268607 0.12777
10218 1 0.530177 0.276421 0.130951
16315 1 0.527799 0.285472 0.114887
7377 1 0.529668 0.27935 0.132585
7376 3 0.528871 0.284801 0.137158
6848 3 0.549091 0.287859 0.121854
6847 1 0.546283 0.283244 0.117323
15235 1 0.546305 0.266969 0.134548
16316 3 0.525389 0.293945 0.115322
16317 1 0.526019 0.300885 0.11973
12282 1 0.526575 0.30405 0.121916
12281 2 0.528662 0.311204 0.125863
12280 1 0.531144 0.317284 0.130455
3039 1 0.532465 0.319812 0.132113
10086 1 0.526812 0.321249 0.11109
6849 1 0.549323 0.294867 0.125786
16647 1 0.549237 0.296966 0.127404
19576 1 0.544066 0.317402 0.109911
6996 1 0.544051 0.321006 0.11129
19577 2 0.543358 0.310575 0.107154
16646 2 0.548722 0.303877 0.132047
16645 1 0.54995 0.310984 0.137414
6804 1 0.557577 0.31194 0.123025
6803 2 0.559543 0.318536 0.126884
9404 2 0.5819 0.31905 0.116349
9405 1 0.58455 0.312611 0.113827
20711 2 0.572722 0.308461 0.138325
20710 1 0.575594 0.31675 0.137317
12192 1 0.57676 0.31991 0.137386
3959 2 0.526289 0.349979 0.10455
15451 1 0.520646 0.326349 0.123112
15453 1 0.52047 0.341373 0.127916
15452 2 0.519339 0.334386 0.126251
952 1 0.521475 0.344223 0.128591
953 2 0.523864 0.351383 0.130928
3038 2 0.536196 0.325834 0.135602
3960 1 0.518931 0.347374 0.106612
11719 1 0.51142 0.350611 0.111813
6995 2 0.542469 0.326709 0.115047
6994 1 0.54027 0.334524 0.118443
159 1 0.539685 0.337387 0.119345
158 2 0.541137 0.344609 0.122376
157 1 0.542458 0.352224 0.124216
6802 1 0.558787 0.326758 0.128988
7659 1 0.559056 0.329678 0.129684
7658 2 0.559459 0.33662 0.1306
7657 1 0.560605 0.342964 0.132551
3102 1 0.561069 0.345798 0.133684
3101 2 0.562292 0.35321 0.13722
3037 1 0.538714 0.332994 0.137681
9403 1 0.579488 0.325979 0.117943
11264 2 0.56972 0.351082 0.113686
11265 1 0.571504 0.344566 0.115205