ITEM: TIMESTEP
25000000
ITEM: NUMBER OF ATOMS
1953
ITEM: BOX BOUNDS pp pp pp
0.0000000000000000e+00 5.0000000000000000e+01
0.0000000000000000e+00 5.0000000000000000e+01
0.0000000000000000e+00 5.0000000000000000e+01
ITEM: ATOMS id type xs ys zs
288 1 0.744013 0.679247 0.0174123
287 3 0.741091 0.677869 0.0240425
8468 3 0.668162 0.685519 0.0481755
8469 1 0.670921 0.678549 0.0456352
2597 3 0.716493 0.685112 0.0463301
6303 1 0.712613 0.681766 0.0556334
2598 1 0.713448 0.682342 0.0529566
286 1 0.737444 0.673992 0.0304142
6826 1 0.733185 0.666039 0.0380969
6828 1 0.729139 0.674153 0.0502811
6827 3 0.731386 0.670478 0.0441475
18966 1 0.744963 0.663483 0.0431095
18965 3 0.753538 0.662474 0.0417582
11152 1 0.731349 0.686675 0.0593831
13374 1 0.75924 0.686606 0.0308291
2502 1 0.782631 0.662471 0.0474729
18964 1 0.760857 0.662273 0.0428672
14077 1 0.76395 0.662408 0.0433132
14078 3 0.772382 0.662441 0.0446168
14079 1 0.779735 0.662745 0.0472639
20435 3 0.78378 0.684763 0.045565
20436 1 0.781915 0.681002 0.0515334
13372 1 0.774903 0.681492 0.0320214
13373 3 0.767 0.682823 0.0319291
2500 1 0.798995 0.663198 0.0451238
2501 3 0.790714 0.662059 0.0466717
18407 3 0.747549 0.642044 0.0745969
18406 1 0.746764 0.64162 0.0656773
18408 1 0.750518 0.643551 0.0823148
3891 1 0.681692 0.679274 0.0774578
3890 3 0.676623 0.67563 0.0804116
3889 1 0.672202 0.670004 0.0837301
18388 1 0.720368 0.653315 0.0669801
6302 3 0.708963 0.679406 0.0625977
8541 1 0.712544 0.669619 0.0879158
19176 1 0.714619 0.670465 0.0859951
6301 1 0.706943 0.676655 0.0702177
19175 3 0.720265 0.673615 0.0814453
18389 2 0.72815 0.656648 0.0639168
18390 1 0.734812 0.659378 0.0638195
445 1 0.737792 0.660777 0.0636394
446 3 0.746097 0.663522 0.0629485
11153 3 0.728551 0.681732 0.0651104
447 1 0.753467 0.665614 0.0645306
11154 1 0.725142 0.677239 0.0719779
19174 1 0.723541 0.675949 0.0745243
12839 3 0.74365 0.676365 0.0825622
12838 1 0.746893 0.680233 0.0776066
12840 1 0.741755 0.671669 0.0877071
11893 1 0.740755 0.669115 0.0899447
15753 1 0.74795 0.681329 0.0750486
15752 3 0.749998 0.684416 0.067881
4635 1 0.756313 0.666037 0.064804
4634 3 0.763506 0.666483 0.0666762
4633 1 0.77155 0.667359 0.0693232
13797 1 0.774984 0.679806 0.0637349
13796 3 0.772847 0.685981 0.0667576
2561 2 0.733852 0.615758 0.116032
2562 1 0.73242 0.607774 0.115408
2252 3 0.672289 0.651816 0.107526
2253 1 0.667842 0.651456 0.113389
8208 1 0.734475 0.645188 0.115906
5965 1 0.735423 0.641858 0.117129
5967 1 0.735816 0.626278 0.117459
5966 3 0.736354 0.634061 0.117152
2560 1 0.73547 0.623503 0.117293
8207 3 0.731606 0.651915 0.111899
5574 1 0.680461 0.686001 0.113855
7570 1 0.666499 0.667668 0.106945
7571 3 0.665297 0.673266 0.101268
2251 1 0.680187 0.653793 0.102727
13830 1 0.682613 0.654906 0.101674
20008 1 0.663572 0.680745 0.0949445
7572 1 0.664085 0.67864 0.0966284
13829 3 0.690056 0.659049 0.100644
8540 2 0.705062 0.667562 0.0932077
8539 1 0.698681 0.664312 0.0966258
13828 1 0.696291 0.663249 0.0978022
14509 1 0.715776 0.683616 0.114856
10677 1 0.714067 0.681935 0.116784
14510 3 0.719203 0.686586 0.108972
8709 1 0.705689 0.682748 0.0974618
17570 3 0.744482 0.685893 0.107003
11895 1 0.736201 0.656953 0.0990295
17569 1 0.742294 0.682851 0.113393
11894 3 0.738804 0.663161 0.0947299
8206 1 0.730274 0.657048 0.105798
3441 1 0.740571 0.681282 0.115216
18800 3 0.773748 0.685169 0.106428
3987 1 0.768624 0.680341 0.114249
18801 1 0.770048 0.681369 0.11252
15777 1 0.786264 0.671392 0.111972
1669 1 0.693881 0.659132 0.134971
1670 2 0.699875 0.66384 0.131882
10676 3 0.710043 0.677473 0.121574
1671 1 0.704461 0.669757 0.128129
10675 1 0.706105 0.671889 0.126524
4027 1 0.714356 0.678726 0.147986
10299 1 0.720448 0.65889 0.130394
4028 2 0.719125 0.682973 0.142546
3440 3 0.73696 0.677149 0.120472
3439 1 0.731648 0.672439 0.124807
10297 1 0.730173 0.670654 0.125763
10298 3 0.726631 0.664402 0.128903
1090 1 0.749037 0.672154 0.138949
1091 3 0.753391 0.674086 0.134167
3986 3 0.764941 0.676574 0.120393
3985 1 0.759695 0.675396 0.126123
1092 1 0.758122 0.675218 0.128239
15776 3 0.78445 0.671693 0.120495
15775 1 0.782362 0.671424 0.127959
17176 1 0.693118 0.684027 0.160725
17178 1 0.693 0.67671 0.176551
17177 3 0.692475 0.680426 0.168249
4770 1 0.718839 0.684501 0.173121
4123 1 0.693553 0.68485 0.158177
14306 2 0.781487 0.682007 0.16316
14305 1 0.784259 0.676888 0.168978
14307 1 0.77978 0.686725 0.15746
13808 2 0.740236 0.650009 0.208801
6193 1 0.683423 0.685148 0.207093
6194 2 0.68114 0.678478 0.20958
7541 2 0.732699 0.686569 0.195191
7542 1 0.733541 0.679284 0.197395
19013 2 0.73677 0.669056 0.201892
19014 1 0.734303 0.676495 0.19797
19012 1 0.738816 0.660256 0.204792
13807 1 0.739297 0.657517 0.205764
13809 1 0.742219 0.642725 0.212195
13663 1 0.743362 0.640269 0.213401
13664 2 0.747216 0.63449 0.217908
13665 1 0.750664 0.628274 0.22296
9553 1 0.661488 0.683848 0.23983
6195 1 0.677485 0.671734 0.211506
9554 3 0.664305 0.685623 0.232195
1797 1 0.615982 0.713865 0.00739731
1796 2 0.623298 0.717138 0.00482368
14787 1 0.674485 0.713831 0.0260429
11032 1 0.684738 0.701012 0.0235269
11033 3 0.686944 0.698013 0.0295483
1615 1 0.726799 0.694709 0.02506
8146 1 0.71446 0.713133 0.0105579
13533 1 0.713497 0.712299 0.0135283
13531 1 0.710322 0.708031 0.0279852
13532 3 0.712192 0.710574 0.0204337
1393 1 0.72819 0.695856 0.0230529
8147 3 0.717638 0.71692 0.00160506
9441 1 0.633596 0.748984 0.014767
1795 1 0.629984 0.720315 0.000848942
4228 1 0.632518 0.721158 0.000222986
657 1 0.649838 0.740586 0.0191172
4143 1 0.652139 0.738874 0.0197483
656 3 0.642522 0.744612 0.0174807
655 1 0.636378 0.747923 0.0156457
4142 3 0.657231 0.733328 0.0209502
14785 1 0.664255 0.725094 0.023089
4141 1 0.662253 0.727429 0.0226805
14786 3 0.669417 0.719699 0.0245685
9449 3 0.682015 0.739786 0.0217787
9448 1 0.683252 0.741524 0.0147963
7131 1 0.684092 0.742645 0.0120113
7130 3 0.68609 0.745247 0.00554156
5032 1 0.692952 0.725506 0.0237268
17986 1 0.694213 0.725556 0.0204377
17987 3 0.696288 0.727457 0.0121725
17988 1 0.697926 0.729859 0.00483956
19541 3 0.719121 0.735365 0.0142304
19542 1 0.716635 0.732048 0.0204776
7179 1 0.716088 0.730847 0.0241109
12905 3 0.70419 0.746158 0.0237898
10453 1 0.698617 0.7307 0.00196082
8959 1 0.723901 0.737821 0.00415167
19540 1 0.722557 0.737401 0.00720185
9440 2 0.626805 0.752223 0.0126461
9439 1 0.619656 0.756663 0.0137019
1909 1 0.664482 0.755206 0.0233544
1910 3 0.664544 0.757691 0.0155581
1911 1 0.667197 0.758687 0.00784096
9659 3 0.687917 0.762676 0.0188587
9658 1 0.688874 0.765546 0.0109363
4992 1 0.688895 0.766175 0.00769134
9660 1 0.686206 0.760664 0.0277948
21111 1 0.670988 0.774394 0.0178183
11571 1 0.670549 0.773863 0.0208412
21110 3 0.671136 0.775417 0.00931511
21109 1 0.671441 0.776948 0.00209573
4991 3 0.690027 0.767332 0.00135091
11570 3 0.670044 0.772039 0.0284847
12906 1 0.704509 0.750222 0.0169203
4009 1 0.705293 0.751066 0.0142088
13676 3 0.722653 0.759285 0.0193303
4010 3 0.707134 0.75233 0.00675759
200 3 0.709485 0.773443 0.0165978
199 1 0.710626 0.776715 0.00922342
20169 1 0.710348 0.777571 0.00587929
13675 1 0.72379 0.761048 0.0116879
201 1 0.708473 0.769287 0.0247905
13677 1 0.721516 0.756218 0.0264003
7677 1 0.708141 0.768623 0.0280399
13021 1 0.721042 0.754767 0.0290093
18497 3 0.727273 0.764561 0.00228708
18498 1 0.724989 0.761813 0.00850256
21425 3 0.669253 0.796203 0.0047898
7650 1 0.671376 0.795522 0.0162016
21424 1 0.670896 0.795707 0.0134359
7649 3 0.671497 0.794669 0.0237468
11514 1 0.689814 0.783953 0.0220103
11513 3 0.690087 0.784636 0.0142908
11512 1 0.689709 0.785798 0.0063903
11490 1 0.689733 0.786816 0.00285166
10198 1 0.691295 0.805012 0.0191528
14674 1 0.691278 0.805478 0.0166424
14675 3 0.690184 0.806587 0.0088364
16539 1 0.689482 0.783452 0.0250971
10199 3 0.691277 0.802738 0.0281066
14676 1 0.688902 0.80977 0.00138816
7648 1 0.670648 0.792411 0.029959
11394 1 0.70978 0.79515 0.0162315
11393 3 0.70923 0.797511 0.0095063
11392 1 0.710306 0.800297 0.00158664
2740 1 0.710201 0.794248 0.0189544
2741 3 0.710901 0.792241 0.0273057
19774 1 0.729639 0.781501 0.024681
4388 3 0.729876 0.788614 0.0143295
6689 3 0.639812 0.836965 0.0293697
8401 1 0.661915 0.843139 0.0139968
6690 1 0.639169 0.829839 0.0298002
8402 2 0.666964 0.842188 0.0199688
8403 1 0.67093 0.840411 0.0257277
4192 1 0.672682 0.839113 0.0277315
2201 3 0.666972 0.818909 0.00364125
14636 3 0.692737 0.833773 0.00252944
14905 1 0.668955 0.816038 0.0137673
2202 1 0.668119 0.817315 0.0108994
7252 1 0.694051 0.830058 0.0134008
14637 1 0.69381 0.831384 0.0103572
7253 3 0.69428 0.827026 0.0209626
14906 3 0.670011 0.815175 0.0217531
7254 1 0.694499 0.824083 0.0280255
14907 1 0.671485 0.812997 0.0297909
19417 1 0.71067 0.818372 0.0135868
13995 1 0.710481 0.817285 0.0162974
13994 3 0.710672 0.814303 0.0233566
19418 3 0.709977 0.820548 0.00615907
11643 1 0.71194 0.84023 0.0224367
7441 1 0.711534 0.840396 0.0198463
7442 3 0.710937 0.84083 0.011737
2679 1 0.729481 0.838796 0.00436003
6688 1 0.639055 0.845227 0.0287537
11736 1 0.682005 0.859266 0.00927484
14882 3 0.668691 0.86806 0.0226133
14881 1 0.668488 0.861711 0.0272371
14883 1 0.66952 0.873987 0.0178142
8371 1 0.687871 0.846704 0.0201004
8372 3 0.69265 0.84665 0.0263128
7320 1 0.693442 0.872576 0.00797671
7318 1 0.695966 0.861059 0.020259
7319 3 0.694864 0.865139 0.0131771
11735 3 0.678651 0.853842 0.00506
20281 1 0.709473 0.84674 0.00180821
7443 1 0.709995 0.845016 0.00452351
1114 1 0.714106 0.864353 0.0208015
1115 3 0.716311 0.861555 0.0286767
6851 3 0.664115 0.70485 0.0517792
6852 1 0.666035 0.696597 0.0507562
6850 1 0.661801 0.712806 0.0532217
1914 1 0.661218 0.716086 0.0533308
11034 1 0.690035 0.694831 0.0352755
8467 1 0.666871 0.693506 0.0503895
11503 1 0.6865 0.717201 0.058731
12960 1 0.687213 0.717956 0.0559712
13984 1 0.726274 0.711615 0.0388794
1616 3 0.723349 0.691199 0.0319408
8478 1 0.7095 0.707225 0.0304078
1617 1 0.720931 0.688454 0.0385029
19104 1 0.727579 0.711986 0.0357215
13985 3 0.723407 0.710022 0.0463855
8476 1 0.702633 0.702086 0.0435589
8477 3 0.705668 0.705675 0.0372799
13986 1 0.720102 0.708141 0.0537087
18181 1 0.719324 0.707803 0.0562674
3817 1 0.701484 0.701017 0.0461393
3818 3 0.698976 0.699446 0.0542892
2596 1 0.719998 0.687513 0.0407176
1913 3 0.658111 0.723974 0.0516411
1912 1 0.655084 0.731299 0.0501557
17263 1 0.659177 0.744225 0.0347915
17265 1 0.655512 0.743185 0.0512623
14547 1 0.654922 0.743117 0.0536542
17264 3 0.657191 0.743766 0.0430507
5033 3 0.691235 0.724764 0.03128
9450 1 0.680731 0.739392 0.0300985
18714 1 0.680022 0.739033 0.0332276
18713 3 0.678784 0.739047 0.0415684
18712 1 0.678316 0.736301 0.0495886
7422 1 0.67792 0.735167 0.0523767
5034 1 0.689893 0.722689 0.0377331
12958 1 0.68968 0.721773 0.0407357
12959 3 0.687503 0.719732 0.0481219
7421 3 0.674639 0.732471 0.0600922
7178 3 0.715311 0.729772 0.032069
10744 1 0.698272 0.73936 0.0529719
5271 1 0.69934 0.739271 0.0499662
5270 3 0.699557 0.740397 0.0416147
5269 1 0.701259 0.742917 0.0340062
16731 1 0.714487 0.726575 0.0436864
7177 1 0.714924 0.727122 0.0411021
8902 1 0.719794 0.747886 0.0473515
16730 3 0.712835 0.724785 0.0514615
12904 1 0.702016 0.743978 0.0312692
16729 1 0.709862 0.722775 0.0571379
13023 1 0.720033 0.749229 0.0442949
18037 1 0.708918 0.722253 0.059484
8903 3 0.71952 0.745085 0.0535214
18366 1 0.638794 0.751287 0.0459476
18365 3 0.642885 0.756618 0.0499986
3925 1 0.645326 0.764087 0.0572088
18364 1 0.644454 0.762006 0.0549681
18711 1 0.668848 0.768036 0.0566293
15070 1 0.685719 0.760004 0.0306583
18710 3 0.668338 0.769303 0.0479695
11569 1 0.668164 0.771028 0.0365817
18709 1 0.668071 0.770575 0.0399575
15071 3 0.68603 0.758701 0.0379573
15072 1 0.685488 0.757361 0.0441683
3933 1 0.685162 0.756771 0.047041
13766 3 0.690731 0.776809 0.0507511
3932 3 0.68328 0.755683 0.0555036
13765 1 0.690071 0.778624 0.043886
16537 1 0.690075 0.779571 0.0406998
13767 1 0.691253 0.775232 0.0585045
11602 1 0.669062 0.767612 0.0597301
19775 3 0.729037 0.776753 0.0318549
13022 3 0.720985 0.751709 0.0368961
7676 3 0.707956 0.767506 0.035489
7675 1 0.707102 0.765645 0.042985
9126 1 0.707095 0.76487 0.0459437
3419 3 0.725873 0.767752 0.0478077
9125 3 0.705305 0.761776 0.0536135
3418 1 0.725322 0.765913 0.055378
19776 1 0.728017 0.773261 0.0382027
3420 1 0.727566 0.772059 0.0406682
15709 1 0.725235 0.765456 0.057823
16538 3 0.68936 0.782271 0.0330238
9667 1 0.670665 0.791356 0.0325252
9668 3 0.670399 0.789468 0.04035
9669 1 0.671035 0.788276 0.0487675
10200 1 0.691845 0.801461 0.0362649
16998 1 0.692002 0.800888 0.0397464
16997 3 0.691923 0.799362 0.0472487
16996 1 0.692453 0.796172 0.0550318
17251 1 0.671179 0.787557 0.0516545
14857 1 0.692889 0.795186 0.0583356
14402 3 0.673966 0.808016 0.0600824
14401 1 0.673326 0.808321 0.0507759
6123 1 0.672628 0.80864 0.0475004
6122 3 0.67279 0.810219 0.0400107
17252 3 0.671984 0.786405 0.0590739
2742 1 0.709847 0.789394 0.0342961
17104 1 0.709516 0.788374 0.0366673
17105 3 0.710194 0.785895 0.0436773
11524 1 0.712317 0.806154 0.0482716
11097 1 0.712504 0.805428 0.0511634
17106 1 0.710353 0.783666 0.0512654
5394 1 0.710063 0.78282 0.0536473
11525 3 0.711573 0.808483 0.0412271
11526 1 0.711641 0.810159 0.0327298
13993 1 0.711405 0.811083 0.0304152
11096 3 0.712615 0.803028 0.0584178
1729 1 0.729429 0.791305 0.0585864
8830 1 0.729569 0.79222 0.0557088
6121 1 0.671657 0.812188 0.0329417
9038 3 0.68005 0.83211 0.0523851
8698 1 0.694714 0.823496 0.03116
8699 3 0.695364 0.82169 0.0387476
8700 1 0.696147 0.820326 0.0478262
6210 1 0.696708 0.819797 0.0511905
9039 1 0.679771 0.834066 0.0440967
4194 1 0.679215 0.834733 0.0417536
4193 3 0.676774 0.836098 0.0344694
6209 3 0.696852 0.818464 0.05819
11642 3 0.71265 0.838744 0.0302
11641 1 0.714456 0.838176 0.0383728
1894 1 0.714709 0.837544 0.0411362
1895 3 0.715622 0.833924 0.0494724
1896 1 0.715259 0.830903 0.0566317
7695 1 0.715407 0.829733 0.0591522
14530 1 0.698851 0.841452 0.0549215
5599 1 0.698338 0.8422 0.0520158
8373 1 0.693983 0.846684 0.0338118
12449 3 0.69101 0.865237 0.0433099
12450 1 0.696079 0.870288 0.0400029
14962 1 0.671975 0.850632 0.0582803
20721 1 0.673954 0.851344 0.0566665
5601 1 0.694317 0.846049 0.0364666
5600 3 0.696287 0.844309 0.0431184
20720 3 0.680177 0.8552 0.0524343
20719 1 0.685709 0.858375 0.0490491
12448 1 0.687465 0.859961 0.0477467
8935 1 0.717133 0.858559 0.039217
8936 3 0.717068 0.854445 0.0469939
1116 1 0.7173 0.859453 0.0366883
8937 1 0.717959 0.85166 0.0549553
5272 1 0.719097 0.850975 0.058169
15971 3 0.661086 0.70913 0.0859508
15970 1 0.664761 0.705093 0.0806093
63 1 0.666127 0.703302 0.0788879
20010 1 0.658916 0.691555 0.0842436
3819 1 0.696772 0.697104 0.0615865
61 1 0.671441 0.696019 0.0643128
62 3 0.669069 0.698944 0.0723266
17761 1 0.695695 0.696462 0.064291
17762 3 0.692458 0.695131 0.0712898
11505 1 0.684283 0.7143 0.0745847
6072 1 0.683983 0.713592 0.0768325
6071 3 0.681632 0.712495 0.0853639
8600 3 0.686936 0.694107 0.088809
8599 1 0.688753 0.695149 0.0813991
17763 1 0.689521 0.695107 0.0782437
11504 3 0.684888 0.716104 0.0668122
18182 3 0.717999 0.704891 0.0628669
789 1 0.715992 0.69987 0.0721772
18183 1 0.716786 0.700843 0.0697211
788 3 0.713437 0.697755 0.0787431
6136 1 0.727299 0.716814 0.0852431
787 1 0.711522 0.694465 0.0852813
17303 3 0.704907 0.716204 0.0843741
8533 1 0.726998 0.715977 0.0882843
8707 1 0.709871 0.693202 0.0878559
17304 1 0.705546 0.717765 0.0767809
14545 1 0.654119 0.741723 0.069032
14546 3 0.653976 0.742122 0.061456
12144 1 0.67119 0.728149 0.0867048
7501 1 0.67071 0.728021 0.0896339
12143 3 0.672061 0.729916 0.0784736
7420 1 0.673047 0.73068 0.0673617
12142 1 0.672745 0.730175 0.0703126
10983 1 0.695956 0.737506 0.072338
10982 3 0.694068 0.734672 0.079826
10746 1 0.696286 0.738238 0.0694258
10981 1 0.69277 0.732085 0.0871322
10745 3 0.696741 0.738924 0.0617467
5218 1 0.692413 0.731164 0.0900416
6138 1 0.729351 0.722929 0.0712028
6137 3 0.728019 0.719395 0.0787565
18038 3 0.706604 0.721489 0.0669343
18039 1 0.705762 0.718983 0.0740084
8904 1 0.718217 0.742624 0.0608751
6856 1 0.717904 0.741384 0.064131
6857 3 0.717529 0.737882 0.0728261
6858 1 0.718013 0.734814 0.0818225
3214 1 0.718319 0.73389 0.0847789
3926 3 0.646876 0.76996 0.0615659
3927 1 0.650472 0.775664 0.066177
20661 1 0.651474 0.777959 0.0676438
13460 3 0.669914 0.765042 0.0872986
13461 1 0.669377 0.765604 0.0783431
11604 1 0.669195 0.765477 0.0756106
20041 1 0.682672 0.749748 0.0855693
11737 1 0.682519 0.750434 0.0825984
11603 3 0.668988 0.76649 0.0669668
7341 1 0.690562 0.774916 0.061836
11738 3 0.682789 0.751392 0.074905
3931 1 0.682976 0.75315 0.0634124
11739 1 0.682578 0.75213 0.0665956
7340 3 0.690025 0.773311 0.0690989
7339 1 0.691887 0.769614 0.0774407
141 1 0.692232 0.768634 0.080833
140 3 0.692256 0.767059 0.0889665
13231 1 0.724405 0.759947 0.0756669
15126 1 0.705778 0.759463 0.0646638
15125 3 0.7053 0.755531 0.0718664
2950 1 0.705045 0.751695 0.0817346
15124 1 0.705383 0.752401 0.0790214
9124 1 0.706168 0.760028 0.0620404
15710 3 0.724753 0.763521 0.0651976
14543 3 0.711758 0.775837 0.0769443
13232 3 0.723848 0.757998 0.082512
15711 1 0.724899 0.760808 0.0725056
2951 3 0.704981 0.750403 0.0895979
14544 1 0.711142 0.778208 0.0704344
5392 1 0.710947 0.779135 0.067547
14542 1 0.712672 0.773092 0.084124
3598 1 0.712862 0.772355 0.0867092
20660 3 0.653072 0.785277 0.0714338
20659 1 0.654466 0.792245 0.0757022
11674 1 0.655581 0.794705 0.0773784
11675 3 0.657525 0.801685 0.0808521
11676 1 0.659685 0.808834 0.0840173
5979 1 0.660007 0.811645 0.085805
17192 3 0.673136 0.783899 0.0789321
17193 1 0.675437 0.783543 0.0867988
17253 1 0.672736 0.784509 0.0667102
17191 1 0.672879 0.784512 0.0703584
13214 3 0.677637 0.80584 0.0770197
13213 1 0.675026 0.80783 0.0702725
14403 1 0.67463 0.808293 0.0680174
14858 3 0.693947 0.793467 0.0662529
14859 1 0.695006 0.792815 0.0745382
14449 1 0.695205 0.792073 0.0774466
13215 1 0.679891 0.804994 0.084057
14450 3 0.69599 0.78893 0.0844414
20140 1 0.68029 0.80446 0.0874169
17341 1 0.675588 0.783673 0.0898078
5393 3 0.710615 0.781742 0.0605757
11095 1 0.713497 0.801064 0.0664975
3658 1 0.713964 0.800117 0.069464
3659 3 0.714281 0.798222 0.076989
3660 1 0.715554 0.796545 0.0844525
13896 1 0.715873 0.795471 0.0875757
17322 1 0.701954 0.811371 0.0862584
1731 1 0.729851 0.783644 0.0730333
1730 3 0.729602 0.787854 0.0667683
8854 1 0.64224 0.836389 0.0707002
8855 3 0.650246 0.838288 0.0675531
8856 1 0.657052 0.841235 0.0642238
14964 1 0.660021 0.843269 0.0635433
9037 1 0.679718 0.830293 0.0608829
5484 1 0.679738 0.829543 0.0637434
5483 3 0.680168 0.828048 0.072451
5482 1 0.682058 0.82741 0.0814675
18831 1 0.682436 0.827112 0.0848574
14531 3 0.69874 0.840955 0.0624605
4101 1 0.701361 0.812333 0.0839106
4100 3 0.699017 0.813416 0.0751162
14532 1 0.698933 0.838171 0.0708754
14466 1 0.699022 0.837247 0.0735001
6208 1 0.698727 0.816276 0.0648961
4099 1 0.699356 0.81514 0.0679636
7694 3 0.714928 0.826392 0.0663475
7693 1 0.715847 0.823353 0.0735236
15287 3 0.718155 0.818677 0.0825662
15288 1 0.716556 0.822317 0.0761565
14465 3 0.699917 0.835891 0.0817483
2861 3 0.7238 0.839651 0.0820586
15286 1 0.719388 0.816836 0.0892476
2862 1 0.724442 0.836587 0.0896952
2860 1 0.722735 0.843108 0.07558
14963 3 0.665365 0.847616 0.0618171
5274 1 0.721906 0.844309 0.0730936
5273 3 0.720124 0.848082 0.0656086
12817 1 0.652899 0.713685 0.091999
15972 1 0.655144 0.712576 0.0904129
20461 1 0.655299 0.692327 0.107087
20462 3 0.662105 0.69638 0.112446
20009 3 0.661709 0.687311 0.0902768
5572 1 0.683719 0.690791 0.098138
5573 3 0.682903 0.688054 0.105848
20463 1 0.668185 0.702672 0.116007
8601 1 0.684418 0.691828 0.0958669
6070 1 0.681148 0.711508 0.0926799
6736 1 0.680762 0.711078 0.0961286
6737 3 0.680276 0.709884 0.10379
6738 1 0.68022 0.708371 0.111241
17497 1 0.679737 0.707588 0.113627
14511 1 0.723571 0.689345 0.103466
8708 3 0.708045 0.688787 0.0926183
20034 1 0.724908 0.689925 0.101246
17302 1 0.705068 0.715384 0.0915423
9396 1 0.704579 0.713866 0.0944988
9394 1 0.702831 0.706082 0.107809
14581 1 0.702126 0.704494 0.110347
14582 3 0.700525 0.700293 0.116981
9395 3 0.704777 0.709814 0.101871
8535 1 0.722952 0.710798 0.102779
8534 3 0.725519 0.713226 0.0951545
17712 1 0.722557 0.709119 0.105885
17711 3 0.721945 0.705857 0.113334
17710 1 0.721832 0.702607 0.120324
20033 3 0.728911 0.69205 0.0948668
10513 1 0.62691 0.729884 0.109127
10514 2 0.633574 0.726906 0.106817
12818 3 0.647219 0.718487 0.095552
10515 1 0.63932 0.722171 0.102542
12819 1 0.641624 0.720731 0.101064
3471 1 0.666339 0.726798 0.107929
3470 3 0.665153 0.726379 0.11548
7503 1 0.667276 0.726901 0.104865
7502 3 0.66914 0.727285 0.0975446
2150 3 0.693433 0.72497 0.116086
2149 1 0.694133 0.727666 0.108628
5220 1 0.69427 0.728358 0.106065
5219 3 0.693138 0.729193 0.0986242
20043 1 0.683141 0.74622 0.102286
6028 1 0.683074 0.745473 0.105323
6029 3 0.682116 0.742029 0.113068
20042 3 0.682807 0.747524 0.0946678
6030 1 0.680229 0.740085 0.120011
2108 3 0.703898 0.746564 0.108377
2952 1 0.70479 0.748354 0.0982863
2107 1 0.704859 0.747675 0.101007
3215 3 0.717958 0.731506 0.0917686
14147 3 0.713175 0.726414 0.109299
14146 1 0.713671 0.728846 0.101827
3216 1 0.714397 0.729888 0.0990986
2109 1 0.703512 0.744735 0.115101
14148 1 0.712995 0.722978 0.116148
20557 1 0.703288 0.743826 0.117879
16235 3 0.723435 0.745898 0.118353
6798 1 0.71284 0.721956 0.119526
13312 1 0.666283 0.762787 0.113303
13459 1 0.669637 0.765011 0.0947828
13314 1 0.669066 0.765359 0.097669
13313 3 0.666939 0.765533 0.104521
13357 1 0.666641 0.761359 0.116364
679 1 0.691057 0.76178 0.118063
11673 1 0.691054 0.762144 0.115233
139 1 0.691177 0.766511 0.0960087
11671 1 0.690801 0.766141 0.0995501
11672 3 0.690699 0.764217 0.107598
6167 3 0.679101 0.780527 0.116628
15320 3 0.724931 0.753671 0.100952
15319 1 0.722884 0.75108 0.108295
16236 1 0.722752 0.74973 0.11092
15321 1 0.725889 0.7565 0.0929086
13233 1 0.72556 0.757194 0.0903763
3384 1 0.711249 0.76665 0.105761
3600 1 0.711421 0.767112 0.10316
3599 3 0.711888 0.769532 0.0949368
3383 3 0.710077 0.765256 0.113054
20690 3 0.664505 0.807355 0.108499
20689 1 0.66532 0.798605 0.10949
6168 1 0.678644 0.783315 0.108689
17343 1 0.678479 0.783814 0.105819
17342 3 0.677344 0.784915 0.0980267
14451 1 0.697436 0.786016 0.0925574
17512 1 0.69807 0.782401 0.114619
1233 1 0.698047 0.782643 0.111864
1232 3 0.697959 0.783839 0.104011
20141 3 0.681951 0.803971 0.0956264
1231 1 0.697868 0.78504 0.0961463
20142 1 0.684073 0.800321 0.10307
7368 1 0.684752 0.799866 0.105385
7367 3 0.685907 0.799382 0.113205
17321 3 0.70291 0.807827 0.0923535
17320 1 0.703076 0.805726 0.0998258
13895 3 0.715895 0.792605 0.0948541
4055 3 0.721327 0.786915 0.111244
6519 1 0.70344 0.805326 0.102417
4056 1 0.719309 0.790434 0.103885
13894 1 0.718811 0.791155 0.101362
6518 3 0.704652 0.804311 0.10915
6038 3 0.725725 0.80607 0.116126
21549 1 0.723225 0.810216 0.106105
6037 1 0.723777 0.809072 0.109014
6517 1 0.705948 0.80138 0.11705
4054 1 0.72163 0.782789 0.118666
12567 1 0.706946 0.800665 0.119662
5978 3 0.661496 0.818492 0.0903825
20691 1 0.664712 0.814919 0.110279
5977 1 0.664226 0.82441 0.0941333
18830 3 0.684112 0.825949 0.0930071
18829 1 0.685898 0.823399 0.100359
8001 1 0.686761 0.822443 0.102662
8000 3 0.689367 0.820506 0.109237
7999 1 0.693186 0.8185 0.115637
1951 1 0.694377 0.817966 0.118021
18805 1 0.673916 0.814826 0.120228
14464 1 0.701719 0.836109 0.0902741
14872 1 0.702016 0.835588 0.0928077
7815 1 0.725382 0.83571 0.0928233
21548 3 0.720722 0.813549 0.0988154
21547 1 0.719848 0.816238 0.091255
14873 3 0.703912 0.833008 0.0994299
14874 1 0.706594 0.831265 0.106699
14109 1 0.708046 0.830354 0.109453
14108 3 0.712145 0.827185 0.115723
7814 3 0.727623 0.834549 0.0996503
17498 3 0.677717 0.706537 0.121401
3132 1 0.66912 0.704171 0.148071
3948 1 0.667481 0.703948 0.150304
4125 1 0.694711 0.690462 0.143663
2588 3 0.69554 0.693631 0.133885
3131 3 0.673824 0.703997 0.14176
17499 1 0.675946 0.706155 0.129288
2587 1 0.697872 0.696435 0.127179
3130 1 0.675277 0.70541 0.132706
20805 1 0.688785 0.71763 0.140528
2589 1 0.695037 0.691144 0.141003
18955 1 0.72111 0.690356 0.134394
4029 1 0.720486 0.687711 0.136783
14583 1 0.698561 0.697302 0.124753
18957 1 0.721821 0.700857 0.122833
18956 3 0.721958 0.696097 0.128547
6796 1 0.70937 0.716923 0.13446
4149 1 0.708724 0.715789 0.13782
4148 3 0.708167 0.714416 0.145516
3539 3 0.729847 0.713724 0.136724
3538 1 0.728154 0.708159 0.142983
10977 1 0.727085 0.706242 0.145245
3469 1 0.661296 0.726437 0.122715
3972 1 0.680024 0.738921 0.123089
2151 1 0.693611 0.721136 0.123069
20803 1 0.693345 0.720165 0.126204
20804 3 0.691694 0.718576 0.133413
17457 1 0.67832 0.731136 0.139586
3971 3 0.678121 0.736613 0.129646
3970 1 0.678311 0.732899 0.136936
17456 3 0.678018 0.726565 0.146722
6486 1 0.666959 0.747399 0.147538
9131 3 0.699561 0.735635 0.14242
6797 3 0.711585 0.720207 0.127508
20559 1 0.701529 0.738477 0.131933
9132 1 0.701092 0.737537 0.134911
20558 3 0.702557 0.741044 0.124709
10970 3 0.720979 0.738521 0.137194
16234 1 0.722666 0.741803 0.126671
10971 1 0.722225 0.740933 0.12934
10969 1 0.720428 0.736267 0.144113
14190 1 0.720819 0.735033 0.147166
9130 1 0.698508 0.733183 0.150106
13358 3 0.668154 0.758092 0.123393
6484 1 0.66767 0.754668 0.134556
6485 3 0.668832 0.750535 0.14126
13359 1 0.668014 0.755909 0.131601
5312 3 0.690075 0.753974 0.143615
5313 1 0.691146 0.756537 0.136157
6166 1 0.67801 0.778162 0.123755
681 1 0.691525 0.757679 0.133938
680 3 0.691498 0.760456 0.126071
1131 1 0.678514 0.777276 0.126913
1130 3 0.678444 0.775005 0.133968
1129 1 0.677435 0.773107 0.141459
4963 1 0.676986 0.772304 0.144557
3374 3 0.698211 0.775354 0.140523
3373 1 0.699128 0.77358 0.147336
804 1 0.711226 0.758013 0.13964
803 3 0.71108 0.759445 0.131742
802 1 0.710618 0.761665 0.123766
3382 1 0.710627 0.762356 0.120932
12511 1 0.721473 0.775605 0.136113
3139 1 0.721403 0.774932 0.138713
12512 3 0.721929 0.778305 0.129002
19837 1 0.711182 0.757102 0.142973
3140 3 0.722413 0.772688 0.146855
17514 1 0.698464 0.778853 0.129815
3375 1 0.698409 0.777699 0.132935
7366 1 0.686713 0.797836 0.120723
465 1 0.687364 0.797509 0.123755
464 3 0.687494 0.796897 0.131343
120 1 0.688443 0.794252 0.142536
463 1 0.688371 0.79485 0.139768
119 3 0.687604 0.79411 0.150432
13845 1 0.673092 0.811875 0.14004
13844 3 0.673335 0.810283 0.148204
17513 3 0.699215 0.780827 0.122664
12513 1 0.721619 0.781737 0.121612
12566 3 0.709708 0.798184 0.126622
12565 1 0.711813 0.794949 0.133581
11065 1 0.712235 0.793985 0.136432
11066 3 0.713472 0.790759 0.144999
14411 3 0.701422 0.81009 0.142758
14410 1 0.699089 0.811577 0.135131
14412 1 0.702461 0.808961 0.150354
6039 1 0.728746 0.804041 0.123527
11463 1 0.729765 0.803182 0.12603
1952 3 0.696006 0.816195 0.125924
18807 1 0.673211 0.812231 0.136557
18806 3 0.67485 0.812337 0.128167
14107 1 0.713554 0.823292 0.121156
3274 1 0.714155 0.821897 0.123769
1953 1 0.698351 0.812459 0.132783
12269 3 0.725061 0.812584 0.14897
3275 3 0.716506 0.819423 0.131224
3276 1 0.720606 0.816235 0.138582
12268 1 0.721783 0.814991 0.141252
13145 2 0.652919 0.710471 0.171283
3946 1 0.657632 0.707452 0.162545
13146 1 0.656262 0.70829 0.16468
3947 2 0.662517 0.705418 0.1562
13144 1 0.649239 0.713437 0.17922
4124 2 0.694767 0.68789 0.150775
19971 1 0.669831 0.714343 0.176144
5581 1 0.67082 0.715647 0.173758
10975 1 0.722894 0.696846 0.158916
4769 2 0.720773 0.689978 0.166585
4768 1 0.722489 0.695081 0.161135
14877 1 0.705997 0.704709 0.174028
17559 1 0.706053 0.70538 0.171536
17558 3 0.707051 0.708784 0.163769
4147 1 0.707658 0.712373 0.152628
17557 1 0.707533 0.711254 0.155657
10976 3 0.725264 0.701353 0.152078
5582 2 0.674177 0.720494 0.166773
17455 1 0.67578 0.724382 0.155691
5583 1 0.675336 0.723472 0.159085
14526 1 0.697968 0.728163 0.169031
14525 3 0.697598 0.729309 0.161384
21254 3 0.681971 0.737651 0.174959
21253 1 0.680294 0.732173 0.171729
21255 1 0.681689 0.744895 0.177913
5407 1 0.681243 0.7472 0.179472
701 3 0.715958 0.72623 0.172161
14524 1 0.698584 0.732007 0.153473
702 1 0.717808 0.727578 0.165059
14188 1 0.718643 0.728541 0.162073
14189 3 0.720116 0.730945 0.154299
5311 1 0.690676 0.755216 0.151223
6493 1 0.691051 0.759931 0.169194
6494 3 0.690665 0.756866 0.161267
6495 1 0.69069 0.755394 0.154413
4964 3 0.67708 0.770581 0.151862
4965 1 0.676209 0.771011 0.160588
9249 1 0.699899 0.772988 0.151171
21080 3 0.708562 0.750325 0.16873
19839 1 0.709627 0.751983 0.158257
21079 1 0.709452 0.751422 0.160069
9248 3 0.701068 0.773165 0.157885
19838 3 0.710332 0.754521 0.151157
8994 1 0.701038 0.770134 0.168855
8993 3 0.701374 0.769551 0.177008
9247 1 0.700919 0.770774 0.165688
3141 1 0.722787 0.770027 0.15493
12204 1 0.722589 0.769037 0.158029
12203 3 0.724271 0.765474 0.165834
12202 1 0.727186 0.762793 0.173469
15637 1 0.727902 0.762288 0.175871
21081 1 0.707307 0.752457 0.176627
11566 1 0.672128 0.794363 0.16168
11567 3 0.672791 0.800675 0.167299
11568 1 0.669749 0.807138 0.172428
118 1 0.68726 0.796481 0.158291
13843 1 0.676639 0.809161 0.154691
11845 1 0.70326 0.808332 0.15367
11067 1 0.714648 0.789052 0.152046
11846 3 0.704716 0.805768 0.160495
11847 1 0.704925 0.802221 0.168489
20367 1 0.704539 0.801099 0.171285
5787 1 0.718095 0.786386 0.174435
175 1 0.717759 0.785953 0.170953
176 3 0.716524 0.787438 0.162592
177 1 0.714896 0.788338 0.154983
20366 3 0.702316 0.798739 0.179335
5751 1 0.728036 0.808413 0.159985
12270 1 0.72716 0.809686 0.156974
21544 1 0.685527 0.825602 0.150685
21545 3 0.687894 0.833409 0.154809
21546 1 0.687202 0.839948 0.157864
7716 1 0.697824 0.821028 0.174089
7714 1 0.681792 0.819638 0.170428
7715 3 0.689873 0.820075 0.172004
402 1 0.664157 0.694994 0.207753
4498 1 0.664359 0.696599 0.205131
4499 2 0.665467 0.700882 0.198946
20118 1 0.683792 0.687603 0.206915
19969 1 0.667886 0.706623 0.190048
4500 1 0.667716 0.705102 0.192262
19970 2 0.668922 0.710647 0.183143
20117 2 0.686388 0.694909 0.205804
13931 2 0.690711 0.712515 0.198006
13930 1 0.690166 0.704919 0.201269
20116 1 0.689639 0.702344 0.20274
14876 3 0.704541 0.703428 0.182301
14875 1 0.701544 0.704585 0.189159
14745 1 0.726142 0.713355 0.190289