ITEM: TIMESTEP
25000000
ITEM: NUMBER OF ATOMS
1827
ITEM: BOX BOUNDS pp pp pp
0.0000000000000000e+00 5.0000000000000000e+01
0.0000000000000000e+00 5.0000000000000000e+01
0.0000000000000000e+00 5.0000000000000000e+01
ITEM: ATOMS id type xs ys zs
570 1 0.485189 0.264627 0.620285
569 3 0.49135 0.260232 0.622962
568 1 0.497606 0.255325 0.625329
13271 2 0.494837 0.271567 0.647973
1030 1 0.502742 0.268158 0.640815
13272 1 0.500852 0.269126 0.642443
13270 1 0.490376 0.275899 0.652712
8570 2 0.504858 0.346823 0.637454
8569 1 0.499742 0.344377 0.631909
2765 3 0.50123 0.32555 0.676419
2764 1 0.5042 0.319625 0.678548
2766 1 0.498574 0.332799 0.67449
18693 1 0.505373 0.317502 0.680552
21136 1 0.502991 0.30288 0.709524
20170 1 0.496568 0.331048 0.700864
20171 3 0.495973 0.333614 0.708154
18692 3 0.50785 0.312586 0.685469
20172 1 0.494429 0.33707 0.715567
533 3 0.490914 0.305373 0.743073
532 1 0.491751 0.305645 0.734195
16459 1 0.505644 0.283931 0.731758
2476 1 0.494504 0.338048 0.718008
2477 3 0.495549 0.340404 0.725632
2478 1 0.496356 0.341283 0.733437
534 1 0.489713 0.30531 0.751263
5996 3 0.505947 0.287164 0.771514
17880 1 0.483471 0.278323 0.761791
17879 2 0.489215 0.281184 0.766596
5995 1 0.498122 0.284614 0.770137
17878 1 0.495506 0.283454 0.768668
15768 1 0.503155 0.306547 0.759077
821 3 0.498564 0.335858 0.754241
822 1 0.48955 0.334121 0.753479
820 1 0.505609 0.33934 0.75341
643 1 0.49485 0.520315 0.837774
8692 1 0.504428 0.527731 0.821302
8694 1 0.496008 0.521582 0.835133
8693 2 0.498966 0.525161 0.82793
267 1 0.506044 0.528749 0.819198
644 2 0.491748 0.516426 0.844511
645 1 0.488052 0.512468 0.849832
21470 3 0.597564 0.285718 0.589283
5105 3 0.580294 0.275653 0.597007
21471 1 0.594223 0.279422 0.587634
5104 1 0.581691 0.27724 0.588625
11955 1 0.579791 0.275212 0.608022
5106 1 0.580324 0.275633 0.6049
4639 1 0.530858 0.299875 0.605584
4640 2 0.535779 0.305093 0.609239
3024 1 0.574322 0.291368 0.602913
3023 3 0.574063 0.29609 0.608898
18021 1 0.592882 0.309413 0.603049
18020 3 0.593764 0.316472 0.608091
10240 1 0.576766 0.318898 0.606952
21469 1 0.601549 0.292696 0.58779
10796 3 0.659144 0.219826 0.640716
10797 1 0.653226 0.224235 0.638053
10479 1 0.531903 0.255094 0.628991
1121 3 0.594516 0.23376 0.614863
1122 1 0.586835 0.230774 0.614555
18495 1 0.604584 0.237493 0.614288
1120 1 0.601561 0.236557 0.61415
18494 3 0.612593 0.239244 0.61592
10325 3 0.629883 0.235736 0.621499
10324 1 0.623694 0.238008 0.618433
18493 1 0.620733 0.238402 0.61781
21025 1 0.638851 0.23187 0.627587
10326 1 0.636351 0.232937 0.625572
21027 1 0.650733 0.225714 0.636412
21026 2 0.645036 0.228799 0.632101
1031 3 0.508881 0.26493 0.636083
10477 1 0.518839 0.261393 0.631506
10478 2 0.525428 0.257571 0.629382
1032 1 0.516314 0.26244 0.632783
18088 1 0.558487 0.26839 0.636388
18089 2 0.559844 0.276688 0.637402
18090 1 0.562186 0.283821 0.638215
6577 1 0.563213 0.286518 0.639106
13591 1 0.580666 0.260422 0.641084
11954 3 0.579695 0.274253 0.616961
11953 1 0.580249 0.273803 0.624312
2440 1 0.604978 0.275055 0.617597
2441 3 0.604695 0.283134 0.617018
20087 3 0.606076 0.270451 0.640071
20088 1 0.606882 0.278899 0.639166
17329 1 0.607045 0.281721 0.639034
8722 1 0.623245 0.273799 0.615606
14812 1 0.630253 0.282471 0.639035
8723 3 0.626493 0.281689 0.617501
8724 1 0.629397 0.289031 0.617958
7195 1 0.654052 0.279077 0.618665
7196 3 0.649627 0.284603 0.622009
3331 1 0.524123 0.320014 0.633177
6349 1 0.521035 0.304027 0.634235
6350 3 0.515249 0.298513 0.633795
6351 1 0.510835 0.291146 0.63417
4641 1 0.539943 0.310209 0.611774
64 1 0.541971 0.312587 0.613542
1161 1 0.546823 0.299491 0.624608
1160 3 0.550325 0.304336 0.629831
1159 1 0.55349 0.309697 0.633147
14842 1 0.554847 0.311875 0.634619
14843 3 0.558039 0.316547 0.639766
6578 3 0.566612 0.293981 0.641605
4435 1 0.540745 0.291757 0.640885
65 3 0.546211 0.317929 0.616185
3022 1 0.573912 0.301578 0.613983
15132 1 0.573622 0.303262 0.61632
15131 3 0.574372 0.308977 0.621513
15145 1 0.584576 0.290454 0.626134
15146 3 0.588311 0.29695 0.628738
15147 1 0.591109 0.304809 0.630622
8650 1 0.592214 0.307724 0.631022
8651 3 0.595075 0.314342 0.632226
15130 1 0.574529 0.316023 0.625664
12067 1 0.575251 0.317952 0.626647
347 3 0.611865 0.320095 0.619237
2442 1 0.605994 0.290877 0.617291
17330 3 0.608619 0.289945 0.638677
6196 1 0.607912 0.3099 0.61743
6198 1 0.606349 0.293563 0.616936
6197 3 0.606411 0.301479 0.61712
17331 1 0.611778 0.296725 0.638638
8439 1 0.613011 0.299533 0.63832
8438 3 0.61611 0.306816 0.637811
8437 1 0.61992 0.313895 0.636439
348 1 0.608729 0.312513 0.617837
11625 1 0.630372 0.291788 0.617717
475 1 0.621498 0.316226 0.636479
7197 1 0.646322 0.291958 0.62381
5138 3 0.635186 0.320313 0.619558
14813 3 0.634423 0.289495 0.638315
11623 1 0.633746 0.309291 0.618842
14814 1 0.637628 0.297179 0.639588
11624 2 0.631988 0.300428 0.617988
17142 1 0.638009 0.300594 0.639928
17141 3 0.639743 0.308463 0.639949
17140 1 0.643459 0.315742 0.640911
5139 1 0.634547 0.312674 0.619098
2166 1 0.645178 0.318797 0.640965
10795 1 0.665249 0.215231 0.643395
15916 1 0.629506 0.228704 0.672463
10582 1 0.521319 0.275229 0.644696
20396 3 0.52355 0.276577 0.67028
20395 1 0.520028 0.276027 0.663303
10584 1 0.519054 0.275843 0.660381
10583 3 0.519268 0.275562 0.652695
4437 1 0.539595 0.281054 0.652993
7872 1 0.554176 0.269251 0.666032
4436 3 0.540257 0.286074 0.64713
7871 3 0.557667 0.271153 0.672879
4087 1 0.546227 0.28564 0.670134
13592 3 0.583241 0.267364 0.645025
13593 1 0.586247 0.275099 0.648534
741 1 0.586604 0.277772 0.649509
740 3 0.586959 0.286144 0.651319
10648 1 0.590287 0.274848 0.670544
11836 1 0.581571 0.270055 0.672926
11837 3 0.577568 0.266022 0.667253
2421 1 0.5726 0.287333 0.662032
11838 1 0.57575 0.261888 0.660161
10649 3 0.593253 0.282579 0.670843
20086 1 0.604241 0.262427 0.643024
16621 1 0.612731 0.2741 0.655852
16622 3 0.614992 0.282385 0.656286
3909 1 0.633484 0.274383 0.658328
3908 3 0.636949 0.280211 0.6577
3907 1 0.639744 0.286574 0.658708
667 1 0.514779 0.314998 0.652129
14830 1 0.527454 0.29576 0.66698
2694 1 0.53697 0.311482 0.653016
668 3 0.516145 0.319034 0.659166
14831 3 0.531179 0.301275 0.671124
20284 1 0.568374 0.319143 0.671336
2693 3 0.540968 0.318344 0.655947
8637 1 0.552808 0.296287 0.65031
20285 3 0.564157 0.314627 0.666646
8636 3 0.555273 0.300258 0.656951
8635 1 0.557643 0.307017 0.661232
20286 1 0.558852 0.309146 0.662315
6579 1 0.570819 0.300195 0.643246
739 1 0.590866 0.292998 0.651842
10339 1 0.57251 0.30326 0.644221
276 1 0.592327 0.296224 0.652081
10340 3 0.576504 0.309982 0.646176
275 3 0.595586 0.303667 0.652936
10341 1 0.581009 0.315138 0.651137
2420 3 0.575499 0.29327 0.666004
2419 1 0.578287 0.299962 0.66961
12262 1 0.582245 0.317072 0.652332
14293 1 0.579277 0.302188 0.671129
274 1 0.599419 0.311249 0.654242
10650 1 0.595814 0.290778 0.672542
15756 1 0.596563 0.293456 0.6729
14794 1 0.569737 0.321345 0.673242
16623 1 0.617553 0.290414 0.657917
1551 1 0.6184 0.292842 0.657978
8646 1 0.600968 0.313402 0.654436
1550 3 0.621287 0.299931 0.657472
8645 3 0.606213 0.31921 0.655454
1549 1 0.624038 0.306702 0.658615
11827 1 0.625302 0.309328 0.658672
11828 3 0.6286 0.315814 0.658482
15755 3 0.600227 0.300269 0.673941
18588 1 0.656808 0.321213 0.660676
4059 1 0.640934 0.289291 0.658286
4058 3 0.643737 0.295962 0.657327
4711 1 0.65574 0.318552 0.659848
4057 1 0.647686 0.303199 0.656636
4713 1 0.648758 0.305462 0.65696
4712 3 0.65207 0.31245 0.657817
15917 3 0.628059 0.235378 0.676853
15918 1 0.625564 0.242142 0.680933
1768 1 0.625012 0.244422 0.682517
1769 2 0.623947 0.25102 0.68674
20397 1 0.528487 0.277432 0.676765
11181 1 0.530488 0.277655 0.679106
11180 3 0.534219 0.278716 0.685517
11179 1 0.538021 0.278057 0.692566
7870 1 0.564021 0.273685 0.678259
15043 1 0.566045 0.274826 0.680396
15044 3 0.572057 0.27859 0.684214
15045 1 0.578255 0.282548 0.686853
16120 1 0.579963 0.284107 0.687977
1635 1 0.621253 0.278763 0.677766
1634 3 0.624606 0.286382 0.676666
10126 1 0.600852 0.281895 0.687821
10127 3 0.604612 0.286857 0.69074
11866 1 0.623857 0.261459 0.691577
1770 1 0.623476 0.258252 0.690466
11867 3 0.623262 0.269985 0.692843
11868 1 0.626923 0.277523 0.692808
9 1 0.628549 0.280192 0.693233
8611 1 0.638734 0.260069 0.677231
8612 3 0.639973 0.267948 0.677508
8613 1 0.642435 0.276033 0.676782
6615 1 0.643191 0.278638 0.676416
6614 3 0.646387 0.286527 0.676574
8 3 0.632676 0.287421 0.694552
14832 1 0.536878 0.305658 0.674986
3690 1 0.521069 0.310342 0.689233
3689 3 0.527339 0.308777 0.693166
3688 1 0.534254 0.306653 0.695779
16186 1 0.53762 0.306188 0.696663
18691 1 0.510644 0.307305 0.691014
12520 1 0.539113 0.307537 0.676351
4088 3 0.551337 0.290909 0.675409
12521 3 0.544418 0.31251 0.680469
16187 3 0.544848 0.305656 0.699861
4089 1 0.55689 0.294742 0.679322
20126 3 0.562388 0.301853 0.685164
20127 1 0.558588 0.296669 0.680825
12522 1 0.548934 0.317337 0.684359
16188 1 0.551662 0.303415 0.702379
21435 1 0.554066 0.302886 0.703329
20125 1 0.565095 0.308612 0.689496
21022 1 0.566871 0.31078 0.691262
12420 1 0.55038 0.319712 0.685795
16550 3 0.593098 0.320646 0.684637
14294 3 0.582443 0.307767 0.676655
16121 3 0.58466 0.289348 0.691938
14295 1 0.586326 0.312974 0.680905
16549 1 0.588135 0.315104 0.682394
21023 3 0.570318 0.316994 0.694953
16122 1 0.590008 0.294692 0.695821
1428 1 0.59109 0.29729 0.697252
1427 3 0.592688 0.303897 0.700917
1426 1 0.595611 0.309674 0.702692
10630 1 0.597594 0.312004 0.703652
1633 1 0.62735 0.293741 0.676845
15754 1 0.603889 0.3073 0.674059
8782 1 0.605737 0.309452 0.674428
8968 1 0.628456 0.296798 0.676625
10128 1 0.607865 0.293113 0.692785
1500 1 0.609301 0.29607 0.692836
1499 3 0.612193 0.303265 0.692665
1498 1 0.616004 0.309761 0.69294
9064 1 0.617268 0.312068 0.693001
9065 3 0.621945 0.318666 0.694846
8969 3 0.63088 0.30459 0.676846
10631 3 0.602467 0.317821 0.704632
8783 3 0.610761 0.315661 0.67449
8784 1 0.615686 0.320617 0.675615
6613 1 0.650415 0.293256 0.675956
8970 1 0.63508 0.310393 0.678352
4735 1 0.637316 0.31291 0.678375
17004 1 0.652305 0.295626 0.676352
7 1 0.637364 0.294371 0.695038
6922 1 0.638918 0.297107 0.695158
6923 3 0.642752 0.30471 0.695348
17003 3 0.656642 0.301705 0.676399
6924 1 0.645776 0.312992 0.695628
17002 1 0.65948 0.30847 0.678386
9928 1 0.660573 0.310457 0.678649
15264 1 0.646685 0.315877 0.695367
4736 3 0.642258 0.318487 0.678467
9929 3 0.66566 0.316163 0.678545
9930 1 0.672394 0.31944 0.68224
13335 1 0.674912 0.320931 0.683803
10575 1 0.53043 0.270282 0.711552
10574 2 0.538123 0.269561 0.709959
16460 3 0.513681 0.285123 0.732926
16461 1 0.521202 0.286371 0.734293
16863 1 0.52395 0.287061 0.734901
10573 1 0.546092 0.268339 0.709681
12858 1 0.549487 0.268268 0.709775
12857 2 0.55782 0.268259 0.710052
12856 1 0.56638 0.270882 0.711254
20992 1 0.569113 0.272337 0.71115
3111 1 0.551299 0.286751 0.724788
3110 3 0.559421 0.285108 0.722899
3109 1 0.567157 0.282843 0.723432
715 1 0.581986 0.275969 0.737522
20993 3 0.575908 0.276694 0.709499
20994 1 0.582963 0.279393 0.709897
17938 1 0.585333 0.280616 0.710281
17939 3 0.592998 0.284431 0.711535
9709 1 0.581089 0.278466 0.736236
9710 3 0.580272 0.284208 0.732317
17940 1 0.601042 0.288274 0.711835
20025 1 0.603409 0.275267 0.725586
16918 1 0.604133 0.272877 0.722727
20024 3 0.601511 0.280727 0.730404
20023 1 0.600397 0.286585 0.735745
16919 3 0.606243 0.268498 0.715843
16920 1 0.608424 0.265298 0.708599
14404 1 0.642649 0.285861 0.734748
17951 3 0.535108 0.319648 0.713287
17952 1 0.52739 0.32066 0.715066
6921 1 0.523913 0.321037 0.715903
7332 1 0.538 0.312633 0.729011
16862 3 0.531287 0.291069 0.735941
21138 1 0.51776 0.300055 0.711962
18013 1 0.520962 0.299721 0.712912
18014 3 0.527861 0.297914 0.714475
7331 3 0.531642 0.311901 0.734545
18015 1 0.535033 0.29961 0.718832
15717 1 0.537744 0.299839 0.720121
21137 3 0.51073 0.300793 0.709686
20692 1 0.54508 0.318716 0.712091
17950 1 0.542373 0.318456 0.712471
20693 3 0.552688 0.320457 0.71214
21434 3 0.560275 0.302368 0.707567
15716 3 0.54568 0.301547 0.723846
15715 1 0.553891 0.304206 0.726154
3712 1 0.556335 0.304877 0.727221
3713 3 0.563213 0.306493 0.730568
21433 1 0.566859 0.302352 0.711127
1734 1 0.569211 0.302779 0.712131
3714 1 0.570176 0.306791 0.733404
1733 3 0.577653 0.303884 0.717052
1732 1 0.584131 0.30438 0.722343
11989 1 0.586438 0.304237 0.723854
11990 3 0.593752 0.303414 0.726206
19456 1 0.572794 0.306608 0.734894
9711 1 0.580912 0.289307 0.725605
19117 1 0.603666 0.290099 0.711823
11991 1 0.60158 0.30329 0.728422
19118 3 0.610564 0.294851 0.712027
19119 1 0.6162 0.299857 0.712138
19192 1 0.604356 0.30367 0.729733
19678 1 0.618701 0.30192 0.711999
19679 3 0.623998 0.307287 0.71239
19193 3 0.612547 0.304309 0.732101
8851 1 0.622733 0.302163 0.736646
19194 1 0.620178 0.30237 0.735663
19680 1 0.631129 0.312384 0.712512
18225 1 0.632824 0.31433 0.713052
12132 1 0.649679 0.316231 0.735735
12131 3 0.64404 0.321233 0.735073
17472 1 0.523991 0.285613 0.756226
17471 3 0.532001 0.287939 0.758502
15268 1 0.549232 0.277904 0.754945
15269 3 0.557494 0.279507 0.753341
4678 1 0.569006 0.283049 0.752286
15270 1 0.56593 0.282067 0.752194
717 1 0.582873 0.260929 0.743292
716 3 0.582745 0.268427 0.740325
4679 3 0.577575 0.286821 0.752935
17268 1 0.611692 0.25802 0.762119
17267 3 0.616597 0.262121 0.767284
13341 1 0.600177 0.279321 0.765406
9724 1 0.600674 0.28124 0.76333
9725 3 0.602199 0.286922 0.75706
1979 3 0.623024 0.289108 0.768857
14406 1 0.639473 0.277467 0.748622
14405 3 0.64087 0.281172 0.741559
15767 3 0.509455 0.306793 0.764439
20055 1 0.528099 0.315011 0.75421
2037 1 0.508188 0.312469 0.750033
7330 1 0.524045 0.31108 0.738237
2035 1 0.521544 0.310818 0.739914
2036 3 0.514426 0.311029 0.744679
20054 3 0.53584 0.317571 0.755416
15766 1 0.514526 0.308079 0.769106
16861 1 0.537232 0.294946 0.73877
9204 1 0.56191 0.321186 0.7583
9202 1 0.545751 0.318919 0.756111
18329 3 0.549074 0.29513 0.767212
20053 1 0.543257 0.318689 0.756122
18328 1 0.542023 0.291127 0.763993
17470 1 0.539363 0.290326 0.76217
16818 1 0.553334 0.299471 0.748186
16816 1 0.539822 0.296057 0.740584
16817 3 0.545876 0.298405 0.744649
20454 1 0.556031 0.300133 0.749199
20453 3 0.562972 0.30206 0.751545
9203 3 0.553368 0.320264 0.755717
3967 1 0.589377 0.307074 0.762691
15734 3 0.598785 0.306055 0.769499
10366 1 0.590012 0.309456 0.745968
19458 1 0.587602 0.308328 0.744176
3969 1 0.573008 0.306115 0.756777
19457 3 0.581097 0.306589 0.739314
10367 3 0.597284 0.311052 0.748742
4680 1 0.584317 0.291651 0.754877
20452 1 0.57051 0.305727 0.755264
3968 3 0.581211 0.306969 0.759943
15733 1 0.592216 0.306819 0.764518
13695 1 0.622616 0.313947 0.758104
13694 3 0.614714 0.312482 0.754643
13693 1 0.607284 0.311622 0.75215
6609 1 0.625181 0.314564 0.759199
10368 1 0.604521 0.311481 0.751411
9726 1 0.602149 0.293429 0.751183
8852 3 0.629957 0.303162 0.740275
1978 1 0.630438 0.291153 0.766333
6607 1 0.640319 0.317939 0.767762
6608 3 0.632499 0.316412 0.764052
19079 3 0.657484 0.319973 0.755392
6172 1 0.654826 0.316015 0.764091
19080 1 0.655601 0.316736 0.761041
8591 2 0.641241 0.292522 0.76242
4412 3 0.658292 0.294979 0.753196
8592 1 0.64883 0.292266 0.758272
8853 1 0.637499 0.305872 0.741098
8590 1 0.633245 0.291817 0.765018
4413 1 0.651271 0.292466 0.757154
4411 1 0.665165 0.296419 0.749089
20386 1 0.679822 0.319673 0.744015
14861 2 0.531371 0.338699 0.58777
14862 1 0.53394 0.340909 0.595312
11878 1 0.535384 0.341671 0.598005
11879 3 0.537418 0.343768 0.604614
14860 1 0.530366 0.335078 0.579939
10241 3 0.574153 0.327267 0.609148
6500 3 0.590026 0.370895 0.606811
6499 1 0.585806 0.363919 0.604875
6501 1 0.593045 0.378443 0.609176
11613 1 0.624808 0.370327 0.607636
17247 1 0.622113 0.371305 0.608957
11612 3 0.632188 0.367469 0.603643
11611 1 0.639192 0.364906 0.600142
3421 1 0.57236 0.438511 0.607839
20330 2 0.608842 0.431745 0.608173
20329 1 0.61089 0.429152 0.601019
14868 1 0.52139 0.352972 0.618848
14867 3 0.526947 0.3522 0.625908
14866 1 0.529324 0.351442 0.634331
10614 1 0.530158 0.351906 0.637097
3332 3 0.528243 0.324066 0.638599
855 1 0.541413 0.329822 0.636532
19518 1 0.552505 0.327019 0.619658
19516 1 0.559337 0.338498 0.627293
9861 1 0.56064 0.340918 0.629151
9860 3 0.564205 0.346726 0.633897
19517 3 0.555531 0.332586 0.62329
9688 1 0.541632 0.349574 0.613438
11880 1 0.540334 0.347425 0.611215
9689 3 0.546782 0.35322 0.618783
9859 1 0.567967 0.352132 0.639059
854 3 0.545914 0.335469 0.640775
8040 1 0.568468 0.353628 0.640478
66 1 0.551065 0.324438 0.618841
10242 1 0.572719 0.333841 0.610174
4899 1 0.572595 0.336369 0.610801
5631 1 0.594467 0.339624 0.620677
5630 3 0.593985 0.332211 0.61789
4771 1 0.594513 0.342281 0.62116
12069 1 0.581234 0.332153 0.633781
4836 1 0.582261 0.334759 0.635095
5629 1 0.593569 0.325506 0.613843
18019 1 0.593314 0.32283 0.61212
4898 3 0.572158 0.344637 0.612422
4772 3 0.595032 0.350218 0.623042
4897 1 0.572813 0.351596 0.615342
4835 3 0.585843 0.34155 0.639864
12068 3 0.577717 0.325186 0.630164
10095 1 0.599923 0.324913 0.634809
17067 1 0.573092 0.354478 0.617198
8652 1 0.598802 0.322041 0.634107
10094 3 0.603591 0.331854 0.636198
1703 3 0.616053 0.338615 0.621534
1704 1 0.614017 0.330735 0.620322
346 1 0.613518 0.327903 0.619951
10093 1 0.606544 0.338391 0.637132
17976 1 0.607417 0.341032 0.637413
1702 1 0.619433 0.346593 0.622313
17053 1 0.6206 0.349305 0.622738
477 1 0.629325 0.329678 0.639706
12757 1 0.630241 0.33313 0.639912
17975 3 0.610303 0.348465 0.639856
476 3 0.62545 0.322892 0.638783
5137 1 0.635685 0.328269 0.620163
3424 1 0.636581 0.331 0.620282
3425 3 0.640511 0.338729 0.620521
3426 1 0.643582 0.345976 0.62227
13252 1 0.644275 0.349013 0.622308
9690 1 0.548712 0.35782 0.625745
16066 1 0.549553 0.35965 0.627997
16067 3 0.551383 0.36532 0.633629
16068 1 0.552923 0.371527 0.639318
18649 1 0.553074 0.373545 0.641637
17066 3 0.574076 0.361839 0.621669
17065 1 0.572793 0.367887 0.626826
17023 1 0.572216 0.370177 0.628825
17024 3 0.573113 0.375744 0.633675
4773 1 0.595471 0.357175 0.626034
19402 1 0.595769 0.359349 0.627012
19403 3 0.596903 0.365851 0.629475
13465 1 0.593631 0.380711 0.610745
13466 3 0.59538 0.387475 0.615183
17025 1 0.573339 0.382549 0.638743
19861 1 0.573432 0.385064 0.640253
19404 1 0.596407 0.372399 0.633599
16059 1 0.596355 0.374831 0.635729
16058 3 0.596267 0.381061 0.639755
17054 3 0.623494 0.356718 0.624667
17245 1 0.606566 0.375449 0.61193
17246 3 0.614503 0.373394 0.611009
17055 1 0.626755 0.363421 0.625963
11929 1 0.628027 0.365986 0.626291
17974 1 0.612992 0.356123 0.641674
11930 3 0.630001 0.37352 0.628022
10051 1 0.631356 0.384212 0.631774
11931 1 0.631137 0.381288 0.630416
13253 3 0.645549 0.35718 0.623797
13254 1 0.648755 0.365004 0.625338
16983 1 0.649653 0.36742 0.625877
16982 3 0.651499 0.37386 0.62872
16981 1 0.653273 0.381636 0.630368
16837 1 0.653565 0.384586 0.630804
12089 2 0.689219 0.387906 0.639924
12090 1 0.6842 0.381327 0.641901
20846 3 0.560464 0.41319 0.639844
20845 1 0.554748 0.417055 0.63538
13467 1 0.597437 0.392615 0.619447
12253 1 0.598244 0.394975 0.621596
12254 3 0.601829 0.399648 0.626016
12255 1 0.603035 0.404877 0.630158
10053 1 0.630551 0.400389 0.635159
12489 1 0.63051 0.403154 0.635896
12488 3 0.630139 0.410115 0.638458
5559 1 0.603656 0.406904 0.632011
5558 3 0.606057 0.41156 0.636779
5557 1 0.609762 0.417098 0.640786
10052 3 0.631319 0.392782 0.633279
16838 3 0.655274 0.392855 0.632174
16839 1 0.658745 0.399111 0.631991
16029 1 0.660226 0.401836 0.63176
16028 3 0.66433 0.407778 0.631221
16027 1 0.668368 0.414521 0.629623
19924 1 0.670669 0.416282 0.628983
19925 2 0.677282 0.421072 0.627561
12088 1 0.692868 0.394112 0.639441
20940 1 0.699909 0.416713 0.637879
3422 2 0.571111 0.436044 0.615218
10873 1 0.572463 0.432887 0.625043
3423 1 0.572076 0.433572 0.62229
345 1 0.598996 0.442043 0.634618
10874 3 0.574302 0.428685 0.63267
10875 1 0.577438 0.425801 0.639755
344 3 0.596276 0.444038 0.641448
9080 3 0.603805 0.439105 0.625967
20331 1 0.606395 0.434123 0.615936
9081 1 0.606135 0.43588 0.618723
9079 1 0.600477 0.441392 0.63213
19926 1 0.682922 0.425762 0.624667
8571 1 0.508402 0.348501 0.644151
10613 3 0.533122 0.354394 0.644583
10196 3 0.512783 0.350344 0.655184
6643 1 0.526602 0.334495 0.653732
6644 3 0.529825 0.34016 0.660246
6645 1 0.534218 0.343671 0.665892
633 1 0.535503 0.34515 0.668107
10195 1 0.515092 0.354302 0.66242
10197 1 0.50924 0.348467 0.647221
3333 1 0.53085 0.327602 0.645943
669 1 0.519222 0.321613 0.665915
12955 1 0.520268 0.323126 0.66886
853 1 0.549433 0.340752 0.64574
1507 1 0.550866 0.342781 0.647487
18488 3 0.550959 0.331633 0.665506
1508 3 0.553618 0.347918 0.652324
14261 3 0.565265 0.330559 0.651246
18489 1 0.546278 0.326349 0.66142
14262 1 0.569235 0.335499 0.654705
1509 1 0.555883 0.35513 0.657282
632 3 0.539969 0.350572 0.673955
18487 1 0.555485 0.337397 0.66951
4333 1 0.557118 0.339436 0.671112
14260 1 0.561182 0.324126 0.647178
2692 1 0.545224 0.324508 0.659804
14844 1 0.560059 0.321742 0.645387
12264 1 0.590091 0.327732 0.660661
10000 1 0.570971 0.337508 0.656081
10001 3 0.575866 0.342654 0.659991
4834 1 0.588543 0.346812 0.645166
14446 1 0.589836 0.348805 0.647185
10176 1 0.598152 0.342375 0.668777
20446 1 0.599587 0.344396 0.669986
10002 1 0.578962 0.348246 0.664495
18504 1 0.580453 0.350316 0.665964
10175 3 0.595218 0.335772 0.665977
14447 3 0.593493 0.354334 0.652252
10174 1 0.591329 0.330077 0.661947
12263 3 0.58582 0.322381 0.656688
1582 1 0.613332 0.342033 0.655626
10561 1 0.614684 0.345283 0.656147
10562 3 0.618079 0.35329 0.657878
1583 3 0.611911 0.33442 0.654979
1584 1 0.610991 0.327859 0.654916
8644 1 0.609561 0.325051 0.654973
12758 3 0.63104 0.341167 0.641943
2165 3 0.646759 0.326152 0.641943
12759 1 0.632147 0.349337 0.643514
18587 3 0.659403 0.328342 0.663176
2164 1 0.649033 0.333897 0.64375
18033 1 0.650619 0.336737 0.644722
18032 3 0.654146 0.343336 0.645696
18031 1 0.657907 0.350479 0.645605
17726 3 0.637297 0.331351 0.660003
20466 1 0.632734 0.352289 0.643929
17725 1 0.638815 0.338631 0.662502
1708 1 0.659135 0.352824 0.645786
3240 1 0.639238 0.341868 0.663009
3239 3 0.6403 0.349644 0.664825
17727 1 0.634269 0.324429 0.65917
11829 1 0.633011 0.322242 0.658789
12542 3 0.68822 0.348674 0.671893
18586 1 0.662235 0.335189 0.667484
1965 1 0.662928 0.338085 0.668202
1964 3 0.664203 0.346341 0.66759
1963 1 0.666104 0.354325 0.668137
12543 1 0.687539 0.350922 0.664578
10612 1 0.534355 0.358438 0.651755
12306 1 0.53517 0.360108 0.654088
12305 3 0.536869 0.365081 0.659395
13700 3 0.51905 0.359444 0.670535
13701 1 0.51564 0.355881 0.664647
9472 1 0.556373 0.357425 0.659092
12304 1 0.539068 0.371693 0.663974
17590 1 0.539841 0.373742 0.666085
17591 3 0.542781 0.379876 0.671358
9473 3 0.558566 0.36347 0.665522
9474 1 0.561064 0.369048 0.670733
17706 1 0.562162 0.37153 0.672619
18650 3 0.554707 0.378934 0.647668
18651 1 0.554927 0.384872 0.652966
8721 1 0.555314 0.386989 0.654379
8039 3 0.570344 0.359462 0.645638
14448 1 0.596699 0.360313 0.657421
8038 1 0.572585 0.363697 0.651754
6816 1 0.573064 0.366343 0.654111
6815 3 0.576334 0.372024 0.658134
6814 1 0.578013 0.377907 0.661998
15579 1 0.597703 0.362649 0.658724
13156 1 0.579331 0.380231 0.663449
18503 3 0.584126 0.356032 0.67006
13157 3 0.583766 0.386323 0.666771
16057 1 0.595536 0.386964 0.643855
10633 1 0.614181 0.359093 0.64289
15578 3 0.601126 0.36891 0.662935
10563 1 0.622398 0.360407 0.660245
14337 1 0.623636 0.363293 0.661406
14336 3 0.626889 0.370584 0.664752
14335 1 0.629897 0.377416 0.666406
10634 3 0.614701 0.367018 0.643977
10635 1 0.615172 0.374361 0.644982
15577 1 0.60413 0.374694 0.667222
21207 1 0.605165 0.377367 0.668499
1501 1 0.615673 0.377462 0.645257
21206 3 0.607952 0.38384 0.670127
1502 3 0.617123 0.385276 0.646116
3886 1 0.631173 0.380136 0.667234
3887 3 0.633561 0.387113 0.66965
1709 3 0.661294 0.360649 0.646816
3238 1 0.643419 0.357223 0.666086
1698 1 0.644859 0.35997 0.666601
1710 1 0.660888 0.368096 0.649692
20465 3 0.635023 0.360155 0.643932
20346 1 0.660811 0.37089 0.650766
1697 3 0.647303 0.366779 0.667801
20464 1 0.638007 0.367363 0.644635
12624 1 0.638905 0.369366 0.644808
12623 3 0.641183 0.376423 0.64745
12622 1 0.642821 0.384262 0.650845
1327 1 0.642702 0.386951 0.65184
1696 1 0.6496 0.374374 0.668797
429 1 0.650456 0.376721 0.669188
428 3 0.653349 0.38426 0.671065
20345 3 0.661098 0.379082 0.652436
18733 1 0.666964 0.357496 0.667987
18734 3 0.670565 0.365168 0.668103
20344 1 0.663277 0.386144 0.651906
18735 1 0.672356 0.372884 0.66876
12849 1 0.67331 0.375515 0.668109
12848 3 0.675356 0.382712 0.667249
17799 1 0.663947 0.388704 0.651996
20847 1 0.565468 0.411361 0.646175
8720 3 0.556205 0.392498 0.658435
8719 1 0.555509 0.399131 0.661975
9924 1 0.555424 0.401914 0.662941
9923 2 0.555578 0.409236 0.66468
9922 1 0.557013 0.416211 0.666327
4216 1 0.556804 0.419359 0.667524
19862 3 0.573439 0.391227 0.644763
13158 1 0.587032 0.391967 0.671348
19863 1 0.573773 0.396948 0.650616
9018 1 0.574175 0.398929 0.652505
9017 3 0.575697 0.403744 0.658312
9016 1 0.574207 0.407219 0.665705
3027 1 0.579359 0.419455 0.658568
10182 1 0.573544 0.408643 0.668332
12027 1 0.595457 0.389706 0.645588
12026 3 0.594175 0.395901 0.648667
12025 1 0.594056 0.402484 0.653758
934 1 0.594712 0.404821 0.655483
935 3 0.596249 0.411565 0.658614
936 1 0.598418 0.42014 0.660606
3026 3 0.579073 0.422625 0.649798
4396 1 0.599121 0.42275 0.661156
2226 1 0.587659 0.394632 0.672657
1503 1 0.619654 0.391506 0.649673
1908 1 0.620466 0.393926 0.650976
1907 3 0.621898 0.400052 0.654741
1906 1 0.622818 0.407468 0.658473
18112 1 0.622922 0.410229 0.660005
18113 3 0.623461 0.417599 0.663189
19219 1 0.611113 0.419674 0.642072
21205 1 0.609029 0.391283 0.671572
16182 1 0.609511 0.393751 0.672159
12487 1 0.631319 0.418129 0.64194
14409 1 0.631665 0.42102 0.643039
3888 1 0.635585 0.393777 0.672486
1328 3 0.642701 0.39474 0.653738
1329 1 0.644231 0.401247 0.654891
862 1 0.644494 0.404396 0.655957
863 3 0.644473 0.412733 0.658529
864 1 0.645445 0.42127 0.660762
427 1 0.656171 0.39204 0.671338
1270 1 0.65734 0.394243 0.671473
1891 1 0.636048 0.396768 0.673667
1271 3 0.660155 0.40125 0.670857
20938 1 0.692281 0.40635 0.645891
9333 1 0.68871 0.419095 0.673803
12847 1 0.676235 0.389499 0.663569
17798 3 0.664512 0.396366 0.652637
17797 1 0.666161 0.404538 0.653338
11581 1 0.667193 0.407489 0.653273
11582 3 0.669176 0.41542 0.653237
1272 1 0.661898 0.408548 0.673401
20939 2 0.695278 0.412368 0.643063
9331 1 0.698596 0.414825 0.662026
9332 2 0.694256 0.417499 0.667775
4217 3 0.558423 0.425069 0.670485
343 1 0.590101 0.44675 0.646463
10143 1 0.583521 0.441678 0.670055
3025 1 0.578032 0.425001 0.642358
18114 1 0.624508 0.424644 0.664975
19220 3 0.614015 0.425309 0.646057
19221 1 0.615927 0.432129 0.650244
4397 3 0.601617 0.429365 0.662868
12075 1 0.624247 0.427632 0.666482
12073 1 0.62067 0.442998 0.673441
12074 3 0.622176 0.43481 0.669659
4398 1 0.603122 0.437109 0.663029
20370 1 0.638274 0.45364 0.65505
14408 3 0.634022 0.427752 0.645597
14407 1 0.634841 0.435588 0.648565
20368 1 0.635362 0.438552 0.649667
2052 1 0.645465 0.424105 0.661737
2051 3 0.645647 0.432091 0.665251
20369 3 0.63717 0.446568 0.651618
2050 1 0.646741 0.438977 0.669136
13722 1 0.642665 0.450124 0.669096
10860 1 0.658667 0.44517 0.666251
11583 1 0.673524 0.423753 0.654103
10168 1 0.674696 0.426036 0.653809
10859 3 0.664439 0.442253 0.671795
10169 2 0.67754 0.433709 0.653128
10170 1 0.678541 0.440826 0.650783
12957 1 0.525973 0.328535 0.681254
18264 1 0.527497 0.329793 0.68389
18263 3 0.53139 0.332977 0.690747
18262 1 0.536009 0.336914 0.694868
4800 1 0.537346 0.338394 0.697021
12956 3 0.523623 0.326676 0.675961
4334 3 0.56114 0.345388 0.674994
12419 3 0.552662 0.326022 0.690057
4799 3 0.541588 0.344352 0.70117
4335 1 0.564632 0.351282 0.678874
7545 1 0.565952 0.353072 0.680253
8991 1 0.558497 0.333926 0.695036
12418 1 0.556453 0.331846 0.693772
8990 3 0.563411 0.339291 0.698551
4798 1 0.546029 0.349497 0.704389
13741 1 0.547891 0.351383 0.705622
8989 1 0.569103 0.344262 0.702466
14795 3 0.573666 0.328032 0.67742
12804 1 0.571203 0.345994 0.704262
14796 1 0.578134 0.334123 0.680968
15420 1 0.580292 0.336474 0.682229
15419 3 0.58422 0.34114 0.686573
15418 1 0.587827 0.34673 0.68965
6001 1 0.58929 0.348871 0.690637
12038 3 0.581874 0.330221 0.702864
6002 3 0.593087 0.354123 0.694174
12039 1 0.576737 0.324249 0.700137
16551 1 0.598121 0.32645 0.686403
12642 1 0.599686 0.328558 0.686736
21024 1 0.574279 0.322249 0.69894
20447 3 0.603948 0.3502 0.674438
9066 1 0.625494 0.324165 0.694885
12175 1 0.626825 0.326996 0.694943
12641 3 0.604438 0.335009 0.688433
10557 1 0.617636 0.32313 0.675666
12640 1 0.607671 0.340279 0.690864
17757 1 0.609093 0.342635 0.692329
10555 1 0.623984 0.335791 0.678092
18238 1 0.624799 0.338827 0.678363
17756 3 0.613459 0.348713 0.696117
10556 3 0.621675 0.329293 0.676625
18239 3 0.626631 0.346976 0.679449
17755 1 0.618553 0.354604 0.7001
18240 1 0.629486 0.355094 0.682123
12176 3 0.631489 0.334459 0.697268
12177 1 0.635919 0.34152 0.698683
5253 1 0.637515 0.34399 0.699628
5252 3 0.642548 0.34994 0.702082
16289 3 0.648358 0.336184 0.67994
15652 1 0.651606 0.347506 0.681179
16290 1 0.650984 0.344516 0.680642
15653 3 0.654889 0.354577 0.683408
16288 1 0.646358 0.328766 0.678359
4737 1 0.645439 0.32592 0.678285
15262 1 0.65297 0.330238 0.698049
15263 3 0.649569 0.323556 0.696294
12541 1 0.691124 0.345854 0.678715
20240 3 0.674787 0.350436 0.696556
20241 1 0.682504 0.348304 0.697383
13334 3 0.679196 0.324356 0.687642
13333 1 0.682772 0.328199 0.693157
4221 1 0.684743 0.329527 0.695305
20239 1 0.666163 0.351982 0.697783
4220 2 0.691265 0.331978 0.699182
4219 1 0.697321 0.335539 0.70286
11365 1 0.700296 0.337058 0.704375
13699 1 0.520184 0.363878 0.676869
20815 1 0.519975 0.365181 0.679956
20816 3 0.519809 0.367675 0.687017
20817 1 0.519218 0.369295 0.694881
17592 1 0.544065 0.385957 0.675304
7544 3 0.568787 0.358634 0.685067
17705 3 0.566467 0.37748 0.677689
631 1 0.543275 0.356714 0.679177
14286 1 0.544557 0.35907 0.680747
14285 3 0.54746 0.364448 0.685904
14284 1 0.549594 0.370875 0.690073
12490 1 0.550898 0.373068 0.691376