ITEM: TIMESTEP
25000000
ITEM: NUMBER OF ENTRIES
9193
ITEM: BOX BOUNDS pp pp pp
0 50
0 50
0 50
ITEM: ENTRIES c_binfo[1] c_binfo[2] c_binfo[3] 
2 6278 6279 
2 20072 20073 
3 3235 3236 
1 3235 12558 
3 12557 12558 
3 12556 12557 
3 3236 3237 
2 4175 4176 
2 4174 4175 
2 6316 6317 
2 2228 2229 
2 2227 2228 
3 17692 17693 
3 17693 17694 
2 7135 7136 
2 1532 1533 
2 1531 1532 
2 6917 6918 
2 6916 6917 
2 19931 19932 
2 19930 19931 
2 7750 7751 
1 7750 19930 
2 7751 7752 
3 16402 16403 
2 13300 13301 
2 13301 13302 
3 16403 16404 
2 6914 6915 
2 10775 10776 
2 10774 10775 
2 12865 12866 
2 11858 11859 
2 11857 11858 
1 1686 11857 
3 7489 7490 
3 7490 7491 
3 4616 4617 
3 4615 4616 
3 17423 17424 
3 17422 17423 
3 9721 9722 
3 9722 9723 
3 8687 8688 
2 17108 17109 
2 1256 1257 
2 12866 12867 
2 3719 3720 
2 3718 3719 
2 19024 19025 
2 19025 19026 
2 1685 1686 
3 17296 17297 
2 1684 1685 
2 12875 12876 
2 12874 12875 
2 11899 11900 
2 11900 11901 
2 2636 2637 
2 16715 16716 
2 16714 16715 
3 16681 16682 
3 16682 16683 
3 10328 10329 
3 6017 6018 
3 6016 6017 
3 11803 11804 
3 10327 10328 
1 10327 11805 
3 11804 11805 
2 15134 15135 
2 15133 15134 
1 3381 8802 
3 3380 3381 
3 3379 3380 
1 3379 9058 
3 9058 9059 
2 8800 8801 
2 8801 8802 
3 8686 8687 
3 4733 4734 
3 4732 4733 
1 2940 4732 
3 16384 16385 
3 16385 16386 
2 17107 17108 
1 4734 17107 
2 2939 2940 
2 1255 1256 
3 9371 9372 
3 9370 9371 
2 6535 6536 
3 7042 7043 
1 7044 7075 
3 7075 7076 
3 7043 7044 
3 16631 16632 
3 7076 7077 
1 7077 9489 
2 1061 1062 
2 1060 1061 
1 1060 9372 
3 17297 17298 
3 9488 9489 
3 9487 9488 
3 1474 1475 
3 1475 1476 
3 12433 12434 
3 12434 12435 
2 14428 14429 
2 14429 14430 
2 8107 8108 
2 8108 8109 
2 12841 12842 
2 12842 12843 
2 844 845 
1 844 6813 
2 845 846 
3 11386 11387 
3 11387 11388 
3 11705 11706 
3 11704 11705 
3 4819 4820 
3 4820 4821 
3 134 135 
3 133 134 
2 2635 2636 
3 7430 7431 
3 3041 3042 
3 3040 3041 
1 3040 7431 
3 16496 16497 
3 16495 16496 
3 7429 7430 
2 7238 7239 
2 7237 7238 
3 9362 9363 
3 9361 9362 
2 9970 9971 
2 9971 9972 
2 8425 8426 
2 2785 2786 
2 2786 2787 
3 9059 9060 
3 7670 7671 
3 7669 7670 
2 18448 18449 
2 13898 13899 
2 13897 13898 
3 16429 16430 
2 2938 2939 
1 2938 16429 
3 16430 16431 
2 20336 20337 
2 20335 20336 
2 6536 6537 
3 16630 16631 
1 3531 19636 
3 3530 3531 
3 3529 3530 
3 10160 10161 
3 10159 10160 
3 2194 2195 
3 2195 2196 
3 19637 19638 
3 19636 19637 
3 18505 18506 
2 13072 13073 
1 13072 15690 
3 18506 18507 
3 14740 14741 
1 14740 17518 
3 17518 17519 
3 15688 15689 
1 15688 17520 
3 17519 17520 
3 15689 15690 
3 10090 10091 
1 10090 18507 
3 14741 14742 
3 6811 6812 
3 6812 6813 
2 4331 4332 
3 20525 20526 
3 9374 9375 
3 9373 9374 
3 20524 20525 
2 4561 4562 
2 20246 20247 
3 1273 1274 
1 1273 20245 
2 20245 20246 
3 1274 1275 
3 12605 12606 
3 12604 12605 
1 12606 16495 
1 8457 18349 
3 18349 18350 
3 8456 8457 
3 18350 18351 
3 8455 8456 
3 7909 7910 
3 10825 10826 
3 10826 10827 
2 6460 6461 
1 6460 7239 
2 6461 6462 
3 7910 7911 
2 4658 4659 
2 5162 5163 
2 5161 5162 
2 4657 4658 
1 4657 5161 
2 1363 1364 
2 1364 1365 
1 4161 20337 
2 4160 4161 
3 19043 19044 
2 4159 4160 
3 19042 19043 
1 19042 19233 
2 19232 19233 
3 2821 2822 
3 2822 2823 
2 15712 15713 
2 13073 13074 
3 10091 10092 
1 10092 10872 
3 10871 10872 
3 6409 6410 
3 6410 6411 
2 18847 18848 
3 10870 10871 
1 10870 18849 
2 18848 18849 
3 19886 19887 
3 19885 19886 
2 5798 5799 
2 5797 5798 
2 2398 2399 
3 2239 2240 
3 2240 2241 
3 21428 21429 
3 21427 21428 
3 13028 13029 
3 13027 13028 
3 20933 20934 
1 14643 20934 
3 17773 17774 
3 17774 17775 
2 19231 19232 
3 14641 14642 
3 14642 14643 
3 19702 19703 
3 19703 19704 
3 15827 15828 
3 15826 15827 
3 8920 8921 
3 8921 8922 
2 15713 15714 
2 20083 20084 
2 20084 20085 
2 5836 5837 
2 5837 5838 
3 14473 14474 
2 2399 2400 
2 18574 18575 
1 4191 6324 
2 6035 6036 
2 6034 6035 
1 2400 6034 
2 18575 18576 
2 4189 4190 
3 14710 14711 
2 4190 4191 
3 14711 14712 
2 5381 5382 
2 5380 5381 
2 13657 13658 
3 6560 6561 
1 6561 13657 
3 6559 6560 
2 16412 16413 
2 16411 16412 
2 21287 21288 
3 358 359 
1 358 13834 
2 13835 13836 
2 13834 13835 
2 21286 21287 
3 13276 13277 
3 13277 13278 
2 6052 6053 
2 6053 6054 
3 359 360 
2 9212 9213 
3 1201 1202 
3 1202 1203 
3 20932 20933 
3 18997 18998 
3 18998 18999 
2 5327 5328 
2 3355 3356 
1 3355 5326 
2 3356 3357 
2 5326 5327 
2 20440 20441 
3 16955 16956 
2 2896 2897 
2 2897 2898 
2 16172 16173 
2 16171 16172 
3 21590 21591 
3 21589 21590 
1 7932 19266 
2 19265 19266 
2 7931 7932 
1 19170 19264 
2 19264 19265 
3 20546 20547 
1 15513 20547 
3 20545 20546 
2 7930 7931 
2 6212 6213 
2 15512 15513 
2 15511 15512 
1 5838 15511 
2 6211 6212 
3 14474 14475 
3 9415 9416 
1 9415 14475 
3 9416 9417 
2 4237 4238 
2 4238 4239 
1 4239 5341 
3 5341 5342 
3 14717 14718 
3 14716 14717 
3 20872 20873 
3 20873 20874 
3 5342 5343 
2 20573 20574 
2 6322 6323 
1 6322 20572 
2 6323 6324 
2 20572 20573 
3 10012 10013 
3 10013 10014 
2 13658 13659 
2 20555 20556 
2 20554 20555 
3 18274 18275 
3 18275 18276 
2 9211 9212 
1 9211 18274 
2 20441 20442 
3 12653 12654 
3 12652 12653 
3 628 629 
3 629 630 
2 1055 1056 
2 1054 1055 
1 1054 4636 
2 4637 4638 
2 4636 4637 
3 11939 11940 
3 5735 5736 
3 5734 5735 
3 6725 6726 
3 6724 6725 
1 6724 17278 
2 17278 17279 
2 17279 17280 
2 17480 17481 
2 17479 17480 
1 6159 20482 
3 6157 6158 
1 6157 20874 
3 6158 6159 
3 19072 19073 
3 19073 19074 
2 20482 20483 
2 20483 20484 
3 10262 10263 
3 3851 3852 
3 3850 3851 
1 3850 10261 
3 10261 10262 
2 14983 14984 
2 14984 14985 
3 6703 6704 
3 6704 6705 
3 10550 10551 
3 10549 10550 
3 13445 13446 
1 6336 13444 
3 13444 13445 
3 15965 15966 
2 6334 6335 
2 6335 6336 
3 10288 10289 
1 10290 15964 
3 10289 10290 
3 15964 15965 
1 10014 10413 
2 10412 10413 
2 17872 17873 
2 17873 17874 
2 10411 10412 
1 10411 17872 
3 5114 5115 
3 5113 5114 
2 16624 16625 
2 16625 16626 
2 2062 2063 
2 2063 2064 
3 14327 14328 
3 14326 14327 
2 15727 15728 
2 15728 15729 
3 3508 3509 
1 3508 15729 
3 10295 10296 
3 10294 10295 
3 3509 3510 
3 19544 19545 
3 19543 19544 
2 19784 19785 
2 19783 19784 
3 481 482 
1 8532 10638 
3 8531 8532 
3 8530 8531 
1 8530 17301 
3 482 483 
3 10637 10638 
3 10636 10637 
3 18884 18885 
3 18883 18884 
2 8564 8565 
2 8563 8564 
1 11370 12654 
3 11368 11369 
3 11369 11370 
3 11938 11939 
2 21421 21422 
2 21422 21423 
3 3058 3059 
2 130 131 
2 131 132 
2 19411 19412 
1 7860 13446 
3 7409 7410 
3 7408 7409 
1 7408 7858 
3 7858 7859 
3 7859 7860 
2 19412 19413 
2 2086 2087 
3 16795 16796 
3 16796 16797 
3 11377 11378 
3 11378 11379 
3 13403 13404 
3 13402 13403 
1 13402 14328 
3 15880 15881 
3 15881 15882 
3 4154 4155 
3 4153 4154 
1 4153 15880 
3 11329 11330 
2 17300 17301 
3 15995 15996 
3 15994 15995 
3 5951 5952 
3 5950 5951 
3 3059 3060 
3 19892 19893 
3 19891 19892 
3 15448 15449 
3 15449 15450 
2 12406 12407 
2 20773 20774 
2 20774 20775 
2 18844 18845 
2 18845 18846 
1 18846 20775 
3 12326 12327 
3 12325 12326 
1 11331 15265 
3 11330 11331 
2 15265 15266 
2 15266 15267 
3 15302 15303 
3 15301 15302 
2 12706 12707 
1 12706 15301 
2 12707 12708 
3 16724 16725 
2 7724 7725 
2 7723 7724 
2 3097 3098 
2 12407 12408 
3 2891 2892 
1 2892 19377 
3 2890 2891 
1 2890 5256 
3 19376 19377 
3 19375 19376 
2 9695 9696 
2 11884 11885 
2 16111 16112 
1 11886 16111 
2 11885 11886 
2 7534 7535 
1 7534 19345 
2 7535 7536 
3 19345 19346 
3 20684 20685 
3 20683 20684 
3 16723 16724 
1 16723 20683 
2 9382 9383 
2 9383 9384 
3 20708 20709 
3 20707 20708 
2 3098 3099 
3 12035 12036 
3 12034 12035 
3 1643 1644 
3 18061 18062 
3 9176 9177 
3 9175 9176 
3 18281 18282 
3 18280 18281 
2 5255 5256 
2 5254 5255 
3 10069 10070 
3 10070 10071 
3 3830 3831 
3 3829 3830 
1 3829 5823 
3 18023 18024 
3 20048 20049 
3 4036 4037 
1 4036 20047 
3 20047 20048 
2 5725 5726 
2 11605 11606 
2 19648 19649 
2 19649 19650 
1 885 19650 
1 5727 11605 
2 5726 5727 
2 883 884 
2 884 885 
3 3626 3627 
2 9694 9695 
3 8260 8261 
1 3627 8262 
3 8261 8262 
2 16112 16113 
3 11617 11618 
3 11618 11619 
2 12742 12743 
2 12743 12744 
3 19346 19347 
3 18148 18149 
3 18149 18150 
2 3179 3180 
2 3178 3179 
3 7484 7485 
3 7483 7484 
2 1940 1941 
2 1939 1940 
3 2732 2733 
3 18598 18599 
3 5314 5315 
3 5315 5316 
3 18599 18600 
2 18115 18116 
2 18116 18117 
3 5759 5760 
3 5758 5759 
3 1642 1643 
3 18062 18063 
3 3187 3188 
2 15244 15245 
2 15245 15246 
3 3188 3189 
3 15056 15057 
3 15055 15056 
3 19651 19652 
3 19652 19653 
3 11713 11714 
3 11714 11715 
1 10356 11715 
3 10355 10356 
3 10354 10355 
1 9843 10354 
3 9842 9843 
3 9841 9842 
1 2505 9841 
2 2504 2505 
3 5822 5823 
3 5821 5822 
3 277 278 
3 278 279 
3 18022 18023 
3 1228 1229 
1 1228 18022 
3 8834 8835 
3 4037 4038 
3 1229 1230 
3 305 306 
3 304 305 
1 304 8835 
2 10433 10434 
1 1230 10434 
2 14755 14756 
2 14756 14757 
3 5539 5540 
2 13616 13617 
2 13615 13616 
1 5541 13615 
3 5540 5541 
2 19988 19989 
2 19987 19988 
3 3625 3626 
1 11748 21531 
3 21530 21531 
3 21529 21530 
3 14149 14150 
3 14150 14151 
3 10628 10629 
1 10629 12744 
3 5555 5556 
3 5554 5555 
1 5556 12903 
2 20915 20916 
2 20914 20915 
3 5987 5988 
1 5988 10627 
3 10627 10628 
2 18482 18483 
2 18481 18482 
2 3454 3455 
1 3454 18483 
2 3455 3456 
2 7225 7226 
2 7226 7227 
2 9934 9935 
2 9935 9936 
2 14950 14951 
1 14950 21307 
2 14951 14952 
2 21308 21309 
2 21307 21308 
2 2503 2504 
3 14995 14996 
3 14996 14997 
2 10432 10433 
3 11348 11349 
3 11347 11348 
2 13222 13223 
3 11731 11732 
1 11731 13222 
3 11732 11733 
2 6164 6165 
2 6163 6164 
2 20017 20018 
1 6165 20017 
3 11138 11139 
1 11139 13038 
3 11137 11138 
2 4006 4007 
2 4007 4008 
3 11614 11615 
3 11615 11616 
2 13582 13583 
2 13583 13584 
2 20018 20019 
2 15643 15644 
3 11629 11630 
3 11630 11631 
2 19823 19824 
2 19822 19823 
2 10 11 
1 10 13705 
2 11 12 
2 13705 13706 
2 13706 13707 
3 16702 16703 
1 16702 19996 
2 19996 19997 
3 16703 16704 
3 11482 11483 
3 11483 11484 
3 14821 14822 
3 14822 14823 
3 20704 20705 
3 20705 20706 
2 8869 8870 
2 8870 8871 
3 6247 6248 
2 13229 13230 
2 13228 13229 
3 17504 17505 
2 4933 4934 
3 8134 8135 
3 8135 8136 
2 11059 11060 
1 11059 15645 
2 15644 15645 
2 11060 11061 
3 3778 3779 
2 19997 19998 
3 16072 16073 
3 16073 16074 
3 9974 9975 
3 9973 9974 
1 6249 9973 
3 6248 6249 
3 17503 17504 
3 21157 21158 
3 21158 21159 
2 7756 7757 
2 7757 7758 
3 3779 3780 
3 19529 19530 
3 9164 9165 
1 9165 16210 
3 16210 16211 
3 1085 1086 
2 8795 8796 
2 8794 8795 
1 8794 16212 
3 16211 16212 
3 15992 15993 
3 15991 15992 
3 19528 19529 
3 9163 9164 
3 1084 1085 
3 3068 3069 
3 3067 3068 
3 517 518 
1 517 3067 
3 518 519 
3 3335 3336 
3 3334 3335 
2 9754 9755 
2 9755 9756 
1 9756 11457 
2 11456 11457 
2 11455 11456 
3 15817 15818 
3 15818 15819 
1 3336 9619 
2 9619 9620 
2 9620 9621 
2 5282 5283 
2 5281 5282 
3 8344 8345 
3 8345 8346 
2 17639 17640 
2 17638 17639 
3 13606 13607 
3 13607 13608 
2 14134 14135 
2 11399 11400 
2 11398 11399 
2 8954 8955 
2 8953 8954 
2 9782 9783 
3 17588 17589 
3 17587 17588 
2 9781 9782 
2 6640 6641 
1 6640 17587 
2 6641 6642 
1 6642 13060 
3 13060 13061 
2 2492 2493 
2 2491 2492 
2 17189 17190 
2 17188 17189 
3 7012 7013 
1 7012 17190 
3 4315 4316 
3 8369 8370 
1 4317 8368 
3 8368 8369 
3 4316 4317 
1 8370 20394 
2 20393 20394 
2 20392 20393 
3 7013 7014 
2 7172 7173 
2 7171 7172 
1 7171 9162 
2 9161 9162 
3 161 162 
3 160 161 
1 160 13608 
1 162 18984 
2 18983 18984 
2 7513 7514 
2 7514 7515 
2 11317 11318 
2 11318 11319 
2 14338 14339 
2 14339 14340 
3 19634 19635 
3 19633 19634 
1 6693 20928 
2 20927 20928 
3 13061 13062 
1 13062 19635 
3 1291 1292 
1 1291 7465 
3 1292 1293 
1 1293 14154 
3 14153 14154 
3 7465 7466 
1 2493 10390 
3 10390 10391 
3 10391 10392 
3 14152 14153 
2 9089 9090 
2 18643 18644 
2 18644 18645 
2 9088 9089 
2 6760 6761 
2 6761 6762 
2 9160 9161 
3 11458 11459 
3 11459 11460 
3 12827 12828 
3 12826 12827 
2 7654 7655 
2 7655 7656 
3 11740 11741 
3 11741 11742 
2 5881 5882 
2 5882 5883 
3 892 893 
1 892 5883 
2 6691 6692 
2 6692 6693 
3 7466 7467 
3 8914 8915 
3 8915 8916 
3 545 546 
3 544 545 
2 14069 14070 
2 14068 14069 
3 1606 1607 
3 1607 1608 
3 13937 13938 
1 12780 13936 
3 13936 13937 
3 12779 12780 
2 8296 8297 
2 8297 8298 
2 11606 11607 
1 2913 8298 
3 20278 20279 
3 20279 20280 
2 3280 3281 
2 3281 3282 
3 7061 7062 
3 14225 14226 
3 1744 1745 
1 1744 14224 
3 14224 14225 
3 6217 6218 
3 6218 6219 
3 1745 1746 
2 9967 9968 
2 9968 9969 
3 15356 15357 
3 15355 15356 
1 7338 9969 
3 12778 12779 
3 4106 4107 
3 4105 4106 
2 13478 13479 
2 13477 13478 
2 2912 2913 
2 2911 2912 
3 8951 8952 
3 8950 8951 
3 650 651 
3 649 650 
3 18098 18099 
3 7060 7061 
1 7060 18097 
3 18097 18098 
1 2535 19500 
3 19498 19499 
3 19499 19500 
3 2534 2535 
3 2533 2534 
3 7336 7337 
3 7337 7338 
2 2459 2460 
2 2458 2459 
1 2458 5539 
3 1654 1655 
1 1654 18300 
3 18298 18299 
3 18299 18300 
3 11116 11117 
3 11117 11118 
2 18535 18536 
2 18536 18537 
2 9587 9588 
2 9586 9587 
2 4432 4433 
2 4433 4434 
3 3473 3474 
1 3474 17835 
3 13625 13626 
3 13624 13625 
3 4 5 
1 4 13624 
3 5 6 
3 3472 3473 
3 11527 11528 
3 11528 11529 
3 1360 1361 
1 1360 11677 
3 11677 11678 
3 11678 11679 
3 1361 1362 
1 11679 16690 
2 16690 16691 
1 16692 21190 
2 16691 16692 
2 21190 21191 
2 21191 21192 
1 8406 21192 
2 8405 8406 
2 8404 8405 
3 1282 1283 
3 4693 4694 
3 4694 4695 
3 1283 1284 
2 17182 17183 
2 13223 13224 
3 2242 2243 
3 2243 2244 
3 1655 1656 
2 11303 11304 
2 11302 11303 
3 5678 5679 
3 5677 5678 
3 5888 5889 
2 5422 5423 
1 5422 5889 
2 5423 5424 
2 17183 17184 
2 7796 7797 
2 8753 8754 
2 296 297 
2 8752 8753 
2 295 296 
2 509 510 
2 508 509 
2 16250 16251 
2 16249 16250 
2 10666 10667 
2 10667 10668 
2 6277 6278 
2 21221 21222 
3 8840 8841 
3 8839 8840 
2 16945 16946 
2 16946 16947 
3 10856 10857 
3 13987 13988 
3 13988 13989 
2 12733 12734 
2 12734 12735 
3 17633 17634 
3 3127 3128 
3 10855 10856 
3 19804 19805 
3 19805 19806 
3 8551 8552 
3 3128 3129 
3 17486 17487 
3 17485 17486 
3 17632 17633 
2 17981 17982 
2 17980 17981 
3 8552 8553 
3 13609 13610 
2 18449 18450 
3 11557 11558 
3 11558 11559 
2 7150 7151 
3 19630 19631 
3 19631 19632 
3 13610 13611 
3 17012 17013 
3 17011 17012 
3 21415 21416 
3 21416 21417 
2 2987 2988 
2 5120 5121 
2 2986 2987 
3 5098 5099 
3 5099 5100 
1 5100 8451 
3 8450 8451 
2 3844 3845 
2 3845 3846 
2 17917 17918 
2 17918 17919 
3 16291 16292 
1 16291 17919 
3 16292 16293 
2 5119 5120 
3 7445 7446 
3 7444 7445 
3 6199 6200 
3 8449 8450 
2 13390 13391 
2 17495 17496 
1 17490 17496 
2 17489 17490 
2 17488 17489 
2 6671 6672 
2 6670 6671 
1 6670 13954 
2 13955 13956 
2 13954 13955 
2 17494 17495 
3 6200 6201 
2 21101 21102 
2 3161 3162 
2 3160 3161 
1 3160 13392 
2 13391 13392 
2 17530 17531 
1 17530 21100 
2 21100 21101 
2 17531 17532 
2 12307 12308 
2 12308 12309 
2 197 198 
2 196 197 
1 196 12309 
2 16898 16899 
2 16897 16898 
3 6008 6009 
3 6007 6008 
1 6007 14539 
3 14539 14540 
3 14540 14541 
3 13784 13785 
1 13785 19260 
3 19259 19260 
2 4625 4626 
3 13783 13784 
2 17299 17300 
2 3980 3981 
1 3981 20431 
3 20431 20432 
3 20432 20433 
2 4624 4625 
3 19258 19259 
3 6245 6246 
3 6244 6245 
2 3979 3980 
2 17953 17954 
2 17954 17955 
3 11383 11384 
1 11383 17955 
3 11384 11385 
3 14653 14654 
3 13919 13920 
3 13918 13919 
1 13918 14653 
1 14655 17832 
3 14654 14655 
3 17831 17832 
3 17830 17831 
2 16103 16104 
3 21484 21485 
2 16102 16103 
2 11776 11777 
3 11084 11085 
3 11083 11084 
2 2869 2870 
2 2870 2871 
3 10607 10608 
3 10606 10607 
2 15332 15333 
1 2616 15333 
2 2615 2616 
2 2614 2615 
2 15331 15332 
2 12086 12087 
3 11902 11903 
3 14528 14529 
3 14527 14528 
2 14650 14651 
2 14651 14652 
2 4649 4650 
2 4648 4649 
2 12085 12086 
2 18134 18135 
2 4327 4328 
2 4328 4329 
3 13438 13439 
3 13439 13440 
3 12481 12482 
3 12482 12483 
3 9481 9482 
3 21106 21107 
3 9221 9222 
3 15562 15563 
3 15563 15564 
3 21107 21108 
3 9220 9221 
3 1604 1605 
3 1603 1604 
2 18133 18134 
2 20527 20528 
3 6298 6299 
1 6298 20527 
3 6299 6300 
3 19750 19751 
1 7908 19752 
3 19751 19752 
3 7907 7908 
2 9833 9834 
2 9832 9833 
3 12772 12773 
3 12773 12774 
3 17977 17978 
3 19946 19947 
3 19945 19946 
3 17978 17979 
2 13198 13199 
2 17110 17111 
2 17111 17112 
2 11717 11718 
2 11716 11717 
2 7112 7113 
2 7111 7112 
2 20642 20643 
2 20528 20529 
2 9031 9032 
2 9032 9033 
3 7906 7907 
3 20924 20925 
3 20923 20924 
3 18910 18911 
3 18911 18912 
3 11702 11703 
2 1141 1142 
2 13199 13200 
1 729 13200 
3 728 729 
3 727 728 
1 727 10497 
2 1142 1143 
2 20641 20642 
2 13211 13212 
2 13210 13211 
2 14095 14096 
2 14096 14097 
3 11701 11702 
2 1277 1278 
2 1276 1277 
1 1278 7249 
2 7249 7250 
3 328 329 
1 328 7251 
2 7250 7251 
3 9958 9959 
3 9959 9960 
3 329 330 
2 10496 10497 
2 10495 10496 
2 16354 16355 
3 2954 2955 
3 2953 2954 
3 7496 7497 
3 3071 3072 
3 3070 3071 
2 11873 11874 
3 8770 8771 
3 8771 8772 
2 3949 3950 
1 3949 14095 
2 3950 3951 
3 15155 15156 
3 3812 3813 
3 15154 15155 
3 3811 3812 
1 3811 15154 
3 16357 16358 
3 16358 16359 
2 2429 2430 
2 9880 9881 
1 9880 13587 
2 9881 9882 
3 6767 6768 
3 6766 6767 
1 2430 3636 
2 3634 3635 
2 3635 3636 
2 1097 1098 
2 1096 1097 
2 11872 11873 
3 3145 3146 
1 9657 9846 
3 9656 9657 
3 9655 9656 
2 19168 19169 
2 19169 19170 
2 20479 20480 
2 20480 20481 
2 2428 2429 
2 13585 13586 
2 13586 13587 
2 21251 21252 
1 8229 21250 
2 21250 21251 
3 8227 8228 
3 8228 8229 
3 15691 15692 
3 15692 15693 
3 5011 5012 
3 5012 5013 
2 9901 9902 
2 9902 9903 
3 10360 10361 
3 10361 10362 
3 19129 19130 
3 19130 19131 
2 9845 9846 
2 21044 21045 
2 12647 12648 
1 2901 12646 
2 12646 12647 
2 2899 2900 
2 2900 2901 
2 21043 21044 
2 16561 16562 
2 16562 16563 
3 6325 6326 
3 6326 6327 
3 17354 17355 
3 17353 17354 
3 8917 8918 
3 8918 8919 
1 780 8919 
3 778 779 
1 778 6169 
2 6169 6170 
2 6170 6171 
3 779 780 
3 2579 2580 
3 2578 2579 
2 18779 18780 
3 4840 4841 
3 4841 4842 
2 12986 12987 
2 12985 12986 
1 7578 12985 
2 18778 18779 
3 7576 7577 
3 7577 7578 
3 7894 7895 
3 2470 2471 
1 2470 7894 
3 7895 7896 
3 2471 2472 
3 8069 8070 
3 8068 8069 
2 5237 5238 
2 5236 5237 
3 8996 8997 
3 18614 18615 
3 8995 8996 
2 15350 15351 
2 15349 15350 
3 34 35 
3 2431 2432 
2 11294 11295 
2 11293 11294 
3 12118 12119 
3 12119 12120 
3 1577 1578 
3 1576 1577 
1 1576 12120 
3 35 36 
3 17666 17667 
3 17665 17666 
2 7283 7284 
3 5968 5969 
3 6833 6834 
3 6832 6833 
1 6832 7282 
2 7282 7283 
3 18613 18614 
3 13000 13001 
3 13001 13002 
3 9086 9087 
3 9085 9086 
3 895 896 
3 896 897 
3 7322 7323 
3 7321 7322 
1 7098 7323 
3 2432 2433 
2 15388 15389 
2 15389 15390 
3 5969 5970 
2 16052 16053 
3 4921 4922 
3 4922 4923 
3 16598 16599 
3 16597 16598 
3 8282 8283 
1 7554 8281 
3 8281 8282 
3 7553 7554 
3 7552 7553 
2 14281 14282 
2 14282 14283 
2 4672 4673 
1 4672 14283 
2 4673 4674 
3 1552 1553 
3 1553 1554 
2 18500 18501 
2 18499 18500 
3 7370 7371 
3 7369 7370 
3 4739 4740 
2 12457 12458 
1 12457 18499 
2 12458 12459 
3 4738 4739 
1 4738 12459 
2 7096 7097 
2 7097 7098 
2 15955 15956 
2 5728 5729 
1 5728 15955 
2 15956 15957 
2 5729 5730 
3 19843 19844 
3 19844 19845 
3 958 959 
2 4774 4775 
1 4774 19843 
3 959 960 
2 1349 1350 
2 1348 1349 
1 1348 16599 
3 10115 10116 
1 7902 10116 
3 7900 7901 
1 7900 9766 
3 9766 9767 
3 7901 7902 
3 9767 9768 
3 9113 9114 
3 9112 9113 
2 14629 14630 
2 14630 14631 
2 1175 1176 
2 1174 1175 
1 1174 4740 
3 11003 11004 
3 20702 20703 
3 20701 20702 
3 76 77 
1 76 19093 
3 19093 19094 
3 77 78 
3 19094 19095 
1 11550 20703 
3 11549 11550 
2 4588 4589 
2 4589 4590 
2 17827 17828 
1 12318 17829 
2 17828 17829 
3 12316 12317 
1 12316 17349 
3 12317 12318 
3 10114 10115 
1 10114 21228 
3 14975 14976 
3 14974 14975 
3 16733 16734 
1 8628 14220 
3 16732 16733 
3 8627 8628 
2 14219 14220 
3 8626 8627 
1 8626 16732 
2 5716 5717 
2 5717 5718 
1 81 5718 
2 18557 18558 
1 11049 18556 
2 18556 18557 
1 7227 18558 
3 21233 21234 
3 11048 11049 
3 11047 11048 
3 11002 11003 
3 21232 21233 
3 11548 11549 
2 4253 4254 
2 19796 19797 
2 19603 19604 
2 19795 19796 
2 19604 19605 
3 6451 6452 
3 6452 6453 
2 15011 15012 
3 12371 12372 
3 12370 12371 
2 18769 18770 
2 18770 18771 
2 9250 9251 
3 18253 18254 
3 8750 8751 
2 6595 6596 
1 6595 8751 
2 6596 6597 
3 18254 18255 
3 2177 2178 
1 2178 18255 
3 2176 2177 
3 16003 16004 
3 16004 16005 
3 21005 21006 
3 21004 21005 
1 16179 21006 
3 16178 16179 
3 14098 14099 
1 14098 19866 
3 14099 14100 
2 19864 19865 
3 18374 18375 
3 18373 18374 
2 18332 18333 
2 18331 18332 
3 4900 4901 
3 4901 4902 
1 4902 18375 
2 9251 9252 
3 17218 17219 
3 8749 8750 
3 4090 4091 
3 4091 4092 
2 7115 7116 
2 7114 7115 
3 11063 11064 
3 11062 11063 
3 7735 7736 
3 7736 7737 
3 21478 21479 
3 21479 21480 
3 12076 12077 
3 12077 12078 
2 11245 11246 
3 15413 15414 
2 11246 11247 
1 11247 15412 
3 15412 15413 
3 19951 19952 
3 19952 19953 
3 17576 17577 
3 17575 17576 
1 7671 20160 
3 20159 20160 
3 20158 20159 
1 18747 20158 
2 18746 18747 
3 8350 8351 
3 18091 18092 
3 18092 18093 
3 8351 8352 
2 18745 18746 
3 18689 18690 
3 17219 17220 
2 6289 6290 
2 6290 6291 
2 16123 16124 
2 16124 16125 
3 6964 6965 
3 6965 6966 
3 3910 3911 
1 3910 6966 
1 3912 16123 
3 3911 3912 
3 3394 3395 
3 3395 3396 
1 3396 3709 
2 3709 3710 
2 3710 3711 
2 20609 20610 
2 20608 20609 
3 9461 9462 
3 9460 9461 
3 6874 6875 
3 6875 6876 
2 3721 3722 
2 3722 3723 
2 14915 14916 
2 14914 14915 
2 10220 10221 
2 10219 10220 
1 10219 20935 
3 20935 20936 
3 20936 20937 
3 13097 13098 
3 13096 13097 
3 9638 9639 
3 9637 9638 
3 21482 21483 
3 21481 21482 
2 19882 19883 
2 19883 19884 
3 13754 13755 
3 13753 13754 
1 13753 19354 
3 19354 19355 
3 19355 19356 
3 10286 10287 
3 18688 18689 
3 18028 18029 
3 18029 18030 
3 10285 10286 
1 10285 18030 
1 3711 20269 
3 20269 20270 
3 20270 20271 
2 1036 1037 
1 1036 20271 
2 1037 1038 
3 7558 7559 
2 2932 2933 
2 2933 2934 
2 19670 19671 
1 2934 19671 
2 19669 19670 
2 1774 1775 
1 1774 19669 
3 8672 8673 
2 1775 1776 
2 7187 7188 
2 7186 7187 
3 8671 8672 
2 3782 3783 
2 14570 14571 
2 14569 14570 
2 9982 9983 
2 9983 9984 
3 17908 17909 
1 2967 17908 
3 17909 17910 
3 21517 21518 
3 21518 21519 
1 3012 21519 
2 4069 4070 
2 4070 4071 
2 5171 5172 
2 5170 5171 
3 9791 9792 
2 7945 7946 
2 7946 7947 
3 17258 17259 
3 17257 17258 
3 5207 5208 
3 5206 5207 
1 5206 7560 
3 7559 7560 
3 15023 15024 
3 15022 15023 
2 20792 20793 
2 4264 4265 
2 4265 4266 
2 4354 4355 
2 4355 4356 
3 15911 15912 
3 15910 15911 
3 11782 11783 
1 11784 19825 
3 19826 19827 
3 19825 19826 
3 11783 11784 
2 3781 3782 
1 3781 19827 
3 15902 15903 
3 15901 15902 
3 9128 9129 
3 7958 7959 
3 7957 7958 
3 4684 4685 
1 4684 7957 
2 11579 11580 
3 4685 4686 
2 11578 11579 
1 4686 11578 
3 9127 9128 
1 9127 17923 
3 17923 17924 
3 17924 17925 
2 16786 16787 
1 16786 17925 
2 16787 16788 
2 6872 6873 
3 2966 2967 
3 2965 2966 
3 3010 3011 
3 3011 3012 
3 9790 9791 
3 10541 10542 
3 293 294 
3 292 293 
2 9893 9894 
3 10540 10541 
2 9892 9893 
1 9892 10540 
2 20791 20792 
2 2668 2669 
2 2669 2670 
2 11143 11144 
2 11144 11145 
3 12718 12719 
3 17396 17397 
3 17395 17396 
2 1916 1917 
2 1915 1916 
2 4453 4454 
2 4454 4455 
3 3146 3147 
3 12893 12894 
3 12892 12893 
3 73 74 
1 73 7959 
3 21554 21555 
3 21553 21554 
3 74 75 
2 6676 6677 
2 16253 16254 
2 16252 16253 
2 6871 6872 
2 6677 6678 
1 6678 7269 
3 15925 15926 
2 7267 7268 
1 7267 15925 
2 7268 7269 
3 15926 15927 
3 16435 16436 
3 16436 16437 
2 10144 10145 
2 10145 10146 
1 7590 13968 
2 13967 13968 
2 7589 7590 
2 14659 14660 
2 7588 7589 
1 7588 14659 
2 14660 14661 
1 294 14661 
3 13066 13067 
1 13066 14136 
3 13067 13068 
2 14135 14136 
2 10202 10203 
2 10201 10202 
2 20347 20348 
1 2670 20347 
2 20348 20349 
3 12719 12720 
2 10951 10952 
2 10952 10953 
3 21509 21510 
3 21508 21509 
3 13076 13077 
3 13075 13076 
3 13724 13725 
3 13723 13724 
3 12347 12348 
3 12346 12347 
3 17645 17646 
3 17644 17645 
1 17644 19321 
2 19321 19322 
2 19322 19323 
2 9844 9845 
3 7990 7991 
3 7991 7992 
3 12128 12129 
3 12127 12128 
3 4522 4523 
1 4522 12127 
3 4523 4524 
3 2756 2757 
3 2755 2756 
3 4859 4860 
3 4858 4859 
2 18982 18983 
3 2852 2853 
2 20207 20208 
2 20206 20207 
2 13966 13967 
2 6746 6747 
2 6745 6746 
1 6745 13068 
2 21001 21002 
2 21002 21003 
3 19718 19719 
3 19717 19718 
1 19717 21003 
2 19742 19743 
2 12677 12678 
2 12676 12677 
1 12676 19743 
2 19741 19742 
2 7867 7868 
2 166 167 
1 166 7867 
2 167 168 
3 8860 8861 
1 8860 18147 
3 8861 8862 
1 8862 10459 
3 15158 15159 
3 15157 15158 
3 9511 9512 
1 9511 10461 
3 9512 9513 
3 10460 10461 
3 10459 10460 
3 11261 11262 
2 1505 1506 
1 1506 9513 
2 1504 1505 
3 11260 11261 
2 11984 11985 
2 11983 11984 
3 2851 2852 
3 893 894 
2 20012 20013 
2 20011 20012 
3 1081 1082 
3 1082 1083 
2 14671 14672 
2 14672 14673 
2 16400 16401 
2 7868 7869 
3 14480 14481 
3 14479 14480 
3 16927 16928 
1 14481 18145 
3 18146 18147 
3 18145 18146 
3 3124 3125 
1 3124 16929 
3 3125 3126 
3 16928 16929 
2 11689 11690 
3 3683 3684 
3 3682 3683 
2 8036 8037 
2 8035 8036 
1 8035 9028 
3 9028 9029 
3 9029 9030 
3 12329 12330 
1 9069 15504 
2 15503 15504 
3 9068 9069 
3 9067 9068 
2 1138 1139 
1 1138 20013 
1 1140 15502 
2 15502 15503 
2 1139 1140 
3 3601 3602 
3 3602 3603 
2 16399 16400 
3 8789 8790 
3 21076 21077 
3 21077 21078 
2 11690 11691 
3 8788 8789 
1 8788 18880 
2 18880 18881 
2 18881 18882 
3 12328 12329 
2 17860 17861 
2 17861 17862 
2 18166 18167 
2 18167 18168 
3 12283 12284 
3 12284 12285 
2 5606 5607 
2 5605 5606 
3 15871 15872 
3 15872 15873 
3 4997 4998 
1 4998 15873 
2 11248 11249 
2 11249 11250 
2 4972 4973 
2 4973 4974 
3 19268 19269 
3 19267 19268 
3 20225 20226 
3 20224 20225 
2 3853 3854 
1 3853 20224 
2 3854 3855 
3 12431 12432 
3 12430 12431 
1 6474 12430 
3 6473 6474 
3 6472 6473 
2 5467 5468 
1 5467 6472 
2 5468 5469 
1 5469 17860 
2 14917 14918 
2 14918 14919 
1 1884 17085 
3 1883 1884 
2 17084 17085 
2 17083 17084 
2 14804 14805 
3 4030 4031 
1 4030 14805 
3 4031 4032 
3 4996 4997 
2 16307 16308 
3 18305 18306 
2 16306 16307 
1 16306 18306 
2 1624 1625 
2 1625 1626 
1 1626 12432 
2 3650 3651 
2 3649 3650 
3 1882 1883 
2 1468 1469 
2 1469 1470 
2 989 990 
2 14803 14804 
2 20869 20870 
2 15221 15222 
2 15220 15221 
3 12112 12113 
3 12113 12114 
1 8409 12112 
2 8408 8409 
2 8407 8408 
2 8828 8829 
2 8827 8828 
3 17347 17348 
1 3057 17347 
2 3056 3057 
2 3055 3056 
3 8774 8775 
1 8775 19459 
3 19459 19460 
3 8773 8774 
1 8773 20259 
3 17348 17349 
2 20257 20258 
2 20258 20259 
3 12469 12470 
1 12469 18304 
3 18304 18305 
3 12470 12471 
3 19460 19461 
3 20899 20900 
2 9026 9027 
2 9025 9026 
2 4268 4269 
2 2273 2274 
2 2272 2273 
1 2272 4267 
2 4267 4268 
3 8833 8834 
2 7357 7358 
2 16499 16500 
1 13356 16498 
2 16498 16499 
2 9541 9542 
2 9542 9543 
2 17834 17835 
2 17833 17834 
2 988 989 
2 20870 20871 
3 2180 2181 
3 2179 2180 
2 6788 6789 
2 6787 6788 
3 4612 4613 
3 4613 4614 
3 12616 12617 
2 10331 10332 
1 10332 12616 
3 12617 12618 
2 18577 18578 
3 14045 14046 
3 14044 14045 
3 20900 20901 
2 18578 18579 
2 7358 7359 
2 3859 3860 
1 3859 13354 
2 13354 13355 
1 6570 11682 
2 6569 6570 
2 6568 6569 
2 13355 13356 
2 3860 3861 
3 8702 8703 
3 14195 14196 
2 10450 10451 
1 10450 14194 
3 14194 14195 
2 10451 10452 
2 21074 21075 
2 21073 21074 
3 313 314 
3 314 315 
3 21226 21227 
3 21227 21228 
3 11747 11748 
3 11746 11747 
3 2096 2097 
3 2095 2096 
1 2095 6285 
2 6004 6005 
1 6004 15009 
1 6006 6283 
3 6283 6284 
3 6284 6285 
2 14624 14625 
2 14623 14624 
2 6005 6006 
2 12901 12902 
2 1024 1025 
2 1025 1026 
3 391 392 
1 391 1026 
3 392 393 
2 18661 18662 
2 18662 18663 
3 5986 5987 
1 5986 18661 
3 15008 15009 
3 15007 15008 
2 12902 12903 
3 14209 14210 
3 14210 14211 
2 868 869 
2 14521 14522 
2 6829 6830 
2 6830 6831 
2 10282 10283 
2 10283 10284 
3 10490 10491 
3 10489 10490 
3 18889 18890 
3 18890 18891 
2 4004 4005 
3 13487 13488 
3 13486 13487 
1 4005 13488 
3 11957 11958 
3 11956 11957 
3 2512 2513 
1 2512 9144 
2 9143 9144 
3 2513 2514 
1 2514 13486 
3 6566 6567 
1 4968 9142 
2 9142 9143 
3 4889 4890 
3 4888 4889 
1 4888 16225 
2 16225 16226 
2 16226 16227 
1 1359 16227 
2 1358 1359 
2 1357 1358 
1 1357 9421 
2 9421 9422 
3 10067 10068 
3 10066 10067 
2 9422 9423 
3 3287 3288 
3 3286 3287 
3 9763 9764 
3 5074 5075 
3 9764 9765 
1 5076 14997 
3 5075 5076 
3 5974 5975 
1 5974 9168 
3 13634 13635 
3 19808 19809 
3 19807 19808 
3 19519 19520 
3 10397 10398 
3 19978 19979 
3 19979 19980 
3 2684 2685 
1 12753 19980 
3 2683 2684 
1 2683 19489 
3 12752 12753 
3 12751 12752 
3 19489 19490 
3 19490 19491 
3 17309 17310 
3 17308 17309 
2 18200 18201 
2 18199 18200 
2 14054 14055 
2 14053 14054 
3 5546 5547 
3 9758 9759 
3 9757 9758 
3 1835 1836 
3 1834 1835 
2 14522 14523 
2 18233 18234 
3 6329 6330 
3 6328 6329 
2 18232 18233 
3 12946 12947 
1 2817 12946 
3 2816 2817 
3 2815 2816 
3 6565 6566 
1 6565 8058 
3 8057 8058 
3 14113 14114 
3 14114 14115 
3 8056 8057 
3 12947 12948 
3 6418 6419 
1 6418 12948 
3 6419 6420 
3 15482 15483 
3 15481 15482 
1 15481 19801 
3 10256 10257 
3 10255 10256 
1 6420 15019 
2 15019 15020 
2 15020 15021 
2 968 969 
2 967 968 
2 19568 19569 
2 19567 19568 
1 19569 19803 
2 19801 19802 
2 19802 19803 
3 8660 8661 
3 8659 8660 
1 5976 8659 
3 5975 5976 
3 2704 2705 
1 2706 9013 
3 2705 2706 
2 14965 14966 
2 14966 14967 
1 14967 19809 
3 104 105 
2 970 971 
1 970 12751 
2 971 972 
1 972 6385 
2 6385 6386 
1 6387 12976 
2 12976 12977 
2 6386 6387 
3 10769 10770 
3 10768 10769 
1 10768 16809 
3 16807 16808 
3 16808 16809 
3 17869 17870 
1 8025 19491 
2 8024 8025 
2 8023 8024 
3 17870 17871 
2 9640 9641 
2 9641 9642 
3 13570 13571 
3 13571 13572 
3 5545 5546 
1 5545 13572 
3 5524 5525 
3 5525 5526 
2 6886 6887 
1 6886 12061 
2 12061 12062 
2 6887 6888 
3 9223 9224 
2 12062 12063 
3 16199 16200 
3 16198 16199 
2 14006 14007 
2 13337 13338 
3 97 98 
3 98 99 
3 19985 19986 
1 99 19986 
2 14005 14006 
1 14005 19200 
2 19199 19200 
2 19198 19199 
3 19087 19088 