ITEM: TIMESTEP
25000000
ITEM: NUMBER OF ENTRIES
1704
ITEM: BOX BOUNDS pp pp pp
0 50
0 50
0 50
ITEM: ENTRIES c_binfo[1] c_binfo[2] c_binfo[3] 
3 569 570 
3 568 569 
2 13271 13272 
3 1030 1031 
1 1030 13272 
2 13270 13271 
2 8570 8571 
2 8569 8570 
3 2765 2766 
3 2764 2765 
1 2764 18693 
3 21136 21137 
3 20170 20171 
3 20171 20172 
3 18692 18693 
3 533 534 
3 532 533 
3 16459 16460 
3 2476 2477 
1 2476 20172 
3 2477 2478 
3 5996 5997 
2 17879 17880 
3 5995 5996 
1 5995 17878 
2 17878 17879 
3 821 822 
3 820 821 
2 643 644 
1 643 8694 
2 8692 8693 
2 8693 8694 
1 267 8692 
2 644 645 
3 21470 21471 
3 5105 5106 
3 5104 5105 
1 5106 11955 
2 4639 4640 
2 4640 4641 
3 3023 3024 
3 18020 18021 
3 10240 10241 
3 21469 21470 
3 10796 10797 
1 10797 21027 
3 1121 1122 
3 1120 1121 
1 1120 18495 
3 18494 18495 
3 10325 10326 
3 10324 10325 
1 10324 18493 
3 18493 18494 
2 21025 21026 
1 10326 21025 
2 21026 21027 
3 1031 1032 
2 10477 10478 
2 10478 10479 
1 1032 10477 
2 18088 18089 
2 18089 18090 
3 6577 6578 
1 6577 18090 
3 13591 13592 
3 11954 11955 
3 11953 11954 
3 2440 2441 
3 2441 2442 
3 20087 20088 
3 17329 17330 
1 17329 20088 
3 8722 8723 
3 14812 14813 
3 8723 8724 
1 8724 11625 
3 7195 7196 
3 7196 7197 
3 3331 3332 
3 6349 6350 
3 6350 6351 
3 64 65 
1 64 4641 
3 1160 1161 
3 1159 1160 
1 1159 14842 
3 14842 14843 
3 14843 14844 
3 6578 6579 
3 4435 4436 
3 65 66 
3 3022 3023 
1 3022 15132 
3 15131 15132 
3 15145 15146 
3 15146 15147 
3 8650 8651 
1 8650 15147 
3 8651 8652 
3 15130 15131 
3 12067 12068 
1 12067 15130 
3 347 348 
1 2442 6198 
3 17330 17331 
3 6196 6197 
3 6197 6198 
1 8439 17331 
3 8438 8439 
3 8437 8438 
1 348 6196 
3 475 476 
1 475 8437 
3 5138 5139 
3 14813 14814 
2 11623 11624 
1 14814 17142 
2 11624 11625 
3 17141 17142 
3 17140 17141 
1 5139 11623 
1 2166 17140 
3 10795 10796 
3 15916 15917 
3 10582 10583 
3 20396 20397 
3 20395 20396 
1 10584 20395 
3 10583 10584 
3 4436 4437 
3 7871 7872 
3 4087 4088 
3 13592 13593 
1 741 13593 
3 740 741 
3 10648 10649 
3 11836 11837 
3 11837 11838 
3 10649 10650 
3 20086 20087 
3 16621 16622 
3 16622 16623 
3 3908 3909 
3 3907 3908 
1 3907 4059 
3 667 668 
3 14830 14831 
3 668 669 
3 14831 14832 
3 20284 20285 
3 2693 2694 
3 20285 20286 
3 8636 8637 
3 8635 8636 
1 8635 20286 
1 6579 10339 
3 739 740 
3 10339 10340 
1 276 739 
3 10340 10341 
3 275 276 
1 10341 12262 
3 2420 2421 
3 2419 2420 
1 2419 14293 
3 12262 12263 
3 14293 14294 
3 274 275 
1 274 8646 
1 10650 15756 
3 14794 14795 
1 14794 20284 
1 1551 16623 
3 1550 1551 
3 8645 8646 
3 1549 1550 
1 1549 11827 
3 11827 11828 
3 11828 11829 
3 15755 15756 
3 4058 4059 
3 4711 4712 
1 4711 18588 
3 4057 4058 
1 4057 4713 
3 4712 4713 
3 15917 15918 
2 1768 1769 
1 1768 15918 
2 1769 1770 
1 11181 20397 
3 11180 11181 
3 11179 11180 
3 7870 7871 
1 7870 15043 
3 15043 15044 
3 15044 15045 
1 15045 16120 
3 16120 16121 
3 1634 1635 
3 10126 10127 
3 10127 10128 
3 11866 11867 
1 1770 11866 
3 11867 11868 
1 9 11868 
3 8611 8612 
3 8612 8613 
1 6615 8613 
3 6614 6615 
3 8 9 
3 3689 3690 
3 3688 3689 
1 3688 16186 
3 16186 16187 
3 18691 18692 
3 12520 12521 
1 12520 14832 
3 4088 4089 
3 12521 12522 
3 16187 16188 
1 4089 20127 
3 20126 20127 
1 16188 21435 
3 20125 20126 
1 20125 21022 
3 21022 21023 
1 12420 12522 
3 16550 16551 
3 14294 14295 
3 16121 16122 
1 14295 16549 
3 16549 16550 
3 21023 21024 
1 1428 16122 
3 1427 1428 
3 1426 1427 
1 1426 10630 
3 10630 10631 
3 1633 1634 
1 1633 8968 
3 15754 15755 
3 8782 8783 
1 8782 15754 
3 8968 8969 
1 1500 10128 
3 1499 1500 
3 1498 1499 
1 1498 9064 
3 9064 9065 
3 9065 9066 
3 8969 8970 
3 10631 10632 
3 8783 8784 
1 8784 10557 
3 6613 6614 
1 6613 17004 
3 4735 4736 
1 4735 8970 
3 7 8 
1 7 6922 
3 6922 6923 
3 6923 6924 
3 17003 17004 
1 6924 15264 
3 17002 17003 
3 9928 9929 
1 9928 17002 
3 4736 4737 
3 9929 9930 
1 9930 13335 
2 10574 10575 
3 16460 16461 
1 16461 16863 
2 10573 10574 
1 10573 12858 
2 12857 12858 
2 12856 12857 
1 12856 20992 
3 20992 20993 
3 3110 3111 
3 3109 3110 
3 715 716 
1 715 9709 
3 20993 20994 
3 17938 17939 
1 17938 20994 
3 17939 17940 
3 9709 9710 
3 9710 9711 
1 17940 19117 
3 16918 16919 
1 16918 20025 
3 20024 20025 
3 20023 20024 
3 16919 16920 
3 14404 14405 
3 17951 17952 
1 6921 17952 
3 16862 16863 
3 18013 18014 
1 18013 21138 
3 18014 18015 
3 7331 7332 
1 15717 18015 
3 21137 21138 
3 20692 20693 
3 17950 17951 
1 17950 20692 
3 20693 20694 
3 21434 21435 
3 15716 15717 
3 15715 15716 
3 3712 3713 
1 3712 15715 
3 3713 3714 
3 21433 21434 
1 1734 21433 
1 3714 19456 
3 1733 1734 
3 1732 1733 
1 1732 11989 
3 11989 11990 
3 11990 11991 
3 19456 19457 
3 19117 19118 
1 11991 19192 
3 19118 19119 
1 19119 19678 
3 19192 19193 
3 19678 19679 
3 19679 19680 
3 19193 19194 
3 8851 8852 
1 8851 19194 
1 18225 19680 
3 12131 12132 
3 17471 17472 
3 15268 15269 
3 15269 15270 
3 4678 4679 
1 4678 15270 
3 716 717 
3 4679 4680 
3 17267 17268 
3 9724 9725 
1 9724 13341 
3 9725 9726 
3 1979 1980 
3 14405 14406 
3 15767 15768 
3 7330 7331 
3 2035 2036 
1 2035 7330 
3 2036 2037 
3 20054 20055 
3 15766 15767 
3 16861 16862 
3 9202 9203 
1 9202 20053 
3 18329 18330 
3 20053 20054 
3 18328 18329 
3 17470 17471 
1 17470 18328 
1 16818 20454 
3 16816 16817 
1 16816 16861 
3 16817 16818 
3 20453 20454 
3 9203 9204 
3 3967 3968 
1 3967 15733 
3 15734 15735 
3 10366 10367 
1 10366 19458 
1 3969 20452 
3 19457 19458 
3 10367 10368 
3 20452 20453 
3 3968 3969 
3 15733 15734 
3 13694 13695 
3 13693 13694 
1 6609 13695 
1 10368 13693 
3 8852 8853 
3 1978 1979 
1 1978 8590 
3 6607 6608 
3 6608 6609 
3 19079 19080 
3 6172 6173 
1 6172 19080 
2 8591 8592 
3 4412 4413 
2 8590 8591 
1 4413 8592 
3 4411 4412 
3 20386 20387 
2 14861 14862 
3 11878 11879 
1 11878 14862 
3 11879 11880 
2 14860 14861 
3 10241 10242 
3 6500 6501 
3 6499 6500 
1 6501 13465 
1 11613 17247 
3 11612 11613 
3 11611 11612 
2 3421 3422 
2 20330 20331 
2 20329 20330 
3 14867 14868 
3 14866 14867 
1 10614 14866 
3 3332 3333 
3 19516 19517 
1 9861 19516 
3 9860 9861 
3 19517 19518 
3 9688 9689 
1 9688 11880 
3 9689 9690 
3 9859 9860 
3 854 855 
1 8040 9859 
1 66 19518 
1 4899 10242 
3 5630 5631 
3 4771 4772 
1 4771 5631 
1 4836 12069 
3 5629 5630 
1 5629 18019 
3 18019 18020 
3 4898 4899 
3 4772 4773 
3 4897 4898 
1 4897 17067 
3 4835 4836 
3 12068 12069 
1 8652 10095 
3 10094 10095 
3 1703 1704 
3 346 347 
1 346 1704 
3 10093 10094 
1 10093 17976 
3 1702 1703 
1 1702 17053 
3 17053 17054 
1 477 12757 
3 12757 12758 
3 17975 17976 
3 476 477 
3 5137 5138 
3 3424 3425 
1 3424 5137 
3 3425 3426 
1 3426 13252 
3 13252 13253 
1 9690 16066 
3 16066 16067 
3 16067 16068 
1 16068 18649 
3 18649 18650 
3 17066 17067 
3 17065 17066 
3 17023 17024 
1 17023 17065 
3 17024 17025 
1 4773 19402 
3 19402 19403 
3 19403 19404 
3 13465 13466 
3 13466 13467 
1 17025 19861 
3 19861 19862 
1 16059 19404 
3 16058 16059 
3 17054 17055 
3 17245 17246 
3 17246 17247 
3 11929 11930 
1 11929 17055 
3 17974 17975 
3 11930 11931 
3 10051 10052 
1 10051 11931 
3 13253 13254 
1 13254 16983 
3 16982 16983 
3 16981 16982 
3 16837 16838 
1 16837 16981 
2 12089 12090 
3 20846 20847 
3 20845 20846 
3 12253 12254 
1 12253 13467 
3 12254 12255 
1 10053 12489 
3 12488 12489 
1 5559 12255 
3 5558 5559 
3 5557 5558 
1 5557 19219 
3 10052 10053 
3 16838 16839 
1 16029 16839 
3 16028 16029 
3 16027 16028 
1 16027 19924 
2 19924 19925 
2 19925 19926 
2 12088 12089 
2 3422 3423 
3 10873 10874 
1 3423 10873 
1 345 9079 
3 10874 10875 
3 344 345 
3 9080 9081 
1 9081 20331 
3 9079 9080 
1 8571 10197 
3 10613 10614 
3 10196 10197 
3 6643 6644 
3 6644 6645 
1 633 6645 
3 10195 10196 
1 10195 13701 
1 669 12955 
3 12955 12956 
3 853 854 
1 853 1507 
3 1507 1508 
3 18488 18489 
3 1508 1509 
3 14261 14262 
1 1509 9472 
3 632 633 
3 18487 18488 
3 4333 4334 
1 4333 18487 
3 14260 14261 
1 14260 14844 
3 2692 2693 
1 2692 18489 
3 10000 10001 
1 10000 14262 
3 10001 10002 
3 4834 4835 
1 4834 14446 
3 14446 14447 
1 10176 20446 
3 20446 20447 
1 10002 18504 
3 10175 10176 
3 14447 14448 
3 10174 10175 
1 10174 12264 
3 12263 12264 
3 1582 1583 
1 1582 10561 
3 10561 10562 
3 10562 10563 
3 1583 1584 
1 1584 8644 
3 8644 8645 
3 12758 12759 
3 2165 2166 
1 12759 20466 
3 18587 18588 
3 2164 2165 
1 2164 18033 
3 18032 18033 
3 18031 18032 
3 17726 17727 
3 17725 17726 
3 1708 1709 
1 1708 18031 
1 3240 17725 
3 3239 3240 
1 11829 17727 
3 12542 12543 
3 18586 18587 
1 1965 18586 
3 1964 1965 
3 1963 1964 
1 1963 18733 
3 10612 10613 
1 10612 12306 
3 12305 12306 
3 13700 13701 
3 9472 9473 
3 12304 12305 
1 12304 17590 
3 17590 17591 
3 17591 17592 
3 9473 9474 
1 9474 17706 
3 18650 18651 
1 8721 18651 
3 8039 8040 
1 14448 15579 
3 8038 8039 
1 6816 8038 
3 6815 6816 
3 6814 6815 
1 6814 13156 
3 13156 13157 
3 18503 18504 
3 13157 13158 
3 16057 16058 
3 10633 10634 
1 10633 17974 
3 15578 15579 
1 10563 14337 
3 14336 14337 
3 14335 14336 
3 10634 10635 
3 15577 15578 
1 15577 21207 
3 1501 1502 
1 1501 10635 
3 21206 21207 
3 1502 1503 
3 3886 3887 
1 3886 14335 
3 3887 3888 
3 1709 1710 
3 3238 3239 
1 1698 3238 
1 1710 20346 
3 20465 20466 
3 1697 1698 
3 20464 20465 
1 12624 20464 
3 12623 12624 
3 12622 12623 
3 1327 1328 
1 1327 12622 
3 1696 1697 
1 429 1696 
3 428 429 
3 20345 20346 
3 18733 18734 
3 18734 18735 
3 20344 20345 
1 12849 18735 
3 12848 12849 
1 17799 20344 
3 8720 8721 
3 8719 8720 
1 8719 9924 
2 9923 9924 
2 9922 9923 
3 4216 4217 
1 4216 9922 
3 19862 19863 
1 9018 19863 
3 9017 9018 
3 9016 9017 
1 9016 10182 
1 12027 16057 
3 12026 12027 
3 12025 12026 
3 934 935 
1 934 12025 
3 935 936 
1 936 4396 
3 3026 3027 
3 4396 4397 
1 2226 13158 
1 1503 1908 
3 1907 1908 
3 1906 1907 
1 1906 18112 
3 18112 18113 
3 18113 18114 
3 19219 19220 
3 21205 21206 
1 16182 21205 
3 12487 12488 
1 12487 14409 
3 1328 1329 
3 862 863 
1 862 1329 
3 863 864 
1 864 2052 
3 427 428 
1 427 1270 
3 1270 1271 
3 1891 1892 
1 1891 3888 
3 1271 1272 
2 20938 20939 
3 12847 12848 
3 17798 17799 
3 17797 17798 
3 11581 11582 
1 11581 17797 
3 11582 11583 
1 1272 8695 
2 20939 20940 
2 9331 9332 
2 9332 9333 
3 4217 4218 
3 343 344 
3 3025 3026 
1 3025 10875 
3 19220 19221 
3 4397 4398 
1 12075 18114 
3 12073 12074 
3 12074 12075 
3 14408 14409 
3 14407 14408 
1 14407 20368 
3 20368 20369 
3 2051 2052 
3 20369 20370 
3 2050 2051 
2 10168 10169 
1 10168 11583 
3 10859 10860 
2 10169 10170 
1 12957 18264 
3 18263 18264 
3 18262 18263 
1 4800 18262 
3 12956 12957 
3 4334 4335 
3 12419 12420 
3 4799 4800 
1 4335 7545 
1 8991 12418 
3 12418 12419 
3 8990 8991 
3 4798 4799 
1 4798 13741 
3 13741 13742 
3 8989 8990 
1 8989 12804 
3 14795 14796 
1 14796 15420 
3 15419 15420 
3 15418 15419 
3 6001 6002 
1 6001 15418 
3 12038 12039 
3 6002 6003 
1 12039 21024 
1 12642 16551 
3 20447 20448 
1 9066 12175 
3 12175 12176 
3 12641 12642 
3 12640 12641 
1 12640 17757 
3 10555 10556 
1 10555 18238 
3 18238 18239 
3 17756 17757 
3 10556 10557 
3 18239 18240 
3 17755 17756 
3 12176 12177 
1 5253 12177 
3 5252 5253 
3 16289 16290 
3 15652 15653 
1 15652 16290 
3 15653 15654 
3 16288 16289 
1 4737 16288 
3 15262 15263 
3 15263 15264 
3 12541 12542 
3 20240 20241 
3 13334 13335 
3 13333 13334 
1 4221 13333 
3 20239 20240 
2 4220 4221 
2 4219 4220 
1 4219 11365 
2 11365 11366 
3 13699 13700 
1 13699 20815 
3 20815 20816 
3 20816 20817 
3 7544 7545 
3 17705 17706 
3 631 632 
1 631 14286 
3 14285 14286 
3 14284 14285 
3 12490 12491 
1 12490 14284 
3 12491 12492 
3 2113 2114 
1 2113 12492 
3 15253 15254 
1 15253 17592 
3 17704 17705 
1 17704 18343 
3 21418 21419 
3 7543 7544 
1 7543 11760 
3 11759 11760 
3 11758 11759 
3 18502 18503 
3 9850 9851 
1 9850 18502 
3 9851 9852 
1 2031 9852 
3 1057 1058 
1 1057 6003 
3 18343 18344 
3 2030 2031 
1 15162 20448 
3 1058 1059 
3 15161 15162 
3 8446 8447 
1 8446 17755 
3 15160 15161 
3 6985 6986 
1 6985 15160 
3 6986 6987 
1 6987 15700 
1 1059 16258 
3 16258 16259 
1 2658 18240 
3 8447 8448 
1 8448 10534 
3 5251 5252 
1 2247 5251 
1 15654 16129 
3 2657 2658 
3 2656 2657 
1 1824 2656 
3 1823 1824 
3 16129 16130 
3 16130 16131 
1 8292 16131 
3 8291 8292 
3 8290 8291 
3 15254 15255 
3 6790 6791 
1 6790 15255 
3 6791 6792 
1 6792 7476 
3 21419 21420 
3 18344 18345 
3 10181 10182 
3 2225 2226 
3 2224 2225 
1 2224 14958 
3 13546 13547 
1 13546 18345 
3 13547 13548 
1 13548 15850 
3 15850 15851 
3 14957 14958 
3 2029 2030 
1 2029 7209 
3 10180 10181 
1 10180 15223 
3 15223 15224 
3 15700 15701 
3 15701 15702 
1 15702 20109 
3 16181 16182 
3 16180 16181 
1 6090 16180 
3 6089 6090 
3 7208 7209 
3 7207 7208 
1 7207 14790 
3 14789 14790 
3 14788 14789 
3 20108 20109 
3 1822 1823 
1 1822 6400 
3 1892 1893 
3 6400 6401 
3 6401 6402 
1 1893 12339 
3 12338 12339 
3 5596 5597 
1 5596 6402 
3 5597 5598 
3 8695 8696 
3 8696 8697 
3 10457 10458 
3 10456 10457 
3 9823 9824 
1 9823 10456 
3 9824 9825 
3 17837 17838 
3 7475 7476 
1 4218 16677 
3 7474 7475 
3 16676 16677 
3 16675 16676 
3 17836 17837 
3 10142 10143 
3 10141 10142 
3 15224 15225 
3 14956 14957 
1 3177 14956 
3 3176 3177 
3 3175 3176 
3 18839 18840 
3 18838 18839 
3 13720 13721 
3 13100 13101 
1 13101 13720 
3 6088 6089 
1 6088 15997 
3 15997 15998 
3 15998 15999 
3 12337 12338 
1 12337 20451 
3 20450 20451 
3 20449 20450 
3 10474 10475 
3 13721 13722 
3 5657 5658 
1 5658 10858 
3 10858 10859 
3 5656 5657 
3 6919 6920 
3 9358 9359 
1 9360 12873 
3 9359 9360 
3 12872 12873 
3 6920 6921 
3 19285 19286 
1 20694 20757 
3 17510 17511 
3 12871 12872 
1 12871 17511 
3 17509 17510 
3 15172 15173 
1 15172 17509 
3 15226 15227 
1 15226 19285 
3 19286 19287 
3 20756 20757 
3 12037 12038 
1 12037 18843 
3 20156 20157 
3 12803 12804 
3 15173 15174 
3 18842 18843 
1 6912 15174 
3 6911 6912 
3 12802 12803 
1 12802 17328 
3 5434 5435 
1 5434 20157 
3 20755 20756 
3 20155 20156 
1 20155 20755 
3 20860 20861 
3 5435 5436 
3 18841 18842 
3 15943 15944 
1 15943 18841 
3 6910 6911 
3 1294 1295 
1 1294 6910 
1 921 10812 
3 10811 10812 
3 920 921 
3 1295 1296 
3 919 920 
1 919 10632 
3 10810 10811 
3 20861 20862 
1 1296 12421 
3 12421 12422 
1 5436 20860 
1 13227 18223 
3 13226 13227 
3 13225 13226 
3 18223 18224 
1 3942 10810 
3 20297 20298 
3 18224 18225 
3 12130 12131 
3 20296 20297 
3 4360 4361 
1 4360 20296 
3 4361 4362 
2 11366 11367 
3 7459 7460 
1 7459 11367 
3 7460 7461 
2 13772 13773 
3 13742 13743 
1 7629 13743 
3 7628 7629 
1 3501 11758 
3 3500 3501 
3 7627 7628 
3 3433 3434 
1 3433 7627 
3 3434 3435 
3 17327 17328 
3 17326 17327 
1 2526 17326 
3 2525 2526 
1 3435 9819 
3 2524 2525 
1 2524 4527 
3 16259 16260 
3 15944 15945 
1 13902 15945 
3 13901 13902 
3 13900 13901 
1 13900 19300 
3 4526 4527 
3 19300 19301 
3 10534 10535 
3 19301 19302 
3 2246 2247 
3 3941 3942 
3 2245 2246 
3 2215 2216 
1 2215 2245 
3 2216 2217 
3 10535 10536 
3 3940 3941 
1 3940 20908 
3 20908 20909 
3 20909 20910 
1 19302 21556 
1 3489 20910 
3 2944 2945 
3 2945 2946 
3 3488 3489 
3 2114 2115 
1 2115 2379 
2 2378 2379 
2 2377 2378 
3 3499 3500 
1 3499 12403 
3 12403 12404 
3 9818 9819 
3 15851 15852 
3 12404 12405 
3 697 698 
1 697 12405 
1 2091 16260 
3 698 699 
1 699 10615 
3 10615 10616 
3 2090 2091 
3 2089 2090 
1 2089 17578 
3 17578 17579 
3 17579 17580 
3 20107 20108 
3 21556 21557 
1 7242 17580 
1 15105 20107 
3 7732 7733 
1 7732 10536 
3 7733 7734 
1 7734 16965 
3 16964 16965 
3 16963 16964 
3 2143 2144 
1 2143 16963 
3 20713 20714 
1 2217 20640 
3 3487 3488 
1 3487 20713 
3 20714 20715 
3 20639 20640 
3 20638 20639 
1 5712 20638 
3 5711 5712 
3 5710 5711 
3 6437 6438 
3 6436 6437 
1 6436 17836 
3 7579 7580 
3 7936 7937 
1 7936 15852 
3 7580 7581 
1 6438 7581 
3 7937 7938 
3 1429 1430 
3 19063 19064 
1 7938 19065 
3 13186 13187 
1 13186 14788 
3 10616 10617 
3 19064 19065 
3 13187 13188 
1 1431 13188 
3 1430 1431 
3 15104 15105 
3 15103 15104 
3 13498 13499 
1 13498 15103 
3 13499 13500 
1 4473 13500 
3 10475 10476 
3 9829 9830 
3 9830 9831 
3 2144 2145 
3 12092 12093 
3 12091 12092 
1 12091 18129 
3 13255 13256 
3 13256 13257 
3 3217 3218 
1 3217 13255 
3 9406 9407 
1 6447 9408 
3 1948 1949 
1 1948 9204 
1 3219 9406 
3 3218 3219 
3 18128 18129 
3 18127 18128 
1 18127 20124 
3 20123 20124 
3 15227 15228 
3 20122 20123 
1 17562 20122 
3 9407 9408 
3 1949 1950 
1 3054 3493 
3 3053 3054 
3 4979 4980 
3 4978 4979 
1 1950 4978 
3 17561 17562 
3 17560 17561 
3 2542 2543 
1 2542 17560 
3 3052 3053 
1 3052 15228 
3 3493 3494 
1 4980 10321 
3 2543 2544 
3 10321 10322 
3 2317 2318 
1 2317 3495 
3 2318 2319 
3 3494 3495 
1 2544 10851 
3 10849 10850 
3 10850 10851 
1 165 10849 
1 2319 8164 
3 164 165 
3 10322 10323 
3 8164 8165 
1 12423 13983 
3 8165 8166 
3 12422 12423 
3 2230 2231 
3 163 164 
1 163 2230 
3 2231 2232 
1 2232 13618 
3 13982 13983 
3 13981 13982 
1 13981 16872 
3 13618 13619 
3 19078 19079 
3 12829 12830 
1 12829 20388 
3 12830 12831 
3 20387 20388 
2 3656 3657 
2 3655 3656 
3 7754 7755 
3 7753 7754 
1 7753 13752 
2 13751 13752 
2 13750 13751 
2 4597 4598 
1 4597 13750 
2 4598 4599 
2 13771 13772 
1 13771 19366 
2 19366 19367 
1 14508 19368 
2 19367 19368 
1 4599 18001 
3 18001 18002 
3 14507 14508 
1 9939 18003 
3 19409 19410 
3 18002 18003 
3 19408 19409 
1 19408 19608 
3 16009 16010 
3 16010 16011 
3 14506 14507 
1 14506 16009 
1 14073 16011 
3 9938 9939 
3 14072 14073 
3 9937 9938 
1 4167 9937 
3 4166 4167 
3 14071 14072 
1 14071 20842 
3 20842 20843 
3 20843 20844 
3 4165 4166 
1 4165 6504 
1 6120 12033 
3 6118 6119 
1 6118 20844 
3 6503 6504 
3 6502 6503 
3 2188 2189 
1 2188 6502 
3 2189 2190 
3 6119 6120 
3 12031 12032 
3 12032 12033 
3 16870 16871 
3 16871 16872 
1 2190 11812 
3 11812 11813 
3 11813 11814 
1 8511 11814 
2 15335 15336 
2 5146 5147 
2 5147 5148 
1 15336 17412 
2 15334 15335 
2 20051 20052 
3 10210 10211 
2 20050 20051 
1 9675 20050 
3 10211 10212 
3 9977 9978 
3 9817 9818 
1 9817 12673 
3 12673 12674 
3 9976 9977 
1 9976 10212 
3 12674 12675 
3 9673 9674 
3 9674 9675 
1 10035 12675 
3 10034 10035 
3 5480 5481 
3 5479 5480 
3 10033 10034 
1 10033 20671 
3 20671 20672 
3 4525 4526 
1 4525 5479 
3 7241 7242 
1 7683 21558 
3 19261 19262 
3 21557 21558 
3 19262 19263 
3 7682 7683 
3 4372 4373 
2 3436 3437 
1 3436 4372 
3 7681 7682 
2 8510 8511 
2 3437 3438 
2 4364 4365 
2 4363 4364 
1 4363 8509 
2 8509 8510 
3 9376 9377 
3 9377 9378 
1 3528 9376 
3 215 216 
1 12711 20673 
3 20672 20673 
1 5103 10617 
3 5101 5102 
3 5102 5103 
3 214 215 
3 7240 7241 
3 4472 4473 
3 3584 3585 
3 3583 3584 
1 3585 13339 
3 13339 13340 
1 2508 17266 
3 17266 17267 
3 2507 2508 
3 14603 14604 
1 14604 16408 
3 16408 16409 
3 16409 16410 
1 5997 14602 
3 14602 14603 
3 18371 18372 
1 2703 16410 
3 18370 18371 
1 18330 18370 
3 13417 13418 
1 13417 18372 
3 13418 13419 
3 16826 16827 
3 16825 16826 
3 13340 13341 
3 16663 16664 
1 16663 16827 
3 16664 16665 
3 7918 7919 
1 7918 21063 
1 1980 16665 
3 21062 21063 
3 7919 7920 
3 2506 2507 
3 10291 10292 
3 1351 1352 
1 1351 10291 
3 10292 10293 
1 10293 15766 
3 2702 2703 
3 18740 18741 
3 2701 2702 
1 2701 5466 
3 18739 18740 
3 1352 1353 
1 1353 18739 
3 9643 9644 
1 9643 18741 
3 5465 5466 
3 2696 2697 
3 6124 6125 
1 6124 13419 
3 6125 6126 
3 9644 9645 
1 2724 9645 
3 2723 2724 
3 5464 5465 
3 2854 2855 
1 2854 5464 
1 6126 11182 
3 11182 11183 
1 3009 15735 
3 3008 3009 
3 3007 3008 
3 2722 2723 
1 2722 10351 
3 10351 10352 
3 10352 10353 
3 8119 8120 
1 8119 10353 
3 7085 7086 
3 7084 7085 
1 7084 10323 
3 8120 8121 
1 7086 18078 
1 6162 8979 
3 6160 6161 
1 6160 6174 
3 6161 6162 
1 606 8121 
3 605 606 
3 604 605 
1 604 20538 
3 18077 18078 
3 18076 18077 
1 18076 20604 
3 6173 6174 
3 20603 20604 
1 5664 21244 
3 21244 21245 
3 5663 5664 
3 21245 21246 
3 20537 20538 
3 5662 5663 
3 2695 2696 
1 2695 13105 
3 13105 13106 
3 13106 13107 
3 10592 10593 
3 10591 10592 
1 10591 11332 
3 11332 11333 
3 6446 6447 
1 7956 11334 
3 7117 7118 
1 7117 13107 
3 7118 7119 
1 7119 16026 
3 6445 6446 
3 3094 3095 
1 3094 6445 
3 3095 3096 
3 7955 7956 
3 16025 16026 
3 11333 11334 
1 3096 7863 
3 16024 16025 
3 7862 7863 
3 7861 7862 
3 4429 4430 
1 4429 7861 
3 7864 7865 
1 7864 16024 
3 4430 4431 
3 7865 7866 
1 4431 6255 
3 6254 6255 
3 6253 6254 
1 6253 6555 
3 20602 20603 
3 6554 6555 
3 6553 6554 
1 6553 7165 
3 7165 7166 
3 395 396 
1 396 17410 
3 394 395 
1 394 13620 
3 13619 13620 
2 17410 17411 
2 17411 17412 
3 4622 4623 
3 4621 4622 
1 4621 18927 
3 7954 7955 
1 7954 9883 
3 9883 9884 
2 18926 18927 
3 19537 19538 
3 11429 11430 
1 11430 19537 
3 19538 19539 
2 18925 18926 
1 2700 18925 
3 19606 19607 
3 9884 9885 
1 4794 9885 
3 11428 11429 
1 11428 14893 
3 10030 10031 
1 10030 10843 
3 14893 14894 
3 4793 4794 
3 4792 4793 
1 4792 13315 
3 14894 14895 
3 5263 5264 
1 5263 14895 
3 5264 5265 
3 10843 10844 
3 10031 10032 
1 10032 19606 
3 19607 19608 
3 13315 13316 
3 10844 10845 
3 13316 13317 
1 4515 13317 
1 5700 10845 
3 5699 5700 
3 16433 16434 
3 7166 7167 
1 7167 12319 
3 5698 5699 
2 1564 1565 
1 1564 12031 
2 1565 1566 
2 13576 13577 
1 13576 16206 
2 13577 13578 
2 12319 12320 
2 12320 12321 
1 12321 15748 
2 15748 15749 
2 15749 15750 
3 1627 1628 
3 1628 1629 
1 1629 14382 
3 14381 14382 
1 12954 14380 
3 14380 14381 
3 12953 12954 
3 12952 12953 
3 1687 1688 
1 1687 12952 
3 14536 14537 
3 14537 14538 
1 9978 20029 
3 20029 20030 
3 1688 1689 
3 19294 19295 
3 19295 19296 
1 1689 9858 
3 16487 16488 
3 9857 9858 
3 20030 20031 
3 16486 16487 
1 16486 20031 
1 2364 16488 
3 1667 1668 
3 2362 2363 
1 2362 4374 
3 2363 2364 
3 1666 1667 
3 4373 4374 
3 3527 3528 
3 3526 3527 
3 12709 12710 
3 12710 12711 
3 2021 2022 
3 2020 2021 
1 9510 16825 
3 9509 9510 
1 2022 9508 
3 9508 9509 
3 7105 7106 
1 7105 17724 
3 7106 7107 
1 7107 21061 
3 21061 21062 
2 2738 2739 
2 2737 2738 
1 2739 13813 
3 13813 13814 
3 12794 12795 
3 17723 17724 
3 17722 17723 
3 2855 2856 
1 2856 13824 
3 13823 13824 
3 12793 12794 
1 12793 17722 
3 11183 11184 
1 11184 19831 
3 19831 19832 
3 19832 19833 
3 1844 1845 
3 8978 8979 
3 8977 8978 
3 1843 1844 
1 1843 8977 
3 2057 2058 
3 10820 10821 
3 10819 10820 
1 10819 18672 
3 17612 17613 
3 2056 2057 
1 399 2056 
3 398 399 
3 11161 11162 
3 397 398 
1 397 11161 
3 20536 20537 
1 17613 20536 
3 11162 11163 
3 17611 17612 
3 13814 13815 
1 7011 13815 
2 14050 14051 
3 7010 7011 
3 7009 7010 
1 7009 18621 
3 18620 18621 
3 18619 18620 
3 1477 1478 
1 1477 18619 
3 13822 13823 
2 14051 14052 
3 13246 13247 
1 13246 19833 
1 6771 13822 
3 1478 1479 
3 6770 6771 
1 7866 20352 
3 13247 13248 
1 1479 19446 
3 19445 19446 
3 6769 6770 
1 6769 13492 
3 13492 13493 
3 19444 19445 
3 18874 18875 
1 18874 19444 
3 20351 20352 
3 8420 8421 
3 8419 8420 
1 8419 20350 
3 20350 20351 
3 18671 18672 
1 8421 13269 
3 13268 13269 
3 13267 13268 
1 4752 13267 
3 18670 18671 
3 20182 20183 
3 20183 20184 
3 2698 2699 
1 2698 8485 
3 2699 2700 
3 10586 10587 
1 10587 15621 
3 10585 10586 
1 10585 14052 
3 8485 8486 
3 15620 15621 
3 8486 8487 
3 6094 6095 
1 6094 8487 
3 6095 6096 
3 4514 4515 
3 16432 16433 
3 18875 18876 
1 6096 8149 
3 8149 8150 
3 8150 8151 
1 14250 18876 
3 14249 14250 
3 4513 4514 
1 4513 16204 
3 16204 16205 
3 4751 4752 
3 14248 14249 
3 16205 16206 
3 4750 4751 
1 17844 20184 
2 17843 17844 
2 17842 17843 
3 12334 12335 
1 12334 17842 
3 12335 12336 
1 12336 19450 
3 19450 19451 
3 9856 9857 
3 17143 17144 
3 17144 17145 
1 8544 17145 
3 8543 8544 
3 8542 8543 
1 8542 8982 
2 8981 8982 
2 8980 8981 
2 595 596 
2 596 597 
3 13493 13494 
1 6135 13494 
3 15619 15620 
1 12585 15619 
3 12584 12585 
3 12583 12584 
3 6134 6135 
3 6133 6134 
3 19451 19452 
3 2554 2555 
1 2554 19452 
3 2555 2556 
2 11963 11964 
2 11962 11963 
1 11964 17838 
3 18290 18291 
3 13099 13100 
3 9514 9515 
1 9514 10476 
3 9961 9962 
1 9961 13099 
3 9515 9516 
3 9962 9963 
2 13997 13998 
2 13996 13997 
1 13996 18289 
3 18289 18290 
1 16185 19063 
3 16184 16185 
3 16183 16184 
3 4471 4472 
1 4471 7662 
3 7660 7661 
3 7661 7662 
2 265 266 
1 265 8706 
2 8705 8706 
2 8704 8705 
1 8704 10815 
2 266 267 
2 10814 10815 
2 10813 10814 
2 9545 9546 
2 9544 9545 
