ITEM: TIMESTEP
0
ITEM: NUMBER OF ATOMS
198
ITEM: BOX BOUNDS pp pp pp
0.0000000000000000e+00 5.0000000000000000e+01
0.0000000000000000e+00 5.0000000000000000e+01
0.0000000000000000e+00 5.0000000000000000e+01
ITEM: ATOMS id type 
1330 1 
1331 2 
1332 1 
1450 1 
1451 3 
1452 1 
3250 1 
3251 2 
3252 1 
4384 1 
4385 2 
4386 1 
4447 1 
4448 2 
4449 1 
4510 1 
4511 2 
4512 1 
5764 1 
5765 2 
5766 1 
1522 1 
1523 2 
1524 1 
7876 1 
7877 2 
7878 1 
9193 1 
9194 2 
9195 1 
9319 1 
9320 2 
9321 1 
10099 1 
10100 2 
10101 1 
10153 1 
10154 2 
10155 1 
3565 1 
3566 2 
3567 1 
7774 1 
7775 2 
7776 1 
8965 1 
8966 2 
8967 1 
10228 1 
10229 2 
10230 1 
3706 1 
3707 2 
3708 1 
4420 1 
4421 2 
4422 1 
4663 1 
4664 2 
4665 1 
4912 1 
4913 2 
4914 1 
5692 1 
5693 2 
5694 1 
8212 1 
8213 2 
8214 1 
9355 1 
9356 2 
9357 1 
2047 1 
2048 2 
2049 1 
6064 1 
6065 2 
6066 1 
9784 1 
9785 2 
9786 1 
9847 1 
9848 2 
9849 1 
6373 1 
6374 2 
6375 1 
8713 1 
8714 2 
8715 1 
9559 1 
9560 2 
9561 1 
6454 1 
6455 2 
6456 1 
7594 1 
7595 2 
7596 1 
7708 1 
7709 2 
7710 1 
9565 1 
9566 2 
9567 1 
9691 1 
9692 2 
9693 1 
10771 1 
10772 2 
10773 1 
940 1 
941 2 
942 1 
5203 1 
5204 2 
5205 1 
8443 1 
8444 2 
8445 1 
9700 1 
9701 2 
9702 1 
10603 1 
10604 2 
10605 1 
10957 1 
10958 2 
10959 1 
3049 1 
3050 2 
3051 1 
7315 1 
7316 2 
7317 1 
10918 1 
10919 2 
10920 1 
14221 1 
14222 2 
14223 1 
18367 1 
18368 2 
18369 1 
18376 1 
18377 2 
18378 1 
18382 1 
18383 2 
18384 1 
18793 1 
18794 2 
18795 1 
13345 1 
13346 2 
13347 1 
13471 1 
13472 2 
13473 1 
15634 1 
15635 2 
15636 1 
18628 1 
18629 2 
18630 1 
14266 1 
14267 2 
14268 1 
14386 1 
14387 2 
14388 1 
14617 1 
14618 2 
14619 1 
18832 1 
18833 2 
18834 1 
20812 1 
20813 2 
20814 1 
11779 1 
11780 2 
11781 1 
15193 1 
15194 2 
15195 1 
15085 1 
15086 2 
15087 1 
19171 1 
19172 2 
19173 1 
16858 1 
16859 2 
16860 1 
20215 1 
20216 2 
20217 1 
