ITEM: TIMESTEP
0
ITEM: NUMBER OF ATOMS
1977
ITEM: BOX BOUNDS pp pp pp
0.0000000000000000e+00 5.0000000000000000e+01
0.0000000000000000e+00 5.0000000000000000e+01
0.0000000000000000e+00 5.0000000000000000e+01
ITEM: ATOMS id type 
70 1 
71 2 
72 1 
1321 1 
1322 2 
1323 1 
1630 1 
1631 2 
1632 1 
2284 1 
2285 2 
2286 1 
2290 1 
2291 3 
2292 1 
2341 1 
2342 2 
2343 1 
2521 1 
2522 2 
2523 1 
3361 1 
3362 2 
3363 1 
3484 1 
3485 2 
3486 1 
5527 1 
5528 2 
5529 1 
5707 1 
5708 2 
5709 1 
5761 1 
5762 3 
5763 1 
6664 1 
6665 2 
6666 1 
6721 1 
6722 3 
6723 1 
6727 1 
6728 2 
6729 1 
6847 1 
6848 3 
6849 1 
6970 1 
6971 2 
6972 1 
7921 1 
7922 2 
7923 1 
8041 1 
8042 2 
8043 1 
8230 1 
8231 2 
8232 1 
8284 1 
8285 2 
8286 1 
8287 1 
8288 2 
8289 1 
9061 1 
9062 3 
9063 1 
9241 1 
9242 2 
9243 1 
9244 1 
9245 2 
9246 1 
9964 1 
9965 2 
9966 1 
10084 1 
10085 2 
10086 1 
10387 1 
10388 2 
10389 1 
13 1 
14 2 
15 1 
16 1 
17 2 
18 1 
253 1 
254 2 
255 1 
259 1 
260 2 
261 1 
262 1 
263 2 
264 1 
1222 1 
1223 2 
1224 1 
1453 1 
1454 2 
1455 1 
1579 1 
1580 3 
1581 1 
2236 1 
2237 2 
2238 1 
2422 1 
2423 3 
2424 1 
2599 1 
2600 2 
2601 1 
3262 1 
3263 2 
3264 1 
3502 1 
3503 3 
3504 1 
3562 1 
3563 3 
3564 1 
4336 1 
4337 2 
4338 1 
4399 1 
4400 2 
4401 1 
4402 1 
4403 2 
4404 1 
4516 1 
4517 2 
4518 1 
4702 1 
4703 2 
4704 1 
5476 1 
5477 2 
5478 1 
5653 1 
5654 2 
5655 1 
5722 1 
5723 2 
5724 1 
5776 1 
5777 2 
5778 1 
5953 1 
5954 3 
5955 1 
6802 1 
6803 2 
6804 1 
6853 1 
6854 2 
6855 1 
6862 1 
6863 2 
6864 1 
7036 1 
7037 3 
7038 1 
7093 1 
7094 2 
7095 1 
7102 1 
7103 2 
7104 1 
7759 1 
7760 2 
7761 1 
7819 1 
7820 2 
7821 1 
7933 1 
7934 2 
7935 1 
8179 1 
8180 2 
8181 1 
9136 1 
9137 2 
9138 1 
9253 1 
9254 2 
9255 1 
10216 1 
10217 3 
10218 1 
10336 1 
10337 2 
10338 1 
10519 1 
10520 2 
10521 1 
28 1 
29 2 
30 1 
85 1 
86 2 
87 1 
268 1 
269 2 
270 1 
271 1 
272 2 
273 1 
454 1 
455 2 
456 1 
1345 1 
1346 3 
1347 1 
1648 1 
1649 2 
1650 1 
2314 1 
2315 2 
2316 1 
2548 1 
2549 2 
2550 1 
2611 1 
2612 2 
2613 1 
3385 1 
3386 2 
3387 1 
3514 1 
3515 2 
3516 1 
3628 1 
3629 2 
3630 1 
3631 1 
3632 2 
3633 1 
3685 1 
3686 3 
3687 1 
4345 1 
4346 2 
4347 1 
4405 1 
4406 2 
4407 1 
4714 1 
4715 2 
4716 1 
4891 1 
4892 2 
4893 1 
5668 1 
5669 2 
5670 1 
5851 1 
5852 2 
5853 1 
5911 1 
5912 3 
5913 1 
6931 1 
6932 2 
6933 1 
6994 1 
6995 2 
6996 1 
7048 1 
7049 2 
7050 1 
7051 1 
7052 2 
7053 1 
7825 1 
7826 2 
7827 1 
7831 1 
7832 2 
7833 1 
8128 1 
8129 2 
8130 1 
8191 1 
8192 2 
8193 1 
9091 1 
9092 2 
9093 1 
9214 1 
9215 2 
9216 1 
9268 1 
9269 2 
9270 1 
9274 1 
9275 2 
9276 1 
9991 1 
9992 2 
9993 1 
10048 1 
10049 2 
10050 1 
10054 1 
10055 2 
10056 1 
10111 1 
10112 2 
10113 1 
10231 1 
10232 2 
10233 1 
10465 1 
10466 2 
10467 1 
10471 1 
10472 2 
10473 1 
157 1 
158 2 
159 1 
523 1 
524 2 
525 1 
1177 1 
1178 3 
1179 1 
1240 1 
1241 2 
1242 1 
1486 1 
1487 2 
1488 1 
2266 1 
2267 2 
2268 1 
2443 1 
2444 2 
2445 1 
3283 1 
3284 2 
3285 1 
3400 1 
3401 3 
3402 1 
3457 1 
3458 2 
3459 1 
3520 1 
3521 2 
3522 1 
3640 1 
3641 2 
3642 1 
3757 1 
3758 2 
3759 1 
4477 1 
4478 2 
4479 1 
5497 1 
5498 2 
5499 1 
5500 1 
5501 2 
5502 1 
5503 1 
5504 3 
5505 1 
5686 1 
5687 3 
5688 1 
5860 1 
5861 2 
5862 1 
7123 1 
7124 2 
7125 1 
7903 1 
7904 3 
7905 1 
7966 1 
7967 2 
7968 1 
8020 1 
8021 2 
8022 1 
9043 1 
9044 2 
9045 1 
9097 1 
9098 2 
9099 1 
10057 1 
10058 2 
10059 1 
10186 1 
10187 2 
10188 1 
10303 1 
10304 2 
10305 1 
52 1 
53 2 
54 1 
55 1 
56 2 
57 1 
229 1 
230 2 
231 1 
235 1 
236 2 
237 1 
1258 1 
1259 2 
1260 1 
1372 1 
1373 2 
1374 1 
1609 1 
1610 2 
1611 1 
1612 1 
1613 3 
1614 1 
1678 1 
1679 2 
1680 1 
2275 1 
2276 2 
2277 1 
2278 1 
2279 2 
2280 1 
2452 1 
2453 2 
2454 1 
3232 1 
3233 2 
3234 1 
3295 1 
3296 2 
3297 1 
3415 1 
3416 3 
3417 1 
4495 1 
4496 2 
4497 1 
4549 1 
4550 2 
4551 1 
4555 1 
4556 2 
4557 1 
4618 1 
4619 2 
4620 1 
4849 1 
4850 2 
4851 1 
4852 1 
4853 2 
4854 1 
4909 1 
4910 2 
4911 1 
5569 1 
5570 2 
5571 1 
5578 1 
5579 2 
5580 1 
5638 1 
5639 2 
5640 1 
5752 1 
5753 2 
5754 1 
5818 1 
5819 2 
5820 1 
5989 1 
5990 2 
5991 1 
5992 1 
5993 2 
5994 1 
7018 1 
7019 2 
7020 1 
7189 1 
7190 2 
7191 1 
7198 1 
7199 2 
7200 1 
7849 1 
7850 2 
7851 1 
8092 1 
8093 2 
8094 1 
8152 1 
8153 2 
8154 1 
8269 1 
8270 2 
8271 1 
8272 1 
8273 2 
8274 1 
8332 1 
8333 2 
8334 1 
8335 1 
8336 2 
8337 1 
9229 1 
9230 2 
9231 1 
10135 1 
10136 2 
10137 1 
10315 1 
10316 2 
10317 1 
964 1 
965 3 
966 1 
1750 1 
1751 2 
1752 1 
1810 1 
1811 2 
1812 1 
1870 1 
1871 2 
1872 1 
1924 1 
1925 2 
1926 1 
2770 1 
2771 2 
2772 1 
3904 1 
3905 2 
3906 1 
4201 1 
4202 2 
4203 1 
4204 1 
4205 2 
4206 1 
4927 1 
4928 2 
4929 1 
4987 1 
4988 2 
4989 1 
5047 1 
5048 2 
5049 1 
5164 1 
5165 2 
5166 1 
5410 1 
5411 2 
5412 1 
6490 1 
6491 2 
6492 1 
7261 1 
7262 2 
7263 1 
7324 1 
7325 2 
7326 1 
7504 1 
7505 2 
7506 1 
7510 1 
7511 2 
7512 1 
7567 1 
7568 2 
7569 1 
8584 1 
8585 2 
8586 1 
8824 1 
8825 2 
8826 1 
9367 1 
9368 2 
9369 1 
9787 1 
9788 2 
9789 1 
10564 1 
10565 2 
10566 1 
10624 1 
10625 2 
10626 1 
10687 1 
10688 3 
10689 1 
10801 1 
10802 2 
10803 1 
10924 1 
10925 2 
10926 1 
11050 1 
11051 2 
11052 1 
622 1 
623 2 
624 1 
1102 1 
1103 2 
1104 1 
1813 1 
1814 2 
1815 1 
1816 1 
1817 3 
1818 1 
1819 1 
1820 2 
1821 1 
1876 1 
1877 2 
1878 1 
2173 1 
2174 3 
2175 1 
2833 1 
2834 2 
2835 1 
2839 1 
2840 2 
2841 1 
3916 1 
3917 2 
3918 1 
5116 1 
5117 2 
5118 1 
5182 1 
5183 3 
5184 1 
5242 1 
5243 2 
5244 1 
6076 1 
6077 2 
6078 1 
6313 1 
6314 2 
6315 1 
6319 1 
6320 2 
6321 1 
7399 1 
7400 2 
7401 1 
7582 1 
7583 2 
7584 1 
8359 1 
8360 2 
8361 1 
8413 1 
8414 2 
8415 1 
8716 1 
8717 2 
8718 1 
9502 1 
9503 2 
9504 1 
9739 1 
9740 3 
9741 1 
9802 1 
9803 2 
9804 1 
9853 1 
9854 2 
9855 1 
10576 1 
10577 3 
10578 1 
10693 1 
10694 3 
10695 1 
565 1 
566 2 
567 1 
625 1 
626 2 
627 1 
634 1 
635 2 
636 1 
745 1 
746 2 
747 1 
814 1 
815 2 
816 1 
931 1 
932 2 
933 1 
985 1 
986 2 
987 1 
1771 1 
1772 2 
1773 1 
1888 1 
1889 2 
1890 1 
2005 1 
2006 2 
2007 1 
2008 1 
2009 3 
2010 1 
2074 1 
2075 2 
2076 1 
2734 1 
2735 2 
2736 1 
2845 1 
2846 2 
2847 1 
3868 1 
3869 2 
3870 1 
4045 1 
4046 3 
4047 1 
4108 1 
4109 2 
4110 1 
4114 1 
4115 2 
4116 1 
4234 1 
4235 2 
4236 1 
5134 1 
5135 2 
5136 1 
5188 1 
5189 2 
5190 1 
5428 1 
5429 2 
5430 1 
6085 1 
6086 2 
6087 1 
6628 1 
6629 2 
6630 1 
7414 1 
7415 2 
7416 1 
7528 1 
7529 2 
7530 1 
8428 1 
8429 3 
8430 1 
8434 1 
8435 2 
8436 1 
8734 1 
8735 2 
8736 1 
9454 1 
9455 2 
9456 1 
9751 1 
9752 2 
9753 1 
9811 1 
9812 2 
9813 1 
9925 1 
9926 3 
9927 1 
10708 1 
10709 2 
10710 1 
10828 1 
10829 2 
10830 1 
10831 1 
10832 2 
10833 1 
10885 1 
10886 3 
10887 1 
10894 1 
10895 2 
10896 1 
10948 1 
10949 2 
10950 1 
11011 1 
11012 2 
11013 1 
637 1 
638 2 
639 1 
640 1 
641 2 
642 1 
937 1 
938 2 
939 1 
943 1 
944 2 
945 1 
946 1 
947 2 
948 1 
1126 1 
1127 2 
1128 1 
1903 1 
1904 3 
1905 1 
1966 1 
1967 2 
1968 1 
3037 1 
3038 2 
3039 1 
3100 1 
3101 2 
3102 1 
3106 1 
3107 2 
3108 1 
3157 1 
3158 2 
3159 1 
3166 1 
3167 2 
3168 1 
3880 1 
3881 2 
3882 1 
3943 1 
3944 2 
3945 1 
4117 1 
4118 2 
4119 1 
4126 1 
4127 2 
4128 1 
4246 1 
4247 2 
4248 1 
5200 1 
5201 2 
5202 1 
5440 1 
5441 2 
5442 1 
6226 1 
6227 2 
6228 1 
6397 1 
6398 2 
6399 1 
6583 1 
6584 2 
6585 1 
6646 1 
6647 2 
6648 1 
7297 1 
7298 2 
7299 1 
7657 1 
7658 2 
7659 1 
7726 1 
7727 2 
7728 1 
8497 1 
8498 2 
8499 1 
9403 1 
9404 2 
9405 1 
9463 1 
9464 2 
9465 1 
9466 1 
9467 2 
9468 1 
9526 1 
9527 2 
9528 1 
10720 1 
10721 2 
10722 1 
10780 1 
10781 2 
10782 1 
10966 1 
10967 2 
10968 1 
11023 1 
11024 2 
11025 1 
769 1 
770 2 
771 1 
829 1 
830 3 
831 1 
898 1 
899 2 
900 1 
949 1 
950 2 
951 1 
952 1 
953 2 
954 1 
1972 1 
1973 2 
1974 1 
2209 1 
2210 2 
2211 1 
3958 1 
3959 2 
3960 1 
4018 1 
4019 2 
4020 1 
4135 1 
4136 2 
4137 1 
4195 1 
4196 2 
4197 1 
4198 1 
4199 2 
4200 1 
5149 1 
5150 2 
5151 1 
5212 1 
5213 2 
5214 1 
5278 1 
5279 2 
5280 1 
5335 1 
5336 2 
5337 1 
6178 1 
6179 2 
6180 1 
6295 1 
6296 2 
6297 1 
6355 1 
6356 2 
6357 1 
6415 1 
6416 2 
6417 1 
6589 1 
6590 2 
6591 1 
7375 1 
7376 3 
7377 1 
7549 1 
7550 2 
7551 1 
7609 1 
7610 2 
7611 1 
7729 1 
7730 2 
7731 1 
8389 1 
8390 2 
8391 1 
9418 1 
9419 2 
9420 1 
9535 1 
9536 2 
9537 1 
9898 1 
9899 2 
9900 1 
11107 1 
11108 2 
11109 1 
11287 1 
11288 2 
11289 1 
11467 1 
11468 2 
11469 1 
12190 1 
12191 2 
12192 1 
12301 1 
12302 2 
12303 1 
12367 1 
12368 2 
12369 1 
12427 1 
12428 3 
12429 1 
12544 1 
12545 2 
12546 1 
13201 1 
13202 3 
13203 1 
13261 1 
13262 2 
13263 1 
13321 1 
13322 2 
13323 1 
13330 1 
13331 2 
13332 1 
13387 1 
13388 2 
13389 1 
13507 1 
13508 2 
13509 1 
13510 1 
13511 2 
13512 1 
14341 1 
14342 2 
14343 1 
14344 1 
14345 2 
14346 1 
15310 1 
15311 3 
15312 1 
15370 1 
15371 2 
15372 1 
15427 1 
15428 2 
15429 1 
15487 1 
15488 2 
15489 1 
15667 1 
15668 3 
15669 1 
16507 1 
16508 2 
16509 1 
16564 1 
16565 2 
16566 1 
16687 1 
16688 2 
16689 1 
17344 1 
17345 2 
17346 1 
18361 1 
18362 2 
18363 1 
18421 1 
18422 2 
18423 1 
18484 1 
18485 2 
18486 1 
18721 1 
18722 2 
18723 1 
19441 1 
19442 2 
19443 1 
19627 1 
19628 2 
19629 1 
19684 1 
19685 2 
19686 1 
19810 1 
19811 2 
19812 1 
19867 1 
19868 3 
19869 1 
20650 1 
20651 2 
20652 1 
20710 1 
20711 2 
20712 1 
20767 1 
20768 2 
20769 1 
20824 1 
20825 2 
20826 1 
11242 1 
11243 3 
11244 1 
13153 1 
13154 2 
13155 1 
13273 1 
13274 2 
13275 1 
14236 1 
14237 2 
14238 1 
14353 1 
14354 2 
14355 1 
14533 1 
14534 2 
14535 1 
15316 1 
15317 2 
15318 1 
15493 1 
15494 2 
15495 1 
15499 1 
15500 2 
15501 1 
15613 1 
15614 2 
15615 1 
16636 1 
16637 2 
16638 1 
16693 1 
16694 2 
16695 1 
16699 1 
16700 2 
16701 1 
17362 1 
17363 2 
17364 1 
18433 1 
18434 2 
18435 1 
18562 1 
18563 2 
18564 1 
18679 1 
18680 2 
18681 1 
18862 1 
18863 2 
18864 1 
19462 1 
19463 2 
19464 1 
19522 1 
19523 2 
19524 1 
19576 1 
19577 2 
19578 1 
20782 1 
20783 2 
20784 1 
20959 1 
20960 3 
20961 1 
11305 1 
11306 2 
11307 1 
11371 1 
11372 2 
11373 1 
11485 1 
11486 2 
11487 1 
12151 1 
12152 2 
12153 1 
12265 1 
12266 2 
12267 1 
12394 1 
12395 2 
12396 1 
13168 1 
13169 2 
13170 1 
13174 1 
13175 2 
13176 1 
13405 1 
13406 2 
13407 1 
13525 1 
13526 2 
13527 1 
13528 1 
13529 2 
13530 1 
14368 1 
14369 2 
14370 1 
14491 1 
14492 2 
14493 1 
14494 1 
14495 2 
14496 1 
14605 1 
14606 3 
14607 1 
15391 1 
15392 2 
15393 1 
15451 1 
15452 2 
15453 1 
15685 1 
15686 2 
15687 1 
16348 1 
16349 2 
16350 1 
16591 1 
16592 2 
16593 1 
16645 1 
16646 2 
16647 1 
16654 1 
16655 2 
16656 1 
16711 1 
16712 2 
16713 1 
17368 1 
17369 2 
17370 1 
17431 1 
17432 2 
17433 1 
17545 1 
17546 2 
17547 1 
18514 1 
18515 3 
18516 1 
18631 1 
18632 2 
18633 1 
19468 1 
19469 2 
19470 1 
19474 1 
19475 3 
19476 1 
19591 1 
19592 2 
19593 1 
20605 1 
20606 2 
20607 1 
20665 1 
20666 2 
20667 1 
21031 1 
21032 2 
21033 1 
11146 1 
11147 2 
11148 1 
11263 1 
11264 2 
11265 1 
12097 1 
12098 2 
12099 1 
12163 1 
12164 2 
12165 1 
12280 1 
12281 2 
12282 1 
12466 1 
12467 2 
12468 1 
12580 1 
12581 2 
12582 1 
13537 1 
13538 2 
13539 1 
13597 1 
13598 3 
13599 1 
13600 1 
13601 3 
13602 1 
14383 1 
14384 2 
14385 1 
15343 1 
15344 2 
15345 1 
15346 1 
15347 2 
15348 1 
15406 1 
15407 2 
15408 1 
15706 1 
15707 2 
15708 1 
15760 1 
15761 2 
15762 1 
16546 1 
16547 2 
16548 1 
16600 1 
16601 2 
16602 1 
16720 1 
16721 2 
16722 1 
16726 1 
16727 2 
16728 1 
17446 1 
17447 3 
17448 1 
17620 1 
17621 2 
17622 1 
17677 1 
17678 2 
17679 1 
18397 1 
18398 2 
18399 1 
19786 1 
19787 2 
19788 1 
20560 1 
20561 2 
20562 1 
20563 1 
20564 2 
20565 1 
20617 1 
20618 2 
20619 1 
20677 1 
20678 2 
20679 1 
20680 1 
20681 3 
20682 1 
20686 1 
20687 3 
20688 1 
20866 1 
20867 2 
20868 1 
20917 1 
20918 2 
20919 1 
20977 1 
20978 3 
20979 1 
20983 1 
20984 2 
20985 1 
11515 1 
11516 2 
11517 1 
12229 1 
12230 3 
12231 1 
12649 1 
12650 2 
12651 1 
13189 1 
13190 2 
13191 1 
13309 1 
13310 2 
13311 1 
13378 1 
13379 3 
13380 1 
13432 1 
13433 2 
13434 1 
13555 1 
13556 2 
13557 1 
14269 1 
14270 2 
14271 1 
14272 1 
14273 2 
14274 1 
14389 1 
14390 2 
14391 1 
14452 1 
14453 2 
14454 1 
14638 1 
14639 3 
14640 1 
14692 1 
14693 3 
14694 1 
15649 1 
15650 2 
15651 1 
16375 1 
16376 2 
16377 1 
16489 1 
16490 2 
16491 1 
16612 1 
16613 3 
16614 1 
16678 1 
16679 2 
16680 1 
17332 1 
17333 2 
17334 1 
17338 1 
17339 2 
17340 1 
17572 1 
17573 2 
17574 1 
17695 1 
17696 2 
17697 1 
17752 1 
17753 3 
17754 1 
18469 1 
18470 3 
18471 1 
18475 1 
18476 2 
18477 1 
18589 1 
18590 2 
18591 1 
18658 1 
18659 2 
18660 1 
18718 1 
18719 2 
18720 1 
19618 1 
19619 2 
19620 1 
19732 1 
19733 2 
19734 1 
19738 1 
19739 2 
19740 1 
19789 1 
19790 2 
19791 1 
19849 1 
19850 2 
19851 1 
20569 1 
20570 2 
20571 1 
20989 1 
20990 2 
20991 1 
21049 1 
21050 2 
21051 1 
11590 1 
11591 2 
11592 1 
11881 1 
11882 2 
11883 1 
12907 1 
12908 2 
12909 1 
12961 1 
12962 2 
12963 1 
14101 1 
14102 2 
14103 1 
14170 1 
14171 2 
14172 1 
14701 1 
14702 2 
14703 1 
15181 1 
15182 2 
15183 1 
15187 1 
15188 3 
15189 1 
15190 1 
15191 2 
15192 1 
15781 1 
15782 2 
15783 1 
15844 1 
15845 2 
15846 1 
16081 1 
16082 2 
16083 1 
16141 1 
16142 2 
16143 1 
16207 1 
16208 2 
16209 1 
16810 1 
16811 2 
16812 1 
17224 1 
17225 2 
17226 1 
17881 1 
17882 2 
17883 1 
17944 1 
17945 2 
17946 1 
18904 1 
18905 2 
18906 1 
19210 1 
19211 2 
19212 1 
19927 1 
19928 2 
19929 1 
20227 1 
20228 2 
20229 1 
20410 1 
20411 2 
20412 1 
21070 1 
21071 2 
21072 1 
21130 1 
21131 2 
21132 1 
21310 1 
21311 2 
21312 1 
21361 1 
21362 2 
21363 1 
21370 1 
21371 2 
21372 1 
11719 1 
11720 2 
11721 1 
11842 1 
11843 2 
11844 1 
12682 1 
12683 2 
12684 1 
12853 1 
12854 2 
12855 1 
12859 1 
12860 2 
12861 1 
12919 1 
12920 2 
12921 1 
12922 1 
12923 2 
12924 1 
14056 1 
14057 2 
14058 1 
14119 1 
14120 2 
14121 1 
14719 1 
14720 2 
14721 1 
14722 1 
14723 2 
14724 1 
14776 1 
14777 3 
14778 1 
15259 1 
15260 2 
15261 1 
15802 1 
15803 2 
15804 1 
16099 1 
16100 2 
16101 1 
16273 1 
16274 2 
16275 1 
16936 1 
16937 2 
16938 1 
16939 1 
16940 2 
16941 1 
16999 1 
17000 2 
17001 1 
17062 1 
17063 2 
17064 1 
17896 1 
17897 2 
17898 1 
18313 1 
18314 2 
18315 1 
19213 1 
19214 2 
19215 1 
19276 1 
19277 2 
19278 1 
19399 1 
19400 2 
19401 1 
20056 1 
20057 2 
20058 1 
20422 1 
20423 2 
20424 1 
21259 1 
21260 2 
21261 1 
21379 1 
21380 2 
21381 1 
21499 1 
21500 2 
21501 1 
11665 1 
11666 2 
11667 1 
11791 1 
11792 2 
11793 1 
11905 1 
11906 2 
11907 1 
11971 1 
11972 2 
11973 1 
12028 1 
12029 2 
12030 1 
12808 1 
12809 2 
12810 1 
13114 1 
13115 2 
13116 1 
13645 1 
13646 2 
13647 1 
13651 1 
13652 2 
13653 1 
14128 1 
14129 2 
14130 1 
14854 1 
14855 2 
14856 1 
15151 1 
15152 2 
15153 1 
15811 1 
15812 2 
15813 1 
15868 1 
15869 2 
15870 1 
16831 1 
16832 2 
16833 1 
17074 1 
17075 2 
17076 1 
18265 1 
18266 2 
18267 1 
18325 1 
18326 2 
18327 1 
19108 1 
19109 2 
19110 1 
19234 1 
19235 2 
19236 1 
19291 1 
19292 2 
19293 1 
19351 1 
19352 2 
19353 1 
20005 1 
20006 2 
20007 1 
20074 1 
20075 2 
20076 1 
20134 1 
20135 2 
20136 1 
20485 1 
20486 2 
20487 1 
20488 1 
20489 2 
20490 1 
21151 1 
21152 2 
21153 1 
21214 1 
21215 2 
21216 1 
21265 1 
21266 2 
21267 1 
21271 1 
21272 2 
21273 1 
21331 1 
21332 3 
21333 1 
21394 1 
21395 2 
21396 1 
21505 1 
21506 2 
21507 1 
11563 1 
11564 2 
11565 1 
11860 1 
11861 2 
11862 1 
11863 1 
11864 2 
11865 1 
11923 1 
11924 2 
11925 1 
11977 1 
11978 2 
11979 1 
12760 1 
12761 2 
12762 1 
12820 1 
12821 3 
12822 1 
12883 1 
12884 2 
12885 1 
13846 1 
13847 3 
13848 1 
13903 1 
13904 2 
13905 1 
14923 1 
14924 2 
14925 1 
15097 1 
15098 2 
15099 1 
15163 1 
15164 2 
15165 1 
15883 1 
15884 2 
15885 1 
16777 1 
16778 2 
16779 1 
17020 1 
17021 2 
17022 1 
17206 1 
17207 2 
17208 1 
17857 1 
17858 2 
17859 1 
18040 1 
18041 2 
18042 1 
18160 1 
18161 2 
18162 1 
18937 1 
18938 2 
18939 1 
19006 1 
19007 2 
19008 1 
19126 1 
19127 2 
19128 1 
19183 1 
19184 2 
19185 1 
19960 1 
19961 2 
19962 1 
20080 1 
20081 2 
20082 1 
20143 1 
20144 2 
20145 1 
20146 1 
20147 2 
20148 1 
20506 1 
20507 2 
20508 1 
21280 1 
21281 2 
21282 1 
21346 1 
21347 2 
21348 1 
21406 1 
21407 2 
21408 1 
11575 1 
11576 2 
11577 1 
11755 1 
11756 2 
11757 1 
12712 1 
12713 2 
12714 1 
12895 1 
12896 2 
12897 1 
13018 1 
13019 2 
13020 1 
13852 1 
13853 2 
13854 1 
15058 1 
15059 2 
15060 1 
15112 1 
15113 2 
15114 1 
15235 1 
15236 3 
15237 1 
15295 1 
15296 2 
15297 1 
15298 1 
15299 2 
15300 1 
15949 1 
15950 2 
15951 1 
16315 1 
16316 3 
16317 1 
16849 1 
16850 2 
16851 1 
16978 1 
16979 2 
16980 1 
17029 1 
17030 2 
17031 1 
17035 1 
17036 2 
17037 1 
17095 1 
17096 2 
17097 1 
18235 1 
18236 3 
18237 1 
19009 1 
19010 2 
19011 1 
19018 1 
19019 2 
19020 1 
19249 1 
19250 2 
19251 1 
19315 1 
19316 2 
19317 1 
19369 1 
19370 2 
19371 1 
20098 1 
20099 2 
20100 1 
21355 1 
21356 2 
21357 1 
