ITEM: TIMESTEP
15000000
ITEM: NUMBER OF ATOMS
150
ITEM: BOX BOUNDS pp pp pp
0.0000000000000000e+00 5.0000000000000000e+01
0.0000000000000000e+00 5.0000000000000000e+01
0.0000000000000000e+00 5.0000000000000000e+01
ITEM: ATOMS id type xs ys zs
11092 1 0.633294 0.79577 0.207709
2995 1 0.635066 0.794937 0.205459
11093 2 0.629878 0.798978 0.213235
11094 1 0.626439 0.804917 0.218409
16370 2 0.658822 0.796707 0.197419
16371 1 0.651127 0.794464 0.198845
16369 1 0.664613 0.797944 0.191711
2997 1 0.647823 0.793881 0.199577
2996 2 0.640053 0.792594 0.199421
15392 2 0.639016 0.779592 0.248408
15391 1 0.642787 0.779077 0.241198
19378 1 0.684612 0.777463 0.241114
7362 1 0.62529 0.807164 0.220063
17421 1 0.657494 0.807509 0.228541
12858 1 0.660311 0.806912 0.22917
17420 2 0.649152 0.809179 0.226882
17419 1 0.644187 0.807308 0.221744
7705 1 0.650353 0.810006 0.243839
12857 2 0.667138 0.804441 0.230053
4497 1 0.687355 0.798424 0.22259
12856 1 0.674917 0.80223 0.231779
4495 1 0.677756 0.801884 0.231745
4496 2 0.685819 0.800418 0.230386
19379 2 0.690847 0.782766 0.242799
19380 1 0.6938 0.784722 0.249775
7361 2 0.623287 0.812661 0.224237
13924 1 0.627173 0.82253 0.223967
7360 1 0.626426 0.819785 0.224116
13925 3 0.627498 0.828937 0.224084
13926 1 0.625579 0.836709 0.221499
17231 2 0.635692 0.823063 0.247211
17230 1 0.630914 0.822896 0.240329
18026 2 0.650426 0.842108 0.248286
18025 1 0.644996 0.841192 0.243169
7706 2 0.655634 0.814037 0.248005
7707 1 0.659018 0.821053 0.249422
11506 1 0.668875 0.840995 0.225265
844 1 0.695602 0.822209 0.248938
845 2 0.690331 0.816682 0.249872
18027 1 0.655829 0.847462 0.246952
4033 1 0.657103 0.849115 0.246414
14073 1 0.639665 0.865268 0.247392
4034 2 0.661378 0.855233 0.245277
11508 1 0.674661 0.85279 0.229032
11507 2 0.673553 0.846679 0.223871
20793 1 0.683669 0.8589 0.237487
4035 1 0.667354 0.86076 0.242306
20791 1 0.66977 0.862082 0.24138
20792 2 0.6779 0.864503 0.239913
21460 1 0.679209 0.778813 0.274254
12414 1 0.597563 0.795506 0.250614
12413 3 0.598974 0.796732 0.257939
12412 1 0.605222 0.798525 0.261103
15393 1 0.634322 0.782218 0.254696
19945 1 0.607393 0.799095 0.262328
19947 1 0.618678 0.803814 0.270571
2751 1 0.620604 0.804722 0.271648
19946 3 0.614137 0.800928 0.266788
2750 3 0.627284 0.808272 0.274152
2749 1 0.633592 0.811944 0.270533
19076 2 0.664733 0.790513 0.25275
19077 1 0.66027 0.784212 0.250087
21461 2 0.682921 0.785991 0.271688
19027 1 0.672525 0.797836 0.252914
19075 1 0.670361 0.7962 0.252994
846 1 0.686032 0.810091 0.250784
19029 1 0.684427 0.807468 0.250543
19028 2 0.679697 0.800977 0.250896
21462 1 0.689901 0.786091 0.266511
20671 1 0.692456 0.785845 0.264657
4053 1 0.674763 0.807413 0.261148
20673 1 0.695163 0.785625 0.252421
4052 2 0.673535 0.811392 0.269253
20672 3 0.699064 0.786274 0.259645
12163 1 0.635644 0.813553 0.268949
19929 1 0.635492 0.837057 0.271439
10318 1 0.632737 0.83516 0.272029
10319 2 0.626491 0.830236 0.273096
10320 1 0.621248 0.824531 0.272401
12164 2 0.64141 0.817544 0.264503
12165 1 0.63897 0.820208 0.25767
17232 1 0.638344 0.8211 0.255213
19928 2 0.642479 0.842562 0.270373
18101 2 0.678424 0.826545 0.279799
18102 1 0.677177 0.819859 0.275719
4051 1 0.676255 0.817291 0.273843
14072 3 0.642305 0.866586 0.255192
14071 1 0.645294 0.86297 0.261336
19927 1 0.646367 0.849535 0.270315
11402 2 0.629016 0.791663 0.311599
11401 1 0.623305 0.791186 0.305418
12283 1 0.626339 0.819947 0.311158
2217 1 0.623629 0.81938 0.312015
12284 3 0.633279 0.820233 0.30979
5361 1 0.657839 0.824838 0.286196
5360 2 0.660716 0.832026 0.285698
16032 1 0.664218 0.816946 0.307145
12285 1 0.638978 0.825763 0.30963
18100 1 0.67049 0.829576 0.282536
5359 1 0.667999 0.830445 0.283746
11403 1 0.635943 0.789763 0.315885
7348 1 0.632416 0.805907 0.33697
7349 3 0.635705 0.801533 0.331494
12099 1 0.63847 0.789406 0.317496
12098 2 0.645568 0.790021 0.321678
12097 1 0.642061 0.79482 0.326905
7350 1 0.640189 0.79661 0.328345
12600 1 0.595275 0.843376 0.335637
2216 3 0.616347 0.815619 0.315219
2215 1 0.608937 0.817831 0.31321
16031 3 0.664207 0.818994 0.31531
16030 1 0.666895 0.816421 0.322753
12599 2 0.602227 0.848589 0.337175
14966 2 0.61833 0.857614 0.333818
12598 1 0.60874 0.852699 0.335314
14965 1 0.611356 0.85407 0.334895
14967 1 0.62367 0.859226 0.328937
7551 1 0.601495 0.813925 0.347449
7550 2 0.605562 0.820795 0.346086
9383 2 0.586835 0.833281 0.360331
9382 1 0.583756 0.825142 0.360954
9384 1 0.589879 0.841122 0.359005
7549 1 0.610109 0.82782 0.348332
1279 1 0.611638 0.830249 0.348985
1280 2 0.616017 0.836633 0.351994
1281 1 0.62022 0.840501 0.357585
19522 1 0.62147 0.841764 0.360308
10381 1 0.590952 0.843769 0.358292
10382 2 0.595397 0.850405 0.355575
10383 1 0.601541 0.855046 0.354948
5223 1 0.603827 0.857445 0.354526
19523 2 0.624705 0.845759 0.366742
19524 1 0.623319 0.852928 0.370643
12379 1 0.623157 0.855744 0.371928
5222 2 0.609824 0.861986 0.351479
5221 1 0.610613 0.869873 0.355226
1425 1 0.567728 0.805786 0.393881
1424 2 0.573364 0.810754 0.394529
21233 3 0.587244 0.824421 0.39641
21232 1 0.581665 0.819938 0.39457
1423 1 0.579249 0.816921 0.394093
21234 1 0.590434 0.830609 0.393149
13679 3 0.594778 0.83907 0.387749
13678 1 0.591893 0.832815 0.39178
13680 1 0.596668 0.846575 0.387571
12380 2 0.622132 0.863062 0.37539
12381 1 0.623026 0.870472 0.3771
20878 1 0.623876 0.872659 0.37706
20879 2 0.625794 0.880051 0.375978
20880 1 0.625757 0.887402 0.377763
