ITEM: TIMESTEP
15000000
ITEM: NUMBER OF ATOMS
324
ITEM: BOX BOUNDS pp pp pp
0.0000000000000000e+00 5.0000000000000000e+01
0.0000000000000000e+00 5.0000000000000000e+01
0.0000000000000000e+00 5.0000000000000000e+01
ITEM: ATOMS id type vx vy vz 
764 3 1.69468 -2.46676 -1.60489 
763 1 -1.02659 0.335069 3.93036 
14059 1 2.69285 -5.14184 3.21712 
765 1 -0.317547 -2.27006 1.40164 
20168 3 0.621408 -2.65107 -4.34356 
20169 1 5.60668 -1.61522 -3.9887 
20167 1 2.30686 -2.02671 8.39306 
15636 1 -1.97628 5.24075 -3.19605 
14060 3 0.89971 -0.404978 4.00154 
14061 1 -5.05702 2.65429 3.16325 
18982 1 2.21512 5.07385 1.10962 
18983 2 2.20979 0.0293478 2.50805 
18984 1 -4.29295 -1.09105 -7.67371 
16414 1 -2.24862 -1.93123 -0.307446 
2018 2 1.65244 1.68027 -7.69839 
2017 1 -1.78752 2.30563 5.85957 
5260 1 5.88224 -0.295282 -0.363765 
5261 2 3.35301 2.10509 -0.327787 
16494 1 -0.350579 -2.04893 1.73907 
16493 2 -1.46747 1.02028 0.320688 
16492 1 0.0746919 1.38842 -6.85301 
5278 1 -2.81828 0.419407 2.78353 
20188 1 1.87111 -1.44714 -3.43193 
14346 1 -1.62982 -4.45196 0.744201 
14345 2 -3.15973 -1.33709 0.096341 
14344 1 -5.81696 -2.91391 -3.46319 
5279 2 1.10933 2.39881 -2.47728 
5046 1 1.02785 3.43511 -2.4573 
20190 1 2.57816 -0.502262 1.578 
5045 2 -1.99986 2.6588 1.6851 
5044 1 1.35211 -1.34001 -2.65753 
10308 1 -2.049 0.32259 -0.915147 
10307 2 -3.74825 -4.49128 -1.05676 
15635 2 -4.87975 -1.65743 -4.57588 
7311 1 -4.96795 1.68507 0.0932519 
8580 1 -4.00764 4.10959 4.73063 
8578 1 7.74953 2.21442 -2.79365 
16415 3 -2.71241 -1.18776 0.172338 
16416 1 3.48393 0.225462 -1.11944 
14782 1 3.0597 0.351031 3.22997 
21054 1 -1.48814 2.7863 0.0971636 
5654 2 0.611755 -5.40781 0.768759 
14783 2 1.65352 -2.38083 3.73566 
5655 1 0.579865 -1.97279 4.03279 
14784 1 2.09346 1.01816 3.41844 
2019 1 -4.24363 0.233471 -4.43576 
21052 1 -4.26936 -2.37586 -0.362287 
21053 2 -3.04273 0.913768 -2.43524 
3696 1 1.45934 5.53404 -2.9361 
15634 1 -4.96398 4.83843 3.94345 
5653 1 -1.10168 -4.87004 0.316423 
3695 2 -3.08618 -2.24229 1.36468 
3694 1 -2.68767 5.16543 -0.850501 
93 1 -4.37934 5.51596 -2.40565 
4250 2 1.83898 -2.8033 3.80882 
4249 1 -10.0891 -2.10874 -0.848479 
7867 1 0.905884 -0.54103 5.05151 
8579 2 -0.653162 3.85368 2.04315 
4251 1 -5.43782 3.84575 -6.25389 
21221 2 1.44413 0.612046 2.37659 
21222 1 -1.77888 4.25798 -0.737721 
4163 2 -2.15907 2.72713 -6.38732 
4162 1 -3.833 1.83729 0.824668 
2715 1 5.4389 -1.83703 -3.16553 
14127 1 2.39931 0.119547 1.26323 
21220 1 -0.751932 -4.02487 0.955262 
9213 1 -0.566801 1.44737 2.02284 
9211 1 -4.00204 0.472103 -1.59239 
9212 2 1.01027 -2.16494 4.74209 
4164 1 -2.32319 -1.83825 6.79909 
5262 1 0.38559 -3.44438 0.0783708 
17410 1 1.65285 -2.21097 -3.22828 
18048 1 -2.93201 0.259462 3.80502 
18047 2 -1.11521 -2.77386 2.1106 
20189 2 3.33323 -1.58012 -0.739207 
18046 1 1.17679 4.511 -1.07516 
6774 1 1.54275 3.97937 1.12745 
6773 2 -0.512387 -2.62469 2.32997 
6772 1 6.10265 2.5239 2.78892 
15091 1 3.31448 -3.08861 -3.47985 
15092 2 -1.1343 2.40555 0.790502 
15093 1 3.26185 -0.786111 -1.00279 
2714 3 -2.02792 0.232498 0.491077 
2713 1 3.45476 -2.50605 -5.18407 
5457 1 1.05674 0.696472 -3.87247 
9899 2 -1.22077 0.692175 2.23562 
9898 1 -4.73967 -3.33446 -2.02982 
7297 1 5.52394 -1.74458 -1.08295 
7298 2 1.54031 1.13408 -1.32267 
7299 1 -0.218915 1.4906 1.38458 
10521 1 -0.989106 3.99463 0.0798575 
9900 1 -5.6384 -0.86912 2.17126 
14917 1 -2.63135 -3.22424 1.57963 
14919 1 3.28201 -2.20025 4.57624 
14918 2 2.2145 0.00276776 2.67518 
1095 1 -9.29796 -2.71089 -4.06825 
6022 1 -1.40869 -1.86117 -2.41772 
5280 1 4.93129 1.31378 4.13945 
1094 2 0.31961 3.51548 3.34799 
1093 1 4.00892 -0.299156 -5.38095 
8489 2 2.27243 -3.6833 2.97796 
10306 1 4.41382 0.733726 4.31073 
8490 1 1.63775 2.41774 -2.09324 
8488 1 6.04077 0.00266546 3.6649 
7310 2 -0.0982187 0.502401 2.37002 
19783 1 4.96286 5.48204 2.40194 
19784 2 2.56544 -1.55425 0.0638061 
7309 1 -5.56194 -5.72968 -1.30395 
19785 1 -4.06403 -4.8921 -2.26264 
1400 3 -0.293027 1.10257 -0.272765 
1401 1 3.2036 3.19649 2.94971 
17484 1 1.49069 -1.55075 2.69196 
17483 2 0.523947 -2.63301 -2.32664 
17482 1 3.40096 0.602929 -5.81847 
9687 1 0.27132 0.0665699 3.97099 
9686 2 1.04388 -2.20381 0.699212 
10520 2 -4.51059 -2.30945 1.95969 
10519 1 6.17784 8.27248 -2.00314 
16407 1 -0.702229 5.14882 2.06246 
16406 2 -1.45901 0.97331 1.19394 
5328 1 6.60271 1.32573 0.100437 
16405 1 -4.43033 0.283749 2.69753 
5326 1 -2.76168 5.47739 3.60244 
5327 2 1.13043 -2.21676 0.605399 
1870 1 1.49148 -0.177328 3.10676 
13862 2 0.287045 1.36718 1.96156 
92 2 -0.199208 -0.0839832 0.215028 
91 1 -3.4658 4.79563 10.8883 
4976 2 -0.778188 1.35255 -2.03671 
4975 1 -1.58398 -1.96765 -5.37555 
20827 1 -4.82278 7.90615 -5.7644 
10358 2 0.620736 1.17675 -0.16869 
10359 1 -2.0365 -0.197729 -0.979657 
7868 2 0.384817 3.4852 -1.75473 
7869 1 2.56368 2.86184 8.00241 
10357 1 -5.85335 -0.560242 -3.53175 
20828 2 0.551223 -1.37266 0.538238 
20829 1 -9.20225 -1.45134 1.78056 
15615 1 8.60647 2.15151 -2.96524 
9979 1 -1.14689 -2.71958 0.830934 
6890 3 -0.977901 3.75294 1.48369 
6889 1 6.74968 5.78019 -3.48181 
6891 1 0.772825 -1.05824 -0.371434 
15613 1 1.88984 5.3982 4.41136 
15614 2 -0.0228152 -0.544185 1.47221 
7404 1 -0.0367399 4.8922 -2.49907 
9685 1 0.239684 2.69244 -1.82652 
9981 1 2.20241 -0.0830497 -0.525412 
9980 2 2.86545 -0.786726 -0.83122 
16060 1 -4.06139 3.59948 0.815536 
5499 1 -3.77868 1.72713 -0.357614 
13279 1 3.07261 -0.390697 -5.11855 
13281 1 2.36496 0.152389 -1.68774 
13280 2 1.84796 3.98205 1.06744 
10925 2 -1.58306 -2.53132 -0.470497 
10924 1 -5.82092 -1.95412 1.14968 
21454 1 2.27613 1.71839 -1.6372 
4977 1 -1.67282 -4.72996 -3.45275 
11543 2 2.27526 1.27342 -3.2483 
11544 1 -3.34657 1.46235 -1.60454 
20575 1 -0.023655 -2.33667 -3.17057 
11542 1 5.92813 -1.67753 2.68668 
9022 1 2.91744 -0.481633 7.97964 
9023 2 -3.12891 -1.54571 -0.308339 
9024 1 -2.47662 0.254608 0.149954 
21456 1 5.18001 0.0152842 3.8716 
21455 2 1.59493 -2.46421 -2.78932 
9529 1 1.3973 2.62465 0.116379 
17727 1 -2.13993 3.13468 -1.64829 
17726 3 3.45563 5.77105 -0.227206 
9530 2 -0.833876 -3.53799 -0.311247 
18976 1 -1.93751 -1.99195 2.29484 
17725 1 -1.32987 -2.11115 -0.768658 
18977 3 3.94205 -1.84052 0.622503 
18978 1 -2.5478 1.32995 2.41805 
15454 1 3.46687 -6.66409 1.81966 
14125 1 0.0332266 4.0146 7.60256 
14126 2 -1.41294 -2.69473 -1.591 
15455 2 2.72851 0.974144 -2.56059 
15456 1 -2.12149 -3.36373 5.52611 
17412 1 0.618501 -2.89553 -4.79719 
17411 2 2.63827 -1.68586 0.419793 
2788 1 0.308139 -6.78298 0.0838478 
17014 1 2.27373 -4.30253 2.29407 
1399 1 2.09618 -2.78736 7.12961 
17016 1 -0.0611399 -1.61216 1.53923 
17015 2 -0.271439 2.05427 0.709965 
6480 1 5.03473 1.8923 -0.157543 
6479 3 0.964246 2.32507 0.87987 
6478 1 2.36383 1.90041 5.34981 
15772 1 2.07935 -1.40995 2.75969 
5455 1 -4.10721 1.03848 -4.39574 
16462 1 7.4515 0.701316 -4.09961 
16463 2 1.68982 2.46076 -0.0526341 
3344 2 -1.17894 -2.07313 0.446408 
3343 1 -0.377755 0.671809 1.74502 
20372 2 -4.86053 2.96594 3.46573 
20371 1 1.93518 -1.66567 -1.05698 
6024 1 -2.80249 -1.53703 -0.0606256 
6023 2 1.32764 3.76005 -1.35295 
20373 1 -0.811645 2.70501 -1.40372 
13861 1 4.72669 -0.17588 0.0417469 
2789 2 5.38731 -2.76371 -2.18806 
3657 1 5.77522 3.52543 -6.99779 
2790 1 2.51814 2.40078 4.71963 
3656 2 -0.0328306 2.35148 1.41825 
3655 1 3.24844 1.43032 -3.21745 
15773 3 -2.3938 -1.26546 -3.06923 
14311 1 1.71409 1.41815 3.30473 
15774 1 0.353708 11.7833 -2.19349 
14312 3 -3.10969 -2.2971 4.43896 
5456 3 -3.72509 0.464769 0.294364 
17351 2 -1.03255 4.77456 0.681347 
17350 1 1.09837 -1.63568 -2.37403 
17352 1 1.02169 0.685884 3.57418 
16464 1 2.27606 1.9905 -9.40731 
17574 1 -3.28757 -0.759601 -0.46039 
17573 2 2.59084 1.57379 2.96709 
4318 1 0.0372565 0.467677 0.536899 
17572 1 -3.96751 -2.91308 1.9433 
12468 1 6.46253 -2.23894 -2.25739 
10678 1 0.00884523 0.404664 -2.55407 
10679 2 -0.896191 -0.233045 1.39866 
10680 1 -4.96025 7.25598 -0.802074 
1871 2 2.79179 1.56038 1.33197 
1872 1 3.32983 -4.21988 -7.22924 
13863 1 -7.63845 -0.627552 -4.69353 
5854 1 4.71006 -1.45226 -8.10171 
5855 2 1.43865 1.97607 3.04089 
5856 1 -5.24736 -0.827019 -3.58406 
9735 1 -0.00849145 3.87078 -7.06136 
9734 2 -2.32649 -4.66056 -4.13486 
2487 1 2.5038 2.28378 4.19775 
2486 2 -4.99164 1.41408 -3.58127 
2485 1 3.64635 -0.990717 6.32208 
7402 1 -1.35401 -3.45229 3.32625 
14899 1 -3.47165 3.02845 2.34284 
7403 2 2.56531 -0.805045 -2.39287 
14900 2 -0.689857 0.4485 -2.39188 
12467 2 -0.917899 0.0980284 -0.674561 
16061 2 -1.48986 0.248236 1.32038 
3630 1 2.53113 -5.34253 -1.80994 
3628 1 0.21757 -6.40721 -4.60466 
12466 1 5.36827 0.419559 3.37571 
3629 2 2.68252 3.78638 2.46132 
16062 1 -2.49111 -0.783921 -4.44913 
15295 1 3.33765 1.22392 1.1472 
5497 1 -4.48711 -6.5 2.02337 
5498 2 2.51465 4.93668 0.147159 
10926 1 0.0254779 5.55061 2.8026 
6789 1 1.73935 3.65816 3.49337 
6788 2 -0.378212 -1.5465 1.33444 
6787 1 -1.04334 -1.72875 -4.16718 
4198 1 -2.06005 1.8148 1.44813 
9733 1 0.119001 1.97188 -4.25923 
20577 1 0.531986 -3.00847 -3.52671 
20576 2 -1.33351 -4.34014 3.05132 
4200 1 -4.47215 6.93378 -2.14891 
4199 2 -0.984353 3.497 3.42863 
14901 1 -0.93708 -0.166359 -0.328637 
8494 1 -3.30065 -4.29121 -0.438229 
8495 2 -2.57067 4.4452 0.528076 
15296 2 -2.95629 2.56488 1.31509 
15297 1 -4.27063 0.0411188 2.71669 
9531 1 2.32159 -2.55209 -0.331416 
433 1 2.60736 -2.73944 0.955157 
435 1 -0.033984 6.9811 -0.69046 
434 2 3.34385 -0.346668 -0.476133 
15696 1 1.48468 2.8074 8.38744 
8496 1 4.24497 1.58172 -3.58237 
15695 2 4.05132 2.39261 0.299708 
15694 1 4.62898 -6.46759 -2.12706 
8479 1 4.64518 -0.18126 2.65786 
8480 3 2.9789 -2.18767 -2.22276 
3345 1 -6.45002 4.14953 -1.29209 
10050 1 -0.765412 -2.4512 1.94844 
10049 2 -1.55841 0.216409 -2.10128 
14313 1 2.04894 -7.02534 -0.982099 
10048 1 5.31246 2.87984 -0.426716 
4319 2 -0.402543 -4.46586 2.68856 
4320 1 -12.1592 2.18477 4.3342 
3252 1 -0.218751 -0.1421 4.4389 
9312 1 2.25458 4.76802 0.42379 
9311 2 -3.33044 -1.29774 -0.250436 
3445 1 5.58981 3.07253 2.30075 
3446 2 -0.589871 -1.92447 -1.7052 
3769 1 5.5426 -2.28343 -0.417464 
3771 1 2.94872 2.23041 -1.01479 
3770 2 4.11749 -1.89734 0.918748 
3250 1 0.696004 2.73511 4.36655 
3447 1 -0.830705 -2.6784 -0.226387 
3251 2 -1.06103 2.4667 2.39046 
9310 1 -3.05639 0.878706 -5.89949 
7886 3 3.21986 -4.013 -0.764451 
7885 1 -3.53071 2.8054 -5.71618 
8481 1 3.29833 0.975588 1.19657 
7887 1 2.45054 0.626279 1.42926 
4879 1 1.16046 -1.7931 1.02628 
4881 1 -6.95644 -2.87417 -3.15788 
4880 3 3.63221 1.9873 1.11812 
13491 1 -4.9276 4.91334 2.59888 
10976 3 3.69616 -2.90187 0.495184 
10977 1 0.471299 0.745337 -7.05596 
10424 3 -0.368369 -0.362049 1.09443 
10423 1 5.55813 3.17785 4.69925 
10425 1 0.82257 1.38274 0.363522 
10975 1 -4.04072 1.39912 -3.89165 
2251 1 0.221751 -0.883647 -2.47738 
2252 3 3.26076 -0.33706 -2.38362 
17450 2 -2.33586 -3.63191 0.844825 
17449 1 6.50327 -1.55686 -2.13504 
17451 1 -3.1119 4.45098 3.9329 
13490 3 -2.23133 -4.29186 0.576528 
13489 1 1.54757 -2.23172 -0.63188 
5792 3 -0.883204 0.869311 -0.611668 
5793 1 6.9492 2.44248 4.53707 
13820 3 0.997788 1.33322 6.32372 
13821 1 1.99493 0.0125405 -0.35613 
5791 1 -4.93053 -5.05565 -1.92609 
5632 1 0.734763 2.7696 4.17828 
2253 1 3.41299 -2.42834 -2.14589 
5634 1 4.89626 4.2867 0.4821 
5633 3 4.72789 1.59806 1.54148 
13819 1 0.183031 -0.794087 -3.96554 
