ITEM: TIMESTEP
15000000
ITEM: NUMBER OF ATOMS
177
ITEM: BOX BOUNDS pp pp pp
0.0000000000000000e+00 5.0000000000000000e+01
0.0000000000000000e+00 5.0000000000000000e+01
0.0000000000000000e+00 5.0000000000000000e+01
ITEM: ATOMS id type xs ys zs
11938 1 0.695623 0.476789 0.7783
2134 1 0.650517 0.487881 0.807189
1960 1 0.68282 0.496768 0.800583
15885 1 0.680472 0.498549 0.801809
1961 3 0.689068 0.491743 0.79759
11940 1 0.689527 0.48425 0.78946
11939 3 0.691321 0.477761 0.786717
1962 1 0.688809 0.486845 0.791378
778 1 0.665968 0.464357 0.820763
10693 1 0.652944 0.465906 0.842612
15029 3 0.675985 0.457078 0.823162
15030 1 0.675903 0.453323 0.830667
15028 1 0.668133 0.462095 0.821399
10695 1 0.667408 0.463054 0.842264
2135 3 0.648504 0.483913 0.813787
2136 1 0.652436 0.477476 0.81594
780 1 0.654241 0.474958 0.816145
779 3 0.659951 0.469087 0.818099
10694 3 0.660281 0.465683 0.844643
15884 2 0.675621 0.502878 0.806337
15883 1 0.669487 0.507606 0.808717
17309 3 0.536623 0.598594 0.809485
11893 1 0.536763 0.610097 0.805878
17310 1 0.53649 0.606644 0.80684
11894 3 0.538244 0.617925 0.803613
19779 1 0.530515 0.62483 0.802441
11895 1 0.532387 0.623197 0.802781
9715 1 0.553189 0.60947 0.805068
9716 3 0.557035 0.608706 0.811206
19777 1 0.520761 0.631479 0.794746
19778 3 0.52393 0.6289 0.802261
14680 1 0.485232 0.661056 0.81051
1617 1 0.543905 0.583013 0.829179
1616 3 0.543136 0.588906 0.824524
11677 1 0.556939 0.569899 0.815198
5768 3 0.565775 0.588126 0.831433
5769 1 0.563987 0.582265 0.826628
741 1 0.557381 0.587093 0.838322
5767 1 0.55917 0.587234 0.836375
11679 1 0.563095 0.58052 0.824805
11678 3 0.561043 0.575242 0.820339
17308 1 0.539725 0.595322 0.815613
1615 1 0.540714 0.593975 0.817615
19133 3 0.540872 0.609549 0.829295
19132 1 0.534432 0.61424 0.831318
11643 1 0.531772 0.615662 0.831157
11642 3 0.524209 0.618288 0.831537
11641 1 0.518227 0.620982 0.833831
9717 1 0.555026 0.604938 0.817517
19134 1 0.547932 0.611007 0.830048
16585 1 0.550428 0.611612 0.830552
16586 3 0.557797 0.614583 0.833409
16587 1 0.559489 0.622157 0.835068
17176 1 0.541447 0.653634 0.843205
16762 1 0.542046 0.654897 0.841537
12201 1 0.540524 0.636679 0.827407
13840 1 0.543382 0.635689 0.825018
12200 3 0.53458 0.639307 0.831617
12199 1 0.526396 0.641291 0.832598
16764 1 0.550941 0.653371 0.833699
2974 1 0.552646 0.650795 0.833686
13842 1 0.555521 0.628927 0.816412
2975 3 0.558727 0.645087 0.833607
13841 3 0.549019 0.632989 0.819746
19050 1 0.561714 0.641969 0.84349
2976 1 0.560739 0.643185 0.84079
20439 1 0.60288 0.634005 0.832556
3124 1 0.590037 0.625808 0.843434
3125 3 0.596631 0.62932 0.840491
3126 1 0.601083 0.632611 0.834089
20438 2 0.607677 0.639718 0.82943
20437 1 0.611253 0.641955 0.822646
14681 3 0.491132 0.660623 0.814601
14682 1 0.49886 0.66249 0.81294
5695 1 0.501397 0.663224 0.812518
5696 2 0.509788 0.666324 0.812599
5697 1 0.518762 0.668147 0.814986
11944 1 0.521695 0.668871 0.815978
11945 2 0.528432 0.672009 0.817627
11946 1 0.532282 0.675637 0.823594
19080 1 0.533489 0.676606 0.826391
19079 3 0.537821 0.681585 0.832901
19078 1 0.540388 0.687254 0.838583
16763 3 0.546118 0.659568 0.834385
12060 1 0.41317 0.556843 0.874398
19484 2 0.536559 0.537637 0.862217
19483 1 0.543263 0.539598 0.857842
19485 1 0.533571 0.534123 0.869434
19386 1 0.532142 0.533467 0.872227
14898 1 0.545544 0.539717 0.85588
14897 2 0.551825 0.53987 0.85208
14896 1 0.546459 0.542495 0.846265
18534 1 0.566655 0.558564 0.872934
12220 1 0.505407 0.585902 0.845184
12221 3 0.504168 0.592618 0.850219
16594 1 0.530173 0.593299 0.860555
16595 2 0.538579 0.593076 0.858935
16596 1 0.544408 0.588878 0.853707
739 1 0.546357 0.587817 0.850811
740 3 0.552253 0.586992 0.844191
12222 1 0.509467 0.593825 0.855596
2503 1 0.512075 0.594367 0.857756
2505 1 0.527265 0.593881 0.861086
2504 2 0.519453 0.596092 0.862116
5997 1 0.54512 0.602097 0.857642
5996 3 0.55155 0.607714 0.854995
5995 1 0.548635 0.613766 0.851758
2533 1 0.547651 0.617035 0.850749
16236 1 0.579314 0.61726 0.856067
16235 3 0.583212 0.622471 0.85082
16234 1 0.588057 0.624623 0.845473
5946 1 0.256895 0.649932 0.848973
5945 3 0.252561 0.649787 0.856038
5944 1 0.252239 0.654921 0.861693
17177 3 0.541564 0.648068 0.850216
2535 1 0.543434 0.632205 0.851792
2534 3 0.545337 0.625066 0.848818
17178 1 0.545854 0.653142 0.853317
19049 3 0.564527 0.639568 0.850208
19048 1 0.567032 0.638365 0.857771
14194 1 0.568127 0.637895 0.860415
14195 3 0.572939 0.635805 0.867648
14196 1 0.578481 0.631425 0.871188
8195 3 0.252208 0.663785 0.868786
8196 1 0.252179 0.65725 0.863853
6126 1 0.260308 0.658303 0.874503
8194 1 0.257882 0.659877 0.873226
6507 1 0.544612 0.711243 0.867358
6506 2 0.542093 0.708386 0.859596
6505 1 0.54738 0.709151 0.853154
4957 1 0.508878 0.527513 0.892731
4958 2 0.516374 0.529982 0.892884
19385 2 0.528151 0.531139 0.879432
4959 1 0.521522 0.529622 0.88841
19384 1 0.523579 0.529934 0.886047
7436 3 0.567819 0.525666 0.877527
7437 1 0.573379 0.520609 0.876909
6944 3 0.419158 0.557181 0.89963
6945 1 0.416242 0.55105 0.893165
12059 2 0.406477 0.555956 0.879515
14604 1 0.402619 0.558832 0.890678
12058 1 0.403736 0.558119 0.888066
14603 3 0.399121 0.561726 0.895817
19566 1 0.537308 0.56003 0.88466
17313 1 0.538178 0.557512 0.88493
17312 2 0.542064 0.550193 0.884517
2425 1 0.551132 0.545771 0.884873
17311 1 0.548888 0.547412 0.884913
2426 2 0.556641 0.540035 0.885284
2427 1 0.560959 0.533957 0.88251
7435 1 0.562692 0.532092 0.881037
18533 2 0.563681 0.562481 0.880372
12615 1 0.392011 0.580065 0.888763
12614 3 0.392896 0.581924 0.896619
5823 1 0.38996 0.562957 0.901816
14602 1 0.392611 0.562614 0.90005
6943 1 0.418053 0.562875 0.90435
12613 1 0.396188 0.581112 0.903851
19564 1 0.530045 0.572833 0.882708
19565 2 0.534187 0.566899 0.883923
18555 1 0.558123 0.565415 0.887426
18532 1 0.559765 0.564479 0.885292
18554 3 0.553509 0.568671 0.892581
18553 1 0.556225 0.569194 0.90052
6125 3 0.267122 0.654028 0.876355
6124 1 0.271198 0.647348 0.877327
10459 1 0.272823 0.645002 0.878214
10461 1 0.281083 0.634901 0.886892
10460 3 0.277909 0.638756 0.880689
19530 1 0.402337 0.549194 0.914125
19528 1 0.399497 0.54043 0.91586
19529 3 0.403822 0.54305 0.909739
5822 3 0.383798 0.565049 0.907198
5821 1 0.377959 0.564913 0.913266
16122 1 0.406484 0.575631 0.91797
16120 1 0.397691 0.58092 0.906705
16121 3 0.401773 0.581192 0.913686
