ITEM: TIMESTEP
0
ITEM: NUMBER OF ATOMS
177
ITEM: BOX BOUNDS pp pp pp
0.0000000000000000e+00 5.0000000000000000e+01
0.0000000000000000e+00 5.0000000000000000e+01
0.0000000000000000e+00 5.0000000000000000e+01
ITEM: ATOMS id type 
2425 1 
2426 2 
2427 1 
2533 1 
2534 3 
2535 1 
5767 1 
5768 3 
5769 1 
5821 1 
5822 3 
5823 1 
5944 1 
5945 3 
5946 1 
10459 1 
10460 3 
10461 1 
12199 1 
12200 3 
12201 1 
12613 1 
12614 3 
12615 1 
14602 1 
14603 3 
14604 1 
16585 1 
16586 3 
16587 1 
17308 1 
17309 3 
17310 1 
18553 1 
18554 3 
18555 1 
19528 1 
19529 3 
19530 1 
19564 1 
19565 2 
19566 1 
1615 1 
1616 3 
1617 1 
2503 1 
2504 2 
2505 1 
5695 1 
5696 2 
5697 1 
5995 1 
5996 3 
5997 1 
6943 1 
6944 3 
6945 1 
8194 1 
8195 3 
8196 1 
12220 1 
12221 3 
12222 1 
14680 1 
14681 3 
14682 1 
16594 1 
16595 2 
16596 1 
17311 1 
17312 2 
17313 1 
18532 1 
18533 2 
18534 1 
19483 1 
19484 2 
19485 1 
19777 1 
19778 3 
19779 1 
739 1 
740 3 
741 1 
3124 1 
3125 3 
3126 1 
6124 1 
6125 3 
6126 1 
6505 1 
6506 2 
6507 1 
10693 1 
10694 3 
10695 1 
11641 1 
11642 3 
11643 1 
11893 1 
11894 3 
11895 1 
11944 1 
11945 2 
11946 1 
14896 1 
14897 2 
14898 1 
15028 1 
15029 3 
15030 1 
16762 1 
16763 3 
16764 1 
17176 1 
17177 3 
17178 1 
19048 1 
19049 3 
19050 1 
19384 1 
19385 2 
19386 1 
778 1 
779 3 
780 1 
1960 1 
1961 3 
1962 1 
2134 1 
2135 3 
2136 1 
2974 1 
2975 3 
2976 1 
4957 1 
4958 2 
4959 1 
7435 1 
7436 3 
7437 1 
9715 1 
9716 3 
9717 1 
11677 1 
11678 3 
11679 1 
11938 1 
11939 3 
11940 1 
12058 1 
12059 2 
12060 1 
13840 1 
13841 3 
13842 1 
14194 1 
14195 3 
14196 1 
15883 1 
15884 2 
15885 1 
16120 1 
16121 3 
16122 1 
16234 1 
16235 3 
16236 1 
19078 1 
19079 3 
19080 1 
19132 1 
19133 3 
19134 1 
20437 1 
20438 2 
20439 1 
