ITEM: TIMESTEP
15000000
ITEM: NUMBER OF ENTRIES
149
ITEM: BOX BOUNDS pp pp pp
0 50
0 50
0 50
ITEM: ENTRIES c_binfo[1] c_binfo[2] c_binfo[3] 
3 8960 8961 
3 6445 6446 
1 6445 8961 
3 8959 8960 
2 13115 13116 
2 21203 21204 
2 21202 21203 
2 13114 13115 
1 13114 21202 
2 19007 19008 
2 6052 6053 
1 6052 19008 
2 6053 6054 
1 6054 21204 
3 6446 6447 
2 19006 19007 
1 6447 19006 
2 18016 18017 
2 18017 18018 
2 20918 20919 
2 20251 20252 
2 20917 20918 
2 20252 20253 
1 20253 20917 
2 16525 16526 
1 16525 20919 
2 16526 16527 
2 11776 11777 
2 3016 3017 
1 3016 11776 
2 3017 3018 
2 17657 17658 
2 17656 17657 
1 11778 17658 
2 11777 11778 
2 5188 5189 
2 5189 5190 
2 13129 13130 
2 13130 13131 
2 13663 13664 
2 13664 13665 
2 15682 15683 
2 15683 15684 
1 13884 15682 
2 6193 6194 
2 6194 6195 
2 3958 3959 
1 3958 6195 
2 3959 3960 
2 16804 16805 
1 16804 18018 
2 16805 16806 
2 12767 12768 
1 3960 12768 
2 12766 12767 
2 7174 7175 
1 7174 14338 
2 2369 2370 
2 14338 14339 
2 14339 14340 
2 7993 7994 
1 7993 14340 
2 14491 14492 
1 12297 14491 
1 14493 16806 
2 14492 14493 
2 7994 7995 
2 2368 2369 
1 1047 2368 
2 1046 1047 
2 20743 20744 
2 1045 1046 
1 1045 20743 
2 20744 20745 
2 9365 9366 
2 12296 12297 
2 12295 12296 
2 2762 2763 
2 11219 11220 
2 11218 11219 
2 2761 2762 
2 12581 12582 
2 12580 12581 
1 11220 12580 
2 9364 9365 
2 11668 11669 
2 3392 3393 
1 3231 18574 
2 18574 18575 
2 3230 3231 
2 3229 3230 
1 3229 3393 
2 18820 18821 
2 2635 2636 
1 2635 13665 
1 8274 11670 
2 8273 8274 
2 8272 8273 
2 5362 5363 
1 5362 8272 
2 11669 11670 
2 5363 5364 
2 13882 13883 
2 13883 13884 
2 5783 5784 
2 5782 5783 
1 6234 14266 
2 14266 14267 
2 2636 2637 
1 2637 6106 
2 6106 6107 
2 6107 6108 
2 6232 6233 
2 6233 6234 
3 5066 5067 
3 5065 5066 
1 5067 6232 
1 861 5338 
2 5339 5340 
2 5338 5339 
2 7094 7095 
2 7093 7094 
2 16576 16577 
2 16577 16578 
2 7175 7176 
2 860 861 
2 859 860 
1 859 7176 
2 1975 1976 
2 1976 1977 
1 1977 2088 
2 2087 2088 
2 2086 2087 
2 18566 18567 
2 18565 18566 
2 16711 16712 
2 16712 16713 
2 1336 1337 
1 1336 18822 
2 1337 1338 
2 14167 14168 
2 14168 14169 
2 18821 18822 
2 18575 18576 
2 3391 3392 
1 3391 5500 
2 5500 5501 
2 5501 5502 
2 14267 14268 
