ITEM: TIMESTEP
15000000
ITEM: NUMBER OF ENTRIES
277
ITEM: BOX BOUNDS pp pp pp
0 50
0 50
0 50
ITEM: ENTRIES c_binfo[1] c_binfo[2] c_binfo[3] 
3 764 765 
3 763 764 
3 14059 14060 
1 765 20169 
3 20168 20169 
3 20167 20168 
1 15636 20167 
3 14060 14061 
1 14061 18982 
2 18982 18983 
2 18983 18984 
3 16414 16415 
1 16414 18984 
2 2018 2019 
2 2017 2018 
2 5260 5261 
2 5261 5262 
2 16493 16494 
2 16492 16493 
2 5278 5279 
1 5278 16492 
2 20188 20189 
1 14346 14782 
2 14345 14346 
2 14344 14345 
2 5279 5280 
2 5045 5046 
2 5044 5045 
1 5044 10308 
2 10307 10308 
2 15635 15636 
1 7311 8580 
2 8578 8579 
3 16415 16416 
2 14782 14783 
2 5654 5655 
2 14783 14784 
1 5655 14784 
2 21052 21053 
2 21053 21054 
1 3696 15634 
2 15634 15635 
2 5653 5654 
2 3695 3696 
2 3694 3695 
1 93 3694 
2 4250 4251 
2 4249 4250 
1 4249 7867 
2 7867 7868 
2 8579 8580 
2 21221 21222 
2 4163 4164 
2 4162 4163 
1 14127 21220 
2 21220 21221 
2 9211 9212 
2 9212 9213 
1 4164 9213 
2 17410 17411 
1 17410 18048 
2 18047 18048 
2 20189 20190 
2 18046 18047 
2 6773 6774 
2 6772 6773 
1 6772 18046 
2 15091 15092 
2 15092 15093 
1 15093 17016 
3 2714 2715 
3 2713 2714 
2 9899 9900 
2 9898 9899 
2 7297 7298 
2 7298 7299 
1 7299 10521 
1 9900 14917 
2 14917 14918 
2 14918 14919 
1 1095 6022 
2 6022 6023 
2 1094 1095 
2 1093 1094 
2 8489 8490 
2 10306 10307 
1 8490 10306 
2 8488 8489 
2 7310 7311 
2 19783 19784 
2 19784 19785 
2 7309 7310 
1 7309 19785 
3 1400 1401 
2 17483 17484 
2 17482 17483 
1 9687 17482 
2 9686 9687 
2 10520 10521 
2 10519 10520 
2 16406 16407 
1 5328 16405 
2 16405 16406 
2 5326 5327 
2 5327 5328 
2 1870 1871 
1 1870 10519 
2 13862 13863 
2 92 93 
2 91 92 
2 4976 4977 
2 4975 4976 
1 4975 20827 
2 20827 20828 
2 10358 10359 
2 7868 7869 
1 7869 10357 
2 10357 10358 
2 20828 20829 
2 9979 9980 
1 9979 15615 
3 6890 6891 
3 6889 6890 
1 6891 15613 
2 15613 15614 
2 15614 15615 
1 7404 9685 
2 9685 9686 
2 9980 9981 
2 16060 16061 
1 5499 13281 
2 13279 13280 
2 13280 13281 
2 10925 10926 
2 10924 10925 
1 10924 21454 
2 21454 21455 
2 11543 11544 
1 11544 20575 
2 20575 20576 
2 11542 11543 
2 9022 9023 
2 9023 9024 
2 21455 21456 
2 9529 9530 
1 9529 17727 
3 17726 17727 
2 9530 9531 
3 18976 18977 
3 17725 17726 
1 17725 18978 
3 18977 18978 
2 15454 15455 
2 14125 14126 
1 14125 15454 
2 14126 14127 
2 15455 15456 
2 17411 17412 
2 2788 2789 
2 17014 17015 
3 1399 1400 
1 1399 17014 
2 17015 17016 
3 6479 6480 
3 6478 6479 
1 6478 15772 
3 15772 15773 
3 5455 5456 
2 16462 16463 
2 16463 16464 
2 3344 3345 
2 3343 3344 
2 20372 20373 
2 20371 20372 
1 6024 20371 
2 6023 6024 
2 13861 13862 
2 2789 2790 
1 2790 3657 
2 3656 3657 
2 3655 3656 
1 3655 13861 
3 15773 15774 
3 14311 14312 
1 14311 15774 
3 14312 14313 
3 5456 5457 
2 17351 17352 
2 17350 17351 
2 17573 17574 
2 4318 4319 
2 17572 17573 
2 10678 10679 
2 10679 10680 
2 1871 1872 
1 1872 10680 
2 5854 5855 
2 5855 5856 
1 5856 9735 
2 9734 9735 
1 2487 17350 
2 2486 2487 
2 2485 2486 
1 2485 3445 
2 7402 7403 
1 7402 14899 
2 14899 14900 
2 7403 7404 
2 14900 14901 
2 12467 12468 
2 16061 16062 
1 3630 8494 
2 3628 3629 
1 3628 12466 
2 12466 12467 
2 3629 3630 
2 15295 15296 
1 15295 16062 
2 5497 5498 
2 5498 5499 
2 6788 6789 
2 6787 6788 
2 4198 4199 
1 4198 10926 
2 9733 9734 
1 9733 20577 
2 20576 20577 
2 4199 4200 
2 8494 8495 
2 8495 8496 
2 15296 15297 
2 433 434 
1 433 9531 
1 435 15696 
2 434 435 
2 15695 15696 
2 15694 15695 
3 8479 8480 
1 8479 15694 
3 8480 8481 
2 10049 10050 
2 10048 10049 
2 4319 4320 
1 4320 10048 
2 9311 9312 
2 3445 3446 
2 3446 3447 
2 3769 3770 
2 3770 3771 
2 3250 3251 
2 3251 3252 
2 9310 9311 
3 7886 7887 
3 7885 7886 
1 7885 8481 
3 4879 4880 
3 4880 4881 
3 10976 10977 
3 10424 10425 
3 10423 10424 
1 10425 13491 
3 10975 10976 
3 2251 2252 
3 2252 2253 
2 17450 17451 
2 17449 17450 
3 13490 13491 
3 13489 13490 
3 5792 5793 
1 5793 13489 
3 13820 13821 
3 5791 5792 
1 5791 13821 
3 5632 5633 
1 2253 5632 
3 5633 5634 
3 13819 13820 
