ITEM: TIMESTEP
0
ITEM: NUMBER OF ATOMS
207
ITEM: BOX BOUNDS pp pp pp
0.0000000000000000e+00 5.0000000000000000e+01
0.0000000000000000e+00 5.0000000000000000e+01
0.0000000000000000e+00 5.0000000000000000e+01
ITEM: ATOMS id type 
13 1 
14 2 
15 1 
3268 1 
3269 2 
3270 1 
3622 1 
3623 2 
3624 1 
4822 1 
4823 2 
4824 1 
5959 1 
5960 3 
5961 1 
7150 1 
7151 2 
7152 1 
7942 1 
7943 2 
7944 1 
8122 1 
8123 2 
8124 1 
9076 1 
9077 2 
9078 1 
9193 1 
9194 2 
9195 1 
10441 1 
10442 2 
10443 1 
10447 1 
10448 2 
10449 1 
12544 1 
12545 2 
12546 1 
13210 1 
13211 2 
13212 1 
15628 1 
15629 2 
15630 1 
17527 1 
17528 3 
17529 1 
17536 1 
17537 2 
17538 1 
18439 1 
18440 2 
18441 1 
19741 1 
19742 2 
19743 1 
1663 1 
1664 2 
1665 1 
3514 1 
3515 2 
3516 1 
4714 1 
4715 2 
4716 1 
5863 1 
5864 2 
5865 1 
6715 1 
6716 2 
6717 1 
7951 1 
7952 3 
7953 1 
9214 1 
9215 2 
9216 1 
10114 1 
10115 3 
10116 1 
10375 1 
10376 2 
10377 1 
13294 1 
13295 2 
13296 1 
13351 1 
13352 2 
13353 1 
14320 1 
14321 2 
14322 1 
14326 1 
14327 3 
14328 1 
14557 1 
14558 2 
14559 1 
20569 1 
20570 2 
20571 1 
20809 1 
20810 2 
20811 1 
20920 1 
20921 2 
20922 1 
20971 1 
20972 2 
20973 1 
2041 1 
2042 2 
2043 1 
2059 1 
2060 2 
2061 1 
4261 1 
4262 2 
4263 1 
4270 1 
4271 3 
4272 1 
6190 1 
6191 2 
6192 1 
6619 1 
6620 2 
6621 1 
9628 1 
9629 2 
9630 1 
9910 1 
9911 2 
9912 1 
10765 1 
10766 3 
10767 1 
11839 1 
11840 2 
11841 1 
16927 1 
16928 3 
16929 1 
17113 1 
17114 2 
17115 1 
20482 1 
20483 2 
20484 1 
2074 1 
2075 2 
2076 1 
2155 1 
2156 3 
2157 1 
6403 1 
6404 2 
6405 1 
6469 1 
6470 2 
6471 1 
9835 1 
9836 2 
9837 1 
10792 1 
10793 2 
10794 1 
11077 1 
11078 2 
11079 1 
14074 1 
14075 3 
14076 1 
14878 1 
14879 3 
14880 1 
14938 1 
14939 2 
14940 1 
15094 1 
15095 3 
15096 1 
16849 1 
16850 2 
16851 1 
16966 1 
16967 2 
16968 1 
17089 1 
17090 2 
17091 1 
17254 1 
17255 3 
17256 1 
17917 1 
17918 2 
17919 1 
18157 1 
18158 2 
18159 1 
18178 1 
18179 2 
18180 1 
20194 1 
20195 2 
20196 1 
