ITEM: TIMESTEP
15000000
ITEM: NUMBER OF ATOMS
150
ITEM: BOX BOUNDS pp pp pp
0.0000000000000000e+00 5.0000000000000000e+01
0.0000000000000000e+00 5.0000000000000000e+01
0.0000000000000000e+00 5.0000000000000000e+01
ITEM: ATOMS id type vx vy vz 
11092 1 0.199619 -1.29016 0.953689 
2995 1 0.542093 3.15867 -0.519222 
11093 2 1.52392 3.15289 -1.64675 
11094 1 -5.16412 -0.421093 0.91558 
16370 2 -1.06992 -1.62996 2.02622 
16371 1 -4.08218 -1.97937 -3.89823 
16369 1 3.11826 -5.91892 -1.15529 
2997 1 4.93488 0.623311 -1.76842 
2996 2 -0.763303 -2.30819 -0.219721 
15392 2 -2.21351 2.78418 -1.71831 
15391 1 2.10948 3.36044 -2.60827 
19378 1 -2.02218 -0.495958 0.298227 
7362 1 0.961211 -3.2486 -2.29446 
17421 1 0.623162 -2.99673 -4.79929 
12858 1 6.19891 -1.33172 -3.61428 
17420 2 -0.790358 -1.75757 9.36672 
17419 1 1.96058 -3.13621 -4.69658 
7705 1 3.79041 1.31577 -2.644 
12857 2 4.81204 -3.73146 0.722766 
4497 1 1.74856 1.8356 1.70631 
12856 1 -3.28033 1.09149 -3.5232 
4495 1 4.47818 -1.19628 0.776645 
4496 2 0.397486 1.08806 -3.40419 
19379 2 2.56749 1.40155 -0.486827 
19380 1 -0.899617 2.66803 2.89723 
7361 2 2.66132 -0.000203193 -2.00506 
13924 1 8.33251 -3.31103 2.14379 
7360 1 2.75223 3.21733 2.00198 
13925 3 0.83757 0.739287 -3.15051 
13926 1 4.01088 -7.19163 3.25976 
17231 2 2.26436 1.37894 0.172078 
17230 1 1.40413 -4.97246 4.83919 
18026 2 0.26981 -4.3336 -2.97734 
18025 1 7.24791 0.94656 -0.744131 
7706 2 -0.943283 -2.47674 1.46995 
7707 1 -1.56677 -6.9615 -1.61923 
11506 1 1.90889 4.5877 9.0738 
844 1 -0.671743 -4.51032 -5.2642 
845 2 2.38237 -2.59225 0.433014 
18027 1 0.487766 4.44528 -0.0289603 
4033 1 0.400054 -0.76909 2.6968 
14073 1 8.26155 2.69788 4.96531 
4034 2 0.82233 5.55926 -2.1742 
11508 1 -1.49724 -1.52997 -0.406453 
11507 2 0.591563 1.65536 -2.16931 
20793 1 0.590315 0.75511 1.12436 
4035 1 4.15034 0.997221 4.72006 
20791 1 -1.48908 -0.515231 1.6867 
20792 2 -1.14991 -1.91599 1.40188 
21460 1 -6.02742 3.8762 3.3835 
12414 1 4.39517 5.84362 -0.0955713 
12413 3 -0.322305 2.10076 5.01853 
12412 1 1.07558 0.938309 -3.49169 
15393 1 -1.36556 0.456121 5.96277 
19945 1 2.90263 -0.844828 2.63307 
19947 1 2.93026 5.97635 -1.26064 
2751 1 -2.03114 -4.48905 -4.13157 
19946 3 -1.17171 0.429365 1.19401 
2750 3 7.00331 1.23768 -2.50654 
2749 1 2.70633 -1.45199 5.43297 
19076 2 0.315832 -0.383268 -2.39375 
19077 1 -1.96415 -0.0106317 -5.4965 
21461 2 -1.1292 0.455311 -3.77902 
19027 1 -2.50464 4.4945 1.71185 
19075 1 5.58948 5.25888 4.1098 
846 1 -3.00687 -2.47434 -0.25938 
19029 1 1.01769 6.58028 -0.234836 
19028 2 -5.56832 0.976022 -0.857621 
21462 1 1.12224 -0.967832 -0.0159907 
20671 1 0.252214 4.77322 7.29508 
4053 1 1.4062 -0.104582 -2.27572 
20673 1 0.125446 3.30649 0.279373 
4052 2 3.36955 -0.353039 0.258493 
20672 3 -1.705 -2.83875 2.03129 
12163 1 4.32488 8.50241 3.75126 
19929 1 0.276952 -4.33635 4.21602 
10318 1 2.33509 1.9709 2.66424 
10319 2 -3.21635 3.82357 -3.45337 
10320 1 3.07356 0.152334 1.43314 
12164 2 1.4144 -3.92006 -2.29641 
12165 1 1.44525 -1.4346 1.47689 
17232 1 -0.37504 0.58002 -0.238686 
19928 2 -0.263717 0.19101 0.535369 
18101 2 3.76909 -0.839534 0.488982 
18102 1 -2.34014 0.0124293 -2.02675 
4051 1 -0.428096 -5.39466 -4.56139 
14072 3 -0.564264 4.82492 -0.277399 
14071 1 3.23026 4.91408 3.18457 
19927 1 -4.18772 0.0496984 8.99192 
11402 2 -2.49012 -1.85664 -1.70618 
11401 1 10.4792 0.745791 0.680854 
12283 1 -3.47561 1.10028 -3.85749 
2217 1 -0.831837 -1.78775 0.803691 
12284 3 -0.76145 -2.95748 0.552156 
5361 1 -0.78259 -2.36167 -0.931557 
5360 2 -4.69496 -2.07146 0.449125 
16032 1 2.29031 -2.06287 1.32175 
12285 1 -6.39334 -1.78708 0.504402 
18100 1 -2.5726 8.58566 -1.29793 
5359 1 3.02249 2.09132 3.28974 
11403 1 -4.74061 2.61043 -2.04676 
7348 1 2.10225 -3.73255 -6.09882 
7349 3 -0.119093 -0.605137 -1.09733 
12099 1 3.04692 6.5824 -5.36515 
12098 2 -0.779377 -0.606843 0.461984 
12097 1 0.429033 5.94856 2.35436 
7350 1 0.00432446 -2.24936 0.0246894 
12600 1 -3.7165 -0.646921 -0.100856 
2216 3 -0.83814 0.717161 7.47724 
2215 1 3.43974 0.65202 3.68128 
16031 3 -1.30233 -0.618705 -2.38647 
16030 1 0.614362 -4.99068 1.85641 
12599 2 -1.77478 -0.0584158 5.85342 
14966 2 0.212657 2.34459 0.0477911 
12598 1 -5.57053 2.49722 1.74691 
14965 1 4.71473 1.21474 2.35511 
14967 1 2.88048 -2.91786 4.4069 
7551 1 -2.52524 0.617087 -3.43365 
7550 2 1.67375 1.38741 0.702687 
9383 2 2.05565 2.7625 0.105428 
9382 1 -4.53775 1.36246 4.40241 
9384 1 3.39566 -1.13495 -2.21763 
7549 1 -6.54911 0.00810108 -2.55074 
1279 1 -2.10883 -0.307614 -1.15522 
1280 2 2.32434 1.38621 3.46161 
1281 1 6.00092 -3.08169 -3.15989 
19522 1 -0.350814 4.41406 0.341904 
10381 1 1.70141 -4.40125 3.32024 
10382 2 -5.1402 1.56356 -0.371184 
10383 1 -0.81099 -4.30828 3.18164 
5223 1 -5.00091 -1.70538 -1.32166 
19523 2 -2.93034 4.78518 -3.45124 
19524 1 1.79214 -0.0879822 2.94608 
12379 1 -1.74621 1.99348 2.65787 
5222 2 1.5828 0.723616 -1.65809 
5221 1 1.17602 -0.561817 -2.88293 
1425 1 0.48666 3.68735 -4.51911 
1424 2 -0.978771 2.01278 0.366799 
21233 3 0.436755 -3.43997 1.7689 
21232 1 1.62129 1.92657 3.28236 
1423 1 2.19486 -3.64696 -4.25531 
21234 1 0.00982923 -0.281222 -1.66951 
13679 3 -3.44275 0.207718 -2.75098 
13678 1 1.7627 -0.512225 -2.94325 
13680 1 -4.1539 -2.23914 -4.32842 
12380 2 -5.2174 0.317891 0.695862 
12381 1 -7.71601 9.32061 3.31013 
20878 1 -4.469 9.60975 1.80022 
20879 2 -6.49345 3.43715 0.814242 
20880 1 -1.74981 0.511763 3.19258 
