ITEM: TIMESTEP
0
ITEM: NUMBER OF ATOMS
150
ITEM: BOX BOUNDS pp pp pp
0.0000000000000000e+00 5.0000000000000000e+01
0.0000000000000000e+00 5.0000000000000000e+01
0.0000000000000000e+00 5.0000000000000000e+01
ITEM: ATOMS id type 
1279 1 
1280 2 
1281 1 
10381 1 
10382 2 
10383 1 
11401 1 
11402 2 
11403 1 
12379 1 
12380 2 
12381 1 
17419 1 
17420 2 
17421 1 
19522 1 
19523 2 
19524 1 
1423 1 
1424 2 
1425 1 
4495 1 
4496 2 
4497 1 
10318 1 
10319 2 
10320 1 
11506 1 
11507 2 
11508 1 
12097 1 
12098 2 
12099 1 
12163 1 
12164 2 
12165 1 
12283 1 
12284 3 
12285 1 
12412 1 
12413 3 
12414 1 
12598 1 
12599 2 
12600 1 
15391 1 
15392 2 
15393 1 
16369 1 
16370 2 
16371 1 
20671 1 
20672 3 
20673 1 
20791 1 
20792 2 
20793 1 
20878 1 
20879 2 
20880 1 
844 1 
845 2 
846 1 
4033 1 
4034 2 
4035 1 
5221 1 
5222 2 
5223 1 
5359 1 
5360 2 
5361 1 
7348 1 
7349 3 
7350 1 
7705 1 
7706 2 
7707 1 
9382 1 
9383 2 
9384 1 
12856 1 
12857 2 
12858 1 
13924 1 
13925 3 
13926 1 
14965 1 
14966 2 
14967 1 
16030 1 
16031 3 
16032 1 
17230 1 
17231 2 
17232 1 
18025 1 
18026 2 
18027 1 
19027 1 
19028 2 
19029 1 
19927 1 
19928 2 
19929 1 
19945 1 
19946 3 
19947 1 
2215 1 
2216 3 
2217 1 
2749 1 
2750 3 
2751 1 
2995 1 
2996 2 
2997 1 
4051 1 
4052 2 
4053 1 
7360 1 
7361 2 
7362 1 
7549 1 
7550 2 
7551 1 
11092 1 
11093 2 
11094 1 
13678 1 
13679 3 
13680 1 
14071 1 
14072 3 
14073 1 
18100 1 
18101 2 
18102 1 
19075 1 
19076 2 
19077 1 
19378 1 
19379 2 
19380 1 
21232 1 
21233 3 
21234 1 
21460 1 
21461 2 
21462 1 
