ITEM: TIMESTEP
0
ITEM: NUMBER OF ATOMS
324
ITEM: BOX BOUNDS pp pp pp
0.0000000000000000e+00 5.0000000000000000e+01
0.0000000000000000e+00 5.0000000000000000e+01
0.0000000000000000e+00 5.0000000000000000e+01
ITEM: ATOMS id type 
433 1 
434 2 
435 1 
1399 1 
1400 3 
1401 1 
2485 1 
2486 2 
2487 1 
3250 1 
3251 2 
3252 1 
3445 1 
3446 2 
3447 1 
3628 1 
3629 2 
3630 1 
4879 1 
4880 3 
4881 1 
5653 1 
5654 2 
5655 1 
6022 1 
6023 2 
6024 1 
6787 1 
6788 2 
6789 1 
7867 1 
7868 2 
7869 1 
7885 1 
7886 3 
7887 1 
9022 1 
9023 2 
9024 1 
9310 1 
9311 2 
9312 1 
9979 1 
9980 2 
9981 1 
10048 1 
10049 2 
10050 1 
10519 1 
10520 2 
10521 1 
13279 1 
13280 2 
13281 1 
14344 1 
14345 2 
14346 1 
15613 1 
15614 2 
15615 1 
16405 1 
16406 2 
16407 1 
16462 1 
16463 2 
16464 1 
17350 1 
17351 2 
17352 1 
17410 1 
17411 2 
17412 1 
17482 1 
17483 2 
17484 1 
17725 1 
17726 3 
17727 1 
20827 1 
20828 2 
20829 1 
91 1 
92 2 
93 1 
2251 1 
2252 3 
2253 1 
3343 1 
3344 2 
3345 1 
3655 1 
3656 2 
3657 1 
3694 1 
3695 2 
3696 1 
3769 1 
3770 2 
3771 1 
5497 1 
5498 2 
5499 1 
5632 1 
5633 3 
5634 1 
5791 1 
5792 3 
5793 1 
5854 1 
5855 2 
5856 1 
6772 1 
6773 2 
6774 1 
6889 1 
6890 3 
6891 1 
9211 1 
9212 2 
9213 1 
10306 1 
10307 2 
10308 1 
10357 1 
10358 2 
10359 1 
10423 1 
10424 3 
10425 1 
12466 1 
12467 2 
12468 1 
13489 1 
13490 3 
13491 1 
14311 1 
14312 3 
14313 1 
15454 1 
15455 2 
15456 1 
15634 1 
15635 2 
15636 1 
15694 1 
15695 2 
15696 1 
15772 1 
15773 3 
15774 1 
16414 1 
16415 3 
16416 1 
16492 1 
16493 2 
16494 1 
17449 1 
17450 2 
17451 1 
17572 1 
17573 2 
17574 1 
19783 1 
19784 2 
19785 1 
20575 1 
20576 2 
20577 1 
21052 1 
21053 2 
21054 1 
1093 1 
1094 2 
1095 1 
1870 1 
1871 2 
1872 1 
2713 1 
2714 3 
2715 1 
2788 1 
2789 2 
2790 1 
4162 1 
4163 2 
4164 1 
5044 1 
5045 2 
5046 1 
7402 1 
7403 2 
7404 1 
8479 1 
8480 3 
8481 1 
8488 1 
8489 2 
8490 1 
9685 1 
9686 2 
9687 1 
9733 1 
9734 2 
9735 1 
10924 1 
10925 2 
10926 1 
11542 1 
11543 2 
11544 1 
13819 1 
13820 3 
13821 1 
13861 1 
13862 2 
13863 1 
14059 1 
14060 3 
14061 1 
14125 1 
14126 2 
14127 1 
14782 1 
14783 2 
14784 1 
14899 1 
14900 2 
14901 1 
18976 1 
18977 3 
18978 1 
18982 1 
18983 2 
18984 1 
20167 1 
20168 3 
20169 1 
20188 1 
20189 2 
20190 1 
763 1 
764 3 
765 1 
2017 1 
2018 2 
2019 1 
4198 1 
4199 2 
4200 1 
4249 1 
4250 2 
4251 1 
4318 1 
4319 2 
4320 1 
4975 1 
4976 2 
4977 1 
5260 1 
5261 2 
5262 1 
5278 1 
5279 2 
5280 1 
5326 1 
5327 2 
5328 1 
5455 1 
5456 3 
5457 1 
6478 1 
6479 3 
6480 1 
7297 1 
7298 2 
7299 1 
7309 1 
7310 2 
7311 1 
8494 1 
8495 2 
8496 1 
8578 1 
8579 2 
8580 1 
9529 1 
9530 2 
9531 1 
9898 1 
9899 2 
9900 1 
10678 1 
10679 2 
10680 1 
10975 1 
10976 3 
10977 1 
14917 1 
14918 2 
14919 1 
15091 1 
15092 2 
15093 1 
15295 1 
15296 2 
15297 1 
16060 1 
16061 2 
16062 1 
17014 1 
17015 2 
17016 1 
18046 1 
18047 2 
18048 1 
20371 1 
20372 2 
20373 1 
21220 1 
21221 2 
21222 1 
21454 1 
21455 2 
21456 1 
