ITEM: TIMESTEP
15000000
ITEM: NUMBER OF ATOMS
20568
ITEM: BOX BOUNDS pp pp pp
0.0000000000000000e+00 5.0000000000000000e+01
0.0000000000000000e+00 5.0000000000000000e+01
0.0000000000000000e+00 5.0000000000000000e+01
ITEM: ATOMS id type vx vy vz 
12050 3 -0.294928 1.88083 -5.87179 
12049 1 1.66768 -4.7881 -3.51413 
12051 1 4.93936 -0.114939 -4.3223 
15309 1 4.98282 2.56155 1.46973 
10499 3 -3.60547 -0.774327 -1.63601 
10500 1 0.400146 0.358506 -7.86845 
10498 1 -1.28065 0.832568 -6.77508 
420 1 -0.703233 -3.24621 -1.25124 
10273 1 6.16881 -2.17977 1.32082 
8331 1 -4.94506 1.83382 3.04214 
8330 2 1.99268 -1.39153 -2.27906 
8329 1 -2.95543 3.99333 1.57692 
17119 1 4.2075 2.52116 3.17574 
17120 2 -2.14965 0.526983 -1.51701 
3700 1 -5.14734 2.22076 -2.11497 
21469 1 4.29183 -1.4721 -2.23048 
21471 1 1.36659 1.3657 -5.73924 
21470 3 -2.11717 0.37816 -0.231986 
18591 1 5.45792 9.74411 -0.00105109 
18589 1 4.12925 -3.72757 1.09863 
18590 2 0.245131 1.9897 5.15634 
17705 3 0.464734 -3.19065 -1.18323 
17706 1 -0.187963 -3.98571 -2.3839 
8784 1 -2.54472 5.72247 1.2434 
8783 3 -0.129472 -1.84554 -0.990532 
8782 1 -2.1088 2.58727 2.14028 
3644 2 1.42343 -0.543355 1.28929 
3645 1 -3.2983 -1.26364 4.2738 
3643 1 -1.21493 2.16419 2.59333 
14933 2 -1.55723 0.60409 3.44636 
14932 1 6.69167 -1.30772 4.1842 
10632 1 2.37251 -1.55085 -2.83474 
10631 3 3.469 3.74593 -0.862325 
708 1 3.73067 -5.02272 -4.41019 
10630 1 3.33931 4.35953 0.711192 
12001 1 5.32865 -1.8651 -2.25795 
12002 2 -3.13202 1.11065 -0.195436 
12003 1 1.66286 -2.93692 -3.44478 
21340 1 1.97076 0.543943 2.7477 
2178 1 2.81713 5.27132 0.975279 
2177 3 2.07856 2.71749 0.469182 
2176 1 -5.44205 2.75477 -3.44714 
16150 1 -2.99444 5.82048 -0.877378 
16151 2 3.02971 4.27818 4.99378 
16152 1 -0.481297 5.04107 -0.628966 
7389 1 -0.955034 1.33651 -0.563275 
7388 2 -3.2066 -0.00622183 2.53188 
7387 1 2.12698 0.0931392 1.75074 
17704 1 -2.59497 -1.69316 -0.435238 
9328 1 -5.38088 -0.983507 -0.752787 
6078 1 0.650829 2.25625 -0.105505 
6077 2 -1.18433 1.87074 0.142435 
1878 1 2.03765 -2.20136 -10.8944 
1876 1 3.32447 -3.13627 -4.15614 
1877 2 0.491634 -0.665082 1.14947 
17549 3 -3.35543 -3.82464 -3.37889 
17550 1 -1.17958 0.632308 0.548829 
12368 2 -6.04914 -0.973303 1.05923 
7537 1 7.45359 -1.94534 -1.99657 
13302 1 1.11398 0.140081 -3.55929 
13301 2 -0.0448929 -0.862785 0.670233 
13300 1 -0.0607895 3.84754 -3.0289 
21357 1 -1.42231 0.621049 -1.84404 
18317 3 -2.17371 -2.00251 -1.10894 
18316 1 -6.09053 3.3793 -0.839975 
12608 3 -4.37869 -3.2692 1.97481 
12609 1 -4.21449 -7.12241 -3.29483 
9046 1 -1.76648 6.91024 3.37274 
17796 1 -5.0608 0.89811 6.80307 
17795 2 3.5235 1.85777 -1.22071 
7192 1 -4.86598 -4.93242 1.96048 
17794 1 1.35204 -1.0086 5.28646 
7193 2 -1.08523 1.33365 -3.3685 
9229 1 7.25302 -2.41338 -2.75108 
9230 2 1.42584 4.33343 -1.18508 
12369 1 -1.39553 8.23709 0.881264 
20885 2 -2.81698 -1.6559 2.04612 
20884 1 -3.53655 -0.00784635 -5.16539 
6424 1 0.745682 -4.26393 6.14063 
6425 2 -1.66146 -1.49588 -0.915474 
6426 1 0.188212 -4.73361 -4.16667 
21356 2 -2.34167 2.23616 -0.217064 
16158 1 0.697862 -2.46394 -6.8027 
16157 3 0.0816232 0.758268 -3.41367 
16156 1 -6.34227 -0.0190371 4.54797 
21261 1 -0.0423969 2.70185 -1.24033 
21260 2 -3.55722 -4.76246 -3.98015 
18318 1 1.58194 -1.25235 0.466764 
12192 1 -2.41139 0.240859 -1.19211 
21259 1 -4.87532 -2.16637 -2.2013 
12191 2 5.78332 -4.09211 0.626174 
14688 1 2.19599 -1.90143 -7.41184 
14687 3 1.52798 -1.64381 0.252487 
11729 2 3.06891 1.37762 -4.33426 
11730 1 -1.17912 -4.23783 3.59926 
11728 1 3.42528 -3.78011 -3.80354 
12367 1 -0.905792 1.71125 -1.00818 
14278 1 -0.536443 1.55616 -2.77008 
16047 1 -1.08686 -0.0400044 -1.33749 
16046 3 3.10371 -1.85187 2.80886 
16045 1 -3.30967 -0.653877 1.55933 
12190 1 1.69554 3.44835 0.691216 
17259 1 0.802124 -2.88612 9.1716 
17258 3 1.33616 -2.33558 -2.06095 
17257 1 -1.70599 0.952999 6.01625 
10328 3 -0.702815 -0.413089 1.75945 
10329 1 3.33349 2.0931 -4.64257 
16513 1 -6.69388 -3.14562 -0.402577 
17937 1 0.858378 -3.99606 1.34176 
6756 1 -1.1871 2.01343 -1.35799 
13214 3 -1.24113 -0.599932 2.74572 
13213 1 1.11757 -1.29393 1.11567 
13617 1 -4.97397 0.66899 -1.0632 
14118 1 4.26009 -1.36263 0.580229 
14117 3 1.72896 -1.08769 -0.0895169 
14116 1 -2.59318 7.96958 -5.8388 
16515 1 4.12717 6.52942 -0.720785 
16514 3 1.02599 0.191739 1.25509 
2188 1 -2.13906 -2.81836 -4.30674 
2189 3 -1.90191 -2.32008 1.65316 
3633 1 5.72657 -0.505302 -0.654093 
2190 1 -1.14683 -1.63487 0.0423432 
317 2 2.09424 1.83324 0.284436 
316 1 -3.60381 2.48169 0.124451 
18091 1 -0.0320748 -1.47822 -5.05528 
18092 3 0.328115 5.37389 -1.18876 
18093 1 2.66461 1.10008 -1.1519 
15315 1 -0.930784 4.27008 -2.07511 
6746 2 -0.741096 -1.6997 0.0872143 
6745 1 -0.0778156 -0.215938 10.0972 
4651 1 -1.78945 -2.23008 3.04794 
4653 1 3.45909 0.172391 3.41605 
4652 3 1.66093 -1.31066 0.734025 
2235 1 -0.131344 -2.02158 1.17992 
13616 2 -2.56134 0.693624 -1.88553 
13615 1 -7.31305 -1.10029 -4.48961 
3632 2 0.322782 0.969895 -1.62603 
3631 1 -2.94568 -1.00678 -1.74137 
5238 1 2.37369 -1.25696 -1.42412 
5237 2 -6.24305 0.958412 2.26578 
5236 1 -0.108737 3.74096 -0.739446 
13427 2 -0.169687 -2.24502 -4.43285 
13428 1 3.97666 -2.11051 2.64895 
12485 2 3.04433 -0.370514 1.12436 
12486 1 -2.26516 -0.466747 0.00406026 
12484 1 -2.49482 -6.96353 -2.67401 
20411 2 -2.44782 -0.314635 3.04223 
20410 1 -3.0611 2.29844 3.24781 
20412 1 2.38515 -2.54274 -5.02457 
6747 1 0.982686 0.287268 0.832452 
16 1 -4.15881 0.762382 -2.36552 
17 2 1.03624 -5.44902 0.611397 
18 1 -2.55968 -3.06803 7.97902 
2233 1 -4.46838 3.99388 0.794596 
2234 2 -3.16452 3.06259 -4.11666 
246 1 2.77077 -0.535766 -5.62669 
13426 1 0.711481 1.56137 2.70035 
4674 1 -5.17758 1.9872 4.13152 
2475 1 1.7045 -3.15228 -0.533009 
81 1 -1.34602 0.211373 0.25076 
5950 1 1.00938 0.396613 -0.0109527 
79 1 -2.57273 3.61347 0.29289 
15891 1 3.47683 0.85524 -2.6982 
80 3 2.40871 0.907033 1.45224 
9487 1 5.7744 0.96035 3.41251 
9488 3 0.00884932 -0.934097 2.58449 
9489 1 -5.10413 3.00607 -0.913061 
8401 1 -2.83188 4.13124 -6.32159 
12427 1 -2.00878 -2.2321 4.13233 
21290 2 -2.17481 -1.19655 -1.16485 
11287 1 -1.78653 -0.675667 2.11265 
21291 1 -0.710628 1.97291 -4.55542 
10203 1 -3.29855 2.37905 -2.9925 
11289 1 -1.21711 -1.3765 -4.431 
11288 2 -0.287329 -2.35572 3.10877 
11800 1 -4.3853 -3.05087 2.07443 
11801 3 -3.67814 -2.79207 -0.414519 
11802 1 -2.61197 7.56057 3.85677 
5951 3 1.00962 -0.795332 -4.45509 
775 1 3.30956 -1.07176 2.68238 
776 3 -2.41516 0.472649 2.17011 
17218 1 -1.42453 -2.15034 -0.391594 
17219 3 -3.84853 -1.46984 -1.31643 
7221 1 -0.365341 1.28251 -4.20814 
8403 1 -4.02312 -3.28611 -1.23425 
8402 2 -2.09705 -2.88122 -0.83492 
4086 1 -3.47654 -0.662737 0.52919 
4085 3 2.75962 -1.71618 -2.1589 
4084 1 -0.899639 3.86525 -1.38187 
9302 3 -3.674 1.14494 3.0661 
9303 1 3.89561 2.15805 -0.400217 
9301 1 2.56159 -4.28931 -1.7662 
13533 1 5.71529 2.78183 6.14334 
13532 3 -2.79292 -3.2352 -0.454014 
13531 1 0.141794 -0.422125 1.83063 
777 1 -1.73239 -0.294581 -3.82935 
17213 2 4.00942 -0.405092 -4.04142 
17214 1 0.278206 1.30165 -4.00089 
5158 1 5.56227 -5.65312 -2.38608 
5160 1 0.958369 -7.71179 -2.51454 
5159 3 -0.482513 2.64816 -2.33066 
7220 3 3.1637 1.83844 -0.673478 
6464 3 -1.28053 -0.170674 -0.679036 
221 2 0.778308 -1.86156 0.284589 
220 1 -1.60579 -0.0384528 4.13638 
16992 1 -0.222353 1.74259 -0.822129 
3267 1 2.05615 2.12736 2.42445 
13220 2 0.588464 3.08131 -1.92822 
16991 2 1.95189 1.42066 2.14795 
16990 1 -5.11144 -3.21285 -6.30791 
13221 1 -0.753688 -0.152008 2.06602 
10288 1 1.67184 0.859722 -2.10646 
4449 1 -3.7739 -2.55752 -4.47635 
19930 1 1.45205 -5.8033 0.454614 
19932 1 -1.68328 1.19681 -4.22516 
19931 2 3.67078 -1.1678 1.30247 
6993 1 2.64226 -7.1258 -0.331072 
6992 3 3.26924 2.7772 1.43044 
6991 1 3.89505 -1.27773 1.76549 
6463 1 0.966066 -2.40227 14.2704 
684 1 1.049 2.12949 -8.18581 
3266 2 1.26198 0.383817 3.52218 
3265 1 2.17267 5.15909 -1.37905 
12679 1 1.09913 1.58886 0.135445 
12680 2 4.00266 -1.74225 -0.344533 
12681 1 3.72008 -4.24639 4.74759 
21176 3 0.118388 1.60993 0.623392 
21175 1 -3.75268 5.67075 -1.02728 
17716 1 1.97536 -2.78071 -5.08043 
17717 3 -0.732602 -0.712879 1.26799 
4448 2 1.30088 -0.0405482 -3.41174 
4447 1 -3.72293 1.79436 -3.50622 
20006 2 3.7092 -1.88752 -0.155252 
20007 1 0.516073 0.507732 -1.78842 
20005 1 4.03487 5.86227 5.56072 
19852 1 -1.56244 1.80745 1.79801 
3746 3 6.37649 -0.743131 -1.16799 
3745 1 2.56669 -1.58963 -2.6162 
15589 1 2.59421 2.30486 2.45621 
19569 1 2.70879 2.46992 0.441875 
15590 3 2.28255 1.66959 3.28065 
15591 1 2.53788 -7.77635 2.86423 
18920 2 1.91219 0.161083 -1.91851 
21177 1 2.87331 9.18068 1.13897 
18919 1 -1.9658 -4.91303 1.57653 
18921 1 3.34972 -1.32306 2.0532 
15643 1 -2.39875 6.74361 -2.32862 
15644 2 2.36283 1.22998 1.93453 
15645 1 2.49112 -0.310971 -2.56655 
4870 1 -1.78123 0.491999 -1.74567 
4871 2 -0.864178 4.81779 0.425071 
4872 1 -6.02288 0.624942 1.68763 
862 1 -4.19428 1.97409 -1.19905 
5195 3 -0.224941 -1.84952 -0.489778 
5196 1 2.24369 3.27152 -3.63025 
864 1 -5.32562 -0.757233 0.697997 
863 3 0.0425374 0.126402 -0.419558 
6965 3 -0.844457 1.13818 1.02311 
6966 1 3.50304 -1.97094 -1.02296 
6964 1 -0.9639 7.81356 -3.00872 
19417 1 -1.36706 1.2657 0.477477 
19418 3 -0.985809 4.90099 0.0524073 
19419 1 -2.7199 0.324808 -0.970889 
18205 1 -1.82823 3.45466 1.95144 
18207 1 1.35052 -1.22034 -3.64867 
18206 2 0.102085 2.55383 1.037 
3564 1 1.23997 -0.735844 0.652324 
5460 1 -1.07328 -0.219485 1.5242 
3562 1 -0.620724 0.914608 -1.32557 
3563 3 -0.120487 -1.11323 0.294432 
4009 1 -0.481605 1.68957 -1.85051 
4010 3 1.72562 -0.566046 -2.75843 
15307 1 5.72215 1.153 -2.7579 
15308 3 -1.48354 1.8981 -6.02536 
4011 1 -2.86313 1.88283 3.99872 
17373 1 4.53301 -5.79552 -0.670778 
5461 1 0.445656 4.42229 2.46957 
5462 2 0.801134 1.0122 0.426114 
9653 2 -3.07616 -2.91118 1.98165 
9654 1 -2.08445 4.51984 -1.53477 
9652 1 2.14111 -0.155979 4.56301 
5511 1 -0.585017 4.98326 3.00974 
17150 2 1.81252 -2.11788 1.41285 
8717 2 1.05647 -0.776076 0.821227 
1374 1 0.631403 5.01466 -6.45402 
17149 1 -0.1682 -1.91251 -0.815343 
8716 1 3.75982 5.23289 -2.14862 
372 1 2.67922 -1.56897 -0.170055 
8718 1 4.70375 -1.27462 -4.74182 
554 2 -0.283989 0.609716 0.766534 
555 1 -0.734307 -2.88969 5.89212 
10274 2 1.78489 4.20332 -0.207353 
10275 1 -2.07346 0.205158 1.0903 
627 1 1.04796 -2.25275 0.554927 
1717 1 1.56509 3.92073 -2.48001 
626 2 -2.37078 5.12798 3.65131 
625 1 1.04045 -3.43856 -0.583667 
1718 2 -0.563709 -0.15491 3.254 
1719 1 -1.01877 -5.65906 5.6048 
12148 1 -0.150063 1.00133 0.233724 
12149 2 -1.1716 -0.327655 -1.34801 
12150 1 -5.34721 4.25345 3.0677 
5137 1 6.63475 2.59601 -5.5455 
10386 1 -0.244456 -6.37743 -2.87755 
10385 3 -0.949448 1.62701 -4.14188 
10384 1 0.949598 3.88426 0.56819 
1842 1 0.0516826 4.05897 -1.65098 
1841 3 -0.130112 1.00232 -3.3758 
13877 2 0.796563 -1.62341 -4.82663 
13878 1 -1.67314 -4.03895 -1.78623 
13876 1 -2.52454 -0.279471 -2.63732 
18530 2 0.0899675 0.683495 -1.64387 
18529 1 3.20769 -0.131923 3.46624 
371 2 1.69218 -3.7438 0.960222 
553 1 2.85999 0.96699 5.46208 
370 1 4.55577 -4.4425 8.04919 
2276 2 4.58185 -1.44153 0.191671 
2277 1 5.79182 5.50154 2.2159 
8697 1 0.476109 4.17393 0.524359 
2275 1 -0.164022 -5.42934 4.07999 
4911 1 -4.17207 -6.85059 -0.80025 
5138 3 1.44755 0.859892 -1.79055 
5139 1 -7.85288 2.0528 0.266464 
6869 2 5.03443 -0.781818 0.508243 
6870 1 0.736126 2.26028 -3.60204 
6868 1 0.77327 -3.41726 -0.553751 
8797 1 -4.83103 4.26315 4.51857 
1339 1 3.75973 1.07629 2.20221 
13701 1 -1.34035 4.44123 -0.404043 
13699 1 -0.706479 3.46535 1.42851 
13700 3 0.166123 -1.04405 -0.76049 
14934 1 4.43543 1.09369 3.67489 
16536 1 2.50454 2.56284 -4.17764 
16535 2 0.200908 -3.40221 -3.24477 
16534 1 0.385269 2.81515 1.24428 
7538 2 -7.4601 1.40946 2.64249 
7539 1 1.34404 -7.75034 6.39065 
8696 3 0.638057 0.579793 -1.85526 
8695 1 -2.31852 -1.151 -6.61827 
7450 1 -0.147111 -0.00438351 -1.16729 
7451 2 -5.0886 -0.352604 -0.606827 
7452 1 -5.68115 1.10542 0.273352 
13303 1 4.28084 1.08617 -2.06939 
19207 1 -3.08616 3.02097 -0.084522 
19208 3 0.0305087 -4.4781 2.93576 
1340 2 0.220765 -1.65385 -4.5836 
18925 1 8.54586 1.42237 -2.5485 
1341 1 4.07401 -1.17199 -0.741521 
16413 1 3.78565 -3.16925 6.80366 
17548 1 1.91241 4.05353 -2.16721 
15222 1 -3.50339 1.40147 -1.47967 
13305 1 -3.38457 1.27955 1.9995 
13304 2 -3.73627 1.23375 0.358531 
13914 1 -0.278238 3.30933 4.15297 
13913 2 0.647665 0.588159 1.98228 
3414 1 -4.33413 -1.35439 -0.283769 
13912 1 -4.62963 4.03207 0.783248 
3413 2 0.140777 2.90337 -0.462084 
3412 1 1.01532 -2.51301 -0.742401 
9923 2 -0.124004 -3.28287 3.06933 
9922 1 -3.65385 -2.8701 -0.99686 
9924 1 -8.01797 -9.41159 3.03836 
7194 1 -1.91882 -0.933721 -3.5719 
1551 1 0.0284012 -5.06801 -4.7882 
1550 3 0.468967 2.47384 0.438041 
6393 1 1.8267 0.948908 2.30071 
1549 1 -3.24049 4.31322 1.27423 
148 1 -1.29008 -0.729936 0.591643 
1035 1 -7.89681 -1.08858 -1.17405 
14931 1 0.409974 -6.8016 -5.31707 
1034 2 3.01127 -1.50508 4.03485 
6392 3 -1.11705 -2.49161 3.09059 
6391 1 3.9111 -1.1681 0.24448 
20886 1 0.123213 0.449901 -6.46952 
1561 1 0.236359 4.96765 -0.733101 
14280 1 1.10941 -0.225995 1.91933 
1562 2 2.85213 1.58007 -2.94276 
14279 3 2.66209 -2.29556 -0.452342 
15220 1 -1.18784 3.70695 6.91944 
1563 1 -3.64613 2.94886 -5.20048 
15221 2 -3.36573 -1.98316 4.3529 
9842 3 -1.48239 0.652648 -2.83304 
9841 1 -1.46469 3.33825 5.36777 
18039 1 5.70161 3.89871 -0.0606917 
18038 3 -2.78463 3.40448 -2.40392 
18037 1 -2.15122 1.98999 1.28592 
9843 1 -0.691372 -3.77808 2.4183 
2250 1 -3.65199 1.75227 -2.66677 
2249 2 -0.308752 4.07526 3.52234 
16377 1 2.33616 1.95112 -4.9771 
2248 1 3.73373 -3.09321 2.45703 
8568 1 -0.795042 2.8227 -5.05812 
8567 2 0.0218838 3.72409 -2.86407 
8566 1 -0.475487 3.29965 -2.38455 
14930 3 -5.56962 -0.145058 -0.39094 
1033 1 -0.580102 2.0699 -0.126614 
149 3 1.98301 -0.504091 -1.05842 
150 1 3.55265 1.12545 0.270254 
9228 1 -1.96676 1.21598 -2.92496 
6755 3 -0.517674 -3.10425 1.26375 
6754 1 3.18042 5.28066 -1.29134 
19746 1 -4.42082 -2.53457 -1.04499 
19744 1 -3.52959 -4.99232 -2.14137 
19745 2 -1.93873 0.571925 1.15951 
10327 1 -2.15866 3.68132 6.16009 
17936 3 2.85001 2.31891 -0.295819 
17935 1 8.44139 -1.54498 -2.1267 
14929 1 -0.825497 -0.426868 -0.280873 
14981 2 -0.712144 1.911 0.043581 
14980 1 -0.31584 -0.0197548 3.83984 
318 1 -0.845898 3.42464 2.78714 
18133 1 -0.525601 3.81062 -3.42686 
14982 1 -1.40802 3.43208 -4.34226 
2859 1 2.64705 5.26541 -1.17066 
2858 3 1.04421 0.731277 -3.88431 
1523 2 -6.65972 0.685288 -2.29843 
1524 1 -4.99587 1.16455 -0.494934 
1522 1 2.72611 2.52288 1.07671 
5470 1 0.528522 2.45105 1.58137 
5471 2 3.35864 -1.00634 1.30774 
5472 1 1.34907 7.05326 0.964764 
13969 1 -1.14596 -2.40875 2.6565 
13971 1 2.13783 -4.07331 -3.49833 
13970 2 3.21377 1.57071 -1.98744 
19284 1 2.70814 2.58961 0.475549 
19283 2 -1.54821 -0.656692 1.79983 
19282 1 -2.72583 0.882877 -1.97334 
4606 1 -0.1056 -3.61244 -0.744054 
18134 2 -0.544053 1.35003 1.54326 
1873 1 2.8686 -1.54688 1.42969 
244 1 2.83513 3.20424 -5.4401 
245 2 2.20272 -3.09281 -2.3307 
20901 1 -0.129996 0.395179 2.83497 
20900 3 -2.41639 1.49996 -1.12837 
20899 1 -2.74972 2.33126 -1.2398 
2857 1 3.872 1.24766 -1.98263 
8400 1 -3.37644 3.20696 0.481284 
8398 1 -3.49732 -0.143733 7.39999 
8399 2 -0.0934299 6.68469 0.122882 
15889 1 -0.585009 3.0722 -1.14291 
15890 2 0.305782 3.13482 0.663908 
12429 1 1.293 10.1987 2.48777 
7584 1 1.21505 -9.57076 -0.844219 
12428 3 0.794999 3.11254 2.05638 
7583 2 -3.12169 -0.65959 0.280676 
7582 1 -2.72017 0.0510149 -1.70334 
10202 2 0.244429 -4.40921 -3.71818 
18544 1 2.5754 2.75169 -0.954089 
18545 3 -3.72325 3.56024 -1.89321 
18546 1 1.39977 -2.84601 1.92843 
20095 1 2.05966 -1.83457 -7.78406 
20096 2 4.07389 -2.36619 2.04674 
17220 1 -2.68073 1.20443 -4.99975 
15451 1 2.37322 -1.46303 0.400757 
15453 1 -0.658609 1.73985 -1.62266 
15452 2 0.893111 0.983342 -2.60479 
12805 1 3.04904 -0.729919 1.90555 
12806 3 0.0494078 3.03033 -2.09487 
12807 1 1.0047 -2.87959 5.91227 
10201 1 -3.15074 -0.603665 3.76159 
14454 1 -8.40826 2.31047 -9.76481 
14452 1 0.217313 0.957216 0.0872654 
14453 2 -0.111335 2.55222 -2.28925 
8739 1 2.24055 1.30408 0.0144565 
8738 3 -2.60062 3.23445 -1.71156 
8737 1 2.04508 5.50598 7.28902 
17212 1 -7.33331 0.39921 -2.25071 
20097 1 -1.79957 -8.12148 -2.96962 
222 1 -0.998512 1.80477 1.16851 
13219 1 0.873924 -0.154535 -0.949755 
9988 1 -2.25845 -2.76994 0.336053 
9989 2 1.62912 -0.950946 -1.12386 
9990 1 7.69623 2.79984 -2.18669 
1272 1 -2.80162 2.40944 2.59596 
1270 1 -5.67354 1.87055 0.282117 
10290 1 -1.32273 6.23836 1.98407 
20905 1 2.87603 -4.67067 5.37309 
20906 2 -2.64843 -2.51033 -0.496899 
10289 3 -0.241261 -2.25705 -1.56075 
20669 2 -1.49146 -0.218767 -0.45037 
20670 1 2.90647 -0.515365 1.03628 
20668 1 -2.98078 -0.973969 0.0724584 
19649 2 -4.13717 0.131539 -1.06662 
19648 1 3.46483 5.08591 -2.04511 
1902 1 -4.07493 -4.1849 -7.50075 
1901 2 2.53518 -2.40932 1.25802 
1900 1 -3.1502 -7.24737 -0.874688 
20907 1 1.694 -2.28198 0.979087 
11826 1 1.40407 -4.38517 -0.0821451 
11825 2 1.35089 -1.32957 -5.25841 
8017 1 -0.929887 -1.21425 0.510509 
19853 3 -2.68876 -0.675294 -3.35147 
13866 1 -3.00906 1.24038 -0.231827 
19854 1 0.042274 3.23159 -6.5187 
19568 2 -2.60941 4.30751 -2.08353 
19567 1 -0.866839 0.814854 -2.84733 
18228 1 -2.22398 5.1764 -0.964372 
18227 2 0.651726 -2.01078 -4.17228 
18226 1 -4.72263 -0.865196 -0.495193 
5194 1 5.04355 -3.84691 4.49656 
11657 3 -2.63654 0.964364 3.92677 
11656 1 5.91712 -1.40781 5.24036 
11658 1 -4.75998 -4.64316 -0.0308442 
10583 3 -2.7929 -2.19508 -2.21338 
13864 1 -1.02777 -4.47764 7.12113 
13865 3 -0.775328 1.10689 -3.23764 
10582 1 -1.73049 -4.14583 4.30863 
10584 1 2.18525 2.38134 -3.4014 
17965 1 9.49851 1.62276 4.41881 
17967 1 -0.573593 -3.42112 0.947544 
17966 3 2.56824 1.15853 -1.42169 
5459 2 1.258 -1.01284 -0.507734 
15158 3 1.23781 4.30671 2.75604 
15157 1 -0.429825 -1.60451 1.93862 
15159 1 1.50474 0.00524809 0.283518 
13557 1 -1.3261 1.70548 1.11004 
13555 1 -0.9224 1.19937 -4.08562 
13556 2 -0.0345404 4.82021 -0.17254 
5231 2 0.103822 -3.5161 -4.71541 
5230 1 -3.18988 2.45055 -4.02577 
1373 2 1.22376 4.97034 3.37771 
1513 1 -1.89169 -5.59009 1.43876 
1372 1 5.40746 -5.00715 1.77807 
15245 2 0.529697 0.769995 -4.791 
11721 1 -2.10165 1.96605 -5.56509 
11720 2 3.378 -4.74964 0.0464268 
11719 1 -2.81892 -4.5587 -2.45118 
15246 1 -3.22899 -0.490176 -6.11989 
3943 1 3.11386 -0.445371 -4.402 
1626 1 -3.17399 -1.18138 0.535189 
3945 1 -3.04072 -2.81817 -3.17668 
3944 2 -0.008263 0.935427 0.113219 
10586 3 -2.00555 -1.82339 0.962275 
10585 1 -0.975554 -0.35501 2.08184 
10587 1 -5.75874 -4.97704 4.1088 
1840 1 -1.5531 8.65122 -1.69206 
7619 3 -1.32285 -0.880704 0.729885 
7620 1 2.31647 1.10757 3.15772 
19576 1 -0.0196921 -2.11212 3.33469 
13366 1 -1.94428 -6.92883 -4.95555 
18531 1 2.37496 -2.79123 0.777178 
19578 1 -6.16616 1.35741 -0.338458 
19577 2 1.33068 2.07742 1.30255 
3729 1 -0.156399 -1.56477 0.451938 
3727 1 -1.52203 0.266244 2.70546 
3728 2 -1.36992 -1.77492 -1.66261 
20217 1 1.13687 4.18683 -4.67436 
20215 1 -0.18922 1.13008 2.82972 
20216 2 0.479435 -0.88158 2.14712 
4942 1 -3.04333 -0.288405 5.35127 
15244 1 -5.39144 0.00519962 3.23424 
4944 1 -5.14321 -4.02713 -1.42059 
4943 2 0.870593 -5.2955 -2.3563 
664 1 6.5362 2.73373 -0.323022 
666 1 -1.77427 7.63496 0.107981 
665 3 -4.50804 -2.83734 4.17084 
4910 2 2.65967 2.92911 -2.98931 
4909 1 7.47391 3.65892 10.7908 
1624 1 -2.3462 2.48582 4.60592 
1625 2 0.659574 -2.54045 2.77745 
4744 1 -1.10057 -2.38192 -0.381285 
4745 3 -2.25783 -0.105728 -0.0908481 
4746 1 2.22908 3.52985 3.04329 
13367 2 -1.90585 1.29905 3.33821 
13368 1 -0.306167 -0.0873757 0.754518 
11023 1 -1.01179 -0.370703 -2.82005 
11024 2 -0.879445 -3.23217 3.79206 
8798 3 1.42841 -0.408584 -2.59763 
8799 1 2.86713 0.670351 -4.99276 
6525 1 0.826638 7.47045 -1.55491 
3915 1 -1.93336 -2.67031 8.18986 
3914 3 4.12231 -3.1425 1.13228 
16411 1 -2.93147 -5.88563 -2.23485 
16412 2 -2.73388 1.42182 2.99266 
18449 2 -4.17357 -1.49744 0.710063 
18448 1 1.30737 -3.6484 1.77034 
18450 1 -3.32683 1.56795 1.39935 
5250 1 1.63823 -1.55993 3.02398 
5249 3 -1.81001 0.579184 -1.7275 
5248 1 -5.08653 -4.55277 2.37949 
21 1 0.531609 1.50144 -3.30323 
20 3 -0.653627 1.74468 -0.496118 
19 1 -0.892144 3.40461 -1.9986 
13208 3 1.29593 1.90843 2.1666 
13209 1 0.662263 1.95992 -4.37078 
18343 1 -4.54635 1.61647 -3.58439 
18344 3 3.26892 0.713392 0.307776 
18345 1 2.82999 -4.20847 -3.52293 
2071 1 0.561513 4.12656 -1.48578 
2073 1 2.07971 2.83999 -4.61313 
19209 1 -3.59695 -1.21276 -0.708714 
2072 3 -2.56464 -6.24199 -1.78317 
1914 1 -1.3646 -4.53367 1.45518 
1913 3 2.16263 1.67558 -2.95604 
1912 1 -1.78582 -1.42368 0.278903 
18926 2 -1.82086 3.22005 -1.22808 
18927 1 3.89132 -4.28659 -0.257469 
3913 1 -4.0964 -7.67464 -0.443877 
1889 2 1.10471 -0.898326 -4.41988 
1888 1 -1.27938 -0.628265 -0.179324 
1890 1 -3.02628 -0.329407 -2.52745 
14256 1 0.663735 0.0741102 -11.5833 
14255 3 -5.506 -3.25746 2.58024 
9206 3 -1.06092 -1.86514 3.21605 
9205 1 -3.98279 1.67456 1.88309 
11347 1 3.91754 0.389431 -4.12917 
11348 3 2.65593 0.918935 -1.90892 
19343 3 1.02003 1.53401 0.898019 
19344 1 0.319898 2.30835 -0.00483293 
19342 1 2.00883 3.25142 -0.261457 
14254 1 3.55296 -8.50608 0.425963 
17131 1 -1.70977 6.33767 -0.838983 
17132 2 -2.45007 0.933762 -1.60961 
16376 2 -0.427993 2.43032 -1.14805 
16375 1 5.03172 -6.7012 -6.05873 
13107 1 1.40609 1.5701 -7.22083 
13106 3 -0.527012 2.29202 4.10971 
13105 1 -1.24977 0.90717 5.42664 
12229 1 -7.38365 -2.13056 -6.41738 
9227 3 -0.0328365 -1.48659 -5.79293 
17133 1 0.674828 3.11101 -4.70259 
9226 1 2.8496 1.38567 0.447659 
2966 3 4.04362 0.318987 -0.0575074 
2965 1 -3.75766 -3.4231 -6.08343 
2967 1 8.31938 3.19254 -8.64348 
13872 1 -3.57307 0.469254 -4.36873 
2111 3 2.27286 0.0491057 -1.10661 
6718 1 0.471188 -8.56755 0.96553 
6719 3 2.44942 2.03918 -1.81453 
6720 1 -8.67382 -2.09637 5.97184 
12954 1 -2.58267 1.40343 2.17621 
12953 3 -6.17603 4.62626 0.558819 
18803 3 -1.22802 -2.66828 1.28083 
12952 1 -1.94532 5.0583 -0.285709 
18804 1 -1.50496 -5.61082 -6.59079 
18802 1 -1.5039 -6.4395 -1.8615 
18573 1 -1.78958 -4.00828 -0.925628 
422 3 0.0214061 -2.66769 1.53055 
421 1 7.81021 -3.34164 -2.56764 
423 1 -0.382097 -6.89509 -4.34331 
20554 1 -7.54076 2.82967 -0.225345 
20555 2 0.259696 1.11476 -0.494844 
20556 1 -3.19778 -1.66996 4.83312 
11596 1 2.21637 -0.342235 -6.63099 
452 3 -4.72086 2.21566 -6.70076 
451 1 -5.87104 2.05883 1.10062 
453 1 1.1272 3.37317 0.916349 
4645 1 -4.4297 5.0161 0.979142 
4646 2 4.21787 0.735338 0.19077 
4647 1 -1.15513 0.368235 -1.32653 
123 1 -2.26594 1.31804 5.49209 
121 1 3.45382 -1.50967 -4.39451 
122 2 -5.13957 0.768219 -5.52993 
13847 3 -1.19027 -2.12696 0.328571 
13846 1 2.04429 -0.900625 6.50902 
13848 1 -4.76887 -3.47263 -2.71889 
19657 1 2.8795 -1.43722 6.4658 
19658 2 0.181503 2.04067 0.406599 
19659 1 3.26954 2.77697 3.33761 
13515 1 -0.16349 -3.18347 -1.55706 
14488 1 -0.632523 -3.78833 -1.59858 
14489 2 2.28122 -3.70119 2.27563 
14490 1 -2.79004 7.58582 -1.4879 
11597 3 -3.65647 -2.72331 1.69104 
11598 1 -2.92267 0.430616 -2.17884 
3148 1 2.52312 -3.01131 2.4404 
4607 2 -5.28126 -1.18938 -1.62092 
4608 1 1.46894 0.964152 -3.80888 
19737 1 4.85749 -0.225609 1.73398 
10479 1 6.52425 0.985169 -0.563749 
10478 2 2.56285 -1.1456 2.06552 
6529 1 2.85731 -0.482685 -4.26835 
18135 1 2.10042 -3.90358 -0.634342 
9278 2 0.779781 2.55605 0.972101 
9277 1 3.44813 0.126045 0.972096 
9279 1 -1.74797 0.623229 3.03337 
14187 1 2.68983 6.41864 -3.27639 
14186 3 -0.743736 -1.0586 -2.20921 
9379 1 -4.60329 2.22127 -1.16703 
9380 3 1.37591 -1.56163 -3.73105 
13514 3 0.462167 0.306341 3.49531 
13513 1 -0.049431 4.03065 -3.93045 
20103 1 3.88959 2.85972 -2.78632 
6530 2 6.2717 1.87931 0.988441 
6531 1 -1.76919 -3.43871 1.48092 
1874 3 -0.392288 -2.54737 1.1404 
1875 1 5.58837 -9.13592 8.69195 
14185 1 0.9575 3.38041 -0.0549304 
9381 1 -0.387371 3.65368 -3.80674 
20102 3 2.46497 4.39942 -1.14989 
20101 1 -1.03049 -6.05026 -1.23695 
4374 1 -3.02606 -0.8793 2.98696 
724 1 3.50931 -0.708383 -0.552642 
5979 1 0.578259 6.508 -1.57287 
4372 1 -2.50374 2.58497 -1.95075 
15442 1 0.133559 1.29455 2.56025 
4373 3 -4.29019 -0.680907 -3.97642 
15443 2 0.036651 1.50928 0.434338 
15444 1 -2.05389 0.0213054 -0.320836 
2300 3 -3.01599 2.28898 0.193684 
2301 1 3.66177 4.86817 2.54998 
2299 1 -4.72061 -4.50015 -5.14718 
16103 2 -3.17673 0.795362 2.11714 
16102 1 -3.36036 -3.45205 -4.99537 
725 2 -4.23774 -2.51255 -3.7717 
726 1 -3.87707 -0.219737 1.38734 
1271 3 0.716727 -0.330201 0.657473 
8885 3 -1.01772 -2.24251 0.0709036 
8884 1 -1.13491 -6.98924 0.634832 
8886 1 -2.64699 -0.671297 -4.76106 
16104 1 -1.04263 3.22063 -2.82196 
19650 1 -1.94792 -2.66297 3.94893 
8018 2 3.64324 -3.2097 -2.79769 
11824 1 3.55579 3.9837 -4.75624 
8019 1 0.711329 -0.891896 3.68374 
12033 1 -2.10776 -2.8001 -6.57847 
12032 3 1.17718 3.12675 0.911536 
12031 1 -1.713 4.2411 -5.35249 
17566 1 8.64688 4.55433 -0.198616 
18653 3 1.3242 1.45152 -4.55861 
18652 1 0.580818 1.27029 2.62478 
1602 1 -1.87426 -3.95727 4.11981 
14679 1 4.66948 -1.67649 0.03978 
14677 1 0.418767 1.85119 1.7295 
14678 3 3.82173 2.52678 -0.163407 
6009 1 -0.232725 -1.27311 -4.53319 
815 2 -2.64475 3.83187 -3.35159 
814 1 5.95107 2.24625 -1.20991 
816 1 4.48449 -1.58679 -3.52433 
18654 1 -6.43441 -0.282516 2.5276 
1601 3 5.89376 -0.987931 1.7464 
1600 1 0.700886 2.03203 -5.03706 
10279 1 -2.28356 -6.90157 -1.20675 
6007 1 3.44471 0.320804 1.65304 
6008 3 0.793656 1.02961 3.43074 
17341 1 -5.91184 0.746706 5.34715 
17342 3 -2.25958 0.0400431 -1.37027 
17343 1 1.92849 2.93487 3.66821 
18647 3 1.54115 -5.55296 -0.318464 
18646 1 -1.84006 5.09804 5.4984 
18839 3 -5.29959 -3.50336 -2.28296 
18840 1 1.10482 4.13427 3.0353 
18648 1 3.13111 -0.797846 0.0117572 
3364 1 -0.234707 -6.91228 5.73569 
3365 3 -1.57551 3.19936 0.558512 
3130 1 0.920382 2.3825 0.609763 
3131 3 2.93099 3.88842 -0.132996 
3132 1 0.958447 3.59644 -2.6099 
14995 1 -1.10925 -1.99315 1.33932 
14996 3 1.79783 -0.402718 -1.40019 
6169 1 -1.54846 1.6735 5.62351 
6170 2 -0.351945 2.65118 -0.328877 
5232 1 3.45072 1.96566 -1.87002 
6171 1 1.51552 1.83574 2.12251 
19696 1 -3.24459 2.50001 -2.21474 
19697 3 3.40466 0.669346 2.73527 
19698 1 -2.46968 0.029602 -3.53197 
7618 1 -1.87408 1.05423 -5.94535 
9868 1 4.27434 3.2181 -3.94352 
15037 1 3.06843 5.22298 -5.30341 
16548 1 -3.71794 -3.66905 6.04637 
16547 2 2.36268 0.481933 -0.209126 
8385 1 4.3205 8.30432 -1.80592 
9869 2 1.33223 4.4556 -5.63171 
11025 1 2.19244 2.6991 0.190233 
6524 3 -1.14078 4.18493 1.27498 
6523 1 3.85135 1.50385 -1.02963 
17954 2 4.25389 -2.75561 0.54335 
20131 1 -3.57209 -6.93886 3.62574 
17955 1 0.0276655 -1.71775 -2.6031 
11911 1 2.25904 1.57987 1.17749 
11912 2 -3.32564 3.45208 -0.842394 
4039 1 1.1647 -1.6808 -3.69432 
4040 3 2.51733 0.652663 0.0963018 
4041 1 3.54972 -1.54998 1.89783 
10021 1 1.8727 -2.16442 3.83919 
1435 1 3.46686 0.427445 2.6187 
1437 1 3.85654 1.24182 2.03987 
1436 3 1.94199 2.07426 -0.47962 
7536 1 -4.89147 1.80575 -2.58066 
13207 1 -6.35224 -2.01301 0.887891 
7535 2 0.792657 -0.727723 0.138027 
7534 1 0.816813 -4.06905 -2.61336 
5166 1 0.141962 -0.720379 4.27567 
5164 1 0.107172 -5.97626 2.81172 
5165 2 0.440177 -5.81341 -2.48972 
19965 1 -1.19519 1.62017 3.31776 
19964 2 -1.43916 0.107433 -1.32203 
20132 2 -2.56007 -4.7494 1.56174 
20133 1 -4.72271 1.73458 -4.98037 
19963 1 -5.89751 -2.57103 4.14663 
3076 1 5.19299 2.41963 0.010569 
17929 1 0.525881 -6.18335 -7.29362 
5638 1 3.27447 -0.426963 -2.68461 
9207 1 2.96243 1.51838 0.932821 
9583 1 0.145999 -4.60109 -0.687812 
17931 1 1.55905 -3.40043 -2.8499 
17930 3 -3.10859 7.00095 -0.487476 
9584 3 -0.514496 -0.620773 0.394958 
9585 1 6.86084 0.420103 2.35236 
11349 1 5.41481 5.21814 0.0679056 
10022 3 0.966059 5.29905 -2.58839 
10023 1 4.70316 1.1022 -2.7896 
16285 1 0.238706 -4.25677 -3.71733 
16286 2 -0.175309 2.51413 -2.55804 
16287 1 -4.0631 6.84872 8.19928 
12231 1 3.672 0.779401 -2.34645 
11892 1 1.25043 -7.61513 -4.69121 
11891 3 -0.122966 2.47165 0.309655 
11890 1 1.28887 -6.26844 3.15852 
3078 1 -3.46484 -0.75858 1.35498 
3077 2 -1.81903 -3.64435 1.21214 
2348 3 2.56172 -5.3617 -3.40202 
2349 1 -0.486639 -0.823284 -0.0505045 
11378 3 -0.247424 0.096339 -0.171285 
11379 1 -7.08673 0.636985 2.3439 
8259 1 -3.78892 5.79563 -0.143752 
8258 3 -0.361393 -1.03324 0.462413 
1216 1 -7.62083 0.445108 -0.838329 
8257 1 8.16906 3.5078 -0.801064 
6219 1 4.42873 -2.19687 -7.00084 
6218 3 -1.21593 1.6919 -0.28064 
6217 1 -0.425494 3.85498 1.91097 
21513 1 -2.33547 -2.8843 -3.7738 
21512 2 2.32012 -0.753374 -3.31749 
21511 1 -0.146547 -3.87799 -2.89557 
21591 1 -1.00761 -2.13958 -1.41508 
8108 2 -3.47028 -1.1111 -0.409031 
8109 1 -4.55507 1.12909 -4.82203 
3034 1 -1.05277 -6.28234 7.23185 
8107 1 -2.56171 -3.37184 -3.27448 
10672 1 2.44123 -0.366867 -1.2605 
10674 1 0.49634 -5.13157 -4.91768 
12230 3 -0.136526 -2.3953 -0.486841 
878 2 1.67235 0.49142 2.25934 
879 1 1.34017 0.974487 4.2602 
7319 3 4.07602 -5.78729 2.87247 
13870 1 -1.88977 -0.67086 -0.153075 
7318 1 -0.828827 4.42569 3.81941 
13871 2 0.0682121 2.26353 -1.08634 
7320 1 -5.73027 0.154147 -4.08065 
1131 1 1.31388 -2.40087 0.703109 
1130 3 0.6673 -0.704068 -0.888724 
6044 3 3.38057 5.06127 0.125428 
6043 1 -1.3662 3.4787 -0.645092 
6045 1 -3.4472 5.15873 -0.693403 
2112 1 3.22928 1.2342 4.76996 
5074 1 0.942814 3.33764 -0.027269 
17297 3 3.4868 -0.574066 -3.16662 
17298 1 -0.631397 -7.30447 -2.43674 
2110 1 0.41162 2.92879 2.40684 
5075 3 0.489509 0.856299 0.579598 
5076 1 4.89808 2.92854 -2.20549 
10491 1 -6.16917 -3.20607 1.22744 
8868 1 5.30652 0.575311 -3.34022 
8867 3 0.664014 1.81882 6.12245 
10673 3 0.295975 -3.93805 1.0966 
18571 1 -0.737565 -4.81108 -0.510473 
18572 3 2.51416 5.26638 4.87517 
6832 1 9.51845 1.05938 -0.0284897 
6833 3 7.42176 -6.10074 -0.335003 
5739 1 3.13286 -0.489115 5.11462 