ITEM: TIMESTEP
15000000
ITEM: NUMBER OF ATOMS
207
ITEM: BOX BOUNDS pp pp pp
0.0000000000000000e+00 5.0000000000000000e+01
0.0000000000000000e+00 5.0000000000000000e+01
0.0000000000000000e+00 5.0000000000000000e+01
ITEM: ATOMS id type xs ys zs
10114 1 0.141027 0.192712 0.135736
10115 3 0.147682 0.197818 0.138422
17527 1 0.167564 0.212707 0.132745
17528 3 0.170929 0.217601 0.129679
16928 3 0.159249 0.197759 0.154384
10116 1 0.152698 0.1977 0.145094
16929 1 0.154232 0.197685 0.147446
17529 1 0.174716 0.225541 0.127296
16927 1 0.159859 0.204836 0.157992
5959 1 0.159974 0.206727 0.15957
7953 1 0.179788 0.197955 0.15754
5960 3 0.159446 0.213059 0.165066
5961 1 0.160862 0.212162 0.173057
7951 1 0.179395 0.195926 0.170322
7952 3 0.178257 0.201021 0.164188
2041 1 0.267143 0.0525752 0.188418
2042 2 0.266213 0.0504932 0.196664
2043 1 0.264086 0.0560282 0.201239
18441 1 0.263389 0.0581818 0.202668
20973 1 0.273148 0.0481887 0.215234
4714 1 0.228429 0.068818 0.218147
6471 1 0.242044 0.0765229 0.213279
4715 2 0.235926 0.0680936 0.215626
4716 1 0.240135 0.0739097 0.21393
6470 2 0.246681 0.0827079 0.21209
6469 1 0.247633 0.089575 0.207123
5865 1 0.248372 0.0916371 0.205594
18440 2 0.261363 0.0635504 0.208045
6403 1 0.265046 0.0686081 0.217613
18439 1 0.264229 0.0669664 0.215294
18157 1 0.231204 0.101341 0.188331
18158 2 0.229827 0.101264 0.196407
18159 1 0.231199 0.102553 0.2031
15628 1 0.231191 0.10302 0.206006
15629 2 0.230212 0.104933 0.213639
15630 1 0.221987 0.104958 0.215006
14321 2 0.244455 0.116999 0.198078
14322 1 0.243524 0.122156 0.191455
5863 1 0.248213 0.107104 0.201669
14320 1 0.247366 0.109967 0.200733
5864 2 0.250409 0.0992065 0.203154
17113 1 0.271116 0.104272 0.208695
17114 2 0.273559 0.111454 0.211567
17115 1 0.279479 0.117443 0.209725
14327 3 0.237539 0.14752 0.20508
14326 1 0.23983 0.15356 0.199659
14328 1 0.23603 0.146892 0.212895
16966 1 0.235284 0.147667 0.216035
3514 1 0.274344 0.14238 0.216303
13351 1 0.230388 0.0552347 0.238936
17917 1 0.232491 0.0574279 0.238702
13353 1 0.217558 0.0442948 0.237337
13352 2 0.223516 0.0494275 0.238419
20971 1 0.266319 0.0551619 0.226454
20972 2 0.270119 0.0517067 0.22071
14878 1 0.299195 0.0532462 0.245153
14879 3 0.302166 0.044838 0.246481
17256 1 0.298461 0.056152 0.244402
14880 1 0.302675 0.0364875 0.24893
10792 1 0.21248 0.0712566 0.22776
10793 2 0.218372 0.0692834 0.223461
10794 1 0.225488 0.0691492 0.219591
17918 2 0.239307 0.0625238 0.240466
6404 2 0.265232 0.0738054 0.223892
6192 1 0.247557 0.0711756 0.240916
17919 1 0.245365 0.0688151 0.241199
6190 1 0.255497 0.0813496 0.244246
6191 2 0.252097 0.0766881 0.239013
6405 1 0.27078 0.0782753 0.227213
19741 1 0.268379 0.0868234 0.248442
1663 1 0.264917 0.0888204 0.226302
17255 3 0.299357 0.0638469 0.241822
17538 1 0.273141 0.0789892 0.22893
17537 2 0.279383 0.0810514 0.232456
17536 1 0.282768 0.0897085 0.232331
13 1 0.283854 0.0925976 0.232055
9077 2 0.301077 0.0762532 0.230115
9076 1 0.300952 0.071858 0.235688
17254 1 0.300833 0.0700884 0.238029
7152 1 0.325183 0.0872511 0.22728
7151 2 0.318772 0.0830025 0.225643
9216 1 0.328494 0.0891399 0.227703
7150 1 0.310411 0.0801149 0.226445
9078 1 0.307211 0.0792515 0.22728
9215 2 0.335947 0.0922064 0.227396
9214 1 0.340012 0.0915488 0.220943
10443 1 0.242239 0.122136 0.229555
9835 1 0.23653 0.0952298 0.225629
20569 1 0.230144 0.107189 0.241102
20570 2 0.236663 0.109927 0.244159
10442 2 0.246202 0.11681 0.224537
10441 1 0.249227 0.109191 0.222067
1664 2 0.261546 0.0958824 0.229545
9836 2 0.242748 0.0961399 0.229143
1665 1 0.254028 0.0962342 0.227907
9837 1 0.251377 0.0965709 0.227994
20571 1 0.245515 0.109472 0.245495
8124 1 0.248303 0.109633 0.246127
8123 2 0.256706 0.109847 0.245749
8122 1 0.263998 0.112818 0.247204
18178 1 0.268332 0.123385 0.230166
2061 1 0.26995 0.121583 0.231662
14558 2 0.296373 0.116975 0.230512
14 2 0.286221 0.100535 0.231594
15 1 0.290311 0.107335 0.230803
14557 1 0.291895 0.109973 0.230658
2060 2 0.274168 0.115976 0.234997
2059 1 0.275069 0.110598 0.241285
16968 1 0.228123 0.146211 0.230443
16967 2 0.232238 0.149139 0.22326
15095 3 0.224743 0.140662 0.238602
15096 1 0.227064 0.144854 0.232413
15094 1 0.227491 0.137313 0.245324
3622 1 0.228806 0.135575 0.24762
9910 1 0.254179 0.150355 0.22978
18179 2 0.264973 0.128752 0.226497
18180 1 0.259919 0.136561 0.227969
9912 1 0.257994 0.138618 0.229153
9911 2 0.252933 0.143206 0.232338
14559 1 0.296945 0.125446 0.229577
6621 1 0.297285 0.128154 0.228889
6620 2 0.297216 0.135646 0.226938
6619 1 0.290618 0.139866 0.222593
3515 2 0.280703 0.143511 0.219639
3516 1 0.288304 0.141007 0.221229
7943 2 0.693745 0.154357 0.230187
7942 1 0.694902 0.146627 0.232079
7944 1 0.689304 0.161266 0.231467
3268 1 0.301588 0.217764 0.247778
4824 1 0.310452 0.19847 0.223263
4823 2 0.310675 0.203453 0.229418
3270 1 0.308933 0.209268 0.238443
4822 1 0.309608 0.207878 0.235797
3269 2 0.306777 0.211952 0.245488
4272 1 0.272104 0.248602 0.246541
2155 1 0.299518 0.219229 0.248814
4271 3 0.279484 0.249913 0.248986
11840 2 0.23916 0.0584533 0.266502
11841 1 0.231842 0.0545625 0.264768
12545 2 0.227222 0.0751777 0.260171
12546 1 0.22328 0.0721193 0.266476
20194 1 0.235662 0.0889507 0.279245
9630 1 0.236571 0.0798398 0.25695
12544 1 0.233714 0.078452 0.257473
19742 2 0.261899 0.0879471 0.252736
11839 1 0.244846 0.0627214 0.270315
13212 1 0.246872 0.0648479 0.271343
13211 2 0.250361 0.0706278 0.273819
13210 1 0.257158 0.0738837 0.275138
4261 1 0.259579 0.0754102 0.275724
20195 2 0.242731 0.0902063 0.275159
9629 2 0.242634 0.0829822 0.255923
19743 1 0.254075 0.085486 0.253743
9628 1 0.251547 0.0845598 0.254128
4262 2 0.265353 0.0791363 0.278027
4263 1 0.271933 0.0823791 0.274909
11079 1 0.274447 0.0835415 0.273686
11078 2 0.280125 0.08875 0.270991
6717 1 0.251425 0.0964629 0.271437
20196 1 0.248738 0.0946769 0.272728
17089 1 0.263548 0.108452 0.266112
6715 1 0.261136 0.105968 0.266074
6716 2 0.256015 0.100037 0.267894
17090 2 0.2689 0.114941 0.266101
11077 1 0.279241 0.0957975 0.276266
2074 1 0.294143 0.120156 0.264473
2075 2 0.300173 0.11852 0.259893
17091 1 0.275533 0.118307 0.268708
10375 1 0.291776 0.120951 0.26618
10377 1 0.278263 0.119617 0.269593
10376 2 0.28586 0.122986 0.271614
16851 1 0.278667 0.097866 0.279013
2076 1 0.306042 0.121468 0.254378
3624 1 0.236015 0.136517 0.258375
3623 2 0.231539 0.132492 0.252786
2156 3 0.293636 0.22268 0.252628
2157 1 0.290796 0.229551 0.256731
14074 1 0.28975 0.231862 0.258019
14075 3 0.286557 0.239137 0.261794
14076 1 0.283357 0.243044 0.256015
4270 1 0.282391 0.244717 0.253575
20483 2 0.241698 0.0549567 0.303961
14940 1 0.244625 0.0475955 0.312218
20484 1 0.243744 0.049722 0.31035
9195 1 0.24878 0.0597906 0.297379
20482 1 0.246384 0.0585924 0.299448
20922 1 0.237122 0.0785736 0.300957
9193 1 0.260344 0.0651883 0.287644
9194 2 0.254079 0.0632181 0.293466
20920 1 0.250889 0.0751053 0.306592
20921 2 0.24284 0.0755563 0.305959
16850 2 0.278884 0.101841 0.284807
16849 1 0.274242 0.100036 0.290548
10766 3 0.482714 0.0305102 0.335646
10765 1 0.484014 0.030083 0.328055
14939 2 0.246054 0.0407974 0.317488
14938 1 0.248564 0.0364203 0.323537
10767 1 0.478527 0.0313182 0.342076
10449 1 0.204143 0.185278 0.35824
20811 1 0.201904 0.187133 0.359698
10448 2 0.209855 0.181251 0.353959
10447 1 0.219048 0.179632 0.355695
13295 2 0.179433 0.191502 0.372527
20810 2 0.195479 0.191327 0.36377
13296 1 0.18692 0.191165 0.36879
20809 1 0.189052 0.19122 0.3678
13294 1 0.174776 0.190431 0.37931
