LAMMPS data file via write_data, version 5 Jun 2019, timestep = 120000000

177 atoms
3 atom types
157 bonds
3 bond types
137 angles
3 angle types

0.0000000000000000e+00 5.0000000000000000e+01 xlo xhi
0.0000000000000000e+00 5.0000000000000000e+01 ylo yhi
0.0000000000000000e+00 5.0000000000000000e+01 zlo zhi

Masses

1 0.25
2 0.5
3 0.5

Bond Coeffs # harmonic

1 6000 0.15
2 2000 0.4
3 2000 0.4

Angle Coeffs # harmonic

1 100 180
2 5 180
3 5 180

Atoms # angle

9717 1 1 4.5325093398484441e+01 1.9530411579602738e+01 2.7156324240234841e-01
9716 3 3 4.5639387860491283e+01 1.9452401036092262e+01 4.7846029107520122e-01
9715 1 1 4.5587675390658980e+01 1.9176570820216657e+01 8.4131519944379873e-01
5821 1 1 3.9087030844860230e+01 2.6240890442578458e+01 8.9761131596813015e-01
5822 3 3 3.9148434666807788e+01 2.6495887555125258e+01 1.1827628781595885e+00
5823 1 1 3.9073857519607131e+01 2.6751546646031944e+01 1.4884952539301919e+00
10461 1 1 3.8548327604386280e+01 1.5501227206014669e+01 2.0026095675111724e+00
6125 3 3 3.8260409354486768e+01 1.6780007523069326e+01 2.3454759140611077e+00
10460 3 3 3.8468861410924283e+01 1.5866828498794439e+01 2.0306205472384096e+00
10459 1 1 3.8432433491838772e+01 1.6258328778466190e+01 2.1407033914233824e+00
6124 1 1 3.8389340305974258e+01 1.6407335916901374e+01 2.1973265119278786e+00
5946 1 1 3.7339956992205067e+01 1.8137696501250264e+01 1.9646276631108071e+00
5945 3 3 3.7740846855096372e+01 1.8150899388660669e+01 1.8450709734729926e+00
6126 1 1 3.8265785814681507e+01 1.7166570216843695e+01 2.4458214680443411e+00
5944 1 1 3.7891120868480670e+01 1.7919391248281350e+01 2.1362381326596647e+00
8196 1 1 3.7958778238165849e+01 1.7831776685464011e+01 2.2298651562826635e+00
8195 3 3 3.8179074882747209e+01 1.7640045967813325e+01 2.5072248836821016e+00
8194 1 1 3.8241994352772153e+01 1.7282540754384261e+01 2.4816596462796321e+00
14602 1 1 3.9062647106861263e+01 2.6834497164701098e+01 1.5822246562893152e+00
12058 1 1 3.8855216242203980e+01 2.7505891099011368e+01 2.2712144806741614e+00
14603 3 3 3.9063283263355885e+01 2.7061600455670650e+01 1.8978542639973195e+00
14604 1 1 3.8901787122823912e+01 2.7393930507424010e+01 2.1620666853507724e+00
10694 3 3 4.2237565857862073e+01 1.3374958743553645e+01 4.2301779747629187e+00
10695 1 1 4.2315807526213078e+01 1.3029719490777468e+01 4.4020570104876375e+00
10693 1 1 4.2035468515877419e+01 1.3686017162269874e+01 4.0486338767225014e+00
12200 3 3 4.1668618971104422e+01 2.0284385081155857e+01 3.8368765761613854e+00
12199 1 1 4.1574212356709758e+01 2.0371478799657762e+01 3.4554960867202751e+00
13840 1 1 4.1543160950152952e+01 2.0421157277528881e+01 4.3150852303470755e+00
12201 1 1 4.1574491907172430e+01 2.0391438661165235e+01 4.1746312526250575e+00
13841 3 3 4.1423956274449139e+01 2.0542339420731114e+01 4.6663594287382484e+00
13842 1 1 4.1415529386766011e+01 2.0696576691139576e+01 5.0640023654642050e+00
20438 2 2 4.4856872591275547e+01 1.8399388393605065e+01 6.7612704745586294e+00
20437 1 1 4.5170955747095988e+01 1.8351341399512325e+01 6.9951365118808555e+00
16234 1 1 4.3623764341998303e+01 1.8934366693124161e+01 6.8104932830591052e+00
16235 3 3 4.3252360532863662e+01 1.9081438265763598e+01 6.9118781984444757e+00
16236 1 1 4.3013080092004806e+01 1.9430699793537190e+01 6.8203390438521927e+00
3124 1 1 4.3747213269653685e+01 1.8883940866880582e+01 6.7730973736274356e+00
20439 1 1 4.4551020651329488e+01 1.8593615737791023e+01 6.6744315394024802e+00
3126 1 1 4.4428019939581041e+01 1.8655686264678859e+01 6.6383259249433442e+00
3125 3 3 4.4110689367070734e+01 1.8770131140908326e+01 6.6486429968476353e+00
6945 1 1 3.7228067562979462e+01 2.0010220077333660e+01 6.4379998993346774e+00
6944 3 3 3.7204949079596609e+01 2.0024623411601251e+01 6.8276597244190951e+00
6943 1 1 3.6995094328734211e+01 2.0207772891829098e+01 7.1398866289605021e+00
14680 1 1 3.6923256529325911e+01 2.0271245207801677e+01 7.2352965499742927e+00
14681 3 3 3.6769077872385601e+01 2.0411109486998811e+01 7.5257454071176406e+00
19078 1 1 3.6074007040809221e+01 2.1741890447735162e+01 7.2134713811404918e+00
19079 3 3 3.5765844270726816e+01 2.1687887842151923e+01 7.5105502574274094e+00
11945 2 2 3.5640343419194934e+01 2.1068723337324347e+01 8.2674333830509656e+00
11944 1 1 3.5995078646755609e+01 2.0920465659994608e+01 8.2797303756544895e+00
5697 1 1 3.6144721967158738e+01 2.0860920564582798e+01 8.2899441942941348e+00
19080 1 1 3.5695275996738538e+01 2.1444656937267762e+01 7.8124072075193913e+00
11946 1 1 3.5667300495383202e+01 2.1339830823175934e+01 7.9359422149895504e+00
14682 1 1 3.6640328104113188e+01 2.0570670906895831e+01 7.8891676349352906e+00
5695 1 1 3.6624629085815592e+01 2.0638043392050829e+01 8.0412469521236876e+00
5696 2 2 3.6501034690776741e+01 2.0728672705943897e+01 8.3447687105280473e+00
12060 1 1 3.8913510544066831e+01 2.7949626542832135e+01 2.8009586396372272e+00
12059 2 2 3.8732565752817749e+01 2.7759506787456132e+01 2.5025242602353095e+00
2426 2 2 2.5987212923637447e+01 3.8247615726819518e+01 6.1190392345784357e+00
2427 1 1 2.6295366243512632e+01 3.8487598311974914e+01 6.0496174056650096e+00
7435 1 1 2.6376634958905246e+01 3.8562489466958588e+01 6.0441120607171372e+00
7436 3 3 2.6659899853172693e+01 3.8887343448916802e+01 6.0185199333581352e+00
7437 1 1 2.6975670745206170e+01 3.9047677626005544e+01 6.1026304591576421e+00
19564 1 1 2.5172753868733135e+01 3.6744580659117879e+01 7.3994175917006713e+00
19565 2 2 2.5094964104017862e+01 3.7067852371338631e+01 7.1829334560649887e+00
19566 1 1 2.5217410622343017e+01 3.7182463620097735e+01 6.8425539297544944e+00
17313 1 1 2.5290286081955781e+01 3.7271292322915386e+01 6.7158466146788047e+00
17312 2 2 2.5479305901590646e+01 3.7473102876779706e+01 6.4035129323041611e+00
17311 1 1 2.5710175020370031e+01 3.7818895577610000e+01 6.3185250078184749e+00
2425 1 1 2.5768370277491716e+01 3.7926934024665734e+01 6.2699993446691478e+00
1962 1 1 4.1522849125900283e+00 3.8723283444240110e+01 2.2749146610251216e+01
1961 3 3 4.4462316643322151e+00 3.8452464820266087e+01 2.2845114668061854e+01
11940 1 1 4.0467719367933546e+00 3.8831908931729842e+01 2.2744929496301211e+01
15885 1 1 4.8313888898016293e+00 3.8263001217995864e+01 2.2539068656919675e+01
1960 1 1 4.7139335382390710e+00 3.8309176870913447e+01 2.2603242920912898e+01
15884 2 2 5.1450402039541379e+00 3.8110114416967114e+01 2.2329632452596094e+01
15883 1 1 5.3287936629049382e+00 3.8394909384566070e+01 2.2051800663537104e+01
11939 3 3 3.7288864633967460e+00 3.9113122759771343e+01 2.2790447346870398e+01
11938 1 1 3.5545382579113896e+00 3.9338770439563568e+01 2.3057181369694828e+01
11641 1 1 4.6913300621944769e+00 4.2204758380992338e+01 2.2853708654558126e+01
11642 3 3 5.0740064156846074e+00 4.2075988081154918e+01 2.3062480808502549e+01
14896 1 1 3.7798010422802278e+01 3.0767900834188641e+01 2.4067908221289009e+01
14898 1 1 3.7628168748608623e+01 3.1200976980009440e+01 2.4609153937696849e+01
14897 2 2 3.7804428020064655e+01 3.0875825215304655e+01 2.4431634658247649e+01
19483 1 1 3.7589858085929087e+01 3.1320342767065469e+01 2.4697086690473057e+01
16587 1 1 4.0810471516131832e+00 4.1760356185667931e+01 2.4592460971589194e+01
16586 3 3 4.4737570810669389e+00 4.1963665210359650e+01 2.4580006446796020e+01
16585 1 1 4.7252226971289533e+00 4.2223040583419795e+01 2.4272765264186756e+01
19133 3 3 4.9797759288601453e+00 4.2467603628071750e+01 2.3849630027147931e+01
19134 1 1 4.7974726019975602e+00 4.2276151992173119e+01 2.4159099556681472e+01
11643 1 1 5.0370259350594750e+00 4.2240957864193874e+01 2.3431277608191973e+01
19132 1 1 5.0100984085246392e+00 4.2306472317187414e+01 2.3562827941313529e+01
4958 2 2 3.6144286432405593e+01 3.2364661542921574e+01 2.6055013896141606e+01
19484 2 2 3.7416186705891903e+01 3.1647873084877286e+01 2.4884023529576243e+01
19485 1 1 3.7166781175518167e+01 3.1835191016849194e+01 2.5136324359111825e+01
19386 1 1 3.7080264336325605e+01 3.1905451104406186e+01 2.5215033772685821e+01
19385 2 2 3.6824759730773209e+01 3.2102940887305877e+01 2.5448842067920861e+01
19384 1 1 3.6553612327045172e+01 3.2235443142997170e+01 2.5701505319056192e+01
4959 1 1 3.6441182764000011e+01 3.2280729896023182e+01 2.5798277885066330e+01
4957 1 1 3.5768571220111845e+01 3.2481495756430093e+01 2.6193817908599112e+01
1617 1 1 9.0347937383361341e+00 4.0731829073170644e+01 2.6201514422954165e+01
19777 1 1 1.0458670871316864e+01 3.8391042641647317e+01 2.7204981686737899e+01
19779 1 1 1.0015399193779515e+01 3.8766038822310200e+01 2.7533379232942671e+01
11895 1 1 9.9007202665236846e+00 3.8866211603703718e+01 2.7576227406232700e+01
19778 3 3 1.0291474606573475e+01 3.8536087641699602e+01 2.7439458481989629e+01
11894 3 3 9.5862427119530071e+00 3.9126735269766549e+01 2.7676949315570308e+01
1616 3 3 9.1720088941161588e+00 4.0630546455722026e+01 2.6579256330652942e+01
17309 3 3 9.4113566475784101e+00 3.9933148795748195e+01 2.7201589094388666e+01
17308 1 1 9.3540774096426063e+00 4.0262560454816409e+01 2.6976088151474119e+01
1615 1 1 9.3179441079704937e+00 4.0368741071023649e+01 2.6864567149524568e+01
11893 1 1 9.4672721417225265e+00 3.9455092425665342e+01 2.7505261486398403e+01
17310 1 1 9.4587519991081965e+00 3.9595657583735367e+01 2.7410764024615236e+01
12220 1 1 3.7269746979575862e+00 3.6421417294414731e+01 2.9481107201952007e+01
12615 1 1 2.5557401824734045e+00 4.4646316842240282e+01 2.8977299026731622e+01
12614 3 3 2.8663228063503916e+00 4.4770566851569455e+01 2.8837762875522692e+01
12613 1 1 3.2804661809310773e+00 4.4776974841643074e+01 2.8813192707225138e+01
16120 1 1 3.4206496518983336e+00 4.4757212849089250e+01 2.8839230846311708e+01
16121 3 3 3.8296293869313729e+00 4.4636550758258835e+01 2.8918659966583309e+01
16122 1 1 4.1079321004211957e+00 4.4417881448796457e+01 2.9060028435225977e+01
15030 1 1 5.6716958616069748e+00 3.2968883913123250e+01 3.0230812938537454e+01
15029 3 3 5.7224326764833471e+00 3.3361360379213622e+01 3.0076268768351831e+01
15028 1 1 6.0474179562335122e+00 3.3489093867640030e+01 3.0264795661236075e+01
778 1 1 6.2054929108289647e+00 3.3553911228461310e+01 3.0298136881236527e+01
779 3 3 6.5444777646726795e+00 3.3705064434101736e+01 3.0417216357116171e+01
780 1 1 6.6750862400384570e+00 3.3888166552121334e+01 3.0726150931223181e+01
2136 1 1 6.7125379032703707e+00 3.3968328134094357e+01 3.0826960007264667e+01
2505 1 1 2.9285616369499077e+00 3.6810959873950928e+01 3.0680355197954391e+01
16594 1 1 2.8267949244631243e+00 3.6915810508773433e+01 3.0745146466184710e+01
16596 1 1 2.6723277357231541e+00 3.7586437776453231e+01 3.0870362972895585e+01
739 1 1 2.7349882311758602e+00 3.7707131729503928e+01 3.0837281534843548e+01
16595 2 2 2.5726553211421042e+00 3.7226450324581627e+01 3.0899212970697949e+01
2504 2 2 3.1922668697623120e+00 3.6681285134424421e+01 3.0507146352245481e+01
2503 1 1 3.3916459987881469e+00 3.6667717707981680e+01 3.0194941365428114e+01
12222 1 1 3.4704433256361829e+00 3.6681367196217018e+01 3.0048507664601679e+01
12221 3 3 3.6686113436760790e+00 3.6733264866712595e+01 2.9696284361355833e+01
5767 1 1 2.9445646754859012e+00 3.8624650361023704e+01 3.0675965480961239e+01
5768 3 3 2.9973341683445289e+00 3.9039171450431510e+01 3.0610048513607090e+01
740 3 3 2.8765774101594541e+00 3.8067293610101522e+01 3.0746232445876082e+01
741 1 1 2.9134728326264643e+00 3.8474299124200797e+01 3.0667460415133583e+01
5769 1 1 3.2256095036978145e+00 3.9276451644060721e+01 3.0366780242285635e+01
11679 1 1 3.2968276781636763e+00 3.9372107487734823e+01 3.0271604738449366e+01
11678 3 3 3.5397983113556313e+00 3.9639216658469095e+01 3.0089000512874712e+01
11677 1 1 3.9151143427653241e+00 3.9856101007289119e+01 3.0172975330957474e+01
2535 1 1 4.1696220570500229e+00 4.4651704684752708e+01 3.0357270292293531e+01
2534 3 3 4.5759048402889340e+00 4.4649114875667735e+01 3.0371017664721244e+01
5996 3 3 5.2766073371794571e+00 4.4149059147664964e+01 3.0157957429865050e+01
5997 1 1 5.6292743026775360e+00 4.4129286553756941e+01 3.0121728961032687e+01
2533 1 1 4.8462219915509994e+00 4.4396898008374997e+01 3.0304888674224760e+01
5995 1 1 4.9757472245694094e+00 4.4314733275799391e+01 3.0270224350595541e+01
2135 3 3 6.8873182563455124e+00 3.4167860751906623e+01 3.1074046374268761e+01
2134 1 1 7.1267935439479677e+00 3.4509309038956481e+01 3.1148409802074028e+01
19529 3 3 1.0718848606660945e+01 2.3522285935438603e+01 4.2696675273946923e+01
19528 1 1 1.0437396209388512e+01 2.3327342976419992e+01 4.2495561621102908e+01
19530 1 1 1.1089537650312954e+01 2.3640941487153057e+01 4.2896292915323734e+01
6507 1 1 4.5464115153481615e+01 3.4552374931698871e+01 3.0442904252193504e+01
6506 2 2 4.5578925385403132e+01 3.4682865814604426e+01 3.0088480065276528e+01
6505 1 1 4.5846691317699907e+01 3.4560651786275315e+01 2.9780315073620564e+01
18534 1 1 4.5305282805529068e+01 9.2842285825513517e+00 3.3953784858118574e+01
18555 1 1 4.5133354112557747e+01 1.0012433770324016e+01 3.3553262352626049e+01
18532 1 1 4.5148489107731550e+01 9.9135954733951728e+00 3.3663924462343815e+01
18533 2 2 4.5245763348491892e+01 9.6875929933816689e+00 3.3889422401907460e+01
18554 3 3 4.5081556305462890e+01 1.0302280017933057e+01 3.3283002962991354e+01
18553 1 1 4.5116941381029825e+01 1.0629871377091863e+01 3.3081284490351450e+01
17176 1 1 3.7038536920131527e+01 2.0525389512062588e+01 4.7847775284578773e+01
17177 3 3 3.7030115577978904e+01 2.0234371335043061e+01 4.8126658160857808e+01
16762 1 1 3.7033471053828883e+01 2.0624325639641651e+01 4.7754250222512766e+01
16763 3 3 3.7024319688434531e+01 2.0925270731228689e+01 4.7521387289007372e+01
16764 1 1 3.6946355987300322e+01 2.1264034891813587e+01 4.7708959974120475e+01
2974 1 1 3.6939351136237413e+01 2.1412937107493384e+01 4.7781496325424165e+01
2975 3 3 3.6933719755068338e+01 2.1783659697392263e+01 4.7999253851638393e+01
2976 1 1 3.6983357927498872e+01 2.1919367889278689e+01 4.8367723692928472e+01
17178 1 1 3.6911730941703041e+01 2.0130391866028248e+01 4.8465892097462941e+01
19050 1 1 3.6987350235150473e+01 2.1986777364575502e+01 4.8503785874097680e+01
14194 1 1 3.6731830068754284e+01 2.2478634172549285e+01 4.9158389387510113e+01
19049 3 3 3.7041492452374179e+01 2.2169853720687822e+01 4.8886769979292104e+01
19048 1 1 3.6847626817267475e+01 2.2395173801241139e+01 4.9096854101875088e+01
14195 3 3 3.6451775258946448e+01 2.2668245733469075e+01 4.9339537539151664e+01
14196 1 1 3.6142613629811869e+01 2.2831741143464626e+01 4.9459231480799602e+01

Velocities

9717 1.1116203437812431e+00 1.0343539612999786e-01 2.2540605342175049e+00
9716 1.9904990548787311e+00 4.0134620329283832e-02 1.2406408189176807e+00
9715 1.5769251262246181e-01 -4.4456583524719546e+00 -1.1526869519609610e+00
5821 -1.3345262447120501e+00 -1.5626780347768943e+00 -1.5785555117319141e+00
5822 -1.6423072014274473e+00 -1.0671137584986907e+00 2.1400609407754776e+00
5823 -5.9396408810030970e+00 -3.7368457331002802e-02 1.0730001305451543e+01
10461 -5.6718354347953825e-01 7.6674661991159199e-01 -3.3120596608164599e-01
6125 -1.0183585203867835e+00 2.4549365735020503e+00 1.3472212048164200e+00
10460 -1.0135140385705399e+00 -1.2058893434730651e+00 -3.9731465528797867e+00
10459 1.1589452316301245e+00 -2.8053699852641811e+00 3.1670227151376760e+00
6124 -4.2731557377186329e+00 5.1408827309906524e+00 1.0214563747097982e+00
5946 -7.9585432042047426e+00 3.7691899123758605e+00 -1.5508229831908871e+00
5945 -2.9656484565022190e+00 -2.7474410516721735e+00 1.7661423179787787e+00
6126 5.8377171361124809e+00 5.5391399916298925e+00 3.4407220636835327e+00
5944 7.8180312245019312e+00 1.9874380705014802e+00 4.1998337412703274e-01
8196 2.4187338152573843e+00 2.6653227195775044e+00 9.6036198101465853e-02
8195 -3.5206941519526280e-01 4.0137938404583784e-01 -8.1192710276588276e-01
8194 -3.1336958412209936e+00 2.1405815330688149e+00 -3.1781955968557303e+00
14602 -2.6615827214271370e-01 -1.9716063852040453e+00 7.8880164372042905e-01
12058 -1.8721820336255039e+00 6.9361432100818066e+00 -1.9914727384746240e+00
14603 4.0127330752480237e+00 7.3290317903244973e-01 -9.0697407341988656e-01
14604 3.5965172787797495e+00 5.6749606230430794e-01 1.0248513916763684e+00
10694 4.0838193435494452e-01 -1.1711945872295384e+00 -1.5707284762502199e-01
10695 3.3395962465175377e-01 2.1477157434460845e+00 3.2394289575019659e+00
10693 6.4905996588446939e+00 3.7976897497078315e+00 2.9886777755577876e-01
12200 -2.5454601981826679e+00 -4.0088111339338317e+00 -2.9355456902807506e+00
12199 -5.1792308483430363e+00 3.9666521514354436e+00 1.1720050227814363e+00
13840 2.6265487982347457e-02 1.4618335900579855e+00 2.2245509424374217e+00
12201 5.6440398457981980e+00 4.0679965498708732e+00 -4.7204809763815470e-01
13841 8.3393610507224114e-01 1.1770364821595294e+00 -1.1241252661532419e+00
13842 -2.3928900092108578e+00 6.4927396106757227e+00 9.3908394662194461e-01
20438 1.9567352404045200e+00 -4.4401947499506580e+00 3.7495518832428960e+00
20437 1.0445100377160073e+00 -6.8971323220258380e+00 -1.6548088600901583e+00
16234 6.0293073550799665e+00 -2.9418219977426805e+00 1.7103286894730534e+00
16235 -2.0606162801712742e+00 2.9725179080966475e+00 3.3753263342843236e+00
16236 1.6569775491879164e+00 -1.1722534123872825e+00 -1.1309786704340236e-01
3124 5.1438159824701595e+00 4.1382731773105714e+00 -6.8310855253256912e+00
20439 -3.4630453971359305e+00 2.0065513908557386e-01 3.6966053791181155e+00
3126 -2.8864293127713564e-01 -2.5269712943512364e+00 5.8281069128810437e+00
3125 -2.6218551042493141e+00 -1.6396128689602043e+00 -3.3015536401218828e+00
6945 5.5380504521501610e+00 -3.8222963954658740e-01 -6.6559421558580416e+00
6944 -3.2081020919693986e+00 1.9896267515430803e+00 3.0343811688126139e+00
6943 1.5302692122591526e+00 -1.3563388203166651e-01 3.3043926451865366e+00
14680 -1.2291161826595400e+00 -4.3132259217314521e+00 9.5770059297737531e-01
14681 1.2956353359372565e+00 -5.6439640302880889e-01 -9.6786991182754356e-01
19078 6.5012277804543872e-01 -1.9798560314551057e+00 1.4302327534432822e+00
19079 1.7393704314313863e+00 -3.9843250273956621e-01 6.1144251186551468e-01
11945 1.8246765920923202e+00 -2.3859264371304095e-01 -8.0169400059533906e+00
11944 -4.9370689695090730e-03 -2.3877100474339241e+00 3.4776719364649766e+00
5697 -3.6290425519347700e+00 1.6794762958857432e+00 4.7360550479883905e+00
19080 3.0825322465614051e+00 -2.9478529105562372e+00 6.1324500031673299e+00
11946 3.8372433013447402e+00 1.5875007348907000e+00 3.6933515386175091e+00
14682 -5.3379228435566111e+00 2.8278503739401950e-01 -2.9631832669648968e+00
5695 -2.3806736239060280e+00 -4.1799840334539229e-01 -6.8061509082824170e+00
5696 -9.4596912374648545e-01 2.2885663643684504e+00 3.6068407651821301e+00
12060 3.4446257154441233e+00 -2.1911366417584248e+00 3.4116027954374157e+00
12059 -2.7353738498937541e+00 -4.9068315536869633e+00 -1.0092189767326523e+00
2426 -9.3786334801480620e-01 3.5733666237876544e-01 1.9381270663599148e-01
2427 -9.8402695565355802e-02 -4.6316620044189938e-01 4.3282064215966969e+00
7435 -3.4286448349056635e+00 2.6090465467619806e-01 5.9209539327415612e+00
7436 -2.2487330188813255e+00 4.2188428968594582e+00 3.0267716095240669e+00
7437 3.7481907323306962e+00 3.1374282879953053e+00 -6.7244942067649074e+00
19564 -1.0833274826279959e+00 5.1329123824008018e+00 -2.9213058143211317e+00
19565 2.6859449993760314e+00 -3.3430374073232000e-01 2.8471647537853939e+00
19566 5.2324892819085225e+00 -8.6064239006998622e-01 -5.8418025292474807e-01
17313 3.0489978863682872e+00 6.6799909789361944e+00 -3.6546405321488868e+00
17312 -2.0818303642812168e+00 1.2531991409831365e+00 1.5727631797132002e+00
17311 5.4208142468361888e+00 6.8663348740383945e-01 -4.3921205493185467e-01
2425 9.6536618557779956e+00 -3.9284280852092217e+00 -3.5529949975487489e+00
1962 3.3082353638379275e-01 -5.0236777604482636e+00 -3.9724462437716546e-02
1961 -2.3492672107307810e+00 -5.6571857369851575e-01 6.4988110086502582e-01
11940 1.9020511790359746e+00 1.1654607105007719e+00 -1.9645672686931035e+00
15885 8.5120816797500731e-01 3.5869977000001860e+00 7.6449496814710836e+00
1960 -3.1916538539971335e+00 -2.2266864787127920e+00 -5.8858919720518834e+00
15884 -2.2975686961663095e+00 -5.1597502471741628e+00 1.7656462235051764e+00
15883 -3.0325865480108569e+00 1.9782691653592888e+00 -9.1525832099544391e-01
11939 4.3741093251274382e-01 6.3999065273145428e-01 -7.5412005166333906e-01
11938 2.0944319131464537e+00 -2.0571917752317037e-01 3.3612920882936801e+00
11641 -2.5023117942882056e-01 -3.8392454063220827e+00 2.1115495031640352e-01
11642 2.3263547219292180e+00 2.5332265787550208e+00 1.7699742287956366e+00
14896 3.5016483788828969e+00 5.9114103311675441e+00 2.3188119146171911e+00
14898 1.1286256313621457e-01 -2.7320905042987560e+00 2.9804349352656985e+00
14897 -4.5785657923726433e+00 -4.6139996181519685e+00 1.2338002034801128e+00
19483 2.0159212864632470e-01 4.1544717790509216e+00 3.1793706611612853e+00
16587 2.0049215592957990e+00 6.7778813146833317e-01 -3.3898362666634467e+00
16586 -3.6027752712784356e+00 1.0640726871203898e+00 1.0559515649011397e+00
16585 -1.4956220186256990e+00 -6.0284296486140576e+00 4.9261547311180243e+00
19133 -1.7850389744474409e+00 1.2298608700849054e+00 5.5980934744247812e-01
19134 1.5467721174555862e+00 -4.0179413524108467e+00 1.1307796886533090e+00
11643 -5.1350358511329821e+00 1.2555661015213493e-01 -1.6676155526007801e+00
19132 -2.4288245348194839e+00 7.2383938854968202e+00 -2.1459718684120466e+00
4958 -8.9417125810029263e-01 8.8554715436441711e-01 -1.5368851820965554e+00
19484 -1.6581542795762516e-02 -4.8342268395954449e+00 2.3147703828495576e+00
19485 1.5361726749710871e+00 -3.0316685768521308e+00 -3.2217321894274442e+00
19386 1.0987908682624241e+00 5.8425350716277640e+00 6.0533835181595563e+00
19385 3.8552418355606259e+00 -3.0833180245678631e+00 -2.1456435484008645e+00
19384 1.9167594710863034e+00 1.9730421128145352e+00 -3.8750349080781739e+00
4959 5.2231962160495060e-01 -6.8463172560447805e-01 -8.1858007073718353e-01
4957 3.2848638219105719e-01 1.4107366006994271e+00 1.7627020997635685e+00
1617 5.0851342343585060e+00 1.9023765548746963e+00 8.8571134409857555e-01
19777 1.9615529438327521e+00 -5.4934406934651108e+00 -2.0414513128038623e+00
19779 9.6973148894420120e+00 -3.4410524257845365e+00 4.5685283092325966e+00
11895 -4.9797332735152355e-02 5.3633782319032131e+00 -5.6628400332025397e-01
19778 -4.1362047467058778e+00 -2.2362635646411104e+00 -2.1783967231840804e+00
11894 -1.8905845280099582e+00 3.1438960459141105e+00 -1.8590248150124384e+00
1616 -2.2760868351511738e+00 -1.9486382865030913e+00 1.9138939110660758e+00
17309 -1.3109364667695735e+00 2.0534122190399762e+00 -8.7335431787420137e-01
17308 7.1386840147462340e+00 4.1199420815977685e+00 2.8445472388120190e+00
1615 -6.1262425696281992e+00 2.0560951818507509e+00 4.2027242969870465e-01
11893 -2.7846299267985146e+00 -5.5019482370598318e+00 7.3949411840124557e-01
17310 -3.6279611441678639e-01 -1.3150742780285940e-02 -4.9854672776820159e+00
12220 -3.4612573522919328e+00 2.2922998946504176e+00 1.1661146241188072e+00
12615 -5.8439794301087877e-01 -9.0689241894345990e-03 1.8990388681792878e+00
12614 2.2096686787091095e+00 -2.0277699654688273e+00 4.2415293488750772e+00
12613 -1.9201535774791909e+00 4.3589256033854029e-01 1.0935432424986793e+00
16120 -1.7889671167765335e+00 5.6208710820616794e+00 -2.8072330957451856e+00
16121 -8.9519335347831408e-02 -1.3952616460385381e+00 -1.4843078772328613e+00
16122 -1.3257104599394876e+00 -8.4398271639640732e-01 -3.5957017935266427e+00
15030 -6.3715633172913471e+00 -2.0166755315139473e+00 -2.3961422239935537e-01
15029 3.9411405818136125e-01 1.9338747443555528e+00 -2.2597030669281111e+00
15028 -7.0765398315992745e-01 -1.0447918581727965e+01 -3.7230329609002739e+00
778 2.6525533914367574e+00 4.6368270254497652e+00 -1.1533530916855956e+00
779 -1.6219102850357863e+00 -3.2237306871195304e+00 -4.3159784329024635e+00
780 7.1408336590037864e+00 -5.0017881251185448e-02 2.5862789581820689e+00
2136 2.2495010346924933e+00 -6.7403908956604441e-01 -1.0476380101932264e-01
2505 -8.8776615334446807e-01 -2.1225496648838558e+00 1.3482441867585924e+00
16594 -5.7996385769563119e-01 7.1865072164745214e-01 2.8562383492072119e+00
16596 -2.8662337619334295e+00 4.4759792033771593e+00 -7.3128218625112682e+00
739 -2.5103476204601149e-01 -4.3007145266890596e+00 4.3797651175095691e+00
16595 2.7319781830481231e+00 -7.6362309430290432e-01 2.6384801929475188e+00
2504 -1.4443994515539045e+00 1.5631591862398144e+00 1.9341111601221259e+00
2503 -3.3869806698945704e+00 1.8308210155837662e-01 -4.7734182665475897e+00
12222 -4.4944404439416434e+00 -6.2654548692349626e-02 8.1872317307349061e+00
12221 1.4453569708171605e+00 -3.1994427148601234e+00 -2.0426068295069841e+00
5767 2.7132977176290041e+00 5.6666812001111992e+00 -1.5393140582672937e-01
5768 -2.2009626525617079e+00 1.3533073703466110e+00 -1.7796710395563364e-01
740 2.7448990098559829e+00 -6.7716980319913977e-01 -8.6542742058810862e-01
741 2.5816803813007616e+00 1.8199362818710929e+00 -3.0303288785040494e-01
5769 -8.5229839962310860e-01 8.0313553154991654e-02 9.5589996070094552e-03
11679 -3.8088201676801123e+00 2.5183112243189725e+00 -2.9416367792354685e+00
11678 3.5894022148866687e+00 1.4973840129484213e+00 6.0231175946789706e-01
11677 1.0449195311213404e+00 -2.7556949330972471e+00 3.1956511496461282e-02
2535 -5.2175312750952191e-02 1.1832840214168763e+00 -2.4170024132185119e+00
2534 -2.5956557203235535e+00 -4.2759966503816349e-01 6.0300349768386918e-01
5996 -2.6265947056197769e-01 1.6341211712491281e+00 -1.3547340705149102e+00
5997 5.8044103565945040e+00 -5.2072008447428502e+00 3.7603760727128854e+00
2533 9.4719829638836073e-02 4.8664594575498157e+00 -3.9208871082277028e+00
5995 1.1037660384812915e+00 -1.3404104847242186e+00 -1.0064223958446608e+00
2135 4.0272743593634641e-02 -4.5229129057566986e-02 -5.5105316075515043e-01
2134 3.2950224819581195e+00 -1.8324555658883019e+00 1.4849549135527602e+00
19529 3.9308014339287461e-01 -2.7838436490517147e+00 2.9576506207732938e+00
19528 2.4560215129337930e+00 5.2692905286546097e+00 -4.9401040762849957e-01
19530 -1.7625424107764448e-01 2.7717568584534719e-01 -5.0379132928656070e+00
6507 -3.9031650930941302e+00 5.5672809096091571e+00 -3.5567224412416989e+00
6506 -7.5430811776954862e-02 -2.2980803827973597e+00 4.9786388857317672e+00
6505 -6.9625450177343167e+00 -1.1123969775910034e+00 -3.7540011648697491e+00
18534 9.1859793651236210e-01 -4.5533173374698936e+00 -5.4127508844947751e+00
18555 2.4412761429914918e+00 -3.1378141817661249e+00 2.3007629818384054e+00
18532 -5.1441007368626082e+00 -8.8831945703031945e-01 5.3467703968033655e+00
18533 -5.3908286741679734e-01 -5.1477792144353831e+00 2.9289412523223049e-02
18554 1.8975703483339772e+00 2.7496746037207742e-01 -9.0064103805537565e-01
18553 2.8734345871224121e+00 -2.3093819041478998e+00 -1.3054535026500034e+00
17176 5.2894117958520255e+00 -6.4938297900822679e+00 -1.7663428145683704e+00
17177 -2.9081707085259989e+00 -2.5605143841241498e+00 -3.8232438013171350e+00
16762 -1.0576041706359500e+00 -5.1607666932968508e+00 -4.0048936785385836e+00
16763 -3.7809849790189305e+00 6.1245926771594750e+00 -3.7937392287795308e+00
16764 -4.5342422194706753e+00 -3.6022605114329247e+00 -1.1631002390613360e-01
2974 3.1898864924906754e+00 -1.0935487867354974e+00 2.4481808651571897e+00
2975 1.8861276231769766e+00 6.7147365567079420e-01 2.0843273008262857e+00
2976 -7.2838185140949125e+00 -5.1880504796938984e+00 -4.9870010907980195e-01
17178 7.6629511776051318e-01 3.5277419022787493e+00 -2.0584707898853853e+00
19050 3.5175987076418798e+00 2.0548561106655510e+00 -9.6803297825777967e+00
14194 -6.1690116856261556e-01 -2.8544534043803478e+00 -2.4249398802547830e+00
19049 -2.2415487043014846e+00 -7.5481468972436394e-01 -4.0304177335269937e+00
19048 -2.3353938180501821e+00 -8.4827837140004270e-01 -4.9770403945166686e-01
14195 -2.1590706192065503e+00 -9.1748366233402401e-01 1.9640076305227521e+00
14196 3.6620441868514635e+00 1.6419720822666817e+00 -4.7036521116214175e-01

Bonds

516 3 9716 9717
518 3 9715 9716
873 3 5821 5822
875 3 5822 5823
876 1 5823 14602
1197 3 6125 6126
1198 3 10460 10461
1199 3 10459 10460
1200 3 6124 6125
1201 1 6124 10459
1316 3 5945 5946
1317 1 6126 8194
1318 3 5944 5945
1319 1 5944 8196
1321 3 8195 8196
1322 3 8194 8195
1889 3 14602 14603
1890 2 12058 12059
1891 1 12058 14604
1892 3 14603 14604
2002 3 10694 10695
2006 3 10693 10694
2581 3 12200 12201
2585 3 12199 12200
2588 3 13840 13841
2589 1 12201 13840
3527 3 13841 13842
4072 2 20438 20439
4073 2 20437 20438
4170 3 16234 16235
4171 3 16235 16236
4175 3 3124 3125
4176 1 3124 16234
4180 1 3126 20439
4181 3 3125 3126
4230 3 6944 6945
4231 3 6943 6944
4232 1 6943 14680
4233 3 14680 14681
4234 3 14681 14682
4308 3 19078 19079
4309 3 19079 19080
4732 2 11945 11946
4733 2 11944 11945
4734 1 5697 11944
4735 1 11946 19080
4736 2 5695 5696
4737 1 5695 14682
4738 2 5696 5697
5952 2 12059 12060
7295 2 2426 2427
7296 1 2427 7435
7297 3 7435 7436
7346 3 7436 7437
7749 2 19564 19565
7751 2 19565 19566
7818 1 17313 19566
7819 2 17312 17313
7820 2 17311 17312
7823 2 2425 2426
7824 1 2425 17311
9350 1 1962 11940
9351 3 1961 1962
9352 3 1960 1961
9353 1 1960 15885
9354 2 15884 15885
9355 2 15883 15884
9367 3 11939 11940
9368 3 11938 11939
9427 3 11641 11642
9431 3 11642 11643
9600 2 14896 14897
9691 1 14898 19483
9692 2 14897 14898
9695 2 19483 19484
10110 3 16586 16587
10161 3 16585 16586
10162 1 16585 19134
10163 3 19133 19134
10164 1 11643 19132
10165 3 19132 19133
10475 2 4958 4959
10476 2 19484 19485
10480 1 19386 19485
10481 2 19385 19386
10482 2 19384 19385
10484 1 4959 19384
10612 2 4957 4958
11731 3 19777 19778
11733 1 11895 19779
11734 3 19778 19779
11738 3 11894 11895
11803 3 1616 1617
11812 3 17309 17310
11813 3 17308 17309
11814 3 1615 1616
11815 1 1615 17308
11816 3 11893 11894
11817 1 11893 17310
12361 3 12220 12221
12675 3 12614 12615
12681 3 12613 12614
12682 1 12613 16120
12683 3 16120 16121
12684 3 16121 16122
12936 3 15029 15030
12940 3 15028 15029
12941 3 778 779
12942 1 778 15028
12946 3 779 780
12947 1 780 2136
13034 1 2505 16594
13035 2 16594 16595
13036 3 739 740