ITEM: TIMESTEP
15000000
ITEM: NUMBER OF ATOMS
177
ITEM: BOX BOUNDS pp pp pp
0.0000000000000000e+00 5.0000000000000000e+01
0.0000000000000000e+00 5.0000000000000000e+01
0.0000000000000000e+00 5.0000000000000000e+01
ITEM: ATOMS id type vx vy vz 
11938 1 3.6656 1.76042 -6.29319 
2134 1 -0.154561 -5.07916 3.99597 
1960 1 -0.159688 -1.68401 2.96256 
15885 1 2.15005 4.52097 6.15509 
1961 3 0.076573 0.506735 -1.9695 
11940 1 -0.061286 -1.81259 -4.38767 
11939 3 0.990812 -1.02796 -1.61816 
1962 1 -3.17963 4.49182 -1.62372 
778 1 -5.40922 -1.68069 -0.205701 
10693 1 -0.873321 -0.377183 -1.20398 
15029 3 -3.63012 0.892508 1.76297 
15030 1 0.962425 5.97161 1.9654 
15028 1 -2.3823 -0.73656 -3.41205 
10695 1 -0.182169 1.54427 -1.22694 
2135 3 2.54426 -3.35588 3.17875 
2136 1 4.59955 -1.62218 6.46946 
780 1 0.85756 -4.40811 -2.54297 
779 3 -5.30255 2.06673 -1.34464 
10694 3 -0.458585 1.3287 -2.42182 
15884 2 -1.02549 -3.52893 -0.130656 
15883 1 1.70583 0.266364 4.86753 
17309 3 -2.21972 -3.5109 -2.37688 
11893 1 2.2709 1.33937 4.43324 
17310 1 -2.54799 4.35467 -8.42792 
11894 3 2.09207 2.69173 -0.208582 
19779 1 0.184284 3.17532 -0.995036 
11895 1 -0.600778 -2.9652 -0.55386 
9715 1 -0.989673 -3.87555 0.978342 
9716 3 4.58801 2.44788 -1.97 
19777 1 5.21212 3.67835 0.822391 
19778 3 -4.24933 3.11466 -1.33476 
14680 1 2.59102 -2.72608 -2.61362 
1617 1 -2.03055 -0.667838 -0.724198 
1616 3 -2.39209 -3.25649 -4.47195 
11677 1 0.0419684 1.12536 -0.759906 
5768 3 -2.33683 2.74702 -0.505862 
5769 1 0.822851 1.06444 0.306697 
741 1 0.285356 -2.81172 4.11936 
5767 1 0.0361772 1.51774 -2.6774 
11679 1 -0.785231 -0.346507 -5.6906 
11678 3 -4.11229 1.35212 -2.74153 
17308 1 -1.65006 -1.89058 -1.86749 
1615 1 -3.56999 3.54829 -4.01973 
19133 3 3.31266 -0.491469 -1.26789 
19132 1 -1.00788 0.503204 1.91651 
11643 1 -4.68915 3.70559 -1.5725 
11642 3 0.564296 -2.69063 1.14118 
11641 1 2.1545 -2.55338 3.92307 
9717 1 7.05317 2.86932 5.48493 
19134 1 7.06345 -4.24502 -5.14192 
16585 1 1.29067 3.89146 0.111161 
16586 3 1.02201 -1.02613 -3.94542 
16587 1 -0.100821 -2.59503 1.74086 
17176 1 1.75859 -3.7018 -1.87862 
16762 1 -1.38336 2.19742 2.4004 
12201 1 -2.48963 0.64432 -4.24769 
13840 1 -1.55782 3.90843 -0.0649264 
12200 3 -0.452384 -2.5274 4.4556 
12199 1 -1.97097 -0.43683 -3.65034 
16764 1 -1.38472 6.55016 5.46557 
2974 1 4.73172 -1.55866 0.442122 
13842 1 0.216002 -1.47412 1.20042 
2975 3 -0.240435 0.134193 -2.18995 
13841 3 -1.48126 -4.0316 2.40893 
19050 1 1.83704 0.413146 -4.10421 
2976 1 4.28301 0.787573 4.99895 
20439 1 -1.60961 1.65363 0.766531 
3124 1 -1.99623 1.85841 -2.32872 
3125 3 1.08693 3.72068 1.43492 
3126 1 -0.864611 2.81099 1.91594 
20438 2 -1.04285 -2.1984 -1.20625 
20437 1 1.00551 -2.40898 1.20843 
14681 3 3.94162 -2.34153 -2.2833 
14682 1 0.538628 -2.03806 -5.97939 
5695 1 -5.39602 -1.34156 2.04543 
5696 2 0.64927 1.70134 3.52651 
5697 1 -2.84336 6.25696 0.489089 
11944 1 0.10285 -5.13011 0.930686 
11945 2 -0.444939 -1.32384 -2.67298 
11946 1 -1.23163 -4.0798 -5.88241 
19080 1 7.18706 1.6704 -0.259725 
19079 3 -2.1397 -1.984 -4.83294 
19078 1 -3.70463 -0.609734 3.48704 
16763 3 -1.01847 -1.33476 -2.94357 
12060 1 0.548595 -5.014 -8.13059 
19484 2 0.951831 -6.88621 -2.90509 
19483 1 6.1615 3.92936 0.633452 
19485 1 -4.36673 3.70746 -5.28474 
19386 1 7.1071 3.30114 -5.9503 
14898 1 3.80949 0.941403 3.40504 
14897 2 -2.05826 0.13161 -1.63701 
14896 1 0.271885 -1.71933 1.92418 
18534 1 -2.90333 -8.82636 -1.24299 
12220 1 -7.02772 3.32425 -0.984118 
12221 3 0.235638 -2.73126 4.61617 
16594 1 -2.39389 -0.665442 -0.541084 
16595 2 0.00404724 2.22687 -0.23942 
16596 1 6.14365 -8.67909 1.5258 
739 1 -4.27688 -0.115565 3.57821 
740 3 -0.0317199 2.72549 1.60338 
12222 1 -5.80136 -3.36499 -6.68937 
2503 1 0.421571 -6.09003 2.7811 
2505 1 -0.403507 -4.85207 -4.76859 
2504 2 2.13106 -5.18791 0.0245171 
5997 1 3.1775 -5.88338 0.297603 
5996 3 4.06246 1.47885 1.77046 
5995 1 -1.15347 0.922321 -0.71696 
2533 1 1.67993 -0.737662 -4.73395 
16236 1 3.92564 -0.146714 4.09612 
16235 3 2.99574 0.669901 1.92621 
16234 1 -6.2559 1.35337 3.20786 
5946 1 -2.39735 1.15185 -2.08331 
5945 3 -2.84052 -5.37343 1.12364 
5944 1 -2.89564 2.81233 0.229488 
17177 3 4.24099 -0.217941 1.71097 
2535 1 3.36166 0.946309 -1.92416 
2534 3 2.74661 1.69899 2.52653 
17178 1 0.511726 5.15471 -0.975668 
19049 3 2.77967 -0.631499 0.035722 
19048 1 0.79823 0.842968 2.08371 
14194 1 -2.17593 5.86132 -0.28602 
14195 3 -0.958481 -1.39591 -2.89177 
14196 1 2.89275 -4.19783 -1.96668 
8195 3 -1.90817 -2.79554 -4.10478 
8196 1 -5.07854 -0.684079 -2.3562 
6126 1 5.02213 7.81712 -2.93424 
8194 1 1.33763 -0.443964 -3.59073 
6507 1 -2.12807 5.68928 4.658 
6506 2 -4.94774 3.99057 0.438222 
6505 1 -1.97383 2.16923 -3.82117 
4957 1 -0.209388 2.9124 -0.0679869 
4958 2 -2.9438 -0.76783 -1.2586 
19385 2 5.44305 -5.00099 -1.39761 
4959 1 1.65895 -5.1745 -6.22189 
19384 1 1.12458 3.26153 1.39137 
7436 3 -2.24414 -3.51923 0.965544 
7437 1 1.07669 -5.32066 -1.41785 
6944 3 -2.32961 -0.378984 -3.88533 
6945 1 3.43336 1.8598 2.57514 
12059 2 1.20271 0.893604 -0.391568 
14604 1 -0.658019 2.82251 -1.22115 
12058 1 4.67416 -0.308421 -1.12772 
14603 3 1.39634 -0.517837 6.17667 
19566 1 6.43062 2.78193 1.59036 
17313 1 -4.73108 -0.410537 6.09611 
17312 2 0.235145 1.79271 -3.87082 
2425 1 -1.18343 3.72378 4.08705 
17311 1 1.20022 1.59448 -3.0957 
2426 2 2.96312 -1.19524 -2.85016 
2427 1 0.53911 6.84996 1.94579 
7435 1 0.0268472 -3.54963 -2.78312 
18533 2 -2.76232 2.93398 0.415765 
12615 1 4.15127 -0.368399 -0.797358 
12614 3 0.530901 2.97125 0.67319 
5823 1 -2.06094 0.304569 -2.88971 
14602 1 -0.663022 0.592448 6.75553 
6943 1 1.56496 -0.0917475 -0.824392 
12613 1 5.3446 -1.54397 1.87214 
19564 1 -0.421379 4.71686 4.33119 
19565 2 3.50141 -0.0470198 -1.37373 
18555 1 6.6929 -5.93617 -2.3698 
18532 1 -0.546633 3.12645 -3.95634 
18554 3 -0.574057 1.23825 -0.82167 
18553 1 1.90061 3.0285 -0.776726 
6125 3 4.56053 -0.483964 -3.31547 
6124 1 0.662038 5.66674 1.10099 
10459 1 -0.766181 2.95765 -3.14795 
10461 1 -1.66879 -3.41582 -1.51644 
10460 3 -2.40154 2.5733 0.152492 
19530 1 1.62226 1.32704 0.0343408 
19528 1 1.08751 2.92232 -4.6875 
19529 3 -2.40373 0.637317 -2.63725 
5822 3 1.26358 1.954 -1.81421 
5821 1 -3.17505 -1.68646 3.08314 
16122 1 3.20439 -7.36788 1.02875 
16120 1 -0.0660229 -6.82411 3.53523 
16121 3 3.70052 -0.769366 1.15573 
