ITEM: TIMESTEP
15000000
ITEM: NUMBER OF ATOMS
324
ITEM: BOX BOUNDS pp pp pp
0.0000000000000000e+00 5.0000000000000000e+01
0.0000000000000000e+00 5.0000000000000000e+01
0.0000000000000000e+00 5.0000000000000000e+01
ITEM: ATOMS id type xs ys zs
764 3 0.121875 0.761639 0.718624
763 1 0.123834 0.756172 0.712612
14059 1 0.0187511 0.781027 0.724822
765 1 0.122521 0.764386 0.726649
20168 3 0.125854 0.768911 0.737306
20169 1 0.123317 0.765477 0.729862
20167 1 0.124787 0.772855 0.744693
15636 1 0.12379 0.774258 0.747714
14060 3 0.0222182 0.784856 0.730502
14061 1 0.0289584 0.783482 0.735873
18982 1 0.0311639 0.783473 0.737989
18983 2 0.03677 0.78337 0.743604
18984 1 0.043737 0.783775 0.747237
16414 1 0.0458675 0.783759 0.748551
2018 2 0.0705228 0.796262 0.74904
2017 1 0.0655912 0.790812 0.746112
5260 1 0.0806925 0.740195 0.774462
5261 2 0.0767797 0.733469 0.777402
16494 1 0.0864876 0.739873 0.761542
16493 2 0.091411 0.743854 0.766346
16492 1 0.093225 0.747511 0.772602
5278 1 0.0939741 0.748956 0.774879
20188 1 0.11216 0.739384 0.780464
14346 1 0.0713949 0.779198 0.76673
14345 2 0.0698511 0.771709 0.763452
14344 1 0.0639398 0.766869 0.763571
5279 2 0.0950041 0.753901 0.780057
5046 1 0.0970448 0.770987 0.754869
20190 1 0.117721 0.753895 0.780944
5045 2 0.0996798 0.76669 0.76038
5044 1 0.104713 0.767751 0.766926
10308 1 0.106676 0.768078 0.769598
10307 2 0.112102 0.769096 0.775831
15635 2 0.119776 0.777792 0.752466
7311 1 0.1387 0.777841 0.780856
8580 1 0.141612 0.779273 0.779532
8578 1 0.154597 0.779143 0.772535
16415 3 0.0526586 0.783326 0.751674
16416 1 0.0604123 0.781437 0.750754
14782 1 0.0719225 0.781928 0.768072
21054 1 0.08756 0.78998 0.757168
5654 2 0.0849226 0.802879 0.774343
14783 2 0.0728921 0.788478 0.77093
5655 1 0.0797995 0.796907 0.773098
14784 1 0.0779516 0.794289 0.772715
2019 1 0.0709046 0.802604 0.753363
21052 1 0.0992977 0.782405 0.75439
21053 2 0.0942371 0.788375 0.754282
3696 1 0.115415 0.784637 0.759138
15634 1 0.11654 0.782515 0.756904
5653 1 0.0926932 0.799848 0.774187
3695 2 0.112703 0.789509 0.764447
3694 1 0.108637 0.789835 0.771088
93 1 0.10724 0.790399 0.773901
4250 2 0.114069 0.809117 0.774606
4249 1 0.116351 0.802806 0.778265
7867 1 0.117867 0.800232 0.780122
8579 2 0.147621 0.782074 0.775467
4251 1 0.121656 0.811997 0.775256
21221 2 0.0550472 0.714821 0.805068
21222 1 0.0601144 0.70955 0.807257
4163 2 0.0746599 0.717357 0.794645
4162 1 0.0746108 0.710495 0.796528
2715 1 0.235116 0.716255 0.810382
14127 1 0.051243 0.722822 0.810154
21220 1 0.0519927 0.720764 0.808749
9213 1 0.0688924 0.727078 0.794659
9211 1 0.0626683 0.740449 0.799899
9212 2 0.0661194 0.734823 0.796392
4164 1 0.0703474 0.724241 0.794666
5262 1 0.0702989 0.731591 0.783501
17410 1 0.0760263 0.741224 0.811955
18048 1 0.0787668 0.740553 0.811432
18047 2 0.0865065 0.738626 0.808394
20189 2 0.116407 0.746483 0.782732
18046 1 0.0931575 0.737393 0.806231
6774 1 0.109229 0.730314 0.799696
6773 2 0.104698 0.735325 0.803067
6772 1 0.0965763 0.736811 0.804861
15091 1 0.114732 0.744805 0.805448
15092 2 0.122795 0.746829 0.807293
15093 1 0.12987 0.746215 0.811498
2714 3 0.236979 0.723411 0.81126
2713 1 0.23656 0.731487 0.811258
5457 1 0.228069 0.747784 0.80828
9899 2 0.0773234 0.773145 0.787959
9898 1 0.0815087 0.780034 0.784478
7297 1 0.0625146 0.761627 0.802164
7298 2 0.0615088 0.769353 0.803507
7299 1 0.0631461 0.777524 0.802197
10521 1 0.0637439 0.780337 0.801524
9900 1 0.0798777 0.765772 0.790662
14917 1 0.0806529 0.763642 0.791825
14919 1 0.0866994 0.75386 0.790227
14918 2 0.0821643 0.75783 0.795677
1095 1 0.089147 0.772848 0.80562
6022 1 0.0873899 0.771368 0.80826
5280 1 0.0966421 0.758163 0.786233
1094 2 0.0937008 0.775577 0.799421
1093 1 0.0977197 0.774512 0.792143
8489 2 0.111608 0.769406 0.792625
10306 1 0.11043 0.769987 0.782367
8490 1 0.109865 0.76988 0.785247
8488 1 0.116694 0.771472 0.798515
7310 2 0.133329 0.774178 0.78367
19783 1 0.139399 0.760363 0.804321
19784 2 0.135391 0.763686 0.797996
7309 1 0.131821 0.76903 0.789431
19785 1 0.132019 0.767582 0.791737
1400 3 0.157856 0.750598 0.811033
1401 1 0.161852 0.758134 0.810944
17484 1 0.0367699 0.790654 0.804318
17483 2 0.0422866 0.796483 0.804159
17482 1 0.047203 0.800817 0.802797
9687 1 0.0486865 0.802979 0.803087
9686 2 0.0542579 0.80896 0.804465
10520 2 0.0654006 0.787981 0.79927
10519 1 0.0662856 0.789688 0.807257
16407 1 0.0608937 0.806294 0.783024
16406 2 0.0675081 0.805435 0.787696
5328 1 0.0760458 0.803691 0.791828
16405 1 0.0735059 0.804558 0.790506
5326 1 0.0839529 0.793096 0.795224
5327 2 0.0823473 0.80058 0.794536
1870 1 0.0674182 0.790169 0.810019
13862 2 0.112518 0.78477 0.810674
92 2 0.101753 0.789557 0.781342
91 1 0.0959383 0.79453 0.783277
4976 2 0.10651 0.810658 0.796889
4975 1 0.112888 0.809161 0.801043
20827 1 0.115276 0.808597 0.802636
10358 2 0.134798 0.791943 0.798286
10359 1 0.136836 0.792497 0.805655
7868 2 0.121444 0.796547 0.785374
7869 1 0.12731 0.79451 0.790051
10357 1 0.129483 0.793974 0.792495
20828 2 0.121418 0.80733 0.807806
20829 1 0.121513 0.800927 0.812332
15615 1 0.0261559 0.816547 0.800204
9979 1 0.0289538 0.817088 0.799998
6890 3 0.00415677 0.825858 0.804441
6889 1 0.00707311 0.833969 0.805629
6891 1 0.0091129 0.820793 0.803192
15613 1 0.0114474 0.818917 0.802235
15614 2 0.0179339 0.81511 0.800253
7404 1 0.0545528 0.818441 0.811827
9685 1 0.0544537 0.816054 0.809973
9981 1 0.0453966 0.824072 0.797399
9980 2 0.0376388 0.81938 0.799158
16060 1 0.0421938 0.833045 0.811733
5499 1 0.0770336 0.820176 0.805195
13279 1 0.0839043 0.821769 0.786212
13281 1 0.0781802 0.820652 0.802437
13280 2 0.0813721 0.822152 0.794941
10925 2 0.0843855 0.840181 0.809481
10924 1 0.0785471 0.842985 0.804594
21454 1 0.0762739 0.843655 0.802605
4977 1 0.10031 0.814899 0.795747
11543 2 0.11979 0.833006 0.810634
11544 1 0.112398 0.828896 0.811929
20575 1 0.109643 0.827456 0.812288
11542 1 0.123954 0.838145 0.80691
9022 1 0.0202072 0.851941 0.800411
9023 2 0.027562 0.849061 0.803488
9024 1 0.0296318 0.845189 0.810639
21456 1 0.0655011 0.848774 0.794063
21455 2 0.0714271 0.846297 0.798067
9529 1 0.077577 0.868098 0.805994
17727 1 0.079632 0.869825 0.803741
17726 3 0.0848088 0.873673 0.798811
9530 2 0.0722903 0.863709 0.811095
18976 1 0.106017 0.888429 0.803423
17725 1 0.0909214 0.878689 0.798707
18977 3 0.0997959 0.884916 0.799825
18978 1 0.0930679 0.880228 0.7991
15454 1 0.0454808 0.737243 0.821355
14125 1 0.0463741 0.734809 0.819736
14126 2 0.0496419 0.729607 0.814757
15455 2 0.0422473 0.744322 0.825101
15456 1 0.0433323 0.744703 0.83337
17412 1 0.0635331 0.749208 0.814123
17411 2 0.0683548 0.741682 0.814731
2788 1 0.0980595 0.744919 0.826368
17014 1 0.147759 0.746914 0.814462
1399 1 0.150677 0.747993 0.813673
17016 1 0.13238 0.74571 0.812967
17015 2 0.139454 0.743412 0.81648
6480 1 0.19079 0.726279 0.824609
6479 3 0.192515 0.734848 0.823417
6478 1 0.197672 0.741405 0.823369
15772 1 0.199116 0.744128 0.823451
5455 1 0.229107 0.748621 0.822308
16462 1 0.0259268 0.772768 0.834522
16463 2 0.0212907 0.778922 0.832424
3344 2 0.0523947 0.766763 0.841959
3343 1 0.05006 0.759951 0.837463
20372 2 0.0703799 0.774933 0.82617
20371 1 0.0764497 0.771892 0.820971
6024 1 0.0786044 0.770282 0.818847
6023 2 0.083919 0.76729 0.814528
20373 1 0.0674647 0.777484 0.832822
13861 1 0.111121 0.778086 0.813023
2789 2 0.100859 0.750307 0.822033
3657 1 0.104949 0.760098 0.81881
2790 1 0.103672 0.757421 0.819423
3656 2 0.107452 0.767568 0.816527
3655 1 0.110206 0.775007 0.813888
15773 3 0.202687 0.750313 0.824376
14311 1 0.20493 0.753339 0.834522
15774 1 0.204338 0.752411 0.831904
14312 3 0.206404 0.756721 0.841303
5456 3 0.227493 0.751134 0.815351
17351 2 0.0212998 0.80409 0.826373
17350 1 0.0228659 0.811272 0.829743
17352 1 0.0247375 0.80037 0.819866
16464 1 0.0149001 0.78369 0.829497
17574 1 0.0457581 0.797589 0.82352
17573 2 0.0403298 0.793351 0.828199
4318 1 0.0450314 0.797649 0.841262
17572 1 0.0333398 0.794502 0.832783
12468 1 0.0472591 0.811862 0.841729
10678 1 0.0707756 0.801356 0.838964
10679 2 0.0699214 0.793639 0.834467
10680 1 0.0706698 0.791831 0.82736
1871 2 0.070935 0.792164 0.816361
1872 1 0.0708559 0.79132 0.82395
13863 1 0.113136 0.79176 0.815397
5854 1 0.0943019 0.781946 0.825599
5855 2 0.095915 0.790169 0.823054
5856 1 0.0948803 0.797654 0.821103
9735 1 0.0946797 0.800351 0.819098
9734 2 0.0929811 0.807556 0.814958
2487 1 0.0232992 0.814467 0.831511
2486 2 0.0239868 0.820619 0.8364
2485 1 0.0273992 0.826218 0.84205
7402 1 0.0564502 0.831457 0.81788
14899 1 0.057064 0.834787 0.818111
7403 2 0.0556246 0.824071 0.817024
14900 2 0.0587223 0.842289 0.819105
12467 2 0.0457737 0.816867 0.834868
16061 2 0.0362154 0.834427 0.817851
3630 1 0.0505919 0.841863 0.835878
3628 1 0.0469937 0.828413 0.835041
12466 1 0.0475131 0.825013 0.834601
3629 2 0.0456516 0.835793 0.836099
16062 1 0.0364796 0.840727 0.822158
15295 1 0.0367808 0.843413 0.823582
5497 1 0.0693909 0.814204 0.814672
5498 2 0.0738686 0.819847 0.812594
10926 1 0.0901946 0.839375 0.814099
6789 1 0.0859823 0.833192 0.827512
6788 2 0.0792514 0.83033 0.831243
6787 1 0.0766288 0.822799 0.831328
4198 1 0.0925356 0.83899 0.816575
9733 1 0.0986151 0.81367 0.814449
20577 1 0.100552 0.815965 0.81455
20576 2 0.104622 0.821878 0.814474
4200 1 0.105674 0.839383 0.822713
4199 2 0.0976876 0.839581 0.821758
14901 1 0.0599535 0.847104 0.824493
8494 1 0.0520642 0.844773 0.835985
8495 2 0.0549252 0.851684 0.837575
15296 2 0.0371748 0.851445 0.826092
15297 1 0.0372468 0.859115 0.826298
9531 1 0.0742218 0.859867 0.817228
433 1 0.0755718 0.858555 0.819243
435 1 0.0845656 0.85319 0.831354
434 2 0.0778596 0.853086 0.825886
15696 1 0.0871104 0.853117 0.833631
8496 1 0.0623463 0.857224 0.838317
15695 2 0.0919037 0.851783 0.839661
15694 1 0.0994824 0.849024 0.841011
8479 1 0.101929 0.848188 0.841558
8480 3 0.108858 0.845596 0.842912
3345 1 0.0533808 0.772797 0.84744
10050 1 0.0332803 0.770405 0.854425
10049 2 0.0329136 0.777891 0.850775
14313 1 0.211046 0.759923 0.847576
10048 1 0.0360242 0.785616 0.849722
4319 2 0.0395027 0.795246 0.84779
4320 1 0.0371386 0.788245 0.849484
3252 1 0.0647086 0.810729 0.859357
9312 1 0.102523 0.801723 0.854694
9311 2 0.104537 0.807202 0.849266
3445 1 0.0283569 0.828425 0.844026
3446 2 0.0300081 0.834009 0.849965
3769 1 0.0206688 0.812534 0.864968
3771 1 0.0200997 0.827085 0.85841
3770 2 0.0191085 0.818898 0.861091
3250 1 0.0592125 0.815646 0.844761
3447 1 0.037635 0.836897 0.853181
3251 2 0.0617048 0.813722 0.852568
9310 1 0.102768 0.815501 0.847443
7886 3 0.120245 0.857011 0.850969
7885 1 0.11564 0.852375 0.847841
8481 1 0.113544 0.850446 0.846328
7887 1 0.120959 0.863168 0.85603
4879 1 0.210577 0.805713 0.914026
4881 1 0.194458 0.808911 0.911659
4880 3 0.202702 0.80665 0.911185
13491 1 0.203857 0.810646 0.93492
10976 3 0.227237 0.810163 0.923746
10977 1 0.224142 0.80235 0.926184
10424 3 0.19616 0.818242 0.931397
10423 1 0.194945 0.819446 0.923417
10425 1 0.201837 0.813008 0.933634
10975 1 0.23052 0.818396 0.922006
2251 1 0.198248 0.848975 0.932025
2252 3 0.203576 0.846263 0.93653
17450 2 0.0755129 0.792152 0.959676
17449 1 0.0727737 0.785837 0.965172
17451 1 0.0718757 0.797524 0.95583
13490 3 0.208389 0.805122 0.939829
13489 1 0.211137 0.80766 0.948003
5792 3 0.215528 0.811971 0.957429
5793 1 0.212274 0.809208 0.950739
13820 3 0.200446 0.818355 0.965573
13821 1 0.207328 0.815332 0.963413
5791 1 0.209702 0.814235 0.96166
5632 1 0.211892 0.840613 0.942227
2253 1 0.20975 0.842673 0.940741
5634 1 0.221231 0.829756 0.948354
5633 3 0.216672 0.834616 0.945875
13819 1 0.198476 0.823547 0.971906
