LAMMPS data file via write_data, version 5 Jun 2019, timestep = 120000000

174 atoms
3 atom types
150 bonds
3 bond types
126 angles
3 angle types

0.0000000000000000e+00 5.0000000000000000e+01 xlo xhi
0.0000000000000000e+00 5.0000000000000000e+01 ylo yhi
0.0000000000000000e+00 5.0000000000000000e+01 zlo zhi

Masses

1 0.25
2 0.5
3 0.5

Bond Coeffs # harmonic

1 6000 0.15
2 2000 0.4
3 2000 0.4

Angle Coeffs # harmonic

1 100 180
2 5 180
3 5 180

Atoms # angle

7095 1 1 4.5376117603379370e+01 1.9213019122902136e+01 6.5249460522801188e+00
7094 2 2 4.5592761746253750e+01 1.9254361202333097e+01 6.8065071367118621e+00
7093 1 1 4.5500084743445171e+01 1.9458414138535357e+01 7.1417296947783679e+00
2088 1 1 1.0188655840029226e+00 1.8331466224671843e+01 7.8501004734223647e+00
1977 1 1 1.1474497064226734e+00 1.8387248372153788e+01 7.9043300135388845e+00
2087 2 2 6.8966677018143852e-01 1.8208172400234691e+01 7.7492008570307647e+00
2086 1 1 5.0659636520614737e-01 1.7841578001071994e+01 7.7837681628486752e+00
1975 1 1 1.5771525797423007e+00 1.8160992723489020e+01 7.9825904466765305e+00
1976 2 2 1.4904175603756749e+00 1.8501219569486391e+01 8.0435780765511868e+00
16712 2 2 1.8538575104430162e+01 1.8274057084370476e+01 1.9487170795938106e+01
16713 1 1 1.8387620520172558e+01 1.8110277193956065e+01 1.9100499800342661e+01
16711 1 1 1.8830993478560544e+01 1.8481896196364882e+01 1.9667907062741097e+01
15683 2 2 2.9546452038074268e+01 2.7652577489269067e+01 2.4661855615405173e+01
15682 1 1 2.9834559923881919e+01 2.7402747780937275e+01 2.4548450132296498e+01
13883 2 2 3.0215548428575364e+01 2.6997747851775845e+01 2.4417611413940516e+01
13884 1 1 2.9927264718313790e+01 2.7304870811177899e+01 2.4497724494423370e+01
13882 1 1 3.0416525933169474e+01 2.6701654387986498e+01 2.4296014983338114e+01
7175 2 2 3.5334116607722152e+01 2.6457719474449881e+01 2.4553911663667506e+01
7176 1 1 3.5622299224943376e+01 2.6659544612869144e+01 2.4429552363563317e+01
859 1 1 3.5731509612819181e+01 2.6718142320275085e+01 2.4359373516112690e+01
860 2 2 3.6089075930496001e+01 2.6865584298056802e+01 2.4177756445460759e+01
861 1 1 3.6449693736228525e+01 2.6874391618808328e+01 2.3914882159910512e+01
5338 1 1 3.6574242280308518e+01 2.6886255535456982e+01 2.3833012420236216e+01
5340 1 1 3.7251674447994915e+01 2.6829732064829855e+01 2.3325533788329786e+01
5339 2 2 3.6938949849958433e+01 2.6853533504242879e+01 2.3590756264306496e+01
18016 1 1 3.3269881170595454e+01 2.4873572824497735e+01 2.6230603284815434e+01
7995 1 1 3.3887769719043852e+01 2.5575326742146654e+01 2.5484672161185891e+01
7994 2 2 3.4299980380147517e+01 2.5486285247004179e+01 2.5576622316037728e+01
7993 1 1 3.4647212329383152e+01 2.5639038204599466e+01 2.5455405961703672e+01
14340 1 1 3.4760994861444715e+01 2.5677720212413835e+01 2.5389429785601049e+01
14338 1 1 3.5202072223038378e+01 2.6077940430156630e+01 2.4920731326804109e+01
14339 2 2 3.5071053540614692e+01 2.5838347292239416e+01 2.5223177118882145e+01
7174 1 1 3.5241563883479941e+01 2.6195321654167092e+01 2.4814603515501428e+01
16577 2 2 2.3564027796150658e+01 3.4248151042555207e+01 1.3741217372670589e+00
16576 1 1 2.3946229601290195e+01 3.4326652864903473e+01 1.5312172697501361e+00
16578 1 1 2.3377662095639277e+01 3.4479111744631318e+01 1.6923991708665456e+00
18576 1 1 2.0387361362825047e+01 3.5833566326437058e+01 2.2632702184892897e+00
18575 2 2 2.0300615841836908e+01 3.6217032097373512e+01 2.4130037725579685e+00
18574 1 1 2.0305610770317298e+01 3.6584400756169984e+01 2.5110562594589037e+00
3231 1 1 2.0283221477276207e+01 3.6739246410794443e+01 2.5711290660176718e+00
3230 2 2 2.0241936324463936e+01 3.7103122409440843e+01 2.7109299149477892e+00
3229 1 1 2.0045614518144848e+01 3.7483435879035440e+01 2.8162679302222551e+00
3393 1 1 1.9988402404649285e+01 3.7631104465516998e+01 2.8942346690341338e+00
3392 2 2 1.9966566790657954e+01 3.7983111774418965e+01 3.0139298702205650e+00
5500 1 1 2.0203273039101639e+01 3.8495779058795470e+01 3.0631443406816841e+00
3391 1 1 2.0123977229602605e+01 3.8367375899183997e+01 3.0528287274448136e+00
5501 2 2 2.0345542665811379e+01 3.8862577860138515e+01 3.0370251172740090e+00
20745 1 1 2.3376162783032960e+01 3.0322122996661157e+01 3.1041962262588227e+00
20744 2 2 2.3160419070532559e+01 3.0619626651491231e+01 3.2970884233368949e+00
20743 1 1 2.3166071230918678e+01 3.0906607201196451e+01 3.5994110391950636e+00
1045 1 1 2.3190689109513144e+01 3.1011734807237946e+01 3.7255634017245827e+00
1046 2 2 2.3276013045208131e+01 3.1213662987446593e+01 4.1315592877878764e+00
1047 1 1 2.3603599017450218e+01 3.1323181575074553e+01 4.3857237767184527e+00
2368 1 1 2.3705130135153812e+01 3.1353384624797702e+01 4.4615584586404946e+00
3959 2 2 2.2103150089256172e+01 3.4614727099514383e+01 4.2187308219452335e+00
3960 1 1 2.2358716782807956e+01 3.4681359637465242e+01 3.9010799930407196e+00
12768 1 1 2.2436031398647913e+01 3.4748651304910553e+01 3.7840353801181164e+00
12767 2 2 2.2720962147153912e+01 3.4786464856542885e+01 3.5243824273719637e+00
3958 1 1 2.2246305884319856e+01 3.4592033309540341e+01 4.5906157425966025e+00
12766 1 1 2.2843102866874879e+01 3.5105555306605353e+01 3.3368126304210004e+00
5502 1 1 2.0539608525205136e+01 3.9142002169186050e+01 3.2067075062031281e+00
2369 2 2 2.4009251868241090e+01 3.1421015804125126e+01 4.6581121165073984e+00
2370 1 1 2.4218228410721913e+01 3.1459714734601523e+01 4.9538315934149422e+00
6194 2 2 2.2412818731949805e+01 3.4400942973123009e+01 5.1116621040712964e+00
6195 1 1 2.2299581988266254e+01 3.4544953095750778e+01 4.7520297756963892e+00
6193 1 1 2.2466950600107157e+01 3.4473353041595999e+01 5.4756617671004104e+00
13115 2 2 2.2942925123860554e+01 3.8492296375374536e+01 5.8721611788051673e+00
13116 1 1 2.2789558202049022e+01 3.8228474793293493e+01 6.1335005695935410e+00
13114 1 1 2.3203179944288483e+01 3.8694874162449089e+01 5.6534150642327292e+00
21202 1 1 2.3293805143969212e+01 3.8759077532151387e+01 5.5583179700006218e+00
21203 2 2 2.3510980071850526e+01 3.8831876747117335e+01 5.2612432074161344e+00
21204 1 1 2.3846667582942281e+01 3.8676471169374643e+01 5.1824162031467109e+00
6054 1 1 2.3982735999647915e+01 3.8612978647751568e+01 5.1591790590192659e+00
19007 2 2 2.5244346038248089e+01 3.8616740555449198e+01 5.3973207229163025e+00
6053 2 2 2.4351570624581605e+01 3.8455522653976438e+01 5.1544271866918390e+00
19008 1 1 2.4880638353976135e+01 3.8565221025125581e+01 5.3059475474404953e+00
6052 1 1 2.4733232935273925e+01 3.8533171337962720e+01 5.2615507992367254e+00
2761 1 1 2.1771275051670614e+01 4.0236150666553527e+01 5.9410968212909419e+00
2762 2 2 2.2052648649524084e+01 4.0376259806107477e+01 5.7977425722838349e+00
19006 1 1 2.5449574420366552e+01 3.8946447415892550e+01 5.5095677875165299e+00
6447 1 1 2.5540525521303941e+01 3.9079841177630719e+01 5.5346766046686913e+00
8961 1 1 2.5559030764828336e+01 3.9933696819699172e+01 5.4087529309065632e+00
6446 3 3 2.5682122005622247e+01 3.9429191308986951e+01 5.6074501117516862e+00
6445 1 1 2.5604876440172056e+01 3.9799124148406122e+01 5.4455269345212827e+00
8960 3 3 2.5431383797176800e+01 4.0308302833839626e+01 5.3559982356224749e+00
8959 1 1 2.5019236490717788e+01 4.0268137678629301e+01 5.4121340129580835e+00
2763 1 1 2.2386302543912954e+01 4.0434004189879531e+01 5.7585746212083588e+00
13130 2 2 2.5859124580922330e+01 3.5568719875886472e+01 7.1396061979607346e+00
13129 1 1 2.5763090024014591e+01 3.5483945590922247e+01 7.5125027230478576e+00
13131 1 1 2.5907465541272657e+01 3.5883741109676265e+01 7.0185527771832028e+00
14167 1 1 2.9925314021728521e+01 2.8144352050355359e+01 2.1569512821916554e+01
11218 1 1 3.1290004038500118e+01 3.0308345324407686e+01 2.1555256778406271e+01
11219 2 2 3.1617144466691336e+01 3.0285028269854646e+01 2.1364012906817859e+01
11220 1 1 3.1983928899638052e+01 3.0278164871150508e+01 2.1200381503724849e+01
12580 1 1 3.2087274972268467e+01 3.0257520153105666e+01 2.1138460559086518e+01
12581 2 2 3.2390499315434624e+01 3.0221939471423248e+01 2.0882853371562511e+01
12582 1 1 3.2739315619651116e+01 3.0120359392049927e+01 2.0781398073853136e+01
18567 1 1 8.4462333215668899e+00 3.8809127368847228e+01 2.1596280180805049e+01
18566 2 2 8.6275523254828990e+00 3.9156656201367092e+01 2.1457555395864386e+01
18565 1 1 8.8219067941636542e+00 3.9491452601708730e+01 2.1402684946120715e+01
14168 2 2 2.9791044732958486e+01 2.8071415861701421e+01 2.1982861997652069e+01
14169 1 1 2.9867151433503476e+01 2.8051358792890014e+01 2.2383971300946172e+01
15684 1 1 2.9574406683962675e+01 2.8082418970295102e+01 2.4672796421494301e+01
20918 2 2 1.4433318742316961e+00 3.1318114574743905e+01 3.2388938148829098e+01
20917 1 1 1.5634989309497076e+00 3.1390419614338089e+01 3.1942659946526632e+01
20251 1 1 1.9759020015495661e+00 3.1607534212727582e+01 3.1077406526494087e+01
20252 2 2 1.7498958951083903e+00 3.1544492738487804e+01 3.1431932229078637e+01
20253 1 1 1.6073191901153334e+00 3.1423082865378451e+01 3.1783174253468587e+01
18821 2 2 8.3426474982130988e-02 3.5727576579081969e+01 3.2370084669383566e+01
18820 1 1 4.1525684503985494e-01 3.5889820914396623e+01 3.2415687364285944e+01
9364 1 1 1.9533858455942550e+00 3.7091721231095271e+01 3.2233236941101509e+01
9365 2 2 1.6764849271827815e+00 3.6982552979157781e+01 3.2517614058560468e+01
11670 1 1 1.5022890157972710e-02 2.9683929529882761e+01 3.4088740063442920e+01
8274 1 1 1.3591736015906056e-01 2.9592569098575545e+01 3.4180778810270581e+01
5364 1 1 8.8958996270348356e-01 2.9265832221325102e+01 3.3190502102065743e+01
5363 2 2 8.5541164464181718e-01 2.9190484639748156e+01 3.3544445576264906e+01
5362 1 1 6.4237218417532627e-01 2.9268498439710587e+01 3.3886663900370650e+01
8272 1 1 5.7798390539022260e-01 2.9301053200101272e+01 3.4006753232971768e+01
20919 1 1 1.6625243054940588e+00 3.1297170259086215e+01 3.2695828312882085e+01
16525 1 1 1.7407969917977197e+00 3.1290509755815972e+01 3.2801256558414984e+01
16526 2 2 1.9625612986277707e+00 3.1375416613730110e+01 3.3142280180586916e+01
16527 1 1 2.2597467013633716e+00 3.1527218049331751e+01 3.3368134576710872e+01
9366 1 1 1.5878605566412052e+00 3.7137380524893111e+01 3.2892973343676452e+01
6233 2 2 1.1733427231939514e-01 4.1749745617979720e+01 3.2919073242534552e+01
5065 1 1 8.9724098393638529e-01 4.1526832345672275e+01 3.3701155150076985e+01
5067 1 1 5.4548469326628879e-01 4.1476836506723579e+01 3.3171297856253929e+01
5066 3 3 8.4242056300958335e-01 4.1276272983171829e+01 3.3343987553265613e+01
6232 1 1 4.0987395477209648e-01 4.1539872214138569e+01 3.3112144645603429e+01
8273 2 2 4.3121492011804619e-01 2.9363008822409931e+01 3.4322659417684179e+01
16805 2 2 3.3009401031119701e+01 2.4912290881171355e+01 2.7494693187686401e+01
14493 1 1 3.3006182603357587e+01 2.5233275826004359e+01 2.7891980346384365e+01
16806 1 1 3.3014205690241475e+01 2.5148352807606404e+01 2.7778147552354643e+01
16804 1 1 3.3010933743905078e+01 2.4918163659752217e+01 2.7133764429209652e+01
18018 1 1 3.3025543540034178e+01 2.4934398418520821e+01 2.6989739309540813e+01
18017 2 2 3.3135182659255925e+01 2.4961633203352491e+01 2.6582437845750416e+01
12296 2 2 3.2063250211124377e+01 2.5810969143809050e+01 2.7717643496748767e+01
12295 1 1 3.1795083580119925e+01 2.5866039897701793e+01 2.7418892329840869e+01
5784 1 1 3.1504226151189478e+01 3.0719955674018095e+01 2.7770491274829407e+01
12297 1 1 3.2442315789937147e+01 2.5722732921888767e+01 2.7929565339951864e+01
14491 1 1 3.2572858631763154e+01 2.5679290300809257e+01 2.7998493914605930e+01
14492 2 2 3.2948497804898551e+01 2.5547214327485054e+01 2.8110426578870143e+01
5782 1 1 3.1320343813806460e+01 3.1305062333636815e+01 2.7916607611664741e+01
5783 2 2 3.1564188428174539e+01 3.1039740187418005e+01 2.7961841617916019e+01
18822 1 1 4.9782471242232077e+01 3.5511450051172808e+01 3.2540438635857008e+01
1336 1 1 4.9698005284911318e+01 3.5450551494638844e+01 3.2617197716638422e+01
11669 2 2 4.9759373553128817e+01 2.9969934080826491e+01 3.3902455114087516e+01
11668 1 1 4.9717627043430774e+01 3.0352572099056680e+01 3.3908874465951435e+01
13663 1 1 4.5971525877493519e+01 3.6159137731894759e+01 3.3766271830099157e+01
1338 1 1 4.9251342509655423e+01 3.4873763921290433e+01 3.2919593652814747e+01
1337 2 2 4.9446257919349065e+01 3.5218148316946582e+01 3.2804046796454706e+01
13665 1 1 4.6222300526330748e+01 3.6851687088662246e+01 3.3485274311198019e+01
2635 1 1 4.6296851419224801e+01 3.6979055964452165e+01 3.3420892475014860e+01
2636 2 2 4.6569029794346733e+01 3.7284138111557134e+01 3.3313447756015236e+01
2637 1 1 4.6829322085753340e+01 3.7524338142557781e+01 3.3288267280980413e+01
13664 2 2 4.6001473991071798e+01 3.6567264659365442e+01 3.3677719835514523e+01
6106 1 1 4.6938983235961530e+01 3.7599744753061550e+01 3.3266966318050926e+01
6107 2 2 4.7208940401568604e+01 3.7902361520392013e+01 3.3259718806702153e+01
6108 1 1 4.7488789095356715e+01 3.8165362633295658e+01 3.3116792352445444e+01
14268 1 1 4.9038736178763877e+01 4.2396905656306387e+01 3.2958047388442942e+01
14267 2 2 4.9335773609161578e+01 4.2290251130974745e+01 3.3117588644838584e+01
14266 1 1 4.9688292040123024e+01 4.2079789997447975e+01 3.2987603309255647e+01
6234 1 1 4.9799304730753526e+01 4.1974232869683405e+01 3.2947085153901313e+01
5189 2 2 4.9691502244437942e+01 3.4830986778614296e+01 3.4717092361490884e+01
17657 2 2 4.9934225672184198e+01 3.4941447135024085e+01 3.5709361459674000e+01
5190 1 1 4.9762894042883268e+01 3.4867772063398107e+01 3.5130104843267937e+01
17656 1 1 4.9805250238986694e+01 3.4895162435490590e+01 3.5300492554568180e+01
5188 1 1 4.9716030958535249e+01 3.4881091462539821e+01 3.4345077963761575e+01
11777 2 2 4.9575286265539859e+01 3.4800534371187283e+01 3.6591080994836922e+01
11778 1 1 4.9710843722415909e+01 3.4864568288735938e+01 3.6230805056821993e+01
17658 1 1 4.9753974702836516e+01 3.4894844257588908e+01 3.6094579554304275e+01
11776 1 1 4.9527437063349666e+01 3.4982236212274067e+01 3.6959234752059110e+01
3016 1 1 4.9515483240020899e+01 3.5033627749992476e+01 3.7091562572148547e+01
3018 1 1 4.9830075774588380e+01 3.5255866764569156e+01 3.7749646574164842e+01
3017 2 2 4.9514686376194135e+01 3.5175332405859493e+01 3.7504964877039363e+01

Velocities

7095 1.5241205035488605e+00 -4.5788600883807966e+00 -3.0534152256888949e+00
7094 2.9284339796542730e-01 -1.3333748866106656e+00 -3.6451769534669367e+00
7093 -8.4116418278533267e-01 -1.3764006722075355e+00 1.5365299670651269e+00
2088 -3.6355691278597102e+00 -7.4440393766391089e-01 -5.5449295124766014e+00
1977 -2.7555579481081569e+00 6.9886313217241347e-01 1.9997210751769967e+00
2087 2.7817559653999542e+00 5.0386802530630428e+00 -4.2180773391302606e-01
2086 -4.1941864970597909e+00 -2.8487614802331995e+00 -1.2637433044555662e+00
1975 2.7292203259113053e+00 5.2958568337540290e-01 9.4431763853978645e-01
1976 2.5108062503057900e+00 -2.9633333789715728e+00 1.1153211400568575e+00
16712 1.7223145551699797e+00 1.6789481373451034e+00 -4.4013087590631788e+00
16713 1.1959584366407598e+00 -4.2571765121278879e+00 -6.3318644837802678e+00
16711 2.2687557347375433e+00 -3.7024061892181424e+00 -3.7717479705896815e+00
15683 5.9707288622303145e-01 -2.1783745327073549e+00 -6.4622666596034772e-01
15682 3.7652211332655678e+00 1.1459752040556959e-01 -3.8943175056710273e+00
13883 2.9528940314433054e+00 -2.0478655800691765e+00 -3.9210783917579177e+00
13884 6.0712419504118111e+00 3.6866480655913167e+00 -4.7281695402728046e+00
13882 -5.5234674239273200e+00 8.9684350386495215e-01 3.3146648416335656e+00
7175 -2.8250194323958939e+00 2.7969671686481785e+00 -1.5697308281063346e-01
7176 1.8735656644177641e+00 -1.1987494284382412e+00 5.2568652546541805e-01
859 2.1874033116086053e+00 -1.5672873642178340e+00 4.0994194010173999e+00
860 -3.7725320731455014e-01 -9.1417394724931478e-01 -2.9114166621820048e-01
861 2.8346323030032679e+00 -4.7726801538889321e+00 -1.6975926003315811e-01
5338 2.4780975090260231e+00 2.0485031817222152e+00 2.1597965875618628e+00
5340 3.6597310277055510e+00 -1.6139533376431108e+00 -4.9230263014655993e+00
5339 1.5683978476548897e+00 5.5599670073650764e-01 -1.2586024175482871e+00
18016 1.7252814148226863e+00 -3.2844985548109271e+00 3.4124849499004291e+00
7995 1.7794152359750592e+00 6.0024388441564458e+00 -4.7646138859171900e+00
7994 -5.6128792155462159e+00 5.2007722045648963e-01 1.3196296454688388e+00
7993 -1.2550681183060617e+00 -3.1768932922313051e+00 -3.6777621775370850e+00
14340 -2.0668842696146701e+00 -3.2746880275353947e+00 5.0365382204677998e+00
14338 4.5164317266116560e+00 7.2945540191834164e+00 2.1058724896732178e-01
14339 1.0619263143643805e+00 1.2984144162375801e+00 2.6691653410748604e+00
7174 5.1649220195202670e+00 -1.9907898971294260e+00 8.4455450243006680e-01
16577 1.5019373923661106e+00 -1.9669847408277835e-01 1.3437329643559620e-01
16576 -3.3895381641406801e+00 -1.4817021210029537e+00 1.1152513678895233e+00
16578 2.9606503181079669e+00 4.1359441297818256e+00 1.9956808012974248e-01
18576 1.4318345808675239e+00 5.8421933896404283e+00 5.5561583414649709e+00
18575 4.0547012102588607e+00 -1.5059513448479129e+00 -1.3295520475475902e+00
18574 -5.6040979989976574e+00 -3.5288391020833756e+00 -5.8774946056797086e+00
3231 1.8871236000736080e-01 -6.8137552903591159e-01 -4.9509375939556115e+00
3230 -6.8751568393030116e-01 -1.6344940012505695e+00 4.9546134226887478e-01
3229 -3.5453968852846938e+00 1.3284342496607848e+00 -3.3149881202769311e+00
3393 -3.6739370406082097e+00 1.9519165768830997e+00 -1.4915949266689312e+00
3392 -2.1946010024988487e+00 -1.5497361588241660e+00 4.5965058544861842e-01
5500 4.6330542771761358e+00 -9.5424206965142855e-01 -2.3644420214677524e+00
3391 1.2414380303295351e+00 3.0281524714611279e+00 -2.7465351696277074e-01
5501 7.2582238209602901e-01 -9.5376886478650880e-01 -4.7314307888317106e+00
20745 -9.9625017880703970e-01 -3.0849201855892008e+00 5.8326230728505681e+00
20744 2.5073380782250134e+00 3.1021014243159426e+00 -2.8027142319757679e+00
20743 -5.9300570524914100e+00 2.5348301266473143e+00 -2.4476355830026040e+00
1045 2.4458635769963766e+00 -9.4426941150914312e-01 -3.6884668463432191e-01
1046 -2.4754465020518523e+00 3.0238835067258489e+00 -2.8943266291034977e+00
1047 5.4596519023181518e+00 1.5589660586041103e+00 -7.1316705804334746e-01
2368 1.0365127419475426e+00 2.1525263330370339e+00 1.0849641141081043e-01
3959 -2.8525617394789795e+00 6.4671283117437484e-01 4.0855926834217904e+00
3960 -2.8838151964160526e+00 4.1339952648608360e+00 -9.0545591479907870e+00
12768 1.7583756506225663e+00 8.9684262492421638e+00 1.7012179481709158e+00
12767 1.4098210347379747e+00 3.0453109128437101e+00 -5.5009985095120690e+00
3958 -6.6989002872311382e-02 6.9998707520740213e+00 -4.8391100440158787e+00
12766 1.4308708253272062e+00 6.6807339438794227e+00 -6.8175422227034543e-01
5502 5.0347372352621611e-01 -8.7410491428272707e-01 1.7221409687881906e+00
2369 -2.2373121199935642e+00 2.6013419926751880e+00 1.2791383752924437e+00
2370 6.4320280701278154e+00 -2.3046435036895954e+00 6.2046847445015159e+00
6194 -6.0846349369058128e-01 -5.4324962774843941e+00 -1.0700330390257307e+00
6195 -6.5078755576662513e+00 2.6137791325161421e+00 -2.9968851596907387e+00
6193 4.6855803081068448e+00 -2.2755903855533739e+00 3.3628308202040080e+00
13115 1.9027341582760917e+00 1.2904591543616156e-01 -1.8245022531710582e+00
13116 -2.1353096110580654e+00 2.1599667741649281e-01 -2.2590055121196939e+00
13114 2.7400042652094645e+00 1.8798380601315290e-01 2.1786600753799563e+00
21202 3.1609574280391075e+00 -1.7743913970528902e-01 1.2138716161036345e+00
21203 7.6374587595033705e-01 -1.5987466752276749e+00 3.3916315963661399e+00
21204 1.0956014334512314e+00 1.6375655992372493e+00 2.5391643184542367e+00
6054 -7.8659361694667496e+00 2.0340230512542209e-01 4.6105863431765091e+00
19007 1.3400559018988969e+00 -4.2589363936671992e-01 -2.5859604578859359e+00
6053 -3.7906681598469549e+00 2.4299442217700893e+00 -3.6187731321093146e+00
19008 -4.4629800955204191e+00 7.6193190289077806e-01 1.3658536941524586e+00
6052 6.7312231924828020e-03 6.0531552722952697e-01 1.5804138149179376e+00
2761 1.4146138138431308e-01 8.5085193168948070e-01 -5.9604022351627188e+00
2762 2.8545785939581045e+00 1.4776554724741611e+00 8.9630724188341448e-01
19006 2.9913514759459563e+00 3.2903481559416523e+00 -3.7644849613199436e+00
6447 2.9510646999325649e+00 -4.5446671264981804e+00 -8.0718803252137192e+00
8961 -3.6485652811049700e+00 2.0308641016256983e+00 -2.9385225005147095e+00
6446 -1.3183851790059462e+00 9.2587494767962364e-01 -7.9757701334946307e-01
6445 -1.6931133772573339e+00 -1.3159292834505603e+00 -5.5352123761607430e+00
8960 -5.6868125694478717e+00 1.2627156649283269e+00 -4.0788816482992765e+00
8959 -2.4282814496380527e+00 5.1732297865392001e+00 2.2843089693974421e+00
2763 4.8341139258572907e+00 3.8334965376829753e+00 -3.0560410162861258e+00
13130 9.2498193689488939e-01 3.9819136488927485e+00 3.6000964966720037e+00
13129 -4.8110607314172995e+00 -2.5932416016057522e+00 3.8379201382161443e+00
13131 5.0021400831566778e+00 -2.4222956614717654e+00 -3.5828162228694147e+00
14167 1.8722923170312398e+00 -2.1346284756820975e+00 2.5810223790199243e+00
11218 -1.1529091917742214e+00 -4.7042801191602672e+00 -2.1217557682006216e+00
11219 3.3506799093307738e+00 3.1127490164454756e+00 2.4003055315291801e+00
11220 -1.0000465948086458e+01 -1.4492611160631035e+00 3.0634784074759738e+00
12580 -3.4363255957877614e+00 -1.5504344971860595e-01 3.3020378357510562e+00
12581 6.6254609346288473e-01 1.8666102051158642e+00 -1.6095474338883545e-02
12582 -3.7587507452252140e+00 -2.8038842411782805e+00 2.4098409540156789e+00
18567 4.2872235689553859e+00 -4.2340272411147489e-01 -5.4146041275701720e+00
18566 -9.6900008180890049e-02 7.2807592492666984e-01 4.0982650161565966e+00
18565 5.5920274653984947e+00 6.7247431293915598e+00 -3.1053490833628361e+00
14168 2.1782290009058314e+00 2.9729855770034264e+00 -6.5549082699284558e+00
14169 6.7718070883006947e+00 -7.0202285239612854e+00 -2.4626172358844634e+00
15684 2.3437298447618442e+00 2.8584556060368795e+00 7.7117659909442615e-01
20918 -2.8432695374220485e-01 3.1592472056903738e+00 1.4456402929988241e+00
20917 -2.6716190506342019e+00 5.4615081993180645e+00 -2.8654015879505723e-01
20251 -4.1786401272294027e+00 -3.5098367322983420e-01 -2.7638481771986605e+00
20252 6.2398331962023412e-01 2.7377965355725942e+00 3.2051460031708592e+00
20253 1.2596869648856712e+00 -5.4724238061387815e+00 -3.8561815210785069e+00
18821 -8.5880749940135037e-01 -1.3573970180098178e+00 2.0884418576098116e+00
18820 -3.0111792735337684e+00 3.7364983130095513e+00 -4.8553959231720423e-01
9364 5.9572058632619393e+00 7.9968135700366405e+00 1.5635905313999474e+00
9365 2.1775887241841891e+00 9.1938660926904031e-02 -5.3584155539462697e-01
11670 -2.0391500528373943e+00 1.1207411657247157e-01 2.0867528193036886e+00
8274 -1.5522270204469506e+00 -1.1628046916845480e+00 -6.6347083490979406e+00
5364 3.9446974308735006e-02 -2.9717241874579190e+00 -3.2445523443379241e+00
5363 -1.8445257037544627e+00 -3.1017038700944797e+00 -1.4951324234464376e+00
5362 2.6027023248271730e-01 -3.8971108876476475e+00 -1.6381111392411103e+00
8272 1.7021191241646492e+00 1.4441851349961383e+00 -8.3060896436952192e-01
20919 2.0070445211391714e+00 1.6431649204587053e+00 -3.2451029252831071e-01
16525 -9.4549398751121727e-03 2.3082626022107666e-01 -4.5553995601778308e+00
16526 8.2188109333232662e-01 1.5782295695415707e+00 1.3563554928575570e+00
16527 -4.0996645878310967e-01 3.4027827633756211e+00 -6.6228307070500325e-01
9366 -6.8719828885904621e-01 -9.7513402836737284e-01 2.1301503743663073e+00
6233 -1.8665698703388683e-01 -1.3804929523182421e+00 9.9629859479975535e-01
5065 5.1937408138089056e+00 8.9657367380409303e-01 2.1923635066303317e+00
5067 -3.1853856787518406e+00 3.3344330292551958e+00 -1.0595199924794918e+00
5066 3.8192584229737312e+00 -4.7421388985344981e-01 -1.8065501901273162e+00
6232 5.7461355155678362e-01 -2.2739402908247208e+00 6.0207602239321012e-01
8273 8.3219334768570230e-01 3.2990242796794891e+00 -1.0207555185684172e+00
16805 2.7686591884616094e+00 -1.4008803144115118e+00 6.6253102029933175e-01
14493 5.5754903922849941e+00 -3.1240067453747429e+00 -4.2317607059077407e+00
16806 -2.2112557831604587e+00 2.0142825264771149e+00 -2.4610243647659198e+00
16804 -8.4193283882152770e-01 6.0344404437789922e+00 -8.0494960200871652e+00
18018 -3.0215432640083595e+00 3.2464066286877817e+00 -1.1791114953949045e+00
18017 -1.3155584472307891e+00 1.6908591209120347e+00 -1.7917114132324847e+00
12296 -3.9746962209446242e+00 1.7268916430714611e+00 3.5124863525930056e-02
12295 1.3734943035589948e+00 6.0219056648553835e+00 2.5603419939085361e+00
5784 1.2752679595413288e+00 6.0345066857257712e-02 -2.3364806080590339e-01
12297 -1.1103248557700625e+00 -5.7261318815279361e-01 -7.4783509999789004e+00
14491 3.0791659268523417e+00 -8.0870772829156437e+00 5.9700313409966199e+00
14492 -1.4776822414939683e+00 -8.9067334097741790e-01 1.2565451056521832e+00
5782 1.8193477215244891e+00 -1.1351401278652289e+00 4.8347968959386654e+00
5783 -2.0792153819787291e+00 4.5057785554043308e+00 -1.7929924562930855e+00
18822 -4.5390929370118931e+00 6.1488004332267965e-01 4.7260458902235492e+00
1336 -3.8687036598434794e+00 -9.8673030566843103e+00 6.8994080300001459e-01
11669 -1.5372689869417397e+00 -2.5453828784827723e+00 2.8618053280861040e+00
11668 -2.7326103761048421e+00 -1.5877079653968473e+00 7.3148737580645029e-01
13663 2.5837613294296427e+00 2.8466442640450196e+00 -8.6812246016412997e-01
1338 -2.8475399300206252e+00 -1.9668608690398799e+00 2.9263678501267871e+00
1337 -4.2064088180745332e+00 2.4911874107734824e+00 -2.6595757297880511e+00
13665 3.4851460318402903e+00 -2.1690328513744235e+00 -7.1424500375859825e+00
2635 -2.5247056611421073e+00 1.2890827351072989e+00 -1.1708084033340465e+00
2636 -2.8675523334753859e+00 -4.3052387755523414e-01 3.0501704035454953e+00
2637 -9.0414542875290538e-01 -5.2135753444937105e+00 5.9859038859084390e-01
13664 -2.5814459181773959e+00 -2.6195781409935531e-01 -1.3714993389247851e+00
6106 6.0624732393201697e+00 -1.7578850240559851e-01 -1.6549325805432087e+00
6107 3.5317769807016424e+00 2.4046532837951831e+00 -1.2145448271471022e+00
6108 1.6652064163242772e+00 2.7255323079638787e+00 7.9872267564106880e-01
14268 2.8833871392538235e-01 2.8775208235193253e+00 8.7179653474928864e-01
14267 5.5318744430707145e-01 3.9503842933996891e-01 -2.2843669304446150e+00
14266 8.6394923520510603e-01 3.8365485158397199e+00 5.0000193981202556e-01
6234 3.6549238519459379e+00 -2.0967774946948781e-01 5.6183896225727441e+00
5189 -6.2029258824254485e-01 -1.9793280160226152e+00 -5.1412810463803837e-01
17657 -1.0068364158883716e+00 -6.0994191928279662e+00 -1.4368056172169119e+00
5190 4.0564733666002137e+00 -1.5953456840929807e+00 -1.2149360081083089e+00
17656 -2.0322698683975200e+00 -3.9892535289191975e+00 -1.3211930895082200e+00
5188 -3.9462847193747024e+00 9.2682893086303386e-01 -4.0948588227201155e+00
11777 3.4498044108263670e+00 3.0001369798570039e+00 -3.1658401091004649e+00
11778 2.5694707449930294e+00 3.8661435173393999e+00 -1.3320903262756740e+00
17658 -1.3434876564440956e-01 4.3921934656361064e+00 6.8692835728484853e+00
11776 -1.2452421279179966e+00 -8.7703521661477879e+00 -2.0691832747827277e-01
3016 1.9538596545942215e+00 1.0611727999265570e+00 -3.9330590184304359e+00
3018 -2.6617295646456979e-01 4.5230313314673474e+00 -2.9287742460055375e+00
3017 -2.3212661229483564e+00 -5.9160781439905830e-01 -4.2526219250339165e-01

Bonds

4187 2 7094 7095
4190 2 7093 7094
4571 1 1977 2088
4572 2 2087 2088
4573 2 2086 2087
4576 2 1975 1976
4646 2 1976 1977
5144 2 16712 16713
5147 2 16711 16712
5496 2 15683 15684
5500 2 15682 15683
5505 2 13883 13884
5506 1 13884 15682
5515 2 13882 13883
5550 2 7175 7176
5551 2 859 860
5552 1 859 7176
5553 2 860 861
5556 1 861 5338
5557 2 5338 5339
5559 2 5339 5340
5630 2 18016 18017
5651 2 7994 7995
5652 2 7993 7994
5653 1 7993 14340
5658 2 14338 14339
5659 2 14339 14340
5710 2 7174 7175
5711 1 7174 14338
5827 2 16577 16578
5828 2 16576 16577
6166 2 18575 18576
6167 2 18574 18575
6168 1 3231 18574
6170 2 3230 3231
6235 2 3229 3230
6236 1 3229 3393
6237 2 3392 3393
6241 2 5500 5501
6242 2 3391 3392
6243 1 3391 5500
6293 2 5501 5502
6410 2 20744 20745
6450 2 20743 20744
6452 2 1045 1046
6453 1 1045 20743
6454 2 1046 1047
6455 1 1047 2368
6456 2 2368 2369
6590 2 3959 3960
6591 1 3960 12768
6592 2 12767 12768
6594 2 3958 3959
6595 1 3958 6195
6600 2 12766 12767
6962 2 2369 2370
7103 2 6194 6195
7104 2 6193 6194
7268 2 13115 13116
7273 2 13114 13115
7274 1 13114 21202
7275 2 21202 21203
7276 2 21203 21204
7277 1 6054 21204
7280 2 19007 19008
7282 2 6053 6054
7283 2 6052 6053
7284 1 6052 19008
7325 2 2761 2762
7327 2 2762 2763
7331 2 19006 19007
7332 1 6447 19006
7333 3 6446 6447
7334 3 6445 6446
7335 1 6445 8961
7336 3 8960 8961
7337 3 8959 8960
7679 2 13130 13131
7680 2 13129 13130
8686 2 14167 14168
8745 2 11218 11219
8746 2 11219 11220
8753 1 11220 12580
8754 2 12580 12581
8755 2 12581 12582
8943 2 18566 18567
8944 2 18565 18566
8981 2 14168 14169
13575 2 20918 20919
13576 2 20917 20918
13579 2 20251 20252
13580 2 20252 20253
13585 1 20253 20917
13700 2 18821 18822
13708 2 18820 18821
13760 2 9364 9365
13761 2 9365 9366
14193 1 8274 11670
14196 2 5363 5364
14197 2 5362 5363
14198 1 5362 8272
14199 2 8272 8273
14229 2 16525 16526
14230 1 16525 20919
14235 2 16526 16527
14571 2 6233 6234
14574 3 5065 5066
14575 1 5067 6232
14576 3 5066 5067
14577 2 6232 6233
14703 2 8273 8274
15873 2 16805 16806
15874 1 14493 16806
15877 2 16804 16805
15878 1 16804 18018
15880 2 18017 18018
15914 2 12296 12297
15915 2 12295 12296
16583 1 12297 14491
16584 2 14491 14492
16593 2 14492 14493
16802 2 5782 5783
16803 2 5783 5784
18285 2 1336 1337
18286 1 1336 18822
18445 2 11669 11670
18501 2 11668 11669
18636 2 13663 13664
18650 2 1337 1338
18672 2 2635 2636
18673 1 2635 13665
18674 2 2636 2637
18675 1 2637 6106
18676 2 13664 13665
18677 2 6106 6107
18693 2 6107 6108
18729 2 14267 14268
18733 2 14266 14267
18734 1 6234 14266
18935 2 5189 5190
18974 2 17657 17658
18975 1 5190 17656
18976 2 17656 17657
18983 2 5188 5189