ITEM: TIMESTEP
15000000
ITEM: NUMBER OF ENTRIES
183
ITEM: BOX BOUNDS pp pp pp
0 50
0 50
0 50
ITEM: ENTRIES c_binfo[1] c_binfo[2] c_binfo[3] 
3 10114 10115 
3 10115 10116 
3 17527 17528 
3 17528 17529 
3 16928 16929 
1 10116 16929 
3 16927 16928 
3 5959 5960 
1 5959 16927 
3 5960 5961 
3 7951 7952 
3 7952 7953 
2 2041 2042 
2 2042 2043 
1 2043 18441 
2 4714 4715 
1 4714 10794 
2 4715 4716 
1 4716 6471 
2 6470 6471 
2 6469 6470 
1 5865 6469 
2 18440 18441 
2 6403 6404 
1 6403 18439 
2 18439 18440 
2 18157 18158 
2 18158 18159 
2 15628 15629 
1 15628 18159 
2 15629 15630 
2 14321 14322 
2 5863 5864 
1 5863 14320 
2 14320 14321 
2 5864 5865 
2 17113 17114 
2 17114 17115 
3 14327 14328 
3 14326 14327 
1 14328 16966 
2 16966 16967 
2 3514 3515 
2 13351 13352 
1 13351 17917 
2 17917 17918 
2 13352 13353 
2 20971 20972 
2 20972 20973 
3 14878 14879 
1 14878 17256 
3 14879 14880 
2 10792 10793 
2 10793 10794 
2 17918 17919 
2 6404 6405 
1 6192 17919 
2 6190 6191 
2 6191 6192 
1 6405 17538 
2 19741 19742 
2 1663 1664 
3 17255 17256 
2 17537 17538 
2 17536 17537 
2 13 14 
1 13 17536 
2 9077 9078 
2 9076 9077 
1 9076 17254 
3 17254 17255 
1 7152 9216 
2 7151 7152 
2 7150 7151 
1 7150 9078 
2 9215 9216 
2 9214 9215 
2 9835 9836 
2 20569 20570 
2 20570 20571 
2 10442 10443 
2 10441 10442 
2 1664 1665 
2 9836 9837 
1 1665 9837 
1 8124 20571 
2 8123 8124 
2 8122 8123 
2 18178 18179 
1 2061 18178 
2 14558 14559 
2 14 15 
1 15 14557 
2 14557 14558 
2 2060 2061 
2 2059 2060 
2 16967 16968 
3 15095 15096 
1 15096 16968 
3 15094 15095 
2 3622 3623 
1 3622 15094 
2 9910 9911 
2 18179 18180 
1 9912 18180 
2 9911 9912 
1 6621 14559 
2 6620 6621 
2 6619 6620 
2 3515 3516 
1 3516 6619 
2 7943 7944 
2 7942 7943 
2 3268 3269 
2 4823 4824 
1 3270 4822 
2 4822 4823 
2 3269 3270 
3 2155 2156 
1 2155 3268 
3 4271 4272 
2 11840 11841 
2 12545 12546 
2 20194 20195 
1 9630 12544 
2 12544 12545 
2 19742 19743 
2 11839 11840 
1 11839 13212 
2 13211 13212 
2 13210 13211 
2 4261 4262 
1 4261 13210 
2 20195 20196 
2 9629 9630 
2 9628 9629 
1 9628 19743 
2 4262 4263 
1 4263 11079 
2 11078 11079 
1 6717 20196 
2 17089 17090 
2 6715 6716 
1 6715 17089 
2 6716 6717 
2 17090 17091 
2 11077 11078 
1 11077 16851 
2 2074 2075 
1 2074 10375 
2 2075 2076 
2 10375 10376 
1 10377 17091 
2 10376 10377 
2 3623 3624 
3 2156 2157 
1 2157 14074 
3 14074 14075 
3 14075 14076 
3 4270 4271 
1 4270 14076 
2 20483 20484 
1 14940 20484 
1 9195 20482 
2 20482 20483 
2 9193 9194 
2 9194 9195 
2 20920 20921 
2 20921 20922 
2 16850 16851 
2 16849 16850 
3 10766 10767 
3 10765 10766 
2 14939 14940 
2 14938 14939 
1 10449 20811 
2 10448 10449 
2 10447 10448 
2 13295 13296 
2 20810 20811 
1 13296 20809 
2 20809 20810 
2 13294 13295 
