ITEM: TIMESTEP
10000000
ITEM: NUMBER OF ATOMS
21567
ITEM: BOX BOUNDS pp pp pp
0.0000000000000000e+00 5.0000000000000000e+01
0.0000000000000000e+00 5.0000000000000000e+01
0.0000000000000000e+00 5.0000000000000000e+01
ITEM: ATOMS id type vx vy vz 
14035 1 2.10049 1.54093 -2.04361 
4455 1 -2.53812 1.04931 0.994136 
18879 1 0.220623 -4.17359 -0.221223 
14036 3 -3.50803 -4.00307 -0.17319 
18878 3 2.73833 -4.07793 -2.01471 
18877 1 4.11396 -0.263741 2.03362 
4453 1 -1.59593 2.92374 -0.328698 
4454 2 1.6965 -1.24213 -0.715967 
20314 1 -1.4243 -1.36322 -0.962235 
14037 1 6.69879 -2.50155 -3.97136 
12207 1 6.11792 3.14383 2.445 
12206 3 3.37894 -0.295196 2.7513 
12205 1 -0.0439737 4.78289 1.12843 
2755 1 -2.28818 0.61888 -4.1162 
16335 1 5.00849 -2.79867 -3.75826 
20316 1 -6.43928 -1.63667 -5.56708 
20315 3 2.63376 3.04008 -3.63539 
4224 1 -0.241158 -6.50792 2.69723 
19581 1 2.00811 0.693719 -3.83009 
7651 1 -4.95924 -3.52208 3.88419 
19580 2 3.28 -1.12556 2.83129 
7652 2 2.45093 -0.900006 -2.62119 
17605 1 -1.35969 2.13661 3.39935 
16017 1 -0.183753 -2.22492 0.440695 
16016 3 -0.465395 2.51314 -3.84076 
2593 1 -2.37261 0.704263 7.001 
16015 1 5.81956 2.46911 -1.65158 
16333 1 -2.80907 -2.0495 0.875822 
16334 3 -4.04909 -2.65709 -2.25197 
19579 1 1.20876 0.392581 -4.80744 
7428 1 -3.48616 -2.23279 3.56612 
10698 1 2.81923 3.07423 2.13795 
10697 3 1.01746 5.52257 0.257548 
10696 1 -5.01976 -0.835842 9.37821 
3985 1 -5.03681 1.51993 0.717256 
2252 3 1.46475 4.35812 2.90131 
2251 1 -5.3838 3.44034 -1.59925 
18800 3 0.708209 2.0201 -0.257486 
18801 1 1.67269 0.810754 -2.41835 
3987 1 -0.499831 1.91744 2.35741 
3986 3 2.04073 2.56631 0.398496 
8832 1 -5.12473 5.62071 5.22055 
8830 1 -0.0317401 4.22709 1.99621 
8831 3 -0.653787 -2.76715 -1.83765 
1729 1 -2.81046 -1.11652 -3.34343 
1730 3 0.63076 0.796309 2.93598 
4390 1 1.13502 -1.90945 -6.19733 
4391 2 0.902686 -2.29443 1.62583 
4392 1 3.81426 1.5516 -8.02307 
258 1 2.72226 1.88422 -0.0661706 
14057 2 -2.47547 -1.04867 2.18222 
14056 1 -2.55918 0.280576 -0.772982 
5133 1 5.1401 3.70193 -1.0571 
15411 1 1.54232 3.12094 0.199935 
3765 1 5.21522 -1.00815 -2.54713 
3764 2 1.32182 0.0874025 1.68505 
3763 1 0.945889 1.3022 0.486389 
2451 1 1.72873 -3.72723 4.33612 
2450 2 -1.05146 -2.76211 -2.53078 
2449 1 5.36706 -5.23157 5.5002 
4306 1 1.67904 1.34507 -0.469534 
8628 1 6.40989 -2.48015 -3.01376 
4307 3 2.29619 1.12465 -1.35081 
4308 1 -3.36185 -5.68994 0.527397 
18669 1 3.27033 1.82305 1.25003 
20466 1 -0.998817 2.30647 -4.1593 
20464 1 -4.18422 4.13955 1.66067 
20465 3 1.44544 2.09015 2.19791 
2868 1 0.523888 -4.47312 0.80696 
4659 1 -2.49227 7.6684 -1.47187 
4658 2 -1.06012 2.59935 3.03633 
4657 1 -10.0172 -5.37343 -1.99987 
5161 1 4.45809 1.9768 -1.71858 
11898 1 0.480671 0.892585 1.98425 
3076 1 1.30942 -5.18717 0.716452 
3078 1 2.76407 -1.1094 -0.392792 
3077 2 1.04403 -0.874214 -2.40907 
5163 1 -0.913505 -1.33675 0.222127 
5162 2 0.76651 -0.764866 1.97974 
4335 1 1.74992 -4.3033 -0.730472 
12515 3 0.827053 -3.32302 -1.78708 
12514 1 -3.04111 -5.16058 5.00004 
12516 1 2.07355 -2.4926 -2.5459 
8172 1 4.62411 -2.00909 -0.716466 
8171 2 4.24374 -0.672597 -3.91481 
4222 1 1.27051 -3.4406 -2.14401 
4223 2 -3.76827 -1.68897 0.472309 
16039 1 4.1626 -2.46211 3.82733 
9601 1 -0.365081 1.58344 5.11575 
9603 1 2.65872 1.73675 6.26325 
9602 3 -0.269879 0.0837571 -1.88368 
17606 3 5.12488 1.22625 -2.74091 
2595 1 -4.58267 3.37157 1.64029 
17607 1 -1.93651 -3.96714 -4.16954 
2594 3 -0.149305 -1.08438 2.12723 
1928 2 -2.06192 -0.288917 -2.13124 
1929 1 -1.86203 1.98512 4.77297 
1927 1 0.630207 -3.83172 6.64801 
7427 2 -4.95081 -0.692673 3.35144 
7426 1 -10.6652 -1.73084 -5.20925 
18385 1 5.18059 6.40995 3.3711 
18386 3 -1.2304 -2.80452 -2.18224 
2253 1 0.355395 4.17973 -5.69967 
18799 1 -2.25643 -1.69308 -6.53648 
5076 1 -2.77172 7.26362 8.28445 
5075 3 -4.08299 -1.05027 3.08271 
12405 1 -3.05192 2.93089 2.33073 
12403 1 3.83025 6.72123 2.3025 
12404 3 4.29071 -0.402518 -2.54178 
4419 1 -6.79062 7.2497 -0.850699 
4418 3 0.180769 -0.149754 4.07397 
4417 1 0.610929 -0.220182 -1.21967 
3908 3 2.21984 4.20134 -3.9227 
3909 1 -0.177591 0.908571 4.31244 
3907 1 -2.02785 -5.50748 -2.44384 
14148 1 -8.72372 2.31245 3.47927 
14147 3 0.267056 -0.849823 -1.15895 
3216 1 0.805054 2.1665 -5.82114 
14146 1 -2.41219 -1.8802 -4.70865 
3215 3 0.991831 0.423259 -0.764644 
3214 1 0.865171 3.65853 4.32086 
6858 1 -3.59626 -1.61562 -2.25684 
20141 3 0.59056 1.07898 -3.5856 
11044 1 3.96348 3.91761 4.0177 
11045 3 -4.25281 1.06503 0.0414877 
11046 1 1.18666 -0.586707 0.22461 
20245 1 0.957008 0.768219 5.40317 
793 1 -0.225283 -1.9626 -3.54439 
795 1 -2.53381 -3.204 -5.26212 
794 2 3.07878 -4.13655 1.36449 
20247 1 -0.988677 4.36238 1.25554 
20246 2 -1.41308 4.75566 -1.49557 
2794 1 -4.82801 -0.917414 -1.78887 
2795 3 0.524523 1.2081 0.764298 
11832 1 -2.22419 1.61552 4.54938 
2796 1 0.00628432 -3.18128 5.9511 
11831 3 0.97522 -1.08394 -1.09089 
11830 1 -2.88084 -1.87971 2.10212 
5854 1 -5.39971 1.19193 4.68708 
5855 2 3.54959 0.17796 4.18089 
18667 1 0.962564 0.676538 1.95916 
18668 3 -2.23071 1.69351 -0.59013 
17305 1 -3.90857 4.18717 -1.93361 
17306 2 -1.86845 0.0025856 1.75406 
17307 1 6.70961 4.90604 -1.29273 
2867 3 -0.665835 6.29158 -2.68872 
2866 1 -5.15064 -0.117776 -3.84381 
8995 1 1.8856 -0.798448 2.984 
9794 3 -5.92683 4.049 -0.768003 
3278 2 4.50732 4.52936 1.78747 
9793 1 0.0378555 -3.54917 2.1655 
9795 1 -2.88074 -1.89999 1.45079 
5639 2 -1.06784 -3.15138 0.536384 
5640 1 -4.36535 1.55754 1.96969 
5638 1 1.27316 0.124597 -6.88451 
5510 3 -4.68478 0.841913 0.444207 
3277 1 -2.82456 -1.47911 3.77129 
20202 1 -1.64086 -4.03248 6.80944 
20201 2 -2.61975 -4.31165 -2.43348 
16040 3 2.0544 -1.2721 2.37904 
17654 3 -2.55512 -0.660733 3.38544 
17653 1 0.620374 0.332563 -4.16531 
16041 1 -2.9825 -2.91434 2.2965 
19090 1 4.68531 -4.83352 -1.92628 
18387 1 0.700651 2.45704 5.01999 
19091 3 2.39405 -1.14364 -0.295536 
19092 1 -0.0313922 -1.344 -5.55806 
7562 2 -0.0601132 0.386692 -4.48839 
7563 1 0.546778 -1.52593 0.553927 
7561 1 1.54101 -3.52217 -5.85587 
18447 1 3.87721 0.684248 0.962952 
18446 2 1.23156 2.41702 -1.75895 
17527 1 -2.5144 -1.98352 -1.03508 
10686 1 1.12275 -1.40497 -1.68482 
17655 1 0.526572 5.31817 4.92729 
17529 1 -4.10619 2.36879 -1.66317 
17528 3 -0.110191 -0.720359 -2.73926 
6199 1 1.26359 2.05903 0.492057 
17947 1 5.76334 1.32981 6.05196 
5016 1 1.03129 0.184659 4.17108 
5015 3 -0.373923 2.1796 -4.43239 
5014 1 -0.265384 1.16427 1.2998 
17948 3 4.22259 -1.56004 3.67209 
17949 1 -1.44139 4.70346 -0.193824 
1607 3 -0.16406 1.29832 -5.1455 
1606 1 2.22019 -6.29571 -4.53661 
1608 1 4.0555 3.34439 1.34241 
6200 3 -3.07641 0.776402 5.9648 
5074 1 4.73834 -0.705502 5.30475 
9030 1 -2.92205 -4.07274 -3.44981 
9029 3 3.73989 -0.334841 1.09107 
9028 1 -4.40207 -0.722589 2.05124 
16024 1 1.90587 -6.08308 2.02968 
16025 3 0.10013 -1.80878 -5.96188 
16026 1 3.76055 0.807005 -3.39505 
709 1 0.652033 -6.93855 -5.95543 
6856 1 4.72805 -6.5107 -3.59886 
6857 3 -0.987958 -5.66753 1.26125 
13214 3 -2.138 0.951539 0.598752 
13213 1 3.41974 3.027 0.537023 
13215 1 0.529108 -3.98565 -4.88569 
20140 1 -2.43542 1.71712 -4.94397 
710 3 2.83878 -0.599927 3.61941 
711 1 3.59362 -11.7468 -3.93975 
1825 1 4.99739 0.909978 0.582556 
1826 3 5.67451 -2.0681 -1.44919 
8647 1 -1.80408 2.45958 4.7184 
8648 2 -1.8918 -2.5258 0.267 
8649 1 -4.65066 1.75835 -3.61076 
1827 1 -1.80756 7.2843 -1.38668 
5403 1 -0.953349 -5.89763 2.6517 
5402 2 2.56954 1.75734 1.84868 
5401 1 4.42332 -5.74483 -3.28593 
17916 1 -6.20715 2.95248 3.45016 
17914 1 -0.820553 -4.96893 2.9829 
17915 2 0.908178 2.16073 0.586717 
5856 1 0.411954 0.180937 0.55889 
10716 1 3.02945 -1.79749 1.5637 
13500 1 3.92779 -6.81375 0.0767049 
13499 3 4.42606 -1.85301 1.54181 
13498 1 3.60345 -1.60663 -5.29767 
12611 3 0.731845 0.241254 1.6245 
5795 3 1.48468 2.50035 2.44716 
5796 1 3.54179 -2.18813 2.38286 
12612 1 -3.54096 -0.508769 -0.138653 
12610 1 3.1261 1.39661 -2.2748 
11551 1 -0.222724 -2.7929 -2.04298 
15171 1 -8.37481 3.47118 -7.10913 
11552 3 0.0859314 0.98254 0.100251 
15170 3 1.3271 -0.870755 -1.34665 
10715 3 -1.19547 -1.39454 1.82282 
10714 1 -1.4865 4.62203 2.97555 
15169 1 -2.8557 -7.03694 1.58624 
15616 1 0.471492 -3.15688 1.27381 
5021 2 -3.45122 -3.25538 1.39074 
15617 2 1.56973 -1.04216 0.573964 
15618 1 -6.28058 -3.20158 2.02733 
5022 1 -2.00162 -1.9155 0.302259 
5020 1 -0.534255 0.0536981 2.86167 
8996 3 -3.90911 1.13556 -3.09934 
8997 1 -3.47159 1.34826 4.27302 
3279 1 6.32025 -3.0397 -1.34945 
17917 1 -1.65639 3.18594 7.92103 
17918 2 -0.551891 6.31948 -1.90855 
17919 1 0.951964 -1.30645 2.43995 
16291 1 -3.32634 -5.46997 3.7755 
16292 3 -2.27325 0.633925 4.03089 
20200 1 2.49887 -4.42546 -4.17049 
16293 1 1.28979 0.430482 3.09897 
5351 3 -5.07155 0.551095 3.12381 
5352 1 0.382489 -9.4949 -5.15225 
18445 1 4.81955 -1.10839 -1.0894 
15735 1 -1.05821 2.82017 5.4154 
15734 3 -2.14591 0.611556 0.620287 
15733 1 -1.64349 4.10565 -1.66316 
3967 1 -1.79931 1.24499 3.87475 
3968 3 -0.926345 -3.04574 -0.960428 
3969 1 3.12386 2.95442 -6.55496 
6527 3 2.74023 4.51467 -1.90198 
10685 3 -2.57416 1.60402 -1.47162 
10684 1 -2.22142 -1.28077 0.135432 
6526 1 2.72385 -1.81348 -8.37048 
17426 3 -0.154743 1.38059 2.27787 
6528 1 3.03229 -2.98937 -2.04419 
6201 1 -1.84525 1.21204 -2.75492 
17427 1 3.61456 8.26359 -2.99446 
6357 1 1.02127 6.57052 3.0203 
6356 2 -1.91193 0.241968 -4.23446 
6355 1 0.93273 2.66303 -2.72774 
17080 1 0.467218 -0.938309 5.11545 
17082 1 -2.01468 -6.33221 -6.67899 
17081 3 -1.26597 -1.55506 -1.23992 
1913 3 -0.3354 0.409018 1.28674 
1912 1 3.54718 0.917837 0.0566042 
6850 1 6.16806 2.91538 -3.9132 
1914 1 3.16848 1.47614 -3.26354 
7865 3 2.64176 1.66041 -1.94562 
7864 1 4.59787 8.55164 -1.87745 
7866 1 2.97069 -1.83559 1.143 
20352 1 -2.74059 1.48683 0.5011 
20351 3 3.90201 -0.997064 -1.38112 
20350 1 3.6763 -0.172722 -2.91154 
8467 1 4.52922 -2.05803 -3.10098 
6851 3 -1.20754 -0.57462 -2.33624 
6852 1 0.797201 -6.00621 -2.95184 
8468 3 -0.761313 0.844729 1.53422 
8469 1 -6.24109 1.37487 -4.69036 
14999 2 -4.26852 1.87176 -4.19056 
14998 1 -2.43238 -0.0346938 -3.55893 
19767 1 5.29182 3.5135 -2.17133 
19766 3 0.38618 3.23796 -6.99579 
16905 1 -1.9803 4.21253 3.58303 
11899 1 0.439619 4.50016 -3.93679 
11900 2 2.32007 -1.33722 -1.00964 
11901 1 2.61411 0.451087 -1.73179 
811 1 -6.70943 -4.29269 1.0511 
812 2 -1.92346 -1.1989 -1.57953 
17079 1 1.89878 -1.14097 -4.83218 
17078 2 -0.97106 -1.87625 -0.84403 
16078 1 3.94443 3.14384 -3.02355 
16079 2 -4.32609 -1.13019 -0.360355 
813 1 1.56289 0.486005 -0.601495 
12981 1 -3.01542 -3.12143 -0.185432 
12980 3 0.455734 -2.22588 1.18473 
12979 1 0.511158 -3.05714 -0.789279 
14610 1 -5.78347 -0.0828488 -8.91731 
14609 3 10.0139 -0.96788 0.821792 
14608 1 -1.8958 -0.101535 -3.92327 
11553 1 3.14475 1.34785 -3.58565 
5794 1 4.56052 1.63215 1.39443 
8969 3 4.35781 3.80573 -0.58418 
8968 1 -1.04415 -0.0581593 -6.3984 
1633 1 -6.17639 2.51842 3.20271 
8970 1 -1.82357 -3.07165 -1.43694 
6072 1 3.85845 -4.6686 -6.2723 
6071 3 0.953608 1.98872 -0.308601 
6070 1 -3.31921 -1.05911 -5.38015 
10417 1 0.762571 -0.7897 0.192456 
10418 2 -3.42999 -1.15033 -1.49588 
10419 1 -3.04701 -0.728159 5.829 
7952 3 3.75291 0.959154 -1.53293 
7951 1 -3.15164 -9.58654 -3.76539 
7953 1 -0.370409 -1.18141 -1.71859 
5350 1 1.38943 -2.10796 7.01774 
8341 1 0.894462 9.17988 -2.24646 
8343 1 -0.353953 1.7003 0.383697 
8342 3 1.56414 -1.64751 0.527756 
16626 1 -3.05468 0.51119 3.30498 
3524 3 -1.00057 3.38206 -1.41354 
3525 1 -4.83593 -0.430468 -0.902459 
17425 1 -0.713897 -4.15566 -1.56555 
3523 1 1.30983 4.85124 -3.86204 
16625 2 -3.76788 -3.01414 -2.43797 
16624 1 -0.725248 1.95639 -3.03051 
18943 1 -1.06166 0.680045 -7.13549 
18944 3 -1.62772 0.0107367 -3.40092 
17927 2 0.000691173 -0.464339 -1.61277 
6752 2 -0.379576 -3.15777 0.975259 
6753 1 -0.598892 3.66199 -4.05605 
17928 1 -4.03119 -0.901315 -5.55813 
20551 1 -2.92167 0.776468 -3.33319 
4101 1 1.81393 2.70541 -0.282902 
6751 1 -0.559718 0.873792 -4.06717 
11848 1 1.27337 -3.12245 -2.41745 
11849 3 -0.576434 -1.39605 -2.64752 
15000 1 -1.36409 -0.339777 0.734402 
4244 3 -5.50216 2.58329 0.672173 
4245 1 0.0542288 -4.67933 -0.506795 
4243 1 2.36494 0.876128 -3.47652 
15203 3 -3.01654 -4.8835 -1.54534 
15204 1 3.57025 -4.6534 2.54489 
20691 1 -0.536065 7.18231 -5.70157 
20689 1 -1.61165 -1.06532 -3.15204 
20690 3 2.61749 -3.11635 -0.742208 
5967 1 -0.67648 2.51208 -2.75859 
5966 3 -4.79601 -0.600648 -0.206871 
5965 1 -3.25511 3.27454 0.155227 
17317 1 -0.895612 2.88658 -0.624404 
17319 1 2.16277 -3.17509 9.57124 
17318 2 -1.81177 -3.67814 1.51249 
16903 1 1.72612 -2.69661 -3.11411 
16904 2 -0.765191 4.22275 0.957296 
15103 1 4.12298 7.27448 -1.96476 
15105 1 0.0253125 -0.611374 -1.43091 
15104 3 -1.01801 -0.70759 0.968226 
17077 1 0.662846 -6.49508 3.64516 
14171 2 -2.04261 -1.57083 0.678691 
14170 1 3.9424 5.63501 -1.51516 
10137 1 -4.36357 0.00702552 -1.65387 
10136 2 -2.49166 1.45461 2.21891 
11644 1 -3.39748 5.12138 0.488496 
11687 3 1.46011 2.81718 -2.74094 
11686 1 -1.15591 -3.23893 2.52458 
17758 1 -8.38856 -2.13006 -1.39269 
17659 1 -1.12384 1.77853 -2.87393 
17661 1 1.24263 5.54737 1.94059 
17660 2 -0.811147 -2.50634 -3.91669 
17760 1 3.52952 -1.58726 -2.64599 
17759 3 1.19698 -1.62099 1.42084 
14708 2 0.134905 -2.308 -0.421611 
14709 1 0.117325 -3.40703 1.19211 
21268 1 5.07437 -0.246266 0.150437 
21269 2 5.76305 -2.43972 -2.18097 
14707 1 3.35892 -2.13586 1.99571 
21270 1 1.7062 -0.597203 0.629032 
11037 1 -5.3404 -3.25406 -4.85564 
17289 1 -1.95802 4.1952 1.45003 
17288 3 -0.577359 0.856031 -1.39749 
17287 1 -5.66019 -1.54452 2.77087 
1999 1 4.29499 -1.1633 2.95694 
10251 1 1.86644 2.36021 -0.440053 
11035 1 -5.29873 1.22806 -0.524931 
18945 1 3.94281 1.2288 -4.36998 
3041 3 2.53412 3.85851 0.71171 
11036 3 -0.368697 -4.08433 7.49319 
17926 1 2.75214 -1.38843 0.793205 
20552 3 -1.32906 0.828625 -1.42599 
4099 1 -3.25678 2.68702 -0.391884 
6208 1 -0.925671 1.53308 2.84108 
6209 3 -0.25851 1.09755 -4.42014 
6210 1 1.68505 5.03194 9.44008 
4100 3 1.49923 -1.41031 -1.32003 
3042 1 -0.400297 -2.58676 2.64934 
3272 2 -3.07904 3.33933 -5.30821 
3271 1 2.01064 -2.11629 1.45869 
5739 1 3.00178 0.71201 0.179598 
5738 3 3.14892 -4.07938 -2.40806 
5139 1 3.98152 0.498758 -1.51577 
3241 1 -3.93938 2.76416 4.89651 
3242 2 1.46319 -0.0684975 0.999153 
3243 1 2.926 -0.747065 0.405814 
3273 1 -0.654227 -1.346 -1.77132 
16239 1 -10.0026 -5.23721 -0.683133 
5737 1 -0.274142 -1.20298 1.04959 
16238 2 -4.72733 -1.80911 0.274263 
16237 1 -2.68787 4.14842 2.45917 
5138 3 3.37241 -2.71649 1.38359 
19143 1 -2.41994 4.04143 2.14271 
19142 2 -0.546456 -3.99742 0.837151 
11850 1 -3.83499 -0.116215 -2.27414 
19141 1 -3.99332 -0.130519 4.8349 
10403 2 -4.42833 0.812825 -2.78689 
10404 1 2.16436 4.61058 0.109997 
15202 1 -0.318096 1.33582 1.16105 
19888 1 0.604318 0.673983 -5.61988 
10402 1 1.60243 0.639302 -2.77734 
19890 1 0.0431864 2.37145 0.427534 
19889 3 -0.103498 1.53091 1.67367 
21579 1 3.17635 -0.147342 1.48799 
809 3 0.884256 0.327819 3.43044 
810 1 3.80445 -2.57438 1.84075 
808 1 4.36982 11.2077 1.28913 
21578 3 0.525485 -2.1018 2.0488 
21424 1 -1.30574 -6.1507 -0.860772 
21426 1 3.28783 -5.78634 2.27509 
21577 1 1.74537 -2.39042 -4.17109 
21425 3 -0.213474 0.982204 2.13786 
7683 1 1.08943 -0.574341 -1.0158 
7682 3 2.5154 -1.2538 1.47829 
7681 1 -3.16047 2.10638 -2.25729 
8298 1 -2.10445 -1.10278 -1.44222 
2913 1 -2.85108 5.05763 -1.18837 
7215 1 4.34837 1.16808 -0.281863 
13176 1 5.90212 -0.570811 -2.87997 
13174 1 -1.1626 -1.42662 3.54785 
13175 2 6.49768 1.88397 -0.731505 
10893 1 0.346218 4.05558 2.72261 
14658 1 -5.4925 -1.6629 -1.94099 
10891 1 -1.66837 7.4395 -2.90155 
10892 2 -2.47144 1.02612 1.94048 
20294 3 1.9802 -0.289339 -0.431827 
20295 1 6.90409 -0.444579 -0.391638 
3352 1 -4.2134 -4.26967 3.75711 
10135 1 5.30442 -0.0276915 -11.8296 
8297 2 -1.88086 -0.727443 2.34792 
8296 1 2.79092 -0.801669 -0.16635 
5181 1 -3.04894 0.47086 -4.86948 
11645 2 0.999347 0.243621 2.74053 
13219 1 1.90527 1.45998 -6.82395 
11646 1 4.06038 -0.333837 -1.59611 
14657 2 -0.829462 2.08781 -0.274185 
14656 1 -0.450349 0.7094 0.499697 
10779 1 -2.4916 -1.1154 0.0663724 
13220 2 4.05984 1.45723 -0.798655 
10778 3 2.2588 -4.09539 -1.43846 
3353 3 -4.15225 0.269483 1.09913 
10777 1 5.37763 -5.793 7.45362 
3354 1 -1.56694 -2.66708 -0.450767 
2752 1 -1.08152 -4.47752 1.36536 
21536 2 0.550284 -1.95069 -3.38977 
21535 1 1.29744 -1.39127 0.594125 
21537 1 1.21881 -4.10524 -0.561026 
2753 2 -1.78482 -5.16279 0.410558 
2754 1 4.36406 1.80884 -2.8132 
2062 1 -0.890935 3.8033 -4.87138 
2064 1 -6.49899 -4.37865 -4.07698 
2063 2 2.91665 0.603598 1.67754 
1496 2 2.08581 -1.27173 -0.208126 
1495 1 0.867288 3.0313 -1.88504 
17337 1 2.3206 3.58916 -5.4981 
4747 1 1.46356 -2.52986 -1.26864 
7512 1 -2.06177 -7.83328 4.5309 
7511 2 0.16485 -3.87721 2.01208 
15864 1 2.29723 5.52172 5.64537 
15863 3 0.782333 -2.10147 -3.41097 
15862 1 3.34495 2.42425 1.60003 
2001 1 2.93197 -4.27401 -2.4471 
2000 2 1.47708 -4.71716 -2.45926 
10250 2 2.42898 -4.55678 -3.27403 
20657 3 -2.08438 -2.52324 -0.675134 
7430 3 1.52592 -1.435 0.770662 
3040 1 -2.4152 0.408596 -2.23872 
7431 1 -6.50035 -4.71709 -2.77666 
8950 1 2.91989 -2.75837 3.83029 
7429 1 -1.68307 5.11484 1.09212 
8951 3 1.96973 -2.17027 1.60532 
12694 1 3.77097 1.3548 2.26228 
12696 1 6.98586 0.895248 -4.28478 
12695 3 2.75038 3.40819 -0.143731 
2841 1 -4.13311 -2.32908 1.31288 
2840 2 -1.71654 5.12392 1.30318 
20656 1 4.06994 -2.4436 0.783023 
5978 3 -1.23522 1.3547 1.51942 
5979 1 3.52533 -5.80586 0.175554 
5977 1 -0.441878 -0.327159 2.87507 
3425 3 -1.70183 -2.86412 4.17203 
3424 1 0.416462 -2.53633 0.747845 
5137 1 -3.29572 -1.29235 -5.07177 
3426 1 -0.41515 -2.72723 -2.98156 
11506 1 -1.75915 -5.3972 3.4907 
11507 2 2.14771 6.59296 2.68819 
11508 1 1.00492 1.74673 1.13257 
2124 1 2.88593 -3.72484 1.1436 
19435 1 0.11971 2.16357 -0.574492 
12470 3 -4.55542 -5.4717 -2.07031 
12469 1 5.85772 4.16051 0.358866 
13260 1 -2.24425 2.65663 -0.395817 
13259 3 -1.51653 -4.09886 -1.95561 
10389 1 -0.62352 -1.35659 -3.87284 
10388 2 -2.19347 -1.07999 0.202206 
425 3 -0.583225 -0.442443 1.88227 
424 1 6.21664 -5.71702 2.88323 
10387 1 8.6524 -1.77732 -1.28811 
13258 1 0.360135 -3.73695 -6.06924 
18103 1 1.51973 1.77437 -2.07065 
18104 3 0.752596 -3.44292 -1.6505 
426 1 -2.12247 -2.51205 -2.59422 
17489 2 2.12725 -2.62429 -0.0226438 
17490 1 6.37938 5.21959 0.532449 
17488 1 7.51225 4.06194 4.77252 
18105 1 2.17257 0.04846 5.95449 
2911 1 4.76562 -1.73097 4.83165 
2912 2 -1.02215 -0.820493 2.53192 
16955 3 1.79145 1.55651 -5.0594 
16954 1 5.98588 -4.19256 6.71293 
16956 1 2.89628 -4.06823 6.44248 
7003 1 2.07917 -0.852152 -0.217741 
5179 1 0.851844 4.46683 2.47068 
8353 1 6.62908 7.48722 -3.34801 
8354 3 -2.39798 -0.620264 -0.600076 
8355 1 3.80965 2.20715 3.5809 
20293 1 -1.01974 3.13066 1.67259 
19811 2 0.0549577 -2.90148 -0.0328234 
19812 1 1.58848 2.74642 4.37911 
7004 2 1.93195 0.317928 -1.21399 
19810 1 1.0921 5.25755 -3.02043 
7005 1 -1.3904 -2.79253 -3.92173 
5180 2 -0.767488 0.98936 0.650018 
7196 3 -1.96285 -0.448066 0.791741 
7197 1 -1.56425 2.45836 0.144257 
12288 1 1.58472 5.91476 2.94175 
12287 3 2.83269 -1.88618 -1.84304 
12286 1 -3.20302 1.09267 0.600382 
5534 3 -0.973778 0.967106 -2.36082 
5535 1 4.31994 6.18186 -0.965608 
5533 1 0.951257 -1.82242 2.21604 
13221 1 1.51201 6.91029 -3.71014 
406 1 -4.64894 2.12082 -2.9278 
4270 1 1.44106 -1.02765 7.73529 
4271 3 -2.66395 -3.31773 -4.07339 
4272 1 1.62125 1.61314 -0.866884 
11328 1 -7.5344 1.11006 -1.1125 
21 1 5.66626 -10.7443 -2.91276 
11327 2 1.84072 0.668277 -2.98621 
1497 1 3.83975 5.31575 -8.5474 
11326 1 1.33842 0.683778 4.39664 
20 3 1.09041 1.74233 0.536463 
19 1 -4.99919 5.11831 5.4095 
4749 1 -0.848111 -0.42654 3.01488 
17336 2 -0.853955 -0.485825 2.63503 
408 1 2.24492 -1.97839 6.31973 
17335 1 1.61907 0.195432 -1.18967 
407 3 1.19627 3.49965 1.00549 
8433 1 1.20694 -1.35725 -2.63443 
8432 3 -1.99529 0.202739 -2.065 
8431 1 -2.87937 -6.2968 -3.87639 
4748 3 -4.36366 -0.130375 -1.25848 
7510 1 -3.20088 0.411774 2.81127 
20194 1 -6.21893 -5.43553 3.47288 
20196 1 4.20699 -1.25304 2.442 
20195 2 -3.78061 0.495726 -2.077 
12871 1 -0.246 1.27478 2.74266 
12872 3 1.68018 -4.7844 -0.206875 
20658 1 5.70192 -3.35552 3.90966 
3236 3 1.03954 2.86481 0.108393 
8952 1 -3.50834 -4.72214 -0.936446 
20582 3 -1.10761 0.526213 1.52329 
20581 1 -5.18755 -3.99332 2.54819 
3235 1 -1.71483 -3.43477 6.13505 
20583 1 -4.56771 -2.15941 -6.09596 
2839 1 -6.04037 5.5641 4.03491 
12873 1 -7.2402 0.783225 8.76494 
3237 1 -3.14775 1.08924 1.53784 
8365 1 -0.502955 -4.98315 4.27879 
8366 2 -2.91284 -1.25704 2.74365 
2122 1 0.743947 2.03373 -1.19559 
3337 1 -4.018 -0.844141 1.24281 
17075 2 2.86722 0.325304 0.0444254 
17076 1 -0.0723371 6.55685 0.0566755 
8367 1 3.62687 1.74209 1.67894 
2123 2 2.62007 -0.318657 -3.18788 
11437 1 -5.06562 -5.33375 4.78297 
11438 3 -2.42454 -1.42516 -0.307816 
11439 1 -1.31254 -1.57543 0.0934475 
19437 1 3.36519 -0.433988 2.61521 
19436 3 -1.28044 -1.84258 0.180352 
17074 1 1.34331 1.73644 7.16876 
7074 1 -1.00075 2.84133 -1.8557 
7073 2 2.5026 -0.227492 1.20477 
20349 1 -4.33262 -5.46128 -4.26108 
21196 1 -1.61619 -3.07031 0.112139 
21197 3 -0.573933 -1.62284 -2.60425 
19180 1 -1.05317 -0.62319 8.17723 
19181 2 1.24783 2.4751 7.46468 
19182 1 -3.07474 -2.09307 2.07265 
9492 1 -1.26215 -1.37731 -3.51227 
9491 2 0.87918 1.57044 5.2198 
615 1 -3.89716 0.457161 1.44356 
9490 1 0.869853 0.616135 3.94655 
614 2 3.32223 -1.7674 0.369543 
3389 3 0.467045 -1.50909 -1.28315 
14848 1 1.33451 2.75785 -4.60224 
3388 1 -0.119832 -0.225539 -7.16178 
3390 1 -5.17148 -2.44033 1.55878 
14849 3 -2.6537 2.74173 -0.180493 
14850 1 -1.93121 4.53256 -3.88454 
613 1 2.21226 -0.373461 -1.05249 
6105 1 -1.73185 -6.42155 -2.94842 
6103 1 6.81507 -0.362064 -0.301138 
6104 2 1.75182 -2.75948 4.62343 
3478 1 -0.353848 -1.28889 -5.24982 
17113 1 -2.03355 0.336885 -3.34089 
13940 2 -2.79721 -0.405901 -2.32687 
17114 2 -0.783193 -1.66337 -6.17405 
13939 1 2.31068 1.31281 -3.17514 
13941 1 -1.62742 1.04278 -1.69986 
8638 1 -2.91113 3.74921 -1.43035 
13832 3 -2.06291 -1.17103 -0.239766 
13831 1 1.00209 0.762054 0.945765 
13833 1 -0.119764 0.470692 -1.41969 
3922 1 2.28071 -2.19469 2.47748 
3924 1 5.02077 4.42281 1.23709 
8086 1 2.57694 -0.617129 2.78301 
3923 2 0.883067 3.29099 -4.20121 
12345 1 3.96933 2.80204 -0.154057 
12344 3 3.3136 0.182365 -1.17053 
17115 1 -4.66178 -0.513438 1.32267 
8639 3 -2.97739 -1.25367 1.3733 
8640 1 0.272846 -0.655548 -6.83536 
8087 2 -0.481608 1.14041 0.0225364 
8088 1 4.16837 1.73768 3.23492 
10146 1 4.23718 -7.7803 4.21247 
10145 2 -1.57211 -2.27208 -2.31565 
9708 1 -6.26148 6.16898 5.10673 
9707 3 2.66964 -0.304598 -4.26675 
9706 1 -3.70146 1.1239 3.67594 
1748 3 -1.39915 5.40792 2.07723 
1749 1 2.0195 -3.10756 0.50836 
5611 1 -4.75138 1.09885 -3.0628 
5612 3 1.35521 -0.755059 0.532289 
5613 1 3.06882 5.3343 1.9544 
1747 1 0.105708 -2.28244 0.931739 
16505 2 1.73865 -2.87905 -1.36171 
16504 1 -4.82207 -5.33169 -3.73499 
16506 1 -1.40601 -2.63157 7.28175 
695 3 2.9906 -1.31603 2.17137 
696 1 -8.35846 -0.889885 -3.29179 
3338 3 0.0443404 -1.01093 0.508272 
3339 1 -1.86698 -1.06232 -1.52102 
694 1 0.719636 -0.122683 1.17024 
7072 1 -4.66453 0.610307 -2.40818 
19202 3 -3.15079 -1.02636 0.554738 
19203 1 -2.456 6.4068 -0.838155 
9984 1 -2.22398 1.63973 5.98569 
9983 2 0.094844 1.40749 2.97918 
9982 1 0.67752 -2.0371 -1.94727 
20348 2 5.01299 -0.0727672 4.74834 
20347 1 -0.462332 -0.244808 -0.0382509 
21198 1 -4.35909 3.728 -0.902441 
1845 1 0.358228 6.43347 0.147432 
1844 3 1.48691 3.06572 1.83729 
20338 1 -3.69877 2.62126 1.22087 
20339 3 1.54145 -1.68254 -0.0175869 
20340 1 -1.49265 -1.83868 -1.54926 
10144 1 6.33369 2.49211 -3.31622 
12464 3 -0.344485 1.61631 -4.90244 
12465 1 4.8055 -0.695344 -0.606633 
12463 1 0.555633 -2.56266 -1.21671 
20777 2 1.94847 1.7234 -1.92847 
20776 1 -0.329742 3.12516 1.55426 
7267 1 1.99827 2.36595 4.63406 
7268 2 1.72813 -1.26853 4.83646 
15925 1 -0.505292 0.309922 -4.02021 
18212 2 -3.66133 1.54063 -1.7721 
18213 1 2.24298 -5.62659 5.10219 
9714 1 -0.124142 2.41456 1.55379 
9713 3 1.06056 3.87535 3.10229 
18211 1 -1.87955 -2.35776 4.59652 
15927 1 -5.8791 -1.3156 0.527933 
15926 3 2.63136 -0.286331 -2.49396 
5426 3 -4.90512 -4.30675 1.98914 
5425 1 -2.05324 1.05661 2.22418 
5427 1 -6.56226 3.06119 -4.18492 
10257 1 -1.6328 1.79385 7.4351 
7340 3 2.28848 0.838229 -4.29076 
141 1 1.08327 0.18346 1.73167 
7339 1 -1.49609 1.00029 0.436099 
140 3 4.89064 -1.41481 -1.51877 
139 1 -1.16081 1.30119 -2.29671 
19480 1 1.04948 -2.10193 -6.20873 
18939 1 -4.49327 -1.81413 -0.43364 
10256 3 2.2599 -1.98479 2.25543 
20704 1 2.44667 -5.17178 2.90007 
6441 1 -0.0347633 -2.65692 -1.7982 
6440 2 2.15887 0.670373 0.813144 
6439 1 2.22949 -1.38192 -4.2305 
252 1 -0.893005 -8.50835 0.844043 
251 3 -0.998225 0.803094 1.26747 
19201 1 -2.63214 1.03887 -0.451416 
250 1 0.653825 0.342476 -5.36194 
12136 1 5.6356 2.67136 0.816421 
9043 1 7.34332 2.521 0.906436 
9044 2 1.3978 -2.05738 -0.836078 
9045 1 3.21174 -8.15202 -1.86318 
7413 1 0.408573 2.22127 -6.87497 
7412 2 -1.18774 -0.511302 -1.1704 
7411 1 -2.76957 0.0161261 6.73507 
18864 1 0.523991 -6.93919 1.17556 
18862 1 -4.79922 -3.41551 3.75199 
18863 2 -1.3846 -0.691318 1.45731 
18726 1 1.40257 0.760693 -3.74209 
15447 1 -5.72851 -4.01767 3.1428 
11173 1 6.88862 4.74356 -0.451457 
2740 1 -0.908674 3.65898 -4.92799 
17104 1 -0.0889796 -1.23005 -2.93889 
2741 3 1.89475 -0.171706 -0.154341 
2742 1 8.20769 1.13915 -2.09749 
17671 1 -0.675467 2.30419 0.935312 
17672 2 -0.0586798 1.45427 0.739571 
17673 1 0.332256 -2.01747 -4.59323 
19359 1 0.711375 0.586864 5.48201 
17966 3 0.0115321 -0.922763 -1.79195 
17967 1 0.248146 0.43991 1.31747 
9307 1 -5.25238 2.1854 -2.54978 
9308 3 2.07919 0.868855 -1.5091 
6187 1 2.53227 2.82604 2.79642 
6188 3 2.07626 0.430699 -6.06386 
6189 1 3.09073 -5.97258 -5.33563 
9309 1 -0.283767 -1.62023 -2.06208 
19734 1 -1.18745 3.62332 0.192865 
19732 1 1.54336 1.08783 -1.62731 
19733 2 1.87607 1.80317 -2.93582 
9712 1 -2.49669 -4.83061 0.264744 
15025 1 -2.1292 -2.50327 -0.641713 
7269 1 1.59071 -0.228024 3.05442 
11284 1 -1.14614 -0.48355 -4.49124 
6678 1 4.06323 0.799222 -3.17969 
6676 1 2.16453 -2.19716 -3.38657 
6677 2 -1.21355 2.7285 1.76499 
20778 1 4.27023 -0.501594 10.2117 
14369 2 2.05661 1.85265 2.76921 
14370 1 1.03479 1.14873 0.218679 
13765 1 -0.156782 2.13074 1.81071 
13766 3 1.81466 -1.8067 2.55266 
7341 1 7.68433 6.44295 -0.0922376 
13767 1 1.23581 4.62875 5.97759 
19482 1 -1.89865 2.4132 -3.71359 
19481 3 -0.812845 -3.66397 -1.72197 
10255 1 -1.33874 -1.1734 -3.76125 
20705 3 -1.82773 2.34527 0.914423 
20706 1 1.90896 0.620854 -2.75415 
14087 2 -0.0309568 3.05905 -3.5692 
14086 1 7.6654 -2.62661 1.83428 
14088 1 2.69395 -7.09248 -1.58993 
9049 1 -1.70688 3.71561 -1.37752 
9050 2 -0.380957 -1.35015 -0.466944 
9051 1 3.67771 4.10198 -0.417959 
13162 1 -6.88219 3.85992 2.91718 
13163 2 6.38547 0.996244 1.3694 
16851 1 4.59998 -2.77647 -0.503654 
16850 2 0.474173 4.00071 1.96335 
16849 1 7.68292 -5.88785 2.47619 
618 1 0.010351 -1.25332 3.43344 
617 3 3.37249 -1.28395 2.0239 
12573 1 -5.01522 -7.51622 2.56534 
12572 2 -5.33776 0.242489 3.09846 
12571 1 -1.85153 -2.88591 -1.80796 
11175 1 4.41028 -2.37731 0.879243 
11174 2 1.08132 2.7886 2.23707 
15778 1 1.69411 -1.90709 -3.66205 
19358 3 -0.418972 -0.378661 2.60619 
19357 1 3.08093 -2.96042 -9.50158 
962 3 -2.41093 -3.57438 0.387933 
17965 1 -3.85171 -4.0574 -2.67626 
963 1 2.68572 -1.20474 0.358084 
961 1 1.58983 0.0875989 -1.27677 
6091 1 0.114742 1.425 -4.8671 
15433 1 -4.06167 1.42324 -3.63094 
15434 3 0.6003 0.278453 -1.48963 
15435 1 4.55289 2.58017 -2.35795 
506 3 3.48181 -1.15058 0.725793 
507 1 -1.57569 -0.275011 -2.2593 
14799 1 0.0262361 4.58676 -2.56083 
15451 1 -0.159305 2.27919 -7.8588 
9168 1 -9.58769 -8.93858 -0.741148 
9167 2 -0.389297 1.09732 -2.87189 
9166 1 1.05054 3.20925 1.1187 
20235 1 6.32391 -0.506511 -3.43907 
20234 3 1.61254 -1.23845 -0.268528 
20233 1 -0.252394 0.0380034 1.53327 
11285 3 0.0104114 -1.98321 1.30096 
11286 1 -1.53185 5.19663 4.47691 
14368 1 -8.35741 -1.59311 -5.32319 
9503 2 1.6532 -0.41436 1.87903 
9502 1 3.09325 4.50544 -1.77871 
18504 1 4.74839 -0.66431 -2.93937 
18503 3 -4.40036 -2.85117 -2.16961 
18502 1 2.4688 1.11045 1.86814 
9504 1 -0.151831 -6.25985 -2.60233 
21062 3 -2.30059 -0.381869 -0.202617 
21061 1 4.07696 -1.60823 5.18471 
7536 1 3.35994 -0.745638 -7.47691 
21063 1 2.60624 1.49201 2.95598 
12213 1 -5.87215 -3.45494 3.06375 
11601 1 -0.659298 2.21823 -2.02029 
11599 1 -1.99791 8.45698 4.17672 
11600 2 2.7699 1.62955 -1.88852 
3039 1 -3.84883 0.1875 -0.420695 
3038 2 -1.57388 5.45065 0.217964 
3037 1 9.3595 -2.33115 -0.534416 
12212 2 0.0518366 2.99331 1.67583 
12211 1 -2.56693 -1.90904 7.87499 
18514 1 0.16031 3.55993 -2.06057 
1208 2 -3.3007 -1.27786 -3.48208 
1209 1 0.847036 4.88603 3.51519 
1207 1 3.52022 -3.05564 3.70786 
2979 1 -6.83589 -1.54722 5.43 
2978 2 -4.63279 7.42084 5.32566 
1587 1 -1.22892 -1.45785 0.0302437 
1586 3 0.145068 -0.769653 0.822881 
2977 1 1.22724 -5.36828 0.128053 
1585 1 1.96593 -0.259001 -2.00689 
13164 1 -2.69154 1.76572 4.89625 
19249 1 0.21144 4.19006 4.9041 
19251 1 -3.02431 2.04013 -2.85258 
19250 2 -2.49105 0.66375 -0.593879 
6087 1 -1.99233 0.0359126 2.41708 
6085 1 4.18562 -2.93589 -1.37164 
18516 1 -0.795056 -0.50132 -4.19499 
6086 2 2.71036 2.09428 1.06086 
18515 3 3.29084 -1.92554 -3.16492 
4582 1 1.11835 -2.57366 -0.37582 
4584 1 -2.72468 -1.09228 1.04216 
6093 1 -1.52424 -1.25989 -1.24388 
6092 3 -2.86022 0.679064 -2.51473 
4583 2 0.656037 2.30876 0.763058 
5835 1 -2.14216 -0.995447 3.6996 
5834 2 0.39927 -0.121987 -3.57208 
5833 1 0.788451 -2.80168 1.42186 
21172 1 -0.141763 -5.44538 -0.374557 
15453 1 -1.73448 5.174 3.7067 
21173 3 1.01036 3.84895 1.59476 
21174 1 2.92986 -2.66405 -2.47003 
15452 2 -3.03241 0.447003 2.36683 
7931 2 5.23078 0.255594 0.858675 