ITEM: TIMESTEP
10000000
ITEM: NUMBER OF ATOMS
33
ITEM: BOX BOUNDS pp pp pp
0.0000000000000000e+00 5.0000000000000000e+01
0.0000000000000000e+00 5.0000000000000000e+01
0.0000000000000000e+00 5.0000000000000000e+01
ITEM: ATOMS id type vx vy vz 
17794 1 1.32658 2.22268 -2.61635 
17795 2 -1.30091 -3.31564 -3.49936 
5175 1 -6.19695 1.67222 -2.36397 
2121 1 5.24379 4.08121 6.50002 
20251 1 2.56908 -1.74566 4.02833 
17796 1 3.86512 -1.40434 -2.28786 
2119 1 4.70212 0.447084 -10.0533 
2120 2 -0.944598 -0.41457 3.76847 
10951 1 2.03196 0.669761 -5.27635 
10952 2 1.29483 1.10992 1.41891 
20252 2 -2.09342 1.74334 -1.10853 
20253 1 0.409296 3.74813 -3.26284 
20580 1 0.701702 -1.52976 0.849638 
21222 1 0.769989 3.31044 -1.36896 
20579 2 -4.21239 -1.85575 -1.92619 
20578 1 -2.29865 -3.59581 1.07751 
5174 2 -2.59262 -4.42053 -2.21983 
5173 1 -0.201968 1.15743 -2.87755 
3600 1 -2.87893 3.74293 2.29237 
3599 3 2.62735 -1.95499 -5.1412 
10953 1 1.83837 1.62121 -0.989079 
16836 1 3.53148 -5.48996 2.90775 
16835 2 -1.17105 -9.57679 -2.2539 
17643 1 -1.52963 4.16966 -0.469337 
16834 1 -0.407787 -5.99994 7.38708 
17642 2 4.37274 -2.9148 -0.659242 
3598 1 7.49666 3.07035 6.0978 
21221 2 -3.62203 0.866822 -2.38554 
21220 1 -0.382593 -0.128504 -3.29265 
17641 1 -4.67538 2.97215 -3.44196 
183 1 -1.68114 -0.614463 1.84951 
182 2 -4.39586 1.5809 1.80677 
181 1 0.171133 -5.49163 -1.42683 
