ITEM: TIMESTEP
0
ITEM: NUMBER OF ATOMS
33
ITEM: BOX BOUNDS pp pp pp
0.0000000000000000e+00 5.0000000000000000e+01
0.0000000000000000e+00 5.0000000000000000e+01
0.0000000000000000e+00 5.0000000000000000e+01
ITEM: ATOMS id type 
181 1 
182 2 
183 1 
3598 1 
3599 3 
3600 1 
2119 1 
2120 2 
2121 1 
5173 1 
5174 2 
5175 1 
10951 1 
10952 2 
10953 1 
17641 1 
17642 2 
17643 1 
17794 1 
17795 2 
17796 1 
20578 1 
20579 2 
20580 1 
16834 1 
16835 2 
16836 1 
20251 1 
20252 2 
20253 1 
21220 1 
21221 2 
21222 1 
