ITEM: TIMESTEP
10000000
ITEM: NUMBER OF ENTRIES
28
ITEM: BOX BOUNDS pp pp pp
0 50
0 50
0 50
ITEM: ENTRIES c_binfo[1] c_binfo[2] c_binfo[3] 
2 17794 17795 
2 17795 17796 
1 2121 20251 
2 20251 20252 
2 2119 2120 
1 2119 17796 
2 2120 2121 
2 10951 10952 
2 10952 10953 
2 20252 20253 
1 20253 20580 
2 20579 20580 
2 20578 20579 
2 5174 5175 
2 5173 5174 
1 5173 16836 
3 3599 3600 
2 16835 16836 
2 16834 16835 
1 16834 17643 
2 17642 17643 
3 3598 3599 
2 21221 21222 
2 21220 21221 
2 17641 17642 
1 183 17641 
2 182 183 
2 181 182 
