ITEM: TIMESTEP
10000000
ITEM: NUMBER OF ATOMS
21567
ITEM: BOX BOUNDS pp pp pp
0.0000000000000000e+00 5.0000000000000000e+01
0.0000000000000000e+00 5.0000000000000000e+01
0.0000000000000000e+00 5.0000000000000000e+01
ITEM: ATOMS id type xs ys zs
14035 1 0.085119 0.0220372 0.0142522
4455 1 0.0951148 0.0242899 0.0305279
18879 1 0.0834221 0.0207349 0.0162899
14036 3 0.0890712 0.0275107 0.00990557
18878 3 0.0777018 0.0176332 0.0210235
18877 1 0.0733741 0.0148687 0.0254448
4453 1 0.101879 0.0109078 0.0249632
4454 2 0.0986107 0.018272 0.0269429
20314 1 0.0553016 0.0583267 0.00344028
14037 1 0.0940871 0.0331107 0.00702444
12207 1 0.0956903 0.0356296 0.00593179
12206 3 0.0978005 0.0428344 0.00267645
12205 1 0.10104 0.0498071 0.00110618
2755 1 0.115153 0.036569 0.0065439
16335 1 0.00349052 0.0915791 0.00857638
20316 1 0.0418221 0.0661299 0.00475132
20315 3 0.0485825 0.0624803 0.00493474
4224 1 0.0795942 0.0734521 0.0278234
19581 1 0.0863873 0.0851616 0.0116767
7651 1 0.087343 0.0837603 0.00932142
19580 2 0.0844603 0.0888247 0.0179542
7652 2 0.0897374 0.0795375 0.00159106
17605 1 0.159018 0.0745477 0.0243265
16017 1 0.220271 0.0724687 0.0164081
16016 3 0.21372 0.070288 0.0223666
2593 1 0.206075 0.0687145 0.0297258
16015 1 0.208539 0.0688376 0.0277833
16333 1 0.0175291 0.100384 0.0063902
16334 3 0.0104285 0.0964187 0.00695783
19579 1 0.0809139 0.0924131 0.0244569
7428 1 0.0801006 0.0935069 0.0270943
10698 1 0.150696 0.10637 0.0114737
10697 3 0.14484 0.107635 0.0180086
10696 1 0.139539 0.107078 0.0238608
3985 1 0.177002 0.149823 0.0139533
2252 3 0.095629 0.158619 0.0300106
2251 1 0.100735 0.163785 0.026884
18800 3 0.159385 0.164898 0.0274907
18801 1 0.165852 0.161686 0.0227022
3987 1 0.168002 0.159805 0.0209659
3986 3 0.17272 0.15484 0.0178628
8832 1 0.203654 0.16419 0.0294866
8830 1 0.204939 0.160734 0.0135848
8831 3 0.20347 0.162377 0.0219151
1729 1 0.205703 0.160151 0.0110257
1730 3 0.207722 0.158552 0.00264475
4390 1 0.0963223 0.229118 0.0139922
4391 2 0.0914439 0.228666 0.0208766
4392 1 0.0879515 0.227767 0.0282364
258 1 0.141672 0.218909 0.00622803
14057 2 0.163986 0.216554 0.00205819
14056 1 0.170028 0.215912 0.0077734
5133 1 0.204354 0.275282 0.00186969
15411 1 0.253976 0.251011 0.00344995
3765 1 0.0299245 0.295213 0.0156832
3764 2 0.0379783 0.296785 0.01491
3763 1 0.0459597 0.299263 0.0125449
2451 1 0.244035 0.29851 0.0193045
2450 2 0.241116 0.290567 0.0189245
2449 1 0.235678 0.284399 0.0188603
4306 1 0.0092877 0.328973 0.0169408
8628 1 0.0242744 0.316528 0.00584558
4307 3 0.00815308 0.321148 0.0181551
4308 1 0.00607203 0.313678 0.0192859
18669 1 0.212748 0.334026 0.0290996
20466 1 0.0318135 0.356281 0.0166248
20464 1 0.0367504 0.342813 0.0177525
20465 3 0.0341468 0.349376 0.0187348
2868 1 0.153774 0.350964 0.0297511
4659 1 0.188914 0.346174 0.0156803
4658 2 0.187382 0.353264 0.019018
4657 1 0.185633 0.360494 0.0192861
5161 1 0.185653 0.363616 0.0193335
11898 1 0.0579924 0.393031 0.00715164
3076 1 0.0914587 0.37346 0.0145157
3078 1 0.0745888 0.374079 0.0182008
3077 2 0.0832541 0.374194 0.0159692
5163 1 0.184589 0.379349 0.0191658
5162 2 0.18562 0.37218 0.0179497
4335 1 0.201005 0.00370055 0.0428429
12515 3 0.175796 0.042025 0.038574
12514 1 0.177882 0.033892 0.0399028
12516 1 0.174231 0.0493662 0.037336
8172 1 0.00521694 0.0695452 0.0322086
8171 2 0.000848654 0.0651907 0.0383043
4222 1 0.0726946 0.0771067 0.0404377
4223 2 0.0776761 0.0741619 0.0348219
16039 1 0.123792 0.0743227 0.0603981
9601 1 0.121812 0.0733195 0.0592048
9603 1 0.109824 0.0644623 0.0534232
9602 3 0.116075 0.0689905 0.0558896
17606 3 0.162204 0.0718172 0.0327903
2595 1 0.191744 0.0691145 0.0385478
17607 1 0.163116 0.0721141 0.0398942
2594 3 0.198322 0.0676902 0.0342375
1928 2 0.0626023 0.11143 0.0441398
1929 1 0.0620937 0.110977 0.0365198
1927 1 0.0637823 0.112175 0.0521627
7427 2 0.0786387 0.0967975 0.0352227
7426 1 0.0776017 0.0979303 0.044218
18385 1 0.166366 0.0971844 0.053584
18386 3 0.167119 0.0940111 0.060996
2253 1 0.0888118 0.153993 0.031338
18799 1 0.153214 0.168367 0.0326479
5076 1 0.0395983 0.207016 0.0492618
5075 3 0.0358006 0.206611 0.055267
12405 1 0.127305 0.197941 0.0619099
12403 1 0.13984 0.198587 0.0520614
12404 3 0.133159 0.198086 0.0563386
4419 1 0.0251658 0.221797 0.0536443
4418 3 0.0190165 0.221522 0.0475254
4417 1 0.0136713 0.225559 0.0434713
3908 3 0.0475156 0.223196 0.0470193
3909 1 0.0444754 0.217362 0.0509449
3907 1 0.0508374 0.228024 0.0408509
14148 1 0.062255 0.226127 0.0409291
14147 3 0.0687187 0.224219 0.0466677
3216 1 0.0780882 0.222495 0.0530113
14146 1 0.0754856 0.223221 0.0515774
3215 3 0.085608 0.222682 0.0564607
3214 1 0.0937896 0.224112 0.0596036
6858 1 0.0963891 0.224811 0.0607023
20141 3 0.00242014 0.272394 0.0601592
11044 1 0.0961744 0.254025 0.0421827
11045 3 0.0891615 0.249939 0.042268
11046 1 0.0824396 0.246613 0.0423495
20245 1 0.0579747 0.296909 0.0573207
793 1 0.0664528 0.29139 0.0320758
795 1 0.0804794 0.294645 0.038388
794 2 0.0734771 0.292382 0.0354885
20247 1 0.0733683 0.288728 0.0558674
20246 2 0.0661167 0.292803 0.0560292
2794 1 0.19155 0.291071 0.0381136
2795 3 0.198024 0.295557 0.0391049
11832 1 0.222214 0.301706 0.0453761
2796 1 0.20429 0.297852 0.0411566
11831 3 0.214094 0.299268 0.0437729
11830 1 0.207105 0.29845 0.0419234
5854 1 0.141759 0.327775 0.053845
5855 2 0.147145 0.330546 0.0597945
18667 1 0.221784 0.324403 0.0388681
18668 3 0.216388 0.329143 0.0343087
17305 1 0.0859306 0.36226 0.0353094
17306 2 0.0785601 0.359692 0.0346905
17307 1 0.072019 0.358617 0.0335617
2867 3 0.160261 0.354796 0.0331873
2866 1 0.166268 0.360053 0.0345589
8995 1 0.21389 0.369213 0.0576148
9794 3 0.179723 0.0134727 0.0908242
3278 2 0.193154 0.0303683 0.0901381
9793 1 0.176455 0.0208202 0.091209
9795 1 0.182991 0.00594382 0.0919511
5639 2 0.219589 0.00846689 0.0832707
5640 1 0.214293 0.0146244 0.0847881
5638 1 0.226195 0.00389268 0.0838259
5510 3 0.258845 0.00161682 0.0822419
3277 1 0.198901 0.0334003 0.0846558
20202 1 0.24629 0.0593433 0.0786286
20201 2 0.243253 0.0593802 0.0870293
16040 3 0.129827 0.0788941 0.0636324
17654 3 0.144125 0.0904806 0.0661399
17653 1 0.138895 0.0849722 0.0653449
16041 1 0.136689 0.0833049 0.0649612
19090 1 0.171622 0.0882497 0.0697148
18387 1 0.170294 0.0901114 0.0672843
19091 3 0.174838 0.0839123 0.0743628
19092 1 0.176996 0.0771495 0.0786446
7562 2 0.186187 0.0679757 0.0831358
7563 1 0.182684 0.062076 0.0868095
7561 1 0.188964 0.0742593 0.0800891
18447 1 0.210923 0.0703863 0.0836915
18446 2 0.211967 0.0757732 0.088901
17527 1 0.124508 0.11614 0.0651211
10686 1 0.119143 0.108307 0.0895759
17655 1 0.150403 0.0953187 0.067741
17529 1 0.137776 0.111261 0.0677691
17528 3 0.13152 0.113674 0.0659831
6199 1 0.133538 0.119927 0.0800354
17947 1 0.227189 0.113365 0.07819
5016 1 0.220321 0.0982356 0.08283
5015 3 0.215749 0.10315 0.0877526
5014 1 0.210952 0.109997 0.0896853
17948 3 0.230901 0.110145 0.0720805
17949 1 0.234545 0.106682 0.0665463
1607 3 0.075259 0.130798 0.0800713
1606 1 0.0738004 0.137181 0.0846871
1608 1 0.0754263 0.124967 0.0745901
6200 3 0.13251 0.125248 0.0860426
5074 1 0.032433 0.206365 0.0627413
9030 1 0.121643 0.205564 0.0764222
9029 3 0.115187 0.205869 0.0723319
9028 1 0.107541 0.205552 0.0686046
16024 1 0.00950828 0.234691 0.0913681
16025 3 0.00533149 0.232591 0.0856085
16026 1 0.000677285 0.231258 0.0792005
709 1 0.0359173 0.243199 0.0874745
6856 1 0.112147 0.225366 0.0659008
6857 3 0.104405 0.225202 0.0638378
13214 3 0.0174057 0.266068 0.0707856
13213 1 0.0231194 0.26226 0.0747524
13215 1 0.0107212 0.269549 0.067196
20140 1 0.00860904 0.270161 0.065271
710 3 0.0388608 0.249639 0.0872343
711 1 0.0404097 0.258168 0.0879093
1825 1 0.0414905 0.26156 0.087404
1826 3 0.0423448 0.269655 0.0865284
8647 1 0.219836 0.25238 0.0623789
8648 2 0.225038 0.255262 0.067314
8649 1 0.230311 0.259795 0.0707138
1827 1 0.0444129 0.277392 0.0866172
5403 1 0.169136 0.280994 0.0692633
5402 2 0.175045 0.286239 0.0693118
5401 1 0.181601 0.291164 0.0667067
17916 1 0.12333 0.321305 0.0671985
17914 1 0.123954 0.317576 0.0816485
17915 2 0.124249 0.320569 0.0740956
5856 1 0.153798 0.333869 0.0641321
10716 1 0.159501 0.332101 0.0711105
13500 1 0.216182 0.326905 0.0827709
13499 3 0.2217 0.328744 0.0776269
13498 1 0.226473 0.329522 0.0707975
12611 3 0.241911 0.316925 0.0866221
5795 3 0.247936 0.33539 0.0888257
5796 1 0.24631 0.326859 0.0878767
12612 1 0.245172 0.324293 0.0872234
12610 1 0.239799 0.310125 0.0885787
11551 1 0.124058 0.349312 0.0847521
15171 1 0.12536 0.350961 0.0833344
11552 3 0.120354 0.344349 0.0889842
15170 3 0.129701 0.35612 0.0779964
10715 3 0.160878 0.338951 0.0738398
10714 1 0.160727 0.345798 0.0781779
15169 1 0.131431 0.362491 0.074081
15616 1 0.13172 0.364926 0.0718938
5021 2 0.159159 0.388721 0.0850897
15617 2 0.13306 0.372516 0.0675745
15618 1 0.135311 0.378672 0.0635342
5022 1 0.154565 0.387672 0.0784027
5020 1 0.163828 0.389326 0.0909047
8996 3 0.216954 0.370657 0.0661397
8997 1 0.220608 0.373899 0.073751
3279 1 0.187849 0.0279131 0.0946742
17917 1 0.0716728 0.0356421 0.0983061
17918 2 0.070707 0.0420655 0.101167
17919 1 0.0692327 0.0489354 0.105299
16291 1 0.0690327 0.051244 0.106998
16292 3 0.0676364 0.057553 0.11094
20200 1 0.241706 0.0576502 0.0934697
16293 1 0.0668645 0.0628348 0.117297
5351 3 0.0962935 0.0748522 0.121219
5352 1 0.0900731 0.0758346 0.115129
18445 1 0.210065 0.0813145 0.09395
15735 1 0.226305 0.0888314 0.115703
15734 3 0.234067 0.0876858 0.115284
15733 1 0.24275 0.0881261 0.114302
3967 1 0.24524 0.0878033 0.114147
3968 3 0.252974 0.0862777 0.113968
3969 1 0.259284 0.0831727 0.112948
6527 3 0.106265 0.119646 0.113525
10685 3 0.11882 0.103939 0.0969117
10684 1 0.120653 0.102027 0.103862
6526 1 0.105675 0.112152 0.116998
17426 3 0.237314 0.122015 0.123849
6528 1 0.105839 0.127253 0.11021
6201 1 0.134199 0.130242 0.0936411
17427 1 0.240975 0.125091 0.118213
6357 1 0.155792 0.181785 0.0933809
6356 2 0.152288 0.179061 0.100444
6355 1 0.149215 0.178322 0.10771
17080 1 0.226085 0.16515 0.114922
17082 1 0.210261 0.163056 0.117146
17081 3 0.217882 0.163792 0.115816
1913 3 0.118531 0.206151 0.102516
1912 1 0.112267 0.201044 0.104032
6850 1 0.127789 0.213422 0.102338
1914 1 0.12507 0.2116 0.103041
7865 3 0.016326 0.237205 0.100027
7864 1 0.0114247 0.235563 0.093605
7866 1 0.0219362 0.237964 0.104937
20352 1 0.024304 0.238105 0.106934
20351 3 0.0302207 0.237003 0.11283
20350 1 0.0380926 0.236793 0.11603
8467 1 0.139411 0.226531 0.100506
6851 3 0.133491 0.218021 0.102101
6852 1 0.137887 0.224179 0.101024
8468 3 0.143869 0.233519 0.100031
8469 1 0.148119 0.240234 0.100982
14999 2 0.209841 0.216033 0.120103
14998 1 0.212456 0.216041 0.113682
19767 1 0.00968115 0.276532 0.105962
19766 3 0.00224117 0.277807 0.106472
16905 1 0.0536693 0.285309 0.121874
11899 1 0.0718299 0.28953 0.123582
11900 2 0.0766826 0.29633 0.121323
11901 1 0.0812596 0.302073 0.117704
811 1 0.0275017 0.337702 0.102477
812 2 0.0320133 0.333197 0.107646
17079 1 0.0192167 0.334841 0.116116
17078 2 0.0138154 0.336156 0.121379
16078 1 0.0105936 0.312077 0.124115
16079 2 0.00484464 0.312964 0.119896
813 1 0.0360132 0.327969 0.112114
12981 1 0.0374789 0.325974 0.11371
12980 3 0.0440842 0.322815 0.11723
12979 1 0.0516646 0.32012 0.119687
14610 1 0.111313 0.331608 0.109515
14609 3 0.113911 0.334971 0.102528
14608 1 0.115991 0.339201 0.0964509
11553 1 0.117145 0.340655 0.0943546
5794 1 0.247242 0.342926 0.0936306
8969 3 0.0951967 0.387463 0.108123
8968 1 0.0926392 0.394786 0.108222
1633 1 0.0916965 0.397938 0.108415
8970 1 0.097814 0.380009 0.108038
6072 1 0.0559378 0.0016736 0.139058
6071 3 0.0611441 0.00555139 0.135451
6070 1 0.0654961 0.00964183 0.130412
10417 1 0.190195 0.0282975 0.142811
10418 2 0.183887 0.0304015 0.137861
10419 1 0.179039 0.0330123 0.132607
7952 3 0.109984 0.0717747 0.13513
7951 1 0.112351 0.0680485 0.140157
7953 1 0.104906 0.0738516 0.128887
5350 1 0.10241 0.0744478 0.126885
8341 1 0.224805 0.0815759 0.13902
8343 1 0.234404 0.0766605 0.149848
8342 3 0.228785 0.0787892 0.145346
16626 1 0.246054 0.0865994 0.154823
3524 3 0.223634 0.114584 0.135754
3525 1 0.219337 0.110869 0.141274
17425 1 0.231687 0.119315 0.129504
3523 1 0.22954 0.118105 0.131492
16625 2 0.247601 0.0931508 0.150919
16624 1 0.246733 0.100606 0.148532
18943 1 0.106702 0.14507 0.150736
18944 3 0.100635 0.148581 0.154283
17927 2 0.25543 0.129946 0.150771
6752 2 0.229921 0.153769 0.145601
6753 1 0.229059 0.146634 0.151454
17928 1 0.257627 0.130804 0.142868
20551 1 0.00960264 0.172441 0.154064
4101 1 0.0938381 0.176759 0.150897
6751 1 0.23177 0.160727 0.14173
11848 1 0.0567799 0.236794 0.145573
11849 3 0.0509804 0.235056 0.150144
15000 1 0.205437 0.219175 0.126114
4244 3 0.218419 0.233148 0.138382
4245 1 0.221199 0.228064 0.132222
4243 1 0.215639 0.237685 0.145227
15203 3 0.205556 0.243897 0.149891
15204 1 0.203537 0.243821 0.142006
20691 1 0.24061 0.240134 0.142306
20689 1 0.249699 0.231735 0.152609
20690 3 0.243623 0.235553 0.148179
5967 1 0.150286 0.251859 0.125945
5966 3 0.158326 0.251924 0.127173
5965 1 0.166754 0.252787 0.127185
17317 1 0.255243 0.255823 0.12653
17319 1 0.259415 0.271419 0.125188
17318 2 0.257463 0.264374 0.125945
16903 1 0.062459 0.297448 0.127297
16904 2 0.0574041 0.291251 0.125119
15103 1 0.0638068 0.299768 0.136096
15105 1 0.0723732 0.306778 0.14791
15104 3 0.0679035 0.302752 0.141283
17077 1 0.00900641 0.338117 0.127629
14171 2 0.260401 0.367755 0.14415
14170 1 0.258471 0.361772 0.148954
10137 1 0.257616 0.359875 0.15024
10136 2 0.254617 0.353754 0.153537
11644 1 0.192081 0.398784 0.154195
11687 3 0.207075 0.39619 0.126379
11686 1 0.211915 0.390066 0.125406
17758 1 0.138265 0.02879 0.163601
17659 1 0.205908 0.019112 0.17817
17661 1 0.220645 0.0173977 0.184308
17660 2 0.212933 0.0179725 0.181109
17760 1 0.142086 0.0437993 0.160997
17759 3 0.140828 0.0361424 0.162847
14708 2 0.0131865 0.115873 0.178858
14709 1 0.0196538 0.110551 0.180274
21268 1 0.0221229 0.108948 0.180931
21269 2 0.0285906 0.102833 0.182464
14707 1 0.00756423 0.120741 0.179613
21270 1 0.034846 0.0981338 0.182997
11037 1 0.103956 0.120508 0.174423
17289 1 0.251794 0.0931083 0.184789
17288 3 0.251161 0.0957649 0.176426
17287 1 0.252016 0.09838 0.169354
1999 1 0.0308184 0.131945 0.183806
10251 1 0.00432394 0.129663 0.185761
11035 1 0.0951432 0.136278 0.17791
18945 1 0.0934021 0.153429 0.15563
3041 3 0.0789685 0.15333 0.18527
11036 3 0.100001 0.128351 0.175904
17926 1 0.253137 0.128899 0.157898
20552 3 0.00369155 0.175787 0.158555
4099 1 0.0856236 0.166086 0.160038
6208 1 0.0832824 0.164245 0.161654
6209 3 0.0767685 0.161696 0.164309
6210 1 0.0699119 0.157752 0.166211
4100 3 0.0899174 0.169917 0.155576
3042 1 0.0745441 0.160109 0.182808
3272 2 0.113963 0.18357 0.168777
3271 1 0.112654 0.177339 0.164054
5739 1 0.225043 0.181132 0.170582
5738 3 0.232011 0.184371 0.169411
5139 1 0.0306271 0.210762 0.182527
3241 1 0.0610268 0.190894 0.165946
3242 2 0.0640701 0.194725 0.172648
3243 1 0.0673602 0.197149 0.178641
3273 1 0.115558 0.189937 0.173553
16239 1 0.2424 0.186772 0.165568
5737 1 0.239634 0.186459 0.166818
16238 2 0.248875 0.188141 0.162421
16237 1 0.256121 0.192108 0.160875
5138 3 0.0281053 0.217448 0.185547
19143 1 0.0332876 0.221052 0.165666
19142 2 0.0377413 0.226025 0.162439
11850 1 0.0455423 0.231865 0.155582
19141 1 0.0439573 0.23053 0.157532
10403 2 0.120301 0.244948 0.175407
10404 1 0.124873 0.242586 0.170902
15202 1 0.20782 0.243083 0.15739
19888 1 0.0260577 0.276218 0.176539
10402 1 0.114544 0.247252 0.18015
19890 1 0.0251938 0.290077 0.171289
19889 3 0.0257218 0.28282 0.174249
21579 1 0.0606663 0.305467 0.171023
809 3 0.0551024 0.300385 0.162814
810 1 0.0590782 0.303419 0.169051
808 1 0.0516216 0.298322 0.155497
21578 3 0.0639319 0.311726 0.176125
21424 1 0.0754891 0.335345 0.186243
21426 1 0.0670506 0.321028 0.181081
21577 1 0.0659 0.318602 0.179819
21425 3 0.0697708 0.328217 0.184275
7683 1 0.12989 0.334197 0.161735
7682 3 0.134409 0.328658 0.159608
7681 1 0.139464 0.322161 0.155612
8298 1 0.249686 0.335366 0.181947
2913 1 0.250065 0.333587 0.184545
7215 1 0.00303576 0.342505 0.173282
13176 1 0.0419922 0.351606 0.179194
13174 1 0.0335345 0.363957 0.175691
13175 2 0.0378587 0.358852 0.176949
10893 1 0.208453 0.348687 0.162608
14658 1 0.205104 0.367147 0.16135
10891 1 0.205875 0.364503 0.161607
10892 2 0.208202 0.356367 0.163049
20294 3 0.255849 0.361031 0.183131
20295 1 0.25278 0.364885 0.176375
3352 1 0.251615 0.366367 0.173957
10135 1 0.251312 0.346762 0.157167
8297 2 0.248251 0.34065 0.174239
8296 1 0.247092 0.343312 0.166843
5181 1 0.121262 0.378507 0.180672
11645 2 0.194242 0.391816 0.158221
13219 1 0.218246 0.397677 0.173119
11646 1 0.19762 0.385018 0.160331
14657 2 0.202565 0.375143 0.161295
14656 1 0.198951 0.382388 0.160962
10779 1 0.225939 0.381544 0.157512
13220 2 0.215135 0.397113 0.180887
10778 3 0.233138 0.380392 0.160871
3353 3 0.247351 0.369995 0.169078
10777 1 0.238965 0.375958 0.164332
3354 1 0.240631 0.374201 0.16616
2752 1 0.114608 0.0296131 0.193604
21536 2 0.145456 0.0080701 0.209389
21535 1 0.140949 0.0096422 0.202718
21537 1 0.148331 0.00415026 0.215846
2753 2 0.116749 0.0363453 0.193509
2754 1 0.120604 0.0440401 0.192137
2062 1 0.193875 0.0418622 0.195121
2064 1 0.19355 0.0372457 0.211616
2063 2 0.193414 0.0400301 0.203759
1496 2 0.170473 0.0552355 0.214506
1495 1 0.177412 0.0565312 0.210035
17337 1 0.00525244 0.075512 0.211623
4747 1 0.22941 0.0674322 0.214454
7512 1 0.0366403 0.0928168 0.207726
7511 2 0.0403636 0.0948065 0.214102
15864 1 0.124993 0.105005 0.197744
15863 3 0.1326 0.108258 0.196725
15862 1 0.139417 0.112482 0.1934
2001 1 0.0273884 0.141635 0.195932
2000 2 0.028941 0.136373 0.190058
10250 2 0.000731935 0.134213 0.191077
20657 3 0.043823 0.152046 0.217273
7430 3 0.0896001 0.139752 0.191078
3040 1 0.0829159 0.146733 0.187053
7431 1 0.084843 0.144688 0.188138
8950 1 0.0812689 0.137479 0.204032
7429 1 0.0925306 0.133128 0.19466
8951 3 0.0753302 0.134305 0.210404
12694 1 0.158451 0.143761 0.199448
12696 1 0.174875 0.145584 0.19609
12695 3 0.167047 0.143437 0.198222
2841 1 0.0197615 0.178906 0.202759
2840 2 0.0225348 0.179089 0.210718
20656 1 0.0455418 0.158112 0.211527
5978 3 0.160899 0.176545 0.2123
5979 1 0.154677 0.170377 0.209745
5977 1 0.166399 0.182607 0.212659
3425 3 0.0208538 0.231776 0.193201
3424 1 0.023344 0.226451 0.189142
5137 1 0.0248996 0.223889 0.187658
3426 1 0.018118 0.236784 0.197932
11506 1 0.0842806 0.233356 0.203562
11507 2 0.0791134 0.230314 0.209383
11508 1 0.0752631 0.225521 0.214523
2124 1 0.073995 0.223527 0.21621
19435 1 0.106658 0.230368 0.211943
12470 3 0.000993471 0.26372 0.193967
12469 1 0.00484142 0.256799 0.197927
13260 1 0.0735298 0.268862 0.194156
13259 3 0.0776334 0.273563 0.19848
10389 1 0.216062 0.260791 0.191765
10388 2 0.224349 0.26173 0.190641
425 3 0.22245 0.272751 0.210157
424 1 0.219919 0.264774 0.209842
10387 1 0.231241 0.264489 0.191734
13258 1 0.0817999 0.277455 0.202579
18103 1 0.182653 0.297556 0.196882
18104 3 0.17775 0.30276 0.19555
426 1 0.225052 0.28007 0.209461
17489 2 0.234732 0.289753 0.207341
17490 1 0.238331 0.296867 0.208683
17488 1 0.232911 0.282934 0.205943
18105 1 0.171773 0.30861 0.194726
2911 1 0.25445 0.328491 0.199006
2912 2 0.251608 0.330118 0.19147
16955 3 0.00753135 0.354615 0.196146
16954 1 0.0121535 0.361495 0.19345
16956 1 0.00363155 0.35068 0.201236
7003 1 0.0572016 0.365798 0.215409
5179 1 0.128256 0.3683 0.192416
8353 1 0.215817 0.361652 0.19182
8354 3 0.221198 0.362943 0.197702
8355 1 0.225561 0.367237 0.201181
20293 1 0.259817 0.357931 0.189838
19811 2 0.0265133 0.381774 0.207547
19812 1 0.0180969 0.380082 0.206099
7004 2 0.0645462 0.369536 0.213852
19810 1 0.0340381 0.383796 0.21029
7005 1 0.0710124 0.373622 0.211646
5180 2 0.124661 0.373707 0.1871
7196 3 0.108925 0.396679 0.199276
7197 1 0.103374 0.393294 0.202541
12288 1 0.14907 0.379864 0.212624
12287 3 0.157655 0.380554 0.212023
12286 1 0.165534 0.380846 0.210908
5534 3 0.213059 0.397843 0.198735
5535 1 0.209706 0.398935 0.205681
5533 1 0.213924 0.396297 0.191236
13221 1 0.213978 0.396528 0.188052
406 1 0.0271629 0.059907 0.230958
4270 1 0.0303099 0.0598964 0.230933
4271 3 0.0390171 0.058468 0.231703
4272 1 0.0467777 0.0593347 0.231997
11328 1 0.191671 0.0540356 0.239159
21 1 0.194171 0.0527085 0.241311
11327 2 0.18599 0.0569095 0.234591
1497 1 0.16436 0.0526572 0.218888
11326 1 0.181218 0.0590061 0.227545
20 3 0.200425 0.0484349 0.245827
19 1 0.204456 0.0429677 0.248431
4749 1 0.235996 0.0613866 0.226462
17336 2 0.00702778 0.0712371 0.217993
408 1 0.0131998 0.0660304 0.225028
17335 1 0.0111866 0.0673908 0.222887
407 3 0.0194542 0.0623107 0.228356
8433 1 0.199678 0.0709746 0.223077
8432 3 0.204904 0.0677883 0.229958
8431 1 0.208816 0.0654931 0.237561
4748 3 0.232363 0.0636828 0.219707
7510 1 0.0432874 0.0986656 0.220953
20194 1 0.189246 0.104411 0.241073
20196 1 0.203255 0.100467 0.247256
20195 2 0.196223 0.101951 0.244797
12871 1 0.00900329 0.144432 0.221462
12872 3 0.0149813 0.149181 0.224213
20658 1 0.0403623 0.148403 0.224199
3236 3 0.0954156 0.152181 0.223775
8952 1 0.070859 0.13141 0.218038
20582 3 0.123787 0.132482 0.223121
20581 1 0.124861 0.138773 0.229399
3235 1 0.102883 0.150464 0.225219
20583 1 0.124689 0.125317 0.219418
2839 1 0.0248295 0.176412 0.21766
12873 1 0.0200365 0.155035 0.226258
3237 1 0.0873702 0.154117 0.2237
8365 1 0.0254026 0.206856 0.244261
8366 2 0.0207734 0.213361 0.242058
2122 1 0.0639477 0.213579 0.222342
3337 1 0.0732877 0.185793 0.242247
17075 2 0.178571 0.212964 0.227016
17076 1 0.18091 0.205145 0.229525
8367 1 0.0160691 0.219333 0.238043
2123 2 0.0691789 0.218203 0.219604
11437 1 0.0675952 0.242221 0.243945
11438 3 0.0746622 0.241819 0.239599
11439 1 0.0795207 0.243302 0.233336
19437 1 0.104262 0.239444 0.224338
19436 3 0.106104 0.235266 0.218457
17074 1 0.175577 0.218504 0.221737
7074 1 0.173843 0.225304 0.240019
7073 2 0.17395 0.221517 0.246489
20349 1 0.0652509 0.306953 0.248387
21196 1 0.10177 0.281552 0.247426
21197 3 0.107627 0.286853 0.248387
19180 1 0.205808 0.33229 0.234068
19181 2 0.204515 0.324377 0.232708
19182 1 0.203817 0.316934 0.229558
9492 1 0.221639 0.352103 0.245898
9491 2 0.223797 0.357157 0.239846
615 1 0.226134 0.362767 0.230083
9490 1 0.225159 0.360896 0.23239
614 2 0.230489 0.367791 0.225714
3389 3 0.0799683 0.389309 0.242096
14848 1 0.0887749 0.392809 0.236873
3388 1 0.0720241 0.386336 0.24368
3390 1 0.0860035 0.391594 0.238389
14849 3 0.095737 0.396223 0.233882
14850 1 0.102569 0.397824 0.228582
613 1 0.234895 0.372458 0.220188
6105 1 0.0818002 0.0152113 0.263284
6103 1 0.0849488 0.00818462 0.276533
6104 2 0.0829765 0.0112652 0.269754
3478 1 0.0991636 0.00205499 0.264089
17113 1 0.104864 0.0208877 0.259139
13940 2 0.102271 0.011552 0.263765
17114 2 0.106038 0.0283385 0.256568
13939 1 0.103769 0.0183604 0.260381
13941 1 0.0999613 0.00495831 0.264006
8638 1 0.191369 0.0298556 0.249875
13832 3 0.175342 0.02682 0.275919
13831 1 0.167566 0.0278885 0.275014
13833 1 0.183137 0.0245891 0.277191
3922 1 0.215018 0.0098468 0.264328
3924 1 0.209493 0.0234009 0.256536
8086 1 0.20883 0.0254759 0.255212
3923 2 0.211616 0.0168935 0.260447
12345 1 0.00706444 0.0327729 0.257161
12344 3 0.000919425 0.0332535 0.25317
17115 1 0.10497 0.0359712 0.25365
8639 3 0.185026 0.0327905 0.254552
8640 1 0.182062 0.0368607 0.261588
8087 2 0.207472 0.0324349 0.251869
8088 1 0.205325 0.040138 0.249111
10146 1 0.215535 0.0513506 0.267249
10145 2 0.216585 0.0464192 0.274192
9708 1 0.240254 0.0714851 0.255365
9707 3 0.23673 0.0722242 0.261876
9706 1 0.234239 0.0721794 0.26958
1748 3 0.0310678 0.108607 0.252315
1749 1 0.0280823 0.102136 0.25167
5611 1 0.0186991 0.114734 0.277
5612 3 0.0159258 0.116031 0.269267
5613 1 0.0142268 0.117917 0.261388
1747 1 0.034021 0.11544 0.254565
16505 2 0.145257 0.17999 0.265694
16504 1 0.137189 0.179008 0.264904
16506 1 0.153598 0.179413 0.266007
695 3 0.0619422 0.192997 0.267333
696 1 0.057785 0.194795 0.274
3338 3 0.0695481 0.188114 0.249981
3339 1 0.0661689 0.190655 0.258276
694 1 0.0655 0.19103 0.261122
7072 1 0.174731 0.218559 0.253577
19202 3 0.254316 0.2257 0.275281
19203 1 0.250501 0.22215 0.268833
9984 1 0.0395204 0.251384 0.255263
9983 2 0.0450317 0.25552 0.256937
9982 1 0.0515566 0.259428 0.258464
20348 2 0.0573506 0.304623 0.249992
20347 1 0.0494837 0.303383 0.250071
21198 1 0.11535 0.29164 0.248778
1845 1 0.153066 0.390315 0.263025
1844 3 0.154132 0.397864 0.263809
20338 1 0.186958 0.0379105 0.291733
20339 3 0.193875 0.0376179 0.293428
20340 1 0.20031 0.0359409 0.297835
10144 1 0.21762 0.044118 0.280862
12464 3 0.0121616 0.120663 0.300336
12465 1 0.0190794 0.120573 0.296121
12463 1 0.0031803 0.12202 0.301686
20777 2 0.0992516 0.151949 0.303896
20776 1 0.098557 0.1484 0.296775
7267 1 0.155713 0.148541 0.297518
7268 2 0.157869 0.14513 0.304231
15925 1 0.155434 0.150653 0.294318
18212 2 0.044136 0.165288 0.295044
18213 1 0.0400989 0.162373 0.30114
9714 1 0.0381789 0.160465 0.304132
9713 3 0.0338375 0.157662 0.309646
18211 1 0.0481024 0.166493 0.288758
15927 1 0.154152 0.159368 0.281899
15926 3 0.155893 0.154892 0.288175
5426 3 0.169365 0.172749 0.299075
5425 1 0.163455 0.167481 0.300088
5427 1 0.175931 0.177644 0.296867
10257 1 0.0841001 0.215377 0.303561
7340 3 0.161449 0.203388 0.306399
141 1 0.164789 0.206871 0.297608
7339 1 0.163917 0.205776 0.300147
140 3 0.168551 0.209665 0.290065
139 1 0.169655 0.212454 0.282948
19480 1 0.222786 0.209802 0.304391
18939 1 0.25756 0.205364 0.309752
10256 3 0.0860334 0.22068 0.309536
20704 1 0.138033 0.215575 0.30825
6441 1 0.175359 0.226444 0.292319
6440 2 0.178416 0.234184 0.292121
6439 1 0.181167 0.242184 0.289639
252 1 0.233768 0.237135 0.308596
251 3 0.22834 0.243076 0.307078
19201 1 0.258777 0.227778 0.28106
250 1 0.222051 0.247946 0.306785
12136 1 0.254912 0.263254 0.302449
9043 1 0.207152 0.286865 0.302385
9044 2 0.208507 0.295032 0.303156
9045 1 0.21061 0.301757 0.301948
7413 1 0.242906 0.369013 0.281561
7412 2 0.238483 0.362839 0.284209
7411 1 0.234987 0.358086 0.289821
18864 1 0.038606 0.393001 0.29175
18862 1 0.0487248 0.38313 0.294239
18863 2 0.0427901 0.387613 0.292044
18726 1 0.128986 0.399911 0.296407
15447 1 0.22087 0.396778 0.289005
11173 1 0.24663 0.394939 0.307671
2740 1 0.0973114 0.0167441 0.331595
17104 1 0.107976 0.000623332 0.335338
2741 3 0.10193 0.0106121 0.334149
2742 1 0.106598 0.00355913 0.335223
17671 1 0.198836 0.0103466 0.314039
17672 2 0.204623 0.00444719 0.314563
17673 1 0.21197 0.000168109 0.315471
19359 1 0.0916925 0.0313535 0.338195
17966 3 0.0652232 0.0316299 0.337091
17967 1 0.0657863 0.0323509 0.329529
9307 1 0.147578 0.0565421 0.331195
9308 3 0.143067 0.0606201 0.326419
6187 1 0.0284158 0.0896877 0.337925
6188 3 0.0370378 0.089741 0.338937
6189 1 0.0453779 0.0887166 0.341644
9309 1 0.141152 0.0649377 0.320062
19734 1 0.15688 0.117023 0.333122
19732 1 0.172921 0.1141 0.336009
19733 2 0.164648 0.115051 0.334938
9712 1 0.0298075 0.152731 0.314737
15025 1 0.00427834 0.12667 0.338399
7269 1 0.160336 0.144121 0.311715
11284 1 0.142912 0.148598 0.34171
6678 1 0.161393 0.143825 0.314181
6676 1 0.16644 0.140205 0.327251
6677 2 0.163429 0.141853 0.320786
20778 1 0.0993104 0.155323 0.310983
14369 2 0.0500489 0.192877 0.334688
14370 1 0.0475775 0.193348 0.326698
13765 1 0.147202 0.203116 0.329614
13766 3 0.151452 0.20269 0.321269
7341 1 0.157614 0.202127 0.31213
13767 1 0.155536 0.201972 0.314675
19482 1 0.220647 0.207813 0.321827
19481 3 0.222437 0.209089 0.313164
10255 1 0.0889702 0.2275 0.313639
20705 3 0.134704 0.219157 0.313996
20706 1 0.131086 0.220539 0.320687
14087 2 0.190482 0.359495 0.317663
14086 1 0.183375 0.360335 0.313597
14088 1 0.197767 0.357739 0.322186
9049 1 0.200335 0.356879 0.32361
9050 2 0.205819 0.354335 0.327779
9051 1 0.211974 0.352733 0.331826
13162 1 0.214306 0.352019 0.333151
13163 2 0.220025 0.350208 0.338426
16851 1 0.0683157 0.382067 0.318757
16850 2 0.0702695 0.376363 0.323548
16849 1 0.0718682 0.369681 0.328431
618 1 0.175803 0.394736 0.320473
617 3 0.180677 0.39822 0.315333
12573 1 0.209112 0.372163 0.336894
12572 2 0.2104 0.379652 0.335311
12571 1 0.213418 0.387139 0.334516
11175 1 0.255046 0.397687 0.320483
11174 2 0.249329 0.395545 0.314401
15778 1 0.257113 0.399156 0.323055
19358 3 0.0894924 0.0277388 0.345043
19357 1 0.0859102 0.0249466 0.351947
962 3 0.0689183 0.0290794 0.355639
17965 1 0.066883 0.0307671 0.345216
963 1 0.0673441 0.0305194 0.348133
961 1 0.0712547 0.0272364 0.363371
6091 1 0.072171 0.0261732 0.366545
15433 1 0.116174 0.00689172 0.354576
15434 3 0.109872 0.0103138 0.358887
15435 1 0.102966 0.011122 0.362517
506 3 0.158285 0.00316441 0.344925
507 1 0.157935 0.0104628 0.350014
14799 1 0.201757 0.000244111 0.343719
15451 1 0.144203 0.0661753 0.371717
9168 1 0.24734 0.0745571 0.364206
9167 2 0.23994 0.0756579 0.364158
9166 1 0.233074 0.0761386 0.364818
20235 1 0.0703021 0.145636 0.359262
20234 3 0.075311 0.145506 0.352641
20233 1 0.0790011 0.144159 0.346598
11285 3 0.13987 0.141934 0.345067
11286 1 0.135773 0.136305 0.34959
14368 1 0.0509461 0.193655 0.342527
9503 2 0.258958 0.215397 0.35316
9502 1 0.258355 0.206931 0.352757
18504 1 0.0473556 0.234214 0.359342
18503 3 0.0405707 0.236692 0.354882
18502 1 0.033727 0.237581 0.350819
9504 1 0.258414 0.222919 0.35231
21062 3 0.00623163 0.270405 0.351648
21061 1 0.00647668 0.262894 0.347363
7536 1 0.0340721 0.252553 0.370319
21063 1 0.00537546 0.277557 0.35472
12213 1 0.140059 0.304529 0.353056
11601 1 0.153048 0.28216 0.360669
11599 1 0.147294 0.296367 0.357057
11600 2 0.151173 0.290105 0.35903
3039 1 0.0518633 0.336323 0.348298
3038 2 0.0557358 0.337563 0.355626
3037 1 0.0586551 0.336574 0.363229
12212 2 0.144409 0.310053 0.350051
12211 1 0.150179 0.315702 0.347816
18514 1 0.259715 0.334495 0.350479
1208 2 0.152737 0.347554 0.355292
1209 1 0.160069 0.34559 0.351718
1207 1 0.145554 0.346178 0.358973
2979 1 0.154976 0.358692 0.371814
2978 2 0.162743 0.357537 0.371666
1587 1 0.187363 0.34986 0.363752
1586 3 0.17937 0.351267 0.366742
2977 1 0.169914 0.356125 0.369717
1585 1 0.172209 0.355316 0.368964
13164 1 0.22564 0.348809 0.342882
19249 1 0.225886 0.351325 0.361547
19251 1 0.212462 0.351484 0.369516
19250 2 0.219129 0.351262 0.364753