LAMMPS data file via write_data, version 7 Aug 2019, timestep = 20000000

33 atoms
3 atom types
28 bonds
3 bond types
23 angles
3 angle types

0.0000000000000000e+00 5.0000000000000000e+01 xlo xhi
0.0000000000000000e+00 5.0000000000000000e+01 ylo yhi
0.0000000000000000e+00 5.0000000000000000e+01 zlo zhi

Masses

1 0.25
2 0.5
3 0.5

Bond Coeffs # harmonic

1 6000 0.15
2 2000 0.4
3 2000 0.4

Angle Coeffs # harmonic

1 100 180
2 50 180
3 50 180

Atoms # angle

10951 1 1 1.5025172267929161e+01 3.7380108666650933e+01 1.6320241665517205e+01
10952 2 2 1.5207722273120513e+01 3.7131962173164105e+01 1.6520031759178845e+01
10953 1 1 1.5397915090366313e+01 3.6870177088693971e+01 1.6778821057530841e+01
181 1 1 1.2786135462146971e+01 4.2159164389942397e+01 1.5695598293834625e+01
16834 1 1 1.2025148539746965e+01 4.3614807929030604e+01 1.6780318225142956e+01
17643 1 1 1.2054511073525273e+01 4.3474881852488807e+01 1.6704757068839019e+01
182 2 2 1.2665382765609918e+01 4.2406254288933994e+01 1.5972720899474636e+01
183 1 1 1.2489281169604096e+01 4.2683984286027538e+01 1.6202873249293887e+01
17642 2 2 1.2225562364446207e+01 4.3078108128889916e+01 1.6494039198401559e+01
17641 1 1 1.2429425529825830e+01 4.2794438997801073e+01 1.6274426974123152e+01
16835 2 2 1.1870738717724041e+01 4.3885812008480976e+01 1.7045144395122495e+01
16836 1 1 1.1760445118749418e+01 4.4196052753541039e+01 1.7332495481978039e+01
5173 1 1 1.1694251465271085e+01 4.4340046162920324e+01 1.7429523597307579e+01
5174 2 2 1.1534762535793519e+01 4.4682231237497938e+01 1.7663760066316236e+01
5175 1 1 1.1379745785668277e+01 4.4866108282804397e+01 1.7950439077982537e+01
3598 1 1 3.9009645360011646e+01 3.6337329154350655e+01 7.1589780975905093e+00
3599 3 3 3.8968522631281850e+01 3.6086598267596088e+01 7.5096487019892235e+00
3600 1 1 3.8913184194553985e+01 3.5961750151245766e+01 7.8661384226804856e+00
20579 2 2 2.9992395603921516e+00 3.0473939667927436e+01 2.7819156904280646e+01
20578 1 1 2.9087514806231809e+00 3.0297620001498572e+01 2.7450749190846548e+01
20580 1 1 3.2010417776922746e+00 3.0664079116667821e+01 2.8058562899446891e+01
20253 1 1 3.2807595569532624e+00 3.0730630956062043e+01 2.8165551407044859e+01
20252 2 2 3.5371608016120515e+00 3.0902947013876300e+01 2.8441047122723312e+01
2119 1 1 4.4964365485805855e+00 3.1196152861031177e+01 2.9320034278873639e+01
2120 2 2 4.2187359782042568e+00 3.1113115576122702e+01 2.9075620940837808e+01
20251 1 1 3.7915708366460645e+00 3.1000895143888076e+01 2.8749277928986405e+01
2121 1 1 3.9154565917376924e+00 3.1040833312290751e+01 2.8852746074239896e+01
17796 1 1 4.5977966803818235e+00 3.1202068161723599e+01 2.9457807697318959e+01
17795 2 2 4.8139612552161877e+00 3.1195499433944079e+01 2.9770068251602527e+01
17794 1 1 5.1728338919697521e+00 3.1072382619947032e+01 2.9989011037422561e+01
21220 1 1 3.8498939926834062e+01 6.1356002179211000e+00 4.9336335339819634e+01
21222 1 1 3.7991567426530580e+01 6.4712168649522281e+00 4.8839974349476357e+01
21221 2 2 3.8220060367182676e+01 6.2998208382856147e+00 4.9078999877589709e+01

Velocities

10951 -3.6815073564616796e+00 5.0586780229873902e+00 4.8273491929869374e+00
10952 -1.5717528268599348e+00 -4.5934507304405531e-01 4.4096108964978660e+00
10953 1.0948843310978268e-01 -4.8805039545149569e+00 3.5913734511477444e+00
181 5.1317362847961840e+00 -8.6987416719857595e+00 -5.9478629086418850e+00
16834 1.1435761524139396e+00 -6.5833937627078001e+00 2.1839975877659423e-01
17643 -3.2430119285878942e+00 -2.9747980679080017e+00 -1.6549188668095223e+00
182 -7.1229750657554070e-01 1.1779340314809765e+00 -3.8393245710914414e-01
183 -8.9101030037375439e-01 -1.2085061416359659e+00 1.2753407849913767e-01
17642 -1.9528092980740810e+00 4.8345715235939235e-01 2.3162159249500629e+00
17641 -2.2345599543481769e+00 -2.3835314759724073e+00 -3.4407453618987800e+00
16835 2.2100156943574514e+00 -1.2091817655131800e+00 -2.4078697161434222e+00
16836 1.7788147300332773e+00 -3.6146953756628797e+00 -3.9749452004616845e+00
5173 1.2432003336553905e+00 -5.3707669349152800e+00 8.2918174350403151e-01
5174 -3.6356182342846064e+00 -1.5660870173524664e+00 1.3262021360271041e+00
5175 1.6166529523990789e+00 2.8428698154833181e+00 -2.1237225184376283e+00
3598 3.9144629253927103e+00 6.0816664712691386e+00 -5.5560646490959864e-01
3599 1.0681026759975063e+00 1.2776822702857584e+00 4.8961521285685999e-01
3600 -5.6412212102389985e+00 -4.1796561498267728e+00 3.7371239472972344e+00
20579 2.0031129253558428e+00 2.9437034318718416e+00 -5.4595409336857514e-01
20578 1.1412508371606291e+00 8.6689689886049348e-01 1.8678881164656995e+00
20580 -6.4558131032087669e+00 3.5292707540624648e+00 9.5670761736566967e-01
20253 2.0431650986773386e-01 1.5165033222188551e+00 -6.2992214387300134e+00
20252 1.3544998646427786e+00 -7.2909988253568203e-02 -1.6210981121953767e+00
2119 2.7260450398140423e-01 -1.3849612989550439e+00 1.9034668452006920e+00
2120 -2.7064507168569545e+00 -4.5339887087751135e-02 -1.7632437501951892e+00
20251 3.2052832880756381e+00 -6.2924199376295782e+00 -4.9799985172058028e+00
2121 2.1215268786637203e+00 -2.4343799355672280e+00 1.6252423053395042e+00
17796 -8.6761000497697296e+00 8.8544609332162771e+00 -1.5915400266168300e+00
17795 -5.1937557960728924e+00 1.6626372051815590e+00 2.4426828313426268e+00
17794 5.9323188144026229e-01 1.0378436235765613e+00 -8.1862277654956084e-01
21220 -9.9662659100315643e-01 -2.7639205801907893e+00 1.7843314067267133e+00
21222 -3.6910199530935310e+00 -4.1181242254169597e+00 3.0162961211603792e+00
21221 -7.8507619010943119e-01 1.3320189946323930e+00 3.5609475592215034e+00

Bonds

5307 2 10951 10952
5308 2 10952 10953
5397 2 181 182
5440 2 16834 16835
5441 1 16834 17643
5443 2 182 183
5444 1 183 17641
5445 2 17642 17643
5446 2 17641 17642
5697 2 16835 16836
5699 2 5173 5174
5700 1 5173 16836
5703 2 5174 5175
7486 3 3598 3599
7488 3 3599 3600
9711 2 20579 20580
9712 2 20578 20579
11532 1 20253 20580
11533 2 20252 20253
11534 2 2119 2120
11535 1 2119 17796
11536 2 2120 2121
11537 2 20251 20252
11538 1 2121 20251
11697 2 17795 17796
11698 2 17794 17795
15680 2 21220 21221
15691 2 21221 21222

Angles

4037 2 10951 10952 10953
4151 1 16835 16834 17643
4152 1 17642 17643 16834
4153 2 181 182 183
4154 1 182 183 17641
4155 2 17641 17642 17643
4156 1 17642 17641 183
4369 2 16834 16835 16836
4370 1 16835 16836 5173
4372 1 5174 5173 16836
4374 2 5173 5174 5175
5744 3 3598 3599 3600
7436 2 20578 20579 20580
8807 1 20579 20580 20253
8808 1 20252 20253 20580
8809 2 20251 20252 20253
8810 1 2120 2119 17796
8811 2 2119 2120 2121
8812 1 20252 20251 2121
8813 1 2120 2121 20251
8931 1 17795 17796 2119
8943 2 17794 17795 17796
12025 2 21220 21221 21222
