ITEM: TIMESTEP
10000000
ITEM: NUMBER OF ENTRIES
16068
ITEM: BOX BOUNDS pp pp pp
0 50
0 50
0 50
ITEM: ENTRIES c_binfo[1] c_binfo[2] c_binfo[3] 
3 14035 14036 
1 14035 18879 
3 14036 14037 
3 18878 18879 
3 18877 18878 
2 4453 4454 
2 4454 4455 
3 20314 20315 
1 12207 14037 
3 12206 12207 
3 12205 12206 
3 2755 2756 
3 20315 20316 
2 7651 7652 
1 7651 19581 
2 19580 19581 
2 7652 7653 
3 17605 17606 
3 16016 16017 
3 2593 2594 
1 2593 16015 
3 16015 16016 
3 16333 16334 
3 16334 16335 
2 19579 19580 
1 7428 19579 
3 10697 10698 
3 10696 10697 
3 3985 3986 
3 2252 2253 
3 2251 2252 
3 18800 18801 
1 3987 18801 
3 3986 3987 
3 8830 8831 
3 8831 8832 
3 1729 1730 
1 1729 8830 
3 1730 1731 
2 4390 4391 
2 4391 4392 
2 14057 14058 
2 14056 14057 
2 3764 3765 
2 3763 3764 
2 2450 2451 
2 2449 2450 
3 4306 4307 
3 4307 4308 
3 20464 20465 
3 20465 20466 
2 4658 4659 
2 4657 4658 
1 4657 5161 
2 5161 5162 
2 3076 3077 
2 3077 3078 
2 5162 5163 
3 12515 12516 
3 12514 12515 
2 8171 8172 
2 4222 4223 
2 4223 4224 
3 16039 16040 
3 9601 9602 
1 9601 16039 
3 9602 9603 
3 17606 17607 
3 2594 2595 
2 1928 1929 
2 1927 1928 
2 7427 7428 
2 7426 7427 
3 18385 18386 
3 18386 18387 
3 18799 18800 
3 5075 5076 
3 12403 12404 
3 12404 12405 
3 4418 4419 
3 4417 4418 
3 3908 3909 
3 3907 3908 
3 14147 14148 
1 3216 14146 
3 14146 14147 
3 3215 3216 
3 3214 3215 
1 3214 6858 
3 20141 20142 
3 11044 11045 
3 11045 11046 
2 20245 20246 
2 793 794 
2 794 795 
2 20246 20247 
3 2794 2795 
3 2795 2796 
1 2796 11830 
3 11831 11832 
3 11830 11831 
2 5854 5855 
2 5855 5856 
3 18667 18668 
3 18668 18669 
2 17305 17306 
2 17306 17307 
3 2867 2868 
3 2866 2867 
3 8995 8996 
3 9794 9795 
2 3278 3279 
3 9793 9794 
2 5639 5640 
2 5638 5639 
3 5510 5511 
2 3277 3278 
2 20201 20202 
3 16040 16041 
3 17654 17655 
3 17653 17654 
1 16041 17653 
3 19090 19091 
1 18387 19090 
3 19091 19092 
2 7562 7563 
2 7561 7562 
2 18446 18447 
3 17527 17528 
3 17528 17529 
3 6199 6200 
3 17947 17948 
3 5015 5016 
3 5014 5015 
3 17948 17949 
3 1607 1608 
3 1606 1607 
3 6200 6201 
3 5074 5075 
3 9029 9030 
3 9028 9029 
3 16024 16025 
3 16025 16026 
3 709 710 
3 6856 6857 
3 6857 6858 
3 13214 13215 
3 13213 13214 
1 13215 20140 
3 20140 20141 
3 710 711 
1 711 1825 
3 1825 1826 
3 1826 1827 
2 8647 8648 
2 8648 8649 
2 5402 5403 
2 5401 5402 
2 17914 17915 
2 17915 17916 
3 13499 13500 
3 13498 13499 
3 12611 12612 
3 5795 5796 
1 5796 12612 
3 12610 12611 
3 11551 11552 
1 11551 15171 
3 11552 11553 
3 15170 15171 
3 10715 10716 
3 10714 10715 
3 15169 15170 
1 15169 15616 
2 15616 15617 
2 5021 5022 
2 15617 15618 
2 5020 5021 
3 8996 8997 
2 17917 17918 
2 17918 17919 
3 16291 16292 
1 16291 17919 
3 16292 16293 
2 20200 20201 
3 5351 5352 
2 18445 18446 
3 15734 15735 
3 15733 15734 
3 3967 3968 
1 3967 15733 
3 3968 3969 
3 6527 6528 
3 10685 10686 
3 10684 10685 
3 6526 6527 
3 17426 17427 
2 6356 6357 
2 6355 6356 
3 17080 17081 
3 17081 17082 
3 1913 1914 
3 1912 1913 
3 6850 6851 
1 1914 6850 
3 7865 7866 
3 7864 7865 
1 7864 16024 
1 7866 20352 
3 20351 20352 
3 20350 20351 
3 8467 8468 
3 6851 6852 
1 6852 8467 
3 8468 8469 
2 14999 15000 
2 14998 14999 
3 19766 19767 
2 11899 11900 
2 11900 11901 
2 811 812 
2 812 813 
2 17078 17079 
2 16078 16079 
2 16079 16080 
1 813 12981 
3 12980 12981 
3 12979 12980 
3 14609 14610 
3 14608 14609 
1 11553 14608 
3 5794 5795 
3 8969 8970 
3 8968 8969 
3 1633 1634 
1 1633 8968 
3 6071 6072 
3 6070 6071 
2 10417 10418 
2 10418 10419 
3 7952 7953 
3 7951 7952 
3 5350 5351 
1 5350 7953 
3 8341 8342 
3 8342 8343 
3 3524 3525 
3 17425 17426 
3 3523 3524 
1 3523 17425 
2 16625 16626 
2 16624 16625 
3 18943 18944 
3 18944 18945 
2 17927 17928 
2 6752 6753 
3 20551 20552 
2 6751 6752 
3 11848 11849 
3 11849 11850 
3 4244 4245 
3 4243 4244 
3 15203 15204 
3 20689 20690 
3 20690 20691 
3 5966 5967 
3 5965 5966 
2 17317 17318 
2 17318 17319 
2 16903 16904 
2 16904 16905 
3 15103 15104 
3 15104 15105 
2 17077 17078 
2 14171 14172 
2 14170 14171 
1 10137 14170 
2 10136 10137 
2 11644 11645 
3 11687 11688 
3 11686 11687 
3 17758 17759 
2 17659 17660 
2 17660 17661 
3 17759 17760 
2 14708 14709 
1 14709 21268 
2 21268 21269 
2 21269 21270 
2 14707 14708 
3 17288 17289 
3 17287 17288 
2 1999 2000 
3 11035 11036 
3 3041 3042 
3 11036 11037 
2 17926 17927 
3 20552 20553 
3 4099 4100 
1 4099 6208 
3 6208 6209 
3 6209 6210 
3 4100 4101 
2 3272 3273 
2 3271 3272 
3 5738 5739 
2 3241 3242 
2 3242 3243 
3 5737 5738 
1 5737 16239 
2 16238 16239 
2 16237 16238 
3 5138 5139 
2 19142 19143 
1 11850 19141 
2 19141 19142 
2 10403 10404 
3 15202 15203 
3 19888 19889 
2 10402 10403 
3 19889 19890 
3 809 810 
1 810 21579 
3 808 809 
3 21578 21579 
3 21424 21425 
1 21426 21577 
3 21577 21578 
3 21425 21426 
3 7682 7683 
3 7681 7682 
1 2913 8298 
2 13174 13175 
2 13175 13176 
2 10891 10892 
1 10891 14658 
2 10892 10893 
3 20294 20295 
3 3352 3353 
1 3352 20295 
2 10135 10136 
2 8297 8298 
2 8296 8297 
2 11645 11646 
2 13219 13220 
1 11646 14656 
2 14657 14658 
2 14656 14657 
2 13220 13221 
3 10778 10779 
3 3353 3354 
3 10777 10778 
1 3354 10777 
2 2752 2753 
2 21536 21537 
2 21535 21536 
2 2753 2754 
2 2062 2063 
2 2063 2064 
2 1496 1497 
2 1495 1496 
3 4747 4748 
2 7511 7512 
3 15863 15864 
3 15862 15863 
2 2000 2001 
2 10250 10251 
3 20657 20658 
3 7430 7431 
3 3040 3041 
1 3040 7431 
3 8950 8951 
3 7429 7430 
3 8951 8952 
3 12694 12695 
3 12695 12696 
2 2840 2841 
3 20656 20657 
3 5978 5979 
3 5977 5978 
3 3425 3426 
3 3424 3425 
1 3424 5137 
3 5137 5138 
2 11506 11507 
2 11507 11508 
1 2124 11508 
3 19435 19436 
3 12470 12471 
3 12469 12470 
3 13259 13260 
2 10388 10389 
3 425 426 
3 424 425 
2 10387 10388 
3 13258 13259 
3 18103 18104 
3 18104 18105 
2 17489 17490 
2 17488 17489 
2 2911 2912 
2 2912 2913 
3 16955 16956 
3 16954 16955 
2 7003 7004 
2 5179 5180 
3 8353 8354 
3 8354 8355 
3 20293 20294 
2 19811 19812 
2 7004 7005 
2 19810 19811 
2 5180 5181 
3 7196 7197 
3 12287 12288 
3 12286 12287 
3 5534 5535 
3 5533 5534 
1 5533 13221 
3 406 407 
1 406 4270 
3 4270 4271 
3 4271 4272 
1 21 11328 
2 11327 11328 
2 11326 11327 
3 20 21 
3 19 20 
1 19 8088 
2 17336 17337 
1 408 17335 
2 17335 17336 
3 407 408 
3 8432 8433 
3 8431 8432 
3 4748 4749 
2 7510 7511 
2 20194 20195 
2 20195 20196 
3 12871 12872 
3 12872 12873 
3 3236 3237 
3 20582 20583 
3 20581 20582 
3 3235 3236 
2 2839 2840 
2 8365 8366 
2 8366 8367 
2 2122 2123 
3 3337 3338 
2 17075 17076 
2 2123 2124 
3 11437 11438 
3 11438 11439 
3 19436 19437 
2 17074 17075 
2 7073 7074 
3 21196 21197 
3 21197 21198 
2 19180 19181 
2 19181 19182 
2 9491 9492 
1 615 9490 
2 9490 9491 
2 614 615 
3 3389 3390 
3 14848 14849 
3 3388 3389 
1 3390 14848 
3 14849 14850 
2 613 614 
2 6103 6104 
2 6104 6105 
3 3478 3479 
1 3478 13941 
2 17113 17114 
2 13940 13941 
2 17114 17115 
2 13939 13940 
1 13939 17113 
3 8638 8639 
3 13832 13833 
3 13831 13832 
2 3922 3923 
1 3924 8086 
2 8086 8087 
2 3923 3924 
3 12344 12345 
3 8639 8640 
2 8087 8088 
2 10145 10146 
3 9707 9708 
3 9706 9707 
3 1748 1749 
3 5611 5612 
3 5612 5613 
3 1747 1748 
2 16505 16506 
2 16504 16505 
3 695 696 
3 3338 3339 
3 694 695 
1 694 3339 
2 7072 7073 
3 19202 19203 
2 9983 9984 
2 9982 9983 
2 20348 20349 
2 20347 20348 
3 1844 1845 
3 20338 20339 
3 20339 20340 
2 10144 10145 
3 12464 12465 
3 12463 12464 
2 20777 20778 
2 20776 20777 
2 7267 7268 
1 7267 15925 
2 7268 7269 
3 15925 15926 
2 18212 18213 
1 9714 18213 
3 9713 9714 
2 18211 18212 
3 15926 15927 
3 5426 5427 
3 5425 5426 
3 7340 7341 
1 141 7339 
3 7339 7340 
3 140 141 
3 139 140 
3 19480 19481 
3 10256 10257 
3 20704 20705 
2 6440 6441 
2 6439 6440 
3 251 252 
3 19201 19202 
3 250 251 
2 12136 12137 
2 9043 9044 
2 9044 9045 
2 7412 7413 
2 7411 7412 
2 18862 18863 
2 18863 18864 
2 11173 11174 
3 2740 2741 
3 17104 17105 
3 2741 2742 
1 2742 17104 
2 17671 17672 
2 17672 17673 
3 17966 17967 
3 9307 9308 
3 9308 9309 
3 6187 6188 
3 6188 6189 
2 19732 19733 
2 19733 19734 
3 9712 9713 
3 15025 15026 
3 11284 11285 
1 6678 7269 
2 6676 6677 
2 6677 6678 
2 14369 14370 
3 13765 13766 
3 13766 13767 
1 7341 13767 
3 19481 19482 
3 10255 10256 
3 20705 20706 
2 14087 14088 
2 14086 14087 
2 9049 9050 
1 9049 14088 
2 9050 9051 
1 9051 13162 
2 13162 13163 
2 13163 13164 
2 16850 16851 
2 16849 16850 
3 617 618 
2 12572 12573 
2 12571 12572 
1 11175 15778 
2 11174 11175 
3 15778 15779 
3 19358 19359 
3 19357 19358 
3 962 963 
3 17965 17966 
1 963 17965 
3 961 962 
1 961 6091 
3 6091 6092 
3 15433 15434 
3 15434 15435 
3 506 507 
2 15451 15452 
2 9167 9168 
2 9166 9167 
3 20234 20235 
3 20233 20234 
3 11285 11286 
2 14368 14369 
2 9503 9504 
2 9502 9503 
3 18503 18504 
3 18502 18503 
3 21062 21063 
3 21061 21062 
2 11599 11600 
2 11600 11601 
2 3038 3039 
2 3037 3038 
2 12212 12213 
2 12211 12212 
3 18514 18515 
2 1208 1209 
2 1207 1208 
2 2978 2979 
3 1586 1587 
2 2977 2978 
3 1585 1586 
1 1585 2977 
2 19249 19250 
2 19250 19251 
1 6087 19249 
2 6085 6086 
1 6085 18516 
2 6086 6087 
3 18515 18516 
2 4582 4583 
1 4584 6093 
3 6092 6093 
2 4583 4584 
2 5834 5835 
2 5833 5834 
3 21172 21173 
3 21173 21174 
2 15452 15453 
2 7931 7932 
2 7930 7931 
3 1135 1136 
1 1137 4225 
3 4225 4226 
3 1136 1137 
2 2284 2285 
2 15101 15102 
2 6904 6905 
1 6904 15100 
2 6905 6906 
2 15100 15101 
2 20642 20643 
2 20641 20642 
3 590 591 
2 18868 18869 
2 18869 18870 
3 589 590 
3 19346 19347 
2 7534 7535 
1 7534 19345 
3 19345 19346 
2 7535 7536 
2 1040 1041 
2 1039 1040 
3 6562 6563 
3 6563 6564 
2 11263 11264 
2 11264 11265 
2 18325 18326 
3 1667 1668 
3 1666 1667 
2 7450 7451 
2 7078 7079 
2 7079 7080 
2 18422 18423 
1 1752 18423 
2 18421 18422 
3 16109 16110 
3 17930 17931 
3 17929 17930 
3 4226 4227 
2 1864 1865 
3 19705 19706 
1 6516 6976 
2 6515 6516 
2 6514 6515 
3 6977 6978 
3 6976 6977 
2 2285 2286 
2 12976 12977 
2 12977 12978 
2 17378 17379 
2 7285 7286 
2 7286 7287 
2 1276 1277 
2 1277 1278 
3 19754 19755 
3 19753 19754 
3 293 294 
3 292 293 
2 20866 20867 
2 20867 20868 
3 10207 10208 
3 10208 10209 
2 8690 8691 
2 18326 18327 
2 8689 8690 
3 7040 7041 
3 7039 7040 
2 5359 5360 
1 4257 5359 
2 4256 4257 
2 5360 5361 
2 4255 4256 
2 7451 7452 
3 20008 20009 
3 7088 7089 
1 7041 7089 
3 7087 7088 
2 17483 17484 
2 17482 17483 
3 15319 15320 
3 15320 15321 
3 13231 13232 
1 13231 15711 
3 13232 13233 
1 13233 15321 
3 15710 15711 
2 11659 11660 
2 11660 11661 
3 21274 21275 
3 21275 21276 
2 1751 1752 
3 8089 8090 
3 16108 16109 
2 16471 16472 
2 1865 1866 
2 16472 16473 
3 4600 4601 
3 3398 3399 
3 3397 3398 
2 12089 12090 
3 19706 19707 
3 15307 15308 
3 15308 15309 
2 3698 3699 
3 11549 11550 
3 11548 11549 
2 14104 14105 
2 3697 3698 
3 1193 1194 
3 1192 1193 
2 18832 18833 
2 13640 13641 
1 3894 13639 
2 13639 13640 
2 3893 3894 
2 12703 12704 
2 3892 3893 
1 3892 12703 
2 10228 10229 
1 10228 18834 
2 18833 18834 
2 10229 10230 
3 7265 7266 
3 7264 7265 
2 12704 12705 
3 20239 20240 
3 15764 15765 
3 15763 15764 
3 13064 13065 
3 13063 13064 
1 13063 15765 
3 20240 20241 
3 20009 20010 
3 20795 20796 
3 20794 20795 
2 20746 20747 
1 768 20796 
2 767 768 
2 766 767 
1 766 5413 
3 5413 5414 
2 20747 20748 
2 3629 3630 
2 17404 17405 
2 17405 17406 
3 5414 5415 
3 2815 2816 
3 2816 2817 
1 2817 12946 
3 12946 12947 
2 12682 12683 
2 1102 1103 
1 1102 12682 
2 1103 1104 
2 4112 4113 
2 7700 7701 
2 12683 12684 
2 7699 7700 
2 8566 8567 
2 8567 8568 
1 8568 9324 
3 16180 16181 
3 16181 16182 
3 535 536 
3 536 537 
3 4601 4602 
3 15830 15831 
3 15829 15830 
3 11935 11936 
1 11935 15831 
3 17774 17775 
3 17773 17774 
3 6503 6504 
3 6502 6503 
3 2711 2712 
3 2710 2711 
3 12230 12231 
3 12229 12230 
2 6280 6281 
2 6281 6282 
2 14105 14106 
3 17510 17511 
3 17509 17510 
2 6442 6443 
2 6443 6444 
2 18152 18153 
1 14460 18151 
2 18151 18152 
2 4049 4050 
2 13964 13965 
2 13963 13964 
2 14459 14460 
2 14458 14459 
2 1591 1592 
2 1592 1593 
2 2303 2304 
2 2302 2303 
2 4048 4049 
2 12410 12411 
2 12409 12410 
2 3628 3629 
1 3628 17340 
2 17339 17340 
2 17338 17339 
2 16256 16257 
3 373 374 
3 374 375 
3 9451 9452 
3 9452 9453 
3 12947 12948 
3 6418 6419 
1 6418 12948 
3 6419 6420 
3 8851 8852 
3 8852 8853 
3 15874 15875 
3 15875 15876 
2 757 758 
3 8344 8345 
2 8284 8285 
2 8285 8286 
3 14000 14001 
3 13999 14000 
3 8797 8798 
3 17543 17544 
3 17542 17543 
3 3011 3012 
3 3010 3011 
3 14690 14691 
3 452 453 
3 451 452 
3 4184 4185 
3 4183 4184 
2 16241 16242 
2 12631 12632 
3 10445 10446 
1 837 10444 
3 10444 10445 
2 836 837 
2 835 836 
3 15916 15917 
2 12632 12633 
3 8668 8669 
1 8668 16240 
3 8669 8670 
2 16240 16241 
3 20638 20639 
3 2216 2217 
1 2217 20640 
3 20639 20640 
2 13583 13584 
2 13582 13583 
2 3056 3057 
2 3055 3056 
3 18335 18336 
3 8933 8934 
2 4022 4023 
3 8932 8933 
2 4021 4022 
1 4021 8932 
2 19924 19925 
2 7709 7710 
2 7708 7709 
2 5930 5931 
2 5929 5930 
3 5252 5253 
3 5251 5252 
2 4015 4016 
2 19925 19926 
2 4016 4017 
3 8345 8346 
3 8798 8799 
2 2674 2675 
1 2676 14689 
3 14689 14690 
2 2675 2676 
3 4439 4440 
3 4438 4439 
3 3601 3602 
3 3602 3603 
2 4235 4236 
2 4234 4235 
3 17143 17144 
3 17144 17145 
3 20306 20307 
3 20305 20306 
3 18689 18690 
2 3191 3192 
2 3190 3191 
3 7276 7277 
3 7277 7278 
3 18688 18689 
3 4856 4857 
3 4855 4856 
1 4855 20164 
3 20165 20166 
3 20164 20165 
2 15340 15341 
3 11416 11417 
1 11416 14731 
3 11417 11418 
2 14731 14732 
2 18779 18780 
2 18778 18779 
3 3287 3288 
3 3286 3287 
2 15341 15342 
3 23 24 
3 22 23 
3 11822 11823 
3 11821 11822 
2 18989 18990 
2 18988 18989 
2 595 596 
3 9415 9416 
3 9416 9417 
2 6788 6789 
2 6787 6788 
3 5509 5510 
3 17590 17591 
3 17591 17592 
3 2131 2132 
3 2132 2133 
3 12200 12201 
2 4420 4421 
2 4421 4422 
3 3653 3654 
3 3652 3653 
3 10468 10469 
3 10469 10470 
2 4483 4484 
2 4484 4485 
2 8158 8159 
2 8159 8160 
1 8160 11418 
2 15833 15834 
2 15832 15833 
3 3608 3609 
2 14732 14733 
3 6784 6785 
3 6785 6786 
3 15886 15887 
3 3607 3608 
1 3607 11058 
3 11056 11057 
3 11057 11058 
2 10802 10803 
2 10801 10802 
1 4110 10801 
2 6359 6360 
2 6358 6359 
3 15887 15888 
2 21037 21038 
2 4109 4110 
2 4108 4109 
2 596 597 
2 2267 2268 
2 9116 9117 
2 9115 9116 
1 9115 16107 
2 16106 16107 
2 10304 10305 
2 10303 10304 
2 13384 13385 
2 13385 13386 
3 8165 8166 
3 8164 8165 
2 5581 5582 
2 5582 5583 
3 12199 12200 
2 14275 14276 
2 14276 14277 
2 4913 4914 
1 4422 4914 
2 4912 4913 
2 20336 20337 
2 20335 20336 
2 3944 3945 
3 3334 3335 
3 5228 5229 
2 3943 3944 
2 16892 16893 
2 4705 4706 
3 10591 10592 
3 10592 10593 
2 21038 21039 
2 11791 11792 
2 20941 20942 
2 20942 20943 
2 6586 6587 
2 6587 6588 
2 11792 11793 
2 2266 2267 
1 2266 11793 
2 11251 11252 
2 7793 7794 
2 7792 7793 
2 16105 16106 
1 15786 16105 
2 15785 15786 
2 15784 15785 
1 1023 15784 
3 18896 18897 
3 18895 18896 
2 4643 4644 
2 4642 4643 
2 16484 16485 
2 16483 16484 
2 1312 1313 
1 1312 16483 
2 1313 1314 
3 12628 12629 
2 9971 9972 
2 9970 9971 
3 3121 3122 
3 11609 11610 
3 11608 11609 
3 15574 15575 
3 15575 15576 
2 3179 3180 
2 601 602 
2 602 603 
2 3178 3179 
3 5227 5228 
2 16891 16892 
2 17944 17945 
2 4469 4470 
2 4468 4469 
2 571 572 
3 2144 2145 
3 2143 2144 
3 4465 4466 
3 4466 4467 
2 12380 12381 
2 12379 12380 
1 3297 14172 
2 3295 3296 
2 3296 3297 
2 11252 11253 
1 11253 18294 
2 1021 1022 
1 1021 10798 
2 10798 10799 
2 19996 19997 
2 19997 19998 
2 10799 10800 
2 1022 1023 
2 14671 14672 
2 14672 14673 
2 4178 4179 
2 4177 4178 
1 2280 15099 
2 15098 15099 
2 15097 15098 
3 5206 5207 
3 5207 5208 
3 9067 9068 
3 9068 9069 
3 9841 9842 
3 9842 9843 
3 4828 4829 
3 4829 4830 
3 12254 12255 
3 12253 12254 
2 16900 16901 
3 8522 8523 
3 8521 8522 
1 8521 16900 
3 15995 15996 
3 15994 15995 
2 454 455 
1 454 10231 
2 10231 10232 
2 10232 10233 
3 12629 12630 
2 1589 1590 
2 1588 1589 
3 3122 3123 
3 18352 18353 
3 18353 18354 
2 17945 17946 
3 1483 1484 
2 9653 9654 
2 3592 3593 
2 9652 9653 
2 5000 5001 
2 8891 8892 
2 4999 5000 
1 4999 8890 
2 8890 8891 
2 3593 3594 
2 10657 10658 
2 572 573 
2 12911 12912 
2 12910 12911 
3 11641 11642 
3 7441 7442 
1 7441 11643 
3 11642 11643 
3 7442 7443 
2 3349 3350 
3 18698 18699 
2 18383 18384 
2 3350 3351 
3 9937 9938 
1 9939 18003 
3 9938 9939 
3 18697 18698 
3 20762 20763 
3 17959 17960 
1 17959 20761 
3 20761 20762 
3 17960 17961 
3 19703 19704 
3 19702 19703 
2 18382 18383 
3 7330 7331 
3 7331 7332 
2 14258 14259 
1 14259 17541 
2 17540 17541 
2 17539 17540 
2 8084 8085 
2 8083 8084 
2 16901 16902 
3 12718 12719 
3 12719 12720 
2 20869 20870 
2 20870 20871 
2 7027 7028 
1 7027 17890 
2 7028 7029 
2 17890 17891 
2 17891 17892 
3 14603 14604 
3 14602 14603 
2 20012 20013 
2 20011 20012 
2 2908 2909 
2 2909 2910 
2 16150 16151 
2 16151 16152 
2 1138 1139 
1 1138 20013 
2 15502 15503 
1 1140 15502 
2 1139 1140 
2 6226 6227 
2 2834 2835 
2 2833 2834 
1 2833 6226 
2 6227 6228 
2 8716 8717 
2 17650 17651 
2 10658 10659 
1 10659 18567 
2 18566 18567 
2 17651 17652 
2 18565 18566 
2 5372 5373 
2 5371 5372 
2 8065 8066 
2 14167 14168 
2 14168 14169 
2 2762 2763 
2 2761 2762 
3 17284 17285 
3 17285 17286 
3 874 875 
1 874 12462 
3 875 876 
3 12460 12461 
1 12460 17961 
3 12461 12462 
3 18001 18002 
3 18002 18003 
3 12056 12057 
3 12055 12056 
3 8698 8699 
3 8699 8700 
2 9919 9920 
2 9920 9921 
3 1952 1953 
3 1951 1952 
1 1951 7999 
3 7999 8000 
2 13390 13391 
3 18235 18236 
3 18236 18237 
2 6386 6387 
3 16853 16854 
2 9770 9771 
1 4824 9769 
2 9769 9770 
3 16852 16853 
2 4823 4824 
2 15503 15504 
2 4822 4823 
2 8717 8718 
2 3043 3044 
2 3044 3045 
2 17038 17039 
1 17038 18565 
2 17039 17040 
3 20414 20415 
3 20413 20414 
1 8067 20413 
2 8066 8067 
3 421 422 
1 421 14169 
3 422 423 
2 11950 11951 
2 11542 11543 
2 19283 19284 
2 19282 19283 
3 19913 19914 
3 19912 19913 
2 11951 11952 
2 3551 3552 
1 3552 11952 
2 3550 3551 
2 9325 9326 
2 6584 6585 
3 4087 4088 
2 21563 21564 
2 21562 21563 
3 11461 11462 
3 11462 11463 
3 4088 4089 
3 3988 3989 
3 3989 3990 
3 14099 14100 
2 19865 19866 
3 14098 14099 
1 14098 19866 
3 8819 8820 
3 8818 8819 
3 3004 3005 
3 3005 3006 
3 3691 3692 
3 3692 3693 
2 3260 3261 
2 3259 3260 
3 8000 8001 
2 13391 13392 
3 12752 12753 
3 12751 12752 
1 972 6385 
2 6385 6386 
2 971 972 
2 970 971 
1 970 12751 
2 16618 16619 
2 16619 16620 
3 6815 6816 
3 6814 6815 
3 15095 15096 
3 15094 15095 
2 15280 15281 
2 15281 15282 
3 6134 6135 
3 6133 6134 
3 4874 4875 
2 10790 10791 
3 1907 1908 
3 1906 1907 
2 3101 3102 
2 11543 11544 
3 16168 16169 
3 16169 16170 
2 10789 10790 
2 9326 9327 
2 17546 17547 
2 17545 17546 
2 6583 6584 
1 6583 17547 
2 6887 6888 
2 12062 12063 
2 6886 6887 
1 6886 12061 
2 12061 12062 
2 1561 1562 
2 1562 1563 
2 13529 13530 
3 19055 19056 
3 19054 19055 
3 11335 11336 
3 11336 11337 
3 11129 11130 
1 11130 19056 
3 11128 11129 
2 18938 18939 
2 18937 18938 
3 15470 15471 
3 5768 5769 
3 14735 14736 
3 5767 5768 
1 5767 14736 
3 14734 14735 
1 5769 19201 
3 2890 2891 
3 2891 2892 
3 11275 11276 
2 5864 5865 
2 12137 12138 
2 2383 2384 
1 2383 12138 
2 21121 21122 
3 8480 8481 
3 8479 8480 
1 8479 11277 
3 11276 11277 
2 18476 18477 
2 18475 18476 
3 3563 3564 
3 3562 3563 
1 3562 18477 
2 5863 5864 
2 197 198 
2 196 197 
1 196 12309 
2 12308 12309 
2 21122 21123 
3 4873 4874 
2 18041 18042 
2 18040 18041 
1 3564 18040 
2 12307 12308 
3 12077 12078 
3 12076 12077 
1 11784 19825 
3 19825 19826 
3 11783 11784 
3 11782 11783 
3 19826 19827 
2 3100 3101 
1 3100 4479 
2 4478 4479 
2 18632 18633 
2 18631 18632 
2 4477 4478 
1 4477 18631 
1 13530 18633 
3 10216 10217 
3 10217 10218 
1 7377 10218 
3 7376 7377 
3 5332 5333 
2 18797 18798 
2 18796 18797 
3 6371 6372 
3 6370 6371 
3 10640 10641 
3 10639 10640 
2 18812 18813 
2 18811 18812 
2 7361 7362 
2 7360 7361 
3 2774 2775 
3 8840 8841 
3 8839 8840 
3 19535 19536 
3 19534 19535 
3 2773 2774 
3 15469 15470 
2 19127 19128 
2 19126 19127 
3 11161 11162 
3 398 399 
3 397 398 
1 397 11161 
3 11162 11163 
3 9814 9815 
3 9815 9816 
3 13829 13830 
3 13828 13829 
2 2384 2385 
2 8539 8540 
1 8539 13828 
2 5261 5262 
2 5260 5261 
3 5680 5681 
3 15757 15758 
3 15758 15759 
3 20255 20256 
3 19036 19037 
1 19036 20254 
3 20254 20255 
3 19037 19038 
2 4663 4664 
1 4663 5203 
2 4664 4665 
2 5203 5204 
3 5681 5682 
3 8350 8351 
3 8351 8352 
3 19538 19539 
3 19537 19538 
2 14933 14934 
2 14932 14933 
3 3532 3533 
1 3534 7162 
3 7162 7163 
3 7163 7164 
3 3533 3534 
3 286 287 
3 287 288 
3 1637 1638 
3 1636 1637 
3 7375 7376 
3 7861 7862 
3 4429 4430 
1 4429 7861 
2 9694 9695 
2 9695 9696 
3 7862 7863 
3 16667 16668 
3 16666 16667 
3 13843 13844 
3 19145 19146 
3 19144 19145 
2 15149 15150 
2 18532 18533 
2 18533 18534 
2 16802 16803 
3 18569 18570 
3 18568 18569 
1 13845 18807 
3 13844 13845 
3 4810 4811 
3 4811 4812 
3 20896 20897 
3 17743 17744 
3 20897 20898 
2 2668 2669 
3 4841 4842 
3 4840 4841 
2 18973 18974 
2 18974 18975 
2 2669 2670 
3 18521 18522 
3 18520 18521 
2 8540 8541 
3 15754 15755 
3 8782 8783 
1 8782 15754 
2 15611 15612 
2 15610 15611 
1 15610 15759 
3 15997 15998 
3 15998 15999 
2 5204 5205 
3 13106 13107 
3 13105 13106 
3 8783 8784 
2 1381 1382 
2 1382 1383 
3 17048 17049 
3 17047 17048 
3 7823 7824 
3 4430 4431 
3 3517 3518 
1 3517 16666 
3 3518 3519 
2 15148 15149 
3 15035 15036 
3 15034 15035 
2 16801 16802 
3 18805 18806 
3 18806 18807 
2 12602 12603 
2 12601 12602 
1 12601 15036 
2 320 321 
3 21478 21479 
3 21479 21480 
3 17744 17745 
2 10786 10787 
2 6496 6497 
2 6497 6498 
2 319 320 
2 10787 10788 
2 221 222 
2 220 221 
2 12685 12686 
2 12686 12687 
3 15755 15756 
2 17435 17436 
2 17434 17435 
3 12941 12942 
3 12940 12941 
2 21212 21213 
2 21211 21212 
3 6244 6245 
2 21052 21053 
2 21053 21054 
3 6245 6246 
3 10124 10125 
3 11674 11675 
3 11675 11676 
2 19849 19850 
2 11720 11721 
2 19850 19851 
2 11719 11720 
2 13301 13302 
3 20686 20687 
1 19851 20686 
2 21386 21387 
2 13300 13301 
1 8490 21385 
2 21385 21386 
3 16889 16890 
3 16888 16889 
2 13594 13595 
2 13595 13596 
3 17830 17831 
3 17831 17832 
1 14655 17832 
3 14654 14655 
3 14653 14654 
3 8987 8988 
3 8986 8987 
2 1358 1359 
2 17771 17772 
2 370 371 
1 370 17770 
2 17770 17771 
2 371 372 
2 9422 9423 
2 9421 9422 
2 1357 1358 
1 1357 9421 
3 17126 17127 
2 20099 20100 
2 20098 20099 
3 11555 11556 
3 17125 17126 
3 11554 11555 
1 11554 17125 
3 18146 18147 
3 18145 18146 
3 14447 14448 
3 10123 10124 
3 14446 14447 
3 4834 4835 
1 4834 14446 
3 4835 4836 
3 7148 7149 
2 12164 12165 
2 12163 12164 
2 13472 13473 
2 13471 13472 
1 1452 13473 
3 1451 1452 
3 1450 1451 
1 1450 18795 
2 18794 18795 
2 18793 18794 
2 9784 9785 
1 9784 18793 
2 9785 9786 
2 1108 1109 
3 6796 6797 
3 6797 6798 
2 12082 12083 
3 20687 20688 
2 12083 12084 
1 12084 12739 
3 12739 12740 
2 20669 20670 
2 20668 20669 
3 19459 19460 
3 19460 19461 
3 6115 6116 
2 17983 17984 
2 17984 17985 
2 8488 8489 
1 8488 17985 
2 8489 8490 
3 6116 6117 
3 13097 13098 
3 13096 13097 
2 3953 3954 
2 3952 3953 
2 14981 14982 
2 1888 1889 
2 1889 1890 
2 18403 18404 
2 18404 18405 
3 5743 5744 
3 5744 5745 
2 3731 3732 
2 3730 3731 
3 5323 5324 
3 5324 5325 
2 12865 12866 
2 17072 17073 
2 19111 19112 
2 19112 19113 
2 12866 12867 
3 499 500 
3 500 501 
3 7147 7148 
2 11623 11624 
2 11624 11625 
3 12740 12741 
3 1378 1379 
3 1379 1380 
3 12794 12795 
3 12793 12794 
1 12793 17722 
3 17722 17723 
3 17723 17724 
3 7106 7107 
3 7105 7106 
1 7105 17724 
2 10538 10539 
2 10537 10538 
2 15665 15666 
2 15664 15665 
3 671 672 
3 670 671 
3 3439 3440 
1 3439 10297 
3 10297 10298 
3 10298 10299 
1 672 12811 
3 12811 12812 
2 14980 14981 
3 1282 1283 
3 1283 1284 
3 18655 18656 
3 18656 18657 
2 2968 2969 
2 2969 2970 
2 12508 12509 
2 12509 12510 
2 17101 17102 
2 17102 17103 
3 10225 10226 
3 10226 10227 
3 854 855 
3 853 854 
2 13744 13745 
2 8801 8802 
3 743 744 
3 742 743 
1 744 17136 
2 8168 8169 
2 8375 8376 
2 19628 19629 
2 8374 8375 
3 848 849 
1 849 3982 
3 18334 18335 
3 3983 3984 
3 3982 3983 
2 16637 16638 
2 16636 16637 
3 18646 18647 
2 1754 1755 
1 1755 11491 
3 11491 11492 
3 11492 11493 
2 1753 1754 
2 227 228 
2 226 227 
3 605 606 
2 3482 3483 
2 3481 3482 
2 13237 13238 
2 13238 13239 
2 14270 14271 
2 14269 14270 
1 13239 17805 
3 18113 18114 
3 18112 18113 
2 17228 17229 
2 17227 17228 
3 21229 21230 
3 21230 21231 
3 6919 6920 
3 12724 12725 
3 6920 6921 
3 3020 3021 
3 3019 3020 
3 12074 12075 
1 12075 18114 
3 12073 12074 
2 15629 15630 
2 15628 15629 
3 17011 17012 
2 20654 20655 
2 20653 20654 
2 9592 9593 
2 9593 9594 
2 12902 12903 
2 9464 9465 
2 9463 9464 
1 9463 16638 
2 12901 12902 
3 4303 4304 
1 4303 7030 
3 4304 4305 
2 2446 2447 
1 2448 4816 
2 4816 4817 
2 2447 2448 
2 4817 4818 
2 16841 16842 
2 16840 16841 
2 17879 17880 
3 15590 15591 
2 7030 7031 
2 7031 7032 
3 20993 20994 
2 12856 12857 
1 12856 20992 
3 20992 20993 
2 9304 9305 
2 9305 9306 
1 9306 15048 
3 74 75 
3 73 74 
1 73 7959 
3 7958 7959 
3 10042 10043 
3 10043 10044 
3 7957 7958 
2 11143 11144 
2 11144 11145 
2 12857 12858 
2 8326 8327 
2 4594 4595 
1 4594 8326 
2 4595 4596 
3 13516 13517 
3 13517 13518 
3 17012 17013 
3 17711 17712 
3 8249 8250 
3 8248 8249 
2 52 53 
2 17030 17031 
2 17029 17030 
2 15163 15164 
1 15163 17031 
3 21080 21081 
3 18620 18621 
2 4754 4755 
2 4753 4754 
2 15164 15165 
3 12593 12594 
3 698 699 
3 697 698 
2 18433 18434 
2 18434 18435 
3 1477 1478 
1 1477 18619 
3 1478 1479 
3 18619 18620 
3 5996 5997 
3 5995 5996 
1 5995 17878 
2 17878 17879 
3 15589 15590 
3 6145 6146 
2 16694 16695 
2 16693 16694 
3 6146 6147 
1 5838 15511 
2 15511 15512 
2 15512 15513 
2 5837 5838 
3 15046 15047 
3 15047 15048 
2 17203 17204 
2 17204 17205 
3 4684 4685 
1 4684 7957 
3 4685 4686 
1 4686 11578 
2 11578 11579 
2 5836 5837 
2 7798 7799 
2 8327 8328 
2 7799 7800 
3 14045 14046 
3 14044 14045 
2 11579 11580 
2 9077 9078 
2 9076 9077 
3 7690 7691 
1 7690 13770 
3 7691 7692 
2 9980 9981 
2 53 54 
1 54 5478 
2 5477 5478 
2 5884 5885 
2 1012 1013 
1 1012 5884 
2 1013 1014 
2 5885 5886 
3 1634 1635 
3 1309 1310 
3 1310 1311 
2 6836 6837 
2 6835 6836 
2 9700 9701 
1 9700 14619 
2 14618 14619 
2 14617 14618 
3 14692 14693 
3 14693 14694 
3 12592 12593 
3 21079 21080 
1 19839 21079 
3 14767 14768 
3 14768 14769 
3 15752 15753 
3 19837 19838 
3 19838 19839 
2 10948 10949 
2 10949 10950 
3 13810 13811 
3 13811 13812 
3 9656 9657 
3 9655 9656 
3 13054 13055 
3 13055 13056 
3 16969 16970 
3 16970 16971 
1 16971 17784 
2 19004 19005 
2 19003 19004 
2 10010 10011 
1 4002 15900 
3 4000 4001 
1 4000 15751 
3 4001 4002 
3 15751 15752 
3 20522 20523 
3 20521 20522 
2 18511 18512 
2 18512 18513 
2 4904 4905 
2 4903 4904 
2 4730 4731 
1 10950 18399 
3 9257 9258 
3 17783 17784 
3 17782 17783 
2 10009 10010 
2 21149 21150 
2 21148 21149 
2 4729 4730 
3 1171 1172 
2 21179 21180 
2 478 479 
2 479 480 
2 9979 9980 
2 7049 7050 
2 7048 7049 
2 5476 5477 
1 5476 7048 
3 11348 11349 
3 11347 11348 
2 718 719 
2 719 720 
2 18226 18227 
2 18293 18294 
2 18292 18293 
3 1714 1715 
3 1715 1716 
2 9701 9702 
1 9657 9846 
3 19342 19343 
2 18397 18398 
2 18398 18399 
2 9845 9846 
2 10048 10049 
2 10049 10050 
3 7576 7577 
2 9844 9845 
3 7577 7578 
3 9256 9257 
3 15899 15900 
3 15898 15899 
3 19343 19344 
3 5867 5868 
3 5866 5867 
2 7972 7973 
2 12986 12987 
1 7578 12985 
2 12985 12986 
3 19270 19271 
3 19271 19272 
2 15682 15683 
2 15683 15684 
2 8036 8037 
2 8035 8036 
2 8287 8288 
3 6860 6861 
3 6859 6860 
2 5869 5870 
2 5870 5871 
2 18227 18228 
2 8288 8289 
3 12490 12491 
2 512 513 
3 9223 9224 
3 9224 9225 
3 12491 12492 
3 14149 14150 
3 14150 14151 
2 3262 3263 
2 21395 21396 
2 21394 21395 
3 14633 14634 
3 14632 14633 
3 3298 3299 
1 3298 19344 
3 3299 3300 
3 2290 2291 
3 2291 2292 
3 5128 5129 
2 21281 21282 
3 5129 5130 
2 21280 21281 
3 15601 15602 
3 15602 15603 
2 434 435 
3 4978 4979 
3 4979 4980 
3 7195 7196 
3 13748 13749 
3 13747 13748 
2 6535 6536 
2 6536 6537 
3 10363 10364 
2 6058 6059 
2 6059 6060 
2 511 512 
2 20149 20150 
2 4654 4655 
2 4655 4656 
2 5279 5280 
2 5278 5279 
2 20308 20309 
2 20309 20310 
2 9685 9686 
2 9686 9687 
2 6691 6692 
2 6692 6693 
2 18658 18659 
3 20734 20735 
1 12498 20734 
3 12497 12498 
3 12496 12497 
3 11876 11877 
2 3263 3264 
1 5280 21394 
3 12053 12054 
3 12052 12053 
2 18659 18660 
1 18660 19009 
2 19009 19010 
2 19010 19011 
2 5690 5691 
2 5689 5690 
1 4809 5691 
2 676 677 
2 21146 21147 
2 21145 21146 
2 6646 6647 
2 4568 4569 
2 4567 4568 
2 11663 11664 
2 11662 11663 
2 4807 4808 
2 2369 2370 
2 4808 4809 
2 2368 2369 
1 2368 4807 
2 14491 14492 
2 14492 14493 
3 21125 21126 
3 21124 21125 
3 18970 18971 
3 10364 10365 
1 10365 18970 
3 18971 18972 
2 9052 9053 
2 9053 9054 
3 7838 7839 
3 7837 7838 
2 18847 18848 
2 18118 18119 
2 18119 18120 
2 18115 18116 
2 18116 18117 
2 2947 2948 
2 2948 2949 
2 8501 8502 
3 9154 9155 
2 8500 8501 
3 20735 20736 
3 16246 16247 
3 11875 11876 
3 6695 6696 
3 20800 20801 
3 5300 5301 
3 5299 5300 
1 5299 9105 
2 19876 19877 
2 19877 19878 
2 4135 4136 
3 16247 16248 
3 6694 6695 
2 16691 16692 
2 17828 17829 
2 17827 17828 
3 3755 3756 
2 18376 18377 
2 18377 18378 
3 1843 1844 
2 12844 12845 
2 20131 20132 
2 12845 12846 
2 20132 20133 
2 7763 7764 
2 7762 7763 
3 7600 7601 
3 7601 7602 
2 18848 18849 
2 11485 11486 
2 11486 11487 
2 19738 19739 
2 19739 19740 
2 18161 18162 
1 18162 19740 
2 1717 1718 
1 1717 7764 
1 8502 16993 
2 16993 16994 
2 13123 13124 
2 16994 16995 
2 15277 15278 
1 15277 16995 
2 1718 1719 
1 1719 13123 
2 15278 15279 
3 9155 9156 
2 18160 18161 
3 13559 13560 
3 13558 13559 
3 10106 10107 
3 10105 10106 
3 20801 20802 
2 16007 16008 
2 7994 7995 
3 629 630 
3 628 629 
3 9104 9105 
3 9103 9104 
2 19096 19097 
2 3641 3642 
2 3640 3641 
1 3640 4137 
2 4136 4137 
2 1315 1316 
2 20014 20015 
2 20015 20016 
2 17351 17352 
2 17350 17351 
2 18725 18726 
2 18724 18725 
3 616 617 
2 15446 15447 
2 15445 15446 
2 9761 9762 
2 9760 9761 
1 9760 15445 
3 6950 6951 
3 6949 6950 
2 7829 7830 
2 7828 7829 
2 18679 18680 
2 18680 18681 
1 11487 18681 
3 3073 3074 
1 3073 15279 
2 11219 11220 
3 562 563 
3 563 564 