ITEM: TIMESTEP
0
ITEM: NUMBER OF ATOMS
585
ITEM: BOX BOUNDS pp pp pp
0.0000000000000000e+00 5.0000000000000000e+01
0.0000000000000000e+00 5.0000000000000000e+01
0.0000000000000000e+00 5.0000000000000000e+01
ITEM: ATOMS id type 
13 1 
14 2 
15 1 
16 1 
17 2 
18 1 
121 1 
122 2 
123 1 
193 1 
194 2 
195 1 
259 1 
260 2 
261 1 
307 1 
308 2 
309 1 
1150 1 
1151 2 
1152 1 
1156 1 
1157 2 
1158 1 
1348 1 
1349 2 
1350 1 
2242 1 
2243 3 
2244 1 
2287 1 
2288 2 
2289 1 
2296 1 
2297 2 
2298 1 
2464 1 
2465 2 
2466 1 
3181 1 
3182 2 
3183 1 
3490 1 
3491 2 
3492 1 
3628 1 
3629 2 
3630 1 
3739 1 
3740 2 
3741 1 
4756 1 
4757 2 
4758 1 
5656 1 
5657 3 
5658 1 
5668 1 
5669 2 
5670 1 
5776 1 
5777 2 
5778 1 
5908 1 
5909 2 
5910 1 
7021 1 
7022 2 
7023 1 
7048 1 
7049 2 
7050 1 
7099 1 
7100 2 
7101 1 
7150 1 
7151 2 
7152 1 
8899 1 
8900 2 
8901 1 
9076 1 
9077 2 
9078 1 
9187 1 
9188 2 
9189 1 
11230 1 
11231 2 
11232 1 
12124 1 
12125 2 
12126 1 
13528 1 
13529 2 
13530 1 
13579 1 
13580 2 
13581 1 
14233 1 
14234 2 
14235 1 
14305 1 
14306 2 
14307 1 
15376 1 
15377 2 
15378 1 
15484 1 
15485 2 
15486 1 
15553 1 
15554 2 
15555 1 
15622 1 
15623 3 
15624 1 
16330 1 
16331 2 
16332 1 
17482 1 
17483 2 
17484 1 
17536 1 
17537 2 
17538 1 
18439 1 
18440 2 
18441 1 
19588 1 
19589 2 
19590 1 
19864 1 
19865 2 
19866 1 
20716 1 
20717 2 
20718 1 
20764 1 
20765 2 
20766 1 
20839 1 
20840 2 
20841 1 
154 1 
155 2 
156 1 
292 1 
293 3 
294 1 
460 1 
461 2 
462 1 
469 1 
470 2 
471 1 
1366 1 
1367 2 
1368 1 
1531 1 
1532 2 
1533 1 
2278 1 
2279 2 
2280 1 
2446 1 
2447 2 
2448 1 
2635 1 
2636 2 
2637 1 
3514 1 
3515 2 
3516 1 
4498 1 
4499 2 
4500 1 
4846 1 
4847 2 
4848 1 
5869 1 
5870 2 
5871 1 
5983 1 
5984 2 
5985 1 
6715 1 
6716 2 
6717 1 
7852 1 
7853 3 
7854 1 
8035 1 
8036 2 
8037 1 
8134 1 
8135 3 
8136 1 
8158 1 
8159 2 
8160 1 
8998 1 
8999 2 
9000 1 
9052 1 
9053 2 
9054 1 
9214 1 
9215 2 
9216 1 
9286 1 
9287 2 
9288 1 
10375 1 
10376 2 
10377 1 
12151 1 
12152 2 
12153 1 
12415 1 
12416 2 
12417 1 
12466 1 
12467 2 
12468 1 
13300 1 
13301 2 
13302 1 
13555 1 
13556 2 
13557 1 
13615 1 
13616 2 
13617 1 
14395 1 
14396 2 
14397 1 
14557 1 
14558 2 
14559 1 
14671 1 
14672 2 
14673 1 
15346 1 
15347 2 
15348 1 
15391 1 
15392 2 
15393 1 
15400 1 
15401 2 
15402 1 
15649 1 
15650 2 
15651 1 
16711 1 
16712 2 
16713 1 
18391 1 
18392 3 
18393 1 
18457 1 
18458 2 
18459 1 
18772 1 
18773 2 
18774 1 
18778 1 
18779 2 
18780 1 
18874 1 
18875 3 
18876 1 
19531 1 
19532 2 
19533 1 
19591 1 
19592 2 
19593 1 
19609 1 
19610 2 
19611 1 
19675 1 
19676 2 
19677 1 
20854 1 
20855 3 
20856 1 
21034 1 
21035 2 
21036 1 
565 1 
566 2 
567 1 
601 1 
602 2 
603 1 
688 1 
689 3 
690 1 
868 1 
869 2 
870 1 
1021 1 
1022 2 
1023 1 
1108 1 
1109 2 
1110 1 
1693 1 
1694 2 
1695 1 
1753 1 
1754 2 
1755 1 
2041 1 
2042 2 
2043 1 
2065 1 
2066 2 
2067 1 
2650 1 
2651 2 
2652 1 
2887 1 
2888 2 
2889 1 
3859 1 
3860 2 
3861 1 
4021 1 
4022 2 
4023 1 
4093 1 
4094 2 
4095 1 
4159 1 
4160 2 
4161 1 
4936 1 
4937 2 
4938 1 
4999 1 
5000 2 
5001 1 
5119 1 
5120 2 
5121 1 
6319 1 
6320 2 
6321 1 
6619 1 
6620 2 
6621 1 
7333 1 
7334 2 
7335 1 
7402 1 
7403 2 
7404 1 
7513 1 
7514 2 
7515 1 
7570 1 
7571 3 
7572 1 
7585 1 
7586 2 
7587 1 
8587 1 
8588 2 
8589 1 
9499 1 
9500 2 
9501 1 
9685 1 
9686 2 
9687 1 
9916 1 
9917 2 
9918 1 
10588 1 
10589 2 
10590 1 
11530 1 
11531 2 
11532 1 
11662 1 
11663 2 
11664 1 
11881 1 
11882 2 
11883 1 
12862 1 
12863 3 
12864 1 
12916 1 
12917 2 
12918 1 
13645 1 
13646 2 
13647 1 
14008 1 
14009 2 
14010 1 
14104 1 
14105 2 
14106 1 
14179 1 
14180 3 
14181 1 
14707 1 
14708 2 
14709 1 
14899 1 
14900 2 
14901 1 
15133 1 
15134 2 
15135 1 
15202 1 
15203 3 
15204 1 
15241 1 
15242 2 
15243 1 
15781 1 
15782 2 
15783 1 
15907 1 
15908 2 
15909 1 
15979 1 
15980 2 
15981 1 
16048 1 
16049 2 
16050 1 
16744 1 
16745 2 
16746 1 
18133 1 
18134 2 
18135 1 
19399 1 
19400 2 
19401 1 
19996 1 
19997 2 
19998 1 
20281 1 
20282 3 
20283 1 
20467 1 
20468 3 
20469 1 
20476 1 
20477 2 
20478 1 
21505 1 
21506 2 
21507 1 
703 1 
704 2 
705 1 
769 1 
770 2 
771 1 
898 1 
899 2 
900 1 
2074 1 
2075 2 
2076 1 
2143 1 
2144 3 
2145 1 
2863 1 
2864 2 
2865 1 
4111 1 
4112 2 
4113 1 
5029 1 
5030 2 
5031 1 
6106 1 
6107 2 
6108 1 
6340 1 
6341 2 
6342 1 
6403 1 
6404 2 
6405 1 
6532 1 
6533 2 
6534 1 
7417 1 
7418 2 
7419 1 
7678 1 
7679 2 
7680 1 
8494 1 
8495 2 
8496 1 
8518 1 
8519 2 
8520 1 
8680 1 
8681 2 
8682 1 
8809 1 
8810 2 
8811 1 
9940 1 
9941 2 
9942 1 
11086 1 
11087 2 
11088 1 
12874 1 
12875 2 
12876 1 
12877 1 
12878 2 
12879 1 
12949 1 
12950 2 
12951 1 
13123 1 
13124 2 
13125 1 
13663 1 
13664 2 
13665 1 
13771 1 
13772 2 
13773 1 
13960 1 
13961 2 
13962 1 
14026 1 
14027 2 
14028 1 
14215 1 
14216 3 
14217 1 
14878 1 
14879 3 
14880 1 
14974 1 
14975 3 
14976 1 
17089 1 
17090 2 
17091 1 
17254 1 
17255 3 
17256 1 
17992 1 
17993 2 
17994 1 
17998 1 
17999 2 
18000 1 
19963 1 
19964 2 
19965 1 
20194 1 
20195 2 
20196 1 
20440 1 
20441 2 
20442 1 
21097 1 
21098 2 
21099 1 
21271 1 
21272 2 
21273 1 
21355 1 
21356 2 
21357 1 
