ITEM: TIMESTEP
50000000
ITEM: NUMBER OF ATOMS
2364
ITEM: BOX BOUNDS pp pp pp
0.0000000000000000e+00 5.0000000000000000e+01
0.0000000000000000e+00 5.0000000000000000e+01
0.0000000000000000e+00 5.0000000000000000e+01
ITEM: ATOMS id type vx vy vz 
20060 2 -0.653104 -0.026697 2.32158 
11146 1 -1.30368 -3.58132 -3.26006 
8264 2 0.724167 -3.08048 3.91453 
8263 1 4.71392 4.14939 4.79476 
20059 1 3.0926 2.2053 3.15084 
15544 1 1.69284 3.4166 -3.07536 
5813 2 -0.741041 2.55145 -2.49395 
7410 1 0.450934 0.00496146 1.30361 
5814 1 3.13412 -2.88881 3.12057 
7409 3 3.60164 -0.303147 -0.273514 
11148 1 -5.25509 1.59834 1.52031 
11147 2 0.0110591 4.07712 1.44754 
1872 1 -8.05292 0.244388 -2.06814 
1871 2 2.70783 -2.25608 2.69773 
84 1 0.454417 -2.05967 1.8739 
3413 2 -2.37439 2.26073 1.65027 
10680 1 -4.2164 0.0654396 2.87286 
10679 2 -3.46144 3.05693 -3.98108 
10678 1 -2.42357 -0.667972 -2.73035 
3412 1 2.62142 -0.639002 2.71433 
12546 1 2.18855 -3.35621 2.65619 
16905 1 0.682529 3.46071 -1.11777 
5780 2 -1.81482 3.4926 3.52212 
3414 1 1.06594 2.46061 -2.17186 
83 2 -3.5325 0.406643 0.0888443 
16904 2 2.77691 4.03057 0.345815 
5812 1 3.81745 -0.463579 -1.96651 
9402 1 0.41377 0.935544 0.248512 
1762 1 -1.60525 -3.71363 5.03468 
8019 1 -1.37815 2.52794 3.08337 
8018 2 1.20186 4.10374 -3.33032 
9401 2 2.03063 1.9304 -2.0465 
9439 1 -0.41521 -0.639663 0.230329 
18433 1 0.371268 -8.83786 3.68478 
18434 2 4.68739 -2.84013 -6.34624 
18435 1 2.72213 2.14603 1.13249 
1763 2 -4.11201 1.21616 0.808815 
1870 1 2.23772 -0.70111 1.36167 
6387 1 -2.15869 -3.80919 -6.60574 
9441 1 2.1024 3.72803 1.1057 
10519 1 -1.47353 -4.37696 2.42841 
10520 2 2.92626 -3.88982 1.43077 
9440 2 -0.713462 2.22172 2.88347 
2654 2 -8.27849 0.949964 0.240765 
5781 1 -1.33338 3.22272 0.0508663 
14566 1 1.44715 -0.633929 -1.82103 
2655 1 0.262996 -5.72313 -0.0733102 
4053 1 -2.88032 -1.96702 -1.84942 
4052 2 0.359471 -1.35282 0.455556 
4051 1 5.04191 -1.41609 -1.30747 
18102 1 1.31476 -0.153792 3.23371 
762 1 2.09784 1.29155 -2.11348 
14567 2 0.691134 3.08662 -0.673952 
4609 1 -3.54173 2.4315 7.01158 
21103 1 -2.95768 3.6878 1.35902 
18367 1 -3.12152 -2.85948 -1.1552 
8017 1 -4.42757 1.7217 1.86207 
2034 1 -0.368385 8.83372 1.72629 
16753 1 5.85009 -6.28508 0.056026 
2033 2 -3.06158 1.72427 3.5078 
16754 2 -1.35662 -1.71509 -2.47864 
3065 2 1.19958 -3.02197 2.8198 
16755 1 -1.19862 5.38038 -1.69696 
2484 1 0.669267 7.09769 -6.29444 
2482 1 -2.77575 -4.59347 3.8838 
3064 1 -3.73186 -4.58979 -6.46739 
2483 2 1.70841 0.800588 -2.23173 
639 1 -1.57391 -1.09549 4.36731 
638 2 -0.720797 -3.34254 3.22167 
11681 2 2.35762 0.836929 -0.177969 
6831 1 -4.12056 -0.568686 -1.60472 
11680 1 2.92308 -5.04191 -1.4798 
2737 1 -1.16883 2.88297 -6.71932 
14244 1 -5.49821 -1.62892 -2.21145 
637 1 1.74615 1.72099 0.91617 
2653 1 5.17399 3.24189 -5.34661 
6830 2 4.73598 -1.22906 3.98902 
2738 2 -2.6976 5.60655 0.324521 
2739 1 1.28767 4.47688 -0.365421 
21025 1 -4.29538 -3.69502 5.74435 
21026 2 -6.88646 2.17854 2.68552 
21027 1 0.907321 -0.0613025 -4.80346 
760 1 -3.14926 0.110286 -3.01733 
761 2 -1.16783 1.2303 0.481536 
14243 2 1.2448 -1.61627 0.669611 
6415 1 0.950524 6.45694 3.65714 
13046 2 -2.98391 -4.21143 -2.53223 
13047 1 2.39926 1.60371 -1.93408 
2262 1 1.51011 3.87331 -0.834295 
5498 2 -1.85442 -1.82656 0.967705 
13281 1 0.606891 8.19294 0.514537 
5499 1 0.511444 -0.587099 3.22711 
6416 2 -2.32125 -0.901267 1.09089 
6417 1 -0.439823 -2.01625 -3.31381 
13045 1 -0.101697 1.61645 -3.56637 
12048 1 -2.97772 5.02473 6.83674 
12046 1 -3.29519 0.590011 5.13893 
12047 2 -0.720903 -5.35149 0.160227 
5497 1 0.141878 -0.00769308 -3.71622 
6990 1 0.432434 -4.21683 0.732832 
6989 2 -0.618962 -1.76064 -0.172678 
10275 1 -2.15778 0.589757 -1.40317 
6988 1 -3.37572 2.71285 -3.5231 
18234 1 3.87591 -2.22087 -2.38167 
18233 2 -1.53745 0.404795 -1.09295 
18294 1 -4.09928 -2.94197 1.93181 
8895 1 -1.68666 0.348261 5.6358 
18232 1 -1.87087 -6.91013 2.80395 
8894 2 2.10216 -0.639754 1.05357 
9995 2 1.18311 1.31703 0.384291 
18706 1 -8.0175 3.04967 4.85255 
8893 1 1.43213 -0.707802 2.5561 
9996 1 -3.59258 1.49829 9.62365 
3574 1 3.36795 4.71754 -4.20817 
3575 2 0.642343 -0.543934 -0.956101 
9994 1 3.8291 -3.22914 -2.05657 
1537 1 -7.3104 -1.90618 2.00533 
1455 1 -1.51937 -2.15045 1.37907 
1454 2 2.52326 0.146504 -1.62307 
1538 3 1.47901 1.23711 -1.36708 
1539 1 5.65033 -0.341391 -6.03731 
1453 1 1.24683 -1.08202 1.67354 
2261 2 2.17048 6.3778 4.43498 
2260 1 -4.53841 2.65753 -4.23482 
1674 1 -1.59148 -3.09083 -1.87084 
3789 1 -0.822955 -0.116603 0.543135 
3788 2 5.42894 -2.49377 -1.24228 
10934 2 -4.1505 0.673049 2.00465 
10933 1 -3.18419 1.79898 3.36731 
10773 1 -2.83552 7.85071 -1.24351 
18293 2 -2.74391 1.72207 1.22897 
3787 1 3.22284 1.63809 0.058205 
14703 1 2.51191 5.36486 3.92699 
14702 2 -3.44859 3.6044 -2.89564 
20193 1 -4.80631 -0.450256 4.50277 
18292 1 3.01756 -1.63686 -6.31915 
20192 2 -0.3109 -1.70072 2.02871 
20191 1 4.42108 -1.23633 -2.97461 
10772 2 5.43912 1.3355 1.16 
10771 1 3.13134 -1.24178 -0.366805 
13807 1 1.73889 -2.50568 -6.11894 
13808 2 1.1059 1.00456 -1.44831 
16411 1 4.36752 -1.31285 -3.31638 
5502 1 -4.03882 -4.1551 -1.09621 
16412 2 1.77459 -0.689159 0.0352841 
1673 3 -0.452656 -1.87977 2.8919 
1672 1 -2.35045 -6.81262 1.76924 
11367 1 6.76969 4.09891 1.40485 
11366 2 -0.146748 -5.72097 -0.490308 
11365 1 -1.26772 0.548781 -0.901113 
1040 2 -1.43572 -0.813789 -3.1865 
1039 1 5.10123 1.83359 -4.18315 
1041 1 -3.98847 -1.06527 -2.06878 
8065 1 -2.21733 -7.51377 -1.23851 
8066 2 1.997 -0.760184 2.12536 
8067 1 -1.53617 0.321991 -0.523403 
16857 1 2.7082 -0.559938 3.74169 
16856 2 -0.737839 -0.579021 3.42305 
21262 1 -1.28413 -1.01197 1.50546 
16855 1 -1.23454 -1.52316 -1.03046 
21263 2 4.718 0.41233 -0.128804 
13809 1 -5.2233 4.76989 -3.76437 
10800 1 -2.53241 -0.495286 -4.39305 
5446 1 -2.13344 -2.66882 0.239183 
5447 3 3.17916 -1.69202 -2.99033 
5603 3 -2.38012 0.977166 -1.39578 
5448 1 3.37755 2.00069 3.84321 
5602 1 0.0611317 -2.55124 2.91797 
9571 1 -2.03627 -2.94146 2.57522 
7977 1 4.74943 1.64631 0.339651 
15545 2 -3.20062 -1.73922 -0.448543 
5752 1 1.58821 1.37072 7.72945 
7408 1 -7.19275 -0.28986 -1.16932 
13060 1 3.19475 7.27377 2.59146 
5604 1 0.184146 3.04645 -0.339701 
1141 1 1.50432 0.274791 -0.443329 
1142 2 0.539916 1.76337 0.195489 
1143 1 -4.16956 -6.76774 3.88865 
16270 1 -3.82625 -0.0281819 -0.148136 
16271 2 -0.676267 1.92254 3.78341 
13061 3 -2.55058 2.4216 -0.353848 
5779 1 -0.369246 -1.3166 -4.44634 
16717 1 -7.00145 -3.83696 -3.32038 
16718 2 -4.03339 -1.47696 1.80111 
15546 1 1.57663 -5.63298 -3.60277 
16719 1 -5.80989 1.75238 -5.72075 
5753 2 0.284324 -2.16806 3.25961 
5635 1 1.59741 1.55365 -2.65058 
3029 2 1.88994 2.31401 3.93721 
3028 1 1.65281 -4.49251 4.92074 
5566 1 -3.9798 1.98804 2.83332 
15658 1 1.55194 -2.86333 -2.50484 
15659 2 -5.14251 3.994 -3.75424 
10521 1 -9.97254 -4.95795 1.47984 
4926 1 -3.23585 5.85709 -0.879372 
4925 2 -0.000761748 0.998051 0.993059 
15660 1 -2.82416 -1.01102 -1.1427 
7299 1 -3.72797 -2.73655 1.83056 
1828 1 -1.31128 1.72539 4.87139 
7298 2 0.0210131 -2.55638 -0.953687 
19903 1 -1.87721 -0.035029 1.30682 
7297 1 8.51734 1.15859 0.400192 
19904 2 -3.79147 -0.504679 4.67103 
15208 1 2.41116 0.823642 -1.84564 
15210 1 5.02815 -0.271958 4.341 
15209 2 -4.69687 0.358914 -4.30698 
7575 1 -1.10305 -4.52105 3.39699 
21104 2 -0.827428 0.57373 -0.34557 
21105 1 3.43968 -5.80725 3.57738 
17791 1 0.810435 -2.38343 -3.35864 
17792 2 3.93322 1.23882 2.76673 
17793 1 -10.4771 -1.5827 1.50877 
9784 1 9.74935 -2.25637 2.0392 
9785 2 1.5944 -0.316917 0.427005 
9786 1 -2.84832 -1.9246 -0.630771 
2032 1 -1.49757 2.38743 -1.41778 
5568 1 -2.43642 4.98811 2.5038 
5567 2 4.3058 3.3061 2.43648 
4924 1 3.41299 -0.0612883 -6.89435 
10764 1 2.42453 -2.52741 1.87955 
4199 2 3.74338 -0.812689 4.01894 
4200 1 -1.7369 -2.7012 -0.577083 
4198 1 1.15369 2.3943 -5.29735 
10763 2 1.35034 -3.7568 -1.37014 
19926 1 -3.94884 4.3114 0.442181 
19924 1 5.41682 -3.03646 9.35057 
19925 2 -1.7934 -1.43264 -0.841651 
9320 2 0.593945 -0.836364 -2.37111 
9319 1 1.05368 -3.07977 -6.60385 
7024 1 2.82732 1.43956 -8.66775 
5722 1 -4.87584 4.43244 0.703298 
17159 2 -5.22692 -3.38402 -0.191306 
13538 2 -1.45921 0.128942 -4.69347 
9321 1 0.570043 -2.3004 3.41287 
11697 1 -6.3616 6.58682 -6.37714 
10762 1 2.44695 -2.97086 -3.83875 
11696 2 3.53076 1.39055 0.30995 
1720 1 -0.365736 0.770142 4.67599 
1721 2 2.15218 -1.56422 2.85779 
17160 1 -1.52796 6.83772 -2.27355 
1722 1 -10.079 1.44716 -5.34547 
5723 2 1.15554 0.203796 -3.71299 
14598 1 -5.88049 4.82966 -3.13128 
20486 2 -1.53617 0.0674091 -3.18515 
20487 1 1.08182 -1.32867 1.24954 
20485 1 1.62373 -4.52184 4.08504 
10943 2 1.69432 -0.31629 -0.179987 
14597 2 -0.47602 -2.3374 -5.56655 
14596 1 3.23458 1.78198 1.63509 
7137 1 -0.236052 2.84963 -0.708674 
7136 2 -2.63488 -0.127143 2.72589 
42 1 4.40237 2.5887 -2.73959 
7135 1 3.28642 5.6465 -0.013073 
18481 1 -4.17628 5.04872 2.00725 
18482 2 -3.56222 -4.71423 3.37417 
10274 2 -0.0110475 -4.91614 -1.77476 
2582 2 0.388716 -1.35169 0.417633 
2583 1 -1.06803 -4.79764 -1.35158 
18483 1 4.95223 -0.38526 0.847505 
7026 1 0.125166 -2.95128 1.4131 
7025 2 -3.10235 -1.44422 1.15619 
11695 1 3.2437 -4.57749 -3.61178 
1857 1 3.03045 5.52323 5.72788 
17696 2 -3.15639 0.314863 -1.27643 
1856 2 1.16497 -0.0587207 -3.05417 
1855 1 1.01355 -2.45464 -0.478775 
17695 1 -6.36108 -1.10994 -2.24026 
5989 1 -4.86086 -2.1839 -0.0800312 
4641 1 -1.993 -0.867624 -0.0794374 
4640 2 -1.41897 -2.46847 -0.904612 
5991 1 -4.7613 2.48035 2.06725 
5990 2 -0.552767 1.28993 -5.33494 
3576 1 0.0800525 -3.59628 1.81055 
8440 1 -1.05827 0.259215 -3.03678 
17697 1 0.0135453 4.89305 -2.27084 
9196 1 4.29091 -4.91643 0.985032 
10944 1 -6.82366 8.12297 0.518742 
3783 1 -1.729 -2.36686 -2.28569 
40 1 3.33392 -5.28874 -4.9021 
41 2 -2.22116 -1.11996 -0.667628 
9198 1 -0.407803 2.08356 1.17263 
17186 2 -0.791989 -2.98287 2.19707 
17185 1 5.68323 2.66876 0.354547 
17187 1 -3.26379 -0.911979 -0.834648 
20922 1 -3.10998 3.80614 1.24238 
20921 2 3.154 2.81108 1.3326 
3782 2 -0.70732 3.81736 0.493046 
10935 1 5.70144 0.660645 3.44071 
3781 1 1.88993 -5.35252 8.00352 
10273 1 0.111424 -3.53619 -4.5695 
5834 2 -1.72998 5.93033 -0.821305 
5833 1 -0.8802 1.50242 3.50223 
5835 1 -3.16916 -1.15751 -0.930327 
1680 1 -2.88573 3.64617 1.88376 
20920 1 0.39376 1.227 -0.835497 
18307 1 7.68859 4.32124 -3.46201 
1679 2 4.02955 1.31936 -2.18459 
1678 1 -0.74898 -1.44943 -2.22501 
6444 1 -0.865153 -2.57902 1.83911 
6443 2 -2.27893 2.79423 -1.90486 
6442 1 -2.38535 1.40704 -1.64551 
13352 2 0.611928 -2.01945 1.17987 
13170 1 6.74807 3.13695 -3.60286 
17118 1 9.84643 -4.1177 0.125181 
889 1 -7.22398 -1.19214 2.29827 
14469 1 -1.50046 1.89134 -1.40713 
890 2 -1.72829 -2.84121 -2.51275 
14468 2 1.4255 1.34816 -0.441713 
891 1 -5.14773 1.15257 -1.56566 
14467 1 0.107242 -6.25568 -0.824388 
7270 1 -2.99807 -1.48985 -1.5479 
7271 2 5.43266 -0.959295 -0.576206 
7272 1 1.51829 -4.73601 5.2734 
1398 1 -2.47907 -3.8646 1.78764 
5401 1 -4.65138 -4.33332 -5.73657 
5402 2 0.00983133 2.13935 -0.467093 
5403 1 -2.63177 -4.70741 0.642944 
11844 1 2.82945 -2.2802 -8.43137 
11843 2 2.6412 -2.60483 -0.425311 
11842 1 4.55236 4.42896 2.67303 
18676 1 -1.92426 -1.75071 0.0279521 
18677 2 1.24992 -2.47 -3.07358 
21264 1 1.48444 -0.869608 1.71153 
20328 1 2.41061 1.0456 2.74994 
9669 1 -3.25369 -2.64752 -2.6441 
17117 2 4.48901 1.27743 -2.67045 
17116 1 5.51075 0.013521 -3.72249 
16506 1 -0.116773 -1.73408 -6.20576 
16505 2 2.51699 1.43776 -2.36643 
16504 1 5.7972 -5.0565 -1.40227 
943 1 -0.662831 -3.50946 -3.69808 
9667 1 -1.90215 -1.1923 1.54506 
16891 1 3.92383 4.24374 2.76402 
16892 2 -3.11877 1.48542 2.11186 
16893 1 -0.809688 0.236552 2.33356 
9668 3 0.793081 -0.282979 2.50121 
7975 1 -4.0913 -1.35697 0.378139 
7976 2 4.10582 -1.31149 2.25904 
13062 1 0.786253 5.92725 -2.82176 
2829 1 -9.16927 -4.09888 -4.23429 
2828 2 -0.0185638 -1.39454 -0.457176 
1468 1 1.25496 -1.66112 -1.32432 
1470 1 2.99388 -2.5091 5.67581 
1469 2 3.94152 2.04283 -1.9303 
8870 2 -0.678171 0.833971 -3.60447 
8869 1 -0.243719 -0.198221 -6.44502 
17944 1 2.25772 0.888426 -2.39827 
11039 2 -3.63737 2.51489 -3.9671 
11038 1 0.829365 7.79384 -1.75293 
17945 2 0.985047 -0.86202 0.139263 
17946 1 -3.01423 3.9829 -2.07742 
19458 1 6.29675 10.9134 1.33449 
3030 1 7.77066 -0.145157 3.94157 
19456 1 -2.4944 -2.85593 3.66415 
19457 3 -6.09722 4.19205 9.05962 
19921 1 -4.95292 -1.5187 1.66502 
19922 2 -2.15492 3.03804 1.39131 
19923 1 3.37475 1.03507 -2.74917 
11059 1 5.18345 -0.276755 -3.77827 
2827 1 1.24232 4.71106 -2.07019 
2601 1 2.14902 1.96697 -1.12066 
16272 1 0.604621 1.96879 -8.31921 
10924 1 1.43599 8.45757 0.259531 
2600 2 0.925191 2.82166 0.881955 
2599 1 -3.88741 0.977879 1.43141 
1830 1 -1.5034 4.65606 -3.40608 
8871 1 1.94615 -0.969091 4.47825 
21454 1 1.64759 2.13447 2.12549 
21455 2 -2.43862 0.331324 3.13654 
12064 1 3.39523 0.301516 -2.23963 
21456 1 -2.31925 4.33912 -5.74975 
12066 1 3.51034 -1.99419 0.264737 
12065 2 1.46097 -1.07153 0.795699 
1829 2 2.75394 6.02765 0.271731 
11825 2 -0.507977 -0.992221 0.517535 
16901 2 0.0535737 3.71532 1.5012 
16900 1 2.96845 -3.63833 -11.0146 
11826 1 3.16156 -6.59211 -4.5561 
19905 1 5.72481 4.82806 -5.83278 
16902 1 4.95214 3.58217 -6.72416 
18844 1 -2.79285 2.38286 1.34119 
14721 1 -2.51717 6.37209 -2.44279 
14720 2 -0.0364262 -1.71273 5.28823 
14719 1 1.10612 2.56366 -8.80517 
17673 1 -2.59927 1.11598 -0.181918 
17672 2 0.954157 1.59508 1.59474 
10926 1 0.10918 -2.68715 3.86282 
10925 2 -1.53824 -3.4241 -1.19695 
7850 2 1.91369 2.80117 -4.51252 
6684 1 3.35509 -0.562023 -0.871407 
6683 2 0.460645 1.32495 -4.84728 
5247 1 -4.37941 -4.65621 -4.81874 
6682 1 -5.74125 3.13129 4.51548 
5246 2 1.3892 2.5597 -3.62244 
7849 1 -0.505463 -1.41377 0.000588695 
12453 1 -1.66151 -6.04688 -6.67062 
13537 1 -4.94838 5.87679 -4.55869 
9945 1 -5.46019 -2.61183 -5.36189 
9944 2 -2.13084 -1.02206 -2.50075 
7851 1 -0.183594 -1.51914 -2.06133 
5724 1 -0.353502 1.20441 2.98841 
16577 2 -1.1589 -6.06697 0.182527 
16576 1 -2.35271 -0.771545 2.30939 
16578 1 1.32437 3.58886 1.59111 
9943 1 3.66834 2.60891 -0.103351 
13211 2 4.76882 -3.33736 -4.03884 
11841 1 -0.420839 -0.583534 3.98165 
11840 2 -1.47773 1.78732 1.03604 
11839 1 -5.10938 3.39652 3.57312 
13212 1 -3.72524 -1.04018 -1.32924 
18845 2 1.54407 1.11827 2.8638 
18846 1 -1.79674 -0.0094151 -2.18501 
8504 2 0.57579 2.00174 -2.44797 
8505 1 -0.29113 3.46972 6.01221 
14322 1 7.7338 -4.85647 -0.212527 
7741 1 -4.12938 -3.34211 0.657398 
11595 1 -0.609629 4.93298 3.0335 
8503 1 -1.03934 -5.9635 3.92588 
11594 2 -3.32494 0.563094 -2.62303 
2581 1 -4.77498 5.01498 2.21623 
9468 1 3.39766 -0.477442 3.69272 
7743 1 0.971924 -0.536936 1.4523 
7742 2 4.16132 -1.73286 5.66085 
16581 1 2.56462 -1.06851 -1.37141 
9466 1 2.45591 -0.393186 5.49127 
9467 2 -3.56717 -3.96898 -3.23583 
2121 1 -8.94546 -1.96044 3.02973 
2120 2 -2.05156 -0.0101967 -1.89992 
2119 1 -2.42155 0.335694 -6.94996 
4639 1 1.44062 -0.0185516 2.52728 
10792 1 -4.28067 -0.0411414 -3.41715 
4714 1 -3.61883 -2.30781 5.76089 
10794 1 3.60717 7.71685 1.82953 
10793 2 0.800777 -3.95883 -2.70807 
4715 2 2.01425 -1.27675 1.73868 
9197 2 -2.47279 3.0796 3.6097 
18130 1 -3.2119 -4.35096 1.22403 
18131 2 -0.967129 2.16193 -0.284994 
10942 1 1.21403 3.49631 2.01452 
18132 1 -2.93813 -6.31026 0.726515 
6246 1 2.3569 3.2363 -1.16483 
6245 3 1.72064 0.0147644 -0.609241 
6244 1 2.31962 2.33462 1.99576 
14321 2 0.182484 -0.310807 2.16845 
14092 1 5.13126 -1.47077 4.51681 
14320 1 -0.513648 3.6163 3.10429 
5863 1 -1.75097 -6.91809 -4.80525 
1886 2 -3.43616 0.719808 -1.99432 
1887 1 -1.77295 0.345259 -0.190612 
16306 1 -1.42545 -5.77349 -2.28037 
16307 2 1.56708 -0.0209556 1.31923 
5864 2 2.09476 -2.56626 -4.57992 
6470 2 2.02087 -2.26327 2.51337 
5865 1 1.15602 4.26916 1.44095 
6469 1 5.28966 -1.27861 -0.637219 
6471 1 3.12608 -2.63285 3.99921 
7111 1 -4.93951 -1.5758 -3.80752 
7112 2 2.2948 3.1927 -1.34037 
7113 1 0.385789 -2.32134 0.934377 
976 1 -4.39797 2.90277 -2.69091 
977 2 1.00181 -1.84448 3.20183 
13169 2 4.66023 -3.56896 -3.20773 
13168 1 1.27166 5.95077 -2.23343 
2557 1 -0.0248038 -0.292213 3.69084 
19013 2 3.8147 -2.82769 1.36876 
4716 1 -1.7552 -0.921721 -3.12082 
13353 1 0.362827 2.68863 0.822624 
17352 1 -1.99648 3.35415 -1.1951 
2487 1 1.62996 -6.518 -0.567629 
2486 2 3.85949 -0.473091 0.357652 
17350 1 -1.1959 1.7265 1.6587 
17351 2 2.60386 0.459914 3.34785 
19012 1 2.35435 0.517684 3.05157 
718 1 -0.382878 -3.17271 -2.7567 
2485 1 -4.36489 -3.69437 -0.588281 
719 2 1.84771 -1.1301 2.77083 
19014 1 0.563923 -1.54455 0.713438 
10233 1 0.910351 7.17717 -2.0192 
1885 1 5.13942 4.58212 -10.1973 
10232 2 2.16725 -3.58845 0.0566281 
10231 1 -2.05125 0.651423 -0.0167133 
1397 2 -3.83795 0.270167 -1.2596 
1396 1 2.73762 -6.13633 1.85662 
9834 1 -1.54769 -4.74641 -8.38494 
9832 1 -4.39116 3.82492 -3.31272 
9833 2 -1.55534 0.79338 1.43827 
4681 1 -0.0344894 0.0307349 -4.1867 
990 1 -0.817706 -3.19483 7.07774 
989 2 1.11191 2.65866 -0.87728 
988 1 7.7038 -6.21968 3.19729 
18678 1 -1.46403 -3.33939 -1.84411 
5141 2 -0.645215 1.33347 1.47629 
5140 1 -1.55937 -2.94973 3.99484 
944 2 5.2482 -2.13017 -1.86953 
945 1 2.27725 1.46716 -0.64477 
11898 1 0.321657 4.41971 0.558241 
11897 2 -0.101938 0.125436 -3.02633 
8123 2 -0.894766 -0.387684 -1.33638 
8122 1 -1.78739 5.89912 0.94569 
8124 1 2.21509 -5.02808 2.48711 
20571 1 2.35596 -4.01897 -2.22279 
20570 2 0.738584 0.988705 -7.30539 
20569 1 2.81136 1.1719 2.1138 
21186 1 -3.69269 10.4844 -0.192881 
7051 1 3.8259 3.02896 1.59626 
11060 2 -0.661679 4.59624 0.225622 
7052 2 1.24255 4.64307 0.288425 
7053 1 2.41336 -1.1235 -1.92536 
8152 1 -11.8644 -4.32519 0.0519765 
8153 2 2.86258 -3.3307 -0.185265 
12993 1 -2.97655 -3.04401 -0.88898 
11061 1 -0.308421 3.71166 -0.567656 
12992 2 -1.25355 -3.30019 0.257817 
12991 1 6.31332 0.965635 3.90563 
2689 1 5.61485 -1.75178 2.93196 
2690 2 -0.96512 0.107457 -0.138185 
8154 1 1.65509 6.83243 -2.28 
8064 1 -1.85682 0.154798 2.57863 
8063 2 5.19079 -0.360487 -1.17221 
11824 1 3.31091 1.57391 1.6069 
2691 1 -2.17847 -0.84967 -4.43571 
4081 1 -7.0397 1.53828 -0.221635 
7747 1 2.5233 1.53842 0.340527 
7748 2 0.136119 0.493071 -0.806694 
7749 1 3.46162 -0.352971 -0.866958 
4529 2 0.513132 -0.607694 -1.62078 
4528 1 -2.87276 3.01993 4.11024 
11178 1 -1.87336 -0.350294 -3.96909 
3847 1 -0.749976 4.00317 -4.81578 
11177 2 0.999596 3.26626 -2.81763 
3848 2 0.908919 -1.75936 0.527602 
1443 1 -3.78577 5.87047 -3.3271 
1442 2 -3.5542 0.852876 1.51407 
11176 1 3.11443 4.42612 -5.60674 
19211 2 -5.68618 2.53647 1.37332 
19212 1 -0.682412 3.62175 2.04795 
17671 1 -0.971645 4.88001 -1.27276 
19210 1 -1.75627 3.72156 6.63908 
327 1 -0.846351 2.47558 2.37047 
582 1 2.25232 -0.765665 3.68226 
581 2 -0.122881 -2.12128 -0.872805 
11079 1 2.01769 -4.84739 1.46769 
1441 1 -3.73613 3.22547 -2.69535 
5857 1 -0.345216 -0.60377 -2.02661 
5858 2 -1.58334 0.586649 4.77265 
5859 1 -1.55002 -0.622658 3.1119 
20647 1 -4.91057 4.14929 -2.69452 
20648 2 2.54566 -3.59857 1.17547 
4262 2 -0.682005 -0.416205 3.53123 
13210 1 5.18352 3.94556 -1.50749 
4261 1 -3.057 9.319 6.33563 
580 1 -2.51947 5.79262 -3.5585 
19005 1 -3.77891 -0.911224 0.382314 
4263 1 1.78601 -1.36012 7.38902 
19004 2 0.818566 2.55968 1.93453 
3849 1 3.7063 0.723054 3.16888 
11593 1 2.12248 0.758415 3.92473 
19495 1 -2.3689 -2.31708 5.95666 
19496 2 1.30039 -1.3415 0.475609 
5245 1 -0.991052 -5.88634 -6.49498 
16580 2 0.949418 0.998439 1.86995 
6466 1 7.30317 -1.26101 4.993 
10463 2 2.69263 -0.334861 2.50519 
6467 2 -1.4416 0.64413 -0.627426 
6468 1 1.62127 -0.83198 2.61156 
10464 1 2.3967 3.13039 5.2751 
19740 1 -2.68026 2.22315 -0.289688 
16579 1 -2.58254 -4.14888 -3.16002 
19738 1 -4.46134 6.02459 -2.65022 
19739 2 -3.87376 -1.33451 1.55936 
17183 2 -2.27848 -0.0542153 -0.499497 
1065 1 -0.2719 -1.68717 0.34159 
1064 2 1.35559 -1.58799 -0.9285 
7393 1 -0.110185 1.82246 -0.567989 
20866 1 2.68345 6.13053 2.71123 
7394 2 -2.36753 -2.72503 0.824519 
7395 1 0.243934 -3.56496 1.87409 
17182 1 -1.18788 6.29402 -7.75052 
21049 1 4.91723 -3.86476 -4.32993 
12731 3 -2.45618 -1.67841 0.247133 
21050 2 -0.53499 1.09321 2.12861 
21051 1 1.0067 1.95669 0.0441223 
12730 1 -1.08465 -1.6418 1.95325 
10462 1 2.20132 2.11642 -0.31253 
14094 1 2.36668 -4.38109 -4.14986 
16308 1 0.280911 -2.80255 0.196809 
16447 1 5.26063 -1.38721 0.467879 
11889 1 3.61003 4.97823 -0.264472 
11887 1 -2.60657 9.91925 -4.62219 
11888 2 0.525119 0.363796 -4.96633 
6590 2 -0.0365209 -2.16731 -0.967944 
978 1 3.50437 5.16204 1.81898 
6591 1 -0.1805 0.941135 -1.40237 
6589 1 3.22336 6.17574 -2.61789 
9306 1 -0.00533515 1.52797 4.54546 
3445 1 -1.81618 -3.68752 -0.529188 
3446 2 2.73493 -1.29929 -1.08111 
3447 1 -1.77031 -6.90826 -0.89783 
13851 1 1.65009 0.670134 -8.38316 
13849 1 -5.13803 2.2439 -2.63672 
13850 2 2.21461 0.223001 3.25989 
342 1 -0.312498 -0.778299 -0.976173 
9305 2 0.524497 -0.53916 4.22643 
265 1 0.584534 4.39409 1.14627 
267 1 -0.4285 -2.08494 1.85799 
266 2 -1.43955 -1.90791 0.414428 
6195 1 -1.13173 -3.21522 5.42382 
3958 1 5.36054 -2.59587 0.224124 
14093 2 -0.111751 -3.55266 -0.808389 
720 1 1.56254 -4.66798 2.56264 
3959 2 -3.52176 -1.96394 -1.83123 
12766 1 -4.06605 -0.794654 0.756162 
5142 1 0.0541392 1.41306 -2.54375 
12767 2 2.31159 0.976542 1.43855 
3960 1 -1.11282 6.92094 -0.805212 
12768 1 -0.813003 2.38167 -3.07456 
883 1 0.302367 2.78526 -8.36414 
884 2 -0.47577 0.353452 1.80775 
19284 1 1.23375 -0.950428 -1.02959 
19282 1 -3.05913 3.14287 2.59709 
13779 1 -7.31137 -2.17357 0.902522 
13778 2 -2.15622 -2.00777 0.617743 
13777 1 -1.81222 1.98232 -4.08694 
11896 1 -0.826896 -3.39188 1.22491 
16653 1 -1.37118 -2.82015 -3.04532 
16652 3 2.06632 1.68702 1.93263 
16651 1 -2.44107 0.352357 0.563454 
15234 1 -6.09012 4.85546 -3.23154 
1858 1 -8.06592 -2.30111 -4.90893 
1859 3 -0.576386 3.54514 0.272642 
8062 1 -0.311112 -0.489422 -0.738133 
624 1 -4.95008 8.48554 -5.81714 
623 2 -2.77746 -2.65287 2.04014 
4530 1 2.87375 0.448641 3.40503 
8391 1 0.698275 6.69723 -4.54345 
8390 2 -5.88751 0.819721 3.01608 
1860 1 6.47587 -1.89654 -7.01957 
8389 1 -5.01149 6.24513 2.51685 
325 1 -4.68552 1.88353 -1.48493 
2017 1 -1.24391 -2.90263 3.89708 
15233 2 1.53151 -2.07514 -0.760146 
326 2 0.379595 1.97287 2.29376 
15232 1 -2.88738 3.11866 -3.11461 
622 1 -5.56358 0.990769 -0.482495 
3652 1 0.321021 2.38552 -0.969875 
3654 1 -3.65481 3.40372 -3.1067 
15750 1 1.2461 0.169442 -3.40739 
3653 3 -4.09126 -0.476818 1.51441 
15749 2 -0.111548 -1.62475 -3.13558 
15748 1 1.97748 1.92343 -3.64648 
19003 1 -0.0503982 2.10012 1.59263 
12400 1 -1.86053 -3.40156 2.13815 
12401 2 0.151731 -1.79201 -0.512594 
12402 1 1.2229 1.08968 -0.343307 
9253 1 -1.34156 -5.3753 -0.958866 
17866 1 2.86179 1.9696 2.62851 
16851 1 -1.00085 -1.04647 -3.61421 
11077 1 1.22358 -0.169377 1.28338 
11078 2 -1.57909 3.67885 1.17398 
16850 2 -0.542581 -0.793379 -3.23158 
19497 1 1.21392 3.52548 4.06968 
10248 1 -2.42646 -4.89918 -0.230664 
2018 2 5.06529 -4.4384 0.690626 
12855 1 -1.08316 8.72989 -0.616293 
12854 2 -0.499589 0.3671 2.57979 
10246 1 -1.07114 -1.73096 0.0846343 
10247 2 4.53033 2.44917 4.30711 
12853 1 -3.66185 3.05682 3.98522 
14755 1 -2.32328 4.30528 -2.02264 
14756 2 0.547106 1.02964 3.62457 
14757 1 -2.5946 0.425259 -3.79233 
7818 1 -3.33377 5.49583 -7.86648 
7817 2 3.14853 0.245906 1.84124 
2019 1 -0.974283 2.06618 -2.55588 
20868 1 1.22589 2.82821 -0.477848 
20867 2 -2.70834 1.0204 0.337563 
17867 2 2.95031 -1.92913 1.66117 
9254 2 -2.43348 -0.0650989 1.55575 
9255 1 -0.130927 3.79536 -1.12709 
7426 1 2.55324 0.389369 -0.41819 
7427 2 0.617864 -0.625629 -0.531126 
12732 1 1.42909 3.40095 0.391011 
7428 1 -3.78204 3.625 -2.07305 
16449 1 2.79525 -1.3158 0.0886983 
16448 2 0.725372 -1.54652 2.05462 
18147 1 -2.81128 -5.18758 1.60405 
18146 3 2.32427 -1.78171 -3.0029 
2114 3 -1.48856 -0.5517 0.178317 
20972 2 1.16566 2.60261 -0.3072 
20973 1 -1.56958 9.89032 -6.78959 
2113 1 -1.05692 4.46619 2.92288 
6194 2 0.818316 -2.60898 -2.59695 
341 2 -0.798166 -0.449343 2.0832 
8857 1 -1.21133 7.60422 -0.207873 
6193 1 2.36394 -3.00714 1.45475 
20971 1 0.772334 -2.90367 0.523406 
340 1 1.38336 -3.23479 -2.33579 
8858 2 -0.699949 0.0296998 -3.03551 
8859 1 0.34149 -1.86638 0.612083 
21475 1 1.81314 4.06286 1.09107 
9304 1 -3.17769 -1.53637 0.521505 
10038 1 -0.540012 -6.3888 2.6911 
10037 2 -2.02413 0.0301238 -2.2196 
21476 2 0.899489 -3.72502 0.71567 
21477 1 5.46725 0.893663 -0.400608 
12898 1 -0.595392 -3.62701 -3.39015 
12899 2 -0.0152405 -2.19566 1.74721 
12900 1 0.155925 -0.358433 -1.76051 
10036 1 8.14587 -0.227169 -2.80532 
2899 1 -0.763093 -1.80393 0.534498 
16906 1 -2.88401 0.567733 -2.71367 
21573 1 -3.96004 -2.80923 -0.795238 
21572 2 -1.5059 -4.6827 -2.89097 
21571 1 0.0186069 1.94941 -1.2355 
2900 2 0.57131 3.37167 1.22229 
18145 1 -3.54869 -1.57949 0.379645 
5537 2 -1.69374 0.399406 2.21044 
5538 1 5.55687 -6.05707 3.28583 
5536 1 0.676797 0.291328 0.61412 
13017 1 5.58704 -5.66154 2.74762 
13016 2 2.29764 3.33817 5.22125 
13015 1 3.56233 1.51296 -4.05357 
885 1 -1.25097 5.85318 1.14662 
17368 1 -2.6818 0.313533 -0.370679 
17369 2 1.34646 -0.628919 0.74571 
17370 1 0.691232 0.303406 -0.0957925 
9515 3 2.8424 -2.81427 0.983126 
9516 1 -5.28555 1.21581 -0.644032 
10215 1 -4.02538 0.00853866 1.18641 
9514 1 -3.17207 -6.96664 4.92813 
10214 3 2.60088 -1.75176 4.02031 
10213 1 3.7903 5.37939 1.78559 
14310 1 0.702654 -4.45235 -2.29724 
15976 1 -0.0115044 6.19598 2.72993 
17868 1 4.52849 0.651473 -4.1799 
6520 1 -2.95692 3.46938 2.67444 
8625 1 4.10265 -5.25247 1.45746 
8624 3 -1.17091 3.65067 -1.29461 
15977 2 -0.879571 1.89751 1.69707 
15978 1 -1.82318 0.264782 2.55409 
14308 1 1.38378 3.10364 -1.94708 
6521 2 0.109319 -0.816942 -3.08352 
6522 1 -6.72553 0.477412 0.481954 
16165 1 0.0748989 -5.34663 -0.598492 
14309 2 -0.169286 -4.31039 2.4472 
16166 2 2.0876 2.61136 0.126678 
2115 1 -1.14561 -2.46838 1.19743 
19265 2 -0.322751 0.884588 -0.877335 
19266 1 -6.30805 -2.00611 -0.192514 
19264 1 -1.17148 -0.446732 4.11167 
17366 2 0.0775501 1.86566 -1.6791 
2763 1 -6.27179 -0.881949 -1.86717 
2762 2 2.80725 0.0793257 -0.453347 
17367 1 -5.57481 -3.17276 -2.07158 
2761 1 1.16439 -3.38177 -3.16459 
8623 1 0.0364512 -0.426778 -2.74489 
20446 1 -5.99214 -6.97433 -3.14226 
20448 1 2.45992 1.2003 1.72348 
20447 3 0.490222 1.72738 2.9053 
3972 1 -1.85552 6.83014 -3.27131 
15797 2 -1.21711 -0.837438 -2.26534 
20143 1 -2.29058 2.24863 -0.221586 
15796 1 1.36514 -1.97894 0.361124 
3970 1 -4.17559 0.864235 -1.38114 
15798 1 -0.139366 3.70397 -2.43667 
3971 3 -1.80091 -1.72059 -1.41612 
7809 1 -4.13497 -4.51266 -5.92488 
11250 1 0.615674 2.12673 1.14141 
11249 2 0.918968 -1.29709 -2.07995 
11248 1 -1.90246 -0.583262 2.79045 
20567 2 -1.00447 0.942231 -3.45383 
5017 1 1.85907 1.05159 3.77437 
6996 1 -0.712599 1.86577 -1.95028 
12504 1 -0.053547 1.90741 -2.98975 
5018 2 -2.81773 0.97027 6.15195 
12503 2 -2.8593 4.23259 1.66093 
12502 1 1.53914 7.05406 -2.00782 
5019 1 -1.20403 1.37757 -3.2776 
20568 1 3.49979 2.3048 -1.17009 
9528 1 -3.97793 2.73689 -0.586995 
9527 2 -3.18556 -0.519281 1.08222 
9526 1 6.38544 -4.4783 0.80229 
17479 1 3.11895 -2.99804 1.09485 
16542 1 2.67669 3.12385 0.797721 
15270 1 -6.90983 -0.116548 4.06246 
17481 1 -3.06436 -2.71218 3.95607 
749 2 0.540575 1.8325 0.572337 
6995 2 -2.25644 -5.20375 -2.52298 
6994 1 3.32654 -2.03451 2.82631 
17480 2 0.551317 -3.45818 -3.10602 
750 1 1.0487 -0.821549 -2.97998 
1202 3 -0.70496 0.316276 -1.4329 
20082 1 0.842065 -3.99881 1.10288 
1203 1 6.25388 -0.503116 -3.94893 
20081 2 2.43551 -4.40566 -0.902094 
11400 1 3.35317 -1.36905 4.07627 
20080 1 -0.12113 -4.18357 -6.98976 
11399 2 1.00418 1.51233 1.33235 
11398 1 -3.97366 2.06353 -2.1983 
9862 1 -0.999941 5.69857 -0.68747 
20145 1 7.36909 -0.349793 0.224902 
20144 2 0.102046 0.298945 -1.40774 
9863 2 0.534144 -1.07416 -1.8156 
1463 2 3.98523 -6.11903 -1.83691 
1464 1 -2.47932 2.97818 0.0729611 
1462 1 -0.32384 -2.42097 1.66047 
5342 3 3.13853 -6.27024 -3.46877 
5341 1 3.11841 1.47299 3.51651 
2212 1 4.20682 -1.91551 -3.58097 
3836 3 3.01331 -0.729308 0.639382 
3837 1 0.592675 -3.32392 4.99042 
16326 1 -1.79555 -0.599156 0.241134 
10101 1 -0.169756 3.11122 5.82433 
9560 2 2.18466 0.0180312 2.46256 
9559 1 2.14748 1.32035 -1.09983 
7588 1 5.91592 1.08299 3.7133 
9561 1 2.16737 -1.9165 -1.81247 
2213 3 2.8101 4.25865 -0.184194 
2214 1 1.44216 -1.13646 1.98812 
19274 2 4.06924 -3.03777 -0.178032 
14669 2 0.224075 -0.905528 1.85908 
3835 1 2.86626 7.02573 0.102114 
16325 2 1.55606 0.764616 0.306205 
19744 1 -4.61515 -4.24869 -1.03785 
19275 1 -2.62224 -0.32776 -0.0189343 
19745 2 -1.92803 2.50157 2.57147 
19746 1 -9.09367 0.375013 -1.65825 
14670 1 -4.77205 1.73619 3.51683 
16540 1 1.05453 -4.86938 8.79758 
17748 1 1.05479 1.54338 1.63327 
17747 3 1.68086 -1.00713 0.198223 
17746 1 1.2742 1.92609 -2.42064 
16541 3 -0.962609 -2.29862 3.38689 
15933 1 -1.23896 3.02276 3.94772 
15269 3 -1.74401 -1.81732 -1.29081 
15268 1 -8.34471 4.84999 2.13162 
14245 1 3.1734 4.33772 5.48957 
14246 2 2.29869 -2.64448 0.875082 
11080 1 2.30546 -2.66123 -1.04385 
15212 2 1.32409 -1.37986 -1.82828 
11082 1 -0.253369 4.07511 -7.41789 
15211 1 -4.99261 3.57265 2.31233 
4069 1 -1.59856 -4.28256 3.50848 
4070 2 -2.18107 -5.52533 -0.0185872 
4071 1 0.190206 0.103995 -1.37504 
14247 1 -2.76214 -2.55755 -7.65179 
411 1 2.15026 1.26949 -3.99885 
409 1 -5.60174 -2.21121 -1.89216 
4768 1 2.74101 -0.368183 2.6065 
410 2 -1.12422 -4.09428 -2.45978 
4769 2 1.75064 -0.0513 -4.26665 
9864 1 -2.98893 -1.59136 -1.0456 
3450 1 -7.15878 -5.41643 -0.274492 
3449 2 -0.297826 0.765129 -2.80235 
18576 1 0.832383 -1.43379 -0.254731 
3448 1 0.249117 9.29937 1.61168 
18575 2 4.34867 2.40618 2.82359 
17627 2 2.58923 -1.9037 -1.12107 
17597 2 0.253023 -0.788329 -1.06212 
17596 1 -8.31569 -10.8329 1.00551 
17628 1 7.5942 3.32594 -2.74418 
17626 1 -0.768966 2.70178 3.66294 
16350 1 1.6875 1.59466 7.77776 