ITEM: TIMESTEP
50000000
ITEM: NUMBER OF ATOMS
585
ITEM: BOX BOUNDS pp pp pp
0.0000000000000000e+00 5.0000000000000000e+01
0.0000000000000000e+00 5.0000000000000000e+01
0.0000000000000000e+00 5.0000000000000000e+01
ITEM: ATOMS id type xs ys zs
2243 3 0.931124 0.0825252 0.427398
5031 1 0.935557 0.0923482 0.431823
2244 1 0.933813 0.0898253 0.430756
294 1 0.910532 0.0725913 0.439572
292 1 0.921578 0.0773911 0.429817
2242 1 0.923776 0.0789016 0.428997
293 3 0.914846 0.0739996 0.43287
4756 1 0.993759 0.0634114 0.435395
5030 2 0.93946 0.0985058 0.434023
5029 1 0.943701 0.102825 0.440383
259 1 0.0195056 0.0277259 0.461356
5776 1 0.0171871 0.0294365 0.459796
260 2 0.0239833 0.0242906 0.467284
868 1 0.941465 0.0287018 0.459269
869 2 0.943532 0.0284257 0.451747
870 1 0.951283 0.0249176 0.451268
11882 2 0.985937 0.0286742 0.463559
11881 1 0.990169 0.0239217 0.467477
7679 2 0.996984 0.0189758 0.473258
7678 1 0.992167 0.0228081 0.468745
5777 2 0.0100476 0.0333896 0.457026
5778 1 0.00443636 0.0385301 0.456522
19675 1 0.00275736 0.0404926 0.4561
7852 1 0.955101 0.0572082 0.452911
15378 1 0.95493 0.0553119 0.455913
15377 2 0.955599 0.0497863 0.461698
21505 1 0.958387 0.0440837 0.471823
15376 1 0.957602 0.0456606 0.469141
7853 3 0.954099 0.0611111 0.44599
7854 1 0.962748 0.0582533 0.443382
15486 1 0.964952 0.0572154 0.442944
19676 2 0.998516 0.0460635 0.456685
15485 2 0.971664 0.0522804 0.441912
11883 1 0.983443 0.0363486 0.461562
19677 1 0.99766 0.0518139 0.46249
15484 1 0.974167 0.0503018 0.448577
2280 1 0.975585 0.0497691 0.451393
2279 2 0.978737 0.0466964 0.458157
2278 1 0.981751 0.0395273 0.460675
2446 1 0.997034 0.0538798 0.464116
2447 2 0.994948 0.0594589 0.468184
14216 3 0.905522 0.0709648 0.449828
14215 1 0.904596 0.0707483 0.458048
16 1 0.903839 0.0714524 0.460419
17 2 0.902075 0.0742197 0.467604
18 1 0.895998 0.0778894 0.471808
14217 1 0.909209 0.0723022 0.442253
2287 1 0.95633 0.083787 0.454059
2288 2 0.963348 0.0789831 0.456732
13647 1 0.957668 0.0924389 0.471456
15783 1 0.955624 0.090009 0.471663
4757 2 0.991106 0.0665158 0.441812
2289 1 0.9704 0.0758502 0.457328
15135 1 0.973275 0.0748614 0.457545
15134 2 0.980777 0.0714101 0.457852
15133 1 0.985765 0.0698543 0.451276
4758 1 0.987423 0.0687661 0.448718
2448 1 0.993414 0.0657132 0.470955
3861 1 0.992536 0.0680327 0.47273
7570 1 0.945225 0.103753 0.442723
7571 3 0.950384 0.105232 0.44875
7572 1 0.954097 0.100945 0.455264
13646 2 0.963499 0.0985804 0.470845
13645 1 0.957997 0.103624 0.472853
21097 1 0.00509957 0.0138048 0.479049
21099 1 0.017877 0.00862109 0.486173
21098 2 0.0114519 0.0109385 0.481269
6532 1 0.0200634 0.00782899 0.487899
6533 2 0.0261583 0.00530583 0.491663
7680 1 0.00297889 0.0148657 0.4779
261 1 0.0248972 0.0259961 0.475478
1156 1 0.0255288 0.0263949 0.478679
1157 2 0.0273038 0.0262389 0.486747
1158 1 0.0269713 0.0290436 0.494078
14901 1 0.0262466 0.0304551 0.497181
2296 1 0.0357626 0.00193339 0.496729
6534 1 0.0329097 0.00299676 0.495013
14028 1 0.0654564 0.00545873 0.502616
18780 1 0.0672567 0.00757386 0.503871
7586 2 0.939148 0.0283892 0.500519
14233 1 0.959869 0.022646 0.500125
9942 1 0.960068 0.0252416 0.498179
9941 2 0.960967 0.0308364 0.493771
14234 2 0.95878 0.0162045 0.504352
14900 2 0.0250002 0.0342985 0.50356
9940 1 0.959666 0.0345393 0.487024
21507 1 0.95964 0.0361908 0.48439
21506 2 0.959567 0.0409287 0.478365
9286 1 0.949569 0.0507723 0.499282
1110 1 0.948351 0.0510291 0.496562
1108 1 0.948114 0.054663 0.484213
18457 1 0.948908 0.0571734 0.481949
1109 2 0.945272 0.0505108 0.489608
12151 1 0.972637 0.0582728 0.477972
16332 1 0.974507 0.0565033 0.478543
16331 2 0.979848 0.0528812 0.481118
470 2 0.982658 0.0419897 0.498083
469 1 0.982154 0.0465432 0.490812
16330 1 0.981858 0.0482149 0.487385
15241 1 0.921082 0.0914186 0.480114
18458 2 0.951026 0.0641014 0.477332
18459 1 0.957702 0.0645199 0.476277
12153 1 0.960463 0.0647409 0.476309
12152 2 0.968271 0.0642214 0.475461
15781 1 0.953868 0.0782534 0.474383
15782 2 0.950282 0.0849558 0.473483
122 2 0.965902 0.0909861 0.500077
3860 2 0.990128 0.0755617 0.476173
3859 1 0.987041 0.0814306 0.480899
15555 1 0.985594 0.0834294 0.482882
15554 2 0.981723 0.0883773 0.487835
123 1 0.972085 0.0864604 0.503673
7152 1 0.0139959 0.12253 0.488693
9216 1 0.0154938 0.122676 0.492171
9215 2 0.0187624 0.123469 0.499674
7151 2 0.0120325 0.121616 0.482242
8136 1 0.92619 0.101303 0.485835
15243 1 0.923934 0.100123 0.484967
15242 2 0.91664 0.0975125 0.483989
8135 3 0.93276 0.103108 0.488938
8134 1 0.939206 0.100724 0.491504
18393 1 0.955575 0.105732 0.47386
18392 3 0.949059 0.109749 0.476638
18391 1 0.946636 0.116181 0.478945
18134 2 0.948638 0.0976666 0.495073
18133 1 0.941509 0.100254 0.492424
121 1 0.958435 0.0938765 0.498122
18135 1 0.956126 0.095008 0.497641
15553 1 0.981834 0.0969537 0.489421
8496 1 0.98204 0.0999849 0.489784
8495 2 0.982763 0.107054 0.491652
3630 1 0.979823 0.108429 0.502326
8494 1 0.981014 0.108119 0.499536
7150 1 0.00419984 0.124228 0.481529
9078 1 0.00144713 0.125343 0.481064
17256 1 0.967894 0.132791 0.480584
14878 1 0.964894 0.133222 0.479952
14879 3 0.958495 0.135504 0.478342
14880 1 0.950748 0.135376 0.477868
9077 2 0.994493 0.129309 0.480071
9076 1 0.987012 0.130075 0.48157
17255 3 0.975516 0.130289 0.482128
17254 1 0.984307 0.13053 0.481871
18441 1 0.991791 0.15368 0.485499
18440 2 0.98785 0.150194 0.490099
18439 1 0.985022 0.144481 0.495385
6404 2 0.982149 0.138471 0.503928
6403 1 0.984239 0.142469 0.497466
2041 1 0.00534268 0.163836 0.475119
2042 2 0.999174 0.159541 0.479157
2043 1 0.993394 0.15536 0.483682
7404 1 0.042272 0.0269841 0.523333
9685 1 0.0443676 0.0248892 0.524685
9686 2 0.0503793 0.0193619 0.527167
17482 1 0.059579 0.0130638 0.527398
9687 1 0.0571393 0.0144872 0.527455
18778 1 0.0767395 0.0188486 0.507612
18779 2 0.0732672 0.0132196 0.506531
462 1 0.0785581 0.0211305 0.507803
461 2 0.0839524 0.0268196 0.508055
17483 2 0.0652153 0.00883005 0.526161
17484 1 0.0660956 0.000566644 0.524862
460 1 0.0918912 0.0244446 0.509012
1366 1 0.0949577 0.023471 0.509214
1367 2 0.102469 0.0202424 0.508975
1368 1 0.10969 0.022144 0.510354
19864 1 0.11315 0.0231298 0.511373
19865 2 0.121033 0.0247016 0.512029
19866 1 0.128573 0.0255049 0.512368
20856 1 0.131769 0.0261841 0.512923
20855 3 0.139431 0.0288574 0.51442
20854 1 0.147875 0.0307906 0.514159
7335 1 0.930766 0.0263401 0.507732
7587 1 0.932846 0.0269231 0.505322
7334 2 0.926008 0.0237785 0.512457
1693 1 0.920811 0.0275604 0.521067
7333 1 0.921905 0.0264737 0.518743
8809 1 0.960775 0.00555197 0.528683
8810 2 0.958159 0.0101229 0.52326
8811 1 0.957847 0.0112956 0.515138
14235 1 0.958232 0.0123065 0.512153
14899 1 0.0299731 0.0329476 0.509901
7403 2 0.0375022 0.0325357 0.519672
7402 1 0.0322855 0.0326932 0.512446
13529 2 0.905193 0.0457818 0.533764
7585 1 0.938855 0.0341608 0.5062
10588 1 0.938691 0.0359901 0.508273
1694 2 0.916035 0.0320241 0.526149
10589 2 0.938392 0.0405593 0.515446
16711 1 0.936886 0.0570067 0.513447
16712 2 0.930946 0.0616737 0.512561
1695 1 0.911869 0.0365928 0.530576
13530 1 0.9105 0.038951 0.531457
9287 2 0.953945 0.0494284 0.506206
567 1 0.962367 0.0340927 0.525264
10590 1 0.942654 0.0441712 0.519321
9288 1 0.958852 0.0517055 0.511864
9054 1 0.960221 0.0523924 0.51403
9053 2 0.9643 0.0549628 0.520738
9052 1 0.963282 0.0597237 0.526704
5871 1 0.962252 0.0614957 0.529617
566 2 0.969466 0.0322693 0.527651
565 1 0.975644 0.0357191 0.524795
12876 1 0.977679 0.0369172 0.522805
471 1 0.98167 0.0412661 0.506643
12874 1 0.981535 0.0412239 0.509667
12875 2 0.981862 0.040564 0.518207
5121 1 0.0149434 0.0902659 0.521139
5120 2 0.0220025 0.0880421 0.519908
5119 1 0.0263627 0.0889401 0.526536
5983 1 0.0123384 0.0912239 0.522103
13123 1 0.906805 0.0745144 0.528901
13124 2 0.90794 0.0672194 0.527334
11532 1 0.911864 0.0921209 0.534137
16713 1 0.923906 0.0652562 0.514346
13125 1 0.915167 0.0668868 0.529277
6321 1 0.918911 0.0667212 0.529988
6320 2 0.925853 0.0660132 0.531693
1753 1 0.935883 0.0694082 0.529689
6319 1 0.933158 0.0684665 0.529821
1755 1 0.949769 0.0700393 0.531863
5869 1 0.952694 0.0692049 0.533039
5870 2 0.959911 0.0656913 0.535293
1754 2 0.943245 0.0718912 0.529808
12125 2 0.991622 0.0770967 0.522828
12124 1 0.992182 0.0720354 0.528353
18000 1 0.991868 0.0701859 0.530208
12126 1 0.986123 0.0779459 0.517292
8160 1 0.984638 0.0783195 0.515219
8159 2 0.980773 0.0821874 0.508866
17999 2 0.989252 0.065627 0.5362
8158 1 0.974795 0.085029 0.505318
5984 2 0.00599173 0.0938797 0.525563
16746 1 0.968168 0.108818 0.527418
11086 1 0.965833 0.110965 0.5276
15348 1 0.95163 0.120665 0.513389
12468 1 0.954126 0.121556 0.511707
12467 2 0.960071 0.122638 0.505634
3628 1 0.968457 0.115659 0.506794
12466 1 0.966064 0.117328 0.506449
15346 1 0.950291 0.117036 0.522105
11088 1 0.952362 0.116767 0.524533
11087 2 0.958813 0.11533 0.529517
15347 2 0.945135 0.116783 0.517002
3629 2 0.975581 0.111061 0.508699
5985 1 0.998514 0.096511 0.525464
13617 1 0.995878 0.0971779 0.525409
13616 2 0.989422 0.0998744 0.526253
13615 1 0.982363 0.100029 0.527581
16744 1 0.979391 0.100589 0.528077
16745 2 0.971842 0.102257 0.5266
14 2 0.979603 0.120379 0.535388
9214 1 0.0213709 0.125728 0.507302
195 1 0.0223508 0.126418 0.510228
194 2 0.024114 0.128937 0.516494
193 1 0.0246495 0.130977 0.523771
9499 1 0.0247052 0.131875 0.526876
9500 2 0.0237465 0.134004 0.534166
17537 2 0.978871 0.133079 0.522709
17538 1 0.980486 0.135398 0.515675
6405 1 0.98051 0.136558 0.512094
13 1 0.978498 0.125879 0.531017
17536 1 0.978706 0.12787 0.529051
2863 1 0.925064 0.00207077 0.539936
2864 2 0.928967 0.00897546 0.542538
2865 1 0.932867 0.0153154 0.544437
8035 1 0.934244 0.0179074 0.545387
8036 2 0.937827 0.0252347 0.548615
8037 1 0.938738 0.030766 0.553207
18773 2 0.996696 0.0003749 0.543194
18772 1 0.992588 0.00710673 0.540993
9918 1 0.991108 0.00984871 0.540126
9917 2 0.987059 0.0170752 0.539096
9916 1 0.986819 0.0259168 0.538974
7101 1 0.986781 0.028845 0.538752
8901 1 0.906177 0.0553204 0.541314
13528 1 0.905961 0.0528593 0.539342
7050 1 0.925538 0.0513403 0.566925
12918 1 0.926203 0.0539266 0.565351
12917 2 0.9262 0.0616238 0.562497
14104 1 0.939051 0.0336392 0.555001
14105 2 0.940444 0.0398965 0.559356
14106 1 0.943636 0.0438546 0.565158
6340 1 0.944681 0.0452933 0.566888
17998 1 0.981713 0.0603335 0.537864
7100 2 0.987675 0.0363604 0.537621
19588 1 0.979621 0.0584124 0.538206
19589 2 0.974934 0.0521514 0.538118
7099 1 0.981275 0.0426835 0.536978
19590 1 0.979099 0.0452756 0.536947
8900 2 0.90703 0.0622871 0.546735
8899 1 0.912571 0.0661797 0.552814
11531 2 0.912374 0.0898021 0.542235
15981 1 0.923052 0.0726766 0.5597
12916 1 0.923726 0.0697245 0.560733
15980 2 0.921125 0.0804563 0.556003
15979 1 0.916437 0.0841162 0.550051
11530 1 0.915032 0.085428 0.547826
13772 2 0.937212 0.0888912 0.566238
6619 1 0.966781 0.0875252 0.561493
3516 1 0.965579 0.0866555 0.563542
6620 2 0.969234 0.0911682 0.556009
21273 1 0.0276261 0.116314 0.55562
21272 2 0.020275 0.116288 0.55914
21271 1 0.0139669 0.118033 0.56216
21036 1 0.0110519 0.118444 0.563293
21035 2 0.00397995 0.11787 0.56733
20764 1 0.0304204 0.116359 0.554335
20765 2 0.0379616 0.11768 0.551446
20766 1 0.0451147 0.114055 0.552421
4021 1 0.0476289 0.112711 0.552686
4022 2 0.0559774 0.110523 0.554881
4023 1 0.0620783 0.115116 0.555546
7419 1 0.0641773 0.117075 0.555336
7418 2 0.0712593 0.121056 0.552568
20839 1 0.94121 0.0969139 0.561156
20841 1 0.949665 0.10822 0.556764
20840 2 0.944892 0.102314 0.55752
13773 1 0.940171 0.0950914 0.562613
4999 1 0.95967 0.12079 0.5513
5001 1 0.950794 0.111068 0.556166
5000 2 0.952548 0.119009 0.554994
6621 1 0.973994 0.0982714 0.552422
14559 1 0.975316 0.100482 0.551522
14558 2 0.979086 0.106039 0.547913
14557 1 0.98032 0.111855 0.54194
15 1 0.980056 0.114054 0.539759
5909 2 0.980245 0.118553 0.567431
5910 1 0.980447 0.119063 0.559881
9501 1 0.0212925 0.136096 0.54242
1152 1 0.0199549 0.136765 0.545032
1151 2 0.0173601 0.138019 0.552225
1150 1 0.0143418 0.140176 0.559002
9187 1 0.0131228 0.140478 0.561515
17994 1 0.0889464 0.140418 0.556096
17993 2 0.0839551 0.134665 0.55342
17992 1 0.0800016 0.127813 0.553442
7417 1 0.0782492 0.125842 0.553473
18874 1 0.091132 0.142551 0.556577
18875 3 0.0976082 0.147457 0.557925
20718 1 0.0991126 0.140044 0.566121
18876 1 0.0991392 0.14227 0.563689
8587 1 0.986926 0.156635 0.566906
8588 2 0.991945 0.157125 0.560775
15202 1 0.985828 0.171074 0.543162
15203 3 0.981172 0.168806 0.549677
8589 1 0.987206 0.161581 0.555107
15204 1 0.985338 0.163128 0.553311
19592 2 0.0262928 0.00315715 0.582594
19593 1 0.0307106 0.00181235 0.589142
19531 1 0.0322282 0.0017201 0.592722
19964 2 0.960238 0.0215929 0.584323
12417 1 0.963606 0.0110481 0.587911
19965 1 0.962747 0.0139958 0.587233
19963 1 0.957245 0.0293777 0.581982
12416 2 0.965526 0.00294947 0.588234
603 1 0.0245126 0.0590819 0.591495
13663 1 0.025272 0.0614426 0.594116
19399 1 0.0167925 0.0459848 0.581
601 1 0.0177188 0.0481039 0.582827
19400 2 0.0147449 0.0410497 0.574882
19401 1 0.00630636 0.0399703 0.575157
20194 1 0.00310719 0.039563 0.575151
602 2 0.0213317 0.0542559 0.585254
7049 2 0.923701 0.0442875 0.571289
7048 1 0.927541 0.0420246 0.577186
2076 1 0.929579 0.0411832 0.579494
2075 2 0.934704 0.0383337 0.584572
17090 2 0.965229 0.0417884 0.599506
6341 2 0.947643 0.0490833 0.571942
2074 1 0.939939 0.0406777 0.590677
10375 1 0.942005 0.0411979 0.592871
10376 2 0.945394 0.04328 0.598537
7023 1 0.966511 0.0601797 0.591517
6342 1 0.951026 0.0537695 0.578377
11232 1 0.952834 0.0546495 0.580918
11230 1 0.964115 0.0591711 0.589706
11231 2 0.957023 0.0568346 0.586844
12878 2 0.990559 0.0576264 0.599291
13581 1 0.992245 0.0611496 0.574243
17089 1 0.969888 0.0416331 0.592281
6715 1 0.971519 0.0414533 0.589524
20196 1 0.986635 0.0392052 0.578243
6716 2 0.976889 0.0408523 0.583579
20195 2 0.994677 0.0385614 0.575965
13580 2 0.999206 0.0613607 0.577769
7021 1 0.979806 0.0615118 0.596873
6717 1 0.983996 0.0392281 0.579468
12877 1 0.982429 0.0599588 0.597446
13579 1 0.00494956 0.0635394 0.582777
13771 1 0.937077 0.0838326 0.571526
2065 1 0.936966 0.082046 0.57405
2066 2 0.936914 0.076978 0.580722
156 1 0.960973 0.0791292 0.596636
4094 2 0.943042 0.0689417 0.596642
14010 1 0.96077 0.0791256 0.599549
3515 2 0.962582 0.0810508 0.569718
2067 1 0.940176 0.0741515 0.587361
4095 1 0.941008 0.0728043 0.59004
154 1 0.961487 0.0804432 0.580133
3514 1 0.961751 0.0807903 0.576813
155 2 0.960971 0.0794976 0.588037
7022 2 0.972398 0.0629701 0.594607
6107 2 0.0235664 0.100981 0.599253
14305 1 0.967015 0.114402 0.586317
14306 2 0.965377 0.121493 0.58164
5908 1 0.976725 0.119459 0.573615
14396 2 0.984729 0.105676 0.598044
21034 1 0.999603 0.11418 0.574123
7515 1 0.997606 0.112534 0.576727
14395 1 0.987877 0.107501 0.59129
7513 1 0.989135 0.107479 0.588839
7514 2 0.993029 0.10766 0.581263
9188 2 0.00874825 0.139814 0.568382
9189 1 0.003629 0.140457 0.574364
15402 1 0.00163151 0.139913 0.576458
20717 2 0.100966 0.135496 0.571163
20716 1 0.10352 0.130882 0.577082
4846 1 0.96754 0.132009 0.578228
14307 1 0.967194 0.129178 0.579771
4847 2 0.968646 0.13912 0.574386
15392 2 0.980786 0.153736 0.575762
4848 1 0.973421 0.14563 0.574212
15393 1 0.97553 0.147815 0.57451
15401 2 0.99623 0.138151 0.581364
13301 2 0.986176 0.131284 0.596341
15400 1 0.990639 0.137013 0.587524
13302 1 0.989258 0.135573 0.589894
15391 1 0.985086 0.15597 0.569791
11663 2 0.00921642 0.0275769 0.609028
13960 1 0.0113043 0.000246584 0.600378
2652 1 0.0125792 0.0184471 0.60463
11664 1 0.0123042 0.0216207 0.606056
2650 1 0.0117513 0.00287586 0.600782
2651 2 0.0147224 0.010377 0.602042
19532 2 0.0342649 0.0029983 0.600205
20283 1 0.0405527 0.0021084 0.609359
19533 1 0.038424 0.00282965 0.606871
14974 1 0.0423002 0.00248076 0.62527
20281 1 0.0425329 0.00200072 0.622252
11662 1 0.00393962 0.033813 0.609754
15907 1 0.00202074 0.0359035 0.610546
14672 2 0.0188211 0.0571097 0.615723
14671 1 0.0265062 0.0554988 0.613401
4938 1 0.0127064 0.0589474 0.60789
14673 1 0.0144513 0.0583173 0.610354
4937 2 0.00847511 0.0600721 0.60216
4936 1 0.000661131 0.0592824 0.600143
19610 2 0.953969 0.0586236 0.608436
19609 1 0.960351 0.0578947 0.612733
15651 1 0.962902 0.0578941 0.614193
15650 2 0.969257 0.0556918 0.617419
17091 1 0.957053 0.0425088 0.599729
10377 1 0.953718 0.0430219 0.599823
15908 2 0.995226 0.0415306 0.610823
15909 1 0.994198 0.0469156 0.615499
8518 1 0.993416 0.0491236 0.617293
8519 2 0.993063 0.0559915 0.621652
12879 1 0.998046 0.0589094 0.599672
2635 1 0.0239745 0.0764493 0.606222
13665 1 0.0249681 0.074225 0.604716
2636 2 0.0229183 0.0848843 0.609882
2637 1 0.0231348 0.091948 0.605702
13664 2 0.0267119 0.0686811 0.599683
14181 1 0.901773 0.0842833 0.611447
14180 3 0.908041 0.0872956 0.612292
14179 1 0.913044 0.0907249 0.617061
688 1 0.914794 0.0919142 0.619277
19611 1 0.950779 0.0635652 0.60346
14009 2 0.961632 0.0786717 0.6073
14008 1 0.961715 0.0806238 0.614547
1023 1 0.961507 0.0809889 0.617583
1022 2 0.96154 0.0844331 0.625785
4093 1 0.949053 0.065626 0.602003
3490 1 0.980967 0.0799752 0.611573
19998 1 0.980769 0.0829511 0.610394
15649 1 0.973534 0.0620493 0.615827
3492 1 0.975191 0.0645955 0.615002
3491 2 0.979724 0.0715325 0.612407
19997 2 0.981054 0.0909557 0.60818
8520 1 0.993319 0.0635992 0.624858
898 1 0.993923 0.0665062 0.626005
899 2 0.994319 0.0734288 0.628772
900 1 0.989359 0.0785332 0.629968
769 1 0.987509 0.0808187 0.630018
1348 1 0.0250274 0.112826 0.600636
6108 1 0.0246165 0.109948 0.600497
1349 2 0.0245787 0.120089 0.601231
6106 1 0.0233649 0.0943991 0.603973
689 3 0.920574 0.0950618 0.62436
690 1 0.928999 0.0948841 0.626235
20478 1 0.931536 0.0950434 0.626782
20477 2 0.939399 0.0957691 0.629053
8681 2 0.967729 0.106201 0.630156
14397 1 0.984138 0.0993992 0.604653
19996 1 0.983368 0.0970939 0.606182
9000 1 0.985962 0.113756 0.61895
8998 1 0.978744 0.106884 0.627551
8999 2 0.986362 0.107889 0.625088
21355 1 0.986386 0.115789 0.616855
21356 2 0.985092 0.121507 0.611632
8680 1 0.975739 0.106553 0.6286
14707 1 0.0201947 0.13008 0.601922
2889 1 0.0138168 0.140392 0.615565
14709 1 0.0146617 0.139649 0.612396
2888 2 0.0102602 0.141056 0.622901
14708 2 0.0170175 0.136389 0.605085
2887 1 0.00486438 0.139091 0.628466
12864 1 0.00275402 0.137807 0.630159
1350 1 0.0215518 0.12758 0.601987
21357 1 0.984997 0.12496 0.605533
13300 1 0.9856 0.126613 0.603283
13556 2 0.0274821 0.00825575 0.642909
14975 3 0.0420656 0.00314795 0.633226
13555 1 0.0306651 0.0166906 0.641834
14976 1 0.0359171 0.00552402 0.636498
13557 1 0.0331165 0.00647577 0.638175
12950 2 3.52096e-06 0.0643904 0.657755
1021 1 0.964463 0.0824761 0.633677
703 1 0.965394 0.0819088 0.636059
704 2 0.969041 0.0787893 0.64276
705 1 0.975661 0.0778067 0.647826
770 2 0.983926 0.0871922 0.630515
4498 1 0.978147 0.0775793 0.650092
4499 2 0.983639 0.0762038 0.65571
12949 1 0.99304 0.0695438 0.657322
4500 1 0.990158 0.0711835 0.657228
771 1 0.983605 0.0920684 0.635987
20476 1 0.945635 0.097683 0.634228
307 1 0.947169 0.0986591 0.635762
308 2 0.95244 0.103143 0.641525
309 1 0.959223 0.103847 0.637434
8682 1 0.961585 0.104162 0.635708
3739 1 0.98313 0.0938438 0.63802
3740 2 0.980935 0.098306 0.644264
3741 1 0.978066 0.101679 0.651622
2464 1 0.976933 0.10279 0.653973
2465 2 0.972466 0.104659 0.660459
12863 3 0.997965 0.135697 0.635463
12862 1 0.996622 0.138406 0.643399
4111 1 0.0196617 0.0616241 0.672986
12951 1 0.00590243 0.0636959 0.661403
4113 1 0.00902676 0.0633847 0.663039
4112 2 0.0148307 0.063602 0.668205
2145 1 0.966768 0.104369 0.671038
2143 1 0.961713 0.103993 0.684975
2144 3 0.962582 0.10443 0.677475
2466 1 0.968264 0.104024 0.668461
5658 1 0.0769445 0.960004 0.511438
5657 3 0.078631 0.965313 0.505779
2298 1 0.0498516 0.998967 0.501163
14027 2 0.0614603 0.998881 0.499543
2297 2 0.0414773 0.998985 0.500151
14026 1 0.0531153 0.998702 0.500876
5656 1 0.0750868 0.971959 0.506659
16050 1 0.0744771 0.97479 0.506998
16049 2 0.0738303 0.982454 0.506925
16048 1 0.0690724 0.984754 0.512977
4161 1 0.067758 0.985926 0.514831
4160 2 0.0653449 0.990908 0.520548
4159 1 0.0663634 0.997568 0.523996
18774 1 0.00190816 0.996848 0.548395
20442 1 0.00370275 0.995859 0.550131
20441 2 0.00774221 0.993021 0.554728
5668 1 0.0140257 0.994292 0.563624
20440 1 0.0120156 0.993877 0.560966
5669 2 0.0182003 0.994447 0.569703
5670 1 0.0218592 0.99832 0.574744
3181 1 0.00973641 0.96826 0.592303
1531 1 0.0107518 0.965472 0.592659
1533 1 0.0197627 0.955634 0.600101
20469 1 0.0208833 0.955452 0.60251
1532 2 0.0139169 0.958073 0.594548
13961 2 0.0103062 0.993013 0.598236
13962 1 0.00769712 0.985683 0.595601
3183 1 0.00715474 0.983186 0.594668
3182 2 0.00673431 0.975838 0.592038
19591 1 0.0231864 0.999726 0.576771
20468 3 0.0246741 0.955602 0.608971
20467 1 0.0260562 0.958876 0.616413
20282 3 0.0442138 0.999222 0.614849
15622 1 0.916606 0.987445 0.533408
15623 3 0.91958 0.994227 0.535327
15624 1 0.923881 0.999788 0.539109
12415 1 0.966691 0.996472 0.591812
