ITEM: TIMESTEP
50000000
ITEM: NUMBER OF ATOMS
2733
ITEM: BOX BOUNDS pp pp pp
0.0000000000000000e+00 5.0000000000000000e+01
0.0000000000000000e+00 5.0000000000000000e+01
0.0000000000000000e+00 5.0000000000000000e+01
ITEM: ATOMS id type xs ys zs
3249 1 0.409266 0.458997 0.468972
3248 2 0.411941 0.450277 0.468537
10911 1 0.408529 0.461695 0.469287
3247 1 0.414948 0.445823 0.463016
10910 3 0.408321 0.469384 0.471326
14254 1 0.447554 0.47256 0.469016
14255 3 0.452749 0.467225 0.472081
5126 3 0.469337 0.481163 0.472473
5125 1 0.472378 0.473476 0.471526
19913 3 0.476647 0.463601 0.471212
19914 1 0.473565 0.470242 0.470701
9707 3 0.544967 0.478275 0.465207
9708 1 0.536861 0.477365 0.463507
9706 1 0.552102 0.475942 0.462395
9291 1 0.605037 0.490903 0.457481
9067 1 0.605952 0.48993 0.454644
9068 3 0.607626 0.488701 0.447981
9069 1 0.6136 0.485093 0.446122
5503 1 0.454426 0.429414 0.477218
756 1 0.477705 0.405516 0.48254
755 2 0.471834 0.410363 0.483244
754 1 0.466589 0.413511 0.479495
6102 1 0.46398 0.414928 0.478853
6101 3 0.457516 0.420025 0.478592
691 1 0.455758 0.42497 0.501875
692 3 0.46087 0.43084 0.499495
19772 2 0.480478 0.418468 0.500679
3004 1 0.481277 0.427586 0.494814
19773 1 0.481665 0.424563 0.496616
6100 1 0.455077 0.42659 0.477783
8827 1 0.505052 0.432154 0.481622
1267 1 0.50799 0.431779 0.481249
1268 2 0.515419 0.43029 0.481954
5504 3 0.454127 0.436626 0.475321
5505 1 0.450891 0.442013 0.478527
3976 1 0.448764 0.444077 0.480587
3977 3 0.444971 0.449223 0.484918
3978 1 0.443458 0.455701 0.487792
10522 1 0.442979 0.458183 0.488583
3005 3 0.480546 0.434776 0.492087
2906 3 0.465254 0.449778 0.49786
2905 1 0.465187 0.456348 0.494003
693 1 0.462067 0.438887 0.499169
2907 1 0.463262 0.441926 0.499103
3825 1 0.464657 0.459151 0.492334
11786 3 0.48267 0.457156 0.488463
19912 1 0.479445 0.459406 0.478243
11785 1 0.480971 0.458769 0.480838
3006 1 0.487902 0.434381 0.488561
8829 1 0.490621 0.434643 0.487082
8828 2 0.497792 0.43372 0.483445
11787 1 0.485084 0.454918 0.496118
17904 1 0.485921 0.454484 0.498897
1269 1 0.517803 0.436804 0.48619
4643 2 0.522129 0.446949 0.48767
4642 1 0.518737 0.439355 0.486916
15726 1 0.524251 0.457225 0.483474
4644 1 0.523286 0.454491 0.484969
5927 3 0.423725 0.489577 0.49877
5928 1 0.420658 0.48444 0.492818
3293 3 0.415117 0.479484 0.485413
3294 1 0.419244 0.483181 0.490661
3292 1 0.4125 0.475222 0.479004
10909 1 0.411669 0.473616 0.476969
5009 3 0.442002 0.482996 0.485325
10523 3 0.441379 0.465465 0.492311
10524 1 0.441 0.47259 0.489241
5010 1 0.440915 0.475282 0.487957
1083 1 0.446465 0.479305 0.50477
1082 3 0.453996 0.481016 0.502153
5008 1 0.441458 0.490775 0.486901
20173 1 0.441422 0.493844 0.487257
3824 3 0.463848 0.464788 0.486756
3823 1 0.458445 0.465708 0.482209
9130 1 0.464763 0.488873 0.478621
5127 1 0.465945 0.487137 0.477072
14256 1 0.456438 0.466013 0.479137
12143 3 0.475479 0.483577 0.495963
12142 1 0.480517 0.482475 0.490648
11503 1 0.482925 0.481265 0.489122
12144 1 0.475429 0.477824 0.500801
19993 1 0.475005 0.475587 0.503331
11504 3 0.488465 0.47868 0.484672
11505 1 0.49525 0.481718 0.481745
14832 1 0.51177 0.491336 0.481989
14606 3 0.511361 0.482068 0.488199
14605 1 0.5117 0.48858 0.483686
14607 1 0.508067 0.476856 0.494342
6 1 0.506007 0.475003 0.496811
5 3 0.500399 0.471704 0.50239
4 1 0.501783 0.463538 0.5048
19486 1 0.532417 0.49035 0.478805
19487 3 0.530048 0.483374 0.481613
15725 3 0.525855 0.464806 0.480351
15724 1 0.527779 0.471987 0.481312
19488 1 0.528527 0.475243 0.481453
8890 1 0.533579 0.493149 0.477803
10574 2 0.559482 0.492843 0.491707
19622 3 0.551063 0.476033 0.494093
10575 1 0.554722 0.485978 0.492914
19621 1 0.553578 0.484159 0.493431
19623 1 0.550573 0.469055 0.491261
4264 1 0.580294 0.489372 0.49097
4983 1 0.578943 0.487296 0.488484
4981 1 0.582014 0.476222 0.480484
4982 2 0.577886 0.483013 0.482545
18319 1 0.639476 0.493963 0.501682
19229 2 0.416863 0.424747 0.533252
19228 1 0.408838 0.424032 0.535696
19230 1 0.424219 0.42708 0.533052
13650 1 0.427141 0.428212 0.532574
19771 1 0.479624 0.424068 0.507144
7047 1 0.479226 0.425586 0.509395
7046 3 0.47768 0.429941 0.516641
7045 1 0.478639 0.431785 0.525217
8991 1 0.421 0.456081 0.512353
8990 3 0.427938 0.459631 0.511715
8989 1 0.43487 0.455887 0.510671
804 1 0.437782 0.45397 0.510579
13649 3 0.434083 0.434377 0.530649
803 3 0.444349 0.450654 0.509651
802 1 0.448969 0.447845 0.51444
13648 1 0.43594 0.442135 0.531204
700 1 0.451406 0.44591 0.516576
11154 1 0.43646 0.444958 0.531014
11152 1 0.442154 0.458237 0.52749
6847 1 0.443646 0.460413 0.526254
11153 3 0.439264 0.452529 0.52913
701 3 0.455807 0.440833 0.521465
16873 1 0.479094 0.432918 0.52775
16874 3 0.48034 0.437359 0.533414
702 1 0.455769 0.438191 0.528307
427 1 0.455321 0.437541 0.531134
18202 1 0.470103 0.455793 0.528175
10527 1 0.472646 0.455858 0.52643
17902 1 0.484132 0.455023 0.512793
10525 1 0.482937 0.45512 0.515469
10526 3 0.47872 0.456499 0.522161
18203 3 0.463503 0.455239 0.53264
17903 3 0.486212 0.453004 0.506925
6306 1 0.424045 0.492131 0.510801
5926 1 0.42437 0.491117 0.507262
16760 3 0.428744 0.473956 0.528971
16761 1 0.427724 0.467746 0.534699
16759 1 0.432964 0.4756 0.521512
4287 1 0.433793 0.476404 0.518812
4286 3 0.437667 0.478301 0.511301
4285 1 0.443892 0.478936 0.506291
6848 3 0.447946 0.46704 0.524044
2891 3 0.450317 0.484804 0.532486
2892 1 0.448975 0.476918 0.530095
6849 1 0.448375 0.473962 0.52894
2890 1 0.450764 0.492391 0.530234
6304 1 0.425155 0.493948 0.526375
14080 1 0.426179 0.493631 0.529473
1081 1 0.457427 0.485864 0.506128
19994 3 0.472182 0.470901 0.508783
3187 1 0.458516 0.48775 0.50766
50 3 0.469698 0.47577 0.525686
49 1 0.47044 0.471877 0.518763
19995 1 0.470743 0.47135 0.515706
51 1 0.476561 0.479451 0.527641
3188 3 0.461866 0.492756 0.512872
17466 1 0.498023 0.464141 0.533017
17465 3 0.49558 0.469115 0.527943
4397 3 0.504582 0.491877 0.508592
17464 1 0.493455 0.475103 0.524025
10408 1 0.492482 0.477295 0.522181
10409 3 0.489322 0.484643 0.517196
4398 1 0.497534 0.488752 0.510858
10410 1 0.495464 0.487756 0.512355
1715 3 0.506701 0.492356 0.532218
10565 2 0.544886 0.492679 0.528933
3805 1 0.528125 0.468476 0.525582
3806 3 0.526963 0.469055 0.532638
10564 1 0.550794 0.489272 0.530556
8606 2 0.559902 0.484464 0.533744
8605 1 0.552759 0.487875 0.531424
2167 1 0.578379 0.493114 0.521371
2168 2 0.583467 0.491105 0.529076
16625 2 0.63054 0.491088 0.533891
12443 2 0.64202 0.476833 0.513348
12442 1 0.644154 0.471775 0.519343
12444 1 0.64102 0.483859 0.510225
10782 1 0.651368 0.490926 0.522421
17434 1 0.67249 0.493642 0.534995
11047 1 0.39381 0.429616 0.544279
11049 1 0.405721 0.424389 0.536744
11048 3 0.398597 0.425358 0.54001
6488 3 0.44156 0.420814 0.560297
6489 1 0.438897 0.426959 0.555985
9169 1 0.43768 0.42969 0.554756
6487 1 0.446244 0.41701 0.565585
13057 1 0.448315 0.416016 0.567216
14152 1 0.527978 0.420823 0.555126
14153 3 0.531927 0.424652 0.561371
14154 1 0.536237 0.431131 0.566615
15292 1 0.420616 0.454212 0.544478
9170 3 0.43467 0.437107 0.553064
15293 3 0.424674 0.45955 0.541832
5107 1 0.426679 0.463116 0.566112
14506 1 0.427838 0.460411 0.565104
14507 3 0.428695 0.453681 0.56228
9171 1 0.432764 0.444635 0.556713
14508 1 0.431753 0.447343 0.5583
13444 1 0.448252 0.452153 0.555838
6898 1 0.448774 0.451137 0.559082
6899 3 0.450629 0.449515 0.566963
13445 3 0.447254 0.453912 0.548809
13446 1 0.445251 0.461591 0.550441
428 3 0.454826 0.436516 0.538571
16875 1 0.484209 0.443753 0.538159
429 1 0.458307 0.436203 0.545079
1704 1 0.459751 0.436348 0.54767
1703 3 0.4651 0.436803 0.554503
18204 1 0.462119 0.461136 0.536514
1702 1 0.467964 0.442864 0.557661
18238 1 0.468767 0.445316 0.558952
18240 1 0.469237 0.458506 0.564917
18239 3 0.471413 0.452751 0.560892
7671 1 0.468593 0.460571 0.566599
9208 1 0.485607 0.446152 0.539791
18756 1 0.513668 0.435841 0.558462
9210 1 0.486303 0.459384 0.544471
9209 3 0.48842 0.453018 0.543568
19324 1 0.485379 0.46232 0.54495
18755 3 0.506846 0.439216 0.56181
18754 1 0.502642 0.445131 0.562357
13252 1 0.500745 0.447768 0.56252
13253 3 0.49687 0.454654 0.56416
11453 3 0.510697 0.462499 0.549263
13254 1 0.493181 0.462203 0.566146
11452 1 0.516643 0.457376 0.548971
12849 1 0.534423 0.451866 0.558882
12848 3 0.527332 0.450008 0.561522
13950 1 0.536901 0.452944 0.558745
13949 3 0.54319 0.456192 0.560023
13948 1 0.548409 0.463019 0.55914
5108 3 0.424042 0.470656 0.567533
5756 3 0.412438 0.473936 0.552678
5757 1 0.417517 0.47283 0.559284
5109 1 0.419632 0.472318 0.56179
5755 1 0.411503 0.47529 0.545418
7170 1 0.4328 0.493334 0.564169
15294 1 0.427188 0.46551 0.536953
21414 1 0.43721 0.478174 0.552226
21412 1 0.443976 0.463947 0.550579
21413 3 0.441136 0.47162 0.550203
3222 1 0.434439 0.493808 0.561443
14081 3 0.427854 0.49396 0.537442
11097 1 0.46196 0.463554 0.538835
7600 1 0.463145 0.489759 0.543279
11096 3 0.461986 0.469748 0.543711
2502 1 0.472154 0.490508 0.561594
11095 1 0.465608 0.474673 0.549689
6999 1 0.470914 0.487892 0.560933
6997 1 0.465956 0.47679 0.552099
6998 3 0.468149 0.480101 0.558128
19325 3 0.484008 0.470611 0.5462
19326 1 0.484597 0.479404 0.546101
12612 1 0.479828 0.493538 0.539635
7602 1 0.476945 0.492836 0.538988
7601 3 0.468867 0.491318 0.538579
10277 3 0.499996 0.492483 0.559804
12611 3 0.487598 0.493124 0.542935
20088 1 0.510185 0.488559 0.561228
10276 1 0.507484 0.489372 0.561193
16521 1 0.509798 0.473017 0.546715
16520 3 0.508877 0.47883 0.543293
16519 1 0.509196 0.484896 0.539018
1714 1 0.508796 0.487191 0.537448
11454 1 0.510031 0.470382 0.547914
4275 1 0.491932 0.46539 0.566735
12610 1 0.492172 0.493444 0.55003
10278 1 0.494381 0.493003 0.552724
20087 3 0.517527 0.486893 0.561235
3807 1 0.530403 0.474054 0.538322
18614 3 0.528583 0.471764 0.561148
18615 1 0.53076 0.463641 0.562094
20086 1 0.523272 0.481582 0.56058
18613 1 0.524881 0.479576 0.560694
5639 2 0.536133 0.480063 0.544513
5640 1 0.531924 0.475949 0.540269
1383 1 0.540303 0.489166 0.548394
5638 1 0.53913 0.486254 0.547245
8607 1 0.566199 0.483016 0.53758
18663 1 0.550627 0.465227 0.558162
18662 2 0.555992 0.471024 0.55515
19412 2 0.570493 0.48395 0.560049
19411 1 0.563483 0.479433 0.55931
18661 1 0.561266 0.476998 0.558593
19353 1 0.584248 0.487209 0.539578
2169 1 0.584196 0.488052 0.536951
9296 2 0.597452 0.492241 0.564224
9295 1 0.60113 0.486808 0.55974
19413 1 0.57619 0.486049 0.555373
19352 2 0.583463 0.48658 0.546735
19351 1 0.578624 0.486571 0.55304
16626 1 0.633927 0.484572 0.538502
19992 1 0.635111 0.48152 0.540258
19990 1 0.643187 0.468283 0.544749
19991 3 0.639377 0.474691 0.543608
7157 2 0.453567 0.395832 0.578838
7158 1 0.445954 0.398918 0.579925
1552 1 0.442857 0.400058 0.580402
7156 1 0.46134 0.396699 0.579805
16391 3 0.453392 0.430039 0.593559
1554 1 0.434717 0.409533 0.582605
15700 1 0.433528 0.412237 0.582496
15701 3 0.431829 0.420515 0.581581
1553 3 0.437058 0.403327 0.582287
2206 1 0.434496 0.43193 0.582517
15702 1 0.43371 0.429172 0.582371
16392 1 0.45648 0.422156 0.595658
8889 1 0.456834 0.419223 0.596487
13058 3 0.455051 0.414739 0.57121
13059 1 0.45984 0.420473 0.573401
20550 1 0.461903 0.422623 0.573887
20549 3 0.467602 0.429257 0.574454
20884 1 0.505905 0.419495 0.587228
20885 2 0.504289 0.423943 0.580167
20886 1 0.498689 0.430361 0.579815
9243 1 0.387939 0.436041 0.570366
12953 3 0.410097 0.438399 0.599217
18804 1 0.41731 0.445669 0.597549
12952 1 0.41517 0.443946 0.597905
9242 2 0.394891 0.43553 0.574801
19938 1 0.40537 0.439735 0.577025
9241 1 0.402564 0.43861 0.575924
19937 3 0.412549 0.441379 0.579313
19936 1 0.420941 0.441924 0.579528
18803 3 0.424655 0.451139 0.596912
16390 1 0.448579 0.437146 0.59434
11331 1 0.434558 0.447427 0.597757
18802 1 0.431705 0.448254 0.597253
6900 1 0.453567 0.447 0.574659
11329 1 0.446625 0.439552 0.595591
4652 3 0.437635 0.458327 0.583154
2208 1 0.435128 0.448185 0.583394
4653 1 0.435879 0.450821 0.583639
2207 3 0.433413 0.439978 0.581756
11330 3 0.44237 0.443945 0.599374
3821 3 0.468709 0.457486 0.598986
20548 1 0.466365 0.435813 0.57871
18096 1 0.465685 0.438538 0.580613
3820 1 0.466338 0.452517 0.593171
18095 3 0.465395 0.444986 0.585079
18094 1 0.465861 0.450286 0.591121
6392 3 0.491897 0.438431 0.581224
1549 1 0.489604 0.449378 0.580969
1550 3 0.487936 0.456889 0.582741
6393 1 0.490446 0.446583 0.580933
6391 1 0.497003 0.432438 0.579955
7138 1 0.542513 0.459935 0.585066
4908 1 0.543047 0.462716 0.583986
10047 1 0.52343 0.453219 0.571679
12847 1 0.524466 0.452281 0.568922
10046 3 0.51951 0.456474 0.57852
11472 1 0.539513 0.443964 0.578627
11470 1 0.537376 0.432975 0.568544
7139 3 0.541737 0.452769 0.586168
11471 3 0.540134 0.437855 0.573661
7140 1 0.540121 0.446654 0.580606
13753 1 0.435534 0.477141 0.591229
14608 1 0.454443 0.479019 0.599377
4651 1 0.442147 0.464036 0.57935
16028 3 0.448138 0.470189 0.571019
16029 1 0.4442 0.465989 0.577086
13755 1 0.432537 0.486086 0.578723
13754 3 0.435509 0.481243 0.585156
7168 1 0.431551 0.487789 0.576552
5789 3 0.453178 0.488467 0.571384
7169 3 0.428953 0.492001 0.570914
5788 1 0.450137 0.481156 0.571925
16027 1 0.449166 0.477618 0.571352
7669 1 0.467666 0.471753 0.576615
9172 1 0.472147 0.490737 0.585724
2705 3 0.455847 0.490194 0.598052
14483 3 0.469215 0.480563 0.582438
14484 1 0.467972 0.474362 0.578118
2704 1 0.45482 0.482472 0.59866
14482 1 0.471284 0.487327 0.585259
7670 3 0.467066 0.465631 0.572548
10293 1 0.490961 0.481947 0.598427
4274 3 0.490343 0.472669 0.569646
17550 1 0.490338 0.479629 0.596494
12414 1 0.488735 0.481614 0.575572
4273 1 0.489183 0.478966 0.57378
12413 3 0.48875 0.489098 0.579156
17549 3 0.488555 0.472279 0.591726
17548 1 0.488432 0.465369 0.585804
1551 1 0.488356 0.463188 0.584973
16457 3 0.524369 0.492275 0.585076
12997 1 0.540629 0.489392 0.59845
4907 3 0.541884 0.470451 0.579644
1604 3 0.521021 0.474042 0.584976
1605 1 0.519628 0.467754 0.58301
10045 1 0.519616 0.464511 0.581957
13321 1 0.541156 0.49202 0.596839
1603 1 0.522503 0.481091 0.584414
16458 1 0.523186 0.484156 0.58435
2399 2 0.549633 0.487453 0.571606
4906 1 0.545795 0.477138 0.575744
2400 1 0.546678 0.479709 0.574446
8887 1 0.452321 0.409992 0.606858
8888 2 0.45664 0.412408 0.600246
12954 1 0.403557 0.434787 0.601766
3822 1 0.471813 0.463084 0.603271
8411 3 0.503853 0.444794 0.601448
8410 1 0.497398 0.440493 0.606509
8412 1 0.505879 0.452692 0.602522
493 1 0.506623 0.45592 0.602188
12057 1 0.418315 0.492971 0.601343
14609 3 0.452258 0.470485 0.601392
14610 1 0.447981 0.46504 0.604829
4181 3 0.470462 0.48748 0.613467
1688 3 0.476852 0.47062 0.609342
4180 1 0.474062 0.47982 0.612633
1687 1 0.474885 0.476811 0.611572
1689 1 0.473142 0.465103 0.605106
10292 3 0.490163 0.488842 0.601668
5825 3 0.50126 0.486722 0.621636
17136 1 0.506862 0.485273 0.611166
5824 1 0.505102 0.48594 0.614302
5826 1 0.497664 0.483708 0.626776
494 3 0.50803 0.464201 0.601589
17134 1 0.509112 0.474907 0.602858
17135 3 0.510689 0.482596 0.605216
495 1 0.508918 0.471972 0.602191
12999 1 0.538818 0.477564 0.608429
12998 3 0.540341 0.483341 0.602659
7354 1 0.609489 0.493447 0.618181
8140 1 0.610857 0.491874 0.615962
8141 3 0.61499 0.487545 0.610847
8142 1 0.621223 0.485266 0.612539
18084 1 0.624202 0.484609 0.613744
18083 3 0.631876 0.483834 0.616454
18082 1 0.638226 0.484886 0.612519
20175 1 0.439466 0.507381 0.4842
9131 3 0.460831 0.494468 0.482943
7761 1 0.466142 0.557258 0.476106
8365 1 0.464385 0.554667 0.47587
8366 2 0.459771 0.548555 0.475238
10648 1 0.446919 0.536213 0.462486
8367 1 0.457478 0.543019 0.472042
10650 1 0.455883 0.540609 0.471101
10649 3 0.450275 0.535751 0.46903
8754 1 0.46979 0.588199 0.478031
7760 2 0.471198 0.56343 0.475819
1069 1 0.448761 0.60118 0.455394
8007 1 0.468674 0.590803 0.477257
8006 2 0.465126 0.59834 0.474591
1070 3 0.456436 0.603803 0.457863
8005 1 0.462616 0.601743 0.467014
1071 1 0.461323 0.602379 0.464828
12481 1 0.431933 0.51357 0.503853
18249 1 0.428659 0.513258 0.503303
18248 3 0.421178 0.512087 0.501293
18247 1 0.418305 0.51259 0.508432
4293 1 0.417303 0.513261 0.51094
20174 3 0.441555 0.502043 0.489202
9132 1 0.456531 0.499597 0.488217
12482 3 0.440442 0.513568 0.506829
12483 1 0.447923 0.514703 0.50556
11784 1 0.451105 0.515486 0.505151
11783 3 0.458886 0.518097 0.503718
11782 1 0.465104 0.517261 0.498727
15231 1 0.467523 0.51712 0.496903
1410 1 0.435618 0.545506 0.497084
1409 3 0.439941 0.541271 0.500988
1408 1 0.44628 0.53955 0.505821
4759 1 0.448518 0.539022 0.507516
4760 3 0.454696 0.53582 0.511993
4968 1 0.461025 0.575454 0.49513
4967 2 0.465395 0.579277 0.500695
4966 1 0.468286 0.584265 0.507373
9951 1 0.469276 0.585585 0.509608
1947 1 0.406974 0.52432 0.517552
4291 1 0.408825 0.521714 0.517513
14082 1 0.431782 0.494587 0.543976
4292 3 0.412891 0.515103 0.517277
6305 3 0.423867 0.494295 0.518913
3189 1 0.466959 0.497829 0.515347
403 1 0.469211 0.499754 0.51686
6934 1 0.451335 0.5115 0.527212
8604 1 0.452269 0.513997 0.526694
6935 3 0.449837 0.504384 0.528227
8603 3 0.456052 0.521498 0.525324
20454 1 0.46184 0.522016 0.543114
6936 1 0.450935 0.496078 0.529542
1946 3 0.403603 0.53033 0.517751
1945 1 0.397972 0.535551 0.519562
8602 1 0.456216 0.527369 0.519344
4761 1 0.455875 0.529716 0.516913
1183 1 0.468596 0.556649 0.520251
14960 3 0.446028 0.537661 0.545156
16402 1 0.431901 0.577455 0.544257
16403 3 0.432267 0.585065 0.541464
9950 2 0.47141 0.588883 0.51709
14479 1 0.465606 0.557905 0.520127
14480 3 0.458283 0.55971 0.519498
14481 1 0.452884 0.565732 0.520932
13629 1 0.451841 0.567864 0.521902
13628 3 0.449313 0.574397 0.524757
13627 1 0.44253 0.5767 0.525553
16404 1 0.438181 0.590858 0.539961
9949 1 0.470211 0.591708 0.524996
9642 1 0.440349 0.592426 0.539287
9641 2 0.446966 0.595583 0.536601
5631 1 0.456648 0.599915 0.540163
9640 1 0.454214 0.598641 0.539413
5630 3 0.463618 0.603751 0.54251
17516 3 0.440299 0.517196 0.552165
14176 1 0.42367 0.520024 0.570665
17515 1 0.435343 0.516143 0.55919
14178 1 0.4339 0.515962 0.561373
14177 3 0.431214 0.515629 0.568377
13244 2 0.414602 0.524703 0.572461
13245 1 0.420869 0.521398 0.571255
3221 3 0.437179 0.494653 0.554
3220 1 0.43305 0.494664 0.546658
15285 1 0.467154 0.522164 0.570099
20453 3 0.461087 0.515272 0.546822
17517 1 0.447488 0.518898 0.548751
20452 1 0.458403 0.509299 0.552696
18922 1 0.455353 0.497741 0.566875
18923 3 0.455929 0.504229 0.56303
5790 1 0.45513 0.494861 0.568141
18924 1 0.457614 0.507526 0.555184
15535 1 0.467871 0.520668 0.572839
3354 1 0.427692 0.550359 0.5709
1114 1 0.429069 0.547572 0.572147
1115 3 0.432318 0.539876 0.573713
1116 1 0.438546 0.535341 0.574322
14170 1 0.469649 0.534458 0.556563
15284 3 0.467197 0.526551 0.563213
15283 1 0.468869 0.531979 0.5584
14959 1 0.445507 0.530967 0.548073
19662 1 0.446778 0.548861 0.546934
14961 1 0.446785 0.545542 0.546156
19661 2 0.447819 0.556579 0.546789
3375 1 0.440874 0.533884 0.574138
3374 3 0.446581 0.529432 0.573385
3373 1 0.452575 0.53452 0.575742
3352 1 0.424502 0.566133 0.572596
3353 3 0.42538 0.558147 0.569927
585 1 0.432323 0.574554 0.546502
584 2 0.431037 0.566997 0.55098
583 1 0.437905 0.563206 0.547935
19660 1 0.440336 0.561668 0.547232
5629 1 0.468483 0.599275 0.547488
20871 1 0.470463 0.598434 0.549944
12056 3 0.412738 0.497188 0.603031
4472 3 0.43504 0.519047 0.589274
4473 1 0.434495 0.514316 0.595425
930 1 0.434304 0.513323 0.597891
4471 1 0.437662 0.524096 0.58273
12055 1 0.413313 0.504791 0.604518
1456 1 0.413359 0.507878 0.605217
929 3 0.434367 0.51102 0.604938
15537 1 0.46943 0.510077 0.58373
2706 1 0.454326 0.497301 0.595381
9174 1 0.470352 0.506932 0.584787
15536 3 0.468958 0.517262 0.579805
134 3 0.459152 0.523919 0.600183
133 1 0.456128 0.516288 0.59621
11556 1 0.45469 0.513669 0.594594
11555 3 0.451754 0.507869 0.590659
11554 1 0.45329 0.500144 0.593978
9173 3 0.471557 0.498683 0.587188
20276 2 0.403124 0.530879 0.585668
15259 1 0.403586 0.542522 0.583993
20277 1 0.403552 0.539369 0.584837
15260 2 0.404408 0.550236 0.582339
20890 1 0.433157 0.549255 0.592439
13243 1 0.410678 0.527574 0.578718
20275 1 0.408894 0.528558 0.580496
20892 1 0.439302 0.548164 0.602011
20891 3 0.435509 0.555034 0.598824
830 3 0.460985 0.542533 0.577982
829 1 0.468779 0.547084 0.578199
135 1 0.463564 0.52968 0.604219
16132 1 0.465187 0.531789 0.605261
831 1 0.45475 0.537057 0.576683
7951 1 0.441772 0.546232 0.603683
15261 1 0.404278 0.558828 0.58454
1458 1 0.410294 0.522225 0.609224
1457 3 0.413195 0.515625 0.607123
928 1 0.440221 0.507495 0.608851
10280 3 0.466079 0.505212 0.612785
10281 1 0.467629 0.496935 0.613328
2478 1 0.442485 0.50593 0.610336
2477 3 0.448384 0.501703 0.614024
10279 1 0.458953 0.503862 0.613857
2476 1 0.455918 0.503188 0.614232
20756 3 0.44481 0.52564 0.619134
20757 1 0.442811 0.517291 0.620249
4182 1 0.468341 0.494065 0.61357
7953 1 0.444972 0.534748 0.614239
7952 3 0.445581 0.541146 0.60898
20755 1 0.444859 0.532441 0.615579
16133 3 0.470358 0.536226 0.609208
6572 3 0.487867 0.612217 0.372567
12324 1 0.484543 0.606607 0.382265
6573 1 0.485227 0.608421 0.379706
6571 1 0.487781 0.619904 0.370482
12323 2 0.484451 0.60368 0.390175
18397 1 0.595976 0.6158 0.388467
12195 1 0.595893 0.617325 0.390969
7093 1 0.605458 0.593991 0.364068
7094 2 0.602077 0.599944 0.368664
7095 1 0.60061 0.604428 0.375411
18399 1 0.599877 0.606235 0.3772
18398 2 0.597662 0.610987 0.383305
8409 1 0.564239 0.633673 0.380385
8408 2 0.563176 0.630162 0.387137
8783 3 0.630647 0.627183 0.3875
8784 1 0.629136 0.626745 0.37914
20906 2 0.525019 0.542492 0.415037
2229 1 0.530991 0.551673 0.412754
20905 1 0.529819 0.548953 0.41259
14520 1 0.519418 0.536352 0.421355
20907 1 0.520812 0.537892 0.419891
15054 1 0.551098 0.541592 0.397664
15053 2 0.556914 0.538819 0.40346
15052 1 0.560379 0.537018 0.410534
7630 1 0.562345 0.536439 0.412708
17181 1 0.556895 0.553165 0.420427
17677 1 0.559146 0.554651 0.419736
17180 2 0.549763 0.550883 0.424034
7632 1 0.564427 0.529069 0.423952
7631 2 0.566087 0.533726 0.417905
15957 1 0.592722 0.55535 0.421909
10282 1 0.595256 0.555979 0.421203
19703 3 0.619672 0.551577 0.420016
10283 2 0.602212 0.556211 0.420349
10284 1 0.610192 0.55376 0.420553
19702 1 0.613039 0.552623 0.420218
2228 2 0.536635 0.558659 0.413212
2227 1 0.540577 0.565385 0.416753
1357 1 0.541591 0.567805 0.41848
1358 2 0.545055 0.573642 0.423486
13954 1 0.562032 0.586607 0.41741
382 1 0.560609 0.587717 0.414866
13972 1 0.570229 0.558784 0.408576
17679 1 0.568368 0.558658 0.410978
17678 2 0.565105 0.558661 0.418124
13974 1 0.583105 0.558109 0.403258
13973 2 0.574494 0.559189 0.402028
10322 3 0.636266 0.586976 0.41581
10323 1 0.638032 0.58089 0.420209
7300 1 0.638116 0.578187 0.422069
12322 1 0.488999 0.59965 0.395961
3165 1 0.490649 0.597826 0.398879
3164 2 0.492815 0.593731 0.405154
3163 1 0.495462 0.596816 0.411817
3687 1 0.496301 0.59761 0.414084
3686 3 0.498549 0.599542 0.421125
17401 1 0.541417 0.613834 0.408018
383 2 0.557095 0.590184 0.408861
8309 2 0.546402 0.604299 0.403429
8310 1 0.542869 0.61126 0.406262
8308 1 0.55012 0.598153 0.404652
384 1 0.551878 0.595595 0.405936
17402 3 0.537407 0.619511 0.412208
10321 1 0.635606 0.591787 0.410667
21452 3 0.656403 0.595491 0.414652
21451 1 0.653772 0.591431 0.423038
21453 1 0.660007 0.596995 0.407711
17243 2 0.537785 0.637066 0.419591
17242 1 0.538613 0.630379 0.415763
17403 1 0.538716 0.627185 0.414167
14218 1 0.558929 0.627272 0.417803
7482 1 0.559543 0.626953 0.414937
7481 3 0.560485 0.62699 0.406176
8407 1 0.562132 0.628692 0.395339
7480 1 0.561468 0.627695 0.3985
8281 1 0.595865 0.641599 0.414625
17605 1 0.595206 0.644294 0.415476
12194 3 0.595849 0.62179 0.397794
6653 3 0.578851 0.634873 0.419224
6652 1 0.575057 0.639673 0.413068
17606 3 0.592446 0.651949 0.416875
12193 1 0.597269 0.626784 0.404613
8283 1 0.597827 0.628423 0.406924
8282 3 0.599114 0.634513 0.41251
8782 1 0.629924 0.629968 0.395476
3330 1 0.628941 0.628286 0.412894
6952 1 0.628882 0.627517 0.415233
3329 3 0.62785 0.630928 0.405331
3328 1 0.628821 0.630807 0.39765
6953 3 0.628345 0.625102 0.423544
17607 1 0.590921 0.659507 0.418748
9312 1 0.491839 0.506271 0.435721
9310 1 0.491018 0.520048 0.439307
511 1 0.491823 0.52328 0.439399
9311 2 0.489436 0.512823 0.440118
3892 1 0.521922 0.512279 0.440697
3893 2 0.517013 0.513133 0.43372
20318 2 0.521944 0.515419 0.45369
4605 1 0.517996 0.525647 0.451399
20319 1 0.518771 0.522536 0.452754
3894 1 0.51462 0.520529 0.429605
14518 1 0.514421 0.523067 0.428594
8564 2 0.54225 0.513535 0.444251
8563 1 0.538217 0.520225 0.441061
19789 1 0.536979 0.522656 0.439013
8565 1 0.547844 0.507641 0.444316
8848 1 0.550527 0.505669 0.444487
8849 2 0.557706 0.502123 0.445836
6854 2 0.562979 0.521858 0.451464
9344 2 0.562304 0.521815 0.432265
9343 1 0.563344 0.523196 0.440808
6855 1 0.563171 0.523525 0.443584
8850 1 0.566236 0.502254 0.446159
4066 1 0.569582 0.502205 0.446611
4067 2 0.577425 0.502208 0.448942
4068 1 0.580495 0.507218 0.453803
9004 1 0.653399 0.521226 0.446746
9005 2 0.646399 0.520008 0.449206
9006 1 0.640025 0.51693 0.449598
513 1 0.494168 0.538447 0.44075
512 2 0.494465 0.530594 0.439159
12189 1 0.494413 0.541604 0.440613
12187 1 0.4918 0.55687 0.442949
12188 2 0.493254 0.549253 0.439213
19790 2 0.533038 0.528358 0.434169
14519 2 0.513944 0.531211 0.425762
20500 1 0.529193 0.538631 0.436735
20501 2 0.52827 0.545561 0.439792
20502 1 0.532565 0.552715 0.438676
4604 2 0.515653 0.53226 0.448154
19791 1 0.530228 0.535756 0.43596
13670 2 0.508606 0.553895 0.453425
4603 1 0.513708 0.53941 0.443643
13669 1 0.510971 0.557075 0.446255
17179 1 0.547549 0.548479 0.431379
9345 1 0.563678 0.526824 0.426575
643 1 0.534506 0.554979 0.438211
18870 1 0.550955 0.537622 0.447268
21459 1 0.553446 0.539231 0.445801
21458 2 0.559309 0.543481 0.444312
18869 2 0.545345 0.534442 0.451013
6214 1 0.567613 0.544748 0.438959
21457 1 0.565784 0.543956 0.440441
15956 2 0.585427 0.552995 0.424607
6215 2 0.573593 0.547995 0.43592
15955 1 0.579661 0.55179 0.429369
6216 1 0.57783 0.550907 0.431504
7943 2 0.595597 0.539254 0.448858
11650 1 0.587053 0.5444 0.453876
7944 1 0.589895 0.543068 0.452283
19704 1 0.624454 0.547463 0.425408
373 1 0.625805 0.545701 0.427352
20678 2 0.619053 0.527345 0.454501
7942 1 0.600547 0.532952 0.447582
19364 2 0.624102 0.553821 0.447504
374 3 0.628499 0.541372 0.43361
375 1 0.628709 0.546699 0.440626
19363 1 0.627822 0.548791 0.442599
12652 1 0.475947 0.583884 0.442819
3151 1 0.491594 0.559485 0.443839
3152 2 0.491578 0.566856 0.448324
321 1 0.512465 0.558218 0.443832
12398 2 0.522759 0.588527 0.449734
320 2 0.515686 0.562761 0.437022
319 1 0.514438 0.56518 0.428858
12397 1 0.522824 0.581812 0.454413
4476 1 0.544194 0.582314 0.427061
1359 1 0.544907 0.579599 0.426278
13956 1 0.562925 0.578245 0.430589
13585 1 0.562615 0.575846 0.433209
644 2 0.539318 0.561951 0.437963
645 1 0.54092 0.568188 0.44139
19059 1 0.541568 0.570643 0.442483
19058 2 0.542348 0.577299 0.445753
19057 1 0.545709 0.584845 0.446545
13586 2 0.560691 0.571089 0.438852
13587 1 0.561679 0.567755 0.446048
18816 1 0.563006 0.566667 0.448809
2979 1 0.547146 0.58749 0.447103
13955 2 0.565208 0.583531 0.42431
18815 2 0.566747 0.563617 0.454473
7175 2 0.590181 0.562951 0.441961
7174 1 0.587185 0.568088 0.439114
14338 1 0.586429 0.570711 0.438009
14339 2 0.585104 0.577265 0.435171
14340 1 0.58035 0.582397 0.439867
7993 1 0.579075 0.583618 0.442224
7994 2 0.574946 0.587124 0.447948
2220 1 0.598189 0.582962 0.451066
18718 1 0.599174 0.584849 0.448226
7176 1 0.596525 0.561523 0.447591
859 1 0.598856 0.561003 0.449494
9898 1 0.616468 0.587875 0.450947
19365 1 0.625208 0.561395 0.450454
6211 1 0.625978 0.56423 0.451549
860 2 0.604525 0.558245 0.453087
7301 3 0.638695 0.571759 0.426427
18857 2 0.643859 0.563217 0.443786
7302 1 0.640692 0.568712 0.434082
18856 1 0.641717 0.567004 0.436572
18858 1 0.650736 0.562996 0.448612
3243 1 0.652986 0.56355 0.450185
6212 2 0.627979 0.571326 0.454104
8843 3 0.651593 0.587646 0.433432
7315 1 0.636041 0.579971 0.454281
7317 1 0.647948 0.588764 0.448975
7316 2 0.64147 0.586761 0.452741
14324 2 0.666688 0.585868 0.445788
14325 1 0.671182 0.582763 0.452353
8842 1 0.658417 0.586535 0.438732
14323 1 0.660792 0.586132 0.440668
18273 1 0.482605 0.610781 0.431985
18272 3 0.489625 0.610782 0.436157
18271 1 0.494624 0.609711 0.442209
2968 1 0.496591 0.608923 0.444797
2969 2 0.501045 0.606056 0.45122
12654 1 0.482765 0.594148 0.452767
12653 3 0.478171 0.591341 0.445583
3685 1 0.503118 0.595832 0.426921
11857 1 0.504497 0.594631 0.42876
11858 2 0.509673 0.590448 0.434764
12399 1 0.516837 0.591013 0.44431
11859 1 0.51468 0.591087 0.441995
11523 1 0.52641 0.609858 0.436576
11522 2 0.519538 0.613089 0.438207
11521 1 0.510448 0.612857 0.438292
663 1 0.528398 0.608509 0.435909
4475 2 0.543094 0.590321 0.429333
4474 1 0.540153 0.596022 0.431287
661 1 0.538474 0.598498 0.432381
662 2 0.534643 0.605244 0.434862
2978 2 0.551019 0.594648 0.448389
2977 1 0.554384 0.598429 0.44135
20619 1 0.556057 0.599497 0.43922
20618 2 0.560437 0.602502 0.434291
8240 2 0.574584 0.611132 0.428011
18720 1 0.595767 0.59346 0.436981
2638 1 0.593753 0.594877 0.434886
20617 1 0.566224 0.606568 0.431567
8239 1 0.568347 0.607974 0.430677
8241 1 0.579633 0.605809 0.428741
2640 1 0.582224 0.603376 0.429264
9968 2 0.569872 0.610038 0.451132
2639 2 0.588865 0.598309 0.430469
9969 1 0.577101 0.614383 0.451197
3715 1 0.579628 0.616577 0.451877
3716 2 0.586009 0.618972 0.453501
18719 2 0.600658 0.590047 0.441667
7362 1 0.611884 0.60792 0.450924
11094 1 0.60954 0.607795 0.453155
7361 2 0.618359 0.607333 0.445092
7360 1 0.613541 0.61253 0.442869
13924 1 0.611037 0.614483 0.442525
13925 3 0.605674 0.620302 0.443007
8844 1 0.652874 0.590442 0.425825
4385 2 0.657398 0.613941 0.435844
4386 1 0.661537 0.606926 0.434221
17244 1 0.532167 0.635948 0.425495
9325 1 0.529897 0.63536 0.427365
9326 2 0.522946 0.634747 0.431762
15112 1 0.516579 0.632463 0.439069
15113 2 0.510769 0.631287 0.444532
9327 1 0.51846 0.632906 0.437224
5356 1 0.53278 0.642444 0.448046
15114 1 0.508668 0.630534 0.453123
5357 2 0.526391 0.644252 0.450835
5582 2 0.550678 0.621468 0.442365
2914 1 0.53522 0.6415 0.446934
13719 1 0.542273 0.620734 0.448059
2915 2 0.542452 0.641211 0.44414
14219 2 0.557307 0.627083 0.42522