LAMMPS data file via write_data, version 5 Jun 2019, timestep = 120000000

5382 atoms
3 atom types
4577 bonds
3 bond types
3772 angles
3 angle types

0.0000000000000000e+00 5.0000000000000000e+01 xlo xhi
0.0000000000000000e+00 5.0000000000000000e+01 ylo yhi
0.0000000000000000e+00 5.0000000000000000e+01 zlo zhi

Masses

1 0.25
2 0.5
3 0.5

Bond Coeffs # harmonic

1 6000 0.15
2 2000 0.4
3 2000 0.4

Angle Coeffs # harmonic

1 100 180
2 5 180
3 5 180

Atoms # angle

6985 1 1 1.8803492393451791e+01 2.7877917288505976e+00 1.5119189961104251e+00
6399 1 1 1.8770310105234859e+01 2.6408595957795105e+00 1.5235797179636557e+00
6398 2 2 1.8689467832871259e+01 2.2200926213376562e+00 1.4571351413110099e+00
6397 1 1 1.8812390967425578e+01 1.9596411477753717e+00 1.1344399950089543e+00
6987 1 1 1.8479785466089389e+01 3.3488792802984082e+00 1.5048074803657305e+00
1909 1 1 8.4954973750974236e+00 5.2158594996607626e+00 5.2149946292639882e-01
1911 1 1 8.5537220943701389e+00 5.2513667845828937e+00 1.3049811863792642e+00
1910 3 3 8.5383376923145082e+00 5.1724757228851477e+00 9.2237318535243917e-01
16922 2 2 2.6003422683589221e+01 5.2914860984508154e+00 2.5150880787345054e-01
16921 1 1 2.5807732218848841e+01 4.9193541201362292e+00 2.1683016293474838e-01
16923 1 1 2.5946885572309800e+01 5.6218517583031948e+00 5.2035738390695085e-01
15289 1 1 3.7038073944229140e+01 8.1788386930639447e+00 4.1015800595565405e-01
15290 3 3 3.7010344776166363e+01 8.1383447173577306e+00 7.8244679713890264e-02
18287 3 3 1.9577179603291309e+01 9.7652337556380449e+00 8.3271608000628516e-01
18288 1 1 1.9585671502900990e+01 9.8631230318302769e+00 1.2296748615677573e+00
18286 1 1 1.9750058393991651e+01 9.8596005015115598e+00 4.7373413340558268e-01
6455 2 2 3.0335791334301049e+01 1.0759160845297510e+01 1.4312489129204564e+00
6454 1 1 3.0479956593047497e+01 1.0461961549017650e+01 1.3003643121594577e+00
15946 1 1 3.8728687696531004e+01 1.0735429096203944e+01 6.3488274681054713e-01
8745 1 1 3.8765840353653452e+01 1.0621582729434136e+01 5.4583717108951246e-01
8744 2 2 3.8739981029029870e+01 1.0379328529533236e+01 2.4342406885384499e-01
20094 1 1 3.9314888950024887e+01 1.0509793887123308e+01 1.5342327425650062e+00
17713 1 1 4.0105552436423913e+01 1.0727872018747558e+01 1.5221276770156948e+00
20092 1 1 3.9973839101975955e+01 1.0736520280375812e+01 1.4955053742773936e+00
20093 2 2 3.9606242085585933e+01 1.0722855133439614e+01 1.4040790133576353e+00
938 2 2 2.4560404405264006e+01 1.2044430188628509e+01 1.3452238823286622e+00
939 1 1 2.4850421391990480e+01 1.1752298976500878e+01 1.1694324542647279e+00
13833 1 1 2.4952129787544219e+01 1.1644598096017548e+01 1.0984314399890382e+00
13832 3 3 2.5278648321633074e+01 1.1413536280868691e+01 8.9803129490748446e-01
13831 1 1 2.5358762371165291e+01 1.1421811464440220e+01 4.6834765052483457e-01
13699 1 1 2.5362535767540788e+01 1.1435307507712308e+01 3.1988988803294710e-01
11118 1 1 3.7699182825652564e+01 1.1871448751768437e+01 1.1125288868354593e+00
6210 1 1 3.7749589725100961e+01 1.1772981166920871e+01 1.2002675605796933e+00
11117 3 3 3.7582225501495792e+01 1.2173889583082603e+01 8.9456584373744397e-01
6209 3 3 3.7916872633082953e+01 1.1453142280473838e+01 1.4086854016428139e+00
6208 1 1 3.8201684647207806e+01 1.1223359843550661e+01 1.1959322492323659e+00
15948 1 1 3.8307407971057401e+01 1.1156246641615100e+01 1.1197678769818831e+00
15947 2 2 3.8607689139607658e+01 1.1021783401795735e+01 9.2663175665731023e-01
20022 1 1 3.8656211796540511e+01 1.1656406454966859e+01 1.3371598682241912e+00
16090 1 1 4.0825184396617601e+01 1.0978281649916529e+01 1.3096627056507586e+00
17715 1 1 4.0722327030038095e+01 1.0909118774976418e+01 1.3986328199149973e+00
16091 3 3 4.1100465116848966e+01 1.1228973396177986e+01 1.0590293653196274e+00
16092 1 1 4.1523066039629690e+01 1.1198771210322185e+01 9.2889793508886709e-01
7463 2 2 2.5402761995909657e+01 1.2582880713633987e+01 1.0491619185815577e+00
7464 1 1 2.5096562734607385e+01 1.2777392692021998e+01 9.3136516600398800e-01
17870 3 3 2.4657882982298442e+01 1.3098181718984636e+01 6.9483661996418034e-01
17871 1 1 2.4964450531637013e+01 1.2865856856008200e+01 8.6912709335278238e-01
937 1 1 2.4324566464243119e+01 1.2373389517220682e+01 1.5289202840731253e+00
17869 1 1 2.4548999239883372e+01 1.3333797244926080e+01 4.0336314794513883e-01
7462 1 1 2.5767023771239099e+01 1.2642241504140165e+01 1.2002937950128765e+00
13492 1 1 2.5924709312368964e+01 1.2666799912322929e+01 1.2582783204658650e+00
13493 3 3 2.6333919905128049e+01 1.2703153934641787e+01 1.3802822927441769e+00
13494 1 1 2.6472373432142042e+01 1.2323666192505804e+01 1.2510458089692502e+00
14655 1 1 3.6726441908181762e+01 1.3109883696915828e+01 5.7653978651653304e-01
14654 3 3 3.6996223418511690e+01 1.2869947238836986e+01 5.2346858473211377e-01
14653 1 1 3.7230022184166764e+01 1.2609911604306447e+01 6.6648911455420790e-01
11116 1 1 3.7323104360812927e+01 1.2512805513739950e+01 7.0910480902281836e-01
8812 1 1 3.7619925508692965e+01 1.3401092457111684e+01 1.0291241602909140e+00
3430 1 1 3.7518230584806957e+01 1.3516094597580757e+01 9.7001087741373127e-01
8813 3 3 3.7868221074283802e+01 1.3177203807642256e+01 1.1704385977858671e+00
15412 1 1 3.8272586088690772e+01 1.3022366350285440e+01 1.5373605868655533e+00
8814 1 1 3.8154885158842212e+01 1.3051710701874301e+01 1.4401368126090963e+00
6000 1 1 3.9201722164591274e+01 1.3558542108789352e+01 1.4009830617817558e-02
7166 3 3 4.6349590621184603e+01 1.3162398998097254e+01 1.0444884466985622e+00
7167 1 1 4.6091529268383034e+01 1.3195692369998895e+01 7.4021871591886057e-01
202 1 1 4.6711340436616787e+01 1.3271660213942086e+01 1.3789184660606129e+00
7165 1 1 4.6601922494420307e+01 1.3253646132176431e+01 1.3102544796389473e+00
12838 1 1 4.6004354693446253e+01 1.3198862109615467e+01 6.0747766742547038e-01
12839 3 3 4.5804039066352928e+01 1.3224824244606499e+01 2.3746305395974426e-01
16118 3 3 4.8173143453011988e+01 1.3199203412942365e+01 1.1117377423173940e+00
16119 1 1 4.8293588957689856e+01 1.3096059121886997e+01 1.4640099876977173e+00
16117 1 1 4.8206281926313068e+01 1.3178314457980070e+01 6.7482616922668703e-01
1249 1 1 2.2203067756473381e+01 1.5318855051569013e+01 2.6256463603858260e-01
2942 2 2 3.2714723551612714e+01 1.4301714269334942e+01 5.0431801798530762e-01
8685 1 1 3.3187465577496859e+01 1.4517976474261950e+01 3.7910450109175642e-01
2941 1 1 3.3043291706056358e+01 1.4480137659569586e+01 4.2714573255234528e-01
2943 1 1 3.2469313466424040e+01 1.4378139904093462e+01 8.4945000061395171e-01
8684 3 3 3.3532949046947301e+01 1.4658879543673169e+01 3.2254843236493186e-01
3431 3 3 3.7303803448503047e+01 1.3857044995307938e+01 7.7624017007755808e-01
3432 1 1 3.7130425459562616e+01 1.4225864412542933e+01 7.0867847693783959e-01
5999 3 3 3.9247175060419423e+01 1.3963700360685584e+01 7.2360500031555280e-02
5998 1 1 3.9438355055433284e+01 1.4142028794042671e+01 3.7797265291200294e-01
14113 1 1 4.2878536075966437e+01 1.5051816957997639e+01 7.1271438081502358e-01
14114 3 3 4.3105968497786087e+01 1.5369945750445165e+01 6.3374088357289504e-01
6491 2 2 4.9416427479956141e+01 1.5092352066915039e+01 7.2885484113262000e-01
9828 1 1 4.9299420146196169e+01 1.4999338747822902e+01 1.2447294170794188e+00
6490 1 1 4.9327257191493835e+01 1.5029461277909459e+01 1.0954064630179410e+00
6492 1 1 4.9196693038824826e+01 1.5143823432184234e+01 4.3364984354127967e-01
19949 2 2 7.8036813510086900e-02 1.6879175920781318e+01 2.8760916381774898e-01
10057 1 1 3.1842384180406928e+01 1.6695270061856039e+01 9.5718493795392701e-01
10059 1 1 3.2630501600677576e+01 1.6888906607157004e+01 9.6582603742901352e-01
10058 2 2 3.2293618255780835e+01 1.6692589388800268e+01 9.7733561743284458e-01
8133 1 1 3.9084419372656875e+01 1.6824620612678586e+01 1.3809120236360670e-01
14115 1 1 4.3171128052289582e+01 1.5759753069060029e+01 5.6558747236483287e-01
9453 1 1 4.3206489025907814e+01 1.5879250034650870e+01 5.4241434990263115e-01
9452 3 3 4.3350105218452917e+01 1.6233819619680922e+01 4.8593200527538088e-01
9451 1 1 4.3576551919829122e+01 1.6262925017657878e+01 1.7828434776261853e-01
10759 1 1 4.6065905983583306e+01 1.5663029151924560e+01 5.0415362186667734e-01
10761 1 1 4.6465597869053902e+01 1.5765566330976458e+01 1.1519739838504381e+00
10760 3 3 4.6367037495039433e+01 1.5625333741592318e+01 7.6294459253527314e-01
19950 1 1 4.9733739243354243e+01 1.6799829903341802e+01 5.4305947917349096e-01
9972 1 1 4.9844363437109415e+01 1.6559566509021280e+01 1.5456373046137459e+00
19948 1 1 4.3461283143379920e-01 1.7093723491818238e+01 2.4903740405596794e-01
13432 1 1 5.5044283107966485e-01 1.7185171548068475e+01 2.1733928031159591e-01
13433 2 2 8.6544532481930359e-01 1.7393855332931501e+01 7.6116595854974878e-02
16795 1 1 3.2748639346623619e+01 1.6945697335026622e+01 9.5739831004050036e-01
16796 3 3 3.3134011013536835e+01 1.7073939800052983e+01 9.0758652124670858e-01
16797 1 1 3.3482371830321725e+01 1.7243208774359104e+01 8.5423694851149290e-01
21441 1 1 4.7202701769834640e+01 1.7722723157350760e+01 1.4438753913228233e+00
21440 3 3 4.7100465352467964e+01 1.7944503344799799e+01 1.1471521516096743e+00
21439 1 1 4.7143580571612205e+01 1.8285747522486663e+01 8.1950563831793000e-01
15015 1 1 4.7171742219298963e+01 1.8391514283751668e+01 7.2682584734353206e-01
17165 3 3 3.3848613352836537e+01 1.9575317179972515e+01 6.8621707175160873e-01
10259 3 3 3.4550883526002927e+01 1.9622971083365737e+01 1.2717029670561326e+00
17166 1 1 3.4093725593027820e+01 1.9553731510755281e+01 9.6841775084337434e-01
10260 1 1 3.4203029453169826e+01 1.9563903258577213e+01 1.0578456738704063e+00
17164 1 1 3.3712664605478984e+01 1.9458081879494511e+01 3.2980623720466851e-01
10258 1 1 3.4806393386584702e+01 1.9519822240614598e+01 1.4847321117229759e+00
15014 3 3 4.7264799572062735e+01 1.8739141747007341e+01 4.9171593987081202e-01
15013 1 1 4.7144853306844041e+01 1.9075266613380546e+01 6.1006677547404597e-01
14813 3 3 5.3452216886411454e+00 2.0030602099284891e+01 1.2739464184756180e+00
14812 1 1 5.4362671846985666e+00 2.0296377446801319e+01 1.0499100143801137e+00
8330 2 2 3.3025209641721410e+01 2.0842548659631817e+01 1.1237110453379620e+00
8329 1 1 3.2880646925824102e+01 2.0514653460367960e+01 1.2922575788949573e+00
19236 1 1 3.2828936705332588e+01 2.0381438139844892e+01 1.3638281718720726e+00
8331 1 1 3.3400281740636906e+01 2.0737490538222641e+01 1.0806293188584917e+00
15264 1 1 3.3541878376498019e+01 2.0716706692338118e+01 1.0630902264226847e+00
15263 3 3 3.3946115852263119e+01 2.0688495584374309e+01 1.0129717750869847e+00
15262 1 1 3.4279452544705840e+01 2.0667789982564639e+01 8.2531555989616356e-01
20553 1 1 3.4438821364860765e+01 2.0658996319425992e+01 7.1243745126856861e-01
20552 3 3 3.4749029681607787e+01 2.0545583240029842e+01 5.5307157290819076e-01
20551 1 1 3.5127714231269223e+01 2.0611730984265829e+01 4.9630985531490407e-01
21473 3 3 4.3927606122939245e+01 2.1077473043895456e+01 6.5087421073396456e-01
21472 1 1 4.3755074669350734e+01 2.0902631950359442e+01 4.3430060613889399e-01
21474 1 1 4.4100368372803651e+01 2.1154820618292092e+01 9.8922235126148728e-01
2707 1 1 2.6046707542629804e+01 2.2813987861146074e+01 3.4741566828878007e-01
1884 1 1 3.5794785994344252e+01 2.2548462291221565e+01 9.4620310834363563e-01
1883 3 3 3.5704637380249984e+01 2.2397633883886066e+01 6.2234911801648185e-01
1882 1 1 3.5584364973239502e+01 2.2142551452948275e+01 3.1688960712264191e-01
18216 1 1 3.5525909227339717e+01 2.2022683621998862e+01 1.9958632154437514e-01
18215 3 3 3.5389198379059280e+01 2.1717668476525564e+01 2.5476112903901772e-03
6163 1 1 1.6214292486738195e+01 2.4068856210759979e+01 5.4111788008885697e-01
6164 2 2 1.6262877138986649e+01 2.3855331214398213e+01 1.8764432000888270e-01
5244 1 1 2.6690036508155693e+01 2.4218054137352404e+01 9.1784558795746138e-02
2095 1 1 3.5132306263925244e+01 2.4102896636574037e+01 5.2665832718253591e-01
2096 3 3 3.5274537182294971e+01 2.3764625505871685e+01 5.9308097489459133e-01
2097 1 1 3.5657117651433225e+01 2.3651708546812575e+01 6.6446159098124491e-01
6344 3 3 4.3088659617972432e+01 2.3407709470242860e+01 2.3183915207583244e-01
6343 1 1 4.3257033976023237e+01 2.3241455095986137e+01 6.2298302269652295e-01
14822 3 3 3.5892745832310062e+01 2.4726191520299956e+01 7.5612820841346329e-01
14823 1 1 3.6235445941579272e+01 2.4685991121070487e+01 5.1607855917080603e-01
5698 1 1 3.6345894910945667e+01 2.4681333384396591e+01 4.3012147859117716e-01
14821 1 1 3.5581319345882903e+01 2.4797805041744109e+01 9.9755578676680845e-01
5699 3 3 3.6694320390408947e+01 2.4638802987022263e+01 2.0444974008644282e-01
12304 1 1 4.0529216791917293e+01 2.4599509700700743e+01 9.3053653811034842e-01
12305 3 3 4.0567908921783797e+01 2.4855172300485965e+01 1.2696153980805795e+00
12306 1 1 4.0793277750551404e+01 2.5126728202128874e+01 1.4650315910641039e+00
3878 3 3 4.0851930090783213e+01 2.5770899098054077e+01 7.2030803684826072e-01
3879 1 1 4.0846665858561082e+01 2.5514442003465042e+01 5.2210469771435841e-01
24 1 1 4.0851432430938956e+01 2.5408335157910596e+01 4.3893255341889847e-01
23 3 3 4.0956316710853216e+01 2.5116481029847076e+01 2.0385374296717734e-01
19546 1 1 4.1659202206986222e+01 2.4833666617451176e+01 7.6858819239488829e-01
19547 3 3 4.1819473502533519e+01 2.5219662173796038e+01 7.7035307253022811e-01
19548 1 1 4.1991925276275829e+01 2.5624437489120776e+01 8.1268001489458508e-01
18402 1 1 4.2063323290976932e+01 2.5783478040596066e+01 8.1562739453653754e-01
3877 1 1 4.0913244169944740e+01 2.6080741251911164e+01 9.8239272367143149e-01
790 1 1 4.2392993981609003e+01 2.4864160442839150e+01 1.4979842583447902e+00
13683 1 1 4.3404998099076757e+01 2.5233377574889882e+01 3.4613138762729578e-01
18517 1 1 4.3027437299220090e+01 2.5566543998705100e+01 1.3347347830827869e+00
13682 3 3 4.3028738072365016e+01 2.5460534324968062e+01 3.6867209611575913e-01
18518 3 3 4.2722904700818354e+01 2.5300275606782456e+01 1.3783027382581583e+00
18519 1 1 4.2504168859222013e+01 2.4983289252091467e+01 1.4725370008450844e+00
13681 1 1 4.2764731978292630e+01 2.5584824951627304e+01 1.0967963902114572e-01
17967 1 1 4.0083254454256760e+01 2.6727211494828595e+01 4.5029199414188853e-01
17966 3 3 3.9961654209016018e+01 2.6371865073980498e+01 2.5946180094928922e-01
1171 1 1 4.0924219453947217e+01 2.6201738068719340e+01 1.0742177359499039e+00
1172 3 3 4.0982562601307258e+01 2.6540615999844025e+01 1.2816032163226720e+00
18401 3 3 4.2190650923705995e+01 2.6144070080939240e+01 7.4521899946959280e-01
18400 1 1 4.2420458066708278e+01 2.6415975027749170e+01 5.2854125587975631e-01
1173 1 1 4.0919954133252503e+01 2.6892409113390244e+01 1.4114007465661675e+00
8914 1 1 4.2340188132657772e+01 2.6793823757791433e+01 1.1716927849558867e+00
1188 1 1 4.2573391491784719e+01 2.7208030917693534e+01 1.2164084088987422e-01
1186 1 1 4.2471790419361341e+01 2.6537706166774687e+01 4.7000135364733209e-01
1187 3 3 4.2632496057640935e+01 2.6892143417940989e+01 3.1703422248685259e-01
8915 3 3 4.2525550351666496e+01 2.6963441569120295e+01 1.4752646466437547e+00
10801 1 1 4.2566073369464874e+01 2.7330889635637771e+01 2.8635036603773444e-02
21109 1 1 4.4489152659466370e+01 2.6671354169913393e+01 1.3254311565737842e+00
16942 1 1 3.7559993108152526e+01 7.1142576027826615e-02 2.7883955792480606e+00
17334 1 1 3.7584592378872152e+01 1.1473275814556211e-01 2.6539242558466523e+00
17332 1 1 3.7565211376126349e+01 5.9067377286053213e-01 1.9800213370603628e+00
17333 2 2 3.7673856101343191e+01 3.0591215824938500e-01 2.2717452217579410e+00
6986 3 3 1.8842152677317877e+01 3.1966677647109427e+00 1.5490738449131185e+00
9292 1 1 3.6289174770711689e+01 7.1056287930556570e+00 2.2557971573311510e+00
3996 1 1 3.5707101071863853e+01 7.6002998137141402e+00 2.3561618215293949e+00
9293 2 2 3.5969502099150482e+01 7.1719401102105707e+00 2.4099656835202596e+00
9294 1 1 3.5755734424353918e+01 7.4647487278752989e+00 2.3724653165365619e+00
10338 1 1 3.6043920625899808e+01 9.1847482724364475e+00 2.2770799582880263e+00
10337 2 2 3.5867868647533200e+01 8.8805582604476960e+00 2.3237362416146636e+00
3995 3 3 3.5589485616216983e+01 7.9874031903969263e+00 2.3720197458807952e+00
3994 1 1 3.5704570031858772e+01 8.3821828889222800e+00 2.3416450453535700e+00
10336 1 1 3.5754585636160066e+01 8.5196588385089136e+00 2.3327870521466036e+00
18477 1 1 3.6141044838212451e+01 9.2975945894449836e+00 2.2153639814507171e+00
18476 2 2 3.6414243654878369e+01 9.5400482943673470e+00 2.0037128279116700e+00
18475 1 1 3.6718129252007429e+01 9.7834819017116246e+00 1.9427294688372954e+00
7083 1 1 3.6819519773051034e+01 9.8898681617207878e+00 1.9155504086144572e+00
7082 3 3 3.7130507082469258e+01 1.0118143469872017e+01 1.8592417112523671e+00
7081 1 1 3.7489467196617497e+01 1.0214451826657157e+01 1.9133394433180497e+00
11475 1 1 3.7627955607252346e+01 1.0235183891014858e+01 1.9196838884140379e+00
11474 3 3 3.8020413501828564e+01 1.0265514959640523e+01 2.0169101060051173e+00
11473 1 1 3.8407770721440450e+01 1.0255424114623734e+01 1.8483545499915579e+00
11851 1 1 3.8533376365218423e+01 1.0242083411289837e+01 1.7864555384922483e+00
11852 2 2 3.8911381600170849e+01 1.0247158229128912e+01 1.6464107529588565e+00
11853 1 1 3.9229732750063988e+01 1.0439304482232105e+01 1.5569618816332089e+00
17714 3 3 4.0502659490153107e+01 1.0739820320997170e+01 1.5817500768948825e+00
13377 1 1 3.0401767161580715e+01 1.1925092975741963e+01 1.9642794920136535e+00
13376 3 3 3.0446959303629001e+01 1.1610403895815470e+01 1.7604064682773073e+00
13375 1 1 3.0396023405736727e+01 1.1249564592487440e+01 1.6202455526881423e+00
6456 1 1 3.0385408233287993e+01 1.1119973022133284e+01 1.5774136701325088e+00
20021 2 2 3.8743021924101598e+01 1.2010412696279959e+01 1.5741239161186220e+00
263 2 2 3.5484429483418531e+01 1.2716563247876069e+01 2.9238216036859632e+00
262 1 1 3.5487481952713843e+01 1.3124274831574084e+01 2.8274241159730273e+00
8886 1 1 3.5473682808198234e+01 1.3269687076144706e+01 2.7777848029304808e+00
264 1 1 3.5868734948824354e+01 1.2559754037212565e+01 2.9615276202677894e+00
19198 1 1 3.6015992873623595e+01 1.2513600586454997e+01 2.9715841364094100e+00
8885 3 3 3.5413444850583062e+01 1.3652120900298845e+01 2.6854484893856596e+00
19199 2 2 3.6403960923104059e+01 1.2342885501469663e+01 3.0304878129695281e+00
15414 1 1 3.8734615655006692e+01 1.2509460787245972e+01 1.6625717605033761e+00
20020 1 1 3.8755088435558633e+01 1.2382961643083988e+01 1.6383622530862822e+00
15413 3 3 3.8628000639242074e+01 1.2884671228749811e+01 1.7008013776057862e+00
20622 1 1 3.8632076607490504e+01 1.3283193999850655e+01 2.5583350363023349e+00
20621 3 3 3.8916457555105353e+01 1.3015641034547496e+01 2.7030128449705497e+00
20620 1 1 3.9106332763666828e+01 1.2845840806538945e+01 2.9779819992486742e+00
18710 3 3 4.6409354423094456e+01 1.2677013067869790e+01 2.6719733101759289e+00
18711 1 1 4.6719594026764980e+01 1.2750357423465472e+01 2.9313278913559726e+00
18709 1 1 4.6009141797052507e+01 1.2658181615897041e+01 2.6740904765794378e+00
16009 1 1 4.5859965500515280e+01 1.2648157418125715e+01 2.7010810804631502e+00
16010 3 3 4.5499303937288580e+01 1.2601038193684898e+01 2.9156591837843502e+00
20239 1 1 4.7109988736656518e+01 1.3254235159075396e+01 2.5376586125528688e+00
20240 3 3 4.7324779735933127e+01 1.3078188461640529e+01 2.8425712775986671e+00
20241 1 1 4.7704029755080434e+01 1.3012738935836396e+01 2.8811759039476819e+00
1541 2 2 4.8287905867048416e+01 1.2885760857944781e+01 2.8650987931702852e+00
1542 1 1 4.7876340210885850e+01 1.2983461836379043e+01 2.8785634026600855e+00
203 3 3 4.7054582276949709e+01 1.3333784282306544e+01 1.5825177520817495e+00
9646 1 1 4.8348086902810536e+01 1.3076390460730575e+01 1.6115783452461723e+00
204 1 1 4.7339769389833130e+01 1.3510529981551292e+01 1.8276859613123078e+00
11854 1 1 4.7454163732893967e+01 1.3631733971730544e+01 1.9150711114457539e+00
9648 1 1 4.8514687781863870e+01 1.2911043352008663e+01 2.3846183637420357e+00
1540 1 1 4.8487048288456975e+01 1.2871459578653649e+01 2.5321237957695644e+00
9647 2 2 4.8586117328838668e+01 1.3023061168835282e+01 2.0274373401189374e+00
9301 1 1 3.4429636203545016e+01 1.5053795791920399e+01 2.8086807503283153e+00
9302 3 3 3.4201320422802326e+01 1.5057706200111900e+01 2.5176191004032229e+00
9303 1 1 3.3864588191387881e+01 1.5223441038844248e+01 2.3532845624255501e+00
18879 1 1 3.3752651997276423e+01 1.5274667611427207e+01 2.3074601387031457e+00
8987 3 3 3.5114380800814033e+01 1.4522905795132788e+01 2.3067303000176307e+00
8884 1 1 3.5284421366947171e+01 1.4042739153630411e+01 2.5625721174614058e+00
8988 1 1 3.5224412264921462e+01 1.4197394550222539e+01 2.4943604128281098e+00
8986 1 1 3.5079532107142143e+01 1.4924032568493395e+01 2.2282224893275155e+00
14079 1 1 3.5078342271170357e+01 1.5051577084549793e+01 2.1761493103323102e+00
16432 1 1 3.6240443572459668e+01 1.4890764766658284e+01 2.3681851143635679e+00
9081 1 1 3.6497237895667055e+01 1.4241677430117798e+01 1.8676029097903124e+00
16434 1 1 3.6461253036057663e+01 1.4360419547624433e+01 1.9577822284874220e+00
16433 3 3 3.6393356528588342e+01 1.4667102016838413e+01 2.1641796938187094e+00
11569 1 1 3.6788644948563260e+01 1.4067607073301073e+01 2.7195846978095459e+00
11570 3 3 3.7055657590316493e+01 1.3999633342615416e+01 2.4645618001337590e+00
9079 1 1 3.6812299296809826e+01 1.3948395196837804e+01 1.9821327610712427e+00
11571 1 1 3.6865812601776916e+01 1.3956031659644710e+01 2.0767772585693001e+00
9080 3 3 3.6607849660764806e+01 1.3925130826938304e+01 1.6262471371328298e+00
20285 3 3 4.3638846409219397e+01 1.5255156975107390e+01 2.4187568793726992e+00
11085 1 1 4.4537351507158498e+01 1.4450990327927911e+01 1.8930635287779896e+00
11084 3 3 4.4489928240486009e+01 1.4711793111761837e+01 2.2108538343887876e+00
20286 1 1 4.3989234057297473e+01 1.5016693796757892e+01 2.2825473368298024e+00
11083 1 1 4.4107354402091048e+01 1.4950189547392000e+01 2.2770889533073566e+00
11855 3 3 4.7659343149831685e+01 1.3866708232996531e+01 2.0699053111027856e+00
11856 1 1 4.7919300845925491e+01 1.4149082750595589e+01 2.1250281439527066e+00
21195 1 1 4.8057094659621690e+01 1.4257038658173164e+01 2.1310428231528338e+00
21194 2 2 4.8400273548769306e+01 1.4466523870781822e+01 2.0592149623380838e+00
5532 1 1 4.9876499909319399e+01 1.4037908397695375e+01 2.8170485319913006e+00
21193 1 1 4.8775783560617008e+01 1.4681755744930104e+01 1.8929154901602396e+00
9826 1 1 4.8918535103613848e+01 1.4753753634526227e+01 1.8152239738128808e+00
9827 2 2 4.9215670490754938e+01 1.4940452735124392e+01 1.6463195491012215e+00
18877 1 1 3.3537152392406036e+01 1.5768674253754913e+01 1.9618172663286477e+00
18878 3 3 3.3425490115930081e+01 1.5425818339404337e+01 2.1583997113609374e+00
14078 3 3 3.5108243925629260e+01 1.5423383299093986e+01 2.0186706670979504e+00
14077 1 1 3.5093587106881053e+01 1.5789474417050698e+01 2.0300006487799691e+00
20055 1 1 3.5112131896105659e+01 1.5946001903360894e+01 2.0594014750485146e+00
20054 3 3 3.5269880167224734e+01 1.6252345696243896e+01 2.1543482755084788e+00
20053 1 1 3.5256463120392922e+01 1.6633446481386741e+01 2.2380600783118778e+00
14532 1 1 3.5260459989164161e+01 1.6784883100421073e+01 2.2851504725968876e+00
15880 1 1 4.3425160775663123e+01 1.5734153758878195e+01 2.6226296254443309e+00
20284 1 1 4.3491839831626478e+01 1.5620479018768888e+01 2.5687774089206994e+00
15881 3 3 4.3206808356913996e+01 1.6021464101565471e+01 2.7703606639564144e+00
15882 1 1 4.2906421165950427e+01 1.6206996173863136e+01 2.6193605303349461e+00
4045 1 1 4.6434538280852074e+01 1.6611875552822791e+01 2.4377658702228584e+00
9971 2 2 4.9820232457602785e+01 1.6827426820896619e+01 1.8911481896990958e+00
14531 3 3 3.5246232920101299e+01 1.7157831777191202e+01 2.4129622177081744e+00
14530 1 1 3.5299878405191492e+01 1.7434145983883461e+01 2.1468835802200252e+00
17577 1 1 4.3302518427696910e+01 1.7808309425735278e+01 2.9518970656169898e+00
17576 3 3 4.3205633966146323e+01 1.7475771661031420e+01 3.0445358616373386e+00
17575 1 1 4.3448070092198272e+01 1.7250293811988939e+01 2.8157992819914264e+00
4046 3 3 4.6491641284693813e+01 1.6951914199340596e+01 2.2125484964032749e+00
4047 1 1 4.6800424912412709e+01 1.7146024671233224e+01 2.0701241182485903e+00
12736 1 1 4.6911404032951339e+01 1.7225199161262804e+01 2.0189749597116351e+00
12737 2 2 4.7192523242761219e+01 1.7481476560280569e+01 1.9284147985772098e+00
12738 1 1 4.7223457209729602e+01 1.7631965531552424e+01 1.5733448332302917e+00
9970 1 1 4.9698087926377973e+01 1.7092184728073860e+01 2.1452883452395137e+00
10269 1 1 4.8736366534419865e+01 1.8182493433821410e+01 2.6404649545414713e+00
10268 2 2 4.8793325619953904e+01 1.8200896400458756e+01 3.0353288227849990e+00
14814 1 1 5.4801388654551175e+00 1.9766954267849147e+01 1.5541575790688702e+00
19254 1 1 3.7609171841409704e+01 1.9222755412501201e+01 2.5906153425972489e+00
16675 1 1 3.7528503963334742e+01 1.9276785027145930e+01 2.6497756527414857e+00
16676 3 3 3.7278952098003785e+01 1.9508124012115228e+01 2.9166667006307483e+00
19252 1 1 3.8338484409778971e+01 1.9032434545198420e+01 2.2173044842945755e+00
19253 3 3 3.7945601584931772e+01 1.9033125203245188e+01 2.3397945863327592e+00
232 1 1 7.1439716055637170e+00 2.1327158047286801e+01 1.9041106931649137e+00
19831 1 1 3.2963464736637157e+01 2.0088821988380715e+01 2.9451309408059649e+00
7147 1 1 3.2872343480177484e+01 2.0179648303814972e+01 2.8224645912462609e+00
7149 1 1 3.2727629589098662e+01 2.0331833402898791e+01 2.0843082396378589e+00
7148 3 3 3.2798375873181534e+01 2.0374285910631173e+01 2.5018243937273001e+00
19234 1 1 3.2730198088352473e+01 2.0284298336058299e+01 1.9581921818117876e+00
19235 2 2 3.2683976131232377e+01 2.0124698144860339e+01 1.5805106390519659e+00
234 1 1 7.5262180429782610e+00 2.1987442515858863e+01 1.9016559845751442e+00
233 2 2 7.4519001473964126e+00 2.1614637165318207e+01 1.9692765142517077e+00
14859 1 1 3.9779856211682450e+01 2.2925151988915410e+01 1.7412049378855632e+00
12292 1 1 4.7001977348608150e+01 2.2531992093806068e+01 2.6578146511172371e+00
12293 3 3 4.7258135076467028e+01 2.2755256133870613e+01 2.8172998202793242e+00
6426 1 1 4.9382460119248805e+01 2.2371746005558990e+01 3.0677043652947500e+00
1352 3 3 4.8600625677202004e+01 2.2825852061716969e+01 2.1719065290047381e+00
6424 1 1 4.8899934534901554e+01 2.2579031729093249e+01 2.5258287321380219e+00
1351 1 1 4.8820955913804532e+01 2.2636831591641325e+01 2.4253284871669534e+00
6425 2 2 4.9107008455316631e+01 2.2376372007285369e+01 2.8245163941934304e+00
10083 1 1 3.5836801520157671e+01 2.4072423844344204e+01 3.0372601643244441e+00
10713 1 1 3.5701178099280618e+01 2.3122543639137533e+01 3.0818430796518110e+00
10081 1 1 3.5673197303365832e+01 2.3291148719684564e+01 3.0804732189107580e+00
10082 3 3 3.5648403787331475e+01 2.3727864267988181e+01 3.0406043057234764e+00
14858 3 3 3.9779693166245757e+01 2.3340911784284938e+01 1.7635076512234873e+00
14857 1 1 3.9727742191900383e+01 2.3792871536629555e+01 1.6922959512781268e+00
3682 1 1 3.9723377171525065e+01 2.3947172387305589e+01 1.6680224047746450e+00
3683 3 3 3.9660375549344280e+01 2.4376642554846779e+01 1.5823981033711356e+00
792 1 1 4.2000571542131730e+01 2.4309523618156611e+01 1.8564791486264429e+00
21433 1 1 4.6361892350349443e+01 2.3613539802578682e+01 2.9711914187815363e+00
21434 3 3 4.6513557696294200e+01 2.3951566353599791e+01 3.0348726492785554e+00
6099 1 1 4.6968685400040151e+01 2.4564974389614843e+01 2.3050170157732186e+00
21435 1 1 4.6684364020375327e+01 2.4238915085638435e+01 2.8605837176701936e+00
5100 1 1 4.7134502850002583e+01 2.4510487062170622e+01 2.2578025953398488e+00
5099 3 3 4.7462899665630076e+01 2.4344992908076524e+01 2.1194341758829132e+00
1929 1 1 4.8223625959119531e+01 2.3220369319795118e+01 2.1124174199957579e+00
1353 1 1 4.8331349716032797e+01 2.3111061999356085e+01 2.1088100263588028e+00
1928 2 2 4.7919100069878951e+01 2.3530050691690018e+01 1.9982525467063399e+00
5098 1 1 4.7655868844362438e+01 2.3993783928816967e+01 2.0676501617054623e+00
1927 1 1 4.7711126962599984e+01 2.3858920596209011e+01 2.0660700864902690e+00
14037 1 1 6.0031238813339263e+00 2.5929248480584214e+01 2.2532158424029269e+00
14004 1 1 6.0374028365702346e+00 2.6013053955420546e+01 2.3837541868535665e+00
14036 3 3 5.8802884522800198e+00 2.5778123983555762e+01 1.8816286685255081e+00
14035 1 1 6.2880886375574967e+00 2.5804691259785344e+01 1.8579364186683558e+00
3684 1 1 3.9746933680194758e+01 2.4749280054938481e+01 1.7745488506957676e+00
11829 1 1 3.9809494031372481e+01 2.4911641845109436e+01 1.8448005052727310e+00
11828 3 3 3.9879219674230988e+01 2.5239608093543684e+01 2.0179673563684233e+00
11827 1 1 3.9519994510197463e+01 2.5103461291620381e+01 2.1916405196685416e+00
791 3 3 4.2153047491692874e+01 2.4602333884416069e+01 1.6082808616896498e+00
6098 3 3 4.6592901333710010e+01 2.4753100688521048e+01 2.4071025212925208e+00
6097 1 1 4.6281937408476864e+01 2.4897320389535434e+01 2.1912620233345641e+00
14002 1 1 6.2653282622483646e+00 2.6346224155891640e+01 3.0460363104079997e+00
14003 2 2 6.1194709156102176e+00 2.6190302561880429e+01 2.7238276668750143e+00
5217 1 1 4.2218112614554329e+01 2.7117847221160826e+01 2.5966224220430139e+00
5215 1 1 4.2621796066687786e+01 2.7005804523601643e+01 1.9805477134197857e+00
8916 1 1 4.2609416421178160e+01 2.6989157812274719e+01 1.8394347448110011e+00
5216 3 3 4.2552248107908007e+01 2.7022644713400791e+01 2.3968441898199853e+00
21110 3 3 4.4570599100504040e+01 2.6546018644164146e+01 1.7030216468342887e+00
6699 1 1 4.4765873193781410e+01 2.6390708310350515e+01 2.1969375059002405e+00
21111 1 1 4.4700080884971491e+01 2.6429320284361925e+01 2.0654767210773235e+00
6698 2 2 4.5082462985505970e+01 2.6331095746084745e+01 2.4972259986298053e+00
6697 1 1 4.5423200340483241e+01 2.6285661323661689e+01 2.6961595650874171e+00
16517 3 3 4.5873012964822863e+01 2.6310333594130885e+01 3.0545459605572365e+00
16518 1 1 4.5540505342349057e+01 2.6295889716960168e+01 2.7906491483327192e+00
16943 2 2 3.7554584481654047e+01 6.7059097802902909e-02 3.1928153408977371e+00
16944 1 1 3.7815546415130740e+01 4.1753946718010276e-02 3.5073893627415709e+00