ITEM: TIMESTEP
50000000
ITEM: NUMBER OF ENTRIES
4226
ITEM: BOX BOUNDS pp pp pp
0 50
0 50
0 50
ITEM: ENTRIES c_binfo[1] c_binfo[2] c_binfo[3] 
3 18316 18317 
3 18317 18318 
1 18318 21261 
3 13070 13071 
3 13069 13070 
2 9050 9051 
2 9049 9050 
3 11915 11916 
3 11914 11915 
2 18533 18534 
2 10900 10901 
1 10900 18534 
2 10901 10902 
2 18532 18533 
1 18532 18555 
3 6068 6069 
3 6067 6068 
1 6067 17473 
2 17473 17474 
2 4048 4049 
1 4048 17475 
2 17474 17475 
3 20450 20451 
3 20449 20450 
1 20259 20449 
2 20258 20259 
2 13567 13568 
2 20650 20651 
2 20257 20258 
3 2317 2318 
3 2318 2319 
2 6259 6260 
2 6260 6261 
1 6261 20934 
3 20932 20933 
3 20933 20934 
3 4228 4229 
1 4228 20932 
3 13034 13035 
3 13033 13034 
1 13033 15357 
2 1519 1520 
2 5801 5802 
2 5800 5801 
1 5800 13758 
2 13757 13758 
2 13756 13757 
1 13035 19437 
3 19436 19437 
3 19435 19436 
1 4863 7440 
3 4862 4863 
3 4861 4862 
2 7439 7440 
3 19751 19752 
2 17680 17681 
3 10394 10395 
3 10393 10394 
3 19750 19751 
3 16955 16956 
3 16954 16955 
2 3481 3482 
1 10395 17682 
2 17681 17682 
2 4237 4238 
1 3483 4237 
2 3482 3483 
2 4238 4239 
3 5612 5613 
3 5611 5612 
3 6611 6612 
3 6610 6611 
2 16001 16002 
2 11005 11006 
1 11005 17427 
2 6086 6087 
2 6085 6086 
2 21260 21261 
3 15167 15168 
2 21259 21260 
1 12192 21259 
2 12190 12191 
1 12190 16045 
2 12191 12192 
3 16045 16046 
3 11137 11138 
3 11138 11139 
2 187 188 
1 187 15168 
2 188 189 
3 15166 15167 
1 15166 20598 
3 20597 20598 
3 20596 20597 
1 798 20596 
3 796 797 
1 796 1309 
3 797 798 
3 1310 1311 
3 1309 1310 
1 1311 7002 
2 11486 11487 
2 7001 7002 
2 7000 7001 
2 11485 11486 
2 3680 3681 
3 8755 8756 
3 8756 8757 
2 3679 3680 
2 13568 13569 
2 20651 20652 
3 3562 3563 
3 3563 3564 
3 7348 7349 
2 5459 5460 
1 3564 5460 
3 14077 14078 
3 14078 14079 
3 8986 8987 
1 8986 14079 
2 4195 4196 
1 4195 7438 
2 4196 4197 
2 7438 7439 
3 1903 1904 
3 1904 1905 
1 1905 3846 
2 20021 20022 
2 3844 3845 
2 3845 3846 
3 11300 11301 
2 13396 13397 
2 13397 13398 
2 1009 1010 
1 1009 2718 
2 1010 1011 
3 4520 4521 
1 4521 11299 
3 11299 11300 
3 4519 4520 
1 4519 16047 
3 16046 16047 
2 2717 2718 
2 2716 2717 
1 2716 16821 
3 16820 16821 
2 10372 10373 
1 10372 16819 
3 16819 16820 
3 16315 16316 
3 16316 16317 
3 11626 11627 
1 11487 11626 
1 10374 11628 
3 11627 11628 
2 10373 10374 
3 3973 3974 
2 1316 1317 
2 1315 1316 
3 12017 12018 
3 19939 19940 
1 19939 20223 
3 19940 19941 
3 12016 12017 
1 12016 19941 
2 4331 4332 
2 4330 4331 
2 19082 19083 
2 19081 19082 
1 17559 19083 
3 21556 21557 
3 21557 21558 
3 17977 17978 
3 17978 17979 
2 11402 11403 
2 11401 11402 
2 18380 18381 
3 6791 6792 
2 8210 8211 
3 6790 6791 
1 6790 20091 
3 20090 20091 
1 11403 12099 
2 12098 12099 
2 12097 12098 
1 7350 12097 
3 7349 7350 
2 5458 5459 
1 5458 6690 
3 6688 6689 
3 6689 6690 
3 20225 20226 
3 20224 20225 
2 18379 18380 
1 18379 20224 
3 12778 12779 
1 12778 17884 
3 12779 12780 
2 17884 17885 
3 10760 10761 
2 4129 4130 
2 4130 4131 
3 8987 8988 
3 8884 8885 
1 8884 8988 
2 262 263 
1 262 8886 
3 8885 8886 
2 17885 17886 
2 14005 14006 
2 14006 14007 
2 5242 5243 
2 5243 5244 
3 1123 1124 
1 8814 15412 
3 15412 15413 
3 15413 15414 
1 15414 20020 
2 20020 20021 
3 1345 1346 
3 1346 1347 
3 12305 12306 
3 12304 12305 
2 9434 9435 
1 9435 20221 
2 20221 20222 
2 20222 20223 
3 3974 3975 
2 8363 8364 
2 8362 8363 
3 2797 2798 
3 2798 2799 
2 20642 20643 
3 20240 20241 
3 20239 20240 
2 20641 20642 
2 12866 12867 
3 17558 17559 
3 17557 17558 
2 8315 8316 
2 8314 8315 
3 2821 2822 
3 2822 2823 
1 2823 8211 
1 9237 18073 
3 18073 18074 
2 8209 8210 
1 8209 18075 
3 18074 18075 
2 9236 9237 
2 9235 9236 
3 20089 20090 
1 12663 20089 
2 12662 12663 
2 12661 12662 
2 1565 1566 
2 1564 1565 
1 1564 12661 
3 8147 8148 
1 8148 20226 
3 10759 10760 
3 7081 7082 
1 7081 11475 
3 7082 7083 
3 11473 11474 
3 11474 11475 
3 8863 8864 
3 8864 8865 
2 11278 11279 
3 16795 16796 
1 10059 16795 
2 11279 11280 
2 10058 10059 
2 263 264 
2 19199 19200 
1 264 19198 
2 19198 19199 
3 8146 8147 
2 15251 15252 
2 15250 15251 
3 16796 16797 
3 14035 14036 
3 14036 14037 
3 1124 1125 
3 10486 10487 
3 10487 10488 
3 8813 8814 
2 227 228 
1 6909 13065 
2 6908 6909 
3 13063 13064 
3 13064 13065 
1 4809 6907 
2 6907 6908 
2 4808 4809 
2 4807 4808 
3 8812 8813 
3 16085 16086 
3 4031 4032 
3 4030 4031 
2 9433 9434 
3 20740 20741 
3 20741 20742 
3 12556 12557 
3 12557 12558 
1 1542 20241 
2 1541 1542 
2 1540 1541 
1 1540 9648 
2 9647 9648 
2 9646 9647 
1 9646 16119 
3 16118 16119 
3 16117 16118 
2 12865 12866 
3 18652 18653 
3 18653 18654 
3 21485 21486 
3 15697 15698 
2 7876 7877 
1 7876 9235 
2 7877 7878 
2 9970 9971 
2 9971 9972 
2 17933 17934 
2 17932 17933 
1 17932 18330 
1 15699 17934 
3 15698 15699 
2 131 132 
1 1431 19200 
2 8656 8657 
1 8656 18547 
2 18547 18548 
3 1430 1431 
2 8657 8658 
3 1429 1430 
1 1429 8658 
3 743 744 
2 10057 10058 
3 18329 18330 
3 18328 18329 
2 130 131 
1 130 18328 
3 2230 2231 
3 2231 2232 
3 9925 9926 
3 9926 9927 
3 10700 10701 
1 14004 14037 
2 14003 14004 
2 14002 14003 
3 7352 7353 
3 7351 7352 
3 10699 10700 
3 20803 20804 
3 1403 1404 
1 1404 20805 
3 20804 20805 
3 3469 3470 
3 3470 3471 
3 1816 1817 
3 1817 1818 
3 925 926 
1 925 1818 
3 926 927 
3 1153 1154 
3 1154 1155 
2 16069 16070 
1 927 16069 
3 16084 16085 
1 16084 17376 
3 17375 17376 
3 17374 17375 
3 4058 4059 
1 3315 10063 
2 3314 3315 
2 3313 3314 
3 10063 10064 
3 10064 10065 
3 11440 11441 
3 11441 11442 
2 13726 13727 
2 5209 5210 
2 5210 5211 
2 15358 15359 
1 11406 15358 
3 11405 11406 
3 11404 11405 
3 17126 17127 
3 17125 17126 
2 12214 12215 
1 12214 17125 
2 12215 12216 
3 2393 2394 
1 2394 7785 
2 18716 18717 
2 18715 18716 
2 6788 6789 
2 6787 6788 
3 17143 17144 
3 16997 16998 
3 16996 16997 
3 15560 15561 
1 6789 13240 
2 13240 13241 
2 13241 13242 
1 1509 15561 
3 1508 1509 
3 1507 1508 
2 20006 20007 
2 20005 20006 
3 20603 20604 
3 20602 20603 
3 4013 4014 
3 21484 21485 
2 20311 20312 
1 20311 21484 
2 20312 20313 
2 7750 7751 
2 7751 7752 
2 2942 2943 
3 34 35 
1 34 18549 
3 4012 4013 
3 35 36 
1 36 4012 
3 8654 8655 
2 11345 11346 
3 8653 8654 
1 8653 11344 
2 11344 11345 
1 7641 20313 
2 7640 7641 
2 7639 7640 
1 7639 8377 
2 8377 8378 
2 8378 8379 
3 19286 19287 
3 19285 19286 
2 16312 16313 
2 16313 16314 
1 5424 16312 
2 2941 2942 
1 2941 8685 
3 8684 8685 
3 8683 8684 
1 8683 11379 
3 11378 11379 
3 11377 11378 
2 613 614 
2 614 615 
3 14822 14823 
3 5698 5699 
1 5698 14823 
3 5699 5700 
2 18548 18549 
2 3592 3593 
2 3593 3594 
3 18997 18998 
3 18998 18999 
3 742 743 
2 7031 7032 
2 7030 7031 
1 7030 16012 
3 16012 16013 
3 16013 16014 
3 15170 15171 
2 1820 1821 
3 16931 16932 
3 16930 16931 
1 1788 15171 
2 1786 1787 
2 1787 1788 
3 1402 1403 
1 1402 15859 
2 15859 15860 
2 15860 15861 
2 20534 20535 
2 16070 16071 
2 10079 10080 
2 13727 13728 
2 10078 10079 
1 10078 15360 
2 15359 15360 
3 2392 2393 
2 7784 7785 
2 7783 7784 
2 2608 2609 
1 2608 7783 
3 17965 17966 
2 12244 12245 
2 12245 12246 
2 641 642 
1 13572 15897 
3 13571 13572 
3 13570 13571 
2 640 641 
1 640 13570 
2 15896 15897 
2 15895 15896 
2 16583 16584 
2 2609 2610 
1 2610 5064 
3 5063 5064 
3 5062 5063 
3 17144 17145 
2 1966 1967 
3 16417 16418 
3 7592 7593 
3 7591 7592 
1 7591 15559 
3 15559 15560 
3 8150 8151 
3 8149 8150 
1 7593 15732 
1 4920 5062 
3 4919 4920 
3 4918 4919 
3 16418 16419 
3 9739 9740 
3 9740 9741 
3 3926 3927 
3 3925 3926 
1 9741 9880 
2 9881 9882 
2 9880 9881 
1 9882 15642 
2 15641 15642 
2 18475 18476 
2 18476 18477 
1 10338 18477 
2 10337 10338 
2 10336 10337 
2 15640 15641 
1 597 15640 
2 595 596 
2 596 597 
1 8694 11346 
2 8693 8694 
2 8692 8693 
1 8692 13416 
3 13415 13416 
3 13414 13415 
2 5423 5424 
3 19390 19391 
2 5422 5423 
1 5422 19390 
2 18479 18480 
2 18478 18479 
3 19391 19392 
3 14821 14822 
3 3700 3701 
2 20072 20073 
2 9869 9870 
2 9868 9869 
1 9868 20071 
2 20071 20072 
2 1819 1820 
1 1819 10341 
3 10340 10341 
3 10339 10340 
1 10339 16932 
3 1193 1194 
2 11638 11639 
1 11638 15169 
3 15169 15170 
2 11639 11640 
2 5897 5898 
2 5896 5897 
2 14119 14120 
3 20993 20994 
2 16582 16583 
1 16582 17058 
3 17057 17058 
3 17056 17057 
3 9631 9632 
3 9632 9633 
1 2541 9631 
2 1669 1670 
1 1669 19440 
2 1670 1671 
3 17966 17967 
3 10133 10134 
2 1967 1968 
3 10027 10028 
1 10027 10302 
3 10028 10029 
3 14767 14768 
3 14768 14769 
2 15731 15732 
1 4875 15730 
2 15730 15731 
3 4874 4875 
3 4873 4874 
1 8622 9633 
3 8621 8622 
3 8620 8621 
2 17051 17052 
2 17050 17051 
3 10132 10133 
3 10301 10302 
3 2551 2552 
1 2551 19152 
1 2553 7090 
3 2552 2553 
2 7090 7091 
2 7091 7092 
1 3552 3927 
2 3550 3551 
2 3551 3552 
3 3994 3995 
1 3994 10336 
3 3995 3996 
1 3996 9294 
2 9293 9294 
3 17869 17870 
3 17870 17871 
2 19603 19604 
2 2908 2909 
3 407 408 
3 406 407 
3 13492 13493 
2 7462 7463 
1 7462 13492 
2 7463 7464 
3 13493 13494 
1 7464 17871 
2 19604 19605 
2 17555 17556 
2 17554 17555 
1 3234 17554 
2 3232 3233 
2 3233 3234 
3 1895 1896 
2 10153 10154 
3 1894 1895 
1 1894 10153 
1 1896 4578 
2 10154 10155 
3 1991 1992 
3 1990 1991 
1 1990 17556 
2 4576 4577 
2 4577 4578 
3 3701 3702 
3 1192 1193 
2 12539 12540 
2 12538 12539 
2 13469 13470 
2 13468 13469 
3 12254 12255 
3 12253 12254 
2 6913 6914 
2 6914 6915 
2 4763 4764 
2 4762 4763 
3 3434 3435 
1 3435 4762 
3 20992 20993 
3 3433 3434 
1 3433 20992 
3 19480 19481 
3 19481 19482 
3 5867 5868 
3 5866 5867 
1 5866 19480 
2 10987 10988 
2 19439 19440 
2 317 318 
2 2540 2541 
2 2539 2540 
1 2539 10989 
2 10988 10989 
2 19438 19439 
2 316 317 
3 7622 7623 
3 7621 7622 
3 10300 10301 
2 6917 6918 
1 6918 10300 
2 6916 6917 
3 6017 6018 
3 19394 19395 
3 19393 19394 
3 6016 6017 
1 6016 19393 
2 2791 2792 
1 2791 19395 
3 19151 19152 
2 2792 2793 
2 9292 9293 
2 19756 19757 
2 19757 19758 
3 19150 19151 
2 2909 2910 
1 2910 17110 
2 17110 17111 
2 17111 17112 
2 7847 7848 
2 7846 7847 
2 737 738 
2 736 737 
2 9826 9827 
3 14224 14225 
3 14225 14226 
1 8073 14226 
3 16091 16092 
3 16090 16091 
1 10155 10815 
2 10814 10815 
2 10813 10814 
3 8665 8666 
3 8666 8667 
3 7918 7919 
3 7919 7920 
2 2873 2874 
2 2872 2873 
1 2872 7920 
2 1915 1916 
2 1916 1917 
3 9154 9155 
3 9155 9156 
3 19547 19548 
3 19546 19547 
2 10786 10787 
2 10787 10788 
2 6568 6569 
2 6569 6570 
2 20914 20915 
2 20915 20916 
1 3984 20916 
3 1996 1997 
1 1996 10786 
3 1997 1998 
3 6379 6380 
3 6380 6381 
3 6607 6608 
3 13213 13214 
3 13214 13215 
2 10840 10841 
3 13831 13832 
3 13832 13833 
3 6608 6609 
3 514 515 
3 515 516 
3 13699 13700 
1 13699 13831 
3 13700 13701 
2 17564 17565 
2 17563 17564 
1 17563 18670 
3 18670 18671 
2 8906 8907 
2 8905 8906 
1 8905 13185 
3 18671 18672 
2 17009 17010 
2 17008 17009 
2 15247 15248 
2 11852 11853 
2 11851 11852 
3 9557 9558 
3 9556 9557 
1 9558 17008 
2 6631 6632 
3 5879 5880 
3 5878 5879 
3 15998 15999 
3 15997 15998 
3 11743 11744 
3 11744 11745 
2 19297 19298 
2 20789 20790 
2 20788 20789 
1 20788 20850 
3 20849 20850 
3 20848 20849 
2 19298 19299 
2 8071 8072 
2 9827 9828 
2 8072 8073 
2 3104 3105 
3 7039 7040 
2 3103 3104 
1 3103 7039 
3 7040 7041 
3 19688 19689 
3 19687 19688 
2 100 101 
1 100 19687 
2 101 102 
3 202 203 
3 203 204 
1 204 11854 
3 11854 11855 
3 11855 11856 
2 21193 21194 
2 21194 21195 
1 11856 21195 
3 6827 6828 
3 6826 6827 
1 6826 19455 
3 6131 6132 
3 6130 6131 
2 10841 10842 
2 3271 3272 
1 3271 13393 
3 13393 13394 
3 13394 13395 
2 3272 3273 
1 3273 21492 
2 21491 21492 
3 11437 11438 
3 11438 11439 
2 21490 21491 
2 13184 13185 
2 13183 13184 
3 4828 4829 
3 4829 4830 
2 15248 15249 
2 21139 21140 
2 6632 6633 
2 7391 7392 
2 7390 7391 
2 21140 21141 
1 15999 21141 
2 21214 21215 
2 21215 21216 
2 17021 17022 
2 17020 17021 
2 18796 18797 
2 18797 18798 
3 15917 15918 
3 7733 7734 
2 4724 4725 
2 4723 4724 
1 4723 7734 
3 20714 20715 
3 20713 20714 
2 2452 2453 
2 2453 2454 
2 8593 8594 
2 8594 8595 
1 8595 15916 
3 15916 15917 
2 15182 15183 
2 15181 15182 
1 3474 15181 
3 3472 3473 
3 3473 3474 
3 7732 7733 
3 7957 7958 
3 7958 7959 
3 14261 14262 
3 14260 14261 
2 10243 10244 
2 10244 10245 
2 3355 3356 
2 3356 3357 
2 16489 16490 
1 3357 16489 
2 12686 12687 
2 12685 12686 
3 21340 21341 
3 21341 21342 
3 7429 7430 
3 7430 7431 
2 17113 17114 
1 17113 21340 
2 17114 17115 
3 2708 2709 
3 2707 2708 
3 12005 12006 
2 2845 2846 
2 2846 2847 
3 20128 20129 
3 12004 12005 
2 10190 10191 
3 20620 20621 
3 19418 19419 
3 19417 19418 
3 7675 7676 
2 13874 13875 
1 7677 8269 
3 7676 7677 
2 8269 8270 
2 13873 13874 
3 16817 16818 
3 16816 16817 
3 5794 5795 
3 5795 5796 
2 15443 15444 
3 4373 4374 
3 4372 4373 
1 4372 15442 
2 15442 15443 
3 17395 17396 
3 17396 17397 
3 15736 15737 
1 10236 15736 
3 15737 15738 
3 1171 1172 
3 1172 1173 
2 13405 13406 
3 9428 9429 
2 13406 13407 
2 2834 2835 
2 2833 2834 
1 2833 10512 
2 10510 10511 
2 10511 10512 
3 17105 17106 
3 17104 17105 
3 10003 10004 
3 10004 10005 
2 21191 21192 
2 16490 16491 
2 11723 11724 
2 11722 11723 
3 5651 5652 
2 11054 11055 
3 5650 5651 
2 6728 6729 
2 6727 6728 
2 752 753 
2 751 752 
1 225 751 
2 224 225 
2 223 224 
2 10189 10190 
3 20129 20130 
3 10297 10298 
3 10298 10299 
3 1186 1187 
1 1186 18400 
3 18400 18401 
3 18401 18402 
3 1187 1188 
2 13166 13167 
1 7359 11823 
2 7028 7029 
2 8270 8271 
2 7027 7028 
1 7027 8271 
1 7029 13167 
2 4871 4872 
2 4870 4871 
3 11822 11823 
2 7358 7359 
3 7963 7964 
3 20672 20673 
3 11821 11822 
3 1231 1232 
3 1232 1233 
3 17608 17609 
3 17609 17610 
3 10235 10236 
2 19379 19380 
1 19380 20673 
2 19378 19379 
3 10234 10235 
1 10234 19378 
3 9427 9428 
1 9427 9696 
2 9695 9696 
2 9694 9695 
2 14318 14319 
2 14317 14318 
2 18556 18557 
2 10145 10146 
2 10144 10145 
3 436 437 
3 437 438 
2 21562 21563 
2 21563 21564 
3 301 302 
3 302 303 
3 14371 14372 
3 14372 14373 
2 8758 8759 
2 8759 8760 
2 21190 21191 
2 11699 11700 
2 11698 11699 
1 11698 12372 
3 12371 12372 
2 20519 20520 
3 13267 13268 
1 13269 20518 
2 20518 20519 
3 13268 13269 
3 12529 12530 
1 12531 19056 
3 12530 12531 
3 19055 19056 
2 13870 13871 
2 13871 13872 
3 7318 7319 
1 7318 13870 
3 7319 7320 
2 11053 11054 
3 19054 19055 
1 9072 19054 
2 9071 9072 
2 9070 9071 
2 8183 8184 
2 8182 8183 
3 1955 1956 
1 1956 6729 
3 12710 12711 
3 12709 12710 
2 2573 2574 
2 2572 2573 
1 2574 3784 
3 3784 3785 
3 3785 3786 
1 3786 13314 
2 15821 15822 
3 1954 1955 
1 1954 15822 
1 1188 10801 
2 10801 10802 
2 10802 10803 
2 16264 16265 
2 16265 16266 
3 2806 2807 
1 2806 16266 
3 2807 2808 
1 1974 21586 
2 1973 1974 
3 1415 1416 
3 1414 1415 
3 9176 9177 
3 9175 9176 
1 9177 13165 
2 13165 13166 
2 16387 16388 
2 16388 16389 
2 8582 8583 
1 1416 9358 
3 9358 9359 
1 8583 9360 
3 9359 9360 
2 8581 8582 
1 8581 16389 
3 3626 3627 
3 3625 3626 
2 7357 7358 
2 10420 10421 
1 10420 16257 
2 10421 10422 
3 7964 7965 
2 6746 6747 
2 6745 6746 
2 20348 20349 
2 20347 20348 
3 20671 20672 
1 20671 21462 
2 20237 20238 
2 20236 20237 
1 20236 21460 
2 21460 21461 
2 21461 21462 
2 16256 16257 
3 274 275 
3 275 276 
2 16255 16256 
3 14293 14294 
1 7059 14293 
3 14294 14295 
2 7609 7610 
1 7609 14295 
2 7610 7611 
2 11134 11135 
3 4592 4593 
3 13277 13278 
3 13276 13277 
3 8627 8628 
1 8628 21328 
2 21328 21329 
2 21329 21330 
2 9691 9692 
2 9692 9693 
3 8626 8627 
2 14833 14834 
1 14833 21330 
2 14834 14835 
2 18557 18558 
3 1421 1422 
2 10331 10332 
2 10330 10331 
3 7147 7148 
1 7149 19234 
2 19234 19235 
2 8329 8330 
1 8329 19236 
2 19235 19236 
3 7148 7149 
3 12370 12371 
2 12931 12932 
2 12932 12933 
2 19948 19949 
3 6493 6494 
3 6494 6495 
2 5764 5765 
2 5765 5766 
3 14531 14532 
3 14530 14531 
1 14532 20053 
1 8184 12729 
3 12728 12729 
3 12727 12728 
3 13312 13313 
3 20054 20055 
3 20053 20054 
3 13313 13314 
3 7273 7274 
1 7275 15820 
2 15820 15821 
3 7274 7275 
3 21586 21587 
3 21587 21588 
2 16897 16898 
2 16898 16899 
3 12535 12536 
2 12184 12185 
2 12185 12186 
2 19624 19625 
2 19625 19626 
2 7145 7146 
1 2433 7144 
3 2432 2433 
2 7144 7145 
3 2431 2432 
3 3851 3852 
3 3850 3851 
3 5735 5736 
3 5734 5735 
2 70 71 
2 71 72 
3 18739 18740 
3 18740 18741 
2 13637 13638 
2 13636 13637 
2 2927 2928 
2 7058 7059 
2 7057 7058 
2 11135 11136 
1 11136 18741 
3 4591 4592 
2 17083 17084 
2 17084 17085 
2 2147 2148 
2 2146 2147 
2 2926 2927 
1 2926 12108 
2 12107 12108 
2 12106 12107 
1 12106 14970 
3 14969 14970 
2 19801 19802 
2 19802 19803 
3 1420 1421 
1 1420 21427 
3 21427 21428 
3 21428 21429 
3 14968 14969 
3 3304 3305 
3 3305 3306 
3 10082 10083 
3 10081 10082 
3 17348 17349 
3 3010 3011 
3 3011 3012 
3 6347 6348 
3 6346 6347 
3 4559 4560 
2 8330 8331 
1 8331 15264 
3 15263 15264 
3 15262 15263 
1 15262 20553 
3 20552 20553 
3 4558 4559 
2 16499 16500 
2 16498 16499 
2 19949 19950 
2 20012 20013 
2 20011 20012 
3 5596 5597 
2 13751 13752 
3 4508 4509 
1 4509 17236 
3 17236 17237 
3 17237 17238 
2 13750 13751 
1 13750 17238 
1 9933 18759 
2 9931 9932 
1 9931 16899 
2 9932 9933 
3 958 959 
1 958 7285 
2 7285 7286 
2 7286 7287 
3 8258 8259 
3 8257 8258 
2 9044 9045 
3 959 960 
2 2308 2309 
2 2309 2310 
3 14140 14141 
3 14141 14142 
3 956 957 
3 955 956 
1 955 6384 
2 6383 6384 
2 6382 6383 
3 19204 19205 
3 19205 19206 
3 17347 17348 
3 20551 20552 
2 4865 4866 
2 4864 4865 
2 3343 3344 
1 528 3345 
2 3344 3345 
2 824 825 
3 5920 5921 
3 5921 5922 
3 20401 20402 
3 20402 20403 
2 823 824 
1 823 20401 
2 10736 10737 
2 10735 10736 
1 10104 18124 
2 18124 18125 
3 10103 10104 
2 7792 7793 
2 18125 18126 
3 10102 10103 
2 2123 2124 
2 2122 2123 
1 2122 9829 
3 9829 9830 
1 10170 16950 
3 16948 16949 
3 16949 16950 
2 18512 18513 
2 18511 18512 
2 7793 7794 
2 12226 12227 
3 5597 5598 
3 4507 4508 
3 19225 19226 
3 19226 19227 
3 12293 12294 
1 12294 19227 
3 12292 12293 
2 14651 14652 
2 14650 14651 
2 13088 13089 
2 13087 13088 
2 17708 17709 
2 17707 17708 
1 9030 17707 
2 3980 3981 
2 3979 3980 
1 3979 8259 
2 9043 9044 
3 9029 9030 
3 9028 9029 
3 17222 17223 
1 17223 20247 
2 20245 20246 
2 20246 20247 
2 16522 16523 
3 17221 17222 
3 21041 21042 
3 21040 21041 
2 16523 16524 
3 10259 10260 
2 21019 21020 
3 3895 3896 
3 3896 3897 
2 20710 20711 
2 20711 20712 
2 21020 21021 
3 13814 13815 
2 20216 20217 
1 12312 13813 
3 13813 13814 
2 15335 15336 
2 15334 15335 
2 527 528 
2 526 527 
2 19169 19170 
2 19168 19169 
2 7283 7284 
2 14912 14913 
2 7282 7283 
2 14911 14912 
3 3536 3537 
3 15439 15440 
3 15440 15441 
1 15441 16212 
3 16211 16212 
3 16210 16211 
2 4267 4268 
1 4267 16210 
2 4268 4269 
2 10168 10169 
2 10169 10170 
2 12227 12228 
1 6660 13089 
2 3706 3707 
2 3707 3708 
3 6658 6659 
3 6659 6660 
2 10979 10980 
2 10978 10979 
2 13964 13965 
2 13963 13964 
2 5731 5732 
2 5732 5733 
2 1432 1433 
2 1433 1434 
3 21164 21165 
2 20018 20019 
1 20019 21297 
3 21163 21164 
2 20017 20018 
1 20017 21163 
3 19243 19244 
3 19244 19245 
2 21296 21297 
2 21295 21296 
3 10258 10259 
3 9046 9047 
1 9046 17796 
3 3155 3156 
3 715 716 
1 715 3154 
3 3154 3155 
3 11959 11960 
3 11960 11961 
3 4813 4814 
3 4814 4815 
1 4815 11052 
2 11051 11052 
3 9047 9048 
2 17795 17796 
2 15298 15299 
2 15299 15300 
3 716 717 
2 20215 20216 
2 12310 12311 
2 12311 12312 
3 8204 8205 
3 8203 8204 
2 12884 12885 
2 12883 12884 
2 1928 1929 
1 1353 1929 
3 5099 5100 
2 1927 1928 
1 1927 5098 
3 5098 5099 
2 19988 19989 
3 10756 10757 
3 10757 10758 
2 19987 19988 
3 3535 3536 
2 524 525 
2 523 524 
1 523 11172 
3 3494 3495 
3 3493 3494 
2 13421 13422 
2 15005 15006 
1 13422 15006 
2 15004 15005 
1 15004 18042 
2 5963 5964 
2 11918 11919 
3 7153 7154 
3 7154 7155 
2 3013 3014 
1 3013 11917 
2 11917 11918 
2 3014 3015 
2 10267 10268 
2 10268 10269 
1 12387 21165 
3 12386 12387 
3 12385 12386 
3 12523 12524 
3 21199 21200 
2 1405 1406 
2 17794 17795 
2 7193 7194 
2 7192 7193 
1 7192 17794 
1 7194 18034 
3 18034 18035 
3 18035 18036 
3 12524 12525 
2 1406 1407 
1 1407 3156 
2 3665 3666 
2 11050 11051 
2 3664 3665 
1 3664 11050 
2 16172 16173 
2 6425 6426 
2 6203 6204 
2 16171 16172 
1 6204 16171 
3 1352 1353 
3 1351 1352 
1 1351 6424 
2 6424 6425 
2 16726 16727 
2 16727 16728 
3 13741 13742 
3 6343 6344 
3 6344 6345 
2 2047 2048 
2 2048 2049 
3 20203 20204 
3 20204 20205 
2 6490 6491 
3 15523 15524 
3 9451 9452 
3 9452 9453 
2 10072 10073 
1 10072 17949 
2 10073 10074 
3 6409 6410 
1 6409 12655 
3 12655 12656 
3 6410 6411 
3 12656 12657 
3 11171 11172 
3 11170 11171 
1 525 15525 
3 15524 15525 
3 17948 17949 
3 20977 20978 
3 20978 20979 
2 19097 19098 
2 19096 19097 
2 18041 18042 
2 18040 18041 
1 18040 19090 
3 7552 7553 
3 7553 7554 
2 11767 11768 
3 10937 10938 
3 10936 10937 
3 15878 15879 
3 15877 15878 
2 2819 2820 
2 11768 11769 
3 8912 8913 
3 8911 8912 
2 19883 19884 
2 19882 19883 
2 15143 15144 
3 4747 4748 
1 4747 15372 
1 4749 21201 
3 4748 4749 
3 21200 21201 
2 6973 6974 
2 6974 6975 
2 19316 19317 
2 19315 19316 
2 7279 7280 
1 7279 11071 
2 7280 7281 
2 16277 16278 
2 16276 16277 
2 11072 11073 
2 11071 11072 
3 10157 10158 
3 10156 10157 
2 6202 6203 
3 13375 13376 
2 6454 6455 
2 6455 6456 
1 6456 13375 
2 3728 3729 
2 11516 11517 
2 11515 11516 
3 13376 13377 
3 13742 13743 
2 18643 18644 
2 18644 18645 
3 14686 14687 
3 14687 14688 
2 6491 6492 
2 2293 2294 
2 2294 2295 
3 12431 12432 
3 12430 12431 
3 17947 17948 
2 1939 1940 
1 1939 3037 
2 1940 1941 
2 20330 20331 
2 6358 6359 
2 6359 6360 
3 8345 8346 
2 2818 2819 
3 7636 7637 
1 7638 19884 
3 7637 7638 
2 15370 15371 
2 15371 15372 
2 15142 15143 
3 15301 15302 
2 14617 14618 
2 16841 16842 
2 16840 16841 
3 7129 7130 
1 7129 15303 
3 7130 7131 
3 15302 15303 
3 18185 18186 
3 4955 4956 
3 4954 4955 
3 19598 19599 
3 19597 19598 
1 19128 19597 
2 19127 19128 
2 17131 17132 
2 10774 10775 
1 10774 17131 
2 10775 10776 
3 9958 9959 
3 9959 9960 
2 19126 19127 
3 13634 13635 
1 13635 20049 
3 13633 13634 
2 9778 9779 
2 9779 9780 
2 6293 6294 
2 3727 3728 
1 3727 4887 
3 4886 4887 
3 211 212 
1 211 13633 
3 212 213 
1 213 18607 
3 18608 18609 
3 18607 18608 
2 8492 8493 
3 4885 4886 
3 3703 3704 
1 3703 4885 
3 3704 3705 
3 17908 17909 
3 17909 17910 
2 14513 14514 
2 14512 14513 
1 2337 14512 
3 2336 2337 
3 2335 2336 
3 8561 8562 
3 8560 8561 
3 19253 19254 
3 19252 19253 
2 14069 14070 
2 14068 14069 
2 20821 20822 
2 8174 8175 
2 8173 8174 
3 6743 6744 
3 6742 6743 
2 20822 20823 
2 3037 3038 
2 3038 3039 
3 18508 18509 
1 18508 20329 
2 20329 20330 
2 12085 12086 
2 12086 12087 
3 8344 8345 
2 7825 7826 
2 16438 16439 
2 16439 16440 
3 14801 14802 
3 11828 11829 
3 11827 11828 
3 14858 14859 
3 3682 3683 
1 3682 14857 
3 14857 14858 
2 14618 14619 
2 2410 2411 
2 2411 2412 
2 818 819 
2 817 818 
1 817 7131 
1 3684 11829 
3 18184 18185 
3 3683 3684 
3 500 501 
3 499 500 
1 499 15855 
3 16649 16650 
3 16648 16649 
3 9227 9228 
3 4046 4047 
3 4045 4046 
1 4047 12736 
3 9226 9227 
1 9226 17133 
2 17132 17133 
3 12373 12374 
3 12374 12375 
3 20047 20048 
3 20048 20049 
3 5026 5027 
3 5027 5028 
3 1390 1391 
1 1390 18609 
3 1391 1392 
2 9751 9752 
2 9752 9753 
2 8491 8492 
1 8491 9753 
2 6292 6293 
2 12350 12351 
3 9985 9986 
3 4613 4614 
3 4612 4613 
1 4612 12351 
2 21533 21534 
2 6740 6741 
2 6739 6740 
3 18077 18078 
3 18076 18077 
3 12158 12159 
3 12157 12158 
2 18566 18567 
2 18565 18566 
2 16354 16355 
1 8199 16207 
2 16207 16208 
2 16208 16209 
2 1738 1739 
3 9014 9015 
3 15754 15755 
3 15755 15756 
2 17488 17489 
3 1759 1760 
3 1760 1761 
2 8464 8465 
2 8465 8466 
3 9013 9014 
1 9013 17043 
2 17041 17042 
2 17042 17043 
1 7827 18990 
2 7826 7827 
2 18988 18989 
2 18989 18990 
2 10721 10722 
3 14800 14801 
2 19255 19256 
2 19256 19257 
3 15854 15855 
3 15853 15854 
2 5618 5619 
2 5617 5618 
1 5617 19087 
3 19087 19088 
3 19088 19089 
2 18542 18543 
2 18541 18542 
3 21439 21440 
1 15015 21439 
3 15014 15015 
2 12736 12737 
1 12738 21441 
2 12737 12738 
3 21440 21441 
3 15013 15014 
3 18899 18900 
2 11764 11765 
2 11765 11766 
2 12166 12167 
2 12167 12168 
2 6295 6296 
3 4426 4427 
3 4427 4428 
2 12349 12350 
1 12349 19650 
2 19649 19650 
3 9986 9987 
2 19648 19649 
3 2570 2571 
2 3568 3569 
1 3568 20365 
2 18770 18771 
2 18769 18770 
1 3570 18769 
2 3569 3570 
2 21532 21533 
3 20365 20366 
3 20366 20367 
2 3319 3320 
2 3320 3321 
2 3869 3870 
2 3868 3869 
3 6851 6852 
1 6852 9015 
2 12437 12438 
2 12436 12437 
1 12438 17643 
2 17642 17643 
2 17489 17490 
2 13193 13194 
2 13192 13193 
2 10720 10721 
2 5819 5820 
1 5820 18154 
3 18154 18155 
2 5818 5819 
3 18155 18156 
3 13201 13202 
1 13201 15318 
3 1655 1656 
2 16274 16275 
2 16273 16274 
2 15316 15317 
2 15317 15318 
2 1250 1251 
2 1249 1250 
1 8406 19089 
2 8405 8406 
3 3538 3539 
1 3538 8404 
2 8404 8405 
3 3539 3540 
1 10572 13900 
1 13902 18541 
3 13901 13902 
3 13900 13901 
2 5740 5741 
1 5740 14401 
2 5741 5742 
3 18898 18899 
2 10570 10571 
2 10571 10572 
3 16852 16853 
3 16853 16854 
3 19052 19053 
2 9503 9504 
1 5742 9504 
2 9502 9503 
1 9502 19053 
2 3160 3161 
2 16946 16947 
1 3162 17476 
3 17476 17477 
3 17477 17478 
2 3161 3162 
2 6296 6297 
3 4679 4680 
3 4678 4679 
2 5488 5489 
2 18011 18012 
3 14540 14541 
3 14539 14540 
3 2569 2570 
2 18010 18011 
3 4450 4451 
2 15643 15644 
3 11020 11021 
3 11021 11022 
1 4452 11022 
3 4451 4452 
2 7933 7934 
2 7934 7935 
3 18230 18231 
3 18229 18230 
3 15050 15051 
1 15180 21070 
2 21070 21071 
2 21071 21072 
3 15049 15050 
2 2276 2277 
1 2277 10810 
3 10810 10811 
3 10811 10812 
2 2275 2276 
1 2275 8697 
3 1825 1826 
3 19831 19832 
3 19832 19833 
3 9485 9486 
3 9484 9485 
2 4960 4961 
2 4961 4962 
2 7450 7451 
1 7450 8695 
3 8695 8696 
2 7451 7452 
3 8696 8697 
2 811 812 
2 812 813 
2 16999 17000 
1 9417 13203 
3 13202 13203 
3 9416 9417 
3 9415 9416 
3 1654 1655 
2 571 572 
2 572 573 
2 9331 9332 
2 9332 9333 
3 9817 9818 
3 9818 9819 
3 12479 12480 
3 20692 20693 
3 20693 20694 
3 12478 12479 
1 12478 17032 
2 17032 17033 
2 17033 17034 
2 8212 8213 
2 8213 8214 
3 1435 1436 
3 1436 1437 
1 1437 14694 
3 14402 14403 
3 14401 14402 
3 1883 1884 
3 1882 1883 
1 1882 18216 
3 18214 18215 
1 18214 19051 
3 18215 18216 
3 19051 19052 
3 19967 19968 
3 19966 19967 
2 16945 16946 
1 16945 19966 
2 6794 6795 
1 6795 17787 
3 17786 17787 
2 6793 6794 
2 5489 5490 
2 15644 15645 
3 21517 21518 
3 21518 21519 
3 17584 17585 
3 17585 17586 
2 20834 20835 
2 20833 20834 
3 1826 1827 
2 17000 17001 
3 12559 12560 
2 17279 17280 
2 17278 17279 
3 14693 14694 
3 14692 14693 
2 12895 12896 
1 12895 14692 
2 12896 12897 
3 1600 1601 
3 1601 1602 
2 20875 20876 
3 19748 19749 
2 4544 4545 
2 4543 4544 
2 20876 20877 
2 9323 9324 
3 17785 17786 
1 9324 17785 
2 9322 9323 
3 19747 19748 
3 7163 7164 
3 7162 7163 
3 17863 17864 
2 20738 20739 
1 16104 20739 
2 16103 16104 
2 6374 6375 
3 20719 20720 
3 20720 20721 
3 12560 12561 
3 1805 1806 
3 1804 1805 
1 1804 10947 
3 10711 10712 
3 10712 10713 
2 20422 20423 
2 20423 20424 
3 21434 21435 
3 21433 21434 
2 5515 5516 
2 5516 5517 
2 10816 10817 
2 10817 10818 
3 9338 9339 
3 9337 9338 
3 10843 10844 
3 10844 10845 
3 617 618 
3 17864 17865 
3 15892 15893 
2 3953 3954 
2 3952 3953 
3 616 617 
3 6299 6300 
3 15893 15894 
3 646 647 
3 647 648 
3 5980 5981 
3 5981 5982 
2 4672 4673 
3 1912 1913 
3 1913 1914 
2 16102 16103 
2 6373 6374 
3 17714 17715 
2 20093 20094 
2 20092 20093 
3 17713 17714 
1 17713 20092 
2 20260 20261 
3 17711 17712 
3 17710 17711 
2 6680 6681 
1 6681 20262 
2 20261 20262 
3 5012 5013 
3 5011 5012 
3 10946 10947 
3 10945 10946 
2 6679 6680 
1 6679 10945 
3 15689 15690 
3 14894 14895 
3 14893 14894 
2 2612 2613 
2 2611 2612 
2 6365 6366 
2 6364 6365 
2 19654 19655 
2 19655 19656 
2 9505 9506 
2 9506 9507 
2 4289 4290 
2 4288 4289 
3 18901 18902 
3 18902 18903 
2 5905 5906 
2 5906 5907 
3 3091 3092 
1 3091 5907 
3 3092 3093 
3 6121 6122 
3 6122 6123 
3 6298 6299 
1 6300 10411 
2 10411 10412 
3 10121 10122 
3 10120 10121 
2 10412 10413 
2 5275 5276 
1 5275 10413 
2 5276 5277 
2 7744 7745 
1 7744 9634 
2 7745 7746 
3 15433 15434 
3 15434 15435 
2 125 126 
2 7658 7659 
2 7657 7658 
2 16859 16860 
2 16858 16859 
2 124 125 
3 18236 18237 
3 18235 18236 
2 7255 7256 
2 7256 7257 
3 6097 6098 
3 6098 6099 
2 12211 12212 
3 15688 15689 
3 20387 20388 
3 20386 20387 
2 10949 10950 
2 10948 10949 
1 10872 10948 
3 5218 5219 
2 12212 12213 
2 16007 16008 
2 16006 16007 
3 16247 16248 
3 5219 5220 
1 5220 16248 
3 16246 16247 
2 9022 9023 
2 9023 9024 
3 11200 11201 
1 11200 20124 
3 20123 20124 
3 11201 11202 
3 20122 20123 
1 9024 20122 
3 3487 3488 
3 3488 3489 
2 20768 20769 
2 4589 4590 
2 4588 4589 
3 2330 2331 
3 2329 2330 
2 14183 14184 
2 14182 14183 
3 14431 14432 
3 14432 14433 
3 1333 1334 
1 1333 3093 
3 1334 1335 
1 4404 14511 
3 14510 14511 
3 14509 14510 
2 4403 4404 
2 4402 4403 
3 8932 8933 
2 12791 12792 
1 8934 12792 
3 8933 8934 
2 12790 12791 
3 12583 12584 
3 12584 12585 
3 9634 9635 
3 9635 9636 
1 7950 9636 
3 7949 7950 
3 16333 16334 
3 16334 16335 
2 295 296 
1 295 5296 
3 5296 5297 
3 5297 5298 
1 5298 11545 
3 11545 11546 
3 11546 11547 
2 4028 4029 
1 297 4029 
2 4027 4028 
2 296 297 
3 4465 4466 
3 4466 4467 
3 10742 10743 
3 10871 10872 
3 10870 10871 
2 5038 5039 
2 5039 5040 
3 10741 10742 
2 18892 18893 
2 10547 10548 
2 10546 10547 
2 20767 20768 
3 1328 1329 
3 1327 1328 
3 7948 7949 
3 7955 7956 
3 20909 20910 
3 20684 20685 
1 10419 20683 
3 20683 20684 
2 10418 10419 
3 7954 7955 
3 20615 20616 
3 20614 20615 
2 10417 10418 
1 10417 11547 
3 11771 11772 
3 11770 11771 
2 8794 8795 
3 19799 19800 
2 8795 8796 
1 8796 19798 
3 19798 19799 
2 18893 18894 
3 5533 5534 
3 5534 5535 
3 20731 20732 
3 20732 20733 
3 15898 15899 
1 15898 21307 
3 15899 15900 
3 17975 17976 
3 17974 17975 
3 2422 2423 
1 2422 18396 
3 2423 2424 
2 17599 17600 
1 2424 17599 
2 17600 17601 
3 10739 10740 
3 18395 18396 
3 10738 10739 
1 10738 18394 
3 18394 18395 
3 19318 19319 
1 4629 19318 
2 4628 4629 
2 4627 4628 
3 19319 19320 
2 4049 4050 
3 2774 2775 
3 2773 2774 
3 712 713 
3 713 714 
3 18553 18554 
3 18554 18555 
2 13880 13881 
2 13879 13880 
3 6038 6039 
3 6037 6038 