ITEM: TIMESTEP
50000000
ITEM: NUMBER OF ATOMS
1389
ITEM: BOX BOUNDS pp pp pp
0.0000000000000000e+00 5.0000000000000000e+01
0.0000000000000000e+00 5.0000000000000000e+01
0.0000000000000000e+00 5.0000000000000000e+01
ITEM: ATOMS id type vx vy vz 
6508 1 4.4805 -0.733259 1.04638 
280 1 3.86717 -2.67474 -1.27707 
281 2 0.106665 -3.63673 1.36572 
6903 1 -3.56451 -1.58167 2.16056 
282 1 0.211626 1.57703 3.66402 
6902 2 2.18578 -1.70639 -0.467909 
6901 1 -4.81473 3.00961 0.369783 
3017 2 3.06342 3.40431 0.817155 
3016 1 -1.92069 4.24804 -0.4343 
11776 1 -5.82213 -0.262712 -3.51917 
11777 2 0.299592 -0.784571 -1.8856 
3512 2 2.20591 -0.895677 0.419233 
3513 1 4.13506 2.31886 -0.646628 
8502 1 0.573172 -1.86759 -1.03139 
8501 2 2.23631 -0.0977766 -2.25698 
8500 1 -2.40859 5.63084 0.617949 
11113 1 -2.41007 -2.34709 1.26331 
11114 2 -1.32326 3.41936 2.76584 
5468 2 -2.8983 -0.171959 -1.49625 
5467 1 1.0957 -2.2923 -2.95224 
5469 1 2.55867 0.949282 -3.55271 
2785 1 1.114 3.30128 -1.39135 
17658 1 -2.27106 0.31191 0.0747673 
17657 2 -6.17704 -2.68722 -0.10441 
17656 1 0.423797 -0.460869 3.84907 
5190 1 -0.603234 3.68172 -4.75029 
11778 1 -6.97362 3.11554 0.30048 
5189 2 1.52601 -1.31031 -1.78933 
5188 1 -1.44229 -4.07009 -6.70053 
11292 1 1.61931 -1.73839 -3.45234 
17415 1 0.631283 0.799906 -2.39792 
17414 2 4.59431 1.06597 -3.05698 
17413 1 1.30523 -0.978635 1.58568 
21360 1 5.97597 -8.28549 -2.00566 
17146 1 3.45778 1.222 0.454718 
21358 1 -2.51197 2.59929 2.08078 
21359 2 1.04112 1.5757 2.0129 
6786 1 -0.392548 -0.599217 -3.50728 
6378 1 6.51586 -0.276875 -4.50501 
5234 3 0.893922 -2.13923 -1.00798 
10239 1 -8.08967 0.159775 -2.10705 
5233 1 1.44453 4.29012 4.52284 
5235 1 0.347918 -2.57811 4.96949 
5862 1 -4.30019 -1.60072 -5.27344 
5861 2 0.55826 -0.557504 -0.198279 
1771 1 0.131076 -4.09866 -3.05151 
5860 1 3.96614 -0.500732 -0.155189 
1772 2 1.17507 -2.54455 -3.23584 
1773 1 -1.91556 -6.97085 -2.89352 
15686 2 4.38201 -2.73826 -2.71524 
15687 1 1.63939 3.63048 1.62927 
1428 1 0.656285 -1.44172 1.10438 
1427 3 -2.09499 -0.830462 3.63842 
1426 1 1.92426 2.07658 -0.00967242 
15685 1 0.0908886 0.322151 0.823346 
6510 1 -2.36018 -4.02485 3.4756 
6509 3 0.00590557 2.08847 2.68006 
11291 2 -0.498858 1.43734 -3.30778 
11290 1 2.20325 0.904963 -4.68907 
1018 1 1.14337 -3.78364 -0.73794 
1019 2 1.85866 -0.703215 3.30125 
1020 1 -0.517156 0.149719 -0.3807 
13095 1 1.93823 -6.0562 10.7508 
13094 3 0.751216 2.79861 -0.881816 
13093 1 -1.60804 4.38299 1.09376 
2983 1 -1.11333 1.175 3.92584 
6231 1 3.59885 -2.1633 3.71775 
20580 1 -2.95 2.3264 -2.72235 
2733 1 1.90701 -1.70058 1.42235 
2732 3 -2.60133 -0.321969 -2.99723 
2731 1 -0.262849 1.02578 1.10335 
3720 1 2.33131 -7.54804 3.49042 
3719 2 -1.66933 -1.45909 1.71712 
3718 1 1.46764 2.45488 3.57255 
20579 2 -0.384668 -0.0739707 2.41368 
20578 1 -0.959848 -3.11544 0.932317 
13020 1 -0.11321 2.97389 0.415734 
13019 2 0.229464 2.14131 0.60626 
13018 1 -3.28014 -4.55458 -3.99214 
13099 1 -2.19639 4.10385 -1.25758 
3606 1 -3.98961 -1.1883 4.26821 
3605 2 -1.97728 0.149891 4.06125 
3604 1 2.05546 -3.23543 -1.8883 
13100 3 3.21579 2.33359 -0.67426 
13101 1 -0.191277 -2.44618 -1.27771 
20859 1 5.78783 4.11896 -2.94225 
20858 3 0.427194 0.415855 -3.49837 
20857 1 0.300947 -2.29167 3.86645 
5701 1 -1.38439 5.12363 0.167989 
5702 2 -1.76532 -1.74836 1.62717 
21131 2 0.120271 -4.92842 1.25756 
21132 1 3.45134 -2.90748 2.82557 
14851 1 6.43123 3.97896 -1.8646 
2342 2 2.77998 -0.195578 0.505271 
2341 1 2.14015 -5.39623 -6.1529 
2984 2 -0.800353 -1.88828 -1.45748 
2985 1 0.822524 -4.07016 -1.34914 
6229 1 -1.80037 -5.29438 4.91972 
6230 2 -1.59643 3.61913 1.44836 
5703 1 8.71777 -2.5246 0.764784 
8511 1 -3.73001 -7.73375 3.91872 
11749 1 -4.62023 4.6249 -2.71871 
11750 2 -3.14821 -1.73414 4.00327 
9057 1 5.15908 -7.1707 2.21728 
9056 2 0.171407 -1.10119 0.742891 
9055 1 -0.600269 -2.01727 -4.19866 
11751 1 6.37279 -8.06025 -1.06888 
14887 1 1.67208 1.46673 -1.63437 
6629 2 1.37539 -0.828624 -0.0686998 
17197 1 -3.13376 -2.38738 -10.4193 
17198 2 2.40795 -0.106173 -1.08084 
17199 1 -0.888186 2.92168 -0.471887 
6630 1 -5.55724 1.1334 -4.67598 
6628 1 0.329342 0.55023 0.0203911 
972 1 2.06302 -4.17154 -7.63518 
971 2 1.09621 -1.08138 -0.615639 
14790 1 -2.38899 -2.57242 -1.20117 
9844 1 4.03635 -0.547386 -1.50603 
1321 1 -1.45413 5.94783 0.353849 
9845 2 1.37257 2.18493 3.77618 
9846 1 0.707645 -1.77417 0.587248 
11720 2 0.116571 -2.86269 2.75171 
14888 2 -1.94855 1.05269 1.6296 
14889 1 -1.08533 5.90972 4.37031 
11719 1 5.31797 2.13178 -0.712479 
16592 2 1.22964 -1.65808 -4.70187 
16591 1 -3.23248 -4.1145 0.481932 
931 1 -2.06606 2.39396 0.730922 
932 2 2.55421 1.16806 0.473501 
7405 1 3.41756 -4.30711 -0.5816 
933 1 0.175616 1.78066 3.21001 
11721 1 -1.66887 -2.22401 0.657974 
625 1 -2.16871 -0.415591 -1.05026 
1610 2 -0.570624 -1.03866 2.25605 
1611 1 -0.196783 3.55757 0.514022 
626 2 -1.31619 -0.304616 0.650765 
1609 1 5.91241 1.30073 -1.18187 
1522 1 1.23131 -0.240791 0.00169101 
7407 1 -4.91895 -7.37493 -3.44497 
7406 2 0.523961 5.50552 0.552668 
1523 2 -0.100397 1.22048 1.32305 
1524 1 -5.88224 1.04717 0.775959 
4845 1 0.121172 -3.09674 -4.10931 
4844 2 1.18281 3.72892 -0.749299 
4843 1 -3.11197 1.90745 3.46952 
6931 1 3.12864 -5.10936 -6.4932 
6932 2 1.93187 -5.04487 -0.352687 
4594 1 -5.76342 -2.32734 -5.61518 
3438 1 3.961 -3.64514 -2.42975 
3437 2 -3.43436 0.780883 -4.54313 
4595 2 -0.834952 -3.64656 -2.65058 
4596 1 -6.39141 0.0706001 -3.44964 
5491 1 3.94061 -0.92193 3.518 
14732 2 1.02912 -1.22028 4.03792 
14731 1 0.633926 -6.18533 -0.0568866 
14733 1 0.458655 6.90622 -1.29007 
6933 1 -8.4705 6.26736 2.36537 
3436 1 2.36434 -0.299179 1.03692 
13305 1 4.76731 -2.35304 -2.31415 
11983 1 2.50542 -0.331324 0.427526 
11984 2 1.34 3.01571 1.05271 
3349 1 -1.1268 2.96453 -0.408734 
3310 1 -0.284887 1.68969 -2.81494 
3311 2 0.570108 2.44366 -1.00583 
3312 1 -1.24959 3.02532 0.370081 
21130 1 1.47979 0.0775649 0.349308 
3350 2 0.132488 1.35453 -0.344101 
5122 1 -10.2124 -3.80534 -2.93364 
5123 2 1.0774 1.48244 -1.92667 
5124 1 -1.74121 2.73509 0.859382 
2886 1 4.30188 -3.42833 2.30626 
14977 1 2.63648 -3.80622 -2.48562 
5492 2 -0.67811 0.420306 3.87414 
20612 2 1.68714 1.17921 -1.38994 
20611 1 2.6975 0.714845 -2.20961 
8509 1 -4.04899 1.94659 0.748199 
20613 1 2.68975 -2.74733 0.0199529 
11985 1 -0.914551 -3.06919 5.72249 
13806 1 0.623983 -4.57724 -7.69682 
21178 1 -4.03705 4.80167 0.596216 
21179 2 0.838896 -4.38545 1.06123 
21180 1 -1.8662 2.43082 2.38776 
2382 1 1.55592 -7.30497 -8.40748 
2381 2 -1.09781 -0.135711 0.638701 
14852 2 0.768056 6.10723 2.66478 
14853 1 0.636635 -3.12651 7.87148 
5552 2 0.480139 1.47951 -1.83367 
5553 1 -3.26973 5.54598 -6.74196 
2380 1 -1.5682 -2.45578 0.0694033 
12744 1 -0.200653 -1.14933 -2.37016 
5551 1 -2.41997 -8.56567 -1.41216 
6586 1 -2.88363 1.93511 -0.969533 
6587 2 -0.593033 2.42315 0.212943 
3904 1 0.673668 8.98953 4.43212 
2343 1 -5.47384 -2.73483 2.64524 
3905 2 1.77671 -3.83719 1.37378 
1298 2 0.451023 0.0362292 0.534414 
1299 1 -4.45964 3.32429 -1.66083 
12243 1 -2.413 2.67928 -1.72214 
3906 1 -2.57805 0.0545326 -1.99752 
2085 1 2.42327 -1.02448 -0.297493 
11951 2 -1.87309 -0.358645 0.0419293 
4550 2 1.79157 1.10764 3.72557 
4551 1 2.52505 5.14583 3.47237 
11950 1 1.95303 -5.199 0.171955 
1323 1 -5.66935 0.414992 1.22354 
14978 2 0.770433 -0.266273 -0.931765 
8510 2 -4.14602 -1.72707 -2.92415 
15802 1 -0.89469 -2.98189 -0.393535 
14979 1 0.964517 8.01299 2.36409 
15803 2 -0.971991 -2.83462 -0.81244 
15804 1 2.53892 3.45867 5.9418 
4497 1 3.03011 2.97047 -4.05893 
4496 2 -2.77259 -0.907082 3.58321 
4495 1 4.69844 -2.75341 1.33472 
12856 1 -0.106059 -0.384146 0.0942405 
12857 2 2.68851 -1.42918 3.31095 
3948 1 4.12733 3.54075 7.16625 
14591 2 1.2205 0.803638 -3.49169 
14590 1 1.19632 2.15171 -2.77134 
19690 1 -0.99024 2.10297 2.47963 
12743 2 -3.26884 0.458777 0.251954 
12742 1 -1.8681 0.666363 3.2076 
14592 1 1.64948 -1.46189 -3.25669 
19858 1 -1.27817 5.70628 -3.21931 
18931 1 -0.0895578 -1.67124 3.76735 
18932 2 -0.84079 1.11303 -0.891199 
19860 1 1.51759 -3.1435 -1.54295 
19859 2 2.82169 0.772256 -2.71981 
12242 2 0.0921138 1.30855 -0.144883 
6588 1 -0.607292 -2.55965 -1.81639 
6664 1 5.07245 2.22705 -1.0577 
18526 1 0.106076 0.746262 -0.455112 
12241 1 -1.47354 -0.92293 0.674507 
4549 1 -1.20288 -7.56443 -1.09906 
18527 2 -5.80792 3.11095 1.92684 
18528 1 1.55488 -7.75394 -0.547594 
970 1 3.76129 1.02205 7.3539 
6666 1 1.6993 -8.80316 -3.8716 
6665 2 0.19778 -2.17538 0.198205 
9910 1 0.696625 0.21526 4.91686 
4606 1 -1.76251 4.18286 -4.92247 
9911 2 -1.16495 3.21776 2.83806 
4607 2 -4.14508 -1.10527 1.57565 
2186 2 1.49711 1.28239 0.434493 
5032 1 -3.18058 -0.687255 1.27621 
2187 1 2.67814 -5.64964 -1.60293 
5033 3 0.86715 3.07879 2.31382 
2185 1 -2.70796 0.800148 1.68255 
20392 1 3.64324 -0.292939 0.67161 
14789 3 0.839955 -2.29276 -0.903425 
5034 1 -6.27066 2.90976 0.330918 
14788 1 2.09816 -2.41842 8.70163 
1322 2 4.5523 2.65315 -2.5157 
16250 2 -2.70668 -3.27231 -0.43984 
16251 1 -0.445282 -4.823 -0.562442 
16593 1 3.99228 -2.91181 0.0570244 
745 1 -3.17482 4.74953 -4.77737 
746 2 -0.708089 -2.1409 1.92573 
17460 1 -0.623351 -1.10977 1.3887 
19691 2 -2.64553 -2.61535 0.76468 
3947 2 -1.03579 0.214518 -0.315251 
3946 1 -0.299241 0.411854 0.864733 
20941 1 -2.3716 -1.4358 0.281956 
20943 1 -10.6709 0.550863 3.38249 
20942 2 0.415918 1.85766 -3.14024 
12858 1 1.67296 0.110198 -1.26775 
17421 1 0.367825 0.626137 -5.18619 
17420 2 1.48951 -0.801917 -3.24804 
8931 1 0.530428 -5.14218 1.05689 
19692 1 -4.09664 -0.494225 -0.768423 
4838 2 -4.45434 -3.47574 -0.349387 
627 1 7.30163 -0.304729 5.94554 
4839 1 0.222835 1.23325 2.00425 
4837 1 -2.449 -0.981867 -0.866185 
17419 1 0.1635 0.610407 -2.80116 
13836 1 2.22084 -11.4953 -3.20109 
13835 2 3.39988 -1.1818 0.68757 
12571 1 9.0235 4.67215 1.09019 
19721 2 -3.66195 3.29609 1.19387 
19722 1 -0.205271 1.31804 -2.53851 
19720 1 -0.404521 5.50893 -4.45266 
2060 2 1.92826 -1.22639 -0.789747 
9895 1 3.51502 -1.70424 8.07873 
9896 2 -0.709697 0.538421 -2.36211 
2059 1 -3.10289 -4.24215 1.1851 
9897 1 -3.76106 -4.92302 -0.0160261 
15059 2 -0.647497 2.28582 0.119038 
877 1 -2.42808 -2.47566 -1.4642 
15058 1 1.02769 6.18905 -0.151659 
4369 1 -2.6921 -2.7721 -3.1124 
18179 2 -0.930959 -3.55235 1.41052 
18180 1 0.735045 0.578319 0.145852 
9912 1 5.22115 -3.45693 5.728 
18178 1 1.13787 -0.0678033 -2.80371 
2061 1 3.09553 5.19343 -1.31842 
9200 2 0.885023 -0.750119 0.57908 
4370 2 -2.75999 0.166399 0.625556 
16249 1 3.57975 0.624643 3.01051 
14383 1 -0.81364 -0.0365932 -3.63574 
14384 2 -0.645943 -0.106223 1.20527 
14173 1 0.52905 -2.40167 6.38892 
14385 1 3.86669 4.69234 -2.92417 
14174 2 -0.558245 1.54069 -4.17542 
2284 1 -1.02194 2.86219 -2.44566 
12534 1 -2.19093 1.76731 2.51069 
2285 2 0.176974 -2.67086 -0.477459 
2286 1 3.56052 -0.0591983 1.1609 
12533 2 -1.07735 -4.26993 0.757044 
13834 1 -6.82627 0.635409 -1.51859 
15331 1 0.527146 -1.97293 -1.53464 
15332 2 -1.34287 2.31703 -1.32426 
15333 1 1.19189 5.44407 -1.19736 
5914 1 -3.08013 0.499895 -3.57695 
5915 2 2.99582 4.27807 1.97303 
879 1 2.56435 3.85856 -2.10472 
5916 1 1.27044 -1.75206 5.95202 
878 2 -1.91714 -3.58488 0.622605 
13329 1 1.56855 4.88342 -0.661451 
13328 2 -1.32557 0.889651 4.99963 
13327 1 0.88297 3.05023 3.32262 
4119 1 -2.58423 -2.53586 5.28381 
11256 1 -3.89089 4.20578 -4.77767 
9201 1 -4.68012 -2.32578 3.75412 
11255 2 0.0926125 2.0706 3.37458 
11254 1 5.98053 4.90975 -4.66889 
4563 1 -0.510715 1.20782 0.972571 
9199 1 -1.01842 -0.592898 -3.59738 
9811 1 3.38118 -0.419785 -0.189583 
14175 1 -4.76867 0.78459 0.549217 
12532 1 -3.35458 -1.92175 1.23638 
1630 1 0.218939 -0.557161 1.06346 
5592 1 1.93689 1.74231 1.1648 
5591 2 -0.440956 2.04438 -0.375656 
1631 2 -0.592678 -3.77803 -1.89451 
1632 1 -1.48103 2.7058 2.09698 
13602 1 -1.52808 -2.9788 8.06534 
13601 3 0.290897 -3.87444 4.01044 
13600 1 0.813591 1.28616 -3.80091 
16822 1 -3.35013 2.0132 -0.289739 
6537 1 3.5704 4.14205 0.509786 
4707 1 -0.455415 -2.8188 0.115458 
6535 1 8.42424 -7.33982 0.28395 
6536 2 8.23976 -5.0297 2.81703 
16240 1 6.78365 -7.22355 -4.04835 
15464 2 1.14747 1.19722 -2.6329 
13304 2 1.50816 -0.82301 2.91433 
2093 2 1.01754 -1.20525 3.84643 
13303 1 1.68806 -1.94152 0.784938 
20373 1 3.19163 -6.59968 3.41873 
1224 1 -2.83562 -0.0457459 0.00437369 
1223 2 3.62994 -1.68385 -1.32475 
3351 1 1.68102 -0.0166927 -8.20392 
1222 1 0.502531 3.56457 -0.60571 
16823 2 0.490216 -0.393524 3.2027 
16824 1 -2.72165 2.01225 1.91111 
9615 1 -3.05625 -2.43396 -2.02178 
14161 1 0.195839 3.26723 4.63817 
9613 1 -7.57751 2.83229 3.14009 
1677 1 -1.91332 -4.04113 -3.05712 
9614 3 1.59656 -2.80782 -0.129434 
13272 1 0.166629 -5.6502 -3.05124 
13271 2 1.68955 1.59441 -1.05895 
2884 1 -7.44227 -1.57662 -1.2303 
2885 2 0.533887 0.945752 1.36026 
5493 1 -3.47401 2.69797 -3.98327 
7204 1 -3.25118 -5.23815 6.46252 
7121 2 -1.79626 0.426167 2.77573 
7122 1 -7.09036 -1.92976 1.30248 
12682 1 1.6853 3.70514 -1.49489 
7120 1 1.67723 -0.569379 -3.45929 
7205 2 0.727931 -2.36856 -3.1482 
7206 1 0.263269 0.183434 -0.976807 
11797 1 0.764987 -1.59435 0.487099 
15463 1 2.46416 -6.73238 3.03939 
3318 1 6.60008 -1.06916 -2.89993 
11798 2 2.86319 -0.871725 2.22553 
13805 2 -2.77254 0.545332 -1.24722 
20372 2 3.03677 0.318189 0.578336 
13804 1 -2.85801 6.36018 10.5739 
3317 2 -0.301811 -0.443422 0.54776 
6023 2 -2.48129 3.13984 -0.630419 
6022 1 6.43884 0.836614 8.71398 
3316 1 -0.210733 0.130965 -1.09347 
18310 1 -3.72527 2.16033 -3.90187 
20371 1 1.44243 -2.07492 -1.52695 
6024 1 -3.47217 -5.97278 6.12286 
1095 1 -0.792638 5.66933 -4.07686 
18311 2 -1.66864 1.49098 2.71999 
8217 1 -1.93924 0.966251 1.80221 
8216 2 0.0644043 -2.45052 0.715685 
8215 1 -0.340253 1.50371 0.984972 
1833 1 -0.201269 7.67628 -0.697887 
9318 1 -8.84891 -1.75062 2.86654 
1832 2 -1.62853 -3.4657 1.39918 
1297 1 4.08865 6.73104 -1.93362 
11009 2 -3.12949 -1.26957 -0.0302721 
11010 1 -5.58552 -2.88929 5.86448 
14162 2 -0.476636 -6.30972 -3.33234 
14163 1 2.12014 2.51336 1.19684 
2084 2 -2.69229 -1.20865 0.490414 
19000 1 1.63029 3.75476 -4.53439 
19002 1 -1.42968 3.29898 -0.943161 
19001 2 1.83561 0.679978 -0.494392 
2728 1 7.06076 6.95704 -2.93366 
2083 1 3.1885 3.96566 0.839525 
3882 1 7.6292 0.643007 -0.581877 
11952 1 -3.78728 -4.59035 0.895388 
3881 2 -3.65195 -0.354645 -1.63851 
3880 1 8.72066 0.636326 -0.843899 
11661 1 2.98372 -1.79101 -2.29585 
9701 2 1.07535 3.01185 1.80936 
9700 1 -1.21836 3.83707 0.207016 
9702 1 -3.22839 -2.74093 -2.43358 
14098 1 1.49707 -1.93119 0.928439 
11660 2 0.501163 3.40278 -5.86 
14099 3 2.10495 4.84579 -0.897409 
12683 2 4.81142 -1.27212 -0.0579122 
13456 1 1.47207 -2.73937 0.18411 
13457 2 0.958931 -2.5324 -0.376622 
13458 1 -3.85479 3.09556 3.06704 
4134 1 2.27561 -3.09181 -2.79538 
12684 1 -1.12698 1.9297 -2.74808 
18312 1 3.0239 2.16402 1.35652 
13132 1 1.43049 -3.64256 1.47603 
13133 2 0.998166 0.88758 -4.72143 
1513 1 3.83597 0.794106 -6.56062 
1372 1 3.3123 2.34295 -3.50283 
1094 2 0.477069 2.61302 -5.38119 
1093 1 -0.907858 2.1752 0.16802 
1515 1 2.12233 5.6325 -0.423003 
1514 2 -4.16116 2.65326 -0.779456 
18764 2 1.78643 -4.17499 -0.422236 
13134 1 0.725648 0.245674 6.14267 
18763 1 -6.78918 1.25021 2.83444 
10467 1 -5.15786 -2.02168 -0.00946931 
10466 2 0.321308 4.0577 4.75702 
2434 1 -3.42447 2.44242 -2.45841 
9317 2 3.87671 -1.33132 -0.145372 
5690 2 -1.69736 3.72295 0.315543 
9316 1 -0.385188 -0.146538 4.39794 
5691 1 6.50998 -10.3238 -7.09552 
10357 1 3.21291 -0.828926 -2.16216 
5689 1 4.92833 -1.37525 0.0126825 
10358 2 -2.54296 0.720098 -1.00433 
7869 1 1.10844 2.35017 1.57598 
20357 2 -0.967634 -0.655086 -0.768266 
18933 1 5.61892 2.38487 -1.01283 
588 1 -1.55251 -3.96543 -0.718971 
586 1 4.76274 -2.71417 2.47359 
20358 1 4.34787 1.04397 2.28046 
587 2 1.0155 -0.707819 1.09074 
7078 1 -2.20372 -2.79628 -10.3664 
5433 1 -0.426017 -3.82416 -2.53232 
20356 1 -2.87188 3.36007 2.00929 
7079 2 0.280792 1.80706 -3.36291 
7080 1 3.56684 0.597208 -0.879926 
4371 1 -4.36692 -0.603325 -4.94336 
4608 1 -0.175353 -0.42501 -4.27404 
11781 1 -1.94371 2.15383 -0.768999 
11780 2 -0.973234 4.55832 -1.30793 
11779 1 -5.91333 0.671648 1.48017 
4410 1 -1.53098 3.46536 6.49305 
20784 1 -4.88735 5.8242 2.36648 
20783 2 -1.65094 2.04563 2.72942 
20782 1 0.860674 0.942809 -6.7261 
17097 1 6.48674 1.09187 -4.26877 
10559 2 1.7549 -0.452441 1.52486 
10558 1 -2.66649 4.46747 -0.0852803 
10621 1 -2.2905 -2.46523 0.454038 
14521 1 2.80959 -5.50284 -1.13684 
14522 2 -2.17538 0.672596 -1.73539 
747 1 5.34853 0.838118 0.77461 
14523 1 2.52139 2.75247 1.97479 
17458 1 4.78786 14.7279 1.6488 
4659 1 3.02425 4.48983 -0.732492 
4658 2 1.9923 -0.650499 2.00662 
17459 2 -1.14852 -3.97492 -0.276441 
1373 2 2.82106 1.53154 -0.286643 
1374 1 1.42553 2.87972 -0.80646 
1015 1 -0.542306 -0.771265 -2.94408 
1016 2 -7.68411 2.05084 0.958629 
1017 1 -1.37142 4.21141 -1.23053 
14297 2 -1.50137 -2.47856 0.0830837 
14298 1 -5.55741 2.25688 -1.81989 
20106 1 -1.80801 1.08869 0.931354 
14296 1 0.236778 -1.22796 7.02175 
8930 2 1.39786 -1.78109 -3.16413 
10465 1 5.0937 -4.27589 8.06712 
10359 1 3.55618 6.80818 3.28399 
9535 1 -5.73335 0.380844 0.00781052 
8929 1 -2.78425 -2.90592 5.01412 
12573 1 -1.09756 2.02364 0.294144 
12572 2 -3.61386 -0.852302 -2.88902 
15512 2 3.16026 -2.11204 -2.51839 
15513 1 -4.03394 1.12147 -1.63087 
9536 2 -0.0593911 0.852643 4.35862 
9537 1 1.45894 -9.70187 4.97352 
13971 1 -6.48903 -1.47625 -1.87623 
11926 1 -2.01735 6.14419 1.33099 
12901 1 -4.10231 -2.25389 -2.71725 
12902 2 1.85641 2.80678 2.87104 
5432 2 -2.21895 2.12143 -3.15629 
5431 1 -4.19026 3.9593 -4.84454 
17650 1 0.69195 -5.75677 -2.60612 
15060 1 4.17274 4.50282 0.790811 
19177 1 -2.21137 -6.20702 -2.92506 
13970 2 1.56993 1.1942 0.200783 
13969 1 0.357627 5.67436 -4.01867 
19178 2 3.41897 2.32439 -4.95397 
7758 1 0.776375 -4.98739 4.77971 
17651 2 -0.245597 1.01719 0.228769 
19179 1 -0.690673 3.89828 -1.07709 
16533 1 4.22765 0.68552 -2.73448 
3486 1 -5.23068 -3.79666 -3.15112 
12814 1 -1.52113 -2.79135 0.105377 
12815 2 0.857533 1.48039 2.07505 
12816 1 2.08358 1.7948 -1.97526 
4409 2 1.76437 -1.67681 0.540949 
3485 2 2.03517 -2.22284 -0.342831 
16532 2 2.28425 -2.6032 0.914063 
20394 1 -2.0451 -1.70604 1.84037 
4408 1 6.32814 -1.74971 3.99879 
20393 2 0.262798 -3.53935 -1.18669 
17096 2 -1.55775 3.57841 -2.07758 
5855 2 -3.69553 4.07851 1.65195 
5854 1 -0.411873 2.09903 -1.34717 
5856 1 2.38662 -1.27182 3.33278 
20488 1 -5.29595 4.03124 -4.61611 
20489 2 -0.0821075 -2.39598 -2.03001 
9735 1 0.298782 0.675671 -1.2811 
12922 1 3.22538 -1.5937 4.04456 
20105 2 1.07358 5.42543 0.78154 
12923 2 -0.919654 0.613408 -2.32819 
12924 1 2.50479 -2.19295 -4.01398 
15102 1 -4.87554 3.3976 0.0666533 
15101 2 -2.42618 3.76463 -0.534659 
15100 1 -1.51076 -6.17175 -6.14457 
6714 1 2.21439 4.73414 -0.297984 
20104 1 2.97217 2.85976 0.290501 
15511 1 -1.08859 -1.84217 -3.92099 
12600 1 3.76362 0.719081 3.22589 
12599 2 -2.22778 0.344901 0.0361498 
14966 2 -2.2356 0.403102 -1.27544 
14965 1 0.4908 -4.34743 -0.0163917 
12598 1 1.87491 -0.205268 -8.03286 
6363 1 -4.872 -1.55961 1.36398 
6362 2 -3.58949 -3.26964 3.45179 
10968 1 -4.61404 -2.43742 1.27386 
10967 2 -3.85894 3.75395 2.92891 
2383 1 -6.66412 -7.79835 -0.654725 
2384 2 -0.872146 1.28919 1.20853 
7757 2 1.93955 -0.339478 -1.16002 
6361 1 2.71287 3.673 -4.31981 
2385 1 3.88517 5.31287 -2.17083 
7756 1 -5.96621 0.962151 3.38635 
4561 1 2.95609 2.7281 -2.66562 
4562 2 0.241965 -1.76287 -0.488473 
9650 2 1.23571 -0.45138 2.49346 
4118 2 0.317963 2.45662 1.32815 
4212 1 1.8568 -1.45955 -2.78032 
3484 1 4.3342 3.47841 1.23767 
9651 1 -2.55403 2.02795 3.05613 
4210 1 -2.79721 -2.19148 -3.90713 
4211 2 3.27325 -0.700596 4.66434 
4676 2 -1.02817 -3.00845 0.50782 
4117 1 3.89959 -0.190179 0.25389 
9649 1 2.66134 1.55085 6.94177 
9812 2 -2.63591 3.88328 0.434027 
9813 1 0.00820928 3.96397 -5.65762 
4677 1 -2.84371 -2.14446 -5.3039 
11775 1 -2.36121 -1.59845 -1.62791 
14086 1 -4.35833 0.817528 -3.73196 
19371 1 -4.64775 -1.36076 -0.189004 
19370 2 -1.18645 -0.176624 1.05284 
11774 3 0.375137 -0.225809 -4.01026 
5590 1 -1.50133 -4.22423 3.00523 
11773 1 -5.40379 0.673018 3.97703 
19369 1 3.71711 -1.62815 -1.06879 
5329 1 0.99073 2.72978 -2.91305 
5331 1 -3.65709 4.29973 -0.10061 
15858 1 -2.43009 -1.90457 -0.750444 
5330 2 -3.30002 3.57626 4.79844 
12976 1 -0.918111 -1.72136 5.58715 
12977 2 -3.01309 1.39758 -0.258571 
14967 1 9.17321 0.691009 -3.91811 
3724 1 1.15471 0.463703 -3.13994 
15856 1 2.25916 -2.49059 -5.47955 
14088 1 -3.51599 1.84105 -0.103205 
14087 2 3.42647 0.235405 -3.43585 
3725 2 -3.80412 2.48217 1.72934 
12978 1 0.488207 -1.49797 5.33982 
16836 1 2.04657 -2.50637 -1.60692 
16835 2 -0.643241 -4.41892 2.42088 
17301 1 2.89841 0.834542 2.76625 
6051 1 -3.52136 -0.931899 -0.107256 
17299 1 3.64322 -2.85066 5.23384 
17300 2 -0.999551 2.83448 1.4517 
16834 1 3.17243 -6.47943 7.55814 
15857 2 -0.596753 3.10322 -4.28369 
13823 3 -0.72218 0.335734 0.444533 
13824 1 3.62175 -0.189521 5.77865 
13822 1 0.737474 -0.537261 3.47486 
14052 1 4.58757 2.67653 7.93626 
14457 1 1.08641 0.475918 2.28773 
2373 1 -7.66188 6.08276 -1.22383 
4706 2 1.07988 2.66791 1.32111 
4705 1 4.04767 0.57558 2.36442 
15465 1 4.39362 -0.240223 -1.09421 
13941 1 -5.22628 -0.00350533 3.5633 
13940 2 -2.49506 2.75318 1.92814 
14500 1 -3.83324 6.97641 -2.95157 
14501 2 -0.754455 -0.87396 4.92949 
14502 1 -2.82292 -4.73684 -7.29167 
13939 1 2.93217 3.37675 0.744139 
10216 1 0.966526 2.90075 0.0207606 
2092 1 0.443684 0.689138 -1.68278 
9814 1 -5.8159 2.84905 3.13388 
5716 1 -1.93298 5.42126 2.88647 
5717 2 -3.40019 2.08566 0.384957 
5718 1 -2.24366 4.41994 -2.12021 
14051 2 3.91984 -2.87023 -1.25888 
14050 1 1.37063 -6.21156 -6.73948 
14915 2 -1.99144 3.99801 -1.75555 
2094 1 3.24948 0.119239 0.0589169 
14916 1 -2.55026 -2.50485 -2.14643 
9815 3 0.557659 -0.627241 2.91583 
14456 2 0.15353 1.88811 -2.01813 
1675 1 0.313059 -1.19883 1.96208 
1676 2 0.645007 4.98212 -6.16032 
8137 1 -1.46181 3.81722 1.9477 
8138 2 1.95823 -1.67739 0.423948 
14455 1 1.20016 0.140781 -0.118621 
8139 1 0.918884 -0.414231 2.33114 
13270 1 -4.54745 2.37025 -0.0116027 
19423 1 5.74225 5.29662 -5.98283 
20185 1 6.65497 -0.546938 -1.49824 
20186 2 1.3628 -2.6986 -2.95574 
20187 1 -5.6603 3.07735 -6.46165 
8302 1 -0.0901227 -3.00403 -5.29244 
8304 1 -2.80343 4.20069 -0.853474 
8303 2 -2.16691 -3.98338 -2.35679 
16064 2 -2.76046 4.5303 1.31538 
16241 2 -5.01025 -0.203374 0.579801 
16242 1 -0.77089 1.97347 1.16491 
6618 1 4.23324 4.17718 -4.23288 
6617 2 1.94763 -1.59143 0.788129 
6616 1 1.49121 -5.6063 4.6798 
11283 1 0.45256 -2.52216 -1.10575 
11282 2 3.02287 -0.809125 -1.56898 
11799 1 3.87526 2.31335 0.859161 
11934 1 2.28514 -0.0990473 -3.65901 
15811 1 1.2681 1.40925 2.99334 
949 1 -2.0088 -2.17373 -3.40619 
950 2 -3.98218 -4.9526 -0.989799 
951 1 3.80201 -1.68916 2.56501 
17629 1 -6.53172 -3.67521 -1.61575 
14914 1 -1.50702 8.09196 5.45693 
13119 1 -1.67646 10.403 0.346767 
13118 2 1.13931 -1.20805 -0.626153 
11933 2 -5.19123 1.23375 -0.53237 
11932 1 1.72423 3.68844 4.1108 
12603 1 0.437377 10.7153 -4.5249 
12602 2 -0.575972 1.24729 1.61678 
12601 1 1.46187 8.80411 4.78727 
4250 2 -1.93572 0.269569 4.74243 
11443 1 0.268757 -0.474085 -0.60928 
11444 2 1.77156 -0.393256 -1.94028 
11445 1 -4.83254 2.43205 -2.78755 
21282 1 -3.2515 0.973916 3.79985 
1831 1 -2.5037 -6.00208 5.17429 
7201 1 2.6363 -2.21638 -3.86577 
9838 1 -0.964909 0.988536 -7.10706 
7202 2 -0.569471 0.288632 0.592965 
2729 2 -1.47887 -4.36081 -0.787654 
11008 1 -0.193706 2.14568 0.275581 
21281 2 1.67257 -1.01248 0.837202 
8571 1 5.29148 -6.17726 -0.731966 
14344 1 -1.08916 -2.60892 -2.29503 
21280 1 -1.16602 3.13406 1.78033 
15089 2 0.916095 -0.342604 -3.96112 
15088 1 1.31501 0.142846 -5.32634 
8570 2 -0.236041 -1.73043 0.0128174 
8569 1 6.03176 0.467952 -0.206193 
15090 1 -7.79965 3.95437 -0.0401373 
18660 1 0.688076 -0.291124 4.62821 
11763 1 6.50127 6.37275 4.54847 
12646 1 0.607559 -1.21987 5.27737 
12647 2 -5.15665 -0.286138 -3.568 
16065 1 1.31108 1.461 -5.23964 
11659 1 -5.22877 -0.281082 3.95892 
12648 1 5.95759 -1.97965 -4.40474 
7594 1 -1.22524 0.958532 2.94625 
10096 1 2.8434 -3.36516 -4.24424 
7596 1 -3.4353 4.5196 -6.89289 
4702 1 -0.379532 3.9975 -0.521244 
14100 1 -5.8113 1.58492 -8.00416 
12347 3 1.27039 0.65851 0.864186 
12348 1 8.04596 0.643348 -2.15177 
12346 1 -4.78213 -7.83679 -0.487667 
16063 1 -1.5246 2.77866 3.81273 
4133 2 -4.61329 1.50877 -0.169125 
11281 1 0.542832 2.8407 3.47091 
4132 1 1.2177 1.19078 -0.359922 
14355 1 -1.5963 4.2139 -5.33207 
14354 2 0.967691 3.62821 0.70043 
14353 1 -0.28424 2.23497 1.20405 
17630 2 -1.57307 2.86474 -2.66329 
2435 2 -1.65099 0.202189 3.6036 
17631 1 1.27069 -0.413288 1.73231 
11355 1 -1.62742 5.57327 2.93832 
11354 2 3.21062 -4.81194 -3.33213 
11353 1 7.16175 0.699623 3.64523 
12472 1 -4.23817 4.12005 -4.92706 
5223 1 0.272866 -0.636714 0.982121 
10381 1 -6.35826 -0.961547 2.29499 
10383 1 -6.29434 10.4476 -2.37928 
10382 2 -1.3828 3.44708 3.74624 
7868 2 0.113054 3.24477 -0.0145345 
9840 1 -2.3335 -4.41936 2.98364 
9839 2 2.80452 -2.74758 1.55667 
2436 1 3.6352 -0.693125 -3.49327 
4251 1 -10.3614 1.81665 1.68515 
4249 1 0.279605 2.58331 -2.27011 
7867 1 8.6342 -1.45392 5.94064 
17876 2 -9.715 3.2463 0.0515099 
20430 1 0.741846 1.39868 -6.72773 
17875 1 -3.65811 7.77005 3.8341 
4311 1 2.57861 5.4125 0.201019 
2730 1 -5.19093 -6.62154 3.2979 
4310 2 0.544415 2.32137 1.98634 
4309 1 0.116571 -4.65859 1.14662 
18064 1 5.74796 -5.62233 -0.889831 
10098 1 -2.81737 2.91846 2.35858 
5485 1 -3.98533 3.76289 2.14956 
18065 2 0.864752 -4.37579 3.13694 
5487 1 5.24302 -0.881177 -5.29935 
16531 1 4.89865 5.22205 3.39337 
5486 2 -5.45916 -1.6405 2.46766 
11761 1 5.6318 1.1787 -2.8993 
11762 2 -3.84575 1.92005 2.78208 
2880 1 2.52518 5.99869 -7.68881 
10097 2 1.45123 3.16957 -0.0310311 
15982 1 0.780122 -0.623281 -6.13357 
15984 1 0.940968 0.53751 -0.000739986 
2629 1 1.75422 -3.046 4.11735 
15983 2 2.6298 2.56771 -2.16 
10560 1 -0.658352 -5.59877 3.8989 
2879 2 2.6014 3.6674 -0.336307 
2878 1 1.38627 4.68701 -4.63088 
15721 1 -2.68599 1.80869 1.71333 
18656 3 2.22128 -5.1784 -0.476129 
18655 1 -1.08849 3.69837 1.8678 
11130 1 6.88464 0.289888 -1.6374 
10622 2 -1.50428 -3.12732 -1.44404 
18657 1 -2.92933 2.70212 2.46023 
10623 1 -2.85562 1.51333 -2.6036 
16141 1 2.29778 -3.96549 -0.380108 
15703 1 8.02777 -12.3221 -2.26179 
15704 2 -1.5691 -5.06444 -1.16642 
4657 1 -0.438022 0.17877 4.87906 
5674 1 1.49626 2.50177 4.03301 
5675 2 0.50807 1.45967 0.521961 
16142 2 2.4242 -1.18038 0.376308 
16143 1 -3.07736 -0.203394 -1.80968 
2199 1 -6.39975 -1.79118 0.225406 
2198 2 -2.12831 -0.140204 -1.61349 
9384 1 -0.512654 -0.202359 -0.5265 
18765 1 -3.88076 1.56349 -6.29411 
15705 1 5.76891 -2.87114 -3.72863 
10657 1 -4.77719 4.83004 4.06615 
6930 1 0.761621 1.40036 0.939906 
6929 2 1.50864 0.327542 -1.07674 
6928 1 -2.46421 1.01169 3.03543 
9382 1 1.83283 -0.570509 0.628932 
2197 1 -0.421239 -3.11033 -6.12012 
14760 1 7.47972 -5.22167 1.32162 
11927 2 1.09517 0.179362 -0.224787 
9383 2 -3.81712 -0.806007 -0.495874 
20428 1 -2.23932 6.68728 -1.60112 
11928 1 3.76616 -3.0626 -0.258757 
20429 2 3.48 -3.42869 5.88454 
12903 1 2.4771 5.16577 -0.859142 
8586 1 -7.42549 -7.16546 4.61215 
8585 2 1.85703 1.2117 3.17883 
2418 1 5.651 2.57641 0.0987162 
17652 1 2.95017 2.07081 -7.89054 
2417 2 2.16872 -3.21285 0.586606 
10472 2 0.0842692 5.19916 -1.89024 
6432 1 0.747738 -5.38945 5.67373 
12555 1 7.26764 -0.712452 6.01579 
10749 1 -5.62006 -3.07977 -2.00644 
10473 1 2.53622 0.43539 0.6809 
20162 2 2.6817 0.856896 2.10605 
2416 1 -0.855555 3.30412 4.9084 
2896 1 2.24982 1.78312 -1.87149 
10471 1 5.7589 2.57422 0.950921 
6430 1 -4.86464 2.82388 -2.94354 
5494 1 0.482284 1.42812 -3.03794 
5495 2 -1.46601 -0.0355631 2.27296 
5496 1 -1.36643 4.90152 1.962 
16563 1 0.631511 -2.06997 2.36195 
12564 1 -2.4483 3.68772 1.13884 
12563 2 -3.5493 -1.48388 -0.31091 
6431 2 -2.78016 4.40079 -3.68969 
16562 2 1.19536 -2.03691 -0.735765 
12562 1 -4.85577 1.11745 -4.35524 
20161 1 -5.43256 -5.10625 0.0399448 
19233 1 -0.643223 1.04308 -2.17017 
19232 2 3.02732 -4.73773 -0.500243 
17095 1 3.89823 0.694495 -5.93215 
19231 1 -0.642546 -0.719765 -8.73769 
5676 1 6.22571 -2.2503 -3.44851 
19071 1 -5.54124 -3.47542 -1.0366 
20490 1 3.74838 -3.30647 1.0064 
9734 2 1.16725 5.88062 3.11006 
19070 2 -0.96372 1.43223 -2.51954 
14759 2 -5.40732 0.282044 -2.29317 
14758 1 -3.53948 -1.91186 3.40798 
10659 1 -1.22585 -2.82045 4.40913 
10658 2 -1.46934 -1.08433 -4.62582 
6713 2 -0.613786 0.347558 -0.607858 
6712 1 3.906 -0.760514 -5.40527 
3081 1 2.00341 -3.17351 -0.68752 
11544 1 -4.03921 -1.90852 -5.07416 
20575 1 -0.648895 8.47323 -3.10765 
20576 2 -0.141342 -0.417919 3.73187 
9733 1 0.844596 0.64723 0.400156 
20577 1 0.11349 -2.30387 6.89588 
11543 2 -3.75478 -0.394339 1.4079 
8584 1 7.59195 -3.08331 -7.12786 
9589 1 -4.74994 -6.2816 0.856751 
9590 2 -2.29934 1.0259 0.645142 
4929 1 -3.40934 -1.96304 0.978953 
9591 1 0.691378 -0.865261 -4.79849 
4928 2 1.81441 1.18177 1.3487 
11352 1 -1.81329 -0.717812 -7.57052 
11350 1 -4.34027 0.597327 4.10502 
11351 2 -6.07793 -3.23041 0.84234 
10966 1 1.22261 -2.22792 2.57055 
16527 1 0.909189 -7.9894 1.40588 
16526 2 2.87561 0.752496 -0.816436 
19292 2 0.181983 -6.59651 3.67143 
19293 1 1.03073 -2.61955 -0.219809 
10747 1 -4.60668 -6.62795 -0.697146 
10748 2 -1.41956 -2.73925 3.04973 
16553 2 -0.271663 2.84313 2.19818 
16525 1 0.949337 5.84811 3.9302 
20919 1 2.64022 -3.10765 0.755186 
20918 2 1.83462 -0.0780007 4.41813 
19291 1 0.310476 3.07618 2.34094 
4675 1 1.97816 -3.52557 5.86118 
1812 1 1.61455 0.632266 -1.70999 
1811 2 0.887814 -0.592512 2.96968 
1810 1 -1.39734 -5.5989 0.687664 
18090 1 2.80957 -1.35096 1.15733 
20134 1 0.845485 -1.43678 1.87837 
20135 2 2.8631 -0.0877686 3.4356 
6762 1 0.0352449 0.669235 -0.890781 
6760 1 0.555394 6.85085 1.09481 
6761 2 -1.66062 -2.34383 2.33139 
21522 1 -1.30909 5.15915 -3.66592 