ITEM: TIMESTEP
50000000
ITEM: NUMBER OF ATOMS
5547
ITEM: BOX BOUNDS pp pp pp
0.0000000000000000e+00 5.0000000000000000e+01
0.0000000000000000e+00 5.0000000000000000e+01
0.0000000000000000e+00 5.0000000000000000e+01
ITEM: ATOMS id type vx vy vz 
18106 1 -1.38219 -1.92735 -4.68188 
25 1 -3.89358 0.749194 -2.33818 
21058 1 -2.75395 -1.80861 13.2017 
26 2 1.70559 0.439914 0.305918 
2642 3 0.792486 -2.80307 2.5318 
2643 1 -1.94743 3.781 2.51427 
27 1 3.33009 -6.05421 1.38133 
2641 1 1.96699 3.18693 1.02084 
15140 2 -1.72284 -3.73839 4.06898 
6452 3 1.15084 -0.339016 2.53752 
6453 1 2.51479 -0.488644 0.983749 
6451 1 -0.702667 -3.53753 2.08304 
21217 1 1.58239 1.65417 0.755124 
21218 3 0.0402051 1.96113 -0.175817 
21059 2 3.64717 -2.44773 -3.85211 
16544 3 0.219368 -2.75384 -4.36592 
16545 1 -6.4363 -0.252277 2.98145 
21060 1 0.952142 -4.17593 2.11446 
21552 1 1.1231 1.64634 2.95234 
21551 3 1.92343 1.04779 5.03584 
6135 1 -2.67308 -3.98128 -0.779933 
16543 1 -2.05348 1.33079 -4.87746 
16153 1 2.30847 1.5136 -2.25399 
3118 1 1.65212 -6.05345 1.50142 
3120 1 -2.87958 -0.541428 1.17484 
3119 3 -1.4856 -0.626449 3.56466 
468 1 -0.755438 -3.97859 0.30612 
11316 1 -2.62055 -2.27401 0.492255 
6201 1 -5.01043 0.762931 6.65003 
466 1 7.54763 -2.91324 0.474866 
467 3 -2.68078 4.72547 -0.318173 
6200 3 2.53567 2.05961 3.62069 
13326 1 4.07777 -4.59976 -1.99208 
13325 2 1.34395 -0.366066 -0.697114 
14907 1 -5.04467 -1.46166 -5.05051 
18092 3 0.542633 -3.32963 4.48959 
8910 1 2.41839 -0.319765 2.32652 
13324 1 -0.276855 -0.71474 6.60723 
18093 1 -0.0748806 -2.67746 2.64838 
13792 1 0.283965 -2.95996 -6.9461 
13793 3 3.0045 -2.15196 -0.113456 
13794 1 1.93546 -5.82231 -0.86122 
10593 1 -6.81021 -3.62091 0.957752 
13620 1 -0.259196 -0.235756 1.30366 
14905 1 -0.945806 2.9656 -4.86074 
14906 3 2.22837 0.799371 1.17678 
10592 3 0.681913 -0.309473 2.42316 
20444 3 0.893438 2.9888 -6.04823 
17675 3 1.66557 -1.94409 -0.170745 
8845 1 8.15656 0.166906 -1.80643 
17676 1 -3.71466 -0.841971 -0.945376 
10591 1 -7.2871 -4.58361 -5.3525 
20445 1 -4.64485 4.58486 4.45531 
20443 1 -1.78737 -1.44866 2.01401 
14593 1 -5.74391 -2.99078 3.86887 
14594 3 -0.456531 2.61905 -0.601988 
8846 3 -1.54702 0.256177 -0.530142 
15007 1 -1.59753 2.80694 -3.39307 
17674 1 -1.85246 -5.34261 3.48722 
14595 1 -3.75673 0.467424 -0.140253 
447 1 -2.20047 -0.986924 3.15374 
7493 3 2.45453 1.16776 0.267626 
13401 1 -4.59492 0.373121 5.29784 
7494 1 -5.33146 -0.955489 -7.42177 
7492 1 0.368596 -4.38639 -1.68076 
8847 1 1.35506 5.15658 -4.45298 
11609 3 -2.13332 1.74846 0.819507 
11608 1 -4.36721 -8.08674 -2.29924 
14717 3 1.54263 1.5539 6.55536 
14716 1 3.4365 -2.77056 2.44022 
13400 3 3.5037 -3.51904 4.87649 
15141 1 -2.97166 4.49697 0.640976 
13399 1 -4.31822 -2.84689 2.84952 
11610 1 -1.35427 3.11712 0.962207 
21230 3 -2.15292 -0.339225 0.815655 
15217 1 2.32308 -0.299249 3.16834 
21219 1 -1.78479 4.14597 3.04294 
16054 1 1.1599 0.32294 1.24987 
15218 3 0.230221 -0.793496 0.563199 
21550 1 -5.33553 0.155484 -1.04733 
13708 1 -1.29474 5.89133 -0.955178 
21229 1 -1.32384 3.88312 -1.84441 
11658 1 1.20394 -0.679825 -2.43655 
13709 3 -0.215732 -1.66738 3.99599 
13710 1 1.68258 3.40984 -3.24667 
8640 1 2.33008 3.95798 2.78681 
9493 1 2.54267 1.33991 -3.90142 
9494 3 -4.33825 1.57123 -1.21591 
9495 1 5.78295 -1.1506 -4.8515 
4423 1 3.30443 -4.72488 -2.98236 
4424 3 0.201166 2.45136 2.38052 
16056 1 -1.02148 8.65569 2.0527 
16055 3 -5.58633 2.03657 2.17991 
9460 1 -3.63627 2.07097 -0.719201 
16154 3 -0.389039 -0.905063 -3.18851 
16155 1 3.01074 -5.60837 -0.824733 
19015 1 0.377131 -7.77047 4.64801 
19017 1 3.34957 -1.77285 -0.882347 
19016 3 3.46645 0.80087 2.41315 
16985 3 -0.497813 3.49974 -0.578416 
5249 3 -0.272245 -0.612874 -2.23902 
16986 1 -0.16247 -1.38922 0.0254415 
16984 1 -0.247311 1.52332 -3.03974 
11315 3 -2.70662 -2.54145 5.55277 
15315 1 -5.69932 -1.5164 1.24804 
18091 1 0.263903 3.59615 0.529845 
3338 3 -0.261721 0.351472 -1.07027 
5394 1 -0.543965 4.93932 6.24438 
3339 1 6.25514 -3.2318 2.10818 
3337 1 2.21831 -4.18676 -3.19423 
19543 1 0.585425 -0.0737495 1.00903 
19544 3 -2.835 -1.91619 -1.21381 
21 1 3.00022 5.3369 -0.48662 
5248 1 0.556601 1.58683 -7.61787 
20 3 -3.07471 2.27904 -3.81361 
15314 3 -2.28278 -1.44459 1.9195 
15313 1 1.86891 -3.60512 5.39838 
7143 1 -7.01988 0.713344 5.7483 
15009 1 3.01958 -2.16853 -3.68204 
4306 1 2.2161 -0.100372 3.39508 
4307 3 2.2308 -1.92658 -3.3641 
19545 1 -7.7026 0.624137 1.31124 
4308 1 0.948228 -5.67373 -7.0752 
15008 3 -2.43987 3.03434 4.03353 
1059 1 1.11844 -6.60376 -1.08853 
14613 1 0.0865623 -1.24273 1.54043 
1058 3 2.09469 -0.660167 -0.836145 
1057 1 2.78661 -0.955356 -6.61375 
15048 1 1.50812 -2.1509 3.21797 
14612 3 0.638931 0.112501 1.75845 
18503 3 -3.80224 -2.35433 1.82129 
16288 1 1.86741 2.18734 3.80014 
18504 1 -2.07469 -1.01873 5.20727 
7824 1 -2.29645 4.72267 1.11736 
7823 3 0.0632942 0.15309 0.327321 
10693 1 -0.474383 -3.1373 1.99578 
7822 1 -0.53492 -1.48749 0.925146 
18673 1 -3.52362 7.69761 -1.6907 
2176 1 -1.86526 2.47818 -2.24043 
10694 3 -0.0383828 0.30296 1.00808 
14718 1 2.44306 2.30789 0.82912 
2178 1 0.580719 -4.74919 -3.89287 
2177 3 -0.204951 1.77449 2.35512 
15768 1 1.3987 -5.60768 1.564 
15767 3 -2.27141 -0.837243 2.61464 
10695 1 -2.14348 -4.89379 1.70851 
10887 1 3.29795 4.2937 3.57808 
15766 1 -1.6791 -2.94384 0.128353 
5899 1 0.683266 5.43943 -0.0208392 
14908 1 -1.6492 -0.622675 -4.75572 
5900 3 -3.35666 -2.36378 -0.0798552 
7725 1 1.72684 -2.50051 -4.68291 
5901 1 -5.59966 4.16606 3.00705 
7724 2 -0.18053 1.99111 5.55066 
7723 1 1.43688 1.12227 0.333419 
6518 3 0.151881 -0.322754 2.36733 
18693 1 5.08822 2.40094 5.98473 
6519 1 -3.056 -6.53988 3.93756 
18006 1 -2.7583 -0.909085 3.82203 
6517 1 -2.47743 -0.50911 6.17912 
18005 3 -3.07338 0.0878274 -2.48289 
2265 1 2.09402 3.07071 0.973391 
20121 1 -1.54755 0.942378 2.96324 
2264 3 -0.65084 -1.75053 0.800928 
20120 3 -0.349534 -1.65627 3.18858 
6029 3 -1.03229 2.65281 2.82468 
6028 1 1.11791 2.28306 -5.39413 
2165 3 -1.65844 -0.754111 0.407324 
2263 1 -0.424671 -4.55879 -2.60289 
18004 1 -1.89651 6.50209 0.317248 
11657 3 -3.24746 2.15297 -1.0011 
11656 1 0.941552 6.99475 4.93797 
1629 1 -3.05486 -0.653241 4.11591 
1628 3 -1.25242 -0.982762 -1.57661 
1627 1 -2.35155 4.88504 -4.2248 
16590 1 0.770201 3.94669 0.67313 
16589 3 1.08802 -1.4251 -2.41633 
10584 1 1.35617 -0.2166 -1.76421 
4798 1 1.18161 3.53417 -4.02329 
4799 3 -2.34362 -5.22588 0.399406 
19193 3 1.78797 1.65781 -2.71634 
19194 1 6.81698 0.281942 1.66421 
4800 1 -1.11606 1.45993 -0.95341 
2036 3 -0.709099 0.555324 -0.0208121 
19 1 0.348579 1.68182 2.05813 
19192 1 -5.85887 0.349365 -1.01969 
6312 1 4.67267 2.80539 6.87154 
6310 1 -0.0709331 1.79508 1.06839 
10744 1 -1.04515 0.674275 3.3329 
6311 3 -0.239454 2.76927 4.44985 
2409 1 2.69942 0.592465 -1.8287 
2408 3 -1.50356 1.93506 -0.235487 
7693 1 2.2139 3.22156 6.49574 
7694 3 1.46703 2.3004 -0.550344 
1067 3 -1.98365 -0.819973 5.3051 
1066 1 3.26379 -4.07428 3.65399 
11273 3 0.682119 0.317293 -1.21018 
11274 1 2.91329 1.70995 2.81773 
1068 1 1.58612 -5.73641 -3.34053 
11272 1 -3.38467 4.07075 -3.28409 
2658 1 0.890713 -0.177268 7.60195 
13067 3 0.253142 7.02847 1.65963 
2657 3 0.697627 -0.714642 -4.32011 
2656 1 0.0182722 -2.57359 -1.79924 
16297 1 -2.852 -1.72263 -1.17628 
5946 1 2.06026 -0.84293 -4.17014 
16298 3 -1.78394 -0.871859 4.80663 
16299 1 -0.962125 0.895548 -3.49626 
7347 1 -3.89694 -1.72766 -5.9596 
5945 3 -2.80082 1.52978 -2.86375 
17767 1 0.0174048 0.142393 2.35088 
17900 3 4.17369 -1.88032 -0.431374 
18674 3 4.9773 5.08733 -1.76785 
18675 1 5.39983 -1.46876 3.88246 
17899 1 -0.935221 1.12956 3.5502 
19894 1 5.07826 -4.82806 0.89481 
19895 3 2.89061 -1.48492 -0.844049 
7845 1 1.4164 -1.58124 8.79306 
7844 3 -0.639174 -6.05223 -0.853825 
13660 1 -4.74209 -1.64048 4.45766 
7843 1 -0.262616 1.99336 -0.307746 
1212 1 -0.705863 3.3198 5.95584 
1211 3 2.4548 0.264454 -4.69703 
1210 1 0.628303 0.518042 -0.231316 
3399 1 0.530332 -3.23311 -2.23233 
11057 3 3.46854 -0.943944 -1.27244 
3957 1 5.55796 -2.86305 -2.34408 
11056 1 -0.341624 4.66048 -0.113343 
3398 3 4.12551 -2.00524 -3.08554 
3397 1 -0.586817 -3.01394 -1.34396 
2164 1 -3.72821 -7.8017 -2.53493 
506 3 3.21986 2.99649 -2.92398 
507 1 -1.69613 -4.27552 2.88672 
505 1 -0.358563 0.824342 3.15711 
11257 1 -1.52891 4.57865 -6.07046 
18942 1 2.66911 -4.63183 5.85774 
20691 1 -0.885149 -4.41036 0.277345 
3956 3 1.44239 2.24059 -3.72809 
18940 1 -1.10421 1.27922 -3.95841 
3425 3 3.77567 1.49573 0.657864 
18941 3 1.0219 1.16203 1.55279 
11258 3 -0.741039 -0.59696 -1.27661 
15395 3 4.76661 -1.44969 -4.2494 
15394 1 1.37798 4.72033 9.03796 
3426 1 2.36595 1.30224 1.1989 
5312 3 0.558008 2.45115 0.29712 
5313 1 2.76907 -7.22465 4.40288 
2037 1 -0.217862 -0.403842 -3.65382 
15491 3 -3.35207 -0.704621 2.70365 
5634 1 -4.47382 6.2075 0.837565 
5311 1 -5.39312 1.03163 -1.17178 
15490 1 -3.9394 3.08645 3.37182 
15492 1 -3.32878 1.46927 -3.22332 
5633 3 2.33906 -1.69319 5.81247 
2253 1 -2.24058 -6.41201 0.213343 
4441 1 1.58805 -3.76035 -0.606336 
12822 1 -2.54079 0.253526 0.766064 
12821 3 1.53069 -0.586005 0.442062 
16282 1 -0.995863 3.37199 5.55667 
12820 1 -2.74576 -2.18196 7.07388 
16283 3 3.16437 -3.28299 -2.31418 
4442 3 3.60275 4.61145 -1.55797 
5632 1 -1.7408 2.27217 -2.37631 
13068 1 -1.47797 -0.0827909 3.37503 
7089 1 2.59936 -5.27708 2.30212 
7088 3 -2.10103 -1.74056 -0.894028 
7087 1 -0.0234602 -1.04831 1.7174 
16284 1 -4.54215 -6.90023 -6.00453 
3389 3 -1.93246 2.23567 -2.10439 
13662 1 -1.59161 -0.352772 -4.91773 
90 1 -0.643131 1.29942 -0.698549 
11816 3 -0.717113 -3.55635 3.83462 
11817 1 -0.968548 -2.7862 -0.643716 
11045 3 1.93407 -2.67794 -0.713288 
11046 1 -1.09503 3.90458 0.705773 
3735 1 -2.62904 1.25563 -0.927554 
11044 1 -1.38613 2.5842 -5.09096 
15823 1 1.64781 2.19342 -5.64299 
15824 3 -2.70895 -1.91137 0.0746648 
11815 1 -0.684195 1.26327 0.346516 
4857 1 -1.0416 -2.58504 4.40572 
4856 3 -1.92734 -3.70407 0.0271778 
4855 1 -1.36134 4.59732 -3.34733 
14995 1 1.07352 2.1648 6.85102 
20638 1 8.09298 1.44521 -0.961138 
1371 1 0.336539 -1.23027 -0.363476 
7346 3 0.319916 -2.52712 -2.50319 
14996 3 1.66336 2.62402 5.97048 
13661 3 -3.96329 -4.07378 -0.832402 
5759 3 -0.0194379 -0.6262 0.101063 
20640 1 -3.49808 -2.62772 -1.8609 
472 1 -4.14637 -2.41736 4.29899 
20639 3 0.0467887 0.333135 -3.09147 
5758 1 4.39626 -2.0731 -0.742763 
20845 1 -0.573262 1.09639 -2.3981 
20846 3 2.03388 -2.33718 1.18228 
20847 1 -2.06048 0.54915 2.37448 
5227 1 -1.28172 1.73404 -4.03566 
473 3 -1.17377 1.47342 -0.339851 
15223 1 0.666845 2.30907 -1.04402 
13080 1 -2.32524 -2.77174 3.15297 
13079 3 0.0922732 -1.33979 0.487499 
15224 3 -0.217489 -3.39076 3.00312 
13078 1 -2.45962 -1.685 1.41461 
15121 1 -1.35421 3.234 2.55133 
15123 1 4.19836 5.91552 -4.70065 
15122 3 5.45534 2.38583 0.353189 
443 3 -0.837454 -2.06998 1.38964 
1085 3 -0.393014 -2.63562 0.391701 
3955 1 -1.05961 4.94304 0.244561 
19768 1 -3.86172 0.274604 2.44522 
15874 1 1.25529 4.94917 1.68542 
15875 3 3.96928 -3.53309 -1.49487 
442 1 -9.6898 1.07374 -0.939276 
5686 1 -2.66537 1.21424 -0.0351177 
139 1 1.60188 -4.80378 -1.33104 
5687 3 -5.5068 -2.27376 -1.01085 
5562 1 -2.27304 0.347951 5.87847 
15876 1 0.447262 -0.73672 -3.47194 
3186 1 5.84962 -2.61136 1.74108 
3185 3 -1.68471 3.37373 -0.941347 
3184 1 1.68743 -3.89995 2.62375 
9712 1 0.235512 7.11972 2.23757 
5688 1 -3.66335 1.01765 -2.00881 
12828 1 3.97543 -6.00643 -3.96203 
140 3 -1.6692 -2.26203 4.66688 
141 1 1.18666 -1.79548 3.8452 
18600 1 5.2107 -2.05848 -0.539298 
15396 1 1.89206 0.703556 -2.57908 
4695 1 0.1067 0.710048 1.49545 
4694 3 4.34088 0.185808 -0.525062 
4693 1 6.96216 3.72316 -7.85362 
2170 1 2.64534 -3.17244 4.46849 
2171 3 -1.16699 -0.0239341 -0.085174 
2172 1 -8.93964 -6.7204 -0.857708 
19642 1 -1.23042 0.606718 -2.20417 
18599 3 -0.845431 0.130838 0.751134 
20268 1 -0.265433 0.841884 -0.240913 
18598 1 -1.99071 -2.65718 3.9502 
19644 1 0.722167 0.634352 2.98435 
19643 3 -3.18856 1.33036 -0.788031 
2251 1 -4.81128 1.30411 0.545842 
17359 1 1.30161 -1.5085 -5.06149 
17360 3 2.6169 3.80707 -1.52114 
17361 1 1.62924 0.662599 0.0926877 
5763 1 3.4886 -3.14306 8.58319 
2252 3 -2.7044 1.13743 0.0340545 
12969 1 4.41256 5.1169 2.48326 
15528 1 -0.934032 -6.27186 -4.2659 
15527 3 1.83287 -2.78632 1.85929 
15526 1 5.17053 7.89137 -3.28298 
6637 1 -0.0694479 0.112898 2.81648 
12968 3 0.82578 -3.05158 2.31198 
18210 1 -0.272879 0.333834 -6.76616 
3828 1 3.23963 3.76186 2.27013 
3390 1 4.14528 8.85821 -0.222079 
3827 3 -0.952312 -0.161316 -0.35814 
6638 3 -1.02287 0.0416656 0.586604 
3733 1 -6.30793 -6.4454 -5.99856 
3734 3 1.0156 -0.302162 3.92026 
2667 1 -4.45934 -4.10794 -4.60093 
1228 1 -9.09041 -1.80011 -3.3318 
16743 1 -0.884747 -0.280469 1.29427 
1229 3 -0.944359 -2.93535 -0.954122 
16742 3 1.10981 2.25909 -4.75495 
6639 1 0.845826 -1.05536 -4.53716 
2666 3 1.75535 0.2627 -1.42922 
2665 1 -1.02737 -0.850823 -2.05461 
20341 1 0.946148 4.02853 -1.12732 
5451 1 0.344329 5.05438 -0.0160239 
20342 3 0.57627 3.1842 1.58855 
14946 1 4.94408 -2.4292 -4.26676 
14944 1 2.27637 -1.39366 -1.7865 
14945 3 -0.324515 1.68482 -0.243085 
2026 1 2.25665 0.360329 -6.02076 
5450 3 2.20377 5.12011 0.693366 
6428 3 -1.92926 -1.33875 0.776937 
6429 1 -5.24016 -3.15223 2.30362 
2027 2 4.83806 -0.659339 3.72511 
6427 1 2.22911 2.35409 -2.1352 
7376 3 0.784391 -0.699815 2.38122 
7375 1 -0.587487 -1.73794 3.28593 
2028 1 0.135178 -5.01699 0.280248 
18251 3 -1.04113 -0.289018 -0.483174 
18252 1 8.36551 4.35786 2.69211 
16020 1 -5.19968 -1.22758 4.69283 
2079 1 5.58828 1.2953 4.79553 
2078 2 4.16099 0.629946 1.41191 
2077 1 1.70316 -2.15726 2.82014 
16019 3 6.22089 1.60785 2.50278 
16018 1 -0.527898 -3.9176 0.00469916 
8523 1 -1.12614 -0.25251 -0.519189 
8522 3 -1.95325 0.4063 -0.0857347 
20601 1 -3.76842 2.66723 0.29048 
8521 1 0.453871 3.83464 5.34313 
1086 1 3.37569 3.58614 2.3496 
20599 1 -0.879969 0.430009 -3.41113 
20600 3 -1.34274 3.53504 -5.0739 
9713 3 2.74452 2.24239 0.711814 
59 3 -1.84496 -4.99588 -2.22807 
9714 1 1.8183 -5.05297 0.98561 
60 1 -6.35681 4.79128 3.45776 
20912 3 -6.12564 -1.4023 -1.71579 
6096 1 -3.58713 3.50921 -0.535537 
3963 1 -0.00211944 0.974735 -5.36715 
20911 1 -0.952728 0.116604 2.8248 
3962 3 3.81027 -0.870874 1.07367 
3961 1 -3.59806 -4.45651 -2.25437 
15863 3 -0.639375 -0.607389 -1.86775 
14474 3 -3.16201 -0.0701407 -0.706728 
14473 1 -6.54941 0.0766103 -1.33775 
15862 1 -1.14525 -3.4025 3.51541 
14475 1 -1.10495 0.929716 2.98217 
104 3 -0.984675 7.27285 -3.29948 
630 1 0.57007 0.195087 -2.42777 
103 1 -2.43138 4.72524 2.15414 
629 3 -1.80864 -1.64467 1.32442 
105 1 -2.16595 5.97722 0.561742 
3508 1 -1.74997 -0.894684 2.20329 
628 1 0.43352 -4.61438 0.781279 
12073 1 -7.09419 -5.4988 -1.12877 
12074 3 1.43542 -4.53841 3.74333 
12075 1 0.0583726 -5.15402 1.66529 
12967 1 0.389193 -0.87743 6.94011 
12250 1 3.01631 -5.57299 2.56815 
1385 3 -0.469506 -3.58452 -2.89209 
12251 3 0.653098 1.83992 1.90206 
12252 1 9.17532 0.201782 -1.7739 
11514 1 -2.55287 4.74077 3.44907 
1384 1 1.74915 -4.34878 3.06768 
1503 1 -3.60734 -7.08426 1.30604 
5274 1 0.0728093 3.98736 2.06831 
1230 1 -6.08204 3.38897 2.85929 
10717 1 2.37092 3.94261 -0.59343 
3009 1 -4.08849 1.64042 -0.926445 
3008 3 4.09619 3.77319 -0.588656 
3007 1 2.38266 -0.432973 -6.58443 
7455 1 -0.564462 0.492674 -0.543455 
1501 1 0.275105 1.17698 -0.858573 
7454 3 -0.756285 0.300302 2.58441 
10718 3 2.1754 -3.40918 -1.43829 
7453 1 2.93158 -1.1027 3.34448 
20343 1 4.13298 2.26304 -1.17927 
16777 1 0.399738 -1.35621 2.66486 
16778 2 -0.30513 4.13538 -0.188144 
14487 1 -3.29514 -0.101343 -6.01468 
14486 2 -0.283363 -0.497219 -0.282924 
16779 1 1.3057 -3.03261 1.77938 
15872 3 3.94702 0.96816 4.21356 
5224 1 -6.72736 0.40967 13.3324 
15873 1 9.27196 -1.37948 -0.115021 
15871 1 2.91873 2.07701 0.11042 
1942 1 -2.34553 0.832278 -0.733403 
1943 2 1.09156 3.45897 -0.546015 
1944 1 -3.39717 6.62191 1.84821 
8170 1 -0.821782 -0.502706 -0.160312 
14883 1 -2.39133 7.29351 -0.879633 
258 1 -0.0989407 -1.08931 0.28454 
257 2 0.630819 -0.750684 3.89132 
256 1 -1.87985 -5.2493 0.235827 
14882 3 -0.688389 3.03912 -0.393893 
6094 1 -6.37524 0.855254 -1.54125 
6095 3 4.75882 2.50943 -1.69133 
13725 1 2.82532 -4.83276 0.643744 
7533 1 -0.158436 0.159877 -4.88827 
13724 3 0.0289438 -0.082858 -3.36796 
7532 3 0.864301 1.9917 2.08527 
15864 1 5.3601 0.0104975 0.322079 
4209 1 -8.10522 2.27829 -0.720395 
6674 3 1.71276 0.303021 -0.799397 
4207 1 -6.05637 -1.72021 -1.28985 
6673 1 -3.85888 1.30999 4.73649 
13316 3 3.89931 -5.21257 1.58011 
13315 1 1.5382 3.67001 0.733443 
13723 1 -1.08625 4.70125 2.27342 
4208 3 -1.01913 2.0186 1.40858 
7754 3 -1.7912 -0.262354 0.612671 
13317 1 -1.03224 -1.75637 -2.81499 
7755 1 4.93744 -2.90553 4.27458 
12475 1 2.51445 -0.719866 -0.770906 
21285 1 1.0843 2.51087 0.586759 
21284 3 3.73107 -0.575856 -5.98963 
5682 1 -4.26194 -1.65135 7.68464 
5681 3 -4.54162 5.84268 2.8191 
19118 3 -0.78353 -0.138124 -0.720178 
7753 1 1.89118 0.141181 4.32491 
3509 3 1.29807 0.0610526 -0.186772 
3510 1 -0.7691 -3.11375 -0.17517 
21283 1 5.88357 -2.9784 4.7945 
20101 1 0.413419 2.4396 2.93152 
11512 1 -5.60225 -6.7231 3.14156 
19119 1 1.86814 -6.13599 -2.18376 
11513 3 0.555579 1.71353 0.0535784 
19117 1 -6.25339 6.24699 -1.46092 
6368 3 3.70679 -0.363789 -4.19537 
6367 1 0.875626 -1.22534 -4.69075 
1836 1 4.05432 -0.629749 -5.24133 
1502 3 -0.870436 -0.416193 -1.94085 
16200 1 -0.588298 0.771533 0.638225 
1835 3 -3.72999 -2.74619 6.65502 
13038 1 -2.4218 0.288481 -0.0440018 
16199 3 0.240592 1.5523 -1.12932 
16198 1 4.83234 1.8782 -6.45816 
2241 1 -7.77295 3.09744 2.17066 
2240 3 0.352867 -1.43667 0.182364 
18944 3 -3.2627 -4.45048 0.538112 
18943 1 3.02167 2.09942 -1.11241 
20250 1 0.901234 -2.23008 -4.31722 
20249 3 0.0204644 -5.15585 2.91652 
20248 1 -0.250276 -0.695701 1.15243 
1612 1 -0.100731 5.31941 -4.571 
18945 1 0.602422 3.55077 3.8546 
14763 1 3.12461 0.716015 6.51796 
11419 1 0.362314 -1.31287 -7.64258 
11420 3 5.19823 -1.32315 -2.0236 
6675 1 0.504486 -2.59753 3.43832 
12476 3 -0.925401 3.64434 -0.0359164 
6369 1 -2.15384 -1.06179 -0.93662 
19434 1 -2.75714 -0.728855 -2.41883 
19433 3 -5.48396 -6.01173 2.67292 
13523 2 3.28271 -2.11522 -0.844446 
13522 1 2.20207 0.859547 0.768409 
13524 1 -2.5666 6.07139 -5.44955 
18128 3 -0.0160479 2.99505 0.313464 
15139 1 -5.04617 1.79865 4.37467 
20770 1 -2.25834 -0.499139 -1.52809 
20771 3 1.74225 0.557477 3.8051 
20772 1 -3.1742 2.16322 0.167135 
75 1 1.40898 2.06134 -5.36959 
73 1 -7.73866 4.24898 0.558601 
18001 1 -5.19981 -4.69011 -2.70592 
74 3 0.0382283 0.525347 0.0567543 
18002 3 0.608164 2.94272 1.48058 
6199 1 -4.16409 -1.54626 4.58336 
14426 3 -1.12027 1.84154 -3.2896 
14048 3 -0.152145 -1.37791 -2.683 
14049 1 2.74806 2.08432 0.515931 
2904 1 3.94404 2.4673 -3.0814 
2903 3 1.38362 -2.74964 1.29191 
2902 1 -4.0234 -0.0183052 -0.524492 
14425 1 1.03574 4.85287 1.7828 
18129 1 -1.2083 3.65614 3.79973 
14427 1 1.78775 1.00674 -3.88389 
13859 2 -0.913403 0.127634 0.000336033 
13858 1 0.586372 -3.9255 -4.83245 
18127 1 1.57175 -0.353048 -1.31998 
14382 1 3.39477 0.417852 -1.44825 
14381 3 -3.45684 3.85173 -3.95161 
13860 1 5.36937 -4.15167 -0.701745 
8862 1 -1.52887 -2.66061 -1.43566 
8861 3 -3.8132 -3.27932 0.785287 
8860 1 0.923274 -0.00965476 -0.249416 
15740 3 3.05795 -1.7855 5.85104 
15739 1 0.846914 2.33608 -1.84428 
446 3 -1.39868 4.61029 4.22281 
445 1 -7.20546 3.37484 -8.35644 
18372 1 0.00210319 1.1785 0.665733 
6030 1 -0.263592 -4.42747 -6.1202 
4172 3 0.607808 -2.68493 -0.697199 
1988 2 1.51481 -5.21107 0.435314 
1989 1 5.30746 -5.16151 -2.92845 
1987 1 -1.96304 5.21577 2.05407 
4173 1 1.44428 1.90677 -4.21178 
8370 1 -0.725427 -0.177427 -7.33402 
21231 1 -3.04722 5.56077 2.83912 
8369 3 -6.46472 5.25597 -0.651811 
19271 3 1.96386 -4.33547 3.34264 
19270 1 -3.76222 -2.12927 0.585717 
8368 1 -3.09158 2.61588 -4.71598 
19272 1 1.41524 -0.490155 -3.09993 
5392 1 -1.32159 3.41195 6.3076 
5393 3 -1.00614 -1.07856 -1.24773 
18003 1 7.06283 1.51276 -2.73251 
1471 1 4.8584 7.38207 -2.41357 
1472 3 -0.7061 -1.62435 1.22547 
1473 1 -5.25421 -3.08968 2.64012 
6920 3 -1.54009 -0.428957 -3.97703 
6919 1 -1.28917 2.00997 -2.99748 
19762 1 -1.99715 -0.386601 -2.56601 
19763 3 -0.310564 -2.11229 -1.47339 
6921 1 1.40193 1.47165 -2.33058 
14380 1 -2.42911 -1.46592 -4.35975 
1378 1 -0.840005 -2.62926 -2.81317 
1379 3 -2.59589 -2.50148 -1.8039 
10075 1 -0.448388 -2.53094 6.14089 
3058 1 6.31977 1.99333 -0.121418 
3059 3 1.2794 -1.03173 0.733873 
1380 1 -1.47827 0.580113 -3.36532 
6544 1 0.790428 -4.07816 2.02327 
10076 3 -0.750242 -2.60369 3.91063 
20396 3 3.39738 -0.803794 -0.0459724 
16290 1 -0.828151 -2.69978 3.63389 
15741 1 0.973375 5.25968 -3.09456 
6731 3 -6.41804 -0.955417 2.01448 
14611 1 2.36647 -0.0313424 0.240561 
7810 1 -0.591757 5.16305 3.10826 
6730 1 1.46967 1.0382 -4.91502 
3060 1 -4.30166 1.96055 2.16863 
6732 1 1.30579 -4.72923 -3.61145 
7811 3 -0.212622 -2.21113 -3.33949 
7812 1 -5.10679 5.14086 -0.0753926 
1951 1 -3.2075 -1.00336 1.24647 
12871 1 -0.501878 -1.66679 1.72638 
16289 3 2.24962 5.61837 -2.03851 
18371 3 4.16823 1.51766 -1.34475 
18370 1 -1.14866 -4.66111 5.02909 
12872 3 2.55411 2.99242 -1.94001 
12873 1 2.2334 0.955209 -4.04588 
12202 1 6.59628 4.81249 -6.89465 
12203 3 2.83749 -1.54953 2.75315 
5265 1 3.63629 -2.69552 -3.46264 
5264 3 -0.199835 -1.13308 -3.11747 
12204 1 -0.913577 -4.66576 -3.94653 
10886 3 -0.117237 -1.39507 -1.49562 
10885 1 -1.86929 -1.40823 0.471077 
5728 1 3.79136 3.46343 0.886619 
5729 2 5.34424 -4.07924 2.45148 
9772 1 -7.60997 4.37177 0.898555 
9973 1 -6.66522 0.823785 4.94995 
9773 2 -0.686374 -1.17947 3.17761 
9774 1 1.59065 2.24817 -10.4995 
14909 2 -3.43941 2.31432 -4.59963 
14910 1 -5.29897 0.644745 2.01142 
15091 1 -0.667975 -3.75349 -2.47855 
11730 1 -2.27286 0.925153 -2.22941 
11729 2 -0.121063 -4.0127 -2.38372 
11728 1 0.240962 0.101049 2.29799 
2166 1 -2.62157 2.00111 3.82291 
17178 1 0.450952 6.89348 5.17535 
20119 1 -0.228175 -2.22856 4.25408 
17929 1 2.23129 0.160524 -2.7377 
17930 3 0.343491 1.8868 -0.985774 
17931 1 -1.19781 1.02593 -1.99658 
4171 1 -0.550309 -3.36509 1.01144 
17177 3 -4.02417 4.48671 -0.208999 
17176 1 -0.943392 -2.79484 3.99319 
16762 1 2.71892 5.27319 5.03359 
13610 3 0.169739 0.336123 -3.18556 
16588 1 -4.44393 -3.09212 -0.469795 
4425 1 -3.73776 -2.94266 -0.380184 
13609 1 -5.96396 -2.86189 6.01886 
13611 1 -3.84334 0.194793 -1.25408 
6511 1 6.11116 2.81516 2.52587 
2103 1 5.57638 2.03864 -0.396772 
11832 1 -2.12069 1.81044 -6.33797 
11831 3 0.955643 2.22777 -5.1712 
11830 1 -2.5176 3.18104 1.8312 
6512 3 -3.17407 -1.79728 0.679841 
10437 1 -0.118531 -3.3848 -3.80569 
10436 3 1.50844 1.31484 -0.908928 
13642 1 2.78296 0.958006 -0.504094 
13643 3 1.786 1.84413 1.20676 
5250 1 -2.17933 3.73082 -2.01684 
2102 3 -0.496171 -3.97192 -4.29104 
9128 3 6.02722 -1.21949 -2.81806 
2101 1 -0.32598 9.33335 -1.88681 
3083 3 -0.932019 -0.698811 1.94279 
3084 1 2.3224 0.507184 0.974848 
3082 1 1.54609 -0.86184 4.69843 
9129 1 -0.798545 2.75755 -0.941765 
19066 1 4.96824 -1.81882 -8.21361 
9127 1 -0.352116 -5.62537 -0.327382 
2035 1 3.51402 -3.6668 3.97569 
3109 1 -4.22928 -2.45183 -3.69382 
10745 3 -4.00458 -1.80319 0.220135 
10746 1 -0.977768 -0.286393 0.826511 
3217 1 4.62764 -0.408738 2.30012 
3218 3 -0.00317008 -2.06222 2.62288 
3219 1 -0.215918 -0.676966 -1.57996 
15945 1 5.34964 -5.75972 1.48379 
19764 1 -3.61719 0.644487 9.52013 
1159 1 -0.771808 -2.59732 -8.66703 
1160 3 -0.767907 -1.39307 -0.499988 
20995 1 4.85934 1.87912 5.60878 
1161 1 0.169319 -2.66538 1.71421 
6546 1 0.6638 -3.99211 1.90682 
6545 3 1.40784 2.8523 -5.21379 
15944 3 -2.28944 -0.304378 -2.2686 
2407 1 -2.26805 4.98136 2.55335 
15043 1 -0.126101 5.89653 0.72271 
15044 3 -0.2715 0.290564 -0.0333268 
15045 1 -2.82682 -3.37223 0.0145518 
20397 1 0.219323 0.643484 -4.47378 
6166 1 4.51219 3.52156 -0.849094 
6167 3 0.276487 0.981922 -2.94756 
6168 1 -5.20364 -4.43663 -2.83911 
18020 3 -1.93771 -0.0437988 -0.625198 
18021 1 -3.11639 -3.20953 6.10362 
15127 1 -4.68473 -2.19473 -6.76891 
15128 3 -0.53998 3.638 -1.35047 
15129 1 2.80603 -0.1282 7.02368 
12960 1 5.05905 2.56947 4.67313 
20395 1 -6.57641 2.83665 2.46723 
18019 1 1.81603 -2.59097 -4.02326 
17901 1 -3.04682 0.95831 -1.95919 
15072 1 4.23556 -2.20343 -1.90483 
15071 3 -1.12116 -1.99691 2.82703 
15070 1 -0.370315 0.739315 -4.49205 
11242 1 -1.02324 2.82614 -2.17173 
19896 1 -0.711579 -3.97889 1.319 
5574 1 -0.501396 5.26317 -3.74546 
11244 1 -0.101917 4.23012 -4.60919 
11243 3 -0.683886 -1.87288 0.844929 
14579 3 -0.196138 1.59158 -2.04786 
14578 1 0.861849 -2.44789 -5.20311 
20234 3 0.311504 4.05904 -0.035018 
15958 1 -2.79681 -0.477309 6.79742 
20233 1 3.52703 2.81117 -3.86652 
5730 1 -0.876479 -0.83132 -1.19501 
12426 1 -0.292764 4.57397 1.87772 
15959 3 -2.56506 -1.42621 1.57649 
20235 1 2.15478 -1.42326 1.77578 
21078 1 1.23504 4.20538 6.85374 
12425 3 1.76757 0.870336 -1.58523 
12424 1 -1.83409 -0.67192 -2.25333 
9974 3 0.650218 -1.93324 -6.00783 
17202 1 6.06216 -1.53809 -1.43755 
9975 1 -2.8822 5.14678 1.61969 
17201 3 1.44535 -3.25718 -0.368267 
17200 1 -1.02366 -4.48699 3.89626 
1399 1 5.88527 -2.44823 -4.26809 
15092 2 -1.59296 -0.665449 1.75611 
17014 1 0.529821 4.05833 0.815397 
17015 2 -4.28471 3.19188 0.848562 
15093 1 -0.115304 -0.412159 0.33886 
17016 1 2.67513 8.82701 -1.51178 
12060 1 5.5731 0.391126 -2.93638 
12059 2 -0.468929 6.13339 1.86319 
16763 3 3.43023 3.51045 2.70388 
16764 1 4.16946 -1.75957 -2.03922 
2974 1 -1.08668 0.8059 -4.4399 
12058 1 -1.05664 0.493969 0.904815 
14604 1 -0.00122134 -3.3609 2.97183 
2975 3 3.00318 6.25516 -2.72608 
20690 3 0.10707 1.18492 0.837742 
14603 3 -0.252279 -2.59032 2.65537 
20689 1 -2.09823 -0.00685047 -6.13874 
6513 1 -0.93054 1.44892 3.85211 
3424 1 4.55492 2.54502 0.00761568 
13644 1 -3.21931 -2.25408 0.264513 
2727 1 0.150759 -2.11865 -2.90676 
2726 3 -5.63984 -1.48703 1.40074 
2976 1 -3.17914 -4.65008 1.75049 
2725 1 0.170973 -0.734073 3.23466 
3111 1 5.24957 3.18313 -3.2834 
19050 1 -5.0319 5.42391 0.966875 
11737 1 1.57026 -0.704449 4.11705 
3110 3 5.68421 1.29007 -0.530879 
14736 1 -4.20881 -1.46196 -6.74469 
14735 3 0.868553 0.264995 0.305473 
20997 1 1.92098 -1.9792 2.83445 
20996 3 0.581448 -1.014 -2.30097 
9399 1 -1.40114 -2.25896 -4.99897 
9398 3 0.0242208 0.671647 0.851381 
9397 1 0.688398 -0.892219 0.757313 
10405 1 1.28032 -2.09645 8.60239 
14734 1 -4.93499 3.43776 -1.85544 
2495 3 7.66612 0.0467834 3.62465 
15104 3 -0.170537 1.45473 4.31893 
1576 1 -2.32559 -1.4113 -5.34774 
2494 1 0.269013 -5.82091 -0.544354 
20952 1 -0.772042 0.336661 8.15766 
15105 1 -4.85566 -3.26985 2.198 
15103 1 -1.95686 -6.88252 -1.73655 
6162 1 -5.481 -4.68401 1.37065 
6161 3 -5.24315 -3.1362 1.26607 
6160 1 -6.43159 2.28449 3.26298 
7033 1 -0.337473 -3.19833 1.45616 
7422 1 0.782698 0.092551 -0.220577 
12959 3 2.91392 -0.231025 -1.89626 
20950 1 1.82625 0.467993 0.395917 
3388 1 -2.08623 0.0338414 4.98338 
20951 3 -1.5731 -0.341912 -0.427156 
2499 1 -5.89197 -2.04605 0.891841 
10398 1 0.201162 2.88921 1.31014 
2498 3 4.21112 -0.790106 -3.37436 
10397 3 1.41299 1.07812 0.679109 
7345 1 -2.10537 5.55091 -7.51694 
2497 1 0.624547 1.82908 0.359094 
5573 3 1.15293 -3.68994 -2.27598 
14997 1 5.16471 1.40584 -5.17694 
9376 1 -3.79541 1.78642 3.31385 
9377 3 0.881224 2.88278 -0.921919 
9378 1 -1.67363 -1.09828 -2.76121 
7447 1 0.613631 2.62635 0.458297 
5760 1 2.03576 3.02406 -0.724767 
15960 1 -3.26757 0.0294079 -1.08142 
474 1 -3.85561 0.977116 -3.17426 
4218 1 -1.1257 2.22212 1.81699 
4217 3 0.322552 -0.430288 -1.93082 
4216 1 -4.38945 2.75412 6.45583 
16236 1 -5.89588 0.975775 -1.06235 
1400 3 -0.471276 1.06076 3.25977 
1401 1 -3.59164 1.97477 -3.54332 
18467 2 0.0240025 -0.0835035 3.42019 
15610 1 -0.993318 1.87784 1.82021 
15225 1 -0.491252 1.07209 -0.238297 
15611 2 1.3399 -1.19895 2.58476 
15612 1 -4.38447 2.17755 -5.01867 
18468 1 -3.34493 4.03144 1.78432 
19770 1 -0.474492 3.6428 -3.95613 
15600 1 0.77767 -0.436935 1.10453 
18466 1 0.0968465 3.99985 0.622146 
15598 1 1.5399 -1.59549 1.19018 
15599 3 6.42844 0.777123 3.84304 
19769 3 -0.0230904 0.072506 1.48652 
9314 3 -2.56275 0.526379 -0.667172 
9313 1 0.669561 -0.242127 1.49315 
14602 1 2.60727 2.18657 3.39869 
5823 1 -2.24191 2.82453 -4.55869 
5822 3 0.0509754 -0.321849 -1.8919 
5821 1 -1.30615 2.58555 -0.366817 
5561 3 -3.73342 -1.3153 -1.11682 
10752 1 3.21548 0.462667 -0.248953 
21306 1 0.499216 4.64337 2.22331 
12827 3 -1.56802 3.79714 4.09521 
21305 3 -2.66406 2.55947 0.219306 
21304 1 -1.1556 5.51345 -4.74901 
5560 1 -5.01425 -0.130908 2.16611 
10751 3 1.16133 -1.17888 -2.14909 
10750 1 3.12838 4.61812 -7.03143 
11806 1 -5.7742 -3.21803 1.88651 
11807 3 -0.166213 -1.30079 -2.54678 
11385 1 2.00249 0.183516 0.251415 
11384 3 2.46951 1.03461 -0.056644 
11739 1 -5.57373 -2.89844 -0.387727 
11738 3 -1.86074 0.470112 1.10517 
11383 1 -1.51498 2.62048 -4.68293 
7264 1 4.73522 -3.11451 -3.00642 
19498 1 2.12627 3.96675 -1.14927 
19499 3 0.15012 0.861109 -2.08394 
21023 3 -4.69723 -1.81015 -0.0556913 
11409 1 -4.64377 2.45494 0.0763138 
18279 1 3.19209 0.246358 5.36554 
21024 1 -1.21332 3.8329 -0.75905 
19500 1 -2.346 -4.26974 -1.38978 
5762 3 1.89198 0.452716 -0.283712 
10406 3 3.12936 -1.14237 -2.75473 
10407 1 2.32337 3.93069 2.62637 
21022 1 4.18104 1.91304 -4.06121 
20456 3 -0.358789 -1.38013 2.80565 
20457 1 -6.16104 5.74606 3.17023 
20455 1 -3.53361 1.2638 -2.16887 
9222 1 0.701566 2.36976 -3.24752 
9221 3 -3.38736 -1.30524 0.473544 
9220 1 3.73083 -6.68351 3.83985 
7034 3 1.98068 0.341685 -2.08217 
5761 1 4.48023 1.54071 -6.82643 
16177 1 -7.37241 -0.634728 6.02473 
7035 1 -1.26054 -1.14433 7.42797 
16178 3 2.28964 -5.57709 -1.44821 
7420 1 -4.94228 2.53613 2.45732 
7421 3 4.42771 -5.1644 2.56484 
16179 1 -8.48939 -4.42082 -0.715439 
21420 1 5.72918 -3.51142 0.902901 
417 1 -1.66122 -5.95268 1.65034 
21419 3 -3.13777 2.19658 -1.9614 
21418 1 -2.39495 2.32962 4.8828 
6771 1 -4.12351 2.2167 0.547644 