ITEM: TIMESTEP
0
ITEM: NUMBER OF ATOMS
2733
ITEM: BOX BOUNDS pp pp pp
0.0000000000000000e+00 5.0000000000000000e+01
0.0000000000000000e+00 5.0000000000000000e+01
0.0000000000000000e+00 5.0000000000000000e+01
ITEM: ATOMS id type 
4 1 
5 3 
6 1 
133 1 
134 3 
135 1 
268 1 
269 2 
270 1 
319 1 
320 2 
321 1 
322 1 
323 2 
324 1 
373 1 
374 3 
375 1 
382 1 
383 2 
384 1 
427 1 
428 3 
429 1 
493 1 
494 3 
495 1 
502 1 
503 2 
504 1 
1165 1 
1166 2 
1167 1 
1267 1 
1268 2 
1269 1 
1279 1 
1280 2 
1281 1 
1282 1 
1283 3 
1284 1 
1285 1 
1286 2 
1287 1 
1381 1 
1382 2 
1383 1 
1387 1 
1388 2 
1389 1 
1408 1 
1409 3 
1410 1 
1456 1 
1457 3 
1458 1 
1465 1 
1466 2 
1467 1 
1516 1 
1517 2 
1518 1 
1561 1 
1562 2 
1563 1 
1648 1 
1649 2 
1650 1 
2227 1 
2228 2 
2229 1 
2302 1 
2303 2 
2304 1 
2356 1 
2357 2 
2358 1 
2476 1 
2477 3 
2478 1 
2488 1 
2489 2 
2490 1 
2602 1 
2603 2 
2604 1 
3187 1 
3188 3 
3189 1 
3190 1 
3191 2 
3192 1 
3196 1 
3197 2 
3198 1 
3241 1 
3242 2 
3243 1 
3247 1 
3248 2 
3249 1 
3265 1 
3266 2 
3267 1 
3322 1 
3323 3 
3324 1 
3328 1 
3329 3 
3330 1 
3361 1 
3362 2 
3363 1 
3373 1 
3374 3 
3375 1 
3496 1 
3497 2 
3498 1 
3610 1 
3611 2 
3612 1 
3685 1 
3686 3 
3687 1 
3721 1 
3722 2 
3723 1 
3736 1 
3737 2 
3738 1 
4336 1 
4337 2 
4338 1 
4384 1 
4385 2 
4386 1 
4396 1 
4397 3 
4398 1 
4399 1 
4400 2 
4401 1 
4510 1 
4511 2 
4512 1 
4564 1 
4565 2 
4566 1 
4573 1 
4574 2 
4575 1 
4642 1 
4643 2 
4644 1 
4741 1 
4742 3 
4743 1 
4759 1 
4760 3 
4761 1 
4801 1 
4802 2 
4803 1 
5470 1 
5471 2 
5472 1 
5581 1 
5582 2 
5583 1 
5587 1 
5588 2 
5589 1 
5605 1 
5606 2 
5607 1 
5608 1 
5609 2 
5610 1 
5659 1 
5660 2 
5661 1 
5725 1 
5726 2 
5727 1 
5773 1 
5774 2 
5775 1 
5782 1 
5783 2 
5784 1 
5788 1 
5789 3 
5790 1 
5824 1 
5825 3 
5826 1 
5827 1 
5828 2 
5829 1 
5839 1 
5840 2 
5841 1 
5947 1 
5948 2 
5949 1 
6661 1 
6662 2 
6663 1 
6847 1 
6848 3 
6849 1 
6853 1 
6854 2 
6855 1 
7045 1 
7046 3 
7047 1 
7093 1 
7094 2 
7095 1 
7096 1 
7097 2 
7098 1 
7102 1 
7103 2 
7104 1 
7156 1 
7157 2 
7158 1 
7168 1 
7169 3 
7170 1 
7759 1 
7760 2 
7761 1 
7762 1 
7763 2 
7764 1 
7819 1 
7820 2 
7821 1 
7942 1 
7943 2 
7944 1 
7945 1 
7946 2 
7947 1 
7993 1 
7994 2 
7995 1 
8005 1 
8006 2 
8007 1 
8113 1 
8114 2 
8115 1 
8161 1 
8162 2 
8163 1 
8239 1 
8240 2 
8241 1 
8242 1 
8243 2 
8244 1 
8245 1 
8246 2 
8247 1 
8281 1 
8282 3 
8283 1 
8287 1 
8288 2 
8289 1 
8308 1 
8309 2 
8310 1 
8887 1 
8888 2 
8889 1 
8890 1 
8891 2 
8892 1 
8965 1 
8966 2 
8967 1 
9004 1 
9005 2 
9006 1 
9010 1 
9011 2 
9012 1 
9067 1 
9068 3 
9069 1 
9088 1 
9089 2 
9090 1 
9130 1 
9131 3 
9132 1 
9208 1 
9209 3 
9210 1 
9241 1 
9242 2 
9243 1 
9268 1 
9269 2 
9270 1 
9310 1 
9311 2 
9312 1 
9325 1 
9326 2 
9327 1 
9967 1 
9968 2 
9969 1 
9982 1 
9983 2 
9984 1 
10045 1 
10046 3 
10047 1 
10048 1 
10049 2 
10050 1 
10084 1 
10085 2 
10086 1 
10201 1 
10202 2 
10203 1 
10228 1 
10229 2 
10230 1 
10276 1 
10277 3 
10278 1 
10279 1 
10280 3 
10281 1 
10282 1 
10283 2 
10284 1 
10321 1 
10322 3 
10323 1 
10342 1 
10343 2 
10344 1 
10345 1 
10346 2 
10347 1 
10408 1 
10409 3 
10410 1 
10447 1 
10448 2 
10449 1 
10450 1 
10451 2 
10452 1 
10522 1 
10523 3 
10524 1 
10525 1 
10526 3 
10527 1 
11104 1 
11105 2 
11106 1 
11227 1 
11228 2 
11229 1 
11287 1 
11288 2 
11289 1 
11296 1 
11297 2 
11298 1 
11305 1 
11306 2 
11307 1 
11464 1 
11465 2 
11466 1 
11470 1 
11471 3 
11472 1 
12136 1 
12137 2 
12138 1 
12142 1 
12143 3 
12144 1 
12187 1 
12188 2 
12189 1 
12193 1 
12194 3 
12195 1 
12256 1 
12257 2 
12258 1 
12307 1 
12308 2 
12309 1 
12322 1 
12323 2 
12324 1 
12376 1 
12377 2 
12378 1 
12379 1 
12380 2 
12381 1 
12388 1 
12389 2 
12390 1 
12442 1 
12443 2 
12444 1 
12481 1 
12482 3 
12483 1 
12508 1 
12509 2 
12510 1 
12568 1 
12569 2 
12570 1 
12610 1 
12611 3 
12612 1 
13228 1 
13229 2 
13230 1 
13273 1 
13274 2 
13275 1 
13321 1 
13322 2 
13323 1 
13348 1 
13349 2 
13350 1 
13390 1 
13391 2 
13392 1 
13444 1 
13445 3 
13446 1 
13447 1 
13448 2 
13449 1 
13504 1 
13505 2 
13506 1 
13573 1 
13574 2 
13575 1 
13582 1 
13583 2 
13584 1 
13585 1 
13586 2 
13587 1 
14236 1 
14237 2 
14238 1 
14479 1 
14480 3 
14481 1 
14482 1 
14483 3 
14484 1 
14605 1 
14606 3 
14607 1 
14608 1 
14609 3 
14610 1 
14656 1 
14657 2 
14658 1 
15322 1 
15323 2 
15324 1 
15385 1 
15386 2 
15387 1 
15421 1 
15422 3 
15423 1 
15493 1 
15494 2 
15495 1 
15616 1 
15617 2 
15618 1 
15676 1 
15677 2 
15678 1 
15682 1 
15683 2 
15684 1 
15724 1 
15725 3 
15726 1 
15727 1 
15728 2 
15729 1 
16339 1 
16340 2 
16341 1 
16390 1 
16391 3 
16392 1 
16402 1 
16403 3 
16404 1 
16450 1 
16451 2 
16452 1 
16456 1 
16457 3 
16458 1 
16519 1 
16520 3 
16521 1 
16624 1 
16625 2 
16626 1 
16639 1 
16640 2 
16641 1 
16645 1 
16646 2 
16647 1 
16693 1 
16694 2 
16695 1 
17281 1 
17282 2 
17283 1 
17305 1 
17306 2 
17307 1 
17344 1 
17345 2 
17346 1 
17401 1 
17402 3 
17403 1 
17407 1 
17408 2 
17409 1 
17410 1 
17411 2 
17412 1 
17464 1 
17465 3 
17466 1 
17527 1 
17528 3 
17529 1 
17548 1 
17549 3 
17550 1 
17581 1 
17582 2 
17583 1 
17605 1 
17606 3 
17607 1 
17770 1 
17771 2 
17772 1 
18361 1 
18362 2 
18363 1 
18499 1 
18500 2 
18501 1 
18613 1 
18614 3 
18615 1 
18661 1 
18662 2 
18663 1 
18721 1 
18722 2 
18723 1 
18781 1 
18782 2 
18783 1 
18784 1 
18785 2 
18786 1 
18790 1 
18791 2 
18792 1 
18793 1 
18794 2 
18795 1 
18802 1 
18803 3 
18804 1 
18850 1 
18851 2 
18852 1 
18856 1 
18857 2 
18858 1 
18865 1 
18866 2 
18867 1 
18868 1 
18869 2 
18870 1 
19468 1 
19469 2 
19470 1 
19522 1 
19523 2 
19524 1 
19573 1 
19574 2 
19575 1 
19621 1 
19622 3 
19623 1 
19699 1 
19700 2 
19701 1 
19702 1 
19703 3 
19704 1 
19822 1 
19823 2 
19824 1 
19876 1 
19877 2 
19878 1 
20548 1 
20549 3 
20550 1 
20653 1 
20654 2 
20655 1 
20776 1 
20777 2 
20778 1 
20827 1 
20828 2 
20829 1 
20884 1 
20885 2 
20886 1 
20890 1 
20891 3 
20892 1 
20905 1 
20906 2 
20907 1 
20947 1 
20948 2 
20949 1 
21001 1 
21002 2 
21003 1 
46 1 
47 2 
48 1 
49 1 
50 3 
51 1 
115 1 
116 2 
117 1 
157 1 
158 2 
159 1 
289 1 
290 3 
291 1 
337 1 
338 2 
339 1 
403 1 
404 3 
405 1 
418 1 
419 2 
420 1 
454 1 
455 2 
456 1 
511 1 
512 2 
513 1 
1183 1 
1184 2 
1185 1 
1198 1 
1199 2 
1200 1 
1234 1 
1235 3 
1236 1 
1243 1 
1244 2 
1245 1 
1252 1 
1253 2 
1254 1 
1312 1 
1313 2 
1314 1 
1357 1 
1358 2 
1359 1 
1363 1 
1364 2 
1365 1 
1375 1 
1376 2 
1377 1 
1411 1 
1412 2 
1413 1 
1492 1 
1493 2 
1494 1 
1543 1 
1544 2 
1545 1 
1549 1 
1550 3 
1551 1 
1552 1 
1553 3 
1554 1 
1594 1 
1595 2 
1596 1 
1603 1 
1604 3 
1605 1 
2257 1 
2258 2 
2259 1 
2398 1 
2399 2 
2400 1 
2458 1 
2459 2 
2460 1 
2491 1 
2492 2 
2493 1 
2500 1 
2501 3 
2502 1 
2560 1 
2561 2 
2562 1 
2626 1 
2627 2 
2628 1 
2638 1 
2639 2 
2640 1 
3220 1 
3221 3 
3222 1 
3235 1 
3236 3 
3237 1 
3283 1 
3284 2 
3285 1 
3292 1 
3293 3 
3294 1 
3352 1 
3353 3 
3354 1 
3358 1 
3359 2 
3360 1 
3457 1 
3458 2 
3459 1 
3589 1 
3590 2 
3591 1 
3637 1 
3638 2 
3639 1 
3640 1 
3641 2 
3642 1 
3715 1 
3716 2 
3717 1 
3769 1 
3770 2 
3771 1 
4471 1 
4472 3 
4473 1 
4474 1 
4475 2 
4476 1 
4603 1 
4604 2 
4605 1 
4651 1 
4652 3 
4653 1 
4726 1 
4727 2 
4728 1 
4903 1 
4904 2 
4905 1 
4906 1 
4907 3 
4908 1 
4912 1 
4913 2 
4914 1 
4915 1 
4916 2 
4917 1 
5503 1 
5504 3 
5505 1 
5569 1 
5570 2 
5571 1 
5614 1 
5615 2 
5616 1 
5623 1 
5624 2 
5625 1 
5626 1 
5627 2 
5628 1 
5629 1 
5630 3 
5631 1 
5638 1 
5639 2 
5640 1 
5746 1 
5747 2 
5748 1 
5755 1 
5756 3 
5757 1 
5806 1 
5807 2 
5808 1 
5809 1 
5810 2 
5811 1 
5851 1 
5852 2 
5853 1 
5872 1 
5873 2 
5874 1 
5926 1 
5927 3 
5928 1 
5938 1 
5939 2 
5940 1 
6772 1 
6773 2 
6774 1 
6778 1 
6779 2 
6780 1 
6817 1 
6818 2 
6819 1 
6835 1 
6836 2 
6837 1 
6898 1 
6899 3 
6900 1 
6934 1 
6935 3 
6936 1 
6937 1 
6938 2 
6939 1 
6952 1 
6953 3 
6954 1 
6997 1 
6998 3 
6999 1 
7138 1 
7139 3 
7140 1 
7174 1 
7175 2 
7176 1 
7180 1 
7181 2 
7182 1 
7189 1 
7190 2 
7191 1 
7237 1 
7238 2 
7239 1 
7249 1 
7250 2 
7251 1 
7831 1 
7832 2 
7833 1 
7834 1 
7835 3 
7836 1 
7840 1 
7841 2 
7842 1 
7951 1 
7952 3 
7953 1 
7969 1 
7970 3 
7971 1 
7972 1 
7973 2 
7974 1 
8023 1 
8024 2 
8025 1 
8086 1 
8087 2 
8088 1 
8140 1 
8141 3 
8142 1 
8143 1 
8144 2 
8145 1 
8326 1 
8327 2 
8328 1 
8926 1 
8927 2 
8928 1 
8938 1 
8939 2 
8940 1 
8989 1 
8990 3 
8991 1 
9100 1 
9101 3 
9102 1 
9169 1 
9170 3 
9171 1 
9172 1 
9173 3 
9174 1 
9289 1 
9290 2 
9291 1 
9295 1 
9296 2 
9297 1 
9343 1 
9344 2 
9345 1 
9991 1 
9992 2 
9993 1 
10060 1 
10061 2 
10062 1 
10111 1 
10112 2 
10113 1 
10249 1 
10250 2 
10251 1 
10291 1 
10292 3 
10293 1 
10318 1 
10319 2 
10320 1 
10414 1 
10415 2 
10416 1 
10426 1 
10427 2 
10428 1 
10495 1 
10496 2 
10497 1 
11143 1 
11144 2 
11145 1 
11152 1 
11153 3 
11154 1 
11218 1 
11219 2 
11220 1 
11326 1 
11327 2 
11328 1 
11329 1 
11330 3 
11331 1 
11389 1 
11390 2 
11391 1 
11452 1 
11453 3 
11454 1 
11500 1 
11501 2 
11502 1 
11503 1 
11504 3 
11505 1 
11518 1 
11519 2 
11520 1 
12112 1 
12113 3 
12114 1 
12163 1 
12164 2 
12165 1 
12178 1 
12179 2 
12180 1 
12295 1 
12296 2 
12297 1 
12355 1 
12356 2 
12357 1 
12397 1 
12398 2 
12399 1 
12409 1 
12410 2 
12411 1 
12412 1 
12413 3 
12414 1 
12457 1 
12458 2 
12459 1 
12580 1 
12581 2 
12582 1 
12652 1 
12653 3 
12654 1 
13243 1 
13244 2 
13245 1 
13252 1 
13253 3 
13254 1 
13294 1 
13295 2 
13296 1 
13309 1 
13310 2 
13311 1 
13318 1 
13319 2 
13320 1 
13354 1 
13355 2 
13356 1 
13360 1 
13361 2 
13362 1 
13429 1 
13430 2 
13431 1 
13471 1 
13472 2 
13473 1 
13477 1 
13478 2 
13479 1 
13540 1 
13541 2 
13542 1 
13594 1 
13595 2 
13596 1 
14254 1 
14255 3 
14256 1 
14269 1 
14270 2 
14271 1 
14278 1 
14279 3 
14280 1 
14323 1 
14324 2 
14325 1 
14329 1 
14330 2 
14331 1 
14338 1 
14339 2 
14340 1 
14386 1 
14387 2 
14388 1 
14389 1 
14390 2 
14391 1 
14491 1 
14492 2 
14493 1 
14506 1 
14507 3 
14508 1 
14515 1 
14516 2 
14517 1 
14518 1 
14519 2 
14520 1 
14563 1 
14564 2 
14565 1 
14614 1 
14615 2 
14616 1 
14623 1 
14624 2 
14625 1 
15340 1 
15341 2 
15342 1 
15397 1 
15398 2 
15399 1 
15535 1 
15536 3 
15537 1 
15700 1 
15701 3 
15702 1 
15760 1 
15761 2 
15762 1 
16366 1 
16367 2 
16368 1 
16369 1 
16370 2 
16371 1 
16423 1 
16424 2 
16425 1 
16474 1 
16475 2 
16476 1 
16483 1 
16484 2 
16485 1 
16492 1 
16493 2 
16494 1 
16534 1 
16535 2 
16536 1 
16546 1 
16547 2 
16548 1 
16555 1 
16556 2 
16557 1 
16603 1 
16604 2 
16605 1 
16606 1 
16607 2 
16608 1 
16714 1 
16715 2 
16716 1 
16720 1 
16721 2 
16722 1 
17338 1 
17339 2 
17340 1 
17380 1 
17381 2 
17382 1 
17383 1 
17384 2 
17385 1 
17392 1 
17393 2 
17394 1 
17431 1 
17432 2 
17433 1 
17434 1 
17435 2 
17436 1 
17437 1 
17438 2 
17439 1 
17449 1 
17450 2 
17451 1 
17452 1 
17453 2 
17454 1 
17494 1 
17495 2 
17496 1 
17515 1 
17516 3 
17517 1 
17614 1 
17615 2 
17616 1 
17677 1 
17678 2 
17679 1 
17737 1 
17738 2 
17739 1 
17743 1 
17744 3 
17745 1 
17812 1 
17813 2 
17814 1 
18397 1 
18398 2 
18399 1 
18415 1 
18416 2 
18417 1 
18463 1 
18464 2 
18465 1 
18535 1 
18536 2 
18537 1 
18718 1 
18719 2 
18720 1 
18754 1 
18755 3 
18756 1 
18814 1 
18815 2 
18816 1 
18832 1 
18833 2 
18834 1 
19471 1 
19472 2 
19473 1 
19483 1 
19484 2 
19485 1 
19486 1 
19487 3 
19488 1 
19660 1 
19661 2 
19662 1 
19711 1 
19712 2 
19713 1 
19771 1 
19772 2 
19773 1 
19789 1 
19790 2 
19791 1 
19795 1 
19796 2 
19797 1 
19846 1 
19847 2 
19848 1 
19912 1 
19913 3 
19914 1 
19915 1 
19916 2 
19917 1 
20554 1 
20555 2 
20556 1 
20617 1 
20618 2 
20619 1 
20677 1 
20678 2 
20679 1 
20698 1 
20699 2 
20700 1 
20755 1 
20756 3 
20757 1 
20809 1 
20810 2 
20811 1 
20869 1 
20870 2 
20871 1 
20878 1 
20879 2 
20880 1 
20926 1 
20927 2 
20928 1 
20938 1 
20939 2 
20940 1 
20983 1 
20984 2 
20985 1 
20986 1 
20987 2 
20988 1 
21043 1 
21044 2 
21045 1 
21046 1 
21047 2 
21048 1 
547 1 
548 2 
549 1 
553 1 
554 2 
555 1 
661 1 
662 2 
663 1 
682 1 
683 2 
684 1 
802 1 
803 3 
804 1 
805 1 
806 2 
807 1 
859 1 
860 2 
861 1 
913 1 
914 2 
915 1 
928 1 
929 3 
930 1 
1027 1 
1028 2 
1029 1 
1081 1 
1082 3 
1083 1 
1687 1 
1688 3 
1689 1 
1702 1 
1703 3 
1704 1 
1741 1 
1742 2 
1743 1 
1768 1 
1769 2 
1770 1 
1945 1 
1946 3 
1947 1 
2062 1 
2063 2 
2064 1 
2167 1 
2168 2 
2169 1 
2704 1 
2705 3 
2706 1 
2719 1 
2720 2 
2721 1 
2890 1 
2891 3 
2892 1 
2905 1 
2906 3 
2907 1 
2953 1 
2954 3 
2955 1 
2968 1 
2969 2 
2970 1 
3001 1 
3002 2 
3003 1 
3004 1 
3005 3 
3006 1 
3133 1 
3134 2 
3135 1 
3802 1 
3803 2 
3804 1 
3805 1 
3806 3 
3807 1 
3922 1 
3923 2 
3924 1 
3976 1 
3977 3 
3978 1 
4225 1 
4226 3 
4227 1 
4264 1 
4265 2 
4266 1 
4273 1 
4274 3 
4275 1 
4285 1 
4286 3 
4287 1 
4933 1 
4934 2 
4935 1 
4981 1 
4982 2 
4983 1 
5005 1 
5006 2 
5007 1 
5008 1 
5009 3 
5010 1 
5107 1 
5108 3 
5109 1 
5116 1 
5117 2 
5118 1 
5125 1 
5126 3 
5127 1 
5173 1 
5174 2 
5175 1 
5230 1 
5231 2 
5232 1 
5299 1 
5300 3 
5301 1 
5356 1 
5357 2 
5358 1 
6181 1 
6182 2 
6183 1 
6250 1 
6251 2 
6252 1 
6304 1 
6305 3 
6306 1 
6313 1 
6314 2 
6315 1 
6316 1 
6317 2 
6318 1 
6322 1 
6323 2 
6324 1 
6421 1 
6422 2 
6423 1 
6439 1 
6440 2 
6441 1 
6487 1 
6488 3 
6489 1 
6604 1 
6605 2 
6606 1 
7288 1 
7289 3 
7290 1 
7399 1 
7400 2 
7401 1 
7504 1 
7505 2 
7506 1 
7567 1 
7568 2 
7569 1 
7630 1 
7631 2 
7632 1 
7642 1 
7643 2 
7644 1 
7702 1 
7703 2 
7704 1 
8359 1 
8360 2 
8361 1 
8365 1 
8366 2 
8367 1 
8407 1 
8408 2 
8409 1 
8410 1 
8411 3 
8412 1 
8473 1 
8474 2 
8475 1 
8524 1 
8525 2 
8526 1 
8602 1 
8603 3 
8604 1 
8605 1 
8606 2 
8607 1 
8608 1 
8609 2 
8610 1 
8647 1 
8648 2 
8649 1 
8668 1 
8669 3 
8670 1 
8779 1 
8780 2 
8781 1 
8782 1 
8783 3 
8784 1 
8785 1 
8786 3 
8787 1 
8827 1 
8828 2 
8829 1 
8842 1 
8843 3 
8844 1 
8848 1 
8849 2 
8850 1 
9388 1 
9389 2 
9390 1 
9490 1 
9491 2 
9492 1 
9610 1 
9611 2 
9612 1 
9676 1 
9677 2 
9678 1 
9745 1 
9746 2 
9747 1 
9787 1 
9788 2 
9789 1 
9796 1 
9797 2 
9798 1 
9847 1 
9848 2 
9849 1 
9853 1 
9854 2 
9855 1 
9901 1 
9902 2 
9903 1 
9913 1 
9914 2 
9915 1 
10564 1 
10565 2 
10566 1 
10573 1 
10574 2 
10575 1 
10642 1 
10643 2 
10644 1 
10648 1 
10649 3 
10650 1 
10705 1 
10706 2 
10707 1 
10708 1 
10709 2 
10710 1 
10828 1 
10829 2 
10830 1 
10864 1 
10865 2 
10866 1 
10939 1 
10940 2 
10941 1 
10984 1 
10985 2 
10986 1 
11047 1 
11048 3 
11049 1 
11521 1 
11522 2 
11523 1 
11650 1 
11651 2 
11652 1 
11707 1 
11708 2 
11709 1 
11782 1 
11783 3 
11784 1 
11785 1 
11786 3 
11787 1 
11884 1 
11885 2 
11886 1 
11899 1 
11900 2 
11901 1 
11962 1 
11963 2 
11964 1 
12019 1 
12020 2 
12021 1 
12748 1 
12749 2 
12750 1 
12844 1 
12845 2 
12846 1 
12847 1 
12848 3 
12849 1 
12913 1 
12914 2 
12915 1 
12961 1 
12962 2 
12963 1 
13024 1 
13025 2 
13026 1 
13621 1 
13622 2 
13623 1 
13627 1 
13628 3 
13629 1 
13648 1 
13649 3 
13650 1 
13705 1 
13706 2 
13707 1 
13753 1 
13754 3 
13755 1 
13882 1 
13883 2 
13884 1 
13888 1 
13889 2 
13890 1 
13924 1 
13925 3 
13926 1 
13933 1 
13934 2 
13935 1 
13942 1 
13943 3 
13944 1 
13948 1 
13949 3 
13950 1 
14041 1 
14042 2 
14043 1 
14053 1 
14054 2 
14055 1 
14062 1 
14063 2 
14064 1 
14065 1 
14066 2 
14067 1 
14128 1 
14129 2 
14130 1 
14167 1 
14168 2 
14169 1 
14170 1 
14171 2 
14172 1 
14176 1 
14177 3 
14178 1 
14830 1 
14831 3 
14832 1 
14884 1 
14885 2 
14886 1 
14896 1 
14897 2 
14898 1 
14959 1 
14960 3 
14961 1 
15025 1 
15026 3 
15027 1 
15085 1 
15086 2 
15087 1 
15148 1 
15149 2 
15150 1 
15190 1 
15191 2 
15192 1 
15193 1 
15194 2 
15195 1 
15205 1 
15206 2 
15207 1 
15259 1 
15260 2 
15261 1 
15265 1 
15266 2 
15267 1 
15793 1 
15794 2 
15795 1 
16027 1 
16028 3 
16029 1 
16093 1 
16094 3 
16095 1 
16105 1 
16106 2 
16107 1 
16219 1 
16220 3 
16221 1 
16225 1 
16226 2 
16227 1 
16228 1 
16229 2 
16230 1 
16261 1 
16262 2 
16263 1 
16279 1 
16280 2 
16281 1 
16756 1 
16757 2 
16758 1 
16759 1 
16760 3 
16761 1 
16804 1 
16805 2 
16806 1 
16813 1 
16814 2 
16815 1 
16873 1 
16874 3 
16875 1 
16876 1 
16877 2 
16878 1 
16924 1 
16925 2 
16926 1 
16933 1 
16934 2 
16935 1 
16939 1 
16940 2 
16941 1 
17068 1 
17069 2 
17070 1 
17107 1 
17108 2 
17109 1 
17179 1 
17180 2 
17181 1 
17224 1 
17225 2 
17226 1 
17230 1 
17231 2 
17232 1 
17239 1 
17240 2 
17241 1 
17242 1 
17243 2 
17244 1 
17821 1 
17822 2 
17823 1 
17842 1 
17843 2 
17844 1 
17902 1 
17903 3 
17904 1 
17962 1 
17963 2 
17964 1 
17968 1 
17969 2 
17970 1 
18016 1 
18017 2 
18018 1 
18067 1 
18068 3 
18069 1 
18082 1 
18083 3 
18084 1 
18190 1 
18191 2 
18192 1 
18202 1 
18203 3 
18204 1 
18247 1 
18248 3 
18249 1 
18259 1 
18260 2 
18261 1 
18265 1 
18266 2 
18267 1 
18313 1 
18314 2 
18315 1 
18319 1 
18320 2 
18321 1 
18325 1 
18326 2 
18327 1 
18922 1 
18923 3 
18924 1 
19045 1 
19046 2 
19047 1 
19228 1 
19229 2 
19230 1 
19324 1 
19325 3 
19326 1 
19348 1 
19349 2 
19350 1 
19384 1 
19385 2 
19386 1 
19387 1 
19388 2 
19389 1 
19927 1 
19928 2 
19929 1 
19936 1 
19937 3 
19938 1 
19945 1 
19946 3 
19947 1 
19990 1 
19991 3 
19992 1 
19993 1 
19994 3 
19995 1 
20002 1 
20003 2 
20004 1 
20065 1 
20066 2 
20067 1 
20173 1 
20174 3 
20175 1 
20302 1 
20303 2 
20304 1 
20308 1 
20309 2 
20310 1 
20353 1 
20354 2 
20355 1 
20410 1 
20411 2 
20412 1 
21127 1 
21128 3 
21129 1 
21145 1 
21146 2 
21147 1 
21253 1 
21254 3 
21255 1 
21316 1 
21317 3 
21318 1 
21442 1 
21443 2 
21444 1 
21502 1 
21503 2 
21504 1 
21559 1 
21560 2 
21561 1 
583 1 
584 2 
585 1 
643 1 
644 2 
645 1 
691 1 
692 3 
693 1 
700 1 
701 3 
702 1 
754 1 
755 2 
756 1 
766 1 
767 2 
768 1 
826 1 
827 2 
828 1 
829 1 
830 3 
831 1 
871 1 
872 2 
873 1 
952 1 
953 2 
954 1 
991 1 
992 2 
993 1 
1054 1 
1055 2 
1056 1 
1069 1 
1070 3 
1071 1 
1072 1 
1073 2 
1074 1 
1114 1 
1115 3 
1116 1 
1714 1 
1715 3 
1716 1 
1780 1 
1781 2 
1782 1 
1783 1 
1784 2 
1785 1 
1789 1 
1790 2 
1791 1 
1852 1 
1853 2 
1854 1 
1975 1 
1976 2 
1977 1 
2023 1 
2024 2 
2025 1 
2086 1 
2087 2 
2088 1 
2203 1 
2204 2 
2205 1 
2206 1 
2207 3 
2208 1 
2218 1 
2219 2 
2220 1 
2734 1 
2735 2 
2736 1 
2743 1 
2744 2 
2745 1 
2749 1 
2750 3 
2751 1 
2803 1 
2804 2 
2805 1 
2869 1 
2870 2 
2871 1 
2875 1 
2876 2 
2877 1 
2911 1 
2912 2 
2913 1 
2914 1 
2915 2 
2916 1 
2917 1 
2918 2 
2919 1 
2929 1 
2930 2 
2931 1 
2977 1 
2978 2 
2979 1 
2995 1 
2996 2 
2997 1 
3100 1 
3101 2 
3102 1 
3151 1 
3152 2 
3153 1 
3157 1 
3158 2 
3159 1 
3163 1 
3164 2 
3165 1 
3178 1 
3179 2 
3180 1 
3820 1 
3821 3 
3822 1 
3823 1 
3824 3 
3825 1 
3838 1 
3839 2 
3840 1 
3892 1 
3893 2 
3894 1 
4063 1 
4064 2 
4065 1 
4066 1 
4067 2 
4068 1 
4114 1 
4115 2 
4116 1 
4123 1 
4124 2 
4125 1 
4126 1 
4127 2 
4128 1 
4180 1 
4181 3 
4182 1 
4252 1 
4253 2 
4254 1 
4291 1 
4292 3 
4293 1 
4294 1 
4295 2 
4296 1 
4312 1 
4313 2 
4314 1 
4318 1 
4319 2 
4320 1 
4957 1 
4958 2 
4959 1 
4966 1 
4967 2 
4968 1 
4969 1 
4970 2 
4971 1 
4975 1 
4976 2 
4977 1 
5089 1 
5090 2 
5091 1 
5131 1 
5132 2 
5133 1 
5143 1 
5144 2 
5145 1 
5146 1 
5147 2 
5148 1 
5149 1 
5150 2 
5151 1 
5212 1 
5213 2 
5214 1 
5278 1 
5279 2 
5280 1 
5335 1 
5336 2 
5337 1 
5338 1 
5339 2 
5340 1 
5386 1 
5387 2 
5388 1 
5398 1 
5399 2 
5400 1 
6100 1 
6101 3 
6102 1 
6169 1 
6170 2 
6171 1 
6175 1 
6176 2 
6177 1 
6211 1 
6212 2 
6213 1 
6214 1 
6215 2 
6216 1 
6235 1 
6236 2 
6237 1 
6274 1 
6275 2 
6276 1 
6355 1 
6356 2 
6357 1 
6391 1 
6392 3 
6393 1 
6394 1 
6395 2 
6396 1 
6571 1 
6572 3 
6573 1 
6574 1 
6575 2 
6576 1 
6583 1 
6584 2 
6585 1 
6646 1 
6647 2 
6648 1 
6652 1 
6653 3 
6654 1 
7300 1 
7301 3 
7302 1 
7315 1 
7316 2 
7317 1 
7354 1 
7355 2 
7356 1 
7360 1 
7361 2 
7362 1 
7378 1 
7379 2 
7380 1 
7423 1 
7424 2 
7425 1 
7480 1 
7481 3 
7482 1 
7549 1 
7550 2 
7551 1 
7600 1 
7601 3 
7602 1 
7612 1 
7613 2 
7614 1 
7663 1 
7664 2 
7665 1 
7669 1 
7670 3 
7671 1 
7726 1 
7727 2 
7728 1 
7729 1 
7730 2 
7731 1 
8386 1 
8387 2 
8388 1 
8557 1 
8558 2 
8559 1 
8563 1 
8564 2 
8565 1 
8674 1 
8675 2 
8676 1 
8677 1 
8678 2 
8679 1 
8752 1 
8753 2 
8754 1 
8800 1 
8801 2 
8802 1 
9418 1 
9419 2 
9420 1 
9640 1 
9641 2 
9642 1 
9706 1 
9707 3 
9708 1 
9754 1 
9755 2 
9756 1 
9760 1 
9761 2 
9762 1 
9877 1 
9878 2 
9879 1 
9889 1 
9890 2 
9891 1 
9898 1 
9899 2 
9900 1 
9946 1 
9947 2 
9948 1 
9949 1 
9950 2 
9951 1 
10594 1 
10595 2 
10596 1 
10603 1 
10604 2 
10605 1 
10675 1 
10676 3 
10677 1 
10780 1 
10781 2 
10782 1 
10903 1 
10904 2 
10905 1 
10909 1 
10910 3 
10911 1 
11011 1 
11012 2 
11013 1 
11092 1 
11093 2 
11094 1 
11095 1 
11096 3 
11097 1 
11554 1 
11555 3 
11556 1 
11857 1 
11858 2 
11859 1 
11971 1 
11972 2 
11973 1 
12040 1 
12041 2 
12042 1 
12055 1 
12056 3 
12057 1 
12697 1 
12698 2 
12699 1 
12703 1 
12704 2 
12705 1 
12706 1 
12707 2 
12708 1 
12832 1 
12833 2 
12834 1 
12952 1 
12953 3 
12954 1 
12997 1 
12998 3 
12999 1 
13057 1 
13058 3 
13059 1 
13669 1 
13670 2 
13671 1 
13672 1 
13673 2 
13674 1 
13711 1 
13712 2 
13713 1 
13717 1 
13718 2 
13719 1 
13735 1 
13736 2 
13737 1 
13738 1 
13739 2 
13740 1 
13786 1 
13787 2 
13788 1 
13903 1 
13904 2 
13905 1 
13954 1 
13955 2 
13956 1 
13957 1 
13958 3 
13959 1 
13972 1 
13973 2 
13974 1 
13975 1 
13976 2 
13977 1 
13978 1 
13979 2 
13980 1 
14032 1 
14033 2 
14034 1 
14080 1 
14081 3 
14082 1 
14152 1 
14153 3 
14154 1 
14218 1 
14219 2 
14220 1 
14869 1 
14870 2 
14871 1 
14917 1 
14918 2 
14919 1 
15040 1 
15041 2 
15042 1 
15052 1 
15053 2 
15054 1 
15112 1 
15113 2 
15114 1 
15118 1 
15119 2 
15120 1 
15220 1 
15221 2 
15222 1 
15229 1 
15230 3 
15231 1 
15238 1 
15239 2 
15240 1 
15283 1 
15284 3 
15285 1 
15292 1 
15293 3 
15294 1 
15295 1 
15296 2 
15297 1 
15832 1 
15833 2 
15834 1 
15835 1 
15836 2 
15837 1 
15955 1 
15956 2 
15957 1 
16015 1 
16016 3 
16017 1 
16051 1 
16052 2 
16053 1 
16060 1 
16061 2 
16062 1 
16078 1 
16079 2 
16080 1 
16126 1 
16127 2 
16128 1 
16132 1 
16133 3 
16134 1 
16138 1 
16139 2 
16140 1 
16189 1 
16190 2 
16191 1 
16771 1 
16772 2 
16773 1 
16786 1 
16787 2 
16788 1 
16846 1 
16847 2 
16848 1 
16957 1 
16958 2 
16959 1 
16960 1 
16961 2 
16962 1 
16975 1 
16976 2 
16977 1 
17038 1 
17039 2 
17040 1 
17134 1 
17135 3 
17136 1 
17926 1 
17927 2 
17928 1 
17983 1 
17984 2 
17985 1 
18046 1 
18047 2 
18048 1 
18049 1 
18050 2 
18051 1 
18094 1 
18095 3 
18096 1 
18160 1 
18161 2 
18162 1 
18175 1 
18176 2 
18177 1 
18238 1 
18239 3 
18240 1 
18271 1 
18272 3 
18273 1 
18295 1 
18296 2 
18297 1 
18331 1 
18332 2 
18333 1 
18349 1 
18350 3 
18351 1 
18937 1 
18938 2 
18939 1 
18946 1 
18947 2 
18948 1 
18949 1 
18950 2 
18951 1 
19057 1 
19058 2 
19059 1 
19114 1 
19115 2 
19116 1 
19120 1 
19121 2 
19122 1 
19180 1 
19181 2 
19182 1 
19183 1 
19184 2 
19185 1 
19186 1 
19187 2 
19188 1 
19351 1 
19352 2 
19353 1 
19360 1 
19361 2 
19362 1 
19363 1 
19364 2 
19365 1 
19366 1 
19367 2 
19368 1 
19411 1 
19412 2 
19413 1 
19420 1 
19421 2 
19422 1 
19969 1 
19970 2 
19971 1 
20014 1 
20015 2 
20016 1 
20038 1 
20039 2 
20040 1 
20083 1 
20084 2 
20085 1 
20086 1 
20087 3 
20088 1 
20095 1 
20096 2 
20097 1 
20098 1 
20099 2 
20100 1 
20152 1 
20153 2 
20154 1 
20197 1 
20198 2 
20199 1 
20200 1 
20201 2 
20202 1 
20206 1 
20207 2 
20208 1 
20254 1 
20255 3 
20256 1 
20275 1 
20276 2 
20277 1 
20317 1 
20318 2 
20319 1 
20380 1 
20381 2 
20382 1 
20452 1 
20453 3 
20454 1 
20500 1 
20501 2 
20502 1 
20506 1 
20507 2 
20508 1 
21151 1 
21152 2 
21153 1 
21286 1 
21287 2 
21288 1 
21289 1 
21290 2 
21291 1 
21400 1 
21401 2 
21402 1 
21412 1 
21413 3 
21414 1 
21451 1 
21452 3 
21453 1 
21457 1 
21458 2 
21459 1 
21535 1 
21536 2 
21537 1 
21538 1 
21539 2 
21540 1 
