ITEM: TIMESTEP
0
ITEM: NUMBER OF ATOMS
5382
ITEM: BOX BOUNDS pp pp pp
0.0000000000000000e+00 5.0000000000000000e+01
0.0000000000000000e+00 5.0000000000000000e+01
0.0000000000000000e+00 5.0000000000000000e+01
ITEM: ATOMS id type 
1 1 
2 3 
3 1 
10 1 
11 2 
12 1 
22 1 
23 3 
24 1 
70 1 
71 2 
72 1 
124 1 
125 2 
126 1 
127 1 
128 3 
129 1 
130 1 
131 2 
132 1 
187 1 
188 2 
189 1 
196 1 
197 2 
198 1 
202 1 
203 3 
204 1 
244 1 
245 2 
246 1 
250 1 
251 3 
252 1 
253 1 
254 2 
255 1 
262 1 
263 2 
264 1 
301 1 
302 3 
303 1 
316 1 
317 2 
318 1 
328 1 
329 3 
330 1 
388 1 
389 2 
390 1 
436 1 
437 3 
438 1 
448 1 
449 2 
450 1 
490 1 
491 2 
492 1 
499 1 
500 3 
501 1 
1147 1 
1148 3 
1149 1 
1153 1 
1154 3 
1155 1 
1168 1 
1169 2 
1170 1 
1219 1 
1220 2 
1221 1 
1327 1 
1328 3 
1329 1 
1330 1 
1331 2 
1332 1 
1333 1 
1334 3 
1335 1 
1339 1 
1340 2 
1341 1 
1345 1 
1346 3 
1347 1 
1390 1 
1391 3 
1392 1 
1402 1 
1403 3 
1404 1 
1405 1 
1406 2 
1407 1 
1447 1 
1448 2 
1449 1 
1507 1 
1508 3 
1509 1 
1519 1 
1520 2 
1521 1 
1564 1 
1565 2 
1566 1 
1588 1 
1589 2 
1590 1 
1642 1 
1643 3 
1644 1 
2224 1 
2225 3 
2226 1 
2230 1 
2231 3 
2232 1 
2233 1 
2234 2 
2235 1 
2293 1 
2294 2 
2295 1 
2308 1 
2309 2 
2310 1 
2350 1 
2351 2 
2352 1 
2359 1 
2360 3 
2361 1 
2410 1 
2411 2 
2412 1 
2422 1 
2423 3 
2424 1 
2467 1 
2468 3 
2469 1 
2470 1 
2471 3 
2472 1 
2473 1 
2474 2 
2475 1 
2527 1 
2528 2 
2529 1 
2536 1 
2537 3 
2538 1 
2539 1 
2540 2 
2541 1 
2545 1 
2546 2 
2547 1 
2548 1 
2549 2 
2550 1 
2608 1 
2609 2 
2610 1 
3301 1 
3302 2 
3303 1 
3304 1 
3305 3 
3306 1 
3313 1 
3314 2 
3315 1 
3319 1 
3320 2 
3321 1 
3421 1 
3422 2 
3423 1 
3430 1 
3431 3 
3432 1 
3433 1 
3434 3 
3435 1 
3481 1 
3482 2 
3483 1 
3487 1 
3488 3 
3489 1 
3493 1 
3494 3 
3495 1 
3550 1 
3551 2 
3552 1 
3553 1 
3554 2 
3555 1 
3562 1 
3563 3 
3564 1 
3568 1 
3569 2 
3570 1 
3607 1 
3608 3 
3609 1 
3613 1 
3614 2 
3615 1 
3625 1 
3626 3 
3627 1 
3661 1 
3662 3 
3663 1 
3664 1 
3665 2 
3666 1 
3679 1 
3680 2 
3681 1 
3682 1 
3683 3 
3684 1 
3727 1 
3728 2 
3729 1 
3742 1 
3743 3 
3744 1 
4324 1 
4325 3 
4326 1 
4330 1 
4331 2 
4332 1 
4333 1 
4334 3 
4335 1 
4339 1 
4340 2 
4341 1 
4345 1 
4346 2 
4347 1 
4381 1 
4382 3 
4383 1 
4393 1 
4394 3 
4395 1 
4402 1 
4403 2 
4404 1 
4450 1 
4451 3 
4452 1 
4465 1 
4466 3 
4467 1 
4507 1 
4508 3 
4509 1 
4519 1 
4520 3 
4521 1 
4567 1 
4568 2 
4569 1 
4576 1 
4577 2 
4578 1 
4588 1 
4589 2 
4590 1 
4624 1 
4625 2 
4626 1 
4627 1 
4628 2 
4629 1 
4648 1 
4649 2 
4650 1 
4687 1 
4688 2 
4689 1 
4690 1 
4691 2 
4692 1 
4699 1 
4700 3 
4701 1 
4747 1 
4748 3 
4749 1 
4762 1 
4763 2 
4764 1 
4807 1 
4808 2 
4809 1 
4813 1 
4814 3 
4815 1 
4825 1 
4826 3 
4827 1 
4828 1 
4829 3 
4830 1 
4861 1 
4862 3 
4863 1 
4864 1 
4865 2 
4866 1 
4870 1 
4871 2 
4872 1 
4873 1 
4874 3 
4875 1 
4885 1 
4886 3 
4887 1 
5473 1 
5474 2 
5475 1 
5476 1 
5477 2 
5478 1 
5488 1 
5489 2 
5490 1 
5530 1 
5531 2 
5532 1 
5533 1 
5534 3 
5535 1 
5596 1 
5597 3 
5598 1 
5644 1 
5645 3 
5646 1 
5647 1 
5648 3 
5649 1 
5650 1 
5651 3 
5652 1 
5665 1 
5666 3 
5667 1 
5713 1 
5714 3 
5715 1 
5764 1 
5765 2 
5766 1 
5770 1 
5771 2 
5772 1 
5896 1 
5897 2 
5898 1 
5905 1 
5906 2 
5907 1 
5962 1 
5963 2 
5964 1 
6010 1 
6011 3 
6012 1 
6013 1 
6014 2 
6015 1 
6016 1 
6017 3 
6018 1 
6679 1 
6680 2 
6681 1 
6688 1 
6689 3 
6690 1 
6724 1 
6725 3 
6726 1 
6727 1 
6728 2 
6729 1 
6733 1 
6734 2 
6735 1 
6739 1 
6740 2 
6741 1 
6742 1 
6743 3 
6744 1 
6745 1 
6746 2 
6747 1 
6748 1 
6749 2 
6750 1 
6787 1 
6788 2 
6789 1 
6790 1 
6791 3 
6792 1 
6793 1 
6794 2 
6795 1 
6850 1 
6851 3 
6852 1 
6865 1 
6866 2 
6867 1 
6868 1 
6869 2 
6870 1 
6907 1 
6908 2 
6909 1 
6913 1 
6914 2 
6915 1 
6916 1 
6917 2 
6918 1 
6973 1 
6974 2 
6975 1 
6985 1 
6986 3 
6987 1 
7027 1 
7028 2 
7029 1 
7030 1 
7031 2 
7032 1 
7039 1 
7040 3 
7041 1 
7081 1 
7082 3 
7083 1 
7090 1 
7091 2 
7092 1 
7144 1 
7145 2 
7146 1 
7147 1 
7148 3 
7149 1 
7153 1 
7154 3 
7155 1 
7159 1 
7160 3 
7161 1 
7162 1 
7163 3 
7164 1 
7165 1 
7166 3 
7167 1 
7216 1 
7217 2 
7218 1 
7222 1 
7223 2 
7224 1 
7225 1 
7226 2 
7227 1 
7744 1 
7745 2 
7746 1 
7750 1 
7751 2 
7752 1 
7813 1 
7814 3 
7815 1 
7825 1 
7826 2 
7827 1 
7876 1 
7877 2 
7878 1 
7933 1 
7934 2 
7935 1 
7948 1 
7949 3 
7950 1 
7987 1 
7988 3 
7989 1 
8002 1 
8003 2 
8004 1 
8059 1 
8060 2 
8061 1 
8101 1 
8102 3 
8103 1 
8104 1 
8105 3 
8106 1 
8167 1 
8168 2 
8169 1 
8173 1 
8174 2 
8175 1 
8182 1 
8183 2 
8184 1 
8236 1 
8237 2 
8238 1 
8884 1 
8885 3 
8886 1 
8905 1 
8906 2 
8907 1 
8953 1 
8954 2 
8955 1 
8956 1 
8957 2 
8958 1 
9007 1 
9008 2 
9009 1 
9013 1 
9014 3 
9015 1 
9022 1 
9023 2 
9024 1 
9028 1 
9029 3 
9030 1 
9070 1 
9071 2 
9072 1 
9079 1 
9080 3 
9081 1 
9121 1 
9122 2 
9123 1 
9124 1 
9125 3 
9126 1 
9133 1 
9134 3 
9135 1 
9142 1 
9143 2 
9144 1 
9181 1 
9182 2 
9183 1 
9259 1 
9260 3 
9261 1 
9301 1 
9302 3 
9303 1 
9322 1 
9323 2 
9324 1 
9970 1 
9971 2 
9972 1 
9985 1 
9986 3 
9987 1 
10024 1 
10025 3 
10026 1 
10027 1 
10028 3 
10029 1 
10030 1 
10031 3 
10032 1 
10081 1 
10082 3 
10083 1 
10090 1 
10091 3 
10092 1 
10102 1 
10103 3 
10104 1 
10144 1 
10145 2 
10146 1 
10153 1 
10154 2 
10155 1 
10156 1 
10157 3 
10158 1 
10168 1 
10169 2 
10170 1 
10264 1 
10265 2 
10266 1 
10267 1 
10268 2 
10269 1 
10288 1 
10289 3 
10290 1 
10324 1 
10325 3 
10326 1 
10327 1 
10328 3 
10329 1 
10330 1 
10331 2 
10332 1 
10336 1 
10337 2 
10338 1 
10339 1 
10340 3 
10341 1 
10387 1 
10388 2 
10389 1 
10390 1 
10391 3 
10392 1 
10393 1 
10394 3 
10395 1 
10399 1 
10400 2 
10401 1 
10402 1 
10403 2 
10404 1 
10510 1 
10511 2 
10512 1 
10513 1 
10514 2 
10515 1 
11116 1 
11117 3 
11118 1 
11161 1 
11162 3 
11163 1 
11164 1 
11165 3 
11166 1 
11170 1 
11171 3 
11172 1 
11173 1 
11174 2 
11175 1 
11299 1 
11300 3 
11301 1 
11344 1 
11345 2 
11346 1 
11356 1 
11357 3 
11358 1 
11362 1 
11363 3 
11364 1 
11401 1 
11402 2 
11403 1 
11404 1 
11405 3 
11406 1 
11422 1 
11423 2 
11424 1 
11461 1 
11462 3 
11463 1 
11473 1 
11474 3 
11475 1 
11482 1 
11483 3 
11484 1 
11485 1 
11486 2 
11487 1 
12070 1 
12071 2 
12072 1 
12082 1 
12083 2 
12084 1 
12085 1 
12086 2 
12087 1 
12139 1 
12140 2 
12141 1 
12148 1 
12149 2 
12150 1 
12181 1 
12182 3 
12183 1 
12184 1 
12185 2 
12186 1 
12190 1 
12191 2 
12192 1 
12244 1 
12245 2 
12246 1 
12247 1 
12248 3 
12249 1 
12253 1 
12254 3 
12255 1 
12259 1 
12260 3 
12261 1 
12262 1 
12263 3 
12264 1 
12301 1 
12302 2 
12303 1 
12304 1 
12305 3 
12306 1 
12310 1 
12311 2 
12312 1 
12370 1 
12371 3 
12372 1 
12373 1 
12374 3 
12375 1 
12385 1 
12386 3 
12387 1 
12421 1 
12422 3 
12423 1 
12427 1 
12428 3 
12429 1 
12430 1 
12431 3 
12432 1 
12436 1 
12437 2 
12438 1 
12484 1 
12485 2 
12486 1 
12505 1 
12506 2 
12507 1 
12556 1 
12557 3 
12558 1 
12559 1 
12560 3 
12561 1 
12607 1 
12608 3 
12609 1 
13153 1 
13154 2 
13155 1 
13165 1 
13166 2 
13167 1 
13201 1 
13202 3 
13203 1 
13213 1 
13214 3 
13215 1 
13267 1 
13268 3 
13269 1 
13276 1 
13277 3 
13278 1 
13285 1 
13286 2 
13287 1 
13393 1 
13394 3 
13395 1 
13396 1 
13397 2 
13398 1 
13405 1 
13406 2 
13407 1 
13465 1 
13466 3 
13467 1 
13468 1 
13469 2 
13470 1 
13567 1 
13568 2 
13569 1 
13570 1 
13571 3 
13572 1 
13576 1 
13577 2 
13578 1 
13588 1 
13589 3 
13590 1 
14224 1 
14225 3 
14226 1 
14239 1 
14240 3 
14241 1 
14293 1 
14294 3 
14295 1 
14350 1 
14351 3 
14352 1 
14359 1 
14360 2 
14361 1 
14365 1 
14366 2 
14367 1 
14401 1 
14402 3 
14403 1 
14416 1 
14417 2 
14418 1 
14422 1 
14423 2 
14424 1 
14488 1 
14489 2 
14490 1 
14530 1 
14531 3 
14532 1 
14539 1 
14540 3 
14541 1 
14584 1 
14585 2 
14586 1 
14587 1 
14588 2 
14589 1 
14641 1 
14642 3 
14643 1 
14650 1 
14651 2 
14652 1 
14653 1 
14654 3 
14655 1 
15301 1 
15302 3 
15303 1 
15316 1 
15317 2 
15318 1 
15370 1 
15371 2 
15372 1 
15433 1 
15434 3 
15435 1 
15439 1 
15440 3 
15441 1 
15442 1 
15443 2 
15444 1 
15445 1 
15446 2 
15447 1 
15496 1 
15497 2 
15498 1 
15505 1 
15506 2 
15507 1 
15508 1 
15509 3 
15510 1 
15541 1 
15542 2 
15543 1 
15559 1 
15560 3 
15561 1 
15664 1 
15665 2 
15666 1 
15688 1 
15689 3 
15690 1 
15730 1 
15731 2 
15732 1 
15736 1 
15737 3 
15738 1 
15745 1 
15746 3 
15747 1 
16333 1 
16334 3 
16335 1 
16387 1 
16388 2 
16389 1 
16444 1 
16445 2 
16446 1 
16507 1 
16508 2 
16509 1 
16516 1 
16517 3 
16518 1 
16522 1 
16523 2 
16524 1 
16567 1 
16568 2 
16569 1 
16570 1 
16571 2 
16572 1 
16582 1 
16583 2 
16584 1 
16630 1 
16631 3 
16632 1 
16633 1 
16634 3 
16635 1 
16648 1 
16649 3 
16650 1 
16687 1 
16688 2 
16689 1 
16690 1 
16691 2 
16692 1 
16705 1 
16706 3 
16707 1 
17287 1 
17288 3 
17289 1 
17347 1 
17348 3 
17349 1 
17353 1 
17354 3 
17355 1 
17404 1 
17405 2 
17406 1 
17416 1 
17417 2 
17418 1 
17425 1 
17426 3 
17427 1 
17473 1 
17474 2 
17475 1 
17476 1 
17477 3 
17478 1 
17488 1 
17489 2 
17490 1 
17530 1 
17531 2 
17532 1 
17539 1 
17540 2 
17541 1 
17584 1 
17585 3 
17586 1 
17590 1 
17591 3 
17592 1 
17599 1 
17600 2 
17601 1 
17602 1 
17603 2 
17604 1 
17608 1 
17609 3 
17610 1 
17641 1 
17642 2 
17643 1 
17659 1 
17660 2 
17661 1 
17707 1 
17708 2 
17709 1 
17710 1 
17711 3 
17712 1 
17713 1 
17714 3 
17715 1 
17728 1 
17729 2 
17730 1 
17773 1 
17774 3 
17775 1 
17785 1 
17786 3 
17787 1 
17788 1 
17789 3 
17790 1 
18379 1 
18380 2 
18381 1 
18445 1 
18446 2 
18447 1 
18448 1 
18449 2 
18450 1 
18484 1 
18485 2 
18486 1 
18508 1 
18509 3 
18510 1 
18541 1 
18542 2 
18543 1 
18544 1 
18545 3 
18546 1 
18547 1 
18548 2 
18549 1 
18550 1 
18551 2 
18552 1 
18553 1 
18554 3 
18555 1 
18556 1 
18557 2 
18558 1 
18565 1 
18566 2 
18567 1 
18607 1 
18608 3 
18609 1 
18670 1 
18671 3 
18672 1 
18739 1 
18740 3 
18741 1 
18796 1 
18797 2 
18798 1 
18799 1 
18800 3 
18801 1 
18805 1 
18806 3 
18807 1 
18808 1 
18809 2 
18810 1 
18853 1 
18854 3 
18855 1 
18859 1 
18860 2 
18861 1 
19441 1 
19442 2 
19443 1 
19453 1 
19454 3 
19455 1 
19459 1 
19460 3 
19461 1 
19504 1 
19505 3 
19506 1 
19507 1 
19508 3 
19509 1 
19513 1 
19514 2 
19515 1 
19525 1 
19526 2 
19527 1 
19528 1 
19529 3 
19530 1 
19567 1 
19568 2 
19569 1 
19582 1 
19583 3 
19584 1 
19624 1 
19625 2 
19626 1 
19633 1 
19634 3 
19635 1 
19648 1 
19649 2 
19650 1 
19687 1 
19688 3 
19689 1 
19747 1 
19748 3 
19749 1 
19750 1 
19751 3 
19752 1 
19756 1 
19757 2 
19758 1 
19759 1 
19760 3 
19761 1 
19765 1 
19766 3 
19767 1 
19801 1 
19802 2 
19803 1 
19867 1 
19868 3 
19869 1 
19873 1 
19874 2 
19875 1 
19882 1 
19883 2 
19884 1 
20524 1 
20525 3 
20526 1 
20533 1 
20534 2 
20535 1 
20545 1 
20546 3 
20547 1 
20596 1 
20597 3 
20598 1 
20602 1 
20603 3 
20604 1 
20641 1 
20642 2 
20643 1 
20650 1 
20651 2 
20652 1 
20659 1 
20660 3 
20661 1 
20665 1 
20666 2 
20667 1 
20668 1 
20669 2 
20670 1 
20710 1 
20711 2 
20712 1 
20713 1 
20714 3 
20715 1 
20719 1 
20720 3 
20721 1 
20767 1 
20768 2 
20769 1 
20788 1 
20789 2 
20790 1 
20821 1 
20822 2 
20823 1 
20824 1 
20825 2 
20826 1 
20830 1 
20831 2 
20832 1 
20833 1 
20834 2 
20835 1 
20848 1 
20849 3 
20850 1 
20887 1 
20888 2 
20889 1 
20902 1 
20903 3 
20904 1 
20908 1 
20909 3 
20910 1 
20956 1 
20957 2 
20958 1 
21007 1 
21008 3 
21009 1 
21016 1 
21017 3 
21018 1 
21019 1 
21020 2 
21021 1 
34 1 
35 3 
36 1 
37 1 
38 2 
39 1 
97 1 
98 3 
99 1 
100 1 
101 2 
102 1 
151 1 
152 2 
153 1 
178 1 
179 2 
180 1 
211 1 
212 3 
213 1 
220 1 
221 2 
222 1 
223 1 
224 2 
225 1 
226 1 
227 2 
228 1 
229 1 
230 2 
231 1 
232 1 
233 2 
234 1 
274 1 
275 3 
276 1 
295 1 
296 2 
297 1 
334 1 
335 2 
336 1 
343 1 
344 3 
345 1 
346 1 
347 3 
348 1 
400 1 
401 2 
402 1 
406 1 
407 3 
408 1 
514 1 
515 3 
516 1 
523 1 
524 2 
525 1 
526 1 
527 2 
528 1 
529 1 
530 3 
531 1 
1171 1 
1172 3 
1173 1 
1186 1 
1187 3 
1188 1 
1189 1 
1190 3 
1191 1 
1192 1 
1193 3 
1194 1 
1231 1 
1232 3 
1233 1 
1246 1 
1247 2 
1248 1 
1249 1 
1250 2 
1251 1 
1258 1 
1259 2 
1260 1 
1309 1 
1310 3 
1311 1 
1315 1 
1316 2 
1317 1 
1351 1 
1352 3 
1353 1 
1354 1 
1355 2 
1356 1 
1414 1 
1415 3 
1416 1 
1420 1 
1421 3 
1422 1 
1423 1 
1424 2 
1425 1 
1429 1 
1430 3 
1431 1 
1432 1 
1433 2 
1434 1 
1435 1 
1436 3 
1437 1 
1438 1 
1439 2 
1440 1 
1474 1 
1475 3 
1476 1 
1540 1 
1541 2 
1542 1 
1558 1 
1559 3 
1560 1 
1591 1 
1592 2 
1593 1 
1600 1 
1601 3 
1602 1 
1654 1 
1655 3 
1656 1 
1660 1 
1661 2 
1662 1 
1669 1 
1670 2 
1671 1 
2275 1 
2276 2 
2277 1 
2317 1 
2318 3 
2319 1 
2320 1 
2321 3 
2322 1 
2329 1 
2330 3 
2331 1 
2332 1 
2333 2 
2334 1 
2335 1 
2336 3 
2337 1 
2338 1 
2339 2 
2340 1 
2389 1 
2390 2 
2391 1 
2392 1 
2393 3 
2394 1 
2431 1 
2432 3 
2433 1 
2437 1 
2438 2 
2439 1 
2452 1 
2453 2 
2454 1 
2506 1 
2507 3 
2508 1 
2551 1 
2552 3 
2553 1 
2569 1 
2570 3 
2571 1 
2572 1 
2573 2 
2574 1 
2575 1 
2576 2 
2577 1 
2611 1 
2612 2 
2613 1 
2620 1 
2621 2 
2622 1 
3214 1 
3215 3 
3216 1 
3223 1 
3224 3 
3225 1 
3232 1 
3233 2 
3234 1 
3271 1 
3272 2 
3273 1 
3274 1 
3275 3 
3276 1 
3331 1 
3332 3 
3333 1 
3343 1 
3344 2 
3345 1 
3355 1 
3356 2 
3357 1 
3394 1 
3395 3 
3396 1 
3460 1 
3461 3 
3462 1 
3466 1 
3467 2 
3468 1 
3469 1 
3470 3 
3471 1 
3472 1 
3473 3 
3474 1 
3475 1 
3476 2 
3477 1 
3535 1 
3536 3 
3537 1 
3538 1 
3539 3 
3540 1 
3571 1 
3572 3 
3573 1 
3577 1 
3578 3 
3579 1 
3580 1 
3581 2 
3582 1 
3583 1 
3584 3 
3585 1 
3592 1 
3593 2 
3594 1 
3697 1 
3698 2 
3699 1 
3700 1 
3701 3 
3702 1 
3703 1 
3704 3 
3705 1 
3706 1 
3707 2 
3708 1 
3763 1 
3764 2 
3765 1 
3775 1 
3776 2 
3777 1 
4372 1 
4373 3 
4374 1 
4411 1 
4412 3 
4413 1 
4414 1 
4415 3 
4416 1 
4426 1 
4427 3 
4428 1 
4432 1 
4433 2 
4434 1 
4477 1 
4478 2 
4479 1 
4486 1 
4487 2 
4488 1 
4531 1 
4532 3 
4533 1 
4543 1 
4544 2 
4545 1 
4558 1 
4559 3 
4560 1 
4591 1 
4592 3 
4593 1 
4612 1 
4613 3 
4614 1 
4660 1 
4661 2 
4662 1 
4672 1 
4673 2 
4674 1 
4678 1 
4679 3 
4680 1 
4723 1 
4724 2 
4725 1 
4783 1 
4784 3 
4785 1 
4849 1 
4850 2 
4851 1 
4858 1 
4859 3 
4860 1 
4918 1 
4919 3 
4920 1 
5515 1 
5516 2 
5517 1 
5563 1 
5564 2 
5565 1 
5611 1 
5612 3 
5613 1 
5617 1 
5618 2 
5619 1 
5698 1 
5699 3 
5700 1 
5731 1 
5732 2 
5733 1 
5734 1 
5735 3 
5736 1 
5740 1 
5741 2 
5742 1 
5743 1 
5744 3 
5745 1 
5794 1 
5795 3 
5796 1 
5800 1 
5801 2 
5802 1 
5818 1 
5819 2 
5820 1 
5866 1 
5867 3 
5868 1 
5875 1 
5876 2 
5877 1 
5878 1 
5879 3 
5880 1 
5911 1 
5912 3 
5913 1 
5920 1 
5921 3 
5922 1 
5971 1 
5972 3 
5973 1 
5980 1 
5981 3 
5982 1 
5998 1 
5999 3 
6000 1 
6037 1 
6038 3 
6039 1 
6043 1 
6044 3 
6045 1 
6697 1 
6698 2 
6699 1 
6718 1 
6719 3 
6720 1 
6766 1 
6767 3 
6768 1 
6826 1 
6827 3 
6828 1 
7000 1 
7001 2 
7002 1 
7006 1 
7007 3 
7008 1 
7015 1 
7016 2 
7017 1 
7057 1 
7058 2 
7059 1 
7072 1 
7073 2 
7074 1 
7129 1 
7130 3 
7131 1 
7183 1 
7184 3 
7185 1 
7192 1 
7193 2 
7194 1 
7255 1 
7256 2 
7257 1 
7774 1 
7775 2 
7776 1 
7780 1 
7781 3 
7782 1 
7783 1 
7784 2 
7785 1 
7789 1 
7790 2 
7791 1 
7792 1 
7793 2 
7794 1 
7846 1 
7847 2 
7848 1 
7894 1 
7895 3 
7896 1 
7903 1 
7904 3 
7905 1 
7912 1 
7913 3 
7914 1 
7918 1 
7919 3 
7920 1 
7954 1 
7955 3 
7956 1 
7957 1 
7958 3 
7959 1 
7963 1 
7964 3 
7965 1 
8071 1 
8072 2 
8073 1 
8080 1 
8081 3 
8082 1 
8131 1 
8132 3 
8133 1 
8146 1 
8147 3 
8148 1 
8149 1 
8150 3 
8151 1 
8197 1 
8198 2 
8199 1 
8200 1 
8201 2 
8202 1 
8203 1 
8204 3 
8205 1 
8209 1 
8210 2 
8211 1 
8212 1 
8213 2 
8214 1 
8257 1 
8258 3 
8259 1 
8266 1 
8267 3 
8268 1 
8269 1 
8270 2 
8271 1 
8314 1 
8315 2 
8316 1 
8329 1 
8330 2 
8331 1 
8338 1 
8339 3 
8340 1 
8911 1 
8912 3 
8913 1 
8914 1 
8915 3 
8916 1 
8917 1 
8918 3 
8919 1 
8920 1 
8921 3 
8922 1 
8932 1 
8933 3 
8934 1 
8986 1 
8987 3 
8988 1 
9031 1 
9032 2 
9033 1 
9043 1 
9044 2 
9045 1 
9046 1 
9047 3 
9048 1 
9049 1 
9050 2 
9051 1 
9094 1 
9095 2 
9096 1 
9154 1 
9155 3 
9156 1 
9175 1 
9176 3 
9177 1 
9226 1 
9227 3 
9228 1 
9235 1 
9236 2 
9237 1 
9277 1 
9278 2 
9279 1 
9292 1 
9293 2 
9294 1 
9298 1 
9299 2 
9300 1 
9331 1 
9332 2 
9333 1 
9337 1 
9338 3 
9339 1 
9358 1 
9359 3 
9360 1 
10003 1 
10004 3 
10005 1 
10015 1 
10016 3 
10017 1 
10057 1 
10058 2 
10059 1 
10063 1 
10064 3 
10065 1 
10066 1 
10067 3 
10068 1 
10072 1 
10073 2 
10074 1 
10078 1 
10079 2 
10080 1 
10117 1 
10118 2 
10119 1 
10120 1 
10121 3 
10122 1 
10132 1 
10133 3 
10134 1 
10177 1 
10178 2 
10179 1 
10183 1 
10184 2 
10185 1 
10189 1 
10190 2 
10191 1 
10198 1 
10199 3 
10200 1 
10234 1 
10235 3 
10236 1 
10243 1 
10244 2 
10245 1 
10258 1 
10259 3 
10260 1 
10294 1 
10295 3 
10296 1 
10297 1 
10298 3 
10299 1 
10300 1 
10301 3 
10302 1 
10372 1 
10373 2 
10374 1 
10411 1 
10412 2 
10413 1 
10417 1 
10418 2 
10419 1 
10420 1 
10421 2 
10422 1 
10432 1 
10433 2 
10434 1 
10474 1 
10475 3 
10476 1 
10477 1 
10478 2 
10479 1 
10486 1 
10487 3 
10488 1 
10498 1 
10499 3 
10500 1 
10546 1 
10547 2 
10548 1 
10552 1 
10553 2 
10554 1 
11134 1 
11135 2 
11136 1 
11137 1 
11138 3 
11139 1 
11200 1 
11201 3 
11202 1 
11212 1 
11213 2 
11214 1 
11266 1 
11267 2 
11268 1 
11269 1 
11270 3 
11271 1 
11278 1 
11279 2 
11280 1 
11317 1 
11318 2 
11319 1 
11335 1 
11336 3 
11337 1 
11377 1 
11378 3 
11379 1 
11437 1 
11438 3 
11439 1 
11440 1 
11441 3 
11442 1 
11455 1 
11456 2 
11457 1 
11515 1 
11516 2 
11517 1 
12097 1 
12098 2 
12099 1 
12100 1 
12101 3 
12102 1 
12103 1 
12104 3 
12105 1 
12106 1 
12107 2 
12108 1 
12109 1 
12110 3 
12111 1 
12157 1 
12158 3 
12159 1 
12166 1 
12167 2 
12168 1 
12169 1 
12170 3 
12171 1 
12175 1 
12176 3 
12177 1 
12211 1 
12212 2 
12213 1 
12214 1 
12215 2 
12216 1 
12226 1 
12227 2 
12228 1 
12238 1 
12239 3 
12240 1 
12271 1 
12272 2 
12273 1 
12292 1 
12293 3 
12294 1 
12349 1 
12350 2 
12351 1 
12454 1 
12455 3 
12456 1 
12478 1 
12479 3 
12480 1 
12517 1 
12518 2 
12519 1 
12523 1 
12524 3 
12525 1 
12529 1 
12530 3 
12531 1 
12535 1 
12536 3 
12537 1 
12538 1 
12539 2 
12540 1 
12574 1 
12575 2 
12576 1 
12583 1 
12584 3 
12585 1 
12640 1 
12641 3 
12642 1 
12655 1 
12656 3 
12657 1 
12658 1 
12659 2 
12660 1 
13171 1 
13172 3 
13173 1 
13183 1 
13184 2 
13185 1 
13192 1 
13193 2 
13194 1 
13195 1 
13196 2 
13197 1 
13198 1 
13199 2 
13200 1 
13240 1 
13241 2 
13242 1 
13246 1 
13247 3 
13248 1 
13297 1 
13298 2 
13299 1 
13312 1 
13313 3 
13314 1 
13375 1 
13376 3 
13377 1 
13414 1 
13415 3 
13416 1 
13420 1 
13421 2 
13422 1 
13426 1 
13427 2 
13428 1 
13432 1 
13433 2 
13434 1 
13480 1 
13481 3 
13482 1 
13492 1 
13493 3 
13494 1 
13495 1 
13496 3 
13497 1 
13546 1 
13547 3 
13548 1 
13552 1 
13553 2 
13554 1 
13558 1 
13559 3 
13560 1 
14260 1 
14261 3 
14262 1 
14263 1 
14264 3 
14265 1 
14266 1 
14267 2 
14268 1 
14317 1 
14318 2 
14319 1 
14332 1 
14333 3 
14334 1 
14371 1 
14372 3 
14373 1 
14374 1 
14375 2 
14376 1 
14431 1 
14432 3 
14433 1 
14440 1 
14441 2 
14442 1 
14452 1 
14453 2 
14454 1 
14509 1 
14510 3 
14511 1 
14512 1 
14513 2 
14514 1 
14572 1 
14573 2 
14574 1 
14575 1 
14576 3 
14577 1 
14617 1 
14618 2 
14619 1 
14686 1 
14687 3 
14688 1 
14692 1 
14693 3 
14694 1 
15334 1 
15335 2 
15336 1 
15355 1 
15356 3 
15357 1 
15358 1 
15359 2 
15360 1 
15406 1 
15407 2 
15408 1 
15409 1 
15410 2 
15411 1 
15412 1 
15413 3 
15414 1 
15469 1 
15470 3 
15471 1 
15472 1 
15473 2 
15474 1 
15523 1 
15524 3 
15525 1 
15580 1 
15581 3 
15582 1 
15583 1 
15584 3 
15585 1 
15589 1 
15590 3 
15591 1 
15640 1 
15641 2 
15642 1 
15643 1 
15644 2 
15645 1 
15697 1 
15698 3 
15699 1 
15709 1 
15710 3 
15711 1 
15715 1 
15716 3 
15717 1 
15754 1 
15755 3 
15756 1 
15757 1 
15758 3 
15759 1 
16354 1 
16355 2 
16356 1 
16363 1 
16364 2 
16365 1 
16417 1 
16418 3 
16419 1 
16420 1 
16421 2 
16422 1 
16429 1 
16430 3 
16431 1 
16432 1 
16433 3 
16434 1 
16438 1 
16439 2 
16440 1 
16489 1 
16490 2 
16491 1 
16498 1 
16499 2 
16500 1 
16537 1 
16538 3 
16539 1 
16654 1 
16655 2 
16656 1 
16660 1 
16661 3 
16662 1 
16675 1 
16676 3 
16677 1 
16726 1 
16727 2 
16728 1 
17317 1 
17318 2 
17319 1 
17332 1 
17333 2 
17334 1 
17335 1 
17336 2 
17337 1 
17371 1 
17372 3 
17373 1 
17374 1 
17375 3 
17376 1 
17395 1 
17396 3 
17397 1 
17398 1 
17399 2 
17400 1 
17500 1 
17501 3 
17502 1 
17554 1 
17555 2 
17556 1 
17557 1 
17558 3 
17559 1 
17563 1 
17564 2 
17565 1 
17572 1 
17573 2 
17574 1 
17575 1 
17576 3 
17577 1 
17638 1 
17639 2 
17640 1 
17680 1 
17681 2 
17682 1 
17731 1 
17732 2 
17733 1 
17755 1 
17756 3 
17757 1 
17758 1 
17759 3 
17760 1 
17794 1 
17795 2 
17796 1 
17800 1 
17801 2 
17802 1 
17815 1 
17816 2 
17817 1 
17818 1 
17819 3 
17820 1 
18394 1 
18395 3 
18396 1 
18400 1 
18401 3 
18402 1 
18454 1 
18455 3 
18456 1 
18475 1 
18476 2 
18477 1 
18478 1 
18479 2 
18480 1 
18511 1 
18512 2 
18513 1 
18517 1 
18518 3 
18519 1 
18529 1 
18530 2 
18531 1 
18532 1 
18533 2 
18534 1 
18538 1 
18539 3 
18540 1 
18571 1 
18572 3 
18573 1 
18577 1 
18578 2 
18579 1 
18643 1 
18644 2 
18645 1 
18649 1 
18650 3 
18651 1 
18652 1 
18653 3 
18654 1 
18700 1 
18701 2 
18702 1 
18709 1 
18710 3 
18711 1 
18715 1 
18716 2 
18717 1 
18757 1 
18758 3 
18759 1 
18766 1 
18767 2 
18768 1 
18769 1 
18770 2 
18771 1 
18835 1 
18836 2 
18837 1 
18871 1 
18872 3 
18873 1 
18877 1 
18878 3 
18879 1 
18892 1 
18893 2 
18894 1 
18898 1 
18899 3 
18900 1 
19480 1 
19481 3 
19482 1 
19489 1 
19490 3 
19491 1 
19546 1 
19547 3 
19548 1 
19558 1 
19559 3 
19560 1 
19597 1 
19598 3 
19599 1 
19603 1 
19604 2 
19605 1 
19618 1 
19619 2 
19620 1 
19654 1 
19655 2 
19656 1 
19666 1 
19667 3 
19668 1 
19726 1 
19727 2 
19728 1 
19798 1 
19799 3 
19800 1 
19831 1 
19832 3 
19833 1 
19834 1 
19835 2 
19836 1 
19855 1 
19856 3 
19857 1 
19900 1 
19901 2 
19902 1 
20551 1 
20552 3 
20553 1 
20614 1 
20615 3 
20616 1 
20620 1 
20621 3 
20622 1 
20626 1 
20627 3 
20628 1 
20635 1 
20636 2 
20637 1 
20671 1 
20672 3 
20673 1 
20683 1 
20684 3 
20685 1 
20692 1 
20693 3 
20694 1 
20731 1 
20732 3 
20733 1 
20734 1 
20735 3 
20736 1 
20737 1 
20738 2 
20739 1 
20740 1 
20741 3 
20742 1 
20758 1 
20759 2 
20760 1 
20803 1 
20804 3 
20805 1 
20812 1 
20813 2 
20814 1 
20818 1 
20819 3 
20820 1 
20851 1 
20852 2 
20853 1 
20860 1 
20861 3 
20862 1 
20872 1 
20873 3 
20874 1 
20875 1 
20876 2 
20877 1 
20914 1 
20915 2 
20916 1 
20932 1 
20933 3 
20934 1 
20935 1 
20936 3 
20937 1 
20977 1 
20978 3 
20979 1 
20992 1 
20993 3 
20994 1 
20998 1 
20999 2 
21000 1 
21037 1 
21038 2 
21039 1 
21040 1 
21041 3 
21042 1 
550 1 
551 2 
552 1 
604 1 
605 3 
606 1 
610 1 
611 3 
612 1 
613 1 
614 2 
615 1 
616 1 
617 3 
618 1 
664 1 
665 3 
666 1 
667 1 
668 3 
669 1 
724 1 
725 2 
726 1 
727 1 
728 3 
729 1 
730 1 
731 3 
732 1 
736 1 
737 2 
738 1 
742 1 
743 3 
744 1 
790 1 
791 3 
792 1 
796 1 
797 3 
798 1 
847 1 
848 3 
849 1 
853 1 
854 3 
855 1 
901 1 
902 3 
903 1 
904 1 
905 2 
906 1 
916 1 
917 2 
918 1 
925 1 
926 3 
927 1 
967 1 
968 2 
969 1 
1024 1 
1025 2 
1026 1 
1096 1 
1097 2 
1098 1 
1099 1 
1100 3 
1101 1 
1102 1 
1103 2 
1104 1 
1105 1 
1106 3 
1107 1 
1705 1 
1706 3 
1707 1 
1759 1 
1760 3 
1761 1 
1804 1 
1805 3 
1806 1 
1816 1 
1817 3 
1818 1 
1819 1 
1820 2 
1821 1 
1825 1 
1826 3 
1827 1 
1864 1 
1865 2 
1866 1 
1873 1 
1874 3 
1875 1 
1876 1 
1877 2 
1878 1 
1879 1 
1880 3 
1881 1 
1882 1 
1883 3 
1884 1 
1924 1 
1925 2 
1926 1 
1927 1 
1928 2 
1929 1 
1939 1 
1940 2 
1941 1 
1990 1 
1991 3 
1992 1 
1996 1 
1997 3 
1998 1 
2047 1 
2048 2 
2049 1 
2110 1 
2111 3 
2112 1 
2122 1 
2123 2 
2124 1 
2173 1 
2174 3 
2175 1 
2647 1 
2648 3 
2649 1 
2659 1 
2660 3 
2661 1 
2707 1 
2708 3 
2709 1 
2716 1 
2717 2 
2718 1 
2722 1 
2723 3 
2724 1 
2773 1 
2774 3 
2775 1 
2821 1 
2822 3 
2823 1 
2833 1 
2834 2 
2835 1 
2839 1 
2840 2 
2841 1 
2842 1 
2843 3 
2844 1 
2845 1 
2846 2 
2847 1 
2908 1 
2909 2 
2910 1 
2941 1 
2942 2 
2943 1 
2962 1 
2963 3 
2964 1 
3010 1 
3011 3 
3012 1 
3013 1 
3014 2 
3015 1 
3022 1 
3023 3 
3024 1 
3784 1 
3785 3 
3786 1 
3841 1 
3842 2 
3843 1 
3844 1 
3845 2 
3846 1 
3850 1 
3851 3 
3852 1 
3856 1 
3857 2 
3858 1 
3868 1 
3869 2 
3870 1 
3925 1 
3926 3 
3927 1 
3973 1 
3974 3 
3975 1 
3979 1 
3980 2 
3981 1 
3982 1 
3983 3 
3984 1 
4024 1 
4025 3 
4026 1 
4027 1 
4028 2 
4029 1 
4030 1 
4031 3 
4032 1 
4036 1 
4037 3 
4038 1 
4039 1 
4040 3 
4041 1 
4045 1 
4046 3 
4047 1 
4048 1 
4049 2 
4050 1 
4102 1 
4103 2 
4104 1 
4144 1 
4145 2 
4146 1 
4168 1 
4169 2 
4170 1 
4204 1 
4205 2 
4206 1 
4228 1 
4229 3 
4230 1 
4267 1 
4268 2 
4269 1 
4288 1 
4289 2 
4290 1 
4921 1 
4922 3 
4923 1 
5041 1 
5042 3 
5043 1 
5062 1 
5063 3 
5064 1 
5065 1 
5066 3 
5067 1 
5113 1 
5114 3 
5115 1 
5176 1 
5177 2 
5178 1 
5182 1 
5183 3 
5184 1 
5242 1 
5243 2 
5244 1 
5281 1 
5282 2 
5283 1 
5290 1 
5291 2 
5292 1 
5296 1 
5297 3 
5298 1 
5302 1 
5303 3 
5304 1 
5347 1 
5348 2 
5349 1 
5404 1 
5405 2 
5406 1 
5407 1 
5408 2 
5409 1 
5416 1 
5417 2 
5418 1 
5422 1 
5423 2 
5424 1 
5428 1 
5429 2 
5430 1 
6067 1 
6068 3 
6069 1 
6070 1 
6071 3 
6072 1 
6076 1 
6077 2 
6078 1 
6082 1 
6083 3 
6084 1 
6085 1 
6086 2 
6087 1 
6121 1 
6122 3 
6123 1 
6130 1 
6131 3 
6132 1 
6136 1 
6137 3 
6138 1 
6145 1 
6146 3 
6147 1 
6202 1 
6203 2 
6204 1 
6208 1 
6209 3 
6210 1 
6256 1 
6257 2 
6258 1 
6259 1 
6260 2 
6261 1 
6262 1 
6263 3 
6264 1 
6325 1 
6326 3 
6327 1 
6364 1 
6365 2 
6366 1 
6373 1 
6374 2 
6375 1 
6379 1 
6380 3 
6381 1 
6382 1 
6383 2 
6384 1 
6424 1 
6425 2 
6426 1 
6436 1 
6437 3 
6438 1 
6490 1 
6491 2 
6492 1 
6493 1 
6494 3 
6495 1 
6568 1 
6569 2 
6570 1 
6607 1 
6608 3 
6609 1 
6610 1 
6611 3 
6612 1 
7261 1 
7262 2 
7263 1 
7273 1 
7274 3 
7275 1 
7279 1 
7280 2 
7281 1 
7282 1 
7283 2 
7284 1 
7285 1 
7286 2 
7287 1 
7330 1 
7331 3 
7332 1 
7342 1 
7343 3 
7344 1 
7348 1 
7349 3 
7350 1 
7390 1 
7391 2 
7392 1 
7450 1 
7451 2 
7452 1 
7456 1 
7457 3 
7458 1 
7462 1 
7463 2 
7464 1 
7561 1 
7562 2 
7563 1 
7564 1 
7565 2 
7566 1 
7579 1 
7580 3 
7581 1 
7582 1 
7583 2 
7584 1 
7621 1 
7622 3 
7623 1 
7636 1 
7637 3 
7638 1 
7639 1 
7640 2 
7641 1 
7690 1 
7691 3 
7692 1 
7705 1 
7706 2 
7707 1 
8344 1 
8345 3 
8346 1 
8362 1 
8363 2 
8364 1 
8404 1 
8405 2 
8406 1 
8419 1 
8420 3 
8421 1 
8464 1 
8465 2 
8466 1 
8470 1 
8471 3 
8472 1 
8527 1 
8528 3 
8529 1 
8530 1 
8531 3 
8532 1 
8533 1 
8534 3 
8535 1 
8539 1 
8540 2 
8541 1 
8581 1 
8582 2 
8583 1 
8593 1 
8594 2 
8595 1 
8641 1 
8642 2 
8643 1 
8653 1 
8654 3 
8655 1 
8656 1 
8657 2 
8658 1 
8665 1 
8666 3 
8667 1 
8722 1 
8723 3 
8724 1 
8770 1 
8771 3 
8772 1 
8824 1 
8825 2 
8826 1 
9364 1 
9365 2 
9366 1 
9367 1 
9368 2 
9369 1 
9424 1 
9425 2 
9426 1 
9427 1 
9428 3 
9429 1 
9430 1 
9431 3 
9432 1 
9433 1 
9434 2 
9435 1 
9484 1 
9485 3 
9486 1 
9502 1 
9503 2 
9504 1 
9505 1 
9506 2 
9507 1 
9508 1 
9509 3 
9510 1 
9556 1 
9557 3 
9558 1 
9565 1 
9566 2 
9567 1 
9607 1 
9608 2 
9609 1 
9622 1 
9623 3 
9624 1 
9670 1 
9671 2 
9672 1 
9730 1 
9731 2 
9732 1 
9739 1 
9740 3 
9741 1 
9802 1 
9803 2 
9804 1 
9868 1 
9869 2 
9870 1 
9925 1 
9926 3 
9927 1 
9928 1 
9929 3 
9930 1 
10561 1 
10562 3 
10563 1 
10567 1 
10568 2 
10569 1 
10570 1 
10571 2 
10572 1 
10633 1 
10634 3 
10635 1 
10645 1 
10646 3 
10647 1 
10690 1 
10691 3 
10692 1 
10699 1 
10700 3 
10701 1 
10741 1 
10742 3 
10743 1 
10756 1 
10757 3 
10758 1 
10759 1 
10760 3 
10761 1 
10765 1 
10766 3 
10767 1 
10768 1 
10769 3 
10770 1 
10801 1 
10802 2 
10803 1 
10804 1 
10805 2 
10806 1 
10807 1 
10808 2 
10809 1 
10810 1 
10811 3 
10812 1 
10813 1 
10814 2 
10815 1 
10816 1 
10817 2 
10818 1 
10822 1 
10823 3 
10824 1 
10870 1 
10871 3 
10872 1 
10936 1 
10937 3 
10938 1 
10945 1 
10946 3 
10947 1 
10948 1 
10949 2 
10950 1 
10987 1 
10988 2 
10989 1 
11005 1 
11006 2 
11007 1 
11050 1 
11051 2 
11052 1 
11053 1 
11054 2 
11055 1 
11065 1 
11066 3 
11067 1 
11545 1 
11546 3 
11547 1 
11599 1 
11600 2 
11601 1 
11644 1 
11645 2 
11646 1 
11701 1 
11702 3 
11703 1 
11722 1 
11723 2 
11724 1 
11764 1 
11765 2 
11766 1 
11767 1 
11768 2 
11769 1 
11770 1 
11771 3 
11772 1 
11821 1 
11822 3 
11823 1 
11827 1 
11828 3 
11829 1 
11905 1 
11906 2 
11907 1 
11947 1 
11948 2 
11949 1 
11959 1 
11960 3 
11961 1 
12001 1 
12002 2 
12003 1 
12004 1 
12005 3 
12006 1 
12007 1 
12008 2 
12009 1 
12016 1 
12017 3 
12018 1 
12028 1 
12029 2 
12030 1 
12661 1 
12662 2 
12663 1 
12664 1 
12665 2 
12666 1 
12676 1 
12677 2 
12678 1 
12679 1 
12680 2 
12681 1 
12685 1 
12686 2 
12687 1 
12727 1 
12728 3 
12729 1 
12733 1 
12734 2 
12735 1 
12736 1 
12737 2 
12738 1 
12790 1 
12791 2 
12792 1 
12805 1 
12806 3 
12807 1 
12859 1 
12860 2 
12861 1 
12865 1 
12866 2 
12867 1 
12904 1 
12905 3 
12906 1 
12970 1 
12971 3 
12972 1 
13033 1 
13034 3 
13035 1 
13087 1 
13088 2 
13089 1 
13096 1 
13097 3 
13098 1 
13633 1 
13634 3 
13635 1 
13636 1 
13637 2 
13638 1 
13681 1 
13682 3 
13683 1 
13690 1 
13691 3 
13692 1 
13699 1 
13700 3 
13701 1 
13702 1 
13703 3 
13704 1 
13741 1 
13742 3 
13743 1 
13750 1 
13751 2 
13752 1 
13756 1 
13757 2 
13758 1 
13813 1 
13814 3 
13815 1 
13870 1 
13871 2 
13872 1 
13873 1 
13874 2 
13875 1 
13876 1 
13877 2 
13878 1 
13879 1 
13880 2 
13881 1 
13990 1 
13991 2 
13992 1 
14002 1 
14003 2 
14004 1 
14005 1 
14006 2 
14007 1 
14068 1 
14069 2 
14070 1 
14113 1 
14114 3 
14115 1 
14119 1 
14120 2 
14121 1 
14164 1 
14165 3 
14166 1 
14182 1 
14183 2 
14184 1 
14767 1 
14768 3 
14769 1 
14773 1 
14774 2 
14775 1 
14776 1 
14777 3 
14778 1 
14779 1 
14780 2 
14781 1 
14821 1 
14822 3 
14823 1 
14833 1 
14834 2 
14835 1 
14839 1 
14840 2 
14841 1 
14893 1 
14894 3 
14895 1 
14941 1 
14942 3 
14943 1 
14947 1 
14948 2 
14949 1 
14953 1 
14954 2 
14955 1 
14968 1 
14969 3 
14970 1 
15004 1 
15005 2 
15006 1 
15013 1 
15014 3 
15015 1 
15019 1 
15020 2 
15021 1 
15067 1 
15068 2 
15069 1 
15082 1 
15083 3 
15084 1 
15142 1 
15143 2 
15144 1 
15181 1 
15182 2 
15183 1 
15247 1 
15248 2 
15249 1 
15250 1 
15251 2 
15252 1 
15262 1 
15263 3 
15264 1 
15805 1 
15806 2 
15807 1 
15853 1 
15854 3 
15855 1 
15859 1 
15860 2 
15861 1 
15865 1 
15866 3 
15867 1 
15916 1 
15917 3 
15918 1 
15964 1 
15965 3 
15966 1 
15973 1 
15974 3 
15975 1 
15985 1 
15986 2 
15987 1 
15988 1 
15989 2 
15990 1 
16030 1 
16031 3 
16032 1 
16033 1 
16034 2 