ITEM: TIMESTEP
50000000
ITEM: NUMBER OF ATOMS
3600
ITEM: BOX BOUNDS pp pp pp
0.0000000000000000e+00 5.0000000000000000e+01
0.0000000000000000e+00 5.0000000000000000e+01
0.0000000000000000e+00 5.0000000000000000e+01
ITEM: ATOMS id type xs ys zs
8042 2 0.994535 0.0287273 0.439579
14421 1 0.00146717 0.0511665 0.437903
9229 1 0.0250762 0.0534335 0.418056
14420 2 0.00800208 0.0552043 0.437132
14419 1 0.0126667 0.0604898 0.440614
9230 2 0.0308553 0.0541339 0.423272
9231 1 0.0374516 0.0551496 0.429982
6021 1 0.0394703 0.0554821 0.432047
6020 2 0.0456879 0.0578288 0.436609
6019 1 0.0526832 0.0602816 0.440216
17853 1 0.0552362 0.0612976 0.441764
17858 2 0.992281 0.0467442 0.436116
17857 1 0.999108 0.0497296 0.438048
8041 1 0.992948 0.0367203 0.438432
17859 1 0.992405 0.0397809 0.437448
11111 2 0.0284152 0.0864061 0.430434
21398 2 0.0106395 0.0823096 0.426097
21399 1 0.00270437 0.0826696 0.426416
21397 1 0.0181924 0.0842465 0.428755
11110 1 0.0214372 0.0848559 0.429144
4258 1 0.00820116 0.0848693 0.440238
11112 1 0.0346732 0.0856191 0.435636
5461 1 0.0370255 0.0846666 0.437035
5462 2 0.0441158 0.0828005 0.441137
4816 1 0.999942 0.0831318 0.426822
4817 2 0.992673 0.0842732 0.428736
4818 1 0.988093 0.0857459 0.434074
11668 1 0.98631 0.0867393 0.436544
11635 1 0.0510857 0.0108298 0.472758
11636 3 0.0563285 0.00430789 0.46994
31 1 0.981769 0.00322238 0.443171
4737 1 0.983436 0.00551363 0.444118
4735 1 0.989491 0.0199802 0.444249
4736 3 0.988341 0.0123308 0.447082
8043 1 0.990812 0.022535 0.443052
6335 2 0.0186592 0.0550787 0.463502
6336 1 0.0153176 0.048013 0.466214
18404 2 0.0281705 0.0439193 0.45281
6334 1 0.0227406 0.0523257 0.458515
18403 1 0.0244519 0.0502233 0.456568
20562 1 0.0492783 0.0372286 0.442452
20561 2 0.0450831 0.0417214 0.447575
20560 1 0.0382869 0.0427077 0.450446
18405 1 0.0354886 0.0430883 0.450942
8318 2 0.0488014 0.055899 0.469361
8319 1 0.046131 0.0482912 0.472489
8317 1 0.0554865 0.0515662 0.467829
5322 1 0.0578843 0.0504081 0.466643
5320 1 0.0700255 0.0541219 0.464377
7473 1 0.0722414 0.0562329 0.464455
5321 2 0.0648106 0.0483628 0.464069
14460 1 0.103493 0.0544668 0.472818
12280 1 0.10144 0.0570539 0.472427
6670 1 0.0148326 0.0623807 0.441983
6671 2 0.0206585 0.0665706 0.446699
4260 1 0.00636043 0.0788024 0.453507
18817 1 0.00655349 0.0774466 0.45638
18818 2 0.00849968 0.0752285 0.462836
6672 1 0.0235265 0.0699615 0.453575
4390 1 0.0251985 0.0712923 0.4563
4391 2 0.0290126 0.0743555 0.46235
4259 2 0.00471345 0.0826467 0.446529
18819 1 0.0126295 0.0709907 0.468686
4300 1 0.0131858 0.0701198 0.471721
5463 1 0.0464163 0.0815743 0.448305
5845 1 0.0589291 0.0777647 0.463842
11235 1 0.0562784 0.0773935 0.462452
11233 1 0.047246 0.0806892 0.451516
11234 2 0.0486834 0.0780749 0.458436
4392 1 0.0319959 0.0752764 0.469919
6982 1 0.0333504 0.0765975 0.472471
17852 2 0.0621795 0.063805 0.444688
17851 1 0.068115 0.068858 0.445571
14973 1 0.0705093 0.0710367 0.445964
7472 2 0.0781186 0.061774 0.462655
14972 2 0.0759144 0.0761282 0.448101
14971 1 0.0744345 0.0845752 0.451693
379 1 0.0738187 0.0868392 0.452429
7471 1 0.0833177 0.0678093 0.461274
5846 2 0.0658879 0.0775612 0.467952
9750 1 0.0941674 0.0849217 0.465741
9749 2 0.0985974 0.0844223 0.472334
12281 2 0.0968804 0.0622039 0.472079
8273 2 0.989575 0.0918972 0.461966
8274 1 0.986866 0.0905862 0.454952
8272 1 0.993261 0.0912416 0.469346
11670 1 0.98579 0.090242 0.451812
11669 2 0.982521 0.0890104 0.443738
5362 1 0.99514 0.0916758 0.472028
18570 1 0.0134715 0.114204 0.456272
11925 1 0.0122886 0.111837 0.457695
11923 1 0.00379246 0.0997105 0.465635
11924 2 0.00783863 0.105807 0.461887
18569 3 0.0170285 0.119844 0.45338
380 2 0.0716545 0.0944178 0.455595
381 1 0.0682199 0.0987297 0.462013
19323 1 0.0672541 0.100293 0.464391
19322 2 0.0642702 0.102144 0.472124
18568 1 0.0185979 0.126947 0.455692
14903 3 0.0238258 0.137422 0.47206
14904 1 0.0198816 0.140537 0.465369
9627 1 0.047522 0.139849 0.441969
9626 2 0.0467891 0.138268 0.44973
9625 1 0.0553545 0.137163 0.452075
17938 1 0.0580914 0.136377 0.453218
17939 3 0.0647722 0.134445 0.457483
17940 1 0.0666278 0.137684 0.465392
12634 1 0.0666188 0.138965 0.468353
9179 2 0.00559824 0.0262729 0.493766
21466 1 0.00904637 0.0181606 0.500959
9180 1 0.00853209 0.020819 0.499129
13897 1 0.0442709 0.0265646 0.477602
18627 1 0.0434256 0.0295414 0.477232
13898 2 0.0459562 0.018434 0.477601
7434 1 0.0525617 0.0222868 0.498603
21348 1 0.049973 0.0212905 0.500654
13899 1 0.0495003 0.0125005 0.473878
7433 2 0.0609749 0.0236118 0.494547
7432 1 0.0672326 0.0267277 0.490462
8973 1 0.0701574 0.0283978 0.488969
19811 2 0.993835 2.28163e-05 0.494611
19812 1 0.989207 0.0060333 0.497583
8461 1 0.988401 0.00819997 0.498487
8463 1 0.979271 0.0166813 0.504039
8462 2 0.986293 0.0146248 0.501061
17277 1 0.00538056 0.0363453 0.498901
12621 1 0.00620126 0.0440396 0.481188
12620 2 0.0141843 0.0456615 0.482026
12619 1 0.0218061 0.0501071 0.48208
2236 1 0.0248894 0.0519505 0.482004
17276 2 0.00582181 0.0433449 0.503654
17275 1 0.0015738 0.0486704 0.499706
8425 1 0.00323702 0.0437658 0.481024
9178 1 0.0052721 0.033716 0.497566
18625 1 0.0451012 0.0454159 0.474058
18626 2 0.0424653 0.03755 0.477254
2237 2 0.0321222 0.0555039 0.483758
2238 1 0.0398424 0.0585035 0.485104
11506 1 0.0420211 0.0478855 0.497804
11507 2 0.0465828 0.0417797 0.499678
11508 1 0.0538118 0.0428845 0.495945
1176 1 0.0563734 0.0432702 0.494843
3297 1 0.0425732 0.0595056 0.486358
3296 2 0.0498619 0.0611855 0.489554
17663 2 0.0746895 0.0562956 0.483662
8972 2 0.0765651 0.0317496 0.48548
1175 2 0.0621005 0.0441987 0.49158
17664 1 0.06994 0.0510224 0.48751
1174 1 0.0680344 0.0492707 0.488647
3710 2 0.0895401 0.0446152 0.494948
15011 2 0.0770366 0.0563236 0.502833
15012 1 0.0820036 0.0516669 0.499802
3711 1 0.0842184 0.0496709 0.498383
8971 1 0.0812078 0.0350923 0.481021
5082 1 0.0829429 0.0366136 0.47953
3709 1 0.0898914 0.0430931 0.487606
5081 2 0.0880493 0.0402266 0.476746
5080 1 0.0896276 0.0421476 0.484777
14459 2 0.108865 0.0489434 0.473839
14458 1 0.110584 0.0497654 0.480785
10221 1 0.112344 0.0504959 0.483845
10220 2 0.11569 0.0507902 0.490956
2443 1 0.120772 0.0561833 0.498995
10219 1 0.119278 0.0546082 0.497027
2444 2 0.127014 0.0604009 0.502503
11247 1 0.999806 0.0508884 0.498388
8427 1 0.988673 0.0383669 0.478125
8426 2 0.996398 0.0407287 0.478658
11246 2 0.995997 0.0566951 0.494306
4301 2 0.0132964 0.0674384 0.478943
4302 1 0.0149958 0.0668906 0.486114
13413 1 0.0158374 0.0670134 0.489123
948 1 0.000833381 0.0831858 0.498931
947 2 0.00280915 0.0897763 0.502246
13412 2 0.0185852 0.0680141 0.496218
13411 1 0.024628 0.0685183 0.499322
9193 1 0.0277211 0.0692108 0.500849
6983 2 0.0361427 0.0792572 0.480304
6984 1 0.0406854 0.0857542 0.480957
3295 1 0.0537463 0.0675583 0.488409
6879 1 0.0554832 0.0699297 0.488024
6878 2 0.0600399 0.0754528 0.485357
9194 2 0.034331 0.0693863 0.503017
17662 1 0.077959 0.062784 0.482653
5847 1 0.063744 0.0782143 0.475281
6877 1 0.0624748 0.0780493 0.47832
14939 2 0.0700431 0.0756987 0.504528
11795 2 0.0820317 0.0741795 0.480338
11796 1 0.0795235 0.0658071 0.481972
11794 1 0.0803889 0.0814782 0.48134
10533 1 0.0795105 0.0844967 0.48184
14938 1 0.0764755 0.0799022 0.504057
10532 2 0.0770934 0.0919111 0.482429
13863 1 0.0797163 0.0812729 0.503359
13862 2 0.0862248 0.0845771 0.502156
8256 1 0.107967 0.0829461 0.47839
9748 1 0.105349 0.083167 0.476977
8255 2 0.11507 0.0835 0.481068
12282 1 0.0981799 0.0647307 0.479662
3619 1 0.098731 0.0660896 0.482488
3621 1 0.101067 0.0687983 0.496505
3620 2 0.100644 0.070374 0.488443
8805 1 0.10195 0.0678366 0.499531
1685 2 0.107168 0.0890294 0.499747
1684 1 0.112445 0.0853906 0.504471
8254 1 0.122379 0.0826599 0.484885
2445 1 0.133437 0.0634486 0.50428
3795 1 0.136491 0.0649305 0.504909
14123 2 0.176848 0.0879315 0.503151
14124 1 0.182948 0.0845933 0.499099
19338 1 0.941896 0.0758356 0.498358
19337 2 0.94812 0.0704393 0.496432
19336 1 0.955293 0.0681048 0.49819
9138 1 0.958474 0.0671636 0.498552
9137 2 0.965874 0.0652742 0.500333
11245 1 0.995355 0.0642272 0.493951
1119 1 0.995066 0.0674666 0.493709
1118 2 0.996141 0.0746513 0.495465
1117 1 0.99937 0.0809827 0.497654
13639 1 0.975484 0.0620648 0.504451
9136 1 0.973141 0.0627708 0.503361
5364 1 0.00661044 0.094682 0.481759
17214 1 0.00965504 0.0956727 0.483167
17213 2 0.0163831 0.0975854 0.48668
17212 1 0.0241024 0.0997085 0.485973
8880 1 0.026454 0.100773 0.485383
5363 2 0.000693859 0.0928923 0.47799
20513 2 0.0551522 0.0997876 0.489533
8879 2 0.0327104 0.105277 0.483932
15661 1 0.0507892 0.0980048 0.499284
20514 1 0.0518891 0.098414 0.496973
8878 1 0.0378868 0.109259 0.479286
12117 1 0.0401801 0.11064 0.477751
12116 2 0.0459014 0.114652 0.473641
12115 1 0.051789 0.118874 0.477678
16252 1 0.0539658 0.120316 0.479094
20512 1 0.0599934 0.101631 0.483032
13509 1 0.0578152 0.122952 0.502928
16253 2 0.0593068 0.122807 0.484261
10531 1 0.0777799 0.0981943 0.488461
19321 1 0.061479 0.10182 0.480565
8337 1 0.0778142 0.100707 0.490636
8336 2 0.0778828 0.106496 0.49511
8335 1 0.073689 0.103138 0.501675
16629 1 0.0726003 0.101402 0.503805
9921 1 0.0899935 0.115678 0.47487
15516 1 0.0902149 0.119032 0.474801
9920 2 0.0892315 0.107693 0.474759
13715 2 0.0971617 0.0986437 0.489659
13716 1 0.102037 0.0952765 0.493448
1686 1 0.104182 0.0933376 0.495415
9919 1 0.0933246 0.103957 0.480555
13714 1 0.0947876 0.102623 0.483063
2788 1 0.105643 0.113131 0.499718
8298 1 0.107959 0.111075 0.499304
8297 2 0.11512 0.10769 0.498808
2789 2 0.0978991 0.116607 0.501208
8296 1 0.122337 0.104393 0.499647
4120 1 0.12477 0.103153 0.50035
4121 2 0.132871 0.10004 0.502033
1690 1 0.994921 0.120055 0.504409
14902 1 0.0280927 0.134213 0.478438
16398 1 0.0296981 0.132951 0.480637
16397 2 0.034816 0.12873 0.485437
16396 1 0.0376793 0.126767 0.492394
7713 1 0.0392156 0.12661 0.495139
7712 2 0.043669 0.125011 0.500771
16254 1 0.0563567 0.125553 0.490944
12636 1 0.0584998 0.146571 0.476961
6475 1 0.0562059 0.147964 0.477687
6476 2 0.0495772 0.151302 0.481404
15515 3 0.0896748 0.126917 0.473727
12635 3 0.0654096 0.141728 0.474969
15514 1 0.0937406 0.132646 0.477427
6477 1 0.0465063 0.157719 0.479152
12499 1 0.00608913 0.00269966 0.513775
21467 2 0.0105632 0.0112015 0.506606
2981 2 0.0147166 0.0247317 0.520685
2980 1 0.00624246 0.0238106 0.52009
21468 1 0.00759611 0.00497192 0.511971
13614 1 0.00374964 0.0231437 0.519993
2982 1 0.0144013 0.0209728 0.527287
14368 1 0.013967 0.0193351 0.529696
6802 1 0.027017 0.00262623 0.520627
6033 1 0.0249377 0.00061097 0.522418
14369 2 0.0109146 0.0143627 0.53543
21347 2 0.0434597 0.0185752 0.50543
21346 1 0.0387072 0.0141283 0.510905
6804 1 0.0368574 0.0124628 0.512926
6803 2 0.0329321 0.00777766 0.517848
14627 3 0.135556 0.00438176 0.535494
1360 1 0.144823 0.00438643 0.506591
1361 3 0.137998 0.000802699 0.505335
6723 1 0.172182 6.03517e-05 0.519738
13533 1 0.168153 0.0196823 0.528065
1983 1 0.168573 0.0175564 0.52695
1982 3 0.170518 0.0098474 0.523474
13532 3 0.165472 0.0268438 0.532118
1981 1 0.171805 0.00319537 0.520453
13531 1 0.158414 0.0297354 0.534795
5935 1 0.191844 0.00191996 0.530323
12319 1 0.977383 0.000113195 0.523928
6752 2 0.983587 0.00651277 0.51959
6751 1 0.978836 0.00184051 0.522587
13612 1 0.991012 0.01495 0.519799
6753 1 0.989482 0.0126478 0.519579
13613 2 0.995389 0.021525 0.520374
12852 1 0.0205309 0.0427206 0.517775
12851 2 0.0152817 0.0451411 0.522589
12850 1 0.0122443 0.0466985 0.528805
8736 1 0.00373022 0.0594161 0.518457
11293 1 0.00617939 0.0607471 0.518505
2268 1 0.011061 0.0472704 0.531441
13219 1 0.0353391 0.0502079 0.520091
13221 1 0.0497988 0.0556937 0.516134
13264 1 0.0522909 0.0566402 0.514152
13265 2 0.059683 0.0573301 0.508783
13220 2 0.042616 0.0531342 0.519362
13266 1 0.0681764 0.0561063 0.507504
15010 1 0.0710972 0.0559193 0.506288
5882 2 0.0667169 0.0309394 0.533668
1077 1 0.0688937 0.0343471 0.506953
7557 1 0.0644894 0.0587317 0.532051
1075 1 0.0645176 0.0325295 0.521778
5883 1 0.0648612 0.0314057 0.525166
1076 2 0.0650208 0.0349776 0.514119
7556 2 0.0701325 0.0531823 0.535141
1288 1 0.0627498 0.0614999 0.530614
6942 1 0.101097 0.0356119 0.535221
6940 1 0.0982601 0.0422012 0.522082
6941 2 0.0981454 0.0356981 0.528496
4453 1 0.0982309 0.0448064 0.520202
4454 2 0.0982919 0.0499631 0.513759
10581 1 0.111457 0.047753 0.524724
8803 1 0.102581 0.0582032 0.509026
4455 1 0.101824 0.0562115 0.510649
10580 2 0.117743 0.0441254 0.522097
10579 1 0.123343 0.0387702 0.526707
6700 1 0.125289 0.0369804 0.528703
1417 1 0.134866 0.060469 0.527249
1418 3 0.142018 0.0567689 0.529393
1419 1 0.148611 0.0608149 0.526354
6701 3 0.129923 0.0340782 0.53445
6702 1 0.137453 0.0343267 0.536187
17284 1 0.155741 0.0312604 0.535854
5815 1 0.93919 0.046123 0.53559
5816 2 0.946539 0.0467288 0.534102
8735 2 0.997015 0.0562276 0.518026
8734 1 0.990537 0.0584245 0.514126
13641 1 0.98818 0.0592416 0.512215
13640 2 0.981917 0.0602017 0.508035
11294 2 0.0115939 0.067281 0.519499
11295 1 0.013347 0.0699399 0.525829
3279 1 0.0136712 0.0713672 0.528657
3278 2 0.0157437 0.0739941 0.535504
9168 1 0.0359402 0.0794351 0.525025
1289 2 0.0580572 0.068332 0.527705
20483 2 0.0525288 0.0757397 0.508116
20484 1 0.0599716 0.0754593 0.507419
9195 1 0.0415854 0.0712514 0.505369
20482 1 0.0448181 0.0723777 0.506524
1290 1 0.050994 0.0718461 0.526878
9166 1 0.04836 0.0727743 0.527264
9167 2 0.0417968 0.0754742 0.528501
12361 1 0.0502407 0.0923788 0.51637
12363 1 0.0586464 0.0873656 0.528762
12362 2 0.054581 0.0906673 0.522626
14940 1 0.0634765 0.0755919 0.507132
2283 1 0.0799963 0.0663201 0.512772
2282 2 0.082162 0.068818 0.519936
2281 1 0.0872189 0.0744173 0.519337
3346 1 0.0844503 0.0881839 0.531049
4536 1 0.0870936 0.0878343 0.532942
13861 1 0.0891419 0.0916506 0.505263
9421 1 0.0900742 0.0764459 0.519352
3347 2 0.0777874 0.0872043 0.526435
16627 1 0.0730639 0.0921668 0.51734
3348 1 0.0744222 0.0907552 0.519434
14496 1 0.101265 0.0681432 0.528392
14495 2 0.106738 0.0685024 0.534433
2670 1 0.114276 0.0839117 0.505954
9422 2 0.09755 0.0797291 0.519631
8804 2 0.104694 0.0641711 0.505436
18630 1 0.103254 0.0881994 0.523021
9423 1 0.101314 0.0860528 0.522479
2669 2 0.118905 0.079408 0.509582
3794 2 0.142861 0.0690132 0.505643
3793 1 0.148901 0.0671187 0.511052
2971 1 0.132638 0.0623367 0.5262
2972 2 0.126561 0.0666213 0.522575
2973 1 0.122844 0.0712007 0.516777
2668 1 0.121667 0.0732575 0.514832
17856 1 0.151313 0.0666394 0.51359
17854 1 0.15084 0.0621713 0.524904
17855 2 0.156679 0.0654972 0.520536
1459 1 0.964835 0.0813496 0.525704
4110 1 0.967002 0.0809601 0.527701
1460 2 0.960611 0.0828057 0.518818
1461 1 0.953902 0.0858219 0.515999
15487 1 0.951496 0.086299 0.514776
15489 1 0.940121 0.09209 0.511866
15488 2 0.945037 0.0869425 0.512225
4109 2 0.973904 0.080448 0.533478
946 1 0.00625786 0.0964194 0.506138
12210 1 0.00806611 0.0982005 0.506988
12209 2 0.013174 0.104036 0.508127
12208 1 0.0199824 0.105454 0.509944
43 1 0.00468202 0.117136 0.520596
17151 1 0.02326 0.106161 0.511177
44 2 0.0101742 0.115005 0.526463
45 1 0.0165162 0.112513 0.530985
9273 1 0.0195658 0.111437 0.532528
1692 1 0.003108 0.117472 0.518681
17150 2 0.0302301 0.108509 0.513515
9272 2 0.0266206 0.108023 0.535645
15663 1 0.0491228 0.0930017 0.514219
15662 2 0.0472139 0.0970256 0.507023
17149 1 0.0361965 0.108648 0.518866
8716 1 0.0390132 0.109214 0.520584
8717 2 0.0449159 0.112498 0.525559
8718 1 0.0504279 0.117442 0.527743
372 1 0.0530677 0.118817 0.528714
371 2 0.0591626 0.121099 0.531908
13508 2 0.0623562 0.120076 0.508682
16628 2 0.0691075 0.0982365 0.511292
3655 1 0.0897898 0.0941239 0.50647
11968 1 0.0707291 0.120925 0.515054
13507 1 0.0682727 0.120654 0.513215
11970 1 0.0848066 0.119931 0.521896
17074 1 0.0868745 0.119008 0.524091
11969 2 0.0774907 0.121696 0.518608
370 1 0.0636847 0.11378 0.533267
20179 1 0.0652926 0.111365 0.534152
20180 2 0.069364 0.105644 0.536219
20181 1 0.0748393 0.100649 0.535611
18629 2 0.109106 0.0931897 0.524636
17075 2 0.0909418 0.117473 0.530408
3656 2 0.0909443 0.10194 0.509851
3657 1 0.0930012 0.108443 0.506329
2790 1 0.0941658 0.11065 0.505127
18628 1 0.114247 0.0978041 0.527759
18880 1 0.116951 0.0994231 0.528666
18881 2 0.123844 0.103504 0.531907
18882 1 0.132639 0.103694 0.533771
3928 1 0.135795 0.103741 0.534833
4122 1 0.136349 0.0965047 0.507017
3832 1 0.138009 0.0953908 0.509298
3833 2 0.143281 0.0930259 0.514166
3929 2 0.143509 0.101489 0.536472
3834 1 0.151339 0.0955714 0.513494
6448 1 0.154592 0.0961045 0.512834
6449 3 0.163229 0.098239 0.511711
6450 1 0.168199 0.0945197 0.50772
14122 1 0.170094 0.0926366 0.506151
21422 2 0.93661 0.0935372 0.535764
21423 1 0.930941 0.0983277 0.533786
2530 1 0.929082 0.100163 0.532919
182 2 0.920401 0.120989 0.518323
2531 2 0.923868 0.107235 0.530787
2532 1 0.92206 0.112808 0.526246
183 1 0.920863 0.11533 0.524227
1691 2 0.99769 0.118242 0.511845
21074 2 0.00386515 0.138595 0.523443
21075 1 0.004743 0.134975 0.517134
21073 1 0.00729047 0.143027 0.530616
7711 1 0.0446125 0.128366 0.507091
17547 1 0.045011 0.129739 0.509551
17546 2 0.0470881 0.133162 0.5157
17545 1 0.0419984 0.13929 0.516697
19581 1 0.0400515 0.141976 0.517392
19580 2 0.0345938 0.147689 0.517223
19579 1 0.0329798 0.150855 0.524527
8508 1 0.0329843 0.152004 0.527383
181 1 0.917769 0.123549 0.510883
8507 2 0.0320716 0.154691 0.534552
14276 2 0.0284278 0.00190091 0.548169
14370 1 0.00926871 0.0137329 0.543164
6279 1 0.00917675 0.0136733 0.546122
4580 2 0.0219395 0.0273874 0.558941
6278 2 0.00874576 0.0137226 0.554005
6277 1 0.0100134 0.0150046 0.56155
4557 1 0.00984153 0.0153154 0.564029
4579 1 0.0279856 0.0228625 0.560401
20608 1 0.0301723 0.0210095 0.561299
11833 1 0.0301461 0.010394 0.542054
14275 1 0.0301397 0.00793832 0.543792
4581 1 0.0176262 0.0300225 0.553384
8815 1 0.0576289 0.010401 0.553221
8816 2 0.0536699 0.00819438 0.546867
6271 1 0.0481531 0.00245152 0.53899
7806 1 0.0587198 0.0118615 0.555727
11834 2 0.0306837 0.0164793 0.536632
11835 1 0.0351269 0.0216693 0.53983
5055 1 0.0369212 0.0240516 0.541337
2644 1 0.0538388 0.0250118 0.565887
7804 1 0.0555504 0.0228533 0.564543
5054 2 0.0409106 0.0298377 0.544431
20609 2 0.0347625 0.0158231 0.56509
8817 1 0.0498253 0.00389297 0.54119
7805 2 0.0607688 0.0170207 0.562533
21117 1 0.0844032 0.0164268 0.55331
4140 1 0.0856145 0.0142367 0.553288
4138 1 0.0903923 0.00274611 0.556133
4139 3 0.0890758 0.00786928 0.552132
21116 2 0.0814601 0.0237767 0.552734
21115 1 0.08084 0.0306636 0.555147
11237 3 0.119444 0.0123281 0.542635
5586 1 0.109888 0.0288408 0.553225
15828 1 0.108961 0.0303571 0.551173
11238 1 0.112593 0.016559 0.540881
5585 3 0.111125 0.0250803 0.559715
5584 1 0.104842 0.0287575 0.562803
7005 1 0.10207 0.0297862 0.564593
11236 1 0.121589 0.00539464 0.539963
12123 1 0.134227 0.000543527 0.559969
5677 1 0.136894 0.000957715 0.561516
14628 1 0.137767 0.0102689 0.540791
9532 1 0.138598 0.0121536 0.542429
9533 3 0.14217 0.0175635 0.547976
9534 1 0.146123 0.0201488 0.553391
12496 1 0.148084 0.0216739 0.556186
12497 3 0.15101 0.0248729 0.562072
5678 3 0.143329 0.00342032 0.563904
18824 3 0.172926 0.0200068 0.556493
18825 1 0.174942 0.015016 0.551186
18525 1 0.175709 0.012497 0.549616
18823 1 0.170896 0.0283028 0.55781
18524 3 0.177788 0.00544264 0.545294
21228 1 0.211344 0.00298344 0.566863
7662 1 0.186997 0.00174735 0.545684
18523 1 0.18445 0.00281864 0.545641
12345 1 0.210242 5.6887e-05 0.564257
681 1 0.235398 0.00620905 0.560114
5970 1 0.23551 0.00600411 0.55755
5968 1 0.239225 0.00668399 0.542599
5969 3 0.237099 0.00454746 0.549542
20791 1 0.923328 0.0251752 0.560118
20792 2 0.925871 0.0205124 0.565303
4035 1 0.922324 0.0275506 0.558357
16979 2 0.96895 0.0240962 0.548035
16978 1 0.964441 0.0308101 0.547802
4883 2 0.961708 0.00858566 0.56654
4882 1 0.967239 0.0138778 0.567888
4884 1 0.959098 0.00124049 0.567018
16879 1 0.994668 0.0284268 0.55941
16980 1 0.970576 0.0163953 0.547332
7517 2 0.97034 0.0042172 0.546838
7516 1 0.971002 0.0135831 0.54716
16880 2 0.991169 0.023763 0.563725
9403 1 0.996691 0.0304229 0.557429
7518 1 0.971385 0.000882407 0.538532
16881 1 0.984036 0.0214333 0.565126
11467 1 0.981878 0.0204352 0.566007
2267 2 0.00831012 0.0474206 0.538656
2266 1 0.00503936 0.0421654 0.544439
9405 1 0.00395829 0.0405156 0.546737
9404 2 0.000930961 0.0348221 0.55219
14828 2 0.00633274 0.0559379 0.556584
10848 1 0.0224333 0.0532039 0.538995
14829 1 0.0129289 0.0534639 0.557503
9922 1 0.0162351 0.0517189 0.55756
9923 2 0.0235336 0.0488981 0.557738
9924 1 0.0284092 0.0448038 0.563337
13180 1 0.030066 0.0433658 0.565401
19587 1 0.0526007 0.0562713 0.542487
10847 2 0.0315764 0.0546297 0.538351
19586 2 0.0493703 0.0499578 0.541112
19585 1 0.0419975 0.0525042 0.539197
10846 1 0.0387461 0.0530176 0.538753
5053 1 0.0490073 0.0321157 0.547912
17803 1 0.0516721 0.0325997 0.548811
17804 2 0.0584915 0.0356032 0.550859
8385 1 0.0440878 0.0591771 0.561093
15630 1 0.0459491 0.0568474 0.56207
15629 2 0.0499655 0.0514921 0.565349
7925 2 0.0895886 0.052089 0.539414
7926 1 0.0799601 0.0535254 0.537423
7555 1 0.0773615 0.0535274 0.536771
5881 1 0.0640208 0.0335566 0.541747
17805 1 0.0628066 0.0338407 0.544105
4456 1 0.0800969 0.0330445 0.555744
4457 2 0.0781438 0.0409525 0.556873
7924 1 0.0887535 0.0585668 0.543804
4458 1 0.0753791 0.0478342 0.558463
13686 1 0.0884525 0.0610495 0.545191
2940 1 0.0745516 0.0509766 0.559109
2939 2 0.073552 0.0593675 0.559791
15826 1 0.102248 0.0358785 0.538012
15827 3 0.106353 0.0346182 0.544745
2591 2 0.119166 0.0586329 0.54502
7004 2 0.0956167 0.0335149 0.567186
2590 1 0.124955 0.0548109 0.547595
17286 1 0.140722 0.0349892 0.536738
17285 3 0.148032 0.0357742 0.537613
13343 3 0.131108 0.033141 0.563898
13344 1 0.130673 0.03933 0.558699
6499 1 0.130678 0.0415544 0.557186
6500 3 0.132196 0.0473368 0.552719
6501 1 0.126484 0.0530488 0.548597
8853 1 0.149551 0.0497577 0.563573
8349 1 0.148458 0.0498489 0.56618
2700 1 0.170261 0.0313089 0.558062
8852 3 0.153608 0.0502385 0.557639
2698 1 0.16173 0.0428521 0.560179
2699 3 0.16751 0.0383175 0.560172
8851 1 0.159518 0.0454905 0.559973
1889 2 0.287517 0.0402261 0.561046
1888 1 0.287791 0.0449884 0.554539
1890 1 0.288573 0.0340734 0.566442
4033 1 0.924515 0.0385177 0.548194
4034 2 0.919953 0.0330881 0.553439
18027 1 0.925392 0.0402694 0.546296
18026 2 0.929772 0.0441175 0.541602
18025 1 0.936599 0.0454841 0.537049
5817 1 0.950763 0.0432249 0.537882
8416 1 0.952602 0.04137 0.539539
8418 1 0.962667 0.0332823 0.547531
8417 2 0.957797 0.038464 0.544556
17440 1 0.957869 0.0609413 0.558908
17441 2 0.965158 0.06034 0.562033
6707 2 0.959624 0.0314952 0.565919
6708 1 0.966392 0.0344376 0.5645
9595 1 0.968732 0.0356763 0.564129
14827 1 0.999372 0.0534655 0.556003
21102 1 0.996047 0.0532907 0.55516
21101 2 0.987422 0.0525275 0.554818
21100 1 0.982155 0.0472285 0.557589
9597 1 0.980505 0.0455062 0.558798
17442 1 0.970798 0.0607061 0.566925
9596 2 0.975215 0.0393017 0.561987
3277 1 0.0199075 0.0746254 0.543062
17668 1 0.0215795 0.0750081 0.545308
17669 2 0.0262867 0.0756895 0.550378
8572 1 0.00445473 0.0743595 0.561067
138 1 0.00660509 0.0741342 0.563361
7879 1 0.0357193 0.0901984 0.557077
15475 1 0.033113 0.0914758 0.556083
7880 2 0.0419646 0.0869172 0.559617
8384 2 0.0391014 0.064846 0.55827
8383 1 0.0336915 0.070158 0.555652
17670 1 0.0315747 0.0718766 0.554422
4203 1 0.049099 0.080302 0.562294
7881 1 0.0469138 0.0822302 0.561755
4163 2 0.0581192 0.0847906 0.541039
9213 1 0.047628 0.0910878 0.539685
4164 1 0.0504088 0.0893135 0.54004
4202 2 0.0557335 0.0766305 0.564733
5047 1 0.0665078 0.0833669 0.546747
5048 2 0.0741393 0.0818837 0.550785
4162 1 0.0643832 0.0838734 0.545192
13685 2 0.0873403 0.0685046 0.547693
13684 1 0.0810995 0.0729561 0.549821
5049 1 0.0792894 0.0751191 0.550265
2938 1 0.0753001 0.0652103 0.564499
15784 1 0.075793 0.067737 0.566768
14494 1 0.112283 0.0653314 0.538985
2592 1 0.114232 0.0635324 0.540821
4535 2 0.0928774 0.0872175 0.538931
4534 1 0.0934262 0.0861375 0.547638
14316 1 0.0936323 0.0858108 0.550768
14315 2 0.0933477 0.0853196 0.559369
9184 1 0.114885 0.0896407 0.550157
9185 2 0.116503 0.0851261 0.544258
14314 1 0.0962718 0.0823548 0.565913
9251 2 0.119195 0.0730711 0.564016
18283 1 0.113233 0.0914526 0.552512
9186 1 0.123058 0.0821601 0.542027
1573 1 0.125554 0.0809976 0.541275
1574 2 0.132644 0.0767552 0.539062
16697 3 0.143565 0.0654967 0.549196
16698 1 0.138861 0.0705935 0.544187
1575 1 0.137405 0.0723415 0.542431
10304 2 0.132683 0.0850533 0.56168
9252 1 0.124164 0.0783824 0.563074
10305 1 0.127045 0.0806405 0.562875
16696 1 0.145787 0.0663496 0.556814
10303 1 0.13959 0.0879323 0.557883
28 1 0.142698 0.0895586 0.556484
21421 1 0.940272 0.0889683 0.540999
7200 1 0.94124 0.0871106 0.543336
7199 2 0.944303 0.0809274 0.548882
18409 1 0.955017 0.0619224 0.558198
18410 2 0.947553 0.0630686 0.55524
7198 1 0.946091 0.0731213 0.551832
18411 1 0.946426 0.0701869 0.553133
4108 1 0.980914 0.0830008 0.53729
10135 1 0.983329 0.0840386 0.538497
8573 2 0.998411 0.0755729 0.556012
8574 1 0.995386 0.0808789 0.549221
10137 1 0.993962 0.0827849 0.547459
10136 2 0.98958 0.0868234 0.543255
15476 2 0.0255486 0.0948403 0.55457
15477 1 0.0185454 0.0972557 0.551592
3465 1 0.0162761 0.0982943 0.550727
3464 2 0.00967791 0.102987 0.547356
3463 1 0.00578518 0.109758 0.545999
6543 1 0.00419078 0.112078 0.545737
9271 1 0.0313599 0.101756 0.537301
9211 1 0.0337785 0.100087 0.537971
9212 2 0.0412685 0.0958146 0.538054
13014 1 0.0904784 0.104172 0.550743
13013 2 0.0834418 0.101677 0.5552
13012 1 0.0783696 0.0986877 0.559775
13800 1 0.0763761 0.0980385 0.561545
13799 2 0.0702808 0.0978996 0.566506
17076 1 0.0939084 0.113292 0.536486
16464 1 0.0959737 0.112138 0.539014
16462 1 0.0926867 0.105501 0.549141
16463 2 0.0988535 0.109255 0.545846
18284 2 0.109878 0.0955219 0.557888
18285 1 0.106386 0.0978846 0.564563
16765 1 0.105174 0.09828 0.566552
3930 1 0.145817 0.0986337 0.542554
30 1 0.146947 0.0973524 0.54527
29 2 0.149018 0.0931217 0.552559
6542 2 0.999146 0.119417 0.544876
2515 1 0.0396817 0.130722 0.536875
2516 2 0.0452602 0.135825 0.541288
2517 1 0.0502814 0.135911 0.548365
14815 1 0.0526202 0.135914 0.550888
14816 2 0.0576207 0.136839 0.558954
14817 1 0.0587896 0.140347 0.565668
11156 2 0.0348257 0.152664 0.553376
5046 1 0.0391968 0.150904 0.561152
5045 2 0.0432251 0.15001 0.567934
11157 1 0.0375955 0.15143 0.559233
8506 1 0.0325284 0.15323 0.541957
11155 1 0.0328705 0.153019 0.545141
9160 1 0.042433 0.132953 0.56536
7710 1 0.0828173 0.125459 0.566939
6541 1 0.995938 0.125217 0.549792
7915 1 0.994748 0.127631 0.551748
7917 1 0.986809 0.133736 0.562191
7916 2 0.992254 0.132595 0.556805
4556 2 0.00946815 0.0173168 0.571891
4555 1 0.0137978 0.0211409 0.578073
12079 1 0.0154053 0.0223743 0.580473
12080 2 0.0189604 0.0254729 0.587261
12081 1 0.022084 0.030786 0.590776
20674 1 0.0569096 0.0142783 0.597504
19714 1 0.0511224 0.0297941 0.591739
19716 1 0.0549472 0.0162486 0.596015
3290 2 0.0466852 0.00369652 0.569867
19715 2 0.0517946 0.0223572 0.592555
3291 1 0.0405694 0.00741278 0.569346
20610 1 0.038282 0.00947901 0.568829
2645 2 0.0503907 0.0301299 0.57101
5057 3 0.0804926 0.0103224 0.598398
15564 1 0.0908518 0.0142325 0.598048
5056 1 0.0882013 0.0130161 0.598243
1510 1 0.111808 0.00313773 0.57829
3523 1 0.110892 0.00622755 0.578867
3524 3 0.1085 0.0140289 0.578389
3525 1 0.111439 0.0216295 0.579333
6924 1 0.112494 0.0245013 0.579478
15563 3 0.0991442 0.0152051 0.598314
11204 3 0.130848 0.0164942 0.572532
11203 1 0.130059 0.0233761 0.569737
11205 1 0.133932 0.0122603 0.578649
13342 1 0.130803 0.0262859 0.568512
18621 1 0.134628 0.0106844 0.581287
17618 3 0.124539 0.0223711 0.599358
16503 1 0.133327 0.0258046 0.594536
17617 1 0.130919 0.0249012 0.596056
18620 3 0.136454 0.00813442 0.58787
16502 3 0.13953 0.0279681 0.591912
10354 1 0.151126 0.00497687 0.571035
18619 1 0.132698 0.00471123 0.593389
5679 1 0.149364 0.00491212 0.569205
1080 1 0.130816 0.002873 0.595506
1845 1 0.163398 0.0039443 0.598719
18604 1 0.161586 0.00691088 0.599467
10355 3 0.156193 0.00576572 0.576317
10356 1 0.162391 0.00896195 0.579218
1757 3 0.170534 0.0142989 0.582396
3909 1 0.178301 0.0120877 0.590594
12498 1 0.152524 0.0283605 0.569026
1758 1 0.175597 0.012603 0.588211
11715 1 0.154066 0.0292747 0.571077
1756 1 0.165016 0.0102979 0.57972
11192 3 0.205108 0.0286731 0.597809
3908 3 0.18368 0.0132084 0.59676
10685 3 0.20068 2.09642e-06 0.592311
680 3 0.234088 0.00694638 0.568373
679 1 0.238805 0.0122636 0.572279
17721 1 0.241219 0.0144041 0.574142
21227 3 0.212826 0.00845134 0.572238
21226 1 0.215036 0.011308 0.579404
18682 1 0.215975 0.0128202 0.581999
18683 3 0.219641 0.0157862 0.588345
18684 1 0.22525 0.0196393 0.592991
18412 1 0.227193 0.0210604 0.594593
13487 3 0.234127 0.00121118 0.597031
18413 3 0.232753 0.0250904 0.599249
17720 2 0.245282 0.0201038 0.577778
17719 1 0.253439 0.0214659 0.575941
9520 1 0.256489 0.0222736 0.575584
9521 2 0.263961 0.0217445 0.573692
9522 1 0.271524 0.0219003 0.572758
20132 2 0.289691 0.025296 0.573277
17953 1 0.275541 0.00591739 0.587627
17954 2 0.278521 0.0117254 0.583523
20131 1 0.285623 0.0192715 0.576634
17955 1 0.283653 0.0165109 0.578086
12783 1 0.274021 0.00339297 0.588801
20793 1 0.9332 0.0203607 0.568915
5262 1 0.935958 0.0207197 0.56995
5261 2 0.94226 0.0219854 0.571611
5260 1 0.949118 0.0264285 0.568988
6706 1 0.952164 0.0277067 0.568444
11469 1 0.969427 0.0157859 0.56873
4776 1 0.988458 0.00416027 0.571857
2209 1 0.987088 0.00269951 0.56966
7116 1 0.989679 0.0151602 0.598472
7115 2 0.995936 0.0153465 0.595292
4775 2 0.99179 0.00680196 0.578296
4774 1 0.994042 0.0110615 0.584599
7114 1 0.994538 0.0119507 0.58737
11468 2 0.975975 0.0190743 0.570964
16620 1 0.023297 0.0329744 0.591917
16619 2 0.0268459 0.03883 0.596911
15628 1 0.0565303 0.0493569 0.570009
18159 1 0.0588198 0.048322 0.57185
2646 1 0.0436192 0.0330625 0.571199
13181 2 0.0341877 0.0389829 0.570542
13182 1 0.0410794 0.0346863 0.571093
5384 2 0.0410781 0.0614319 0.582629
5383 1 0.0414905 0.0567622 0.589623
6129 1 0.0513536 0.032941 0.591341
6128 2 0.0510852 0.0408501 0.592897
18158 2 0.0662823 0.0450212 0.575079
18157 1 0.0729983 0.0447995 0.576772
20779 1 0.0758413 0.0443317 0.577318