ITEM: TIMESTEP
50000000
ITEM: NUMBER OF ENTRIES
2628
ITEM: BOX BOUNDS pp pp pp
0 50
0 50
0 50
ITEM: ENTRIES c_binfo[1] c_binfo[2] c_binfo[3] 
1 3249 10911 
2 3248 3249 
2 3247 3248 
3 10910 10911 
3 14254 14255 
3 14255 14256 
3 5126 5127 
3 5125 5126 
1 5125 19914 
3 19913 19914 
3 9707 9708 
3 9706 9707 
3 9067 9068 
1 9067 9291 
3 9068 9069 
3 5503 5504 
1 5503 6100 
2 755 756 
2 754 755 
1 754 6102 
3 6101 6102 
3 691 692 
3 692 693 
2 19772 19773 
3 3004 3005 
1 3004 19773 
3 6100 6101 
2 8827 8828 
2 1267 1268 
1 1267 8827 
2 1268 1269 
3 5504 5505 
3 3976 3977 
1 3976 5505 
3 3977 3978 
1 3978 10522 
3 10522 10523 
3 3005 3006 
3 2906 2907 
3 2905 2906 
1 2905 3825 
1 693 2907 
3 11786 11787 
3 19912 19913 
3 11785 11786 
1 11785 19912 
1 3006 8829 
2 8828 8829 
1 11787 17904 
1 1269 4642 
2 4643 4644 
2 4642 4643 
1 4644 15726 
3 5927 5928 
3 3293 3294 
1 3294 5928 
3 3292 3293 
1 3292 10909 
3 10909 10910 
3 5009 5010 
3 10523 10524 
1 5010 10524 
1 1083 4285 
3 1082 1083 
3 5008 5009 
1 5008 20173 
3 20173 20174 
3 3824 3825 
3 3823 3824 
1 3823 14256 
3 9130 9131 
1 5127 9130 
3 12143 12144 
3 12142 12143 
3 11503 11504 
1 11503 12142 
1 12144 19993 
3 19993 19994 
3 11504 11505 
3 14606 14607 
3 14605 14606 
1 14605 14832 
1 6 14607 
3 5 6 
3 4 5 
3 19486 19487 
3 19487 19488 
3 15725 15726 
3 15724 15725 
1 15724 19488 
2 8890 8891 
1 8890 19486 
2 10574 10575 
3 19622 19623 
1 10575 19621 
3 19621 19622 
2 4264 4265 
1 4264 4983 
2 4981 4982 
2 4982 4983 
2 18319 18320 
2 19229 19230 
2 19228 19229 
1 13650 19230 
2 19771 19772 
1 7047 19771 
3 7046 7047 
3 7045 7046 
1 7045 16873 
3 8990 8991 
3 8989 8990 
1 804 8989 
3 13649 13650 
3 803 804 
3 802 803 
3 13648 13649 
3 700 701 
1 700 802 
1 11154 13648 
3 11152 11153 
3 6847 6848 
1 6847 11152 
3 11153 11154 
3 701 702 
3 16873 16874 
3 16874 16875 
3 427 428 
1 427 702 
3 18202 18203 
1 10527 18202 
3 17902 17903 
3 10525 10526 
1 10525 17902 
3 10526 10527 
3 18203 18204 
3 17903 17904 
3 5926 5927 
1 5926 6306 
3 16760 16761 
3 16759 16760 
1 4287 16759 
3 4286 4287 
3 4285 4286 
3 6848 6849 
3 2891 2892 
1 2892 6849 
3 2890 2891 
1 2890 6936 
3 6304 6305 
1 6304 14080 
3 14080 14081 
3 1081 1082 
1 1081 3187 
3 19994 19995 
3 3187 3188 
3 50 51 
3 49 50 
1 49 19995 
3 3188 3189 
3 17465 17466 
3 4397 4398 
3 17464 17465 
3 10408 10409 
1 10408 17464 
3 10409 10410 
1 4398 10410 
3 1715 1716 
2 10565 10566 
3 3805 3806 
3 3806 3807 
2 10564 10565 
2 8606 8607 
2 8605 8606 
1 8605 10564 
2 2167 2168 
1 2167 10594 
2 2168 2169 
2 16625 16626 
2 12443 12444 
2 12442 12443 
2 17434 17435 
3 11047 11048 
1 11049 19228 
3 11048 11049 
3 6488 6489 
1 6489 9169 
3 9169 9170 
3 6487 6488 
1 6487 13057 
3 13057 13058 
3 14152 14153 
3 14153 14154 
3 15292 15293 
3 9170 9171 
3 15293 15294 
3 5107 5108 
1 5107 14506 
3 14506 14507 
3 14507 14508 
1 9171 14508 
3 13444 13445 
3 6898 6899 
1 6898 13444 
3 6899 6900 
3 13445 13446 
1 13446 21412 
3 428 429 
1 429 1704 
3 1703 1704 
3 1702 1703 
1 1702 18238 
3 18238 18239 
3 18239 18240 
1 7671 18240 
3 9208 9209 
1 9208 16875 
1 9210 19324 
3 9209 9210 
3 19324 19325 
3 18755 18756 
3 18754 18755 
3 13252 13253 
1 13252 18754 
3 13253 13254 
3 11453 11454 
3 11452 11453 
1 12849 13950 
3 12848 12849 
3 13949 13950 
3 13948 13949 
1 13948 18663 
3 5108 5109 
3 5756 5757 
1 5109 5757 
3 5755 5756 
1 15294 16761 
3 21412 21413 
3 21413 21414 
1 3222 7170 
3 14081 14082 
1 11097 18204 
3 7600 7601 
3 11096 11097 
1 2502 6999 
3 11095 11096 
3 6997 6998 
1 6997 11095 
3 6998 6999 
3 19325 19326 
1 7602 12612 
3 7601 7602 
3 10277 10278 
3 12611 12612 
3 10276 10277 
1 10276 20088 
3 16520 16521 
3 16519 16520 
3 1714 1715 
1 1714 16519 
1 11454 16521 
1 4275 13254 
3 12610 12611 
1 10278 12610 
3 20087 20088 
1 3807 5640 
3 18614 18615 
3 20086 20087 
3 18613 18614 
1 18613 20086 
2 5639 5640 
1 1383 5638 
2 5638 5639 
2 18662 18663 
2 19412 19413 
2 19411 19412 
2 18661 18662 
1 18661 19411 
1 2169 19353 
2 9296 9297 
2 9295 9296 
2 19352 19353 
2 19351 19352 
1 19351 19413 
1 16626 19992 
3 19990 19991 
3 19991 19992 
2 7157 7158 
3 1552 1553 
1 1552 7158 
2 7156 7157 
3 16391 16392 
1 1554 15700 
3 15700 15701 
3 15701 15702 
3 1553 1554 
3 2206 2207 
1 2206 15702 
1 8889 16392 
3 13058 13059 
1 13059 20550 
3 20549 20550 
2 20884 20885 
2 20885 20886 
3 12953 12954 
3 12952 12953 
1 12952 18804 
2 9242 9243 
2 9241 9242 
1 9241 19938 
3 19937 19938 
3 19936 19937 
3 18803 18804 
3 16390 16391 
1 11331 18802 
3 18802 18803 
3 11329 11330 
1 11329 16390 
3 4652 4653 
1 2208 4653 
3 2207 2208 
3 11330 11331 
3 3821 3822 
3 20548 20549 
1 18096 20548 
3 3820 3821 
1 3820 18094 
3 18095 18096 
3 18094 18095 
3 6392 6393 
3 1549 1550 
1 1549 6393 
3 1550 1551 
3 6391 6392 
1 6391 20886 
3 7138 7139 
1 4908 7138 
1 10047 12847 
3 12847 12848 
3 10046 10047 
3 11470 11471 
1 11470 14154 
3 7139 7140 
3 11471 11472 
1 7140 11472 
3 13753 13754 
3 14608 14609 
3 4651 4652 
1 4651 16029 
3 16028 16029 
3 13754 13755 
3 7168 7169 
1 7168 13755 
3 5789 5790 
3 7169 7170 
3 5788 5789 
1 5788 16027 
3 16027 16028 
3 7669 7670 
1 7669 14484 
3 9172 9173 
1 9172 14482 
3 2705 2706 
3 14483 14484 
3 2704 2705 
1 2704 14608 
3 14482 14483 
3 7670 7671 
1 10293 17550 
3 4274 4275 
3 4273 4274 
1 4273 12414 
3 12413 12414 
3 17549 17550 
3 17548 17549 
1 1551 17548 
3 16457 16458 
3 12997 12998 
1 12997 13321 
3 4907 4908 
3 1604 1605 
1 1605 10045 
3 10045 10046 
2 13321 13322 
3 1603 1604 
1 1603 16458 
2 2399 2400 
3 4906 4907 
1 2400 4906 
2 8887 8888 
2 8888 8889 
3 8411 8412 
3 8410 8411 
3 493 494 
1 493 8412 
3 14609 14610 
3 4181 4182 
3 1688 1689 
3 4180 4181 
3 1687 1688 
1 1687 4180 
1 1689 3822 
3 10292 10293 
3 5825 5826 
3 5824 5825 
1 5824 17136 
3 494 495 
3 17134 17135 
3 17135 17136 
1 495 17134 
3 12998 12999 
2 7354 7355 
1 7354 8140 
3 8140 8141 
3 8141 8142 
1 8142 18084 
3 18083 18084 
3 18082 18083 
3 9131 9132 
1 7761 8365 
2 8365 8366 
2 8366 8367 
3 10648 10649 
1 8367 10650 
3 10649 10650 
2 7760 7761 
3 1069 1070 
1 8007 8754 
2 8006 8007 
3 1070 1071 
2 8005 8006 
1 1071 8005 
3 12481 12482 
1 12481 18249 
3 18248 18249 
3 18247 18248 
1 4293 18247 
3 20174 20175 
3 12482 12483 
1 11784 12483 
3 11783 11784 
3 11782 11783 
1 11782 15231 
3 1409 1410 
3 1408 1409 
1 1408 4759 
3 4759 4760 
3 4760 4761 
2 4967 4968 
2 4966 4967 
1 4966 9951 
1 1947 4291 
3 4291 4292 
3 4292 4293 
3 6305 6306 
3 403 404 
1 403 3189 
3 6934 6935 
1 6934 8604 
3 6935 6936 
3 8603 8604 
3 1946 1947 
3 1945 1946 
3 8602 8603 
1 4761 8602 
2 1183 1184 
1 1183 14479 
3 14960 14961 
3 16402 16403 
3 16403 16404 
2 9950 9951 
3 14479 14480 
3 14480 14481 
1 13629 14481 
3 13628 13629 
3 13627 13628 
2 9949 9950 
1 9642 16404 
2 9641 9642 
1 5631 9640 
2 9640 9641 
3 5630 5631 
3 17516 17517 
3 14176 14177 
3 17515 17516 
1 14178 17515 
3 14177 14178 
2 13244 13245 
1 13245 14176 
3 3221 3222 
3 3220 3221 
1 3220 14082 
1 15285 15535 
3 20453 20454 
3 20452 20453 
3 18922 18923 
3 18923 18924 
1 5790 18922 
1 18924 20452 
3 15535 15536 
3 1114 1115 
1 1114 3354 
3 1115 1116 
1 1116 3375 
2 14170 14171 
1 14170 15283 
3 15284 15285 
3 15283 15284 
3 14959 14960 
1 14961 19662 
2 19661 19662 
3 3374 3375 
3 3373 3374 
3 3352 3353 
3 3353 3354 
1 585 16402 
2 584 585 
2 583 584 
1 583 19660 
2 19660 19661 
3 5629 5630 
1 5629 20871 
3 12056 12057 
3 4472 4473 
1 930 4473 
3 4471 4472 
3 12055 12056 
3 1456 1457 
1 1456 12055 
3 929 930 
1 2706 11554 
1 9174 15537 
3 15536 15537 
3 134 135 
3 133 134 
1 133 11556 
3 11555 11556 
3 11554 11555 
3 9173 9174 
2 20276 20277 
2 15259 15260 
1 15259 20277 
2 15260 15261 
3 20890 20891 
2 13243 13244 
1 13243 20275 
2 20275 20276 
3 20891 20892 
3 830 831 
3 829 830 
1 829 8967 
1 135 16132 
3 16132 16133 
1 831 3373 
3 7951 7952 
1 7951 20892 
3 1457 1458 
3 928 929 
1 928 2478 
3 10280 10281 
3 2477 2478 
3 10279 10280 
3 2476 2477 
1 2476 10279 
3 20756 20757 
1 4182 10281 
1 7953 20755 
3 7952 7953 
3 20755 20756 
3 16133 16134 
3 6572 6573 
1 6573 12324 
3 6571 6572 
2 12323 12324 
2 18397 18398 
1 12195 18397 
2 7093 7094 
2 7094 7095 
1 7095 18399 
2 18398 18399 
2 8408 8409 
3 8783 8784 
2 20906 20907 
1 2229 20905 
2 20905 20906 
1 14520 20907 
2 15053 15054 
2 15052 15053 
2 7630 7631 
1 7630 15052 
1 17181 17677 
2 17677 17678 
2 17180 17181 
1 7632 9345 
2 7631 7632 
2 10282 10283 
1 10282 15957 
3 19703 19704 
2 10283 10284 
1 10284 19702 
3 19702 19703 
2 2228 2229 
2 2227 2228 
2 1357 1358 
1 1357 2227 
2 1358 1359 
2 13954 13955 
2 382 383 
1 382 13954 
2 13972 13973 
1 13972 17679 
2 17678 17679 
2 13973 13974 
3 10322 10323 
3 7300 7301 
1 7300 10323 
2 12322 12323 
1 3165 12322 
2 3164 3165 
2 3163 3164 
1 3163 3687 
3 3686 3687 
3 17401 17402 
2 383 384 
2 8309 8310 
1 8310 17401 
2 8308 8309 
1 384 8308 
3 17402 17403 
3 10321 10322 
3 21452 21453 
3 21451 21452 
2 17243 17244 
2 17242 17243 
1 17242 17403 
2 14218 14219 
1 7482 14218 
3 7481 7482 
2 8407 8408 
3 7480 7481 
1 7480 8407 
3 8281 8282 
1 8281 17605 
3 17605 17606 
3 12194 12195 
3 6653 6654 
3 6652 6653 
3 17606 17607 
3 12193 12194 
1 8283 12193 
3 8282 8283 
3 8782 8783 
1 3330 6952 
3 6952 6953 
3 3329 3330 
3 3328 3329 
1 3328 8782 
3 6953 6954 
2 9310 9311 
2 511 512 
1 511 9310 
2 9311 9312 
2 3892 3893 
2 3893 3894 
2 20318 20319 
1 4605 20319 
1 3894 14518 
2 14518 14519 
2 8564 8565 
2 8563 8564 
1 8563 19789 
2 19789 19790 
1 8565 8848 
2 8848 8849 
2 8849 8850 
2 6854 6855 
2 9344 9345 
2 9343 9344 
1 6855 9343 
2 4066 4067 
1 4066 8850 
2 4067 4068 
1 4068 13275 
2 9004 9005 
2 9005 9006 
1 513 12189 
2 512 513 
2 12187 12188 
2 12188 12189 
2 19790 19791 
2 14519 14520 
2 20500 20501 
2 20501 20502 
2 4604 4605 
1 19791 20500 
2 13670 13671 
2 4603 4604 
2 13669 13670 
2 17179 17180 
2 643 644 
1 643 20502 
1 18870 21459 
2 21458 21459 
2 18869 18870 
2 6214 6215 
1 6214 21457 
2 21457 21458 
2 15956 15957 
2 6215 6216 
2 15955 15956 
1 6216 15955 
2 7943 7944 
2 11650 11651 
1 7944 11650 
3 373 374 
1 373 19704 
2 20678 20679 
2 7942 7943 
2 19364 19365 
3 374 375 
1 375 19363 
2 19363 19364 
3 12652 12653 
2 3151 3152 
1 3151 12187 
2 3152 3153 
1 321 13669 
2 12398 12399 
2 320 321 
2 319 320 
2 12397 12398 
1 1359 4476 
2 13585 13586 
1 13585 13956 
2 644 645 
1 645 19059 
2 19058 19059 
2 19057 19058 
2 13586 13587 
1 13587 18816 
1 2979 19057 
2 13955 13956 
2 18815 18816 
2 7175 7176 
2 7174 7175 
1 7174 14338 
2 14338 14339 
2 14339 14340 
2 7993 7994 
1 7993 14340 
2 7994 7995 
1 2220 18718 
2 18718 18719 
2 859 860 
1 859 7176 
2 9898 9899 
2 6211 6212 
1 6211 19365 
2 860 861 
3 7301 7302 
2 18857 18858 
1 7302 18856 
2 18856 18857 
1 3243 18858 
2 6212 6213 
3 8843 8844 
2 7315 7316 
2 7316 7317 
2 14324 14325 
3 8842 8843 
1 8842 14323 
2 14323 14324 
3 18272 18273 
3 18271 18272 
2 2968 2969 
1 2968 18271 
2 2969 2970 
1 12654 13738 
3 12653 12654 
3 3685 3686 
1 3685 11857 
2 11857 11858 
2 11858 11859 
1 11859 12399 
2 11522 11523 
2 11521 11522 
1 663 11523 
2 4475 4476 
2 4474 4475 
2 661 662 
1 661 4474 
2 662 663 
2 2978 2979 
2 2977 2978 
1 2977 20619 
2 20618 20619 
2 8240 8241 
2 2638 2639 
1 2638 18720 
2 20617 20618 
2 8239 8240 
1 8239 20617 
1 2640 8241 
2 9968 9969 
2 2639 2640 
2 3715 3716 
1 3715 9969 
2 3716 3717 
2 18719 18720 
1 7362 11094 
2 7361 7362 
2 7360 7361 
1 7360 13924 
3 13924 13925 
3 13925 13926 
1 8844 21451 
2 4385 4386 
2 9325 9326 
1 9325 17244 
2 9326 9327 
2 15112 15113 
2 15113 15114 
1 9327 15112 
2 5356 5357 
1 15114 19368 
2 5357 5358 
2 5582 5583 
2 2914 2915 
1 2914 5356 
2 2915 2916 
2 14219 14220 
1 5583 14220 
2 5581 5582 
1 5581 13719 
1 2916 16339 
2 16339 16340 
2 16340 16341 
2 13718 13719 
2 19046 19047 
2 19045 19046 
1 6654 19045 
1 17109 19047 
2 17108 17109 
2 3157 3158 
1 3157 16878 
1 3159 13926 
2 3158 3159 
3 17743 17744 
2 17383 17384 
1 17383 17743 
1 6954 17745 
3 17744 17745 
2 4384 4385 
1 4384 8787 
3 8786 8787 
3 3236 3237 
3 8785 8786 
3 3235 3236 
1 3235 8785 
2 14032 14033 
1 14032 16341 
2 14033 14034 
1 14034 15195 
3 7288 7289 
3 14830 14831 
2 20317 20318 
1 5949 9849 
2 9848 9849 
2 9847 9848 
1 9847 14830 
2 1544 1545 
2 1543 1544 
1 1543 8145 
3 14831 14832 
2 5660 5661 
1 5661 8892 
2 8891 8892 
2 5659 5660 
2 5143 5144 
1 5143 14167 
2 14167 14168 
2 14168 14169 
2 6853 6854 
1 6853 14169 
2 8144 8145 
1 4935 5659 
2 13274 13275 
2 13273 13274 
1 13273 14623 
2 14623 14624 
2 14624 14625 
2 4934 4935 
2 4933 4934 
2 18790 18791 
1 18790 20679 
2 18791 18792 
2 18946 18947 
2 9289 9290 
1 9289 18946 
2 18947 18948 
2 16106 16107 
2 16105 16106 
2 9290 9291 
2 1976 1977 
1 1977 2088 
2 1975 1976 
2 5948 5949 
2 17771 17772 
2 17770 17771 
2 5947 5948 
1 13671 17772 
2 8387 8388 
1 1545 5625 
2 1492 1493 
1 1492 5623 
2 5623 5624 
2 5624 5625 
2 7189 7190 
1 7189 8388 
2 7190 7191 
2 8386 8387 
1 270 8386 
2 18868 18869 
2 8143 8144 
1 8143 18868 
2 15340 15341 
2 15341 15342 
2 12748 12749 
1 12748 15340 
2 8242 8243 
1 8242 15342 
2 8243 8244 
2 11651 11652 
1 8244 11652 
1 14625 16695 
2 20677 20678 
1 10707 18792 
2 10706 10707 
2 10705 10706 
1 3612 10705 
2 15728 15729 
1 861 5338 
2 5338 5339 
2 5339 5340 
1 5340 15729 
2 15727 15728 
2 1780 1781 
1 1780 15727 
2 826 827 
1 826 20677 
2 2087 2088 
2 827 828 
2 19184 19185 
1 828 4065 
2 4064 4065 
2 4063 4064 
1 4063 16848 
2 5005 5006 
1 5005 19185 
2 2086 2087 
2 16847 16848 
2 16846 16847 
2 4252 4253 
1 4252 16846 
2 4253 4254 
2 7759 7760 
1 7759 8752 
1 3153 14388 
2 8780 8781 
2 14387 14388 
1 8781 14386 
2 14386 14387 
2 8752 8753 
2 8753 8754 
2 1493 1494 
1 1518 12397 
2 4903 4904 
1 1494 4903 
2 1517 1518 
2 4904 4905 
1 4905 13471 
2 13471 13472 
2 12844 12845 
2 1516 1517 
1 1516 12844 
2 12845 12846 
2 269 270 
1 12846 15207 
1 9984 16080 
2 9983 9984 
2 268 269 
1 268 9982 
2 9982 9983 
2 16079 16080 
2 15206 15207 
2 18814 18815 
2 15323 15324 
2 8024 8025 
2 8023 8024 
1 8023 15324 
2 2218 2219 
1 2218 8025 
2 16370 16371 
2 16369 16370 
2 2219 2220 
2 2720 2721 
2 2719 2720 
1 2719 7569 
2 9899 9900 
2 7568 7569 
2 7567 7568 
1 7567 18501 
2 3242 3243 
1 6213 7315 
2 19183 19184 
2 3241 3242 
1 3241 5782 
2 5782 5783 
2 5783 5784 
1 5784 7380 
2 7379 7380 
2 7378 7379 
1 1467 7378 
2 4912 4913 
1 4912 14325 
2 18265 18266 
2 18266 18267 
1 4914 18265 
2 4913 4914 
2 19877 19878 
2 19876 19877 
2 8161 8162 
1 8161 13740 
2 8162 8163 
1 8163 18783 
2 13739 13740 
1 2970 13473 
2 13738 13739 
2 13472 13473 
2 1285 1286 
1 1285 13717 
2 13717 13718 
2 1286 1287 
2 5774 5775 
2 19927 19928 
1 5775 19927 
1 1287 16078 
2 19928 19929 
2 7972 7973 
2 10318 10319 
1 10318 19929 
2 14615 14616 
2 14614 14615 
2 9967 9968 
1 9967 14614 
2 16078 16079 
2 10319 10320 
1 10320 14616 
2 16925 16926 
2 16366 16367 
1 16366 16926 
1 7995 16368 
2 16367 16368 
1 2997 16371 
2 2996 2997 
1 873 17226 
2 872 873 
2 2995 2996 
1 2995 11092 
2 11092 11093 
1 3717 3723 
2 3722 3723 
2 871 872 
1 117 871 
2 14917 14918 
1 9900 14917 
2 1466 1467 
2 14918 14919 
2 11093 11094 
1 10062 14919 
2 15086 15087 
2 1465 1466 
1 1465 15085 
2 15085 15086 
2 3721 3722 
1 3721 5400 
2 16721 16722 
2 12256 12257 
1 12256 15087 
1 12258 15118 
2 15118 15119 
2 12257 12258 
1 16722 18721 
2 18721 18722 
2 18722 18723 
2 15119 15120 
2 19367 19368 
2 14656 14657 
1 14656 19366 
2 19366 19367 
1 5358 21402 
2 21401 21402 
2 21400 21401 
1 10347 21400 
2 14657 14658 
2 17107 17108 
1 17107 18793 
2 18793 18794 
2 18794 18795 
1 4128 18795 
2 4127 4128 
2 1073 1074 
2 17224 17225 
2 1072 1073 
1 1072 17224 
2 17225 17226 
2 16877 16878 
2 16876 16877 
1 1074 9420 
2 7702 7703 
2 2911 2912 
1 2911 7702 
2 13594 13595 
2 2912 2913 
1 2913 13594 
1 7764 17385 
2 7763 7764 
2 17384 17385 
2 4915 4916 
1 4915 19797 
2 19796 19797 
1 4917 15120 
2 4916 4917 
2 10708 10709 
1 10708 19795 
2 19795 19796 
3 4225 4226 
2 805 806 
1 805 4225 
2 806 807 
1 807 9913 
3 4226 4227 
2 9913 9914 
2 10346 10347 
2 19484 19485 
1 14898 19483 
2 19483 19484 
2 14897 14898 
2 14896 14897 
2 8360 8361 
2 9418 9419 
1 8361 9418 
2 15194 15195 
2 15193 15194 
1 7704 15193 
2 7703 7704 
2 9419 9420 
1 10710 13392 
2 13391 13392 
2 13390 13391 
1 13390 18834 
2 10709 10710 
3 14279 14280 
2 21503 21504 
2 8359 8360 
1 8359 21502 
2 21502 21503 
3 15229 15230 
1 1056 15229 
1 1236 7290 
3 1235 1236 
2 1055 1056 
3 1234 1235 
1 1234 8289 
3 15230 15231 
3 7289 7290 
2 11899 11900 
3 4396 4397 
1 4396 11899 
2 11900 11901 
2 8557 8558 
1 8557 11901 
2 5144 5145 
2 12749 12750 
2 8558 8559 
1 5145 10573 
1 8559 18786 
2 18785 18786 
2 18784 18785 
2 2257 2258 
1 2257 12750 
2 10573 10574 
1 10596 18784 
2 10595 10596 
2 19420 19421 
2 17408 17409 
2 17407 17408 
1 17407 18463 
2 18463 18464 
2 4265 4266 
1 4266 19420 
2 19421 19422 
1 1389 18948 
1 2805 16105 
2 2804 2805 
2 1388 1389 
2 2803 2804 
1 2803 17614 
2 17614 17615 
2 1387 1388 
1 1387 10230 
2 17615 17616 
2 10229 10230 
2 13979 13980 
2 18320 18321 
2 13978 13979 
2 17038 17039 
1 17038 17616 
1 5151 17040 
2 17039 17040 
1 13980 18319 
2 5839 5840 
1 5839 13978 
2 5840 5841 
2 6584 6585 
2 6583 6584 
2 1054 1055 
1 1054 13362 
2 16640 16641 
1 4296 16641 
2 4295 4296 
2 16639 16640 
2 5873 5874 
2 5872 5873 
1 5872 8524 
3 289 290 
1 289 4294 
2 4294 4295 
2 13361 13362 
2 5213 5214 
2 5212 5213 
1 5212 16485 
1 5214 13360 
2 13360 13361 
1 5874 20506 
2 3358 3359 
1 3358 20508 
2 20506 20507 
2 20507 20508 
2 2356 2357 
1 2356 7191 
1 2259 20880 
2 2258 2259 
1 3771 15835 
2 3770 3771 
2 3769 3770 
1 3769 16693 
2 3359 3360 
2 419 420 
2 3611 3612 
2 418 419 
1 418 2721 
2 16693 16694 
2 16694 16695 
1 3642 14886 
2 3641 3642 
2 3610 3611 
1 3610 3640 
2 3640 3641 
2 14885 14886 
2 1768 1769 
2 1769 1770 
2 46 47 
2 47 48 
2 14884 14885 
2 3265 3266 
1 3265 14884 
2 5006 5007 
2 1781 1782 
1 5007 12510 
1 1782 19120 
2 19120 19121 
2 19121 19122 
2 20200 20201 
2 20201 20202 
1 19122 20200 
1 4254 10251 
2 20198 20199 
2 20197 20198 
2 10250 10251 
2 10249 10250 
1 10249 20778 
2 20777 20778 
1 11298 20197 
2 8779 8780 
1 8779 16639 
2 8524 8525 
2 21002 21003 
1 8328 21003 
2 8327 8328 
2 8326 8327 
1 1185 8326 
2 2357 2358 
2 8525 8526 
1 8526 16138 
2 16138 16139 
1 3285 12705 
2 16139 16140 
1 16140 20940 
2 15835 15836 
2 15836 15837 
2 15205 15206 
1 15205 15837 
2 20381 20382 
2 20380 20381 
2 15322 15323 
1 9903 13506 
2 9901 9902 
1 9901 15322 
2 9902 9903 
2 14390 14391 
1 14391 16369 
2 7946 7947 
1 3804 14389 
2 14389 14390 
2 3803 3804 
2 3266 3267 
2 18499 18500 
1 18499 21442 
2 21442 21443 
2 21443 21444 
2 18500 18501 
1 16281 20202 
2 12509 12510 
1 2745 16720 
2 16720 16721 
2 2744 2745 
2 16279 16280 
2 2743 2744 
1 2743 16279 
2 16280 16281 
2 16960 16961 
2 6421 6422 
1 6421 18267 
2 12508 12509 
1 12508 20199 
2 18866 18867 
2 5387 5388 
2 6422 6423 
1 6423 18865 
2 18865 18866 
2 5609 5610 
2 16961 16962 
3 21254 21255 
2 5608 5609 
1 5608 21255 
2 21001 21002 
2 9676 9677 
1 9676 21001 
2 9677 9678 
2 18782 18783 
2 18781 18782 
1 13320 18781 
2 13319 13320 
2 7973 7974 
2 5773 5774 
1 5773 9678 
1 7974 12703 
1 5175 20938 
2 20938 20939 
2 20939 20940 
2 15238 15239 
2 15239 15240 
2 16924 16925 
2 12704 12705 
2 12703 12704 
2 6313 6314 
1 6313 20382 
1 11973 15240 
2 11972 11973 
2 11971 11972 
1 11971 16924 
2 6314 6315 
1 6315 10201 
2 10201 10202 
2 10202 10203 
2 116 117 
2 115 116 
1 115 16716 
2 16715 16716 
2 10061 10062 
2 10060 10061 
2 2023 2024 
1 2023 10060 
2 2024 2025 
1 10449 20811 
1 2025 16603 
2 16603 16604 
2 10448 10449 
2 16714 16715 
2 10447 10448 
1 10447 16714 
2 20810 20811 
1 13296 20809 
2 20809 20810 
2 13295 13296 
2 13294 13295 
1 13294 13540 
2 13540 13541 
2 21046 21047 
2 5386 5387 
1 5386 21046 
2 21047 21048 
2 13541 13542 
2 20353 20354 
1 13542 20353 
2 20986 20987 
2 20987 20988 
3 21253 21254 
1 13311 13582 
2 13582 13583 
2 13310 13311 
2 13583 13584 
2 12962 12963 
1 12963 14658 
2 12961 12962 
1 12961 19360 
2 19360 19361 
1 8679 10864 
2 10864 10865 
2 4969 4970 
2 8678 8679 
2 8677 8678 
1 8677 13584 
2 4126 4127 
1 4126 20653 
1 5589 13707 
2 10865 10866 
2 5587 5588 
1 5587 10866 
2 5588 5589 
2 20653 20654 
2 20654 20655 
1 10203 11289 
1 13674 20655 
2 13673 13674 
2 11288 11289 
2 11287 11288 
1 11287 21291 
2 21290 21291 
2 5747 5748 
2 2560 2561 
1 2560 5748 
2 5746 5747 
1 5746 17583 
2 5399 5400 
2 5398 5399 
1 5398 18016 
2 18016 18017 
2 18017 18018 
2 13595 13596 
2 16604 16605 
2 3637 3638 
1 3637 13596 
1 4116 16605 
2 15794 15795 
2 15793 15794 
1 15793 18051 
2 18050 18051 
2 7762 7763 
1 7762 15795 
2 3638 3639 
1 3639 13431 
2 13430 13431 
2 9914 9915 
1 9915 20986 
3 5299 5300 
1 5299 20988 
3 5300 5301 
2 10345 10346 
1 10345 15684 
1 13884 15682 
2 15682 15683 
2 15683 15684 
2 13883 13884 
1 19386 19485 
2 19385 19386 
1 4959 19384 
2 19384 19385 
2 4958 4959 
2 4957 4958 
1 4957 15150 
2 21289 21290 
1 3180 21289 
2 3179 3180 
2 3178 3179 
1 3178 3498 
2 3497 3498 
2 1852 1853 
2 18833 18834 
2 18832 18833 
1 18832 20208 
2 20207 20208 
2 15221 15222 
2 13429 13430 
3 10675 10676 
1 10675 13429 
3 14278 14279 
2 1562 1563 
2 1561 1562 
1 1561 14280 
1 1563 15220 
2 15220 15221 
3 10676 10677 
3 404 405 
1 291 405 
3 290 291 
2 8288 8289 
2 17282 17283 
2 16484 16485 
2 17281 17282 
1 1743 17281 
2 1742 1743 
3 15421 15422 
1 1716 17283 
2 17437 17438 
2 17438 17439 
1 2205 17439 
2 2204 2205 
2 18464 18465 
2 21145 21146 
2 21146 21147 
2 2203 2204 
1 2203 21145 
2 10594 10595 
1 1167 16624 
1 456 19422 
2 1165 1166 
2 455 456 
2 454 455 
1 454 1165 
2 10228 10229 
1 10228 13621 
2 13621 13622 
2 13622 13623 
2 1166 1167 
2 16624 16625 
2 2876 2877 
2 10781 10782 
2 17435 17436 
2 10780 10781 
2 13355 13356 
2 13354 13355 
1 13354 20100 
2 20099 20100 
2 20098 20099 
2 5150 5151 
2 5149 5150 
1 5149 20098 
2 14237 14238 
2 14236 14237 
1 8247 14236 
2 1184 1185 
2 14270 14271 
2 16483 16484 
2 8287 8288 
1 8287 14238 
1 11391 16483 
1 5280 7821 
2 5279 5280 
2 11390 11391 
2 5278 5279 
1 5278 16492 
2 7819 7820 
1 7819 15421 
2 7820 7821 
2 20878 20879 
1 12381 20878 
2 12380 12381 
2 11389 11390 
2 20879 20880 
2 7504 7505 
1 7504 11389 
2 7505 7506 
1 7506 12409 
2 12409 12410 
2 12410 12411 
1 12411 13504 
2 13975 13976 
1 13975 18465 
2 13976 13977 
1 1029 13977 
2 4313 4314 
2 4312 4313 
2 12379 12380 
1 12379 19524 
2 14564 14565 
1 1365 4312 
2 1364 1365 
2 1363 1364 
1 1363 14565 
1 13623 18417 
2 8927 8928 
2 547 548 
1 547 8928 
2 18416 18417 
2 8926 8927 
2 14563 14564 
2 6439 6440 
1 6439 14563 
2 6440 6441 
2 18415 18416 
1 12915 18415 
2 11297 11298 
2 11296 11297 
1 11296 12582 
2 12581 12582 
2 12580 12581 
1 11220 12580 
2 17431 17432 
2 11227 11228 
1 11227 17431 
2 20776 20777 
2 11228 11229 
1 11229 20776 
2 766 767 
1 766 18867 
2 767 768 
2 17432 17433 
2 8246 8247 
2 8245 8246 
1 8245 10830 
2 3284 3285 
2 18361 18362 
2 10829 10830 
2 10828 10829 
1 10828 18361 
2 16492 16493 
2 16493 16494 
2 3283 3284 
1 3283 16494 
1 11886 20380 
2 11885 11886 
1 5091 11884 
2 11884 11885 
2 14062 14063 
2 12040 12041 
1 12040 14062 
2 5090 5091 
2 21286 21287 
2 1198 1199 
1 1198 10941 
2 1199 1200 
2 5089 5090 
1 5089 21286 
2 13504 13505 
2 6322 6323 
2 13505 13506 
2 9610 9611 
1 6576 9610 
2 7945 7946 
1 7945 14064 
1 7947 9612 
2 9611 9612 
2 12389 12390 
1 12390 13573 
2 14063 14064 
2 6323 6324 
2 13573 13574 
2 13574 13575 
2 6575 6576 
1 3267 16933 
2 16933 16934 
2 16934 16935 
2 5116 5117 
1 5116 16935 
2 3802 3803 
1 3802 13575 
2 5117 5118 
2 548 549 
1 549 17392 
2 17392 17393 
1 15495 21444 
2 17393 17394 
2 15494 15495 
2 15493 15494 
1 15493 16758 
2 16757 16758 
1 16962 17394 
2 338 339 
2 4565 4566 
2 2917 2918 
1 2917 5610 
2 4564 4565 
1 339 4566 
2 13318 13319 
1 13318 16452 
2 15040 15041 
2 15041 15042 
1 15042 20556 
2 20555 20556 
2 20554 20555 
1 18363 20554 
2 18362 18363 
1 2493 17346 
2 17345 17346 
2 2492 2493 
2 2491 2492 
1 2491 2628 
2 5174 5175 
2 5173 5174 
2 18161 18162 
2 13706 13707 
2 17344 17345 
2 8473 8474 
1 8473 17344 
2 8474 8475 
1 8475 13705 
2 13705 13706 
2 2302 2303 
1 2302 10086 
2 2303 2304 
2 5147 5148 
2 5146 5147 
1 5146 5605 
2 5605 5606 
2 10084 10085 
1 10084 12295 
2 12295 12296 
2 10085 10086 
2 5606 5607 
1 12297 14491 
2 14491 14492 
2 14492 14493 
2 10985 10986 
2 10984 10985 
2 5806 5807 
1 5806 10984 
1 10986 16788 
1 14493 16806 
2 16805 16806 
2 16787 16788 
2 16786 16787 
2 13903 13904 
1 13903 16786 
2 13904 13905 
2 20354 20355 
2 2918 2919 
1 2919 13905 
2 8674 8675 
1 8674 20355 
2 8675 8676 
1 4743 8676 
3 4742 4743 
2 13309 13310 
1 1791 13309 
2 16451 16452 
2 1790 1791 
2 1789 1790 
1 1789 13786 
2 13786 13787 
2 13787 13788 
2 9947 9948 
2 9946 9947 
1 9946 16977 
2 4970 4971 
2 16450 16451 
2 19361 19362 
1 8649 19362 
2 8648 8649 
2 3190 3191 
1 3190 16450 
2 3191 3192 
1 3192 15267 
2 8647 8648 
1 5571 8647 
2 18950 18951 
2 5570 5571 
2 5615 5616 
2 5569 5570 
1 5569 5614 
2 5614 5615 
2 17581 17582 
1 17581 18951 
2 17582 17583 
2 15616 15617 
2 2561 2562 
2 13672 13673 
1 5616 13672 
1 684 17070 
2 5471 5472 
2 5470 5471 
1 5470 5607 
1 3459 5472 
1 2562 5851 
2 16804 16805 
1 16804 18018 
2 5851 5852 
2 4114 4115 
1 4114 5853 
2 5852 5853 
2 2869 2870 
2 2870 2871 
2 4115 4116 
2 9388 9389 
1 9388 20152 
2 9389 9390 
2 18049 18050 
2 322 323 
1 322 913 
1 324 18049 
2 323 324 
2 913 914 
2 7180 7181 
2 7181 7182 
2 12137 12138 
2 13882 13883 
1 13882 18949 
2 12136 12137 
1 12136 13788 
2 7102 7103 
1 7102 12138 
2 7103 7104 
2 18949 18950 
1 7104 15148 
2 15148 15149 
2 15149 15150 
2 15617 15618 
2 16606 16607 
1 8088 16606 
2 16607 16608 
2 3496 3497 
1 1854 17068 
2 17068 17069 
2 1853 1854 
2 17069 17070 
2 2734 2735 
1 2734 3496 
1 2736 4125 
2 4124 4125 
2 9877 9878 
1 9877 15222 
2 20153 20154 
2 9878 9879 
2 20206 20207 
2 14065 14066 
1 14065 20206 
2 14066 14067 
1 7665 14067 
2 21536 21537 
1 9879 21535 
2 21535 21536 
2 20152 20153 
2 8087 8088 
2 15833 15834 
2 15832 15833 
1 15834 17529 
2 2735 2736 
2 8086 8087 
1 8086 15832 
3 17528 17529 
3 17527 17528 
3 2501 2502 
3 2500 2501 
1 2500 20256 
1 15423 20254 
3 20254 20255 
3 20255 20256 
1 2751 19947 
3 15422 15423 
2 1741 1742 
1 1741 9270 
2 1382 1383 
2 1244 1245 
2 1243 1244 
1 1243 15676 
2 6317 6318 
2 6316 6317 
1 6316 9490 
2 4574 4575 
2 1381 1382 
2 2398 2399 
1 2398 6318 
2 6394 6395 
1 6394 18939 
2 7729 7730 
1 7729 21147 
2 18938 18939 
2 18937 18938 
1 18937 19188 
2 19187 19188 
2 7730 7731 
2 11465 11466 
2 11464 11465 
1 7731 11464 
1 11466 21045 
1 9297 20304 
2 20303 20304 
2 20302 20303 
2 6356 6357 
2 21044 21045 
2 21043 21044 
2 2875 2876 
1 2875 21043 
2 6355 6356 
1 6355 11500 
2 11500 11501 
2 11501 11502 
2 14171 14172 
2 14269 14270 
3 2750 2751 
1 12165 17232 
3 2749 2750 
1 2749 12163 
2 12163 12164 
1 14172 14269 
2 6938 6939 
2 3590 3591 
2 3589 3590 
1 3589 6937 
2 6937 6938 
2 9269 9270 
2 9268 9269 
1 9268 10939 
2 10939 10940 
2 15676 15677 
2 10940 10941 
2 15677 15678 
1 15678 21288 
2 21287 21288 
2 4802 4803 
2 19186 19187 
2 8939 8940 
2 8938 8939 
1 8938 12357 
2 19523 19524 
2 19522 19523 
1 1281 19522 
2 1280 1281 
2 1279 1280 
1 1279 7549 
2 7549 7550 
2 12356 12357 
2 12355 12356 
2 1028 1029 
2 1027 1028 
1 1027 14515 
2 14515 14516 
2 14516 14517 
2 20948 20949 
1 14517 16230 
1 2877 11218 
2 11218 11219 
2 12914 12915 
2 12913 12914 
1 12913 19917 
2 19916 19917 
2 19915 19916 
2 16229 16230 
2 11219 11220 
1 9102 20038 
3 9100 9101 
1 9100 17433 
3 9101 9102 
2 13735 13736 
2 17231 17232 
2 17230 17231 
1 17230 18325 
2 18325 18326 
2 2626 2627 
1 2626 18327 
2 18326 18327 
2 1412 1413 
2 1411 1412 
1 1411 18175 
2 18176 18177 
2 18175 18176 
2 6661 6662 
1 3591 6661 
2 6662 6663 
1 5811 6648 
2 3923 3924 
1 1413 2931 
2 2929 2930 
1 2929 3922 
2 3922 3923 
2 2930 2931 
2 5809 5810 
2 5810 5811 
1 1200 5809 
1 3924 6235 
2 6235 6236 
2 9991 9992 
1 6237 9991 
2 6236 6237 
2 12041 12042 
1 6324 8940 
2 9992 9993 
2 12388 12389 
1 12388 19470 
1 6780 15297 
2 6779 6780 
2 6778 6779 
1 6778 16225 
1 9993 20004 
2 16225 16226 
2 6574 6575 
1 6574 20949 
1 5808 16227 
2 20947 20948 
1 3102 20947 
2 16226 16227 
2 3101 3102 
1 4728 5118 
2 3100 3101 
1 3100 20926 
2 20926 20927 
2 9745 9746 
2 16756 16757 
1 9747 16756 
2 4727 4728 
2 4726 4727 
1 4726 6819 
2 6818 6819 
2 337 338 
1 337 19915 
2 9746 9747 
2 6817 6818 
1 6817 9789 
2 20038 20039 
2 20039 20040 
2 5828 5829 
2 19387 19388 
1 19387 20040 
2 19388 19389 
1 5829 19389 
2 16976 16977 
2 16975 16976 
1 16975 18162 
2 20870 20871 
2 2627 2628 
1 18177 20869 
2 20869 20870 
2 18160 18161 
1 17454 18160 
1 5232 6171 
2 5231 5232 
2 5230 5231 
2 17453 17454 
2 6647 6648 
2 6646 6647 
1 6646 18315 
1 12042 13477 
2 13477 13478 
2 5938 5939 
1 5938 13479 
2 13478 13479 
1 2304 14871 
2 5939 5940 
2 12296 12297 
2 10112 10113 
2 19469 19470 
2 19468 19469 
1 11106 19468 
2 11105 11106 
2 11104 11105 
2 157 158 
1 157 11104 
2 10111 10112 
1 555 10111 
1 10113 17964 
2 5807 5808 
2 5626 5627 
1 5626 12019 
2 12019 12020 
1 5628 9745 
2 5627 5628 
2 13888 13889 
1 13888 15385 
2 15385 15386 
2 15386 15387 
2 1312 1313 
1 1312 15387 
2 18259 18260 
2 13889 13890 
1 13890 18261 
2 20015 20016 
2 18260 18261 
2 20014 20015 
2 13024 13025 
1 13024 20014 
3 4741 4742 
1 4741 5827 
2 5827 5828 
2 17305 17306 
2 17452 17453 
1 17382 17452 
2 17381 17382 
2 6170 6171 
2 6169 6170 
2 15266 15267 
2 15265 15266 
2 502 503 
1 502 15265 
2 503 504 
1 504 13933 
2 17380 17381 
1 3363 6169 
2 14870 14871 
2 14869 14870 
1 14869 19573 
2 19573 19574 
2 19574 19575 
2 2602 2603 
1 2602 19575 
2 19846 19847 
2 683 684 
2 158 159 
2 554 555 
2 553 554 
1 553 682 
2 682 683 
2 11327 11328 
1 159 3457 
2 3457 3458 
2 3458 3459 
2 992 993 
2 991 992 
1 991 11328 
2 11326 11327 
1 5337 11326 
2 1313 1314 
2 7237 7238 
1 7237 9390 
2 7238 7239 
1 1314 20412 
2 21151 21152 
2 21152 21153 
2 13025 13026 
2 914 915 
1 915 21153 
1 7239 13026 
2 10414 10415 
2 17306 17307 
1 16017 17307 
3 16015 16016 