ITEM: TIMESTEP
50000000
ITEM: NUMBER OF ATOMS
5382
ITEM: BOX BOUNDS pp pp pp
0.0000000000000000e+00 5.0000000000000000e+01
0.0000000000000000e+00 5.0000000000000000e+01
0.0000000000000000e+00 5.0000000000000000e+01
ITEM: ATOMS id type vx vy vz 
18316 1 5.98672 2.86479 -2.16194 
18317 3 1.95544 -2.798 -1.05447 
18318 1 -0.210081 -2.02885 4.22445 
21261 1 6.74417 0.500252 -0.515779 
13071 1 -5.04775 3.23488 -7.5099 
13070 3 -3.55692 2.80485 0.235433 
13069 1 -1.40392 -3.03541 -0.230136 
9051 1 -0.200422 1.53664 2.38528 
9050 2 -0.685675 -0.79363 -3.39726 
9049 1 1.84214 -0.298465 0.663684 
11915 3 -1.78797 0.572645 2.21027 
11914 1 4.8425 2.18017 4.95279 
11916 1 -3.50808 2.80444 2.89205 
714 1 -1.57787 2.5422 6.36768 
18533 2 2.26705 -0.471358 0.552229 
18534 1 -2.56271 1.72562 1.68419 
10900 1 -6.76231 -2.3879 1.9764 
10901 2 -3.24895 0.161546 0.546536 
10902 1 -0.118592 5.10266 -1.78999 
3681 1 0.945361 -0.982988 0.218684 
18532 1 0.836094 -7.42027 0.879846 
18555 1 -7.14696 -3.31524 1.8293 
6068 3 -2.70804 0.0452722 1.12477 
6067 1 6.92999 3.42692 -1.16811 
17473 1 -4.55958 6.72128 4.88751 
6069 1 -2.91148 -4.24277 9.91618 
4048 1 -1.48659 -1.14974 -4.99533 
17475 1 1.2775 1.92301 0.900156 
17474 2 4.14326 -2.87725 -1.40244 
20451 1 0.784819 1.61746 -0.936741 
20450 3 2.99517 1.58761 -0.646015 
20449 1 1.11683 4.15344 4.01717 
20259 1 -0.404605 3.54736 -3.97752 
20258 2 0.927299 -0.473353 5.1411 
13567 1 2.78928 0.661701 -0.421812 
20650 1 -0.234775 6.3874 -2.46834 
20257 1 1.64526 1.02502 0.718107 
2317 1 6.62252 3.67211 -1.82038 
2318 3 1.8624 2.08164 1.7601 
2319 1 4.97482 -0.850039 9.3222 
6259 1 -3.44866 1.7809 0.627336 
6260 2 2.50357 -0.776007 -2.38469 
20934 1 1.19681 0.850768 2.40155 
6261 1 -0.296618 1.00263 5.51325 
20932 1 3.20147 1.73814 -4.86338 
20933 3 -1.8736 2.50283 1.36429 
4228 1 0.0234814 -4.6594 5.79441 
13034 3 -0.968145 1.89832 7.33885 
13033 1 -3.79739 1.45234 1.68141 
1519 1 1.19254 -3.47043 -0.779699 
13758 1 2.71998 0.296757 0.827983 
5801 2 0.0891837 2.42422 -4.1542 
5800 1 3.5968 2.65119 -4.50587 
5802 1 -6.27839 -0.389671 4.41915 
13757 2 1.06649 -0.501654 0.644011 
13756 1 -0.703528 -0.966771 0.284363 
13035 1 2.03758 -3.23013 3.18135 
19436 3 4.37387 -0.317352 3.00872 
19437 1 -3.42159 -4.35629 -0.794057 
19435 1 -5.65005 -4.36245 -2.89587 
7440 1 0.792163 -4.10225 1.56435 
4863 1 0.826044 0.498769 0.375857 
4862 3 0.846391 -2.45925 0.449481 
4861 1 1.38067 -4.52188 0.649223 
7439 2 -1.45525 -2.69143 -1.14214 
19752 1 2.19808 -4.01115 -1.35727 
19751 3 -0.119042 -0.232956 4.0907 
17680 1 -3.30178 1.08311 -2.28268 
10394 3 -2.70741 0.343577 -2.32681 
10393 1 -0.7544 0.555077 -5.00712 
19750 1 3.50802 1.83235 1.50714 
16955 3 -1.98016 1.52969 1.03121 
16956 1 3.73625 5.03997 0.948411 
16954 1 1.40192 -2.34003 -2.26477 
3481 1 -1.51652 1.72025 0.0932549 
17682 1 -2.33044 4.64289 1.34755 
10395 1 -7.17748 5.0353 0.766354 
17681 2 1.47444 6.52734 -0.916104 
4237 1 1.44627 1.631 -4.63127 
3483 1 -0.800988 1.11267 1.7326 
3482 2 3.31746 3.61483 -1.39671 
4238 2 2.25575 1.78655 4.31033 
5612 3 1.59581 0.0824012 -0.822094 
5613 1 0.176627 -1.77341 1.58903 
5611 1 -1.43745 -0.190292 -5.39548 
6611 3 1.32868 -0.354441 2.51746 
6610 1 -0.777404 -4.70092 -6.84685 
16001 2 4.12509 1.51336 0.20212 
16002 1 3.16674 1.84366 -0.364443 
11005 1 1.29295 0.0423196 1.69333 
6086 2 -2.03177 2.60395 -4.23464 
6085 1 2.65477 0.0472696 -1.04406 
6087 1 0.633619 -0.270591 -1.47683 
21260 2 -2.39177 0.290965 3.04885 
15167 3 -5.04936 -1.89228 -1.1722 
21259 1 0.396266 4.28225 0.111908 
12192 1 -2.57047 -2.62915 -0.731975 
12190 1 1.43236 -3.03191 3.34253 
12191 2 2.05854 0.349692 -0.118599 
16045 1 -0.728954 1.87286 -3.69325 
11139 1 1.2859 -1.10107 0.155785 
11137 1 -0.884186 -1.13613 -2.37264 
11138 3 1.87831 0.318355 -2.20521 
15168 1 0.609287 -3.1812 -4.00486 
187 1 -2.35695 0.767476 -1.2683 
188 2 -0.481461 4.94606 -1.02281 
20598 1 0.309763 3.29253 -1.63486 
15166 1 -3.48661 -1.35436 -1.16909 
20597 3 0.98002 -0.631158 3.62839 
20596 1 3.31972 -0.293154 -3.77038 
798 1 2.14065 -0.0386285 3.05765 
796 1 8.19526 0.844226 3.58795 
797 3 2.68465 3.50226 3.19107 
1310 3 -0.593172 0.700087 1.68504 
1309 1 -1.73459 1.87375 -0.956657 
1311 1 -0.999181 -0.034022 -3.7809 
7002 1 -2.94792 -2.26288 -3.32548 
11486 2 -0.487538 -0.285529 -1.48086 
7001 2 -3.95667 -3.42268 -0.105863 
7000 1 -1.69092 1.89257 2.45446 
11485 1 -4.68073 -8.06865 3.05424 
3680 2 -1.76569 -2.43356 1.75515 
8757 1 -0.904193 0.763888 2.31443 
8755 1 -1.64328 -1.84283 -2.053 
8756 3 0.205062 -0.828528 2.61399 
3679 1 -2.9975 5.92075 -0.347774 
13568 2 3.12629 -0.974271 0.783368 
13569 1 -4.23502 -0.7372 0.976116 
20651 2 1.71097 -1.50002 0.743832 
20652 1 -5.5203 2.47321 -4.09145 
3562 1 7.02616 -2.23835 -4.69239 
3563 3 -0.250148 -2.96674 -1.66415 
7348 1 -5.49956 -0.238779 4.29018 
5459 2 -3.90799 -0.803177 1.70104 
5460 1 -5.82049 0.110466 5.82811 
3564 1 -2.25375 -4.52938 5.56522 
4197 1 0.559007 -0.613618 2.22385 
14077 1 -2.06097 2.33667 2.1219 
14078 3 -3.09704 0.706346 0.671923 
14079 1 -1.6 -6.58197 1.95768 
8986 1 -4.20382 1.25605 -1.62806 
4195 1 1.95376 0.338217 -3.3033 
4196 2 -1.32189 -1.43133 2.34793 
7438 1 2.49079 1.09823 0.577571 
1903 1 -4.588 -2.72761 -3.59888 
1904 3 0.796509 0.0658411 -1.89101 
1905 1 4.15875 -6.43992 0.23336 
3846 1 1.00182 2.80574 2.13039 
20022 1 -1.7286 -1.81927 6.01722 
20021 2 1.40844 -1.03429 3.69598 
3844 1 0.0125352 -0.863688 -0.376657 
3845 2 1.41142 2.40599 -3.66036 
11301 1 -4.75235 2.37708 1.45358 
11300 3 2.08137 -2.72764 2.28167 
13398 1 5.90187 0.0216972 5.55042 
13396 1 -3.27272 0.812887 7.40122 
13397 2 1.56225 -2.3951 2.47703 
1011 1 -2.56874 1.32189 3.91807 
2718 1 1.57617 -0.238896 -2.79418 
1009 1 2.42831 1.26264 3.41651 
1010 2 -0.37326 0.529261 3.2493 
12306 1 1.99852 0.279547 0.841587 
4520 3 -4.51897 -2.49468 0.134209 
4521 1 -0.61183 -2.97458 1.49993 
11299 1 -0.511977 -0.739848 -4.11817 
16047 1 2.88038 -3.60851 -1.64869 
4519 1 3.87091 8.49148 -0.960098 
16046 3 1.26627 -1.59125 2.56785 
2717 2 -0.51846 3.17577 -1.57036 
16821 1 1.45701 -3.50729 -1.13966 
2716 1 -3.60605 -0.144798 -1.55473 
16820 3 -2.85754 -0.67861 0.268754 
10372 1 2.37547 -2.18801 6.64925 
16819 1 4.88461 1.54695 3.86813 
16315 1 1.36136 -2.37234 6.52022 
16316 3 3.15706 3.68724 -2.85519 
189 1 2.88264 -5.62207 7.85978 
11626 1 1.54521 -4.21721 5.343 
11487 1 -1.21082 3.59102 1.42015 
10374 1 -0.616818 -1.86732 -4.71029 
11628 1 0.304156 3.61848 -3.23595 
11627 3 1.00846 -8.52836 3.26597 
10373 2 0.781429 5.65127 0.437373 
3973 1 7.53444 0.842825 -0.510739 
2799 1 -0.93373 1.77365 5.78585 
1317 1 4.29973 -3.77164 -0.479485 
1316 2 2.00493 -3.04892 1.80118 
1315 1 -4.71879 -0.116981 -1.66324 
12017 3 1.11226 -4.24602 -2.33598 
19939 1 0.946056 -9.62024 3.44252 
19940 3 3.24592 -1.36049 1.62984 
12016 1 -4.49899 -3.16061 2.34364 
19941 1 -1.51876 -1.82302 -2.30158 
12018 1 1.23519 1.85517 0.116093 
4331 2 1.83977 6.2264 2.36375 
4330 1 1.57458 -3.97625 -2.57757 
4332 1 -3.74037 3.88651 1.26085 
19082 2 -1.68049 0.0932671 -4.07678 
19081 1 1.77178 -0.152323 1.75752 
19083 1 0.470254 3.04869 6.18489 
17559 1 -1.93045 1.95595 -5.58068 
21558 1 5.47362 -2.64708 0.0156849 
21556 1 -3.19918 1.9677 1.97867 
21557 3 -6.7718 1.39957 -1.11978 
17977 1 -5.10109 0.354618 -1.01489 
17979 1 -0.315362 1.02845 6.17294 
17978 3 0.268338 3.36844 -1.19287 
11402 2 3.91203 -0.515466 -0.27998 
11401 1 -0.700721 0.00251315 -4.4841 
18380 2 -2.1956 -2.75866 0.22292 
6792 1 -0.850359 2.27926 0.766306 
6791 3 0.14589 -2.24103 2.33294 
8210 2 -0.435396 -3.41366 1.23469 
20091 1 -0.81913 2.88264 -0.520788 
6790 1 -0.717081 1.04975 -1.80346 
20090 3 0.395826 5.12303 5.19137 
11403 1 3.44986 3.47901 0.930913 
12099 1 4.27844 -1.09733 -0.28842 
12098 2 3.46459 -0.756199 1.63534 
12097 1 5.26608 -6.11375 3.85536 
7350 1 -2.17978 3.25485 -3.98197 
7349 3 0.159549 -7.31315 -0.39881 
5458 1 -6.3185 -1.30962 -1.61539 
6688 1 -0.73919 -0.462098 -1.05843 
6690 1 3.97321 7.63445 -1.08551 
6689 3 2.68909 -2.15532 1.6418 
20225 3 -0.82586 2.4487 -1.1571 
20224 1 3.2746 0.73998 -2.02623 
18379 1 -2.28006 -8.90835 6.2623 
12778 1 -0.0187646 1.05561 6.95171 
12779 3 -2.66008 1.64062 3.23088 
17884 1 -3.64816 3.42772 3.16152 
10761 1 -2.20652 -2.28168 0.900797 
10760 3 0.345584 1.52411 -1.52652 
4131 1 3.30876 10.0005 -4.1126 
4129 1 1.27495 0.734247 -0.76489 
4130 2 -0.703829 0.255181 2.33621 
8865 1 2.46021 -1.20909 -2.08652 
8987 3 -0.522236 -2.90454 -1.55248 
8988 1 -3.05104 3.63298 1.56011 
8884 1 -0.625137 -3.04504 -3.73821 
8886 1 4.58338 4.9293 2.87611 
262 1 1.62002 -1.08741 4.35151 
8885 3 -2.68575 -0.21487 0.529179 
17886 1 -0.64821 2.8883 -1.60864 
17885 2 -4.99687 0.187625 -1.58745 
14007 1 2.33691 -0.522883 -1.84901 
14005 1 -3.79821 -3.07086 -4.26559 
14006 2 2.09376 2.12551 0.168425 
5242 1 -2.23708 1.35743 1.14521 
5244 1 5.04126 -1.95046 5.0005 
5243 2 -1.67724 4.18928 1.07815 
1123 1 2.23026 -1.90526 4.95593 
8814 1 -0.826812 0.192425 -3.4933 
15412 1 0.891678 5.92166 3.69006 
15413 3 -0.54358 -4.52331 -0.889756 
15414 1 1.83356 -3.00677 -2.88853 
20020 1 3.8648 1.5275 4.62174 
1345 1 1.92208 -1.57997 -3.78956 
1346 3 -1.33382 1.87487 0.609281 
1347 1 -1.86198 -4.43114 2.76064 
12305 3 -0.997568 3.2748 2.34149 
12304 1 0.856211 5.87799 0.379677 
16317 1 -1.02036 -3.54364 4.2273 
9434 2 -3.36886 3.43884 4.06284 
9435 1 -3.16658 -3.01128 7.3643 
20221 1 4.2792 -1.32085 -1.9494 
20222 2 -0.592754 -2.81626 -1.60781 
3974 3 3.74231 -0.402099 -1.27848 
3975 1 1.3905 4.32068 1.08846 
8363 2 -2.32492 0.211562 -0.260474 
8362 1 -1.45112 4.30454 5.68241 
2797 1 -0.832589 -2.37853 0.150216 
2798 3 -1.94636 -1.09393 1.45249 
20643 1 -4.87752 2.99915 0.390463 
20642 2 -4.67081 -1.51849 0.271222 
20223 1 -2.43933 3.001 -5.13653 
20240 3 3.02897 0.28741 2.50716 
20239 1 0.810033 -7.53162 5.10419 
8364 1 -5.81701 -0.649939 0.799337 
20641 1 3.35202 -0.233516 -4.41362 
12867 1 0.72427 -1.48917 3.1217 
12866 2 1.80404 1.72199 0.796615 
17558 3 3.25513 0.330765 -1.7414 
17557 1 -3.51335 2.98216 4.23517 
8315 2 -0.852987 0.0709476 -2.59169 
8316 1 4.95032 -0.478256 -2.41777 
8314 1 0.147369 -3.84967 2.72117 
2821 1 -7.37661 -2.49498 -0.406523 
2822 3 -1.98696 -0.108673 7.19994 
2823 1 -7.27843 -0.842838 3.9873 
8211 1 0.878393 -7.10321 2.09019 
18381 1 -0.350951 0.054449 -2.40182 
9237 1 -1.54646 -3.29884 1.7244 
18073 1 -3.81854 -0.861593 -6.86947 
8209 1 3.93663 1.58481 -2.40366 
18075 1 4.51025 -6.57566 -3.07809 
18074 3 -1.98565 2.26718 -0.571678 
9236 2 -3.10407 1.4638 -3.89001 
9235 1 -2.85525 -1.21301 1.22566 
20089 1 -0.122531 1.88364 2.49834 
12663 1 -2.37101 5.25223 0.321253 
12662 2 -0.0597969 1.49876 -2.21285 
12661 1 -0.124597 0.656146 -1.4995 
1565 2 -0.984692 -1.89785 1.58464 
1566 1 2.71481 -1.6503 -0.539433 
1564 1 8.9601 -2.62728 -6.07869 
9972 1 -2.30785 -1.17679 -2.82958 
11280 1 -7.08914 3.85198 4.18166 
19200 1 0.929387 1.53496 -2.22077 
8147 3 -4.76423 3.20603 2.30446 
20226 1 0.187918 -2.69908 0.0846059 
8148 1 -1.14688 1.65296 -0.780171 
12780 1 -6.02064 1.94511 5.32397 
10759 1 -3.70331 1.54492 -0.0946486 
7083 1 2.84163 -0.548875 -5.99808 
11475 1 -1.23296 1.55089 -6.693 
7081 1 -3.71294 1.97553 -2.4745 
7082 3 5.81151 -0.202519 0.77036 
11473 1 0.121219 -0.567536 -0.0219387 
11474 3 -2.44089 -4.18455 -0.808941 
8863 1 4.12888 -1.89816 -8.27993 
8864 3 0.029886 0.398647 0.786625 
11278 1 -1.78853 -0.7884 0.334138 
16795 1 1.06104 0.042754 3.79363 
10059 1 -0.386554 1.3124 -0.510185 
11279 2 0.765104 0.875787 0.869509 
10058 2 1.73636 -0.68403 -0.248816 
263 2 -0.590384 2.02337 -2.52271 
19199 2 0.79124 0.0433353 -0.707314 
264 1 -2.91758 0.777704 -0.00547981 
19198 1 0.569997 1.43594 1.59074 
8146 1 5.25418 -6.29588 -0.129567 
15252 1 2.10555 -1.41392 0.956835 
15251 2 0.140254 0.628895 1.29049 
15250 1 -3.10073 8.5564 1.53705 
16796 3 -1.33949 -0.0245975 -0.590257 
16797 1 -0.870827 5.61762 2.48901 
14035 1 -1.43402 -2.22105 -2.96772 
14036 3 -2.49657 -0.251006 3.38723 
14037 1 -1.5948 1.02353 -8.12261 
1124 3 -1.42792 4.4121 4.53156 
1125 1 -3.36366 -5.38846 -0.96017 
10486 1 0.60556 7.56482 -0.452016 
3471 1 0.521466 4.65023 -4.97811 
10487 3 1.0176 1.43666 1.01252 
10488 1 2.90757 4.00194 -1.89703 
8813 3 -2.88021 -0.32607 1.29533 
227 2 -1.29394 2.19952 -4.14809 
6909 1 2.09203 -7.74138 -3.9575 
6908 2 2.39042 -0.351949 -0.142473 
13063 1 -2.62955 0.236245 3.34712 
13064 3 0.378855 -0.159683 -0.588229 
13065 1 0.907078 1.69042 -3.69243 
228 1 -6.45585 2.67562 6.00863 
4809 1 1.99579 2.45308 0.87515 
6907 1 1.51548 -1.25863 -0.1816 
4808 2 -0.133118 2.67862 -3.35777 
4807 1 -4.46532 -2.1163 2.71241 
3276 1 -0.127326 -0.490155 -7.01167 
8812 1 -5.01347 1.5518 0.499374 
16086 1 4.31016 0.845737 5.08443 
16085 3 2.45034 -0.411703 3.45031 
4032 1 -3.15487 -3.04279 2.47106 
4031 3 2.2458 -0.66919 -3.49059 
4030 1 4.68151 2.68649 -1.53375 
10065 1 2.1902 -1.77462 -2.6899 
9433 1 -1.43196 1.68442 0.183824 
20740 1 -1.7701 -2.06336 -5.61092 
20741 3 0.153092 2.75112 1.29165 
20742 1 7.63266 3.09092 0.849201 
12556 1 -1.40664 1.49966 -7.81175 
12558 1 1.5399 1.37752 4.6651 
12557 3 1.71881 -1.34683 -5.12762 
20241 1 -4.63189 4.93976 5.37569 
1542 1 -3.15389 3.98812 -6.68489 
1541 2 -0.533652 1.67805 3.9571 
1540 1 -4.71515 -1.8385 8.60257 
9648 1 -3.64974 0.406613 7.02085 
9647 2 -1.58304 0.338239 -1.13361 
16119 1 -1.78883 -2.35624 3.05547 
9646 1 1.32782 3.11345 -1.13737 
16118 3 0.488908 -3.22505 2.51873 
16117 1 6.04869 3.46104 -3.19804 
12865 1 -1.01532 2.59537 0.19403 
18652 1 9.00576 -3.65175 4.31108 
18653 3 4.72577 -2.43728 4.07861 
18654 1 -3.20657 4.19482 3.08014 
21486 1 -2.80072 5.04503 0.586125 
21485 3 -1.67076 -2.81443 3.29497 
15697 1 2.70942 2.48333 4.65779 
7876 1 -2.5728 7.21861 -0.375634 
7877 2 4.65136 -0.158747 2.94672 
7878 1 0.29716 -9.31809 1.64113 
9970 1 -1.46867 -3.73649 -2.21288 
9971 2 -2.10355 2.80676 -3.09068 
17933 2 -0.158939 3.37376 -0.53968 
17932 1 -2.96569 1.61213 -0.39422 
17934 1 5.67277 -3.27585 0.465519 
15699 1 -3.22459 -0.89893 0.983821 
15698 3 2.11434 -0.147518 0.916962 
132 1 6.10782 5.11482 -4.78093 
131 2 -1.06214 2.10149 0.184899 
1431 1 0.418365 -1.75697 0.633647 
8656 1 1.12524 0.570202 5.46326 
18547 1 -1.45267 -2.61768 7.01237 
1430 3 4.45163 -1.26335 -0.106038 
8657 2 0.264375 3.81448 4.51294 
1429 1 -0.172082 -5.28522 2.24599 
8658 1 1.16299 -2.65582 -2.57616 
744 1 0.0102848 0.595218 4.9197 
743 3 -3.20177 0.788007 -2.56036 
10057 1 -1.21309 -0.970411 -2.63895 
18330 1 -4.28352 -0.0314872 -4.50659 
18329 3 -0.356143 3.20661 1.33543 
18328 1 0.0495869 -7.41657 0.0279404 
130 1 4.443 -1.39021 0.552059 
2230 1 -2.25439 8.08912 -0.0494533 
2231 3 -1.34143 -1.57433 0.970162 
9927 1 0.474442 8.00968 -7.27235 
9925 1 0.80978 0.693999 0.460086 
9926 3 1.64936 1.89939 0.41445 
2232 1 -0.641758 4.74611 1.81955 
10700 3 -2.05074 -5.32146 -2.13317 
10701 1 -1.19706 -7.74523 -7.8464 
14004 1 0.630224 -2.01261 6.10144 
14003 2 2.32884 -2.38806 -1.9303 
14002 1 -3.4142 -0.777377 -4.13928 
7352 3 4.64834 -2.5614 -2.00976 
7351 1 -1.57925 1.71667 1.48959 
7353 1 -0.152431 -1.04873 1.16177 
10699 1 -5.54645 7.60959 -3.25687 
20803 1 -1.40562 3.01816 1.43498 
1403 3 -4.05806 4.31523 4.12705 
1404 1 -0.729286 0.542932 1.65294 
20805 1 3.887 2.01727 -3.50426 
20804 3 -0.294847 -0.0597403 3.46107 
3469 1 -2.59984 5.64122 -1.98684 
3470 3 3.23209 -0.752556 1.06397 
1816 1 0.0764596 -1.42917 2.0404 
1817 3 3.04884 2.79148 -1.07409 
1818 1 0.866431 -3.27043 -0.746746 
925 1 -6.52136 -1.23339 -1.59211 
926 3 3.94259 -0.348443 -2.00161 
1153 1 3.71242 0.629298 -3.70338 
1154 3 -1.72048 1.17701 -2.18419 
16069 1 -0.183507 1.10174 -2.82665 
927 1 -1.61052 5.04987 4.83281 
16084 1 0.782075 -6.63896 -1.52304 
17376 1 -0.0210216 1.32664 -1.42824 
17375 3 3.27418 0.536565 -1.90734 
17374 1 -0.54544 0.530041 -3.93777 
4059 1 6.26554 -6.24968 0.918318 
4058 3 1.68097 -0.0274691 -1.34091 
3315 1 -5.12335 -4.35404 2.48824 
3314 2 -1.03603 4.0786 -0.422466 
3313 1 5.33128 -0.0687655 -0.388443 
10063 1 0.366144 2.24111 -7.97255 
10064 3 -0.678864 1.05417 0.541745 
11440 1 -1.73945 -1.65862 3.22578 
11442 1 -0.409632 1.23451 -9.87445 
11441 3 0.122072 0.708671 5.59146 
13726 1 0.621941 0.71968 4.64758 
5211 1 -2.77659 -3.19905 -2.13809 
5209 1 -2.47801 2.67175 0.162307 
5210 2 5.18896 0.740962 1.88387 
15358 1 0.0366698 2.97517 7.50172 
11406 1 6.13034 2.06145 1.38993 
11405 3 -0.330565 -5.42081 0.584906 
11404 1 -2.95499 6.40931 -0.283649 
17127 1 -0.960985 -1.0702 -0.489145 
17126 3 2.59309 -2.10251 2.70726 
17125 1 4.24128 0.454756 6.64382 
12214 1 -3.08195 2.62072 -0.422835 
12215 2 -0.777323 -1.40823 -3.44935 
12216 1 3.1694 0.457114 1.75103 
2393 3 -2.08756 1.01857 2.30978 
2394 1 -4.40548 0.857551 0.44914 
7785 1 -1.96274 -1.03682 -2.4994 
18716 2 1.4428 -2.58236 -3.3066 
18717 1 7.17013 1.42174 5.25328 
18715 1 -0.709988 -0.401654 1.11547 
642 1 -0.511561 0.864837 -0.470398 
6788 2 0.095571 -0.414945 -2.75617 
6787 1 -0.817953 1.27153 -0.606696 
17143 1 4.4712 0.924115 -4.63184 
16997 3 1.02026 0.00883122 4.14413 
16996 1 2.64616 -1.18931 -2.55337 
16998 1 -0.140913 0.666622 1.19344 
15560 3 -4.75479 0.358015 1.05298 
15561 1 0.400878 0.339927 -1.49977 
6789 1 -0.874546 2.88734 -0.0231986 
13240 1 -2.01258 -2.12734 2.18883 
13242 1 3.02002 -3.29615 -0.238583 
13241 2 -3.77026 -2.22915 3.58802 
1509 1 4.50063 1.60618 6.74856 
1508 3 -0.326165 -1.78972 -0.0566129 
1507 1 4.31137 0.250526 6.24937 
20006 2 -3.96157 -1.61226 -1.33881 
20005 1 6.03912 -3.92109 -1.15566 
20007 1 3.74398 4.18879 0.0445266 
20604 1 -3.40214 2.13315 0.558969 
20603 3 -0.448978 0.296913 0.11779 
20602 1 3.23825 -2.23716 2.30745 
4013 3 -1.48928 -2.5501 0.831391 
4014 1 4.81334 -3.70432 -1.46101 
21484 1 -4.92674 2.29007 0.560083 
20311 1 1.03391 2.67167 1.17496 
20312 2 0.544833 2.40748 -2.9539 
7750 1 -4.12791 -3.5159 1.75349 
7751 2 -4.62728 -1.60296 0.599691 
7752 1 -0.0500462 7.20542 -1.14396 
2942 2 -2.87611 2.74897 -3.15127 
34 1 2.47238 1.08597 -6.29629 
18549 1 1.90024 3.26489 8.48249 
4012 1 -0.139376 2.13477 1.21824 
35 3 -1.02546 -0.355873 -2.4969 
36 1 -1.24975 0.401999 -1.32301 
8655 1 -4.12816 3.55056 1.72056 
8654 3 5.16467 0.884096 4.325 
11345 2 5.25571 -0.0630529 1.0617 
8653 1 -1.61029 2.38308 -5.53424 
11344 1 0.249762 4.30597 -0.825798 
20313 1 -0.82478 3.83994 -5.14564 
7641 1 -4.88439 2.65072 2.58079 
7640 2 -1.58093 0.0615491 0.517558 
8379 1 -3.9678 3.73841 3.05966 
7639 1 -4.39316 -0.389339 -2.15424 
8377 1 -3.46559 -4.7489 0.288506 
8378 2 4.70587 -1.39277 1.4641 
19286 3 2.95152 6.83411 1.17517 
19285 1 10.1807 -3.59317 -1.39223 
19287 1 -0.846113 3.25607 -0.462039 
16312 1 4.66594 -4.97226 4.39201 
16313 2 1.11955 -3.85473 0.473418 
5424 1 1.1986 1.63634 -0.645151 
2941 1 2.19288 -3.75863 -0.34438 
8685 1 -1.03949 1.3528 4.61021 
8684 3 2.26561 -1.2521 -1.83084 
8683 1 2.69196 9.09113 -1.55151 
11379 1 0.557656 -3.74245 1.58602 
11378 3 3.28206 -0.717411 1.67298 
11377 1 0.868535 3.6603 -0.726382 
613 1 3.40013 -3.91719 0.764479 
615 1 2.77599 2.57708 -2.31532 
614 2 -2.56369 3.52086 -4.59882 
14823 1 4.02311 0.831351 -0.457542 
14822 3 -0.43552 -2.08343 -3.32782 
5698 1 -2.3951 0.527096 -3.27104 
5699 3 -1.51493 -0.180377 3.96391 
5700 1 -5.48635 -0.29647 0.169399 
18548 2 -3.17376 -3.88804 -2.53018 
3592 1 3.41066 -1.11848 -0.0813733 
3594 1 0.868031 -0.23603 -4.21422 
3593 2 -1.09551 -1.65158 1.90472 
18999 1 0.857518 -2.3739 4.57774 
18997 1 1.99766 -2.64311 3.91694 
18998 3 -0.229874 -1.24682 -3.22911 
742 1 -8.19237 -2.90444 -2.10343 
16314 1 5.72593 3.7583 -0.387104 
7031 2 -0.133982 -4.65273 -0.53558 
7032 1 3.01271 3.50686 -0.641107 
7030 1 -3.64412 4.71366 3.26694 
16012 1 1.66158 0.885061 -2.01548 
16014 1 -0.770473 0.675166 -1.66209 
16013 3 -1.78838 3.35686 0.227031 
15170 3 -0.621138 -2.31516 0.375601 
1821 1 4.46438 -1.65388 3.6771 
1820 2 -4.07626 -0.39067 5.74754 
16931 3 0.965319 2.10421 2.09246 
16930 1 4.7199 4.14554 -1.80646 
15171 1 -1.08048 2.27493 4.63548 
1788 1 0.691407 -1.09838 -2.00525 
1786 1 2.47659 3.73632 3.48614 
1787 2 1.08902 1.83984 1.26573 
15861 1 0.715435 -1.8685 -3.41493 
1402 1 -0.539173 -1.82482 1.25146 
15859 1 2.91938 1.52712 1.04847 
15860 2 -1.09023 -0.06858 -1.39278 
20535 1 6.84249 4.4257 -0.362637 
20534 2 4.73979 -0.806315 1.07217 
16070 2 3.53846 0.865121 -0.998683 
16071 1 3.23389 -4.38182 -5.27854 
10079 2 -0.824883 -0.552969 -2.08122 
10080 1 -7.00041 0.560469 2.79217 
13728 1 6.9564 2.64672 -6.52047 
13727 2 3.41672 -1.23604 7.29786 
10078 1 -0.485331 -0.576331 -4.01997 
15360 1 4.4589 -4.42358 2.91528 
15359 2 1.24165 -2.0812 -1.61641 
2392 1 0.0570226 0.687803 2.93254 
12246 1 1.87567 -7.21585 -5.76888 
7784 2 -0.325638 -2.10119 0.842768 
7783 1 -6.23996 3.57288 -0.922765 
2608 1 -0.208172 2.10257 -0.0930402 
17965 1 -4.26605 2.3768 -3.28772 
12244 1 0.986117 -2.80158 2.92188 
12245 2 5.99627 1.78312 1.77431 
641 2 1.09158 4.52297 0.730689 
13572 1 -8.60052 -3.08254 -3.71731 
13571 3 3.37694 1.26496 0.860123 
13570 1 -5.78003 1.20983 0.327364 
640 1 1.09339 -3.81487 3.20323 
15896 2 -3.83789 -1.45325 -1.16693 
15897 1 -0.510345 -1.12955 -2.33506 
15895 1 0.481215 0.629616 4.30265 
16583 2 -1.13911 3.97264 -1.23873 
16584 1 1.87872 2.31284 2.29892 
2609 2 5.12705 0.0471336 2.91588 
2610 1 -0.476781 -1.4111 -2.74974 
5064 1 0.0738971 2.79735 5.6501 
5063 3 -1.95998 3.08188 0.0715111 
5062 1 3.18347 0.983166 -1.4529 
17145 1 3.01337 0.259201 1.34348 
17144 3 0.910608 1.47254 -0.401022 
1966 1 0.589489 -1.99273 1.61007 
1968 1 -3.02133 4.12782 4.05708 
16417 1 -1.56343 1.28581 3.88684 
7592 3 -2.74279 -2.00146 -1.74143 
7591 1 -1.79152 -4.88426 -2.81229 
15559 1 -0.221824 -2.28478 -2.71934 
8150 3 -4.198 2.06807 -0.380399 
8149 1 -2.16745 -1.87256 2.47853 
8151 1 -1.30753 2.47386 1.87474 
15732 1 -5.22024 2.39477 -4.9694 
7593 1 3.28997 -2.54871 0.970032 
4920 1 2.75504 -2.061 -7.16754 
4919 3 1.97558 3.03661 -1.3519 
4918 1 1.79415 -4.05402 -1.20832 
17052 1 6.4972 -2.99496 0.268124 
16418 3 1.93667 4.39455 -2.99845 
16419 1 -1.407 2.11063 9.01771 
9739 1 0.771956 0.0800808 -1.88091 
9740 3 -0.9803 -1.72116 1.20139 
3926 3 -3.46257 -2.97322 1.83818 
3925 1 5.45586 5.44301 -1.1257 
9741 1 2.81286 1.96336 -3.33339 
9881 2 2.1887 -1.48597 3.40333 
9880 1 -4.72673 -4.35643 -2.32533 
15642 1 0.671634 -2.46713 2.52732 
9882 1 -1.47547 0.101252 7.32825 
15641 2 -0.50116 1.36413 4.15508 
18475 1 5.01765 1.72982 1.88182 
18476 2 1.04034 0.539923 -2.40175 
18477 1 -1.23616 -6.69525 2.98804 
10338 1 3.93305 4.07189 1.33732 
10337 2 -1.66205 -1.10327 -0.317151 
10336 1 -2.90721 -1.56006 -0.232996 
15640 1 -1.25839 -5.20506 -2.66153 
597 1 -4.00443 0.694438 -3.60237 
595 1 -3.94138 1.61377 -7.38183 
596 2 2.60509 -1.42053 0.278286 
408 1 0.654202 -0.60697 -1.30659 
2943 1 -4.65617 -1.87375 -5.72267 
11346 1 -9.64871 -5.77314 -1.15031 
8694 1 2.34641 -2.27701 -2.44693 
8693 2 3.30289 -2.52583 1.40896 
8692 1 10.4081 -1.2387 -0.843137 
13416 1 6.81344 -6.41037 -1.72311 
13415 3 0.487076 -2.68856 1.96125 
13414 1 -0.688469 2.36585 2.35396 
5423 2 -0.941896 -3.04056 -2.9836 
19390 1 -0.565981 -0.636038 -5.73446 
5422 1 -1.74348 -0.541508 -0.333873 
18479 2 1.37831 -3.90848 2.87742 
18478 1 4.03157 -0.8474 -1.54171 
18480 1 -1.14783 -6.20464 -0.421941 
19391 3 -0.319994 -2.03714 -0.088735 
19392 1 -3.58318 1.56317 -2.34472 
14821 1 1.94546 2.50928 2.96435 
20073 1 -0.217825 1.28506 1.62466 
3700 1 5.55324 -2.20848 -3.21463 
20072 2 1.40936 1.85655 -4.36311 
9870 1 6.79274 0.231592 1.65348 
9869 2 4.56282 -4.35551 -0.662296 
9868 1 1.88696 -11.0518 2.09846 
20071 1 -0.13182 1.04268 0.742733 
1194 1 -2.03152 6.66393 -6.71766 
1819 1 -5.28158 -2.25941 -1.52986 
10341 1 2.16958 -3.92901 3.90669 
10340 3 0.880341 3.64842 -2.62388 
16932 1 -0.897304 0.690472 2.51253 
10339 1 3.77337 -6.97921 1.95711 
1193 3 2.7376 -2.17042 -3.62507 
11638 1 2.75769 4.44245 -1.97598 
15169 1 3.07357 3.36778 2.41721 
11640 1 0.993155 1.28367 0.655791 
11639 2 -1.6905 -2.03077 1.2272 
5898 1 2.89137 3.93056 -2.14622 
5897 2 -3.44027 4.299 0.843048 
5896 1 4.46375 2.4008 -0.54611 
14119 1 -1.47462 -0.954527 -0.643421 
20993 3 -4.03174 -0.402345 1.3901 
17058 1 4.15152 -2.50324 -1.01112 
16582 1 0.514123 -0.541745 -5.27853 
17057 3 -4.81467 -1.52824 -0.221647 
17056 1 1.41419 -1.65406 -0.922629 
9631 1 -4.84387 -3.56808 -6.95661 
9632 3 -0.296339 -1.15736 3.65121 
2541 1 -0.619823 -2.12852 -5.05463 
1669 1 5.10183 -2.55224 -3.89753 
19440 1 5.77249 1.87363 -0.912091 
1671 1 0.325407 -7.50087 1.72363 
1670 2 1.36905 1.66885 4.80562 
17967 1 -2.82249 -2.86484 6.01276 
17966 3 -1.93461 -0.487335 1.87764 
10133 3 1.83083 1.64118 2.2417 
10134 1 1.49808 -3.1066 -4.61318 
1967 2 -4.31728 -5.02039 2.02108 
10302 1 2.29405 -1.95815 -1.76811 
10027 1 -0.642714 4.09329 -0.11718 
10029 1 -0.420198 5.12099 -0.0666483 
10028 3 0.168777 2.28427 -0.542637 
14769 1 -0.826275 -1.01568 5.31304 
14767 1 1.49876 6.32978 2.86146 
14768 3 -0.943634 2.79308 2.33658 
15731 2 4.35506 2.31287 2.39858 
4875 1 6.17791 1.98962 2.10903 
15730 1 5.52895 -4.12494 3.76264 
4874 3 -0.0281875 -3.14265 -0.88099 
4873 1 1.89831 -3.31833 2.56592 
8622 1 1.56468 3.57629 -2.62293 
9633 1 5.53523 2.28944 2.90541 
8621 3 1.99403 1.42402 1.31346 
8620 1 3.94618 -3.14613 -2.57919 
17051 2 2.73477 -1.38472 -1.60641 
17050 1 -4.08019 -0.299039 -3.4733 
10132 1 2.34875 -5.28721 -1.96229 
10301 3 -0.291716 0.259991 3.05161 
7092 1 1.95752 -1.13529 -1.72291 
2551 1 -0.994039 3.50257 -1.05773 
2553 1 -3.21424 0.981759 -1.16281 
2552 3 0.197845 -4.18997 -0.33161 
7090 1 6.18848 -1.77728 -2.19834 
19152 1 3.33825 -1.64854 0.793096 
7091 2 3.05973 0.956595 -0.91519 
3927 1 -0.0620278 -6.53344 1.43759 
3552 1 0.340392 6.39593 -4.32991 
3550 1 9.78017 1.22335 0.354928 
3551 2 0.220686 2.28573 1.96408 
3994 1 3.41614 0.335328 4.01784 
3995 3 4.31445 3.20516 3.91515 
3996 1 3.70958 -5.32665 -2.96485 
9294 1 8.29532 -0.28734 -0.577422 
9293 2 -2.33277 3.4581 4.12789 
17869 1 -3.03021 0.154151 3.26054 
17870 3 0.674665 0.532825 2.67962 
19603 1 0.905368 -0.582377 3.664 
2908 1 -2.55331 3.2802 -4.08047 
407 3 -2.30667 -1.82758 -0.7015 
406 1 2.93284 -0.836861 6.23887 
13492 1 7.90798 2.01914 0.560528 
7462 1 -5.37894 -1.13757 0.287481 
7463 2 -2.5509 -4.63432 -0.282851 
13493 3 0.984654 -1.97071 2.46808 
17871 1 -2.58446 0.0309326 -5.15877 
7464 1 0.814741 0.800127 -1.86764 
19605 1 1.07386 0.253745 -5.3433 
19604 2 2.52703 0.759122 0.23149 
17555 2 -0.0331528 0.124071 -0.754337 
17554 1 -3.16619 -6.79734 -1.15408 
3234 1 0.153426 0.708121 3.55783 
3232 1 0.55168 -6.29797 -4.98877 
3233 2 -1.70301 -2.57709 3.46344 
1895 3 2.46259 -2.58177 1.66821 
10153 1 -3.66843 -4.47603 -4.49575 
1894 1 2.74171 3.49811 2.72456 
1896 1 -4.01704 -0.0539593 -3.18017 
10154 2 0.84118 4.89673 -2.95265 
1992 1 0.815506 1.41147 1.13757 
1991 3 -3.45214 1.35396 1.31806 
17556 1 -3.30236 -2.17012 -7.33594 
1990 1 6.56812 0.292229 1.06008 
4578 1 5.44038 4.09215 -3.12395 
4576 1 3.16647 4.94489 -0.272559 
4577 2 -1.43221 2.10179 -1.89693 
3702 1 -3.05792 -2.08847 1.4861 
3701 3 3.07064 0.747122 1.12134 
1192 1 2.45 -6.67282 3.44742 
13470 1 -4.00613 -5.27317 -1.04478 
12540 1 3.75389 0.652403 -0.0396843 
12539 2 2.01256 1.71252 3.1538 
12538 1 1.54513 -0.228381 1.19306 
13469 2 -2.05604 -4.04924 0.506968 
13468 1 0.0815233 3.55456 -1.01036 
12255 1 1.75591 -1.21956 4.46065 
12254 3 0.495319 0.839665 0.860748 
12253 1 2.59259 5.28381 2.16659 
6915 1 2.58815 2.8436 -4.63933 
6913 1 -0.654753 -1.11568 3.44004 
6914 2 -2.30837 -3.46607 0.814234 
4763 2 -0.307872 -3.59834 -0.00864735 
4762 1 1.97871 -0.965983 2.06834 
3434 3 -5.31943 -1.22161 -1.40512 
3435 1 -4.96017 -2.66233 0.887817 
20994 1 3.51717 -0.498619 3.16755 
20992 1 -4.15774 -2.98262 1.79322 
3433 1 0.191378 2.62411 -1.8445 
19480 1 0.384254 3.44629 -6.99517 
19481 3 3.09682 -4.9553 -4.67561 
19482 1 1.5297 -2.14315 -0.209494 
5868 1 -0.82467 -5.12237 5.16519 
5867 3 -0.218651 -1.88916 -1.32641 
5866 1 3.0619 -4.38262 3.1037 
10987 1 -9.15806 1.88659 3.3886 
19439 2 2.49653 -6.27504 1.05925 
317 2 -1.19279 0.0935176 -2.2149 
318 1 -1.0737 -1.52008 -3.02931 
2540 2 2.40601 -1.6129 -4.40686 
2539 1 -0.779734 -2.32745 -0.554099 
10989 1 -2.71149 -7.22002 -8.1564 
10988 2 2.24033 -3.5785 1.1455 
19438 1 -1.3255 -2.28589 1.3675 
316 1 2.99348 6.05672 -5.94105 
7622 3 3.96626 -2.3001 2.01158 
7623 1 -5.11205 -1.9327 -1.62722 
7621 1 0.76316 -3.59697 2.4442 
10300 1 -0.875211 0.319912 -0.631392 
6917 2 -1.22247 -1.46614 0.00741626 
6918 1 1.72822 -1.17523 -3.08779 
6916 1 -2.02806 -0.420375 6.18722 
6018 1 -2.20203 0.00773994 1.24629 
6017 3 0.989275 -1.65848 -2.53138 
19395 1 6.65867 -0.35914 -1.6358 
19394 3 -1.66159 4.78052 -4.33719 
19393 1 -3.09082 0.232668 0.401762 
6016 1 1.44089 -2.31199 -0.46859 
2791 1 -0.48966 -4.37976 5.19369 
2793 1 -0.550926 -1.20374 -5.11791 
19151 3 2.36089 1.71277 0.0532442 
2792 2 -3.33356 0.333728 4.83287 
9292 1 -2.57856 -7.85559 2.54114 
19758 1 4.83588 -1.9026 3.12529 
19756 1 -1.64528 -1.41832 5.97175 
19757 2 1.04165 3.99377 1.03969 
19150 1 1.2377 5.29354 1.22044 
20790 1 5.09983 -2.07074 -2.20993 
7848 1 5.21833 -1.85005 -1.14631 
2909 2 2.75954 -3.92287 0.763155 
2910 1 1.03237 3.5445 3.10966 
17110 1 4.24384 2.31625 3.04702 
17112 1 -3.97722 6.05568 5.33813 
17111 2 -2.2775 -1.01038 2.4056 
7847 2 1.82931 1.07071 -0.220038 
7846 1 5.39379 6.71808 -1.58366 
738 1 3.36687 -0.633094 0.397602 
737 2 -3.04901 3.4758 -1.39293 
736 1 0.182414 4.43494 2.1907 
13494 1 1.27849 -3.45711 2.48466 
9826 1 -7.32582 4.67497 0.990808 
14224 1 -1.23914 2.88752 -4.17553 
14225 3 0.309424 -5.0404 1.32193 
14226 1 1.20579 0.4624 -5.85231 
8073 1 2.64707 -4.36291 -4.17595 
16091 3 -0.752048 2.55877 -5.65034 
16090 1 5.44609 8.39126 -3.34861 
16092 1 1.94262 2.3781 1.97955 
10155 1 1.29378 -4.94743 -1.37129 
10815 1 0.555938 4.49383 5.40092 
10814 2 2.70748 -1.41135 -0.785234 
10813 1 -2.57187 0.618799 -6.7009 
8665 1 6.69664 2.79531 -0.257084 
8666 3 2.2942 -0.672409 -2.50068 