ITEM: TIMESTEP
50000000
ITEM: NUMBER OF ATOMS
585
ITEM: BOX BOUNDS pp pp pp
0.0000000000000000e+00 5.0000000000000000e+01
0.0000000000000000e+00 5.0000000000000000e+01
0.0000000000000000e+00 5.0000000000000000e+01
ITEM: ATOMS id type vx vy vz 
2243 3 -3.88126 -0.410673 2.58474 
5031 1 3.46985 4.3517 2.81316 
2244 1 -0.0578922 -5.17682 -0.346071 
294 1 0.895197 -6.96169 0.872314 
292 1 -2.26747 2.12151 -8.28232 
2242 1 -4.48023 -3.99197 -0.438299 
293 3 1.73734 -0.472255 -5.86511 
4756 1 5.47109 -6.98252 5.90957 
5030 2 -3.40927 1.94621 0.389032 
5029 1 -0.223424 -1.86792 -5.65053 
259 1 -6.80531 -1.82393 -3.72735 
5776 1 3.85484 -3.17907 -2.34166 
260 2 -4.1241 2.88807 0.985736 
868 1 -7.12203 -1.56293 1.94757 
869 2 2.8002 0.455023 -0.370739 
870 1 2.03619 0.214388 -3.25271 
11882 2 2.16564 -1.79861 -1.0955 
11881 1 -0.0763546 -0.13633 1.52097 
7679 2 0.40948 2.89807 -2.68205 
7678 1 -1.79908 1.98586 5.21732 
5777 2 2.27621 4.67887 -1.39169 
5778 1 1.66345 -4.0934 5.70059 
19675 1 1.98125 -1.62124 2.25478 
7852 1 1.18467 -5.10194 1.89473 
15378 1 0.496949 -0.0243939 1.94564 
15377 2 -0.0375407 1.11308 -0.778771 
21505 1 -4.35661 -7.54072 -1.38352 
15376 1 3.89384 -1.95413 1.23919 
7853 3 -1.23799 -3.40828 -3.75366 
7854 1 -2.99724 -5.69296 -0.966348 
15486 1 4.16871 2.81295 -8.66649 
19676 2 -0.851207 2.15412 0.640892 
15485 2 -0.0128859 0.962213 0.971806 
11883 1 -1.64955 0.293704 -1.67996 
19677 1 7.0553 -3.85825 0.77756 
15484 1 3.41935 0.334293 2.98754 
2280 1 4.33801 -6.60341 0.628517 
2279 2 0.283616 0.699998 -4.20876 
2278 1 -3.86769 -0.0141593 -12.6283 
2446 1 1.53279 1.31932 -2.08271 
2447 2 -4.20907 0.348447 -0.958022 
14216 3 1.45496 0.919946 -0.0612263 
14215 1 4.57985 -1.87752 3.71402 
16 1 -0.238073 2.86921 2.27863 
17 2 2.95958 -1.84978 2.61994 
18 1 2.75094 -1.36724 -1.17397 
14217 1 1.10795 2.15971 0.65461 
2287 1 -3.92039 -5.51833 3.90101 
2288 2 -1.54619 -0.0998834 1.3323 
13647 1 -0.712769 0.3982 -2.5211 
15783 1 -1.69246 -3.58948 1.48306 
4757 2 -5.25929 -4.12881 1.28408 
2289 1 0.0374371 3.88071 -2.17827 
15135 1 -0.715417 -1.02227 1.91106 
15134 2 -0.243619 0.590336 2.17732 
15133 1 -0.235001 -7.86745 -2.70479 
4758 1 -6.09685 3.87986 3.26712 
2448 1 0.0894901 1.80942 -2.77167 
3861 1 3.56359 -3.14071 3.1857 
7570 1 0.42946 -1.85591 -0.71128 
7571 3 0.107448 -2.53783 -0.0219489 
7572 1 -0.659348 0.217613 0.920362 
13646 2 -3.00907 1.29413 -0.209537 
13645 1 2.0297 4.07056 -6.59539 
21097 1 0.937515 4.68632 0.0714267 
21099 1 5.54958 5.90202 -1.00202 
21098 2 3.33319 0.891248 1.2448 
6532 1 -4.9053 -0.467648 3.28917 
6533 2 -0.337286 1.54222 -1.4316 
7680 1 1.30996 0.459644 4.12969 
261 1 0.614491 -1.84144 2.44274 
1156 1 0.124427 -3.25698 -2.86222 
1157 2 -0.31482 0.322212 -1.8382 
1158 1 6.97629 3.62204 -2.28401 
14901 1 -3.83641 0.103266 3.73772 
2296 1 4.7036 -7.80763 2.08457 
6534 1 3.87737 -4.68769 2.15397 
14028 1 2.42201 4.41123 -8.02622 
18780 1 -3.72877 -0.936096 -2.91945 
7586 2 1.20939 -2.16022 -1.38739 
14233 1 -6.42481 -0.252804 1.48186 
9942 1 0.457123 -4.42704 0.591728 
9941 2 4.11347 -3.37754 0.177469 
14234 2 -2.42789 -2.10884 7.56391 
14900 2 -0.112448 -1.62784 -1.23402 
9940 1 -2.14939 -2.2058 3.20927 
21507 1 -3.88779 4.45837 -0.843945 
21506 2 1.74435 3.7619 -2.2661 
9286 1 3.90594 1.7241 -3.22895 
1110 1 3.49023 -2.45291 -0.854296 
1108 1 -4.72949 7.54344 0.882782 
18457 1 4.09415 0.898046 1.88892 
1109 2 1.46399 2.54054 -2.56325 
12151 1 -3.22144 2.14705 -6.6559 
16332 1 -1.12601 4.25742 10.2282 
16331 2 3.68892 -0.769189 -3.31188 
470 2 0.705278 -2.24068 -1.55752 
469 1 0.316357 -4.00778 -7.34191 
16330 1 -0.732301 4.7252 2.75486 
15241 1 -1.39785 4.03403 -0.922991 
18458 2 4.13025 1.03343 6.60535 
18459 1 -8.26956 -5.68087 2.48651 
12153 1 2.59437 -2.90802 -3.42705 
12152 2 -1.74523 1.00331 1.91734 
15781 1 -4.91752 -0.873895 1.7891 
15782 2 -4.84481 2.85546 1.95415 
122 2 -4.42498 -0.310554 2.97249 
3860 2 1.07853 2.30136 0.569627 
3859 1 6.77481 -3.52648 -2.67175 
15555 1 -1.9707 0.158142 -4.12317 
15554 2 1.16786 -2.93715 3.07661 
123 1 1.71341 1.55049 -2.8193 
7152 1 -2.12298 -0.823477 0.297515 
9216 1 0.267864 -1.7315 0.46341 
9215 2 2.22136 0.637043 -2.80046 
7151 2 0.264875 -0.873694 0.501292 
8136 1 3.2496 -1.39241 -0.747533 
15243 1 -1.42355 0.892182 0.404385 
15242 2 -0.576891 -1.31939 4.15422 
8135 3 5.78937 1.39412 1.12932 
8134 1 -2.47693 2.26576 -1.98482 
18393 1 1.43501 0.323774 2.87962 
18392 3 -2.10951 -4.43256 2.34018 
18391 1 -1.02999 9.1851 0.0242082 
18134 2 -3.38161 -2.4398 3.40183 
18133 1 -6.37811 -1.60898 -1.07589 
121 1 -0.117448 -0.866423 1.20708 
18135 1 -8.01848 -0.759834 1.46112 
15553 1 0.00857821 0.656071 1.36766 
8496 1 4.96745 0.691315 -0.345325 
8495 2 3.5473 -3.08619 0.999381 
3630 1 -0.704996 1.35047 -0.12499 
8494 1 4.42659 -1.06323 -1.89619 
7150 1 3.73907 -1.25222 -0.549861 
9078 1 4.11878 3.34654 3.86634 
17256 1 -0.386811 1.91249 0.56198 
14878 1 -3.32626 1.35186 0.253463 
14879 3 0.655406 3.5137 -0.153733 
14880 1 2.16418 -2.21881 2.64965 
9077 2 -0.125307 -0.600119 -2.75498 
9076 1 3.75309 4.84213 6.93805 
17255 3 -1.18899 -1.71107 -6.79537 
17254 1 0.446614 0.609419 -1.25177 
18441 1 0.643976 4.53201 5.65403 
18440 2 -0.305931 6.40944 0.983558 
18439 1 -5.58264 1.17825 0.0388471 
6404 2 1.45211 -0.63159 0.637692 
6403 1 1.75218 0.480027 5.60592 
2041 1 5.39308 3.92373 -2.51065 
2042 2 1.88783 1.25633 -1.16921 
2043 1 -1.96395 -2.29493 0.891112 
7404 1 2.80263 -4.05618 -0.160045 
9685 1 1.99007 5.87647 -6.92978 
9686 2 -1.24748 2.06557 -5.70617 
17482 1 -7.08131 0.927187 4.29745 
9687 1 1.92716 1.02352 -1.56737 
18778 1 1.59002 2.12465 -0.311657 
18779 2 -0.636892 -3.21107 -0.304577 
462 1 -4.96715 -4.41975 -5.06356 
461 2 1.36512 -4.44853 2.28985 
17483 2 0.765497 2.90307 3.30072 
17484 1 -1.60997 2.51804 -7.43414 
460 1 -5.48222 2.2164 -0.0418402 
1366 1 0.346863 -5.28038 0.501767 
1367 2 -0.16653 -1.88708 -3.10727 
1368 1 -5.97982 -0.246214 -1.50644 
19864 1 -4.24654 -2.48022 -4.02473 
19865 2 -1.15889 1.8516 -1.37769 
19866 1 -2.17623 -0.473026 -3.40181 
20856 1 -0.296107 4.52696 -2.99807 
20855 3 -1.81314 -0.372279 -1.46367 
20854 1 0.285768 -0.105553 -0.478026 
7335 1 1.60784 -0.693303 3.37545 
7587 1 -1.95763 0.35034 2.66185 
7334 2 -0.578851 -0.390097 -2.70026 
1693 1 -3.50886 1.64627 -0.628973 
7333 1 0.507014 -1.03506 -2.4568 
8809 1 2.36135 -1.18044 1.1917 
8810 2 -0.184775 -2.31032 -0.638491 
8811 1 1.50947 -4.34961 3.69627 
14235 1 -2.30926 0.497726 -4.72283 
14899 1 -0.0430953 -3.78673 1.21478 
7403 2 -1.83839 -0.603563 -0.767153 
7402 1 -0.806594 4.86631 5.12377 
13529 2 -1.30354 -1.41352 3.01585 
7585 1 -1.36435 -2.28918 -0.806438 
10588 1 -0.478452 -2.83984 -0.413023 
1694 2 -0.272715 2.50471 -2.17732 
10589 2 -1.90049 -0.0408321 -5.51811 
16711 1 -4.53277 -1.58372 -4.4794 
16712 2 3.82517 -1.06165 3.25777 
1695 1 -1.14801 -0.627118 -0.909887 
13530 1 0.328728 4.91283 -5.97649 
9287 2 -1.70496 -0.946332 -0.582013 
567 1 1.65506 0.635791 3.95921 
10590 1 6.33466 -1.72348 -0.604425 
9288 1 -3.14602 0.121473 -0.651858 
9054 1 -3.24989 0.681552 1.9521 
9053 2 -6.38006 2.2847 -4.02385 
9052 1 2.59426 2.64082 -1.70996 
5871 1 4.48506 -4.35395 3.66488 
566 2 3.96501 -0.0433513 -2.34117 
565 1 -2.14709 -7.91057 4.0519 
12876 1 3.13772 4.60934 -1.92161 
471 1 6.76166 -3.30016 2.28804 
12874 1 -0.504112 2.75122 -1.51793 
12875 2 -1.83259 1.72303 -0.777043 
5121 1 -8.50278 -0.959429 -3.10137 
5120 2 0.0329989 -3.41482 -1.96156 
5119 1 8.46386 -3.46306 -3.15676 
5983 1 5.98353 -3.95473 -2.77403 
13123 1 -4.71147 0.150194 -2.0355 
13124 2 -1.79773 0.726101 1.24347 
11532 1 2.54164 -7.04191 1.64555 
16713 1 -4.95249 1.74554 5.21458 
13125 1 -2.06706 3.9605 -1.54485 
6321 1 -2.83815 -2.64671 0.279265 
6320 2 -0.767254 1.32479 1.74177 
1753 1 4.382 -2.77266 -0.0362537 
6319 1 4.03366 -2.1112 -0.257029 
1755 1 -4.29366 -0.300048 2.68935 
5869 1 -4.22346 -0.00981325 -0.726567 
5870 2 1.29406 -1.93757 2.94433 
1754 2 1.24669 6.39904 -2.81281 
12125 2 0.78514 3.03941 0.905763 
12124 1 1.49859 -2.66862 -6.11943 
18000 1 -3.84886 -3.88504 2.53914 
12126 1 5.22442 -6.01858 -1.74243 
8160 1 2.52446 0.3747 -4.1128 
8159 2 -0.820409 -1.15181 4.5872 
17999 2 3.48981 -1.32165 1.22187 
8158 1 -2.884 1.05518 -0.0222996 
5984 2 1.11519 -4.87718 3.01189 
16746 1 2.48113 -0.406146 -0.978244 
11086 1 -0.0177854 -5.20337 -1.42333 
15348 1 2.48378 1.59816 -3.76605 
12468 1 -3.65025 -2.2201 1.98338 
12467 2 -0.0891708 -5.58714 -1.94024 
3628 1 1.94988 3.0443 -0.677835 
12466 1 -2.65013 4.71503 -2.9069 
15346 1 -3.52671 0.851424 1.59113 
11088 1 6.83948 1.43848 3.9992 
11087 2 1.7347 -2.21124 -0.226303 
15347 2 -1.10603 0.691088 1.1203 
3629 2 -5.14845 1.70893 1.4335 
5985 1 -2.34453 4.64192 -0.423141 
13617 1 5.27132 1.16252 -0.680523 
13616 2 0.591384 -1.84231 -4.39564 
13615 1 1.97815 0.406809 -1.32965 
16744 1 7.37472 -2.2206 -2.16891 
16745 2 -3.51641 -4.23534 -1.49678 
14 2 5.86829 1.95737 -2.44995 
9214 1 -1.09668 -0.266593 -0.221861 
195 1 -2.82459 6.75637 3.20714 
194 2 -0.758228 -0.942283 -0.981041 
193 1 0.356296 -0.56906 -9.90398 
9499 1 -5.3096 3.29817 0.172174 
9500 2 -1.0032 -0.670313 0.40093 
17537 2 0.320437 1.06498 -1.70099 
17538 1 -0.871167 -1.80361 -5.15306 
6405 1 -0.774954 6.24382 -0.0734583 
13 1 1.88888 -0.743659 -0.601759 
17536 1 1.45377 -3.5876 0.222385 
2863 1 -4.69883 -5.05263 -2.51266 
2864 2 -2.54573 2.82496 2.53626 
2865 1 -3.17758 1.38672 -3.20527 
8035 1 -4.20645 -0.212937 4.60722 
8036 2 -1.85008 -0.56413 1.6104 
8037 1 4.98325 3.68867 -2.8355 
18773 2 -2.3743 -0.796123 0.625073 
18772 1 3.04025 -2.1253 -1.94128 
9918 1 1.57871 -0.309542 -2.85332 
9917 2 0.210784 0.028734 2.42353 
9916 1 4.1143 3.35417 6.66448 
7101 1 -0.529837 6.87422 -3.71307 
8901 1 1.08982 5.24127 5.73323 
13528 1 1.79539 -3.17283 7.2345 
7050 1 -4.80312 3.51273 3.47838 
12918 1 4.61865 1.06358 0.77921 
12917 2 -1.81808 4.03204 1.54586 
14104 1 -4.35637 -3.36232 2.54256 
14105 2 -3.57401 1.99924 4.80813 
14106 1 -1.61388 -7.78462 3.6577 
6340 1 2.89822 7.7029 5.60519 
17998 1 -1.57479 4.54818 -1.63348 
7100 2 -0.974312 -2.2139 -3.26735 
19588 1 0.287205 -0.401676 -2.52634 
19589 2 1.12626 -1.07965 2.44181 
7099 1 4.31118 -5.62279 -0.0968394 
19590 1 1.05385 -0.00464504 3.2571 
8900 2 -0.0516168 -3.27773 -1.58478 
8899 1 9.84141 2.52795 -0.882933 
11531 2 -0.232683 -0.128153 -0.531518 
15981 1 6.82531 -1.28762 2.84504 
12916 1 -5.84292 -1.42549 6.38908 
15980 2 -1.7158 -1.05734 -0.0543635 
15979 1 -1.83297 4.07879 4.47556 
11530 1 -7.97862 3.27202 -2.42474 
13772 2 0.142746 -1.43775 0.971091 
6619 1 -2.55283 -2.65252 -1.01115 
3516 1 2.30788 3.92117 -4.73281 
6620 2 -0.788924 1.01267 3.18908 
21273 1 -2.67021 -1.83105 -1.82092 
21272 2 0.369877 -1.39292 2.27244 
21271 1 -1.42116 -0.84695 -3.20169 
21036 1 -3.30783 -2.41919 5.09193 
21035 2 0.28249 -1.41648 1.44117 
20764 1 -11.4314 -1.41012 -5.32845 
20765 2 4.8406 -1.98033 -0.525514 
20766 1 -8.55211 -5.77503 1.1452 
4021 1 -1.2162 0.117074 -1.62041 
4022 2 2.05431 -0.583627 -1.48753 
4023 1 0.459383 -0.929763 -3.70939 
7419 1 -5.4772 -0.765625 -0.889405 
7418 2 0.311665 -1.49065 1.28302 
20839 1 2.72191 2.28824 4.58249 
20841 1 -4.65179 -5.17421 -5.98301 
20840 2 1.06017 -2.01609 -0.622743 
13773 1 0.307341 -1.84019 -1.58755 
4999 1 -4.01016 1.28529 -6.67521 
5001 1 0.961885 -1.60745 3.25563 
5000 2 -5.20293 -2.16148 3.27293 
6621 1 3.25223 5.40147 4.25791 
14559 1 2.94652 -2.64106 3.75752 
14558 2 0.493419 2.40289 -0.503675 
14557 1 -4.91391 2.9083 -2.37266 
15 1 1.26929 -7.61665 6.11223 
5909 2 5.84261 0.682483 -0.535225 
5910 1 1.923 3.91626 4.3859 
9501 1 -1.55623 -0.192136 3.55872 
1152 1 3.41304 -2.99356 -0.652689 
1151 2 -1.09907 -1.8959 3.18152 
1150 1 -1.67384 0.476791 4.58853 
9187 1 3.79957 2.97123 -2.31897 
17994 1 -0.484426 -0.246097 -4.78158 
17993 2 2.65135 3.30686 0.701128 
17992 1 1.37937 4.4202 0.711315 
7417 1 2.51562 0.0977769 -1.62173 
18874 1 0.786668 -5.77081 -2.853 
18875 3 3.4141 -0.17335 2.4121 
20718 1 -0.806991 4.51992 -0.683827 
18876 1 3.43249 3.53324 0.705806 
8587 1 5.71397 3.46968 1.39549 
8588 2 -3.26007 5.47997 0.678758 
15202 1 -5.22791 -1.46143 -1.98795 
15203 3 -1.14998 -0.86774 -8.07851 
8589 1 0.365775 -4.42418 -0.39843 
15204 1 2.89943 -4.43633 -2.83969 
19592 2 1.05026 -0.135367 0.447768 
19593 1 4.35901 1.50881 2.45747 
19531 1 -0.792985 1.53639 0.213747 
19964 2 6.18483 -0.538193 -1.60679 
12417 1 -3.91398 2.72936 -4.31227 
19965 1 2.69132 -2.11249 -0.74674 
19963 1 -0.985717 7.11888 -1.1601 
12416 2 -0.188974 -0.0213 -1.61076 
603 1 -1.11745 -1.33136 -3.19092 
13663 1 -4.20294 2.8005 5.65823 
19399 1 -2.38049 4.65481 2.09433 
601 1 1.32663 -0.912381 -3.71235 
19400 2 -1.08111 -0.260846 -1.1257 
19401 1 2.48584 6.88772 -0.46666 
20194 1 -5.70309 2.75353 -2.32823 
602 2 0.794549 -1.74847 -0.0420413 
7049 2 2.26177 2.27214 2.36197 
7048 1 0.731211 -0.0527495 -1.93362 
2076 1 -6.01852 -0.936862 -0.519473 
2075 2 1.65522 6.29989 -1.61348 
17090 2 1.2927 -1.23968 3.77994 
6341 2 2.21986 0.449991 -0.855481 
2074 1 3.77553 0.315771 4.64002 
10375 1 1.01543 6.89107 -1.07903 
10376 2 -3.2015 -1.27694 -0.277602 
7023 1 0.00884246 2.56771 1.977 
6342 1 -2.4569 1.71228 0.997889 
11232 1 4.62066 4.45629 -4.32674 
11230 1 -1.36635 5.76809 -0.754429 
11231 2 -2.48069 1.41663 2.8086 
12878 2 1.36732 -2.59306 4.27898 
13581 1 -3.8612 1.00175 -2.77707 
17089 1 -7.01672 1.76101 3.48694 
6715 1 -1.57766 -7.47882 -0.348811 
20196 1 4.05029 4.87801 -1.79809 
6716 2 2.58542 -1.31043 4.30128 
20195 2 3.76848 2.00415 1.79125 
13580 2 0.559249 -1.03332 3.38131 
7021 1 3.19694 4.22832 6.12373 
6717 1 0.959106 6.35909 -4.0249 
12877 1 -1.30005 1.34213 -5.82948 
13579 1 1.41367 0.563454 -1.55461 
13771 1 -0.125803 3.62542 -4.8257 
2065 1 -2.77674 -9.74816 2.05429 
2066 2 -5.1084 2.25963 4.15302 
156 1 -2.65552 -2.54609 3.20612 
4094 2 -3.41865 -3.09081 4.45135 
14010 1 2.13378 -2.45123 0.465981 
3515 2 3.47078 0.187321 0.808188 
2067 1 -4.40398 1.86303 5.4225 
4095 1 1.67044 3.14897 0.819786 
154 1 -1.56902 -2.51358 2.25675 
3514 1 -0.0714658 -1.78291 2.41006 
155 2 2.8352 -0.310435 4.95074 
7022 2 -1.08351 -4.11565 1.04344 
6107 2 -4.13261 -3.10294 0.827692 
14305 1 1.89207 1.86343 1.25499 
14306 2 3.49563 -3.90107 -0.0351115 
5908 1 -2.32151 0.366743 3.43803 
14396 2 -6.18671 0.166797 -2.59555 
21034 1 -0.669882 -2.99071 -2.97721 
7515 1 -0.254953 -4.12974 2.37007 
14395 1 -0.305148 -3.37747 -2.6095 
7513 1 -2.33693 0.931583 0.658821 
7514 2 -5.52148 1.68768 2.24223 
9188 2 -5.09556 3.333 -6.8681 
9189 1 -1.64655 -1.29245 1.85137 
15402 1 -2.98248 -5.83102 3.35815 
20717 2 3.92411 2.92529 -1.32733 
20716 1 -0.194409 -2.65774 -1.14998 
4846 1 -1.84118 7.2865 2.53251 
14307 1 4.55897 3.02393 -5.70483 
4847 2 -4.21869 6.20474 3.17242 
15392 2 2.62546 4.21241 2.44455 
4848 1 -1.42313 -1.26348 1.51245 
15393 1 3.71251 -2.49406 2.59853 
15401 2 1.77978 -0.443304 -3.21023 
13301 2 3.14206 -0.443101 1.10812 
15400 1 5.80548 -2.56727 -1.3212 
13302 1 -1.66483 2.46683 0.0281747 
15391 1 -3.00617 -4.42176 4.71055 
11663 2 -1.3669 -0.0313107 -2.99831 
13960 1 -2.5445 8.64894 2.96106 
2652 1 -3.19751 2.28324 1.6533 
11664 1 3.95855 4.16593 0.463057 
2650 1 -2.0358 6.57561 -4.47269 
2651 2 -2.90623 1.31252 0.365541 
19532 2 -1.32885 6.41598 -4.12888 
20283 1 -3.48892 0.469874 -1.91992 
19533 1 -2.00748 -2.64606 -3.83028 
14974 1 2.34336 -4.00509 2.57481 
20281 1 3.3993 -1.67177 -1.34159 
11662 1 5.80595 2.19642 -2.53433 
15907 1 -1.15255 -5.23925 -5.38102 
14672 2 -0.108331 -0.858234 -1.66133 
14671 1 3.38864 -4.38394 3.47602 
4938 1 -1.35829 0.808544 6.38461 
14673 1 -6.8878 4.58512 4.45772 
4937 2 -4.84239 -0.885624 -5.22155 
4936 1 0.771339 -4.89598 -1.69701 
19610 2 2.61783 0.71585 -4.86351 
19609 1 -6.03311 0.946107 -1.15862 
15651 1 -0.326496 -2.08319 -2.75564 
15650 2 -5.01511 -4.57774 1.23211 
17091 1 -5.20811 0.560569 -1.93496 
10377 1 -2.05752 -5.21613 7.06029 
15908 2 1.2727 2.06845 0.757623 
15909 1 -1.17198 6.16197 4.8916 
8518 1 1.76763 2.4442 0.643478 
8519 2 -1.56929 -1.81503 -1.9782 
12879 1 0.798456 -3.27915 -4.04781 
2635 1 -1.66218 -2.4099 0.465879 
13665 1 2.40325 -5.33123 2.05732 
2636 2 -3.52491 -0.891554 0.96499 
2637 1 1.47261 -5.08998 -4.41386 
13664 2 0.0646537 2.83508 0.088377 
14181 1 -0.048796 -0.867111 0.952347 
14180 3 2.34006 2.15941 -2.70453 
14179 1 -1.69283 -7.95518 -9.42076 
688 1 -3.89909 -3.31244 -4.74168 
19611 1 -1.4727 -1.00344 3.66204 
14009 2 1.97266 -5.02717 -0.60592 
14008 1 1.94593 -0.440634 3.58038 
1023 1 1.29374 3.81986 -0.585568 
1022 2 -0.766813 0.373426 -1.48562 
4093 1 -2.32149 -6.1347 -2.78637 
3490 1 1.90865 2.78781 0.347338 
19998 1 -1.1376 1.60605 1.10327 
15649 1 -1.70733 -0.516715 -3.52777 
3492 1 2.57821 2.86604 -0.444391 
3491 2 0.314797 2.45546 2.15322 
19997 2 -0.167925 2.16849 -1.86313 
8520 1 -0.180169 -2.334 -7.25719 
898 1 -7.24915 -2.33182 0.0866176 
899 2 1.30514 1.16579 -0.603046 
900 1 3.26415 0.437381 5.34252 
769 1 -1.63353 1.72116 7.71408 
1348 1 -6.26604 -4.93918 0.599034 
6108 1 3.59331 1.31552 -1.20379 
1349 2 -3.83031 -5.47908 0.777844 
6106 1 0.833028 -3.54484 2.21152 
689 3 1.1362 0.307521 1.61228 
690 1 2.08229 -1.91402 -5.17548 
20478 1 -1.27016 -0.568344 -2.88834 
20477 2 -0.887224 1.15024 0.749605 
8681 2 -3.85392 -3.20114 4.04271 
14397 1 -0.735324 1.36749 3.59036 
19996 1 -9.36871 -3.82796 0.745819 
9000 1 -3.57386 -4.90706 3.17025 
8998 1 -0.0260288 3.80604 3.24679 
8999 2 1.21484 -5.1842 -1.0661 
21355 1 0.887606 -6.81914 5.1492 
21356 2 4.6196 -0.128328 -3.97151 
8680 1 -0.963985 1.86172 2.46665 
14707 1 -4.62087 7.60452 -1.41076 
2889 1 -9.96867 3.35152 -1.74261 
14709 1 -2.59639 -0.714553 -1.41091 
2888 2 -0.118674 3.52145 2.35572 
14708 2 0.347589 1.89555 -2.95605 
2887 1 3.41355 1.52673 1.22963 
12864 1 0.196852 -1.91176 -0.66968 
1350 1 -2.20289 5.75861 1.29966 
21357 1 -1.53029 -0.0128481 0.501873 
13300 1 0.218706 0.735985 3.80964 
13556 2 -0.629183 -1.51587 -2.30093 
14975 3 -1.23439 -5.29899 2.69229 
13555 1 4.19888 -3.18722 1.38749 
14976 1 4.5991 -0.722656 -1.53608 
13557 1 3.05986 0.967831 -3.94483 
12950 2 5.66149 1.18979 2.97307 
1021 1 2.30002 -1.23614 -4.03271 
703 1 2.64998 -1.68547 -3.68078 
704 2 0.454083 -3.96638 3.59349 
705 1 4.55292 1.05167 0.615045 
770 2 -1.17639 -2.65705 -0.261352 
4498 1 5.55667 1.53332 0.860441 
4499 2 -2.3313 0.578555 -3.41211 
12949 1 -3.82106 0.196529 -1.34754 
4500 1 1.80659 -2.91806 0.397196 
771 1 -6.9815 2.37188 9.97831 
20476 1 2.39684 -0.310825 1.02116 
307 1 -1.77397 1.57898 -0.995808 
308 2 7.29036 -4.47453 0.593104 
309 1 5.87316 -2.63196 -1.34231 
8682 1 1.33048 1.68492 4.66107 
3739 1 2.33558 -1.34777 2.31643 
3740 2 -0.246344 0.00248322 -1.77472 
3741 1 -3.00716 -2.75562 -1.87507 
2464 1 -2.50018 1.08672 0.449232 
2465 2 1.07244 -0.871258 -0.635582 
12863 3 2.85737 -2.89014 -0.394427 
12862 1 -2.73124 3.27711 1.94172 
4111 1 -2.41723 -1.67246 -0.591639 
12951 1 -2.94274 1.15773 0.658029 
4113 1 3.88092 2.63562 -0.193157 
4112 2 0.350951 -2.03353 -4.70595 
2145 1 -1.32695 -1.70883 1.71269 
2143 1 -3.10119 0.41936 -1.67153 
2144 3 -0.0420634 1.39248 -3.18279 
2466 1 1.30069 0.395883 7.92034 
5658 1 -2.06492 -3.30112 0.732157 
5657 3 -0.851553 -1.57097 0.796641 
2298 1 -2.62463 -4.20535 -0.125146 
14027 2 3.6588 -0.201765 2.82984 
2297 2 -4.5775 2.51199 -3.37273 
14026 1 4.77549 4.54217 -2.75049 
5656 1 1.14998 -0.853958 8.24429 
16050 1 -1.0546 -3.94644 1.45038 
16049 2 -0.833931 3.27672 2.80872 
16048 1 -1.92123 0.546265 -3.28147 
4161 1 -1.32396 -5.08731 -1.09124 
4160 2 0.174088 0.792328 -3.40295 
4159 1 -3.95612 5.00487 4.0597 
18774 1 9.31681 0.180954 2.87636 
20442 1 -6.6313 -6.60998 2.08668 
20441 2 0.0918285 0.540886 -3.69809 
5668 1 5.93895 2.40002 0.810885 
20440 1 5.06405 -3.61396 -2.59251 
5669 2 -1.19589 1.28369 0.228008 
5670 1 -2.55266 -0.0285155 -4.5472 
3181 1 1.36058 -0.752733 -2.67918 
1531 1 4.11149 1.47133 1.38436 
1533 1 3.73596 -0.639326 -5.68896 
20469 1 3.24991 -5.3426 -0.569993 
1532 2 -0.360633 0.931835 3.05558 
13961 2 6.54676 -1.76898 0.596511 
13962 1 1.1406 -4.46181 3.76004 
3183 1 -0.21907 0.630358 3.10041 
3182 2 1.64584 -3.89855 -0.218547 
19591 1 0.608351 1.95081 3.39698 
20468 3 1.35582 1.00898 -0.502297 
20467 1 1.95072 -4.20586 4.50565 
20282 3 -0.203607 -1.09775 0.890489 
15622 1 -0.0904443 1.82565 8.53893 
15623 3 -2.88795 -0.903541 -1.37638 
15624 1 -2.90232 3.037 -0.96874 
12415 1 -3.45398 7.01699 -3.65437 
