ITEM: TIMESTEP
15000000
ITEM: NUMBER OF ATOMS
63
ITEM: BOX BOUNDS pp pp pp
0.0000000000000000e+00 5.0000000000000000e+01
0.0000000000000000e+00 5.0000000000000000e+01
0.0000000000000000e+00 5.0000000000000000e+01
ITEM: ATOMS id type vx vy vz 
17465 3 1.46874 0.0133389 -1.3818 
17464 1 0.570922 -8.84997 2.83932 
17466 1 -1.26615 3.66726 3.35703 
13333 1 -1.95935 3.6346 0.996572 
4221 1 -0.577379 -1.25989 -3.79156 
4220 2 -3.70032 3.57061 0.245877 
4219 1 0.950395 -1.85746 4.17605 
363 1 -1.80667 0.614109 -6.06799 
9929 3 0.746604 -1.18503 -5.92974 
13334 3 -5.39685 -2.55691 5.15939 
9930 1 -1.67063 -1.76411 -0.138937 
13335 1 -0.0375569 7.65394 -5.10534 
10435 1 2.9968 1.22135 1.76399 
14145 1 -1.82512 -0.149841 1.49222 
14144 3 -0.279581 0.898881 0.784353 
17002 1 -0.427192 -1.54014 3.32124 
9928 1 4.50084 2.70579 5.74627 
6613 1 6.35275 4.59229 -2.49213 
17003 3 0.688167 0.872514 3.03269 
17004 1 4.02064 -1.70776 -5.55743 
14143 1 1.16058 -2.98604 3.62556 
6615 1 2.11771 1.00947 -4.65127 
6614 3 1.27727 -0.124715 -1.0086 
11367 1 3.28087 2.57807 -7.60235 
11366 2 1.0744 1.29174 0.49289 
11365 1 -3.64817 3.30771 0.450814 
18068 3 0.930318 1.00499 -1.77205 
18069 1 -1.47119 -1.35009 -3.40039 
18008 3 1.59474 0.958265 -0.0447433 
18009 1 -2.70089 -1.59287 -3.75242 
10437 1 2.49124 0.699759 0.149126 
361 1 0.387053 7.21152 2.75402 
362 3 0.55589 2.72992 -1.8404 
10436 3 4.16476 1.63766 1.71102 
15065 3 0.542619 2.14802 -4.43025 
15066 1 0.880222 -3.40144 0.254086 
18007 1 0.921829 -4.62528 -1.78566 
96 1 3.0687 3.56679 7.81859 
95 3 -5.76889 -1.12984 -2.25598 
94 1 -3.43659 0.194383 -3.31814 
7623 1 -3.53609 1.98508 -2.96743 
7621 1 2.69199 5.29626 -2.04729 
17808 1 3.42795 -2.41129 -2.67257 
7622 3 0.964609 -2.29169 2.55459 
4798 1 -2.24163 2.72192 6.51284 
13741 1 1.07557 2.79785 3.40733 
4799 3 1.81399 0.372278 1.83644 
4800 1 7.35664 2.15301 3.26168 
17806 1 3.3585 -3.27909 -4.019 
17807 3 -3.29207 -0.565958 1.19575 
7627 1 -0.297982 -3.76349 1.28818 
7628 3 -4.739 1.33971 1.0242 
7629 1 -1.05924 -4.42116 -0.0537771 
13743 1 -6.37235 -3.35116 3.8103 
13742 3 3.99205 -0.21579 -1.65039 
4243 1 0.618832 -2.94178 -1.48166 
18067 1 -1.18793 -5.06843 -0.367268 
4245 1 5.29586 1.94119 5.14649 
21588 1 3.00626 0.857012 1.68788 
21587 3 0.148741 1.71057 -5.62376 
21586 1 -1.65064 5.58452 -4.55408 
4244 3 4.08835 0.172082 -3.90773 
15064 1 0.633403 -1.67448 -0.707605 
