ITEM: TIMESTEP
15000000
ITEM: NUMBER OF ENTRIES
278
ITEM: BOX BOUNDS pp pp pp
0 50
0 50
0 50
ITEM: ENTRIES c_binfo[1] c_binfo[2] c_binfo[3] 
3 5503 5504 
3 18256 18257 
3 17192 17193 
3 17191 17192 
1 17191 17253 
1 17193 17341 
3 17341 17342 
3 17342 17343 
3 15365 15366 
3 15364 15365 
1 2751 15364 
3 8371 8372 
3 8372 8373 
3 5504 5505 
1 4389 19774 
3 3538 3539 
1 3538 10977 
3 3539 3540 
1 3540 18258 
3 18257 18258 
3 13091 13092 
3 13090 13091 
3 20032 20033 
3 5600 5601 
3 5599 5600 
1 5599 14530 
3 14530 14531 
1 5601 8373 
3 9667 9668 
3 17252 17253 
3 17251 17252 
3 9668 9669 
1 9669 17251 
1 3420 19776 
3 3419 3420 
3 8662 8663 
1 8662 15847 
3 15847 15848 
3 15848 15849 
3 8663 8664 
3 16360 16361 
1 16360 21550 
3 19774 19775 
3 19775 19776 
3 16361 16362 
3 10423 10424 
1 10423 16362 
3 2807 2808 
3 2806 2807 
1 2806 19992 
3 19991 19992 
3 19990 19991 
3 10424 10425 
3 10393 10394 
3 4387 4388 
1 4387 8883 
3 4388 4389 
3 8882 8883 
3 8881 8882 
2 4769 4770 
3 10975 10976 
2 4768 4769 
1 4768 10975 
3 10976 10977 
3 7648 7649 
1 7648 9667 
3 7649 7650 
3 14531 14532 
3 10394 10395 
3 21551 21552 
3 21550 21551 
3 206 207 
3 205 206 
1 205 3184 
3 3184 3185 
3 463 464 
1 120 463 
1 14877 17559 
3 14876 14877 
3 14875 14876 
3 118 119 
3 119 120 
1 14394 17130 
3 17129 17130 
3 5419 5420 
3 14393 14394 
3 14392 14393 
1 207 14392 
3 14543 14544 
3 14542 14543 
3 18253 18254 
3 464 465 
3 5792 5793 
1 5421 5793 
3 5420 5421 
3 5791 5792 
3 17128 17129 
3 1232 1233 
3 21112 21113 
3 21113 21114 
3 20911 20912 
1 20911 21114 
3 20912 20913 
3 20033 20034 
3 17497 17498 
1 6738 17497 
3 17498 17499 
3 3185 3186 
3 13232 13233 
3 13231 13232 
1 13231 15711 
3 15710 15711 
3 15709 15710 
3 3418 3419 
1 3418 15709 
3 2750 2751 
3 2749 2750 
3 4148 4149 
3 4147 4148 
1 4147 17557 
3 17557 17558 
3 17558 17559 
3 140 141 
1 141 7339 
3 7339 7340 
3 6071 6072 
3 6070 6071 
1 6070 6736 
3 6736 6737 
3 6737 6738 
3 14858 14859 
3 15319 15320 
3 15320 15321 
1 13233 15321 
3 5393 5394 
3 5392 5393 
1 5392 14544 
1 2178 18255 
3 18254 18255 
3 14962 14963 
3 2176 2177 
3 2177 2178 
3 679 680 
1 679 11673 
3 11672 11673 
3 14449 14450 
1 14449 14859 
3 139 140 
1 139 11671 
3 11671 11672 
3 14450 14451 
3 1231 1232 
1 1231 14451 
3 3883 3884 
3 3884 3885 
3 680 681 
2 20327 20328 
2 20326 20327 
3 12536 12537 
3 1120 1121 
1 1120 18495 
3 1121 1122 
1 12537 20328 
3 17509 17510 
3 17510 17511 
3 13765 13766 
3 10325 10326 
3 10324 10325 
1 10324 18493 
3 18493 18494 
3 18494 18495 
3 15124 15125 
3 21412 21413 
3 21413 21414 
1 14772 21414 
3 16267 16268 
1 16267 21412 
1 7899 12535 
3 7897 7898 
3 7898 7899 
3 12535 12536 
3 8854 8855 
3 12838 12839 
1 12838 15753 
3 12839 12840 
3 13766 13767 
1 7341 13767 
3 7340 7341 
3 16997 16998 
3 668 669 
3 667 668 
3 4001 4002 
3 4000 4001 
1 4000 15751 
3 15752 15753 
3 15751 15752 
3 16996 16997 
3 14857 14858 
1 14857 16996 
1 4002 15900 
3 21077 21078 
3 21076 21077 
1 8856 14964 
3 8855 8856 
3 14963 14964 
3 12956 12957 
3 12955 12956 
1 669 12955 
3 20981 20982 
3 20980 20981 
3 16268 16269 
1 16269 20980 
3 2951 2952 
3 2950 2951 
1 2950 15124 
3 20497 20498 
3 20498 20499 
3 10199 10200 
3 10198 10199 
3 10022 10023 
3 10021 10022 
1 2808 10021 
1 2742 17104 
3 17104 17105 
3 17105 17106 
3 15898 15899 
3 15899 15900 
1 5394 17106 
3 199 200 
1 201 7677 
3 200 201 
3 8099 8100 
3 2740 2741 
3 2741 2742 
3 14867 14868 
1 10614 14866 
3 14866 14867 
3 10612 10613 
3 10613 10614 
1 1731 19150 
3 1730 1731 
3 19151 19152 
3 19150 19151 
3 8831 8832 
3 1729 1730 
1 1729 8830 
3 8830 8831 
3 15125 15126 
3 13021 13022 
1 13021 13677 
3 13022 13023 
3 14770 14771 
3 8902 8903 
1 8902 13023 
3 14771 14772 
3 8903 8904 
3 7675 7676 
1 7675 9126 
3 9125 9126 
3 9124 9125 
1 9124 15126 
3 7676 7677 
3 10555 10556 
1 10555 18238 
3 10556 10557 
3 18238 18239 
3 18239 18240 
3 8098 8099 
2 6529 6530 
1 6529 6999 
3 6997 6998 
3 6998 6999 
3 13675 13676 
3 13676 13677 
2 6530 6531 
2 6466 6467 
1 6466 6531 
2 6467 6468 
