ITEM: TIMESTEP
15000000
ITEM: NUMBER OF ENTRIES
177
ITEM: BOX BOUNDS pp pp pp
0 50
0 50
0 50
ITEM: ENTRIES c_binfo[1] c_binfo[2] c_binfo[3] 
3 18991 18992 
3 3175 3176 
3 3176 3177 
1 3177 14956 
3 10484 10485 
1 10485 18993 
3 7258 7259 
1 7258 10483 
3 10483 10484 
3 14956 14957 
3 18992 18993 
3 6209 6210 
3 4099 4100 
1 4099 6208 
3 6208 6209 
3 8266 8267 
3 8267 8268 
3 11462 11463 
3 11461 11462 
3 21226 21227 
3 15998 15999 
3 15997 15998 
3 18143 18144 
3 18142 18143 
3 14113 14114 
1 18054 20892 
3 18053 18054 
3 18052 18053 
1 7260 18052 
3 7259 7260 
3 17548 17549 
3 6068 6069 
3 6067 6068 
1 6067 6433 
3 8536 8537 
3 8537 8538 
1 8268 8536 
3 21160 21161 
3 13544 13545 
3 17549 17550 
3 21161 21162 
3 4291 4292 
1 4291 21160 
3 4292 4293 
3 2225 2226 
3 2224 2225 
1 2224 14958 
3 14957 14958 
3 12550 12551 
3 11098 11099 
3 11099 11100 
1 11100 18144 
3 6433 6434 
3 6434 6435 
1 5721 18430 
3 5720 5721 
3 5719 5720 
1 5719 17550 
3 18430 18431 
3 4100 4101 
3 1124 1125 
3 7522 7523 
1 1125 7600 
3 7600 7601 
3 7601 7602 
3 7523 7524 
3 17321 17322 
3 17320 17321 
3 19312 19313 
1 4101 17322 
3 15959 15960 
1 15960 19314 
3 19313 19314 
3 10114 10115 
1 10114 21228 
3 21227 21228 
3 881 882 
1 882 20997 
3 20996 20997 
3 20995 20996 
3 1123 1124 
1 1123 20995 
3 10216 10217 
3 10217 10218 
3 14114 14115 
3 5921 5922 
3 12604 12605 
3 12605 12606 
3 20890 20891 
3 20891 20892 
3 17006 17007 
3 17005 17006 
1 7902 10116 
3 12559 12560 
3 5920 5921 
1 5920 12559 
3 12560 12561 
3 10115 10116 
3 9767 9768 
3 6142 6143 
1 6142 11961 
3 11960 11961 
3 11959 11960 
1 11959 13543 
3 13543 13544 
1 7377 10218 
3 9766 9767 
3 7900 7901 
1 7900 9766 
3 7901 7902 
3 6143 6144 
3 2329 2330 
3 17066 17067 
3 17065 17066 
1 2331 5922 
3 2330 2331 
3 12551 12552 
2 20885 20886 
1 6435 20884 
2 20884 20885 
3 5062 5063 
3 5063 5064 
2 2479 2480 
1 2479 19425 
3 18431 18432 
2 2480 2481 
1 2481 18432 
1 2250 19423 
2 19423 19424 
2 19424 19425 
3 17059 17060 
3 17060 17061 
3 16414 16415 
3 16415 16416 
3 15958 15959 
1 15958 19207 
3 19207 19208 
3 17608 17609 
3 17609 17610 
3 11276 11277 
3 8479 8480 
1 8479 11277 
3 3559 3560 
3 10019 10020 
1 10020 19209 
3 19208 19209 
3 8480 8481 
3 880 881 
1 880 21174 
3 7375 7376 
3 7376 7377 
3 21172 21173 
3 21173 21174 
3 16310 16311 
3 4426 4427 
3 20924 20925 
3 4897 4898 
1 4897 17067 
3 16309 16310 
3 11275 11276 
1 11275 16309 
3 20923 20924 
3 10240 10241 
3 3560 3561 
3 10241 10242 
1 4899 10242 
3 4898 4899 
2 2249 2250 
2 2248 2249 
1 2248 13567 
2 13568 13569 
2 13567 13568 
3 3208 3209 
1 3208 4428 
3 4427 4428 
3 10018 10019 
3 3209 3210 
