LAMMPS data file via write_data, version 7 Aug 2019, timestep = 20000000

207 atoms
3 atom types
178 bonds
3 bond types
149 angles
3 angle types

0.0000000000000000e+00 5.0000000000000000e+01 xlo xhi
0.0000000000000000e+00 5.0000000000000000e+01 ylo yhi
0.0000000000000000e+00 5.0000000000000000e+01 zlo zhi

Masses

1 0.25
2 0.5
3 0.5

Bond Coeffs # harmonic

1 6000 0.15
2 2000 0.4
3 2000 0.4

Angle Coeffs # harmonic

1 100 180
2 50 180
3 50 180

Atoms # angle

20890 1 1 4.9953117024083969e-02 3.2392134618592587e+00 1.2708793689187427e+01
17610 1 1 1.0815724436432488e+01 4.2109704816809215e+00 1.4215529594629208e+01
17609 3 3 1.1115107566192785e+01 4.4717092157925160e+00 1.4189664951478827e+01
17608 1 1 1.1327855882505098e+01 4.7989418371056161e+00 1.4284557093729575e+01
16416 1 1 4.4222589250613147e+01 3.3884900390862365e+00 5.6349724936642520e+00
16415 3 3 4.4491860219466105e+01 3.7443154405029984e+00 5.5378545238778889e+00
16414 1 1 4.4726231150163756e+01 4.0260510679555264e+00 5.4808147728096355e+00
20892 1 1 4.9417592826988361e+01 3.0739704568971340e+00 1.3309497276423137e+01
18054 1 1 4.9297325897673723e+01 3.0311636367688486e+00 1.3421584113996927e+01
18053 3 3 4.8988551808042047e+01 2.8809122111016112e+00 1.3661885689035225e+01
20891 3 3 4.9744928695927086e+01 3.1549144232304727e+00 1.2969191042776876e+01
18992 3 3 4.7039221708013031e+01 1.1694540580501946e+00 1.4778058008874503e+01
18991 1 1 4.6823388370673690e+01 8.6632733470730605e-01 1.4940374283865006e+01
18993 1 1 4.7245788080849302e+01 1.4590776124290541e+00 1.4611604818698247e+01
10485 1 1 4.7333075474499232e+01 1.5755448098394103e+00 1.4547298554131862e+01
12561 1 1 4.9356295156701108e+01 1.4637126916579077e+00 1.4157082907777394e+01
7259 3 3 4.8279467866386973e+01 2.4490109379955229e+00 1.4178984727901661e+01
7258 1 1 4.7960463390928481e+01 2.2012157748859749e+00 1.4308849673992812e+01
10483 1 1 4.7818866383210498e+01 2.1077920638831955e+00 1.4366535272897382e+01
10484 3 3 4.7505674023735388e+01 1.8590780451839595e+00 1.4398334907443425e+01
12560 3 3 4.9291439685989225e+01 1.8465214311498779e+00 1.4244209204631614e+01
18052 1 1 4.8701902434635720e+01 2.7579588776353292e+00 1.3927906351773517e+01
12559 1 1 4.9229895857033405e+01 2.2135122706020192e+00 1.4409909110490155e+01
7260 1 1 4.8583116928637757e+01 2.6734768515430591e+00 1.4038720257097411e+01
5920 1 1 4.9225674067730978e+01 2.3624101929255459e+00 1.4492793276925923e+01
5921 3 3 4.9178667375953601e+01 2.6935082862635107e+00 1.4654753977612833e+01
5922 1 1 4.9016083270957139e+01 3.0540010956266830e+00 1.4691704190120811e+01
2331 1 1 4.8939588733039493e+01 3.1527644369760717e+00 1.4714610264925229e+01
19312 1 1 4.7922328877291882e+01 3.6736287042093272e+00 1.4060821789083841e+01
19313 3 3 4.7712760865708532e+01 3.6540550107243464e+00 1.4402970519986074e+01
19314 1 1 4.7531197498047149e+01 3.6655959241754892e+00 1.4731039978191653e+01
15960 1 1 4.7457568777758532e+01 3.6790793808248816e+00 1.4865660696152263e+01
1124 3 3 4.8068452568252127e+01 5.0810216438380653e+00 1.5058819521583933e+01
1125 1 1 4.8156376599774269e+01 4.6883015346866150e+00 1.4940907335229836e+01
7600 1 1 4.8222448620818263e+01 4.5560790474230251e+00 1.4921752355710398e+01
15959 3 3 4.7283270610730590e+01 3.7999594053259838e+00 1.5180995576995358e+01
2330 3 3 4.8745110589726472e+01 3.4502698021166829e+00 1.4773087143095546e+01
7601 3 3 4.8392319463923329e+01 4.2447213953262786e+00 1.4896318507112365e+01
2329 1 1 4.8568499592392982e+01 3.7672896053320644e+00 1.4814467458334335e+01
7602 1 1 4.8530163452137437e+01 3.8781549701412570e+00 1.4837996270883055e+01
1123 1 1 4.8057997855286487e+01 5.4237705558149552e+00 1.5248136504829997e+01
20995 1 1 4.8038493246047452e+01 5.5293703359128736e+00 1.5334173382275397e+01
4426 1 1 4.7319508620096514e+01 2.0870515433480548e+00 1.6516205959419445e+01
4427 3 3 4.7233747822248915e+01 2.3546759520460148e+00 1.6835205878683322e+01
10019 3 3 4.6076975710080902e+01 4.6001683887057050e+00 1.6364967671200851e+01
10020 1 1 4.6334183504812039e+01 4.4188096904645802e+00 1.6124158452152432e+01
19209 1 1 4.6433600180547430e+01 4.3389477201805624e+00 1.6029887758197749e+01
19208 3 3 4.6709880876093379e+01 4.1535301803915834e+00 1.5831446220475067e+01
10018 1 1 4.5819123355212042e+01 4.8471806165554723e+00 1.6593579679338379e+01
15958 1 1 4.7030224298065988e+01 3.9495107789129671e+00 1.5481973962655092e+01
19207 1 1 4.6956318190429549e+01 4.0054340859135591e+00 1.5589537663013928e+01
20996 3 3 4.7940060048813145e+01 5.9044468486146959e+00 1.5533027686039121e+01
20997 1 1 4.7868396472419107e+01 6.2103371348452336e+00 1.5708450347486401e+01
882 1 1 4.7876705626279367e+01 6.3096316904195886e+00 1.5781681510663486e+01
881 3 3 4.7788785620809442e+01 6.5949672657316523e+00 1.6030880014910782e+01
880 1 1 4.7634617696339340e+01 6.8319701281193961e+00 1.6295095699868156e+01
21174 1 1 4.7594231406921736e+01 6.9008475968039686e+00 1.6430828255431948e+01
21173 3 3 4.7433524707486079e+01 7.0936033610288796e+00 1.6814131942483396e+01
3210 1 1 4.6718871640787164e+01 2.8453684200674627e+00 1.7923819973475577e+01
3209 3 3 4.6899922516219320e+01 2.7483465188432885e+00 1.7615178918622171e+01
3208 1 1 4.7017828357598631e+01 2.5609688833428987e+00 1.7286548758847097e+01
4428 1 1 4.7073024034287343e+01 2.5068342702700988e+00 1.7169108220550108e+01
3561 1 1 4.1661713561907334e+01 6.4585546399045608e+00 1.7908257789073627e+01
3560 3 3 4.2025230703210099e+01 6.5118972544345173e+00 1.8025324950845068e+01
3559 1 1 4.2421766019995012e+01 6.6322603824581563e+00 1.8164326976829869e+01
21172 1 1 4.7261964606563346e+01 7.2340427169215324e+00 1.7160006196264376e+01
5064 1 1 3.5039898887662062e+01 2.2778285372363236e+01 6.8670507233898510e+00
5063 3 3 3.4962324025961344e+01 2.3169586752309378e+01 6.9481264524656785e+00
5062 1 1 3.4806787187544188e+01 2.3510902037087511e+01 6.9292599698519934e+00
17061 1 1 1.1945103028810738e+01 3.8467474800340518e+01 2.1515194714491496e+01
17060 3 3 1.2085932039336294e+01 3.8785851528340260e+01 2.1615712451947282e+01
17059 1 1 1.2346732752220348e+01 3.9097032427445257e+01 2.1717724987355830e+01
12606 1 1 2.6616297638326703e+01 3.8864549110157057e+01 1.3029240972731605e+01
12605 3 3 2.6846391392076868e+01 3.9124523020312701e+01 1.3239475675195013e+01
12604 1 1 2.7122586024909722e+01 3.9223014539368528e+01 1.3539077736606403e+01
11099 3 3 2.5089360987505323e+01 3.7833502918537512e+01 1.8463171815396784e+01
18144 1 1 2.5308263195958748e+01 3.8246902536987861e+01 1.8185489816719084e+01
11100 1 1 2.5253117097354824e+01 3.8151691623474733e+01 1.8256089472992930e+01
18142 1 1 2.5579331435551197e+01 3.8795691110436849e+01 1.7694434076603521e+01
18143 3 3 2.5473398645135681e+01 3.8540121741852289e+01 1.7975544724827849e+01
11098 1 1 2.4845282311179805e+01 3.7554936716630550e+01 1.8656661599576161e+01
6144 1 1 3.9007017249103335e+01 3.5435924024448454e+01 2.5455788429412078e+00
6143 3 3 3.8855693796822621e+01 3.5347263871690799e+01 2.9387972906691053e+00
11959 1 1 3.8672539962682713e+01 3.5040526662006670e+01 4.2193539738510299e+00
13543 1 1 3.8654945532894438e+01 3.4997877602790830e+01 4.3898535158184817e+00
11960 3 3 3.8689316120982035e+01 3.5204057998637708e+01 3.8310852956873331e+00
11961 1 1 3.8795300851461654e+01 3.5261708081926344e+01 3.4751711583545384e+00
6142 1 1 3.8824753773988284e+01 3.5288554233094658e+01 3.3346085728336798e+00
13544 3 3 3.8622519370407950e+01 3.4881292378694312e+01 4.8079987505124278e+00
13545 1 1 3.8647055497600995e+01 3.4715911763037276e+01 5.2399019151695887e+00
11462 3 3 3.7209753428414174e+01 3.6523304826960285e+01 7.2658620495631698e+00
11461 1 1 3.7125384637352880e+01 3.6268015978355990e+01 7.5630611943461767e+00
11463 1 1 3.7224296248561558e+01 3.6723538221721455e+01 6.8984331404068540e+00
9768 1 1 4.9576798822243738e+01 3.5463605292443589e+01 2.1469912913064459e+01
10116 1 1 4.8419828637827827e+01 3.6049111837763895e+01 2.2886010968226763e+01
10115 3 3 4.8071017041321738e+01 3.6220313801190819e+01 2.3052055981776299e+01
7900 1 1 4.9050055773555627e+01 3.5686335722485246e+01 2.2271822719525421e+01
7902 1 1 4.8558660336973475e+01 3.6000876382469905e+01 2.2825944161984257e+01
7901 3 3 4.8795051999350832e+01 3.5863521355620307e+01 2.2608016272899054e+01
9767 3 3 4.9365622736829273e+01 3.5554717652992991e+01 2.1842415603583987e+01
9766 1 1 4.9132166334226376e+01 3.5647741525167696e+01 2.2155120618418067e+01
10114 1 1 4.7736202985203327e+01 3.6387764729412076e+01 2.3246152388104090e+01
21228 1 1 4.7621883951896827e+01 3.6448379433906872e+01 2.3339497121507190e+01
21227 3 3 4.7281376278239001e+01 3.6601297807794772e+01 2.3532399753468614e+01
6210 1 1 4.0132367034374461e+01 3.9255539025809242e+01 5.3452798951023226e+00
6209 3 3 3.9983503315293653e+01 3.9121876375630080e+01 5.7201259904291692e+00
6208 1 1 3.9865789261238973e+01 3.9033073662245492e+01 6.1005825295174860e+00
17321 3 3 3.9353086756050686e+01 3.8440355537557288e+01 7.4751267999438857e+00
4101 1 1 3.9603275300710408e+01 3.8717270240678374e+01 6.9865599672306331e+00
17322 1 1 3.9519930537254012e+01 3.8632493357099889e+01 7.1171514748288915e+00
4099 1 1 3.9824056253124262e+01 3.9009654788009492e+01 6.2525414237350487e+00
4100 3 3 3.9744432521153264e+01 3.8902583952940731e+01 6.6162140441997161e+00
17320 1 1 3.9274157915114401e+01 3.8368799981655954e+01 7.8572461156342541e+00
12550 1 1 4.0954126689311650e+01 3.8288869387799821e+01 2.0616795016033656e+01
12551 3 3 4.0601626261901551e+01 3.8412402762656988e+01 2.0535110719799682e+01
12552 1 1 4.0267700729838829e+01 3.8521659203768159e+01 2.0379911773961400e+01
21226 1 1 4.6969762652612935e+01 3.6752226394249057e+01 2.3780125441270492e+01
20923 1 1 8.6203480406535924e+00 2.9683516057276528e+01 2.9247902994738343e+01
20925 1 1 9.0289235782820736e+00 2.9607173201832669e+01 2.9961808200968179e+01
20924 3 3 8.8324067027437820e+00 2.9645153612327782e+01 2.9584565088302966e+01
16311 1 1 2.0854273353121716e+01 2.6986787531828558e+01 4.0549943679841192e+01
16310 3 3 2.0947851698776862e+01 2.7171714265331282e+01 4.0869822410888801e+01
16309 1 1 2.1093826642637431e+01 2.7296220938421815e+01 4.1214255943410251e+01
11275 1 1 2.1142886628068254e+01 2.7332758208741094e+01 4.1333967123955446e+01
11276 3 3 2.1218492452829970e+01 2.7523081654938856e+01 4.1686696680649341e+01
11277 1 1 2.1401716438690816e+01 2.7750154085294000e+01 4.2009021850120604e+01
8479 1 1 2.1468421114128915e+01 2.7839357034109319e+01 4.2123988929570814e+01
8480 3 3 2.1644771453817327e+01 2.7984852643640931e+01 4.2426285177108781e+01
8481 1 1 2.1805587578599933e+01 2.8122649833928637e+01 4.2736873176651869e+01
8538 1 1 2.1577866607826270e+01 3.1452619455589481e+01 3.3852715462956958e+01
8537 3 3 2.1713063366228102e+01 3.1680396745873644e+01 3.4155192297186282e+01
8268 1 1 2.1796880123978372e+01 3.2023712423364024e+01 3.4623636189639939e+01
8536 1 1 2.1795028859802464e+01 3.1934846246856750e+01 3.4481467236709214e+01
8266 1 1 2.1777993262132860e+01 3.2535045739186501e+01 3.5210747392196545e+01
8267 3 3 2.1802689514176752e+01 3.2229629682123253e+01 3.4941889712048926e+01
3176 3 3 2.6162894902939996e+01 1.6187084443027199e+01 2.8808548497402708e+01
3175 1 1 2.6230239463040459e+01 1.5808020238937607e+01 2.8867816480865116e+01
3177 1 1 2.6117099211550038e+01 1.6564407110110441e+01 2.8715700443981007e+01
14956 1 1 2.6104908039865659e+01 1.6704850218171178e+01 2.8673401257204382e+01
14957 3 3 2.6163353253651916e+01 1.7158648870947840e+01 2.8588933582993601e+01
14958 1 1 2.6352989006901844e+01 1.7531252240750963e+01 2.8541066129342340e+01
2225 3 3 2.6660160058025308e+01 1.8007112668754520e+01 2.8473983355353198e+01
2226 1 1 2.6963290538368160e+01 1.8324426816586293e+01 2.8410852719057292e+01
2224 1 1 2.6449708423648648e+01 1.7700325731443694e+01 2.8527237005366661e+01
10240 1 1 2.9530450618887251e+01 1.6384129529383703e+01 3.1375500098727493e+01
10241 3 3 2.9399659892544648e+01 1.6709876838561289e+01 3.1548964855390675e+01
10242 1 1 2.9262350389439465e+01 1.7039549948366961e+01 3.1685880381130328e+01
4899 1 1 2.9213474178111834e+01 1.7130472228303795e+01 3.1787780540134808e+01
4897 1 1 2.8975160255306978e+01 1.7700185048449832e+01 3.2277418597833673e+01
17067 1 1 2.8910959842398476e+01 1.7834914619109579e+01 3.2343379636752793e+01
4898 3 3 2.9087607110809099e+01 1.7397502560386368e+01 3.2067020574579971e+01
17066 3 3 2.8662369651673000e+01 1.8125078713685358e+01 3.2501208636074850e+01
17065 1 1 2.8448506840727767e+01 1.8371891700575443e+01 3.2771247251611051e+01
15997 1 1 2.6001817824322416e+01 1.8938447970356684e+01 3.3891598287736088e+01
15999 1 1 2.6117617475031743e+01 1.8967265357397835e+01 3.4663027009773543e+01
15998 3 3 2.6029863801887512e+01 1.8931550699598063e+01 3.4291075117623230e+01
14115 1 1 3.2188020038063222e+01 5.9616144087897194e+00 3.5382741589963182e+01
14114 3 3 3.2304487892621836e+01 5.9992244426760992e+00 3.5776671215829857e+01
14113 1 1 3.2433354475618827e+01 6.0369450853415261e+00 3.6118738795057652e+01
4291 1 1 3.3724335539206116e+01 1.7570119318090132e+01 4.5344246614687648e+01
4292 3 3 3.4074779021199710e+01 1.7648577649174271e+01 4.5195516099976984e+01
4293 1 1 3.4445781873163391e+01 1.7751660779352804e+01 4.4978247903022684e+01
21160 1 1 3.3610507453580290e+01 1.7553676124523506e+01 4.5376613349864662e+01
21162 1 1 3.2861063508605973e+01 1.7388955305120572e+01 4.5549946305364593e+01
21161 3 3 3.3239378888767689e+01 1.7511834592931688e+01 4.5531909486027082e+01
20886 1 1 4.8085440194052183e+01 6.3432126650863985e-01 2.7275285126874376e+01
20885 2 2 4.7791983052844579e+01 3.3879946338800726e-01 2.7434104756399268e+01
20884 1 1 4.7628148751751581e+01 6.1355183565442589e-02 2.7646689189643812e+01
17005 1 1 4.2277015939238936e+01 1.7503351309951825e+01 4.3324577602472147e+01
17006 3 3 4.2431511165404949e+01 1.7867665846584405e+01 4.3432124012516240e+01
17007 1 1 4.2665852320959274e+01 1.8237948196973594e+01 4.3495779323303552e+01
13568 2 2 3.0655643955962912e+01 3.5913455976176898e+01 3.0763081433944315e+01
13569 1 1 3.0652866617516551e+01 3.6159128132045751e+01 3.0419935834019316e+01
19423 1 1 3.0743901547656883e+01 3.4989985124519798e+01 3.1927392927761613e+01
19424 2 2 3.0729736021129618e+01 3.4787374018947126e+01 3.2266069014166398e+01
19425 1 1 3.0657584400226963e+01 3.4480266935509597e+01 3.2499097698140325e+01
2250 1 1 3.0713395239298851e+01 3.5079050797670511e+01 3.1803575844191492e+01
2249 2 2 3.0666893618183856e+01 3.5291012334018028e+01 3.1522741940939287e+01
13567 1 1 3.0717735849692257e+01 3.5628856921361042e+01 3.1047612820974191e+01
2248 1 1 3.0721918544112267e+01 3.5510013414376715e+01 3.1191082355361065e+01
5719 1 1 2.9657865296839503e+01 3.2352922497227041e+01 3.3962393014286100e+01
17550 1 1 2.9562103209594337e+01 3.2293373463556513e+01 3.4028420011772312e+01
5720 3 3 2.9908871766376748e+01 3.2594421690844250e+01 3.3753520526293570e+01
18431 3 3 3.0278647344448860e+01 3.3213729031894651e+01 3.3216002178467427e+01
18430 1 1 3.0173259252207465e+01 3.2913219137747937e+01 3.3432101885221307e+01
5721 1 1 3.0113132314429837e+01 3.2787782097774041e+01 3.3536512003696281e+01
2481 1 1 3.0456638523397750e+01 3.3646798234158815e+01 3.2958296892189708e+01
18432 1 1 3.0424471735306327e+01 3.3512357738836521e+01 3.3029754983587615e+01
2480 2 2 3.0544625153863475e+01 3.4034759950178767e+01 3.2779778674922397e+01
2479 1 1 3.0625922180425761e+01 3.4357972770028283e+01 3.2581077911184295e+01
17548 1 1 2.9050863553576786e+01 3.1824657757442147e+01 3.4288008916899862e+01
17549 3 3 2.9309994341066634e+01 3.2108105576941256e+01 3.4204164327013565e+01
6435 1 1 4.7546622639122447e+01 4.9976518663014062e+01 2.7728794247985299e+01
6069 1 1 4.6000836299811986e+01 4.9328900184968383e+01 2.8396648936351230e+01
6068 3 3 4.6402616689818181e+01 4.9401617730093143e+01 2.8310398028038914e+01
6067 1 1 4.6791346821193997e+01 4.9562655946450384e+01 2.8213682231108809e+01
6433 1 1 4.6932993307298986e+01 4.9603792317899853e+01 2.8157923673088561e+01
6434 3 3 4.7293477444954370e+01 4.9757844028192096e+01 2.7960253208696294e+01
7375 1 1 4.6787386046051843e+01 3.8479415378697944e+01 3.5657131796530074e+01
7376 3 3 4.6829092841853353e+01 3.8807205878132152e+01 3.5901159291111412e+01
10218 1 1 4.6995039556462686e+01 3.9201034701214390e+01 3.6216348026210994e+01
7377 1 1 4.6953426937105604e+01 3.9081275948762013e+01 3.6130530910877937e+01
10217 3 3 4.7176823659188784e+01 3.9506117684856633e+01 3.6410623812507559e+01
10216 1 1 4.7377508596517146e+01 3.9843154364143018e+01 3.6472179125804473e+01
7524 1 1 4.1020324633479611e+01 4.4223610811513367e+01 4.3101807424425793e+01
7523 3 3 4.0962624274871629e+01 4.4398458893734642e+01 4.3445917373229904e+01
7522 1 1 4.0800374819441750e+01 4.4645527509606637e+01 4.3775577325210051e+01

Velocities

20890 -2.8215539280930066e+00 4.2615216419529709e+00 -1.6492979021992080e-02
17610 -4.7919980665832993e+00 -1.7524303945788817e+00 -4.9192463005890863e-01
17609 1.6580786731229384e+00 1.7535884136799851e+00 -1.2404689057369023e+00
17608 -1.1763055774875637e+00 1.5989108324778483e+00 -1.9865348645105905e+00
16416 2.7380124262808708e-01 -8.4060136542913444e-01 -2.0628869592442776e+00
16415 2.7251524700758392e+00 -1.4900527412146463e+00 -1.8342502371055031e-01
16414 -1.1808661346332359e+00 -2.9302885517534611e+00 8.6013538899201236e-01
20892 8.8999129616181816e-01 -2.9548583750966002e+00 -1.7237836128425963e+00
18054 -1.8418639036483047e+00 -4.1796757764826209e+00 -2.0090455832558982e+00
18053 5.3628666310419149e-01 -7.3784648878666115e-01 -2.5804370300554598e+00
20891 8.5403748347637465e-01 1.9230033011021157e+00 -2.8412314258789655e+00
18992 2.3087192431937966e+00 -1.2427158082724552e+00 2.8099790432209808e+00
18991 -1.5486213596000540e+00 1.0705200444478973e+00 2.3532016215024898e-01
18993 1.7410345756559429e+00 -9.0594272439201440e-01 -5.6165659500591192e-01
10485 2.5064969063868854e+00 1.8743462292793729e+00 2.5737730543999420e+00
12561 4.8237425630209767e+00 1.4486698639828621e+00 -5.3697959361103309e-01
7259 2.9777891606668359e+00 3.8873147717453005e+00 7.8517405472221402e-01
7258 1.9964409262399216e+00 1.1833542913863608e+00 5.5989481136336030e+00
10483 4.2914173730098204e-02 2.4981882435457154e+00 1.1938929754262528e+00
10484 2.5134590293457255e+00 -2.2246179646867041e+00 2.8160431835841521e-01
12560 3.0760792373837287e+00 6.4108412024678101e+00 9.9519169624183057e-01
18052 2.8118329843128400e+00 -1.9025198439325153e+00 6.8257727161908821e-01
12559 -1.6519778793035855e+00 -3.1531035082794485e+00 -3.0357659321919535e+00
7260 -1.3216852560298460e+00 1.7994819268479165e+00 1.8503174918772192e+00
5920 2.2828319525508580e+00 -4.0083801086663691e+00 -1.1314902504623698e+00
5921 1.3727676895371164e+00 4.7015311991916803e-02 -2.0738216003361967e-02
5922 -1.8898727240017721e-01 -2.0856796051383397e+00 5.8716048064704651e+00
2331 2.1151384858446374e+00 3.9572565643387834e+00 -1.5740621429392978e+00
19312 -1.8502035635773941e+00 2.1843386021139244e-01 -4.6053074181857321e+00
19313 5.6743958589008980e-01 -3.7788200709159256e+00 -2.3472300048962351e+00
19314 1.8993915692321067e-01 -3.2891666953425824e-01 -2.7966671639135274e+00
15960 4.4673360482864988e+00 2.6344024990182162e+00 -5.7555548974100512e+00
1124 -1.3880351833985649e+00 -3.5325492753499383e+00 1.3641045407964962e+00
1125 -5.0210315695018206e+00 -5.4956158387848921e+00 -1.6633709466091910e+00
7600 -1.7622270257863948e-02 -2.3432172838559522e+00 -3.2496342259963571e+00
15959 -1.0879027223982554e+00 1.0422781896694877e-01 -2.1774962819030574e+00
2330 2.7257959040478013e+00 1.1020107011961358e+00 -3.0978936553633583e+00
7601 -7.4873962131159111e-01 1.6678344160623026e+00 2.0785253393315928e-01
2329 2.6761547500724889e+00 7.7122952961702431e+00 4.4161313588802260e+00
7602 3.5446796018654290e+00 5.5364835581238774e+00 7.5550073379870941e+00
1123 -4.5921801127456874e+00 3.2885547924341560e+00 3.5581415240121435e+00
20995 -4.3692244141716507e+00 3.2303307187428807e+00 8.2825446105042144e-01
4426 4.3508098613355423e-01 1.2529562357166060e+00 -1.9461101541962278e+00
4427 1.0970118546567404e+00 4.0100832846653782e+00 1.6018307910987188e+00
10019 -3.6101293379533663e+00 -4.2360917487709235e+00 1.1097625121430979e-01
10020 1.0009062079060753e+00 -2.4213494609417023e+00 -4.4899531854801539e-01
19209 -3.8266492483756971e+00 7.3044427816493918e-01 -1.6436003510364601e+00
19208 1.8209495880318451e+00 -1.1579620027175508e+00 1.0635980454787468e+00
10018 3.1197457341863355e-01 1.4786329943813497e+00 -2.5662915199056755e+00
15958 7.6605110046692264e+00 6.2648514652294125e+00 -6.9813750284635656e+00
19207 4.4977685392807276e-01 -1.6638498997225870e+00 -1.1186816834741100e+01
20996 3.6890877549645111e+00 -2.3801499669945301e+00 -8.6987869082101288e-01
20997 -2.6837596869947511e+00 -2.3871935974017497e+00 1.4122474993374257e+00
882 -7.2927794412479785e-01 5.4555609199949568e+00 5.4359857125071240e+00
881 5.2183550995767334e+00 -2.5320416959572465e+00 1.0054478584740545e+00
880 -4.5807154979861098e-02 3.0361504300567645e+00 -1.4367697927484238e+00
21174 -7.5999548767902114e+00 -2.3291717257601299e+00 -8.0317228475153559e+00
21173 -1.0127572713583053e+00 -1.5105351111992243e-01 4.4173173670256363e+00
3210 -1.0145295684920732e+00 3.3864842348905316e-01 1.2391247643708860e+00
3209 -3.5406814340026338e-01 -2.2620366725373731e+00 -3.9511732220685110e+00
3208 4.0767316231017364e-01 3.2812404910176018e-01 -5.6058030102093168e+00
4428 6.2128546053687095e-01 2.4695714512190459e+00 -4.5643856551517752e+00
3561 -7.6079581033995627e+00 5.2360772870411640e+00 4.1683233351465683e+00
3560 1.7494053353355599e-01 -1.5570498896736535e+00 1.4733196690955730e+00
3559 -1.1059594056200697e+00 -1.2592186135625787e+00 -5.4571216722004419e+00
21172 -1.6358625629491996e+00 -2.1251475518423324e+00 -1.5926823762822115e-01
5064 2.3768163050232207e+00 7.3333450421113688e-01 -3.4406585224366765e-01
5063 -3.4462185097927946e+00 4.7613166599187684e+00 -3.6254480367327275e+00
5062 -2.7225178678673254e+00 4.1890725976419949e+00 4.3180408733660407e+00
17061 8.0216727849542468e-01 -7.5351470384301544e-01 -2.4576018475300572e+00
17060 3.5182943390957910e+00 -1.2902817507547706e+00 -3.8772743747403426e+00
17059 -2.7256996874155472e+00 -2.1530449593279712e+00 -2.3986528604945323e+00
12606 4.5267405028623369e+00 3.9978367559186672e+00 -4.1387886739988167e+00
12605 -5.5568357523209926e+00 -2.2773882416164026e+00 1.1403352903379234e+00
12604 -7.4106908636240689e+00 -4.1180992951470721e+00 -8.8063382445409433e-01
11099 3.4933491939153809e+00 -3.9785570737104035e+00 3.9475148537422775e-02
18144 1.5302840938875870e+00 -2.5789982527586113e+00 -2.2738876306721596e+00
11100 6.8768283396594319e+00 -1.2542834427575000e+00 6.5733770462106964e+00
18142 1.6953021716874261e+00 8.3799835759219343e-01 4.2141824893664692e+00
18143 -4.2632291751444240e-01 -9.1008800259416356e-01 -3.1992983342488088e+00
11098 -3.0094377101437071e+00 7.8217593042910794e-01 2.4916786416506564e+00
6144 -3.1540377442156253e+00 5.7621015753887983e+00 1.0367270566736686e+00
6143 -1.5289251872894094e+00 1.1412616686942839e-01 -4.6157822161606255e-01
11959 -5.3485801879366013e-01 -7.5366822569801339e+00 -1.7955035634325118e+00
13543 1.4757652859679806e+00 -4.6648086974652037e-01 -5.3201005497755238e-01
11960 2.3742475081319334e+00 -1.9635750803827356e+00 -2.0383022892836076e+00
11961 3.4347213723099079e+00 -2.3963480995063819e+00 7.6099107749622119e-01
6142 -6.5818490555840115e-01 2.6151955228364328e+00 1.9847185756343397e+00
13544 -1.1835331016785755e+00 -8.9034864105076061e-01 -2.6014173296207859e+00
13545 -1.3964573304946515e+00 -1.5513680443750508e+00 -5.9534418275688017e+00
11462 6.8268210522515205e-01 -3.6495245352920942e+00 1.5388417744620400e+00
11461 -3.1765029086267624e+00 1.0897597644146380e+00 -3.3743599209440762e+00
11463 6.2721286526528608e-01 -4.9308289319648253e+00 -4.3632427917943266e+00
9768 6.6600440462321997e-02 6.1990479760534694e+00 -3.3701009595769776e-01
10116 2.5854203142679646e+00 -3.9356403041404742e-01 -4.4257796625562982e+00
10115 -9.4313869227927216e-01 -1.4671742493752826e+00 2.7018342672698110e+00
7900 3.5276741287234648e-01 1.9239928876567087e+00 -2.9822060919246796e+00
7902 -3.3584073123331615e-01 -6.4406947335421261e-01 2.5278415212868892e+00
7901 -2.3545891087615880e+00 2.9518770291708030e-01 -1.3125116003077135e+00
9767 9.0201926365598895e-01 -3.3180081399821861e+00 -5.7496929665588170e-01
9766 -3.7560257553049130e+00 -3.8604669780118592e+00 3.5692893403805293e-01
10114 -2.7223026889437159e+00 -5.1122096381757720e-01 2.3954993460289526e+00
21228 -8.8158812550799515e-01 -1.3397433248093410e-01 1.1700509009041253e+00
21227 5.1679440734082336e+00 1.5247632795161106e+00 -2.9291851744846542e+00
6210 1.2122280788710054e+00 -8.4980280942259121e+00 -4.7122093588107798e+00
6209 1.4231833251975359e+00 -3.5980819268775379e+00 -2.8235952567326472e+00
6208 1.4007944906854124e+00 -5.4864605239623010e-01 2.2503410526775305e+00
17321 -2.9905805194356616e+00 1.7023848993956405e+00 3.3918689485140940e-01
4101 3.2746995668694208e+00 3.2553081041519056e+00 -3.8473235281057270e+00
17322 -6.2305692731643951e+00 -5.4136510693721362e+00 -2.5679216862781216e+00
4099 -1.0433974244475370e+00 -4.1276155059047950e+00 4.6965158907850535e+00
4100 3.3749413555498071e+00 -2.5079166914876021e+00 -2.2884503750624399e+00
17320 8.5321511866439614e+00 -3.0912905347385160e+00 -3.1708669896136388e+00
12550 5.1479084976173199e+00 2.5193622273542964e+00 -2.1129349666015216e+00
12551 -1.4617664833044346e+00 -2.0660982247928721e+00 -2.8494053906187946e+00
12552 1.6340212564817151e+00 -3.5433288980001945e+00 -5.2624459161423323e+00
21226 3.1292413010307536e+00 -2.9410647530674234e+00 6.6576405941023733e+00
20923 -7.1046794976115937e+00 -7.2551464989054615e-01 -1.7123100700372929e-02
20925 -1.0067185744389224e+00 5.6358929568830274e-01 -5.0342887902464484e-01
20924 -6.6460718379887618e-01 -2.9234605455448270e+00 -2.8228817290251579e-01
16311 -6.1018612936012477e+00 1.3003173647713240e+00 6.2210777038741556e+00
16310 -2.9544997574573129e-01 3.2838958114563517e+00 -3.8506808732745488e+00
16309 5.5229614343031008e-01 -9.9011769697634844e-01 7.3522346396040943e+00
11275 -3.4589986405519531e+00 -6.4617057257251231e-01 -3.5406095786992782e+00
11276 -1.1479973278357265e-01 2.2988821223203098e+00 7.1719955853259132e-02
11277 6.6932574158990477e+00 4.3505155053275866e+00 3.7953460237926047e+00
8479 -1.0222768841524192e+00 -1.5939565155723874e+00 -3.4968706201169582e+00
8480 -1.9779011549589964e-01 -4.9026695271929266e-01 3.6617999630757248e-01
8481 -1.2657085758916047e+00 2.3430507398550686e+00 1.5850223730775197e-02
8538 -6.0470746496494048e+00 8.9757180182013929e-01 2.2119739866422670e+00
8537 2.2064940974091494e+00 -1.8791803542741764e-01 -2.7945781642070293e+00
8268 1.6434814085170149e+00 -5.4384173843179306e+00 6.1507181095991150e+00
8536 5.7818285215525689e-01 3.1446647751667256e-01 -4.1072897918311000e+00
8266 1.0120716020679783e+00 -6.8461559861883616e+00 -6.0423765194543932e-01
8267 -2.2003783426080763e+00 1.2482530338597160e+00 -1.3663865002858675e+00
3176 -1.1713387343347630e+00 -4.9318375395935871e-01 2.6015179833012216e+00
3175 4.3212518831717445e-01 1.3005485805502990e+00 4.2356368198070748e-01
3177 3.4602856065706455e-02 -2.2844975065130746e+00 -3.4971683936098064e-01
14956 -7.6671523862459423e-01 -1.1307643052267642e+00 2.5213291374485642e+00
14957 -2.8518863699368389e+00 -3.1067237080318946e+00 3.0138221699967205e+00
14958 -2.6663005135866076e+00 -2.9906145736194549e+00 1.5709652226953055e+00
2225 -1.4556893873781399e-01 5.7486179459131803e-01 -1.2171719061974895e+00
2226 4.7593537240024242e+00 -3.9715460003650174e+00 -2.3338957490158099e+00
2224 -3.1023103826634957e+00 -2.5249801293903191e+00 -7.0244663738649782e-01
10240 -2.0872578724449875e+00 1.2183134481407384e+01 9.0394473807434981e+00
10241 -2.2950872474718751e+00 1.2982098975303229e+00 -1.3759017395415039e+00
10242 -1.8498847174639470e+00 -6.1215448055650610e+00 -5.7739362136513268e+00
4899 6.9812242807475688e-01 4.1394083948048932e+00 -5.3276161770872577e-02
4897 -5.0037010660761290e+00 -1.1237270377732647e+00 -9.6273002887966946e-02
17067 3.3153604151450864e+00 2.6255675180988653e+00 1.3681670517346951e+00
4898 -3.9051325094455498e+00 2.8562193502076978e+00 -1.3617095516003088e+00
17066 -6.5121549625307762e-01 9.5753891418629389e-01 2.4348546201694514e+00
17065 -2.4333110568040608e+00 -1.0994614653182693e+00 1.3600121646048127e+00
15997 -2.1119200686716431e+00 1.6710923898119262e-02 -1.5591487898318406e+00
15999 2.9476189710202214e+00 1.5373550752135410e+00 9.0300143753391571e-01
15998 -1.0522279993322059e-01 -1.4526680644699002e+00 9.6607197470170547e-01
14115 1.1707433163914391e+00 -1.9301365115661295e+00 -2.3667931944915694e+00
14114 1.4940578030761920e+00 6.2083384785936624e-01 1.4597674163264365e-02
14113 2.9425118644656019e+00 -3.6280501388996775e+00 4.7106905185829112e-01
4291 -2.0992399439707738e+00 1.4056904266069910e+00 1.3054941606796895e+00
4292 -2.5190632099098016e+00 4.4439314523220552e-01 -1.5318478068813401e+00
4293 2.5357151382974707e-01 -4.4156925266513749e+00 2.9986239387548768e+00
21160 2.9779351307579285e+00 4.6709353677481968e-01 6.0817199058959295e+00
21162 -1.6965281856868442e+00 -4.9669774455941411e+00 2.5787630655536664e+00
21161 -2.6833087166843841e+00 7.2213064461071730e-01 -3.1140294864498372e+00
20886 9.9092683739982423e-01 6.1100582060312170e-01 9.4765929693411994e+00
20885 1.2410608105490231e+00 -6.8908592620119713e-01 -3.4779857173505047e+00
20884 6.9827300348337318e-01 4.3378252923249354e+00 6.2550892454805718e-01
17005 2.3546878835596221e+00 -5.5790652779978300e+00 -4.6658370162648382e+00
17006 -4.9435953632309610e+00 3.5198736217099063e+00 -1.3738872749401787e+00
17007 4.1671730426409026e-01 3.8934296258310508e+00 -2.3522826849193099e+00
13568 -1.4087223805331788e+00 1.3833145080938243e+00 2.8957251771364114e+00
13569 -2.5650636405919616e+00 -6.9692058972738735e+00 -2.4102945454288127e+00