ITEM: TIMESTEP
0
ITEM: NUMBER OF ATOMS
207
ITEM: BOX BOUNDS pp pp pp
0.0000000000000000e+00 5.0000000000000000e+01
0.0000000000000000e+00 5.0000000000000000e+01
0.0000000000000000e+00 5.0000000000000000e+01
ITEM: ATOMS id type 
2224 1 
2225 3 
2226 1 
2479 1 
2480 2 
2481 1 
3559 1 
3560 3 
3561 1 
5719 1 
5720 3 
5721 1 
10216 1 
10217 3 
10218 1 
2248 1 
2249 2 
2250 1 
3208 1 
3209 3 
3210 1 
10114 1 
10115 3 
10116 1 
4426 1 
4427 3 
4428 1 
4897 1 
4898 3 
4899 1 
5920 1 
5921 3 
5922 1 
7900 1 
7901 3 
7902 1 
8266 1 
8267 3 
8268 1 
10240 1 
10241 3 
10242 1 
10483 1 
10484 3 
10485 1 
2329 1 
2330 3 
2331 1 
7258 1 
7259 3 
7260 1 
10018 1 
10019 3 
10020 1 
6067 1 
6068 3 
6069 1 
4099 1 
4100 3 
4101 1 
5062 1 
5063 3 
5064 1 
6142 1 
6143 3 
6144 1 
6433 1 
6434 3 
6435 1 
7522 1 
7523 3 
7524 1 
8479 1 
8480 3 
8481 1 
8536 1 
8537 3 
8538 1 
4291 1 
4292 3 
4293 1 
6208 1 
6209 3 
6210 1 
880 1 
881 3 
882 1 
1123 1 
1124 3 
1125 1 
7600 1 
7601 3 
7602 1 
9766 1 
9767 3 
9768 1 
3175 1 
3176 3 
3177 1 
7375 1 
7376 3 
7377 1 
11098 1 
11099 3 
11100 1 
11461 1 
11462 3 
11463 1 
12550 1 
12551 3 
12552 1 
12604 1 
12605 3 
12606 1 
13567 1 
13568 2 
13569 1 
18430 1 
18431 3 
18432 1 
20884 1 
20885 2 
20886 1 
20890 1 
20891 3 
20892 1 
12559 1 
12560 3 
12561 1 
16414 1 
16415 3 
16416 1 
17548 1 
17549 3 
17550 1 
17608 1 
17609 3 
17610 1 
13543 1 
13544 3 
13545 1 
17320 1 
17321 3 
17322 1 
20923 1 
20924 3 
20925 1 
11275 1 
11276 3 
11277 1 
20995 1 
20996 3 
20997 1 
19207 1 
19208 3 
19209 1 
11959 1 
11960 3 
11961 1 
14113 1 
14114 3 
14115 1 
14956 1 
14957 3 
14958 1 
17059 1 
17060 3 
17061 1 
18142 1 
18143 3 
18144 1 
17005 1 
17006 3 
17007 1 
17065 1 
17066 3 
17067 1 
18991 1 
18992 3 
18993 1 
15997 1 
15998 3 
15999 1 
19423 1 
19424 2 
19425 1 
21160 1 
21161 3 
21162 1 
21226 1 
21227 3 
21228 1 
15958 1 
15959 3 
15960 1 
16309 1 
16310 3 
16311 1 
18052 1 
18053 3 
18054 1 
19312 1 
19313 3 
19314 1 
21172 1 
21173 3 
21174 1 
