ITEM: TIMESTEP
0
ITEM: NUMBER OF ATOMS
264
ITEM: BOX BOUNDS pp pp pp
0.0000000000000000e+00 5.0000000000000000e+01
0.0000000000000000e+00 5.0000000000000000e+01
0.0000000000000000e+00 5.0000000000000000e+01
ITEM: ATOMS id type 
487 1 
488 2 
489 1 
1330 1 
1331 2 
1332 1 
1387 1 
1388 2 
1389 1 
6841 1 
6842 2 
6843 1 
8944 1 
8945 2 
8946 1 
10510 1 
10511 2 
10512 1 
2293 1 
2294 2 
2295 1 
3553 1 
3554 2 
3555 1 
5776 1 
5777 2 
5778 1 
6022 1 
6023 2 
6024 1 
7762 1 
7763 2 
7764 1 
7819 1 
7820 2 
7821 1 
8236 1 
8237 2 
8238 1 
9193 1 
9194 2 
9195 1 
8185 1 
8186 2 
8187 1 
9334 1 
9335 2 
9336 1 
2626 1 
2627 2 
2628 1 
3640 1 
3641 2 
3642 1 
10186 1 
10187 2 
10188 1 
3355 1 
3356 2 
3357 1 
4375 1 
4376 2 
4377 1 
6778 1 
6779 2 
6780 1 
8212 1 
8213 2 
8214 1 
9292 1 
9293 2 
9294 1 
1867 1 
1868 2 
1869 1 
2047 1 
2048 2 
2049 1 
3787 1 
3788 2 
3789 1 
6184 1 
6185 2 
6186 1 
9910 1 
9911 2 
9912 1 
6073 1 
6074 2 
6075 1 
7639 1 
7640 2 
7641 1 
8473 1 
8474 2 
8475 1 
625 1 
626 2 
627 1 
931 1 
932 2 
933 1 
9565 1 
9566 2 
9567 1 
1717 1 
1718 2 
1719 1 
3106 1 
3107 2 
3108 1 
5326 1 
5327 2 
5328 1 
8746 1 
8747 2 
8748 1 
4135 1 
4136 2 
4137 1 
4312 1 
4313 2 
4314 1 
11464 1 
11465 2 
11466 1 
13201 1 
13202 3 
13203 1 
12442 1 
12443 2 
12444 1 
15376 1 
15377 2 
15378 1 
12151 1 
12152 2 
12153 1 
14671 1 
14672 2 
14673 1 
17665 1 
17666 3 
17667 1 
17734 1 
17735 3 
17736 1 
19711 1 
19712 2 
19713 1 
17626 1 
17627 2 
17628 1 
11218 1 
11219 2 
11220 1 
11395 1 
11396 2 
11397 1 
13189 1 
13190 2 
13191 1 
16369 1 
16370 2 
16371 1 
16438 1 
16439 2 
16440 1 
16672 1 
16673 2 
16674 1 
17392 1 
17393 2 
17394 1 
17815 1 
17816 2 
17817 1 
18529 1 
18530 2 
18531 1 
19609 1 
19610 2 
19611 1 
21058 1 
21059 2 
21060 1 
11584 1 
11585 2 
11586 1 
17884 1 
17885 2 
17886 1 
11542 1 
11543 2 
11544 1 
12916 1 
12917 2 
12918 1 
14053 1 
14054 2 
14055 1 
15193 1 
15194 2 
15195 1 
15199 1 
15200 2 
15201 1 
15922 1 
15923 3 
15924 1 
16879 1 
16880 2 
16881 1 
11665 1 
11666 2 
11667 1 
14854 1 
14855 2 
14856 1 
18085 1 
18086 2 
18087 1 
20074 1 
20075 2 
20076 1 
21145 1 
21146 2 
21147 1 
11863 1 
11864 2 
11865 1 
13123 1 
13124 2 
13125 1 
16006 1 
16007 2 
16008 1 
16903 1 
16904 2 
16905 1 
19057 1 
19058 2 
19059 1 
21097 1 
21098 2 
21099 1 
11638 1 
11639 2 
11640 1 
11749 1 
11750 2 
11751 1 
12832 1 
12833 2 
12834 1 
19378 1 
19379 2 
19380 1 
20038 1 
20039 2 
20040 1 
21169 1 
21170 2 
21171 1 
