ITEM: TIMESTEP
15000000
ITEM: NUMBER OF ATOMS
19944
ITEM: BOX BOUNDS pp pp pp
0.0000000000000000e+00 5.0000000000000000e+01
0.0000000000000000e+00 5.0000000000000000e+01
0.0000000000000000e+00 5.0000000000000000e+01
ITEM: ATOMS id type xs ys zs
9978 1 0.142871 0.00466647 0.0205432
9977 3 0.148283 0.000465318 0.0247936
14178 1 0.18449 0.0268385 0.00584091
7215 1 0.219892 0.00946971 0.0186328
7214 3 0.22791 0.00694514 0.0153325
7213 1 0.235051 0.00475747 0.0120449
3203 2 0.280129 0.00914697 0.0217855
3204 1 0.274267 0.0101221 0.027121
3202 1 0.286793 0.00839982 0.0171069
19054 1 0.0900901 0.0377291 0.0235322
19055 3 0.0942846 0.0422143 0.0181819
11128 1 0.109636 0.0581191 0.00076751
11130 1 0.100045 0.0481423 0.0108123
19056 1 0.0981798 0.0463699 0.0127236
11129 3 0.104854 0.0535464 0.00661752
5800 1 0.153732 0.0505847 0.0289789
5801 2 0.146444 0.0528659 0.0310574
12648 1 0.314989 0.0364207 0.0184535
17021 2 0.00382462 0.090237 0.00195416
19297 1 0.000992403 0.0768527 0.0128561
17020 1 0.00219323 0.087676 0.00902933
10452 1 0.0763114 0.0799996 0.00236671
3081 1 0.159477 0.0809972 0.00114014
3080 2 0.168231 0.0815874 0.000820379
3079 1 0.176916 0.0831158 0.000741344
1710 1 0.299765 0.0747354 0.0293725
1709 3 0.301944 0.0797172 0.0229043
1708 1 0.303744 0.0825125 0.0158002
1890 1 0.00974786 0.0992032 0.0298663
12292 1 0.108145 0.119991 0.0244126
12293 3 0.115275 0.119494 0.0283568
1641 1 0.0580837 0.150694 0.00753717
5278 1 0.166404 0.14601 0.00891063
5279 2 0.165413 0.143819 0.001504
1640 2 0.0615127 0.158368 0.0084765
1639 1 0.0633909 0.165569 0.00790557
15383 3 0.0940737 0.175379 0.0291444
13736 2 0.0677752 0.174801 0.00798931
13735 1 0.0645335 0.168311 0.00796543
13737 1 0.0700046 0.182487 0.00838713
5128 1 0.0705826 0.185106 0.00860607
1861 1 0.0992353 0.168693 0.00406816
15384 1 0.0996401 0.180108 0.0256848
5506 1 0.1016 0.182433 0.0248749
5507 2 0.105709 0.188547 0.0227443
6118 1 0.198342 0.186571 0.026719
12032 3 0.195952 0.160323 0.028609
12033 1 0.196126 0.167934 0.0267933
6120 1 0.196248 0.171245 0.0267962
6119 3 0.197056 0.179242 0.0261165
312 1 0.250346 0.161435 0.0002821
375 1 0.276427 0.180968 0.0106189
374 3 0.269989 0.177105 0.00828439
373 1 0.263825 0.172489 0.00673374
310 1 0.261737 0.17066 0.00557399
311 2 0.255614 0.166579 0.00288772
16494 1 0.30597 0.182846 0.0300241
16493 2 0.305103 0.18852 0.0269944
5129 3 0.0714831 0.193422 0.00996896
5130 1 0.0708398 0.201477 0.012569
3194 2 0.0927616 0.2164 0.0167294
3195 1 0.0890597 0.219117 0.0222277
3193 1 0.0974573 0.213031 0.0108668
18786 1 0.112293 0.196123 0.0203996
5508 1 0.110481 0.193705 0.0210452
18785 2 0.116419 0.201843 0.0186975
18784 1 0.120493 0.207275 0.0153301
20844 1 0.198468 0.190102 0.0271876
20843 3 0.199421 0.198081 0.0287191
20842 1 0.199358 0.205818 0.0305585
14071 1 0.199355 0.209181 0.0313939
16492 1 0.306717 0.195096 0.0239934
4538 2 0.0299373 0.238126 0.0241279
4537 1 0.0271137 0.244828 0.0254204
4539 1 0.0343763 0.232366 0.0217178
12991 1 0.0895052 0.251662 0.0244712
19919 2 0.0782484 0.251676 0.0218859
19918 1 0.0864364 0.251211 0.0234165
2008 1 0.117353 0.241164 0.0212197
2009 3 0.114421 0.242663 0.0133913
2010 1 0.117313 0.243397 0.00564462
1974 1 0.117802 0.240352 0.0240556
1973 2 0.11764 0.236852 0.0308357
12992 2 0.0973697 0.252712 0.0271283
20005 1 0.118224 0.244518 0.00267932
2038 1 0.163521 0.25112 0.00968941
2039 3 0.162821 0.245255 0.0135025
2040 1 0.161209 0.239353 0.0189765
17614 1 0.124577 0.0440541 0.0555974
5802 1 0.138951 0.0561871 0.0337246
5080 1 0.154176 0.0606051 0.0472753
5081 2 0.147056 0.0566459 0.0504433
17616 1 0.138854 0.050784 0.0539726
5082 1 0.14145 0.0523824 0.0529454
17615 2 0.132215 0.0470368 0.0560499
20582 3 0.256436 0.0616819 0.0571713
20583 1 0.253734 0.0610066 0.0490899
1889 2 0.00390913 0.0939746 0.0324405
19618 1 0.220325 0.0808586 0.0477079
19619 2 0.220372 0.0891531 0.0498682
20581 1 0.261329 0.0643178 0.0632371
10600 1 0.0116774 0.121866 0.0438552
3876 1 0.012984 0.124399 0.0425494
10602 1 0.00541637 0.10902 0.0499975
10601 3 0.00843868 0.115032 0.0472369
12294 1 0.121472 0.118144 0.0344383
14119 1 0.220734 0.108043 0.0465581
19620 1 0.220521 0.0974761 0.0492113
14121 1 0.229586 0.111245 0.03377
14120 2 0.225059 0.108149 0.0405693
8617 1 0.314013 0.109712 0.0484065
3875 3 0.0166509 0.131103 0.0386116
3874 1 0.0187032 0.136558 0.0343918
2448 1 0.17925 0.149887 0.0622004
4816 1 0.18083 0.151456 0.0600828
4817 2 0.185631 0.154505 0.053808
1566 1 0.196719 0.135622 0.0405497
1565 2 0.196397 0.143062 0.0366199
1564 1 0.196238 0.149746 0.0339364
12031 1 0.196006 0.152859 0.0325002
4818 1 0.192261 0.156783 0.0496973
10392 1 0.248257 0.134616 0.0547333
10391 3 0.254339 0.134299 0.0611309
12126 1 0.0498276 0.180646 0.0526062
12125 2 0.0484036 0.186807 0.0577868
15382 1 0.0879949 0.172502 0.0329178
1539 1 0.201406 0.171143 0.0470886
1538 3 0.203343 0.166633 0.0533593
1537 1 0.205172 0.164365 0.0602332
12124 1 0.0476431 0.192373 0.0624241
15233 2 0.0857862 0.214379 0.0468563
15232 1 0.0814557 0.220127 0.0432879
15234 1 0.0901872 0.208442 0.0496625
14072 3 0.199221 0.217576 0.0335602
1512 1 0.217953 0.219849 0.0362589
379 1 0.07383 0.232988 0.0337446
380 2 0.0765535 0.227348 0.0370387
381 1 0.079916 0.222084 0.0417088
6822 1 0.0940085 0.227991 0.0547312
8093 2 0.122312 0.228623 0.0470271
8094 1 0.119324 0.232027 0.0397057
6820 1 0.10246 0.235506 0.0451629
6821 2 0.0987574 0.231849 0.050883
1972 1 0.118331 0.233385 0.0367934
10584 1 0.157415 0.247002 0.046649
8092 1 0.12873 0.224738 0.0515399
10583 3 0.160739 0.248539 0.0407284
10582 1 0.164615 0.249203 0.0339209
14073 1 0.197732 0.224846 0.0374544
16011 1 0.197411 0.227245 0.0390297
16010 3 0.196777 0.233425 0.0440745
14506 1 0.194678 0.240626 0.0518248
16009 1 0.195638 0.238751 0.04954
14507 3 0.191737 0.246133 0.0585135
1511 3 0.219004 0.226646 0.041831
1510 1 0.22126 0.232205 0.046633
4455 1 0.22384 0.235905 0.0632235
4454 2 0.230663 0.236284 0.0597149
4453 1 0.238448 0.238224 0.0570652
6682 1 0.305252 0.00335168 0.0881657
12595 1 0.13132 0.059003 0.0696598
20563 1 0.0570276 0.0907126 0.0797792
20564 2 0.0641019 0.0936753 0.0798903
12597 1 0.140715 0.0698909 0.0714003
12596 2 0.136021 0.0641981 0.0701371
6379 1 0.198261 0.0927195 0.0916328
5010 1 0.196822 0.0928196 0.0938358
6380 3 0.203041 0.0920523 0.0842564
6381 1 0.20717 0.0890198 0.07744
20565 1 0.0700405 0.0985621 0.0824254
14355 1 0.0718054 0.100367 0.0829287
14353 1 0.0803721 0.110213 0.0912234
14354 2 0.0767929 0.104301 0.0860647
5916 1 0.0704347 0.141071 0.0866212
5915 2 0.0737324 0.138228 0.0941309
2446 1 0.168387 0.14246 0.071047
2447 2 0.17361 0.14572 0.0664867
133 1 0.244023 0.134209 0.0838711
134 3 0.238838 0.13879 0.081387
135 1 0.233076 0.144104 0.0805941
2491 1 0.272554 0.135418 0.0786372
2493 1 0.263494 0.133249 0.0671348
10390 1 0.26091 0.13338 0.0653891
2492 2 0.269111 0.133901 0.0723112
8688 1 0.0110488 0.16502 0.0699442
18679 1 0.0196247 0.185166 0.080124
8687 3 0.00512672 0.169307 0.0709842
8866 1 0.192607 0.16798 0.0936632
8206 1 0.239678 0.183531 0.0835909
8207 3 0.247088 0.184191 0.0829382
8208 1 0.255416 0.185198 0.0815546
18680 2 0.0255281 0.190198 0.079308
18681 1 0.0320174 0.195443 0.0800411
15260 2 0.0564532 0.211995 0.0883908
11487 1 0.0343226 0.197063 0.0801792
11486 2 0.0413693 0.202468 0.0818557
15261 1 0.0504955 0.20787 0.0856482
11485 1 0.0481228 0.206283 0.0841128
15259 1 0.0613808 0.215151 0.093908
14508 1 0.189301 0.251821 0.0636251
7005 1 0.261616 0.240473 0.0926655
7004 2 0.258976 0.239853 0.0849336
7003 1 0.257178 0.238977 0.07698
9115 1 0.274469 0.253249 0.0881217
16107 1 0.274665 0.251032 0.090647
14650 1 0.207968 0.00581765 0.100326
14652 1 0.191847 0.00253245 0.097724
14651 2 0.199514 0.00504708 0.0989434
13515 1 0.238565 0.0162337 0.117704
13514 3 0.231439 0.0196948 0.115411
13513 1 0.22385 0.0229545 0.112648
9191 3 0.161181 0.0349203 0.123697
18186 1 0.167713 0.0359944 0.113453
9192 1 0.165536 0.0354715 0.11611
18184 1 0.178691 0.0408991 0.102681
18185 3 0.17357 0.0383645 0.107332
1963 1 0.299447 0.0358827 0.118439
1964 3 0.295736 0.0363618 0.124652
5009 3 0.190534 0.0938065 0.100105
7666 1 0.0751823 0.115472 0.117883
7667 2 0.0711853 0.117712 0.111212
7668 1 0.0664476 0.116939 0.10377
5008 1 0.18439 0.0975906 0.104173
14653 1 0.189384 0.116318 0.124686
14654 3 0.192184 0.123923 0.126331
18543 1 0.0642794 0.157771 0.100486
10985 2 0.0791345 0.141413 0.111082
10986 1 0.0769358 0.138926 0.103957
5914 1 0.0759717 0.138305 0.10121
10984 1 0.0823221 0.14398 0.119241
6787 1 0.154662 0.152407 0.116677
18541 1 0.0566964 0.164114 0.113229
18542 2 0.062306 0.161833 0.107352
13441 1 0.123258 0.161671 0.122736
6789 1 0.145533 0.165059 0.112892
6788 2 0.149689 0.15848 0.113941
6189 1 0.154106 0.183769 0.105199
6188 3 0.148739 0.179289 0.107706
6187 1 0.142324 0.173407 0.109398
10035 1 0.140242 0.188621 0.121943
8867 3 0.18552 0.171488 0.0972231
8868 1 0.179531 0.174345 0.102026
6882 1 0.172686 0.188693 0.124436
20299 1 0.172801 0.189906 0.121386
1378 1 0.0226043 0.191073 0.123062
10033 1 0.132773 0.201055 0.115899
10034 3 0.137831 0.196273 0.118567
18873 1 0.156523 0.207137 0.112255
20301 1 0.171818 0.196133 0.106931
20300 3 0.172622 0.192948 0.113796
18871 1 0.166092 0.220565 0.112511
18872 3 0.161584 0.213341 0.112793
16380 1 0.27629 0.217745 0.125485
21274 1 0.0475308 0.24972 0.106873
1341 1 0.166581 0.250739 0.102136
1340 2 0.167672 0.244272 0.107002
1339 1 0.169799 0.238208 0.112894
15784 1 0.278676 0.241528 0.122278
15785 2 0.276933 0.24174 0.114058
16105 1 0.275978 0.243375 0.103766
16106 2 0.275069 0.246872 0.0972001
15786 1 0.275686 0.242448 0.106658
1023 1 0.280307 0.241446 0.125195
1076 2 0.298385 0.230208 0.0974521
1075 1 0.292286 0.235611 0.0983275
1077 1 0.303675 0.223398 0.0971144
4904 2 0.0628963 0.00503363 0.144334
4903 1 0.0606509 0.0119178 0.146052
6621 1 0.0596388 0.01434 0.147083
6620 2 0.0584128 0.0206974 0.150254
6619 1 0.0562305 0.0276215 0.150043
14037 1 0.220517 0.00841095 0.156607
20350 1 0.207665 0.0020705 0.141167
12205 1 0.237964 0.00485303 0.147607
12206 3 0.231223 0.00711059 0.151436
12207 1 0.223771 0.00792381 0.155823
14401 1 0.0109741 0.0417417 0.134853
14403 1 0.0251406 0.0398665 0.139783
14402 3 0.0187648 0.042212 0.136483
9190 1 0.155659 0.0325957 0.129228
17931 1 0.146817 0.0505952 0.146123
17930 3 0.154405 0.0535052 0.149343
17929 1 0.161564 0.0566751 0.150366
15874 1 0.25596 0.0566036 0.132629
15875 3 0.261147 0.05353 0.138207
15876 1 0.266929 0.0501357 0.144508
7032 1 0.28179 0.0613959 0.138467
1965 1 0.289822 0.0336927 0.130444
9713 3 0.295733 0.0473163 0.144543
9712 1 0.287144 0.0456167 0.14338
18213 1 0.306634 0.0504664 0.148119
9714 1 0.303777 0.0494386 0.146998
18212 2 0.313925 0.05211 0.151376
21345 1 0.0306329 0.063795 0.152936
5773 1 0.175341 0.0659571 0.12979
5775 1 0.187201 0.0648762 0.138282
5774 2 0.182397 0.0659433 0.133664
4305 1 0.276403 0.0945305 0.135877
4304 3 0.277356 0.0866978 0.136696
7031 2 0.280623 0.0687297 0.138383
4303 1 0.278896 0.0788118 0.136513
7030 1 0.27936 0.0764862 0.136912
12447 1 0.0798926 0.123842 0.152161
12446 3 0.0789974 0.120685 0.144816
12445 1 0.0768736 0.117426 0.137361
21342 1 0.118469 0.113241 0.147383
21340 1 0.107166 0.124229 0.148109
21341 3 0.111749 0.118246 0.147701
14896 1 0.250385 0.112746 0.144506
14898 1 0.25604 0.101457 0.136766
14897 2 0.254281 0.106634 0.140917
21136 1 0.034517 0.127258 0.137621
21137 3 0.0338319 0.134565 0.140366
21138 1 0.033946 0.142004 0.144168
14655 1 0.195941 0.130291 0.129267
17830 1 0.203197 0.147532 0.136468
17831 3 0.201096 0.139916 0.133045
17832 1 0.197167 0.132956 0.130177
17331 1 0.236852 0.155715 0.15493
13442 3 0.124733 0.165804 0.130088
13443 1 0.129172 0.169511 0.135289
6880 1 0.171484 0.179027 0.138765
6881 3 0.172537 0.184596 0.131894
3453 1 0.231432 0.178665 0.143264
3451 1 0.242363 0.173212 0.154056
3452 3 0.236408 0.175627 0.148724
1379 3 0.01834 0.191311 0.129156
1380 1 0.0146302 0.19082 0.136654
16345 1 0.204718 0.198561 0.131446
16346 3 0.197907 0.19806 0.129364
16347 1 0.19041 0.198702 0.12713
11709 1 0.302358 0.204689 0.131785
11708 2 0.309117 0.207907 0.132577
6460 1 0.0502161 0.25162 0.127042
4404 1 0.0423839 0.232727 0.154255
4403 2 0.0478169 0.2395 0.15335
4402 1 0.0538307 0.245495 0.152416
985 1 0.055753 0.247136 0.152177
986 2 0.0615298 0.252982 0.152369
16379 2 0.270786 0.222431 0.129028
16378 1 0.266482 0.226265 0.134335
1022 2 0.285692 0.242496 0.13252
1021 1 0.288145 0.244573 0.14009
10798 1 0.289138 0.245194 0.142785
10799 2 0.292718 0.244366 0.150566
11659 1 0.295055 0.226301 0.154233
5853 1 0.0186457 0.0138465 0.188564
20257 1 0.0577912 0.00503013 0.188808
11298 1 0.0709411 0.0312995 0.186409
8809 1 0.0727826 0.0304134 0.188735
18877 1 0.186104 0.0108119 0.164802
14591 2 0.174692 0.0116358 0.165787
14590 1 0.183244 0.0108809 0.16543
14592 1 0.167306 0.0130496 0.165436
18878 3 0.194625 0.0102887 0.164281
18879 1 0.202844 0.011269 0.162415
14035 1 0.206155 0.0113608 0.161452
14036 3 0.212547 0.0100087 0.158776
16425 1 0.235325 0.0224035 0.186279
6794 2 0.00961267 0.0542978 0.16888
21344 3 0.0243521 0.0611654 0.158488
6793 1 0.0161753 0.0564194 0.16415
21343 1 0.0180304 0.0576846 0.162797
6795 1 0.00399116 0.0533052 0.175258
9217 1 0.0456305 0.0515908 0.177735
9219 1 0.0474119 0.0370155 0.184238
9218 2 0.0452744 0.0432749 0.180715
11296 1 0.0639485 0.0365286 0.173933
11297 2 0.0672706 0.032961 0.18035
11127 1 0.0777159 0.0586269 0.175488
11126 3 0.0850733 0.0592407 0.176439
11125 1 0.0923847 0.0601473 0.174895
18739 1 0.0948332 0.0533246 0.18536
13635 1 0.22733 0.090948 0.161548
13634 3 0.234423 0.0877826 0.160057
13633 1 0.241699 0.0824552 0.160242
16413 1 0.0378414 0.158205 0.184129
17329 1 0.23908 0.157463 0.168746
17330 3 0.238647 0.157123 0.161737
16412 2 0.0329404 0.163279 0.189474
6347 3 0.115402 0.164125 0.186968
6348 1 0.108629 0.161285 0.18339
6346 1 0.122293 0.166706 0.189073
9183 1 0.125226 0.167657 0.189552
12096 1 0.281702 0.202023 0.181645
12095 2 0.283412 0.208931 0.177147
12094 1 0.283931 0.216038 0.173667
15810 1 0.27794 0.233869 0.170408
15808 1 0.264864 0.236431 0.159732
15809 2 0.271881 0.236324 0.164358
10800 1 0.294592 0.242533 0.15859
11660 2 0.300389 0.226584 0.160318
11661 1 0.305155 0.2263 0.166313
751 1 0.306673 0.225857 0.168821
752 2 0.311011 0.223834 0.1755
16021 1 0.00144551 0.00545012 0.200815
5852 2 0.0248164 0.0146238 0.193891
5851 1 0.0306627 0.0151082 0.199895
13018 1 0.0415213 0.0187836 0.215476
20258 2 0.0631323 0.0106696 0.191561
13019 2 0.0373594 0.0171009 0.208574
13020 1 0.0327392 0.0154719 0.202515
20259 1 0.0682024 0.0166865 0.195481
15598 1 0.0800079 0.0257575 0.205889
8811 1 0.0786709 0.0265023 0.202784
8810 2 0.0768478 0.0286198 0.195822
11499 1 0.0886294 0.0197134 0.22103
15600 1 0.0870682 0.0207726 0.218584
15599 3 0.0826433 0.0236051 0.212917
17536 1 0.125611 0.0169546 0.217892
4379 2 0.104379 0.000738099 0.217122
4380 1 0.111601 0.00411984 0.217606
17538 1 0.114542 0.00581364 0.217651
17537 2 0.120736 0.0107961 0.21836
16424 2 0.230628 0.0260056 0.192404
1069 1 0.22661 0.0289353 0.202051
16423 1 0.227713 0.0279328 0.199696
18741 1 0.0983491 0.0457685 0.19823
18740 3 0.096221 0.0494861 0.192031
9643 1 0.0995358 0.0440685 0.200652
9644 3 0.10217 0.0385567 0.206771
9645 1 0.101304 0.0327554 0.212554
1070 3 0.225525 0.0323013 0.209738
1071 1 0.22664 0.0359691 0.217101
5293 1 0.226959 0.0372226 0.219974
6238 1 0.125173 0.0985043 0.205626
6240 1 0.135055 0.107846 0.198405
6239 3 0.1302 0.103952 0.202292
14473 1 0.00627495 0.14685 0.203821
1854 1 0.038683 0.145764 0.190927
1853 2 0.0377281 0.138939 0.192552
1852 1 0.0355782 0.13233 0.195482
17232 1 0.0862689 0.156638 0.209285
15796 1 0.271535 0.148473 0.199906
15798 1 0.278645 0.134835 0.198967
15797 2 0.275031 0.140794 0.19887
16411 1 0.0292429 0.167016 0.195183
7039 1 0.0334571 0.182089 0.216706
7040 3 0.0377069 0.177347 0.221061
17231 2 0.0905413 0.164032 0.209328
1523 2 0.119441 0.173427 0.210191
1522 1 0.118988 0.166191 0.206555
9357 1 0.121183 0.183304 0.214858
1524 1 0.121105 0.180276 0.21311
4564 1 0.101191 0.189114 0.211039
4565 2 0.0997688 0.181064 0.21005
4566 1 0.0966353 0.173165 0.208758
17230 1 0.0952024 0.170443 0.208638
6281 2 0.15183 0.183788 0.215505
6282 1 0.144356 0.185722 0.214317
9182 2 0.132144 0.170221 0.191851
9181 1 0.139426 0.171465 0.193496
6280 1 0.15955 0.182306 0.215925
9356 2 0.120812 0.191648 0.216772
9355 1 0.12144 0.20076 0.216862
16605 1 0.148426 0.198534 0.219457
10080 1 0.24449 0.216657 0.193968
10513 1 0.0982047 0.222706 0.214053
10514 2 0.0977645 0.227006 0.220907
18512 2 0.219104 0.243379 0.219979
18511 1 0.212117 0.24629 0.219267
18513 1 0.225658 0.239132 0.217714
10079 2 0.248478 0.222605 0.195251
10078 1 0.25402 0.228119 0.197865
11497 1 0.0940822 0.0122958 0.23275
11498 2 0.0917981 0.0165677 0.227114
4779 1 0.0979697 0.00081703 0.246202
4778 2 0.0973931 0.00591053 0.240049
4777 1 0.0949821 0.0103014 0.234755
3019 1 0.146186 0.00617507 0.247007
1607 3 0.212087 0.0220348 0.237041
1606 1 0.218611 0.0249817 0.240488
1608 1 0.206976 0.0197272 0.233142
6911 3 0.248283 0.00704292 0.223892
16100 2 0.228904 0.00185704 0.232596
6912 1 0.246649 0.0146118 0.224498
15174 1 0.246535 0.0173788 0.22497
1817 3 0.236904 0.00922797 0.24742
16101 1 0.231754 0.00539626 0.238628
1816 1 0.232888 0.00657261 0.241038
15173 3 0.244354 0.0247754 0.224037
63 1 0.286497 0.022086 0.234421
62 3 0.292855 0.0192597 0.231542
61 1 0.298946 0.0167252 0.227214
19446 1 0.00441861 0.0613799 0.235218
19445 3 0.00219682 0.0574386 0.228504
13415 3 0.104704 0.0629038 0.236518
13416 1 0.106849 0.0576862 0.230392
11402 2 0.178218 0.0508802 0.224078
11401 1 0.185336 0.0496946 0.223082
11403 1 0.170467 0.050489 0.22574
12098 2 0.210312 0.0435464 0.250342
12097 1 0.212374 0.0457977 0.243449
5294 3 0.227295 0.0403404 0.227196
5295 1 0.228089 0.0424018 0.236006
9361 1 0.242092 0.0589279 0.251563
15172 1 0.240543 0.0327843 0.226326
13837 1 0.102762 0.066702 0.246979
13414 1 0.103319 0.0659997 0.243803
6036 1 0.264913 0.0802949 0.233765
6035 2 0.270643 0.0787287 0.238498
2400 1 0.279506 0.0784986 0.245019
6034 1 0.277467 0.0783923 0.243212
2399 2 0.286262 0.0775675 0.2496
19421 2 0.183266 0.0981088 0.23648
19422 1 0.175333 0.0970631 0.238951
19420 1 0.190615 0.100418 0.233516
7087 1 0.0482936 0.156812 0.236542
19594 1 0.224169 0.130898 0.252861
19595 3 0.22971 0.135578 0.251835
19596 1 0.236807 0.139807 0.250467
7089 1 0.0435695 0.170273 0.227385
7088 3 0.0457126 0.163522 0.2322
7041 1 0.0422217 0.172629 0.225953
21034 1 0.214512 0.168389 0.227594
21035 2 0.222033 0.166785 0.23124
21036 1 0.228959 0.16533 0.23582
3762 1 0.302597 0.188197 0.226584
4787 2 0.154969 0.209782 0.241726
4788 1 0.151013 0.204311 0.23694
16604 2 0.148706 0.201813 0.227401
16603 1 0.150289 0.202997 0.234269
4786 1 0.159329 0.215635 0.24479
3760 1 0.301 0.203033 0.222796
3761 3 0.301881 0.195965 0.224336
16077 1 0.00910823 0.236798 0.234691
13806 1 0.0122014 0.230775 0.252789
13804 1 0.0095322 0.235586 0.237153
13805 2 0.0112231 0.232052 0.245064
16076 3 0.0058661 0.240214 0.229195
3654 1 0.080995 0.223488 0.237322
3653 3 0.0788499 0.225887 0.230655
3652 1 0.0754905 0.227774 0.222817
12817 1 0.0996931 0.229539 0.247416
12818 3 0.0995751 0.227961 0.239639
15972 1 0.0995924 0.230373 0.25013
12819 1 0.0983697 0.227638 0.230998
10515 1 0.0982885 0.227388 0.228028
10789 1 0.298376 0.236373 0.234401
10790 2 0.293153 0.242799 0.235151
10791 1 0.289711 0.250213 0.235962
4695 1 0.212282 0.016281 0.260131
4693 1 0.209034 0.0160302 0.27476
4694 3 0.209762 0.0162101 0.267257
3330 1 0.231575 0.0148391 0.282644
1818 1 0.240453 0.0107323 0.253714
10092 1 0.273372 0.000528414 0.283493
12099 1 0.208411 0.0403495 0.25696
9362 3 0.236468 0.0570792 0.255459
9363 1 0.230749 0.0560064 0.260656
20730 1 0.060802 0.0875955 0.264941
20729 3 0.0680395 0.0852999 0.267128
20728 1 0.0769903 0.0859738 0.270153
17877 1 0.100088 0.0747245 0.281689
17876 2 0.100943 0.0726502 0.273927
17875 1 0.101771 0.0706103 0.266672
13839 1 0.101656 0.0702725 0.26364
13838 3 0.101931 0.0686339 0.255185
2398 1 0.292969 0.0766824 0.255109
14409 1 0.107186 0.123714 0.282774
8325 1 0.0911293 0.150758 0.272127
7345 1 0.0920207 0.151171 0.275365
8324 3 0.0885579 0.14835 0.265437
8323 1 0.0873353 0.145748 0.25655
7346 3 0.0940173 0.151165 0.283507
21089 3 0.135922 0.143448 0.282282
21088 1 0.139596 0.150997 0.282753
21090 1 0.132939 0.13612 0.280515
12042 1 0.0121223 0.226503 0.270719
12041 2 0.0125772 0.228538 0.263986
12040 1 0.0125029 0.229837 0.255988
15970 1 0.0974004 0.238483 0.265382
15971 3 0.0981737 0.234069 0.257751
17635 1 0.299621 0.233431 0.260069
17636 3 0.299689 0.229714 0.267081
17637 1 0.299364 0.227287 0.273718
17056 1 0.0753547 0.0311922 0.305396
15858 1 0.0745409 0.029773 0.302724
15857 2 0.0714421 0.0268377 0.296091
15856 1 0.0668088 0.024177 0.290802
4560 1 0.24932 0.0184894 0.311371
3328 1 0.24428 0.0102197 0.290721
4559 3 0.248267 0.0134653 0.305301
4558 1 0.24736 0.00865509 0.299012
3329 3 0.238192 0.0119957 0.286894
18847 1 0.282613 0.0314422 0.302464
18848 2 0.280855 0.025425 0.298424
18849 1 0.277987 0.0182869 0.294611
10870 1 0.277026 0.0161546 0.292935
10871 3 0.274679 0.00990129 0.288684
10872 1 0.27358 0.00262902 0.284682
17057 3 0.0766073 0.0349886 0.313073
12082 1 0.11904 0.062687 0.301335
18624 1 0.174492 0.0612644 0.295575
12741 1 0.102139 0.0906324 0.306336
12740 3 0.104803 0.0834519 0.306231
12084 1 0.110188 0.0740573 0.304521
12739 1 0.108264 0.0761145 0.304847
12083 2 0.115379 0.069435 0.304278
11321 3 0.181166 0.0792859 0.316015
11320 1 0.179984 0.0736667 0.3098
18622 1 0.179362 0.0717554 0.30718
18623 3 0.177688 0.0672501 0.300736
14407 1 0.12093 0.114947 0.284859
20368 1 0.123857 0.113479 0.285389
14408 3 0.113692 0.119561 0.284717
20369 3 0.13118 0.109668 0.286514
20370 1 0.137921 0.105871 0.288138
7388 2 0.244752 0.122827 0.299397
7387 1 0.247471 0.117043 0.302678
13653 1 0.0535003 0.129244 0.313784
8154 1 0.0560407 0.130868 0.312662
8153 2 0.0620644 0.135113 0.309559
14715 1 0.0399857 0.143221 0.314406
21506 2 0.0767028 0.145204 0.302005
21505 1 0.07129 0.1399 0.305887
8152 1 0.0691588 0.138561 0.307215
21507 1 0.0819712 0.14994 0.298686
17689 1 0.104851 0.152367 0.30951
9805 1 0.104168 0.151651 0.307036
7347 1 0.0971381 0.149794 0.289698
9806 3 0.10185 0.150265 0.298688
9807 1 0.0981884 0.149427 0.292089
7389 1 0.23963 0.12967 0.297566
9649 1 0.238226 0.132232 0.296496
9650 2 0.234681 0.137858 0.293878
9651 1 0.230063 0.142757 0.289728
4845 1 0.0498887 0.182184 0.293206
4844 2 0.0552686 0.183609 0.29944
4843 1 0.0610193 0.183951 0.304793
18438 1 0.22522 0.221137 0.312698
4444 1 0.224176 0.218525 0.314272
567 1 0.256302 0.194488 0.294453
565 1 0.259895 0.206047 0.305542
566 2 0.257929 0.199445 0.30114
2462 3 0.100015 0.228425 0.310649
2463 1 0.0966906 0.22162 0.307929
2461 1 0.103604 0.234792 0.312013
9534 1 0.206951 0.251238 0.293525
9533 3 0.2111 0.246772 0.300799
9532 1 0.213906 0.241616 0.306786
1934 3 0.23474 0.242038 0.300293
18436 1 0.230999 0.234297 0.305438
1933 1 0.231978 0.236201 0.304571
1935 1 0.237827 0.24765 0.294688
18437 3 0.228053 0.227642 0.309535
16532 2 0.246105 0.251469 0.285982
16531 1 0.241746 0.244967 0.285198
2720 2 0.197465 0.00567844 0.34499
2719 1 0.199806 0.00284762 0.338773
17058 1 0.0770249 0.0367089 0.321167
4706 2 0.244201 0.0520131 0.328
4705 1 0.245029 0.0514031 0.319998
4707 1 0.242437 0.054042 0.336119
15454 1 0.275672 0.0522295 0.333204
15455 2 0.28028 0.045109 0.332808
15456 1 0.284913 0.0380147 0.331997
14729 2 0.0364885 0.0915593 0.334413
14728 1 0.0324814 0.0863429 0.329907
14240 3 0.179983 0.0926297 0.329262
14239 1 0.179865 0.086147 0.324791
11322 1 0.179925 0.0839385 0.322516
13351 1 0.0199219 0.118178 0.335199
13352 2 0.0165563 0.11483 0.342634
13652 2 0.0481043 0.125065 0.317599
18589 1 0.0416809 0.116819 0.32228
13651 1 0.0432957 0.11911 0.321295
14730 1 0.039979 0.0952028 0.341265
18590 2 0.0380948 0.110234 0.324537
18591 1 0.0340394 0.10332 0.323507
14241 1 0.180045 0.0999949 0.331904
19023 1 0.203452 0.112331 0.341325
5249 3 0.234288 0.122878 0.342739
5250 1 0.238729 0.117632 0.347708
743 3 0.278304 0.105571 0.345177
742 1 0.271628 0.109267 0.344223
744 1 0.284808 0.101594 0.346758
17136 1 0.287757 0.100106 0.347027
17135 3 0.294935 0.0971303 0.347713
14714 3 0.0401656 0.145532 0.322643
14713 1 0.0374739 0.1475 0.32967
17690 3 0.107963 0.15622 0.316902
15129 1 0.216262 0.136681 0.329323
15127 1 0.226816 0.128935 0.337561
5248 1 0.228732 0.127104 0.339059
15128 3 0.221129 0.133849 0.334587
17691 1 0.110771 0.159794 0.32367
4446 1 0.216943 0.207764 0.322486
4445 3 0.221281 0.21256 0.318844
20214 1 0.0907208 0.230209 0.340145
20212 1 0.102019 0.239727 0.334959
10236 1 0.105009 0.240724 0.333304
20213 3 0.0956884 0.236343 0.337948
10235 3 0.111528 0.244706 0.330656
10234 1 0.118347 0.247404 0.328968
10749 1 0.231078 0.236097 0.333244
10747 1 0.23395 0.232771 0.347486
10748 2 0.232937 0.235217 0.340483
11493 1 0.27679 0.235711 0.343481
16184 3 0.220136 0.00807651 0.352736
2721 1 0.194897 0.0101038 0.350761
16183 1 0.220881 5.39299e-05 0.351974
16185 1 0.219484 0.0158246 0.352034
7712 2 0.265381 0.00843579 0.364866
7711 1 0.26434 0.0166847 0.365412
7713 1 0.267151 0.000209922 0.363556
18269 3 0.0910199 0.0896818 0.355844
18268 1 0.0891497 0.0819856 0.358167
9430 1 0.250226 0.092504 0.374056
8165 3 0.276433 0.0889203 0.368003
8164 1 0.283212 0.0880043 0.370761
8166 1 0.269068 0.0913269 0.367006
17134 1 0.302156 0.0935215 0.349086
2319 1 0.286352 0.0878759 0.371441
2318 3 0.294483 0.0864649 0.371979
2317 1 0.303244 0.0844164 0.372439
3495 1 0.305841 0.0840271 0.372877
3494 3 0.314229 0.0829522 0.37352
3036 1 0.0131841 0.110568 0.353049
13353 1 0.0134693 0.111812 0.350402
3034 1 0.00830403 0.10249 0.365803
3035 2 0.0116628 0.106739 0.359235
18270 1 0.0951923 0.0969065 0.35689
19022 3 0.202021 0.111803 0.349447
19021 1 0.200696 0.111113 0.357862
7624 1 0.200006 0.111009 0.360827
7625 3 0.197423 0.110577 0.368725
7626 1 0.193794 0.108587 0.376188
19068 1 0.218218 0.102504 0.372177
19067 3 0.214872 0.10084 0.379318
9431 3 0.248378 0.0981738 0.369121
11236 1 0.240055 0.115824 0.34953
9432 1 0.24476 0.104008 0.364138
11238 1 0.244144 0.105571 0.362386
11237 3 0.241765 0.110881 0.357149
7052 2 0.0756571 0.135462 0.368428
7051 1 0.069381 0.140546 0.368142
7053 1 0.0815014 0.131429 0.370445
19549 1 0.27775 0.149136 0.369749
19550 2 0.280876 0.148397 0.363478
12756 1 0.30879 0.133796 0.352395
12754 1 0.30538 0.148598 0.350992
12912 1 0.305235 0.151209 0.350782
12755 3 0.30625 0.141255 0.351328
12911 2 0.301881 0.158137 0.352109
19551 1 0.286017 0.1478 0.358426
12910 1 0.29791 0.164718 0.354163
1753 1 0.300163 0.210601 0.356024
1754 2 0.294825 0.216416 0.354037
11492 3 0.282869 0.230132 0.348282
11491 1 0.287881 0.225365 0.350737
1755 1 0.289909 0.222853 0.351878
13239 1 0.0602053 0.0226108 0.40654
13238 2 0.0618434 0.0179705 0.401473
17805 1 0.0594397 0.0239076 0.408134
21364 1 0.0683387 0.00209585 0.401707
13237 1 0.0655879 0.0136169 0.396651
21042 1 0.134129 0.00453222 0.395701
21041 3 0.130141 0.000606882 0.401303
3332 3 0.17018 0.00153156 0.398362
3333 1 0.177452 0.00274499 0.398932
13683 1 0.176163 0.0228231 0.397098
13682 3 0.179744 0.0214498 0.404484
18537 1 0.30536 0.00318148 0.40357
1442 2 0.119638 0.0942796 0.395435
1443 1 0.122819 0.0894262 0.390768
3075 1 0.202338 0.0812156 0.4009
3074 3 0.204858 0.0751243 0.405963
3073 1 0.206917 0.0682356 0.410709
9368 2 0.307736 0.076444 0.402879
9369 1 0.309158 0.0753788 0.410338
9367 1 0.30663 0.0781103 0.395652
1441 1 0.117574 0.0980821 0.401306
19066 1 0.209814 0.100774 0.385451
1019 2 0.172165 0.171978 0.385285
1020 1 0.17266 0.16693 0.380063
1018 1 0.171951 0.179439 0.390032
11619 1 0.281276 0.168856 0.381104
11617 1 0.289837 0.160284 0.39077
11618 3 0.286473 0.16562 0.386235
13083 1 0.06765 0.207125 0.382012
13082 2 0.0746942 0.206201 0.382303
13081 1 0.0813654 0.204165 0.381485
5926 1 0.0841112 0.203519 0.381284
5927 3 0.0920765 0.201771 0.381563
5928 1 0.100322 0.200925 0.383392
19947 1 0.120305 0.23023 0.407477
19946 3 0.114401 0.228026 0.40207
19945 1 0.108833 0.227802 0.397842
20377 1 0.157783 0.245021 0.406141
11312 3 0.197268 0.247952 0.410571
11313 1 0.191161 0.250127 0.406154
17079 1 0.0463884 0.00265584 0.416444
17804 2 0.057986 0.0293586 0.414466
3511 1 0.124383 0.00579663 0.436825
3512 2 0.121054 0.000351001 0.442679
9851 3 0.153459 0.00643781 0.433538
9850 1 0.15054 0.0146033 0.432188
13681 1 0.184426 0.0199199 0.411942
17803 1 0.0575789 0.0352908 0.421376
16925 2 0.112201 0.063006 0.438707
16924 1 0.114744 0.0562299 0.436181
1528 1 0.115264 0.0535485 0.435299
1529 2 0.117784 0.0464775 0.432469
1530 1 0.120951 0.0391686 0.431866
16995 1 0.216948 0.0505708 0.420496
15277 1 0.215662 0.0526436 0.419165
15278 2 0.213141 0.0596381 0.415752
16994 2 0.221368 0.0448144 0.422759
16993 1 0.226485 0.0404795 0.42685
8502 1 0.228764 0.0390702 0.427774
8500 1 0.241261 0.0325018 0.428364
8501 2 0.234729 0.0358614 0.428879
8252 3 0.068216 0.0771278 0.433584
8251 1 0.0705927 0.0702841 0.430425
8253 1 0.0653079 0.0831369 0.436652
9285 1 0.107743 0.0942252 0.442564
7836 1 0.107838 0.0906127 0.442005
7835 3 0.107657 0.083149 0.440763
7834 1 0.109548 0.0742304 0.440396
16926 1 0.109958 0.0710795 0.440072
15279 1 0.208016 0.0659247 0.411878
4987 1 0.309758 0.074891 0.413079
4988 2 0.312051 0.0734078 0.422083
4989 1 0.314255 0.0735379 0.429946
4324 1 0.299262 0.0687971 0.437351
19451 3 0.0173087 0.110702 0.442433
19452 1 0.0193217 0.110191 0.435224
2554 1 0.0206146 0.109601 0.433316
2556 1 0.0306182 0.109038 0.420546
2555 3 0.0260871 0.109435 0.42715
5560 1 0.286985 0.121704 0.429106
5561 3 0.289332 0.125101 0.422138
3690 1 0.306689 0.125993 0.422346
5562 1 0.290802 0.128287 0.415182
3689 3 0.308352 0.132996 0.420102
3688 1 0.308922 0.140132 0.418378
18145 1 0.292649 0.148269 0.425012
18146 3 0.297647 0.152093 0.421925
18147 1 0.303628 0.155908 0.417132
11662 1 0.0212931 0.165233 0.43805
20613 1 0.00979544 0.184185 0.424829
20612 2 0.00267469 0.18535 0.424238