ITEM: TIMESTEP
15000000
ITEM: NUMBER OF ENTRIES
15325
ITEM: BOX BOUNDS pp pp pp
0 50
0 50
0 50
ITEM: ENTRIES c_binfo[1] c_binfo[2] c_binfo[3] 
3 9977 9978 
3 7214 7215 
3 7213 7214 
2 3203 3204 
2 3202 3203 
3 19054 19055 
3 19055 19056 
3 11128 11129 
1 11130 19056 
3 11129 11130 
2 5800 5801 
2 5801 5802 
2 17021 17022 
2 19297 19298 
2 17020 17021 
2 3080 3081 
2 3079 3080 
3 1709 1710 
3 1708 1709 
3 12292 12293 
3 12293 12294 
2 5278 5279 
2 5279 5280 
2 1640 1641 
2 1639 1640 
1 1639 13735 
3 15383 15384 
2 13736 13737 
2 13735 13736 
3 5128 5129 
1 5128 13737 
3 1861 1862 
2 5506 5507 
1 5506 15384 
2 5507 5508 
3 6118 6119 
1 6118 20844 
3 12032 12033 
1 6120 12033 
3 6119 6120 
3 374 375 
3 373 374 
2 310 311 
1 310 373 
2 311 312 
2 16493 16494 
3 5129 5130 
2 3194 3195 
2 3193 3194 
1 5508 18786 
2 18785 18786 
2 18784 18785 
3 20843 20844 
3 20842 20843 
3 14071 14072 
1 14071 20842 
2 16492 16493 
2 4538 4539 
2 4537 4538 
2 12991 12992 
1 12991 19918 
2 19919 19920 
2 19918 19919 
3 2008 2009 
3 2009 2010 
1 2010 20005 
1 1974 2008 
2 1973 1974 
2 12992 12993 
2 20005 20006 
3 2038 2039 
3 2039 2040 
2 17614 17615 
2 5080 5081 
2 5081 5082 
1 5082 17616 
2 17615 17616 
3 20582 20583 
2 1889 1890 
2 19618 19619 
2 19619 19620 
3 20581 20582 
3 10600 10601 
1 3876 10600 
3 10601 10602 
2 14119 14120 
2 14120 14121 
3 8617 8618 
3 3875 3876 
3 3874 3875 
1 2448 4816 
2 4816 4817 
2 4817 4818 
2 1565 1566 
2 1564 1565 
1 1564 12031 
3 12031 12032 
3 10391 10392 
2 12125 12126 
3 15382 15383 
3 1538 1539 
3 1537 1538 
2 12124 12125 
2 15233 15234 
2 15232 15233 
3 14072 14073 
2 379 380 
2 380 381 
1 381 15232 
2 8093 8094 
2 6820 6821 
2 6821 6822 
2 1972 1973 
1 1972 8094 
2 8092 8093 
3 10583 10584 
3 10582 10583 
1 14073 16011 
3 16010 16011 
3 14506 14507 
1 14506 16009 
3 16009 16010 
3 14507 14508 
3 1511 1512 
3 1510 1511 
2 4454 4455 
2 4453 4454 
2 6682 6683 
2 12595 12596 
2 20563 20564 
2 20564 20565 
2 12596 12597 
3 6379 6380 
1 5010 6379 
3 6380 6381 
1 14355 20565 
2 14353 14354 
2 14354 14355 
2 5915 5916 
2 2446 2447 
2 2447 2448 
3 133 134 
3 134 135 
2 2491 2492 
1 2493 10390 
3 10390 10391 
2 2492 2493 
2 18679 18680 
3 8687 8688 
3 8866 8867 
3 8206 8207 
3 8207 8208 
2 18680 18681 
2 15260 15261 
1 11487 18681 
2 11486 11487 
2 11485 11486 
1 11485 15261 
2 15259 15260 
1 14508 19368 
2 7004 7005 
2 7003 7004 
2 9115 9116 
1 9115 16107 
2 14650 14651 
2 14651 14652 
3 13514 13515 
3 13513 13514 
3 9191 9192 
1 9192 18186 
3 18184 18185 
3 18185 18186 
3 1963 1964 
3 1964 1965 
3 5009 5010 
2 7666 7667 
2 7667 7668 
3 5008 5009 
3 14653 14654 
3 14654 14655 
2 10985 10986 
2 5914 5915 
1 5914 10986 
2 10984 10985 
2 6787 6788 
2 18541 18542 
2 18542 18543 
3 13441 13442 
2 6788 6789 
3 6188 6189 
3 6187 6188 
3 8867 8868 
1 6882 20299 
3 20299 20300 
3 1378 1379 
3 10033 10034 
3 10034 10035 
3 20300 20301 
3 18871 18872 
3 18872 18873 
3 21274 21275 
2 1340 1341 
2 1339 1340 
2 15784 15785 
2 15785 15786 
2 16105 16106 
2 16106 16107 
1 15786 16105 
1 1023 15784 
2 1076 1077 
2 1075 1076 
2 4904 4905 
2 4903 4904 
1 4903 6621 
2 6620 6621 
2 6619 6620 
3 20350 20351 
3 12205 12206 
3 12206 12207 
1 12207 14037 
3 14401 14402 
3 14402 14403 
3 9190 9191 
3 17930 17931 
3 17929 17930 
3 15874 15875 
3 15875 15876 
3 9713 9714 
3 9712 9713 
1 9714 18213 
2 18212 18213 
2 5773 5774 
2 5774 5775 
3 4304 4305 
2 7031 7032 
3 4303 4304 
1 4303 7030 
2 7030 7031 
3 12446 12447 
3 12445 12446 
3 21340 21341 
3 21341 21342 
2 14896 14897 
2 14897 14898 
3 21136 21137 
3 21137 21138 
1 14655 17832 
3 17830 17831 
3 17831 17832 
3 13442 13443 
3 6880 6881 
3 6881 6882 
3 3451 3452 
3 3452 3453 
3 1379 1380 
3 16345 16346 
3 16346 16347 
2 11708 11709 
2 6460 6461 
2 4403 4404 
2 4402 4403 
2 985 986 
1 985 4402 
2 986 987 
2 16379 16380 
2 16378 16379 
2 1022 1023 
2 1021 1022 
1 1021 10798 
2 10798 10799 
2 10799 10800 
2 11659 11660 
2 20257 20258 
2 8809 8810 
1 8809 11298 
3 18877 18878 
2 14591 14592 
2 14590 14591 
1 14590 18877 
3 18878 18879 
3 14035 14036 
1 14035 18879 
3 14036 14037 
2 6794 6795 
3 21344 21345 
2 6793 6794 
1 6793 21343 
3 21343 21344 
2 9217 9218 
2 9218 9219 
2 11296 11297 
2 11297 11298 
3 11126 11127 
3 11125 11126 
3 18739 18740 
3 13634 13635 
3 13633 13634 
3 17329 17330 
3 17330 17331 
2 16412 16413 
3 6347 6348 
3 6346 6347 
1 6346 9183 
2 12095 12096 
2 12094 12095 
2 15808 15809 
2 15809 15810 
2 11660 11661 
2 751 752 
1 751 11661 
2 752 753 
3 16021 16022 
2 5852 5853 
2 5851 5852 
1 5851 13020 
2 13018 13019 
2 20258 20259 
2 13019 13020 
3 15598 15599 
1 8811 15598 
2 8810 8811 
1 11499 15600 
3 15599 15600 
2 17536 17537 
2 4379 4380 
1 4380 17538 
2 17537 17538 
2 16424 16425 
3 1069 1070 
1 1069 16423 
2 16423 16424 
3 18740 18741 
3 9643 9644 
1 9643 18741 
3 9644 9645 
3 1070 1071 
1 1071 5293 
3 5293 5294 
3 6238 6239 
3 6239 6240 
3 14473 14474 
2 1853 1854 
2 1852 1853 
2 15796 15797 
2 15797 15798 
2 16411 16412 
3 7039 7040 
3 7040 7041 
2 17231 17232 
2 1523 1524 
2 1522 1523 
1 1524 9357 
2 4564 4565 
2 4565 4566 
1 4566 17230 
2 17230 17231 
2 6281 6282 
2 9182 9183 
2 9181 9182 
2 6280 6281 
2 9356 9357 
2 9355 9356 
2 10513 10514 
2 10514 10515 
2 18512 18513 
2 18511 18512 
2 10079 10080 
2 10078 10079 
2 11497 11498 
2 11498 11499 
2 4778 4779 
2 4777 4778 
1 4777 11497 
3 3019 3020 
3 1607 1608 
3 1606 1607 
3 6911 6912 
2 16100 16101 
1 6912 15174 
3 1817 1818 
3 1816 1817 
1 1816 16101 
3 15173 15174 
3 62 63 
3 61 62 
3 19445 19446 
3 13415 13416 
2 11402 11403 
2 11401 11402 
2 12098 12099 
2 12097 12098 
3 5294 5295 
3 9361 9362 
3 15172 15173 
3 13837 13838 
3 13414 13415 
1 13414 13837 
2 6035 6036 
1 2400 6034 
2 6034 6035 
2 2399 2400 
2 19421 19422 
2 19420 19421 
3 7087 7088 
3 19594 19595 
3 19595 19596 
3 7088 7089 
1 7041 7089 
2 21034 21035 
2 21035 21036 
2 4787 4788 
1 4788 16603 
2 16604 16605 
2 16603 16604 
2 4786 4787 
3 3760 3761 
3 3761 3762 
2 13804 13805 
1 13804 16077 
2 13805 13806 
3 16076 16077 
3 3653 3654 
3 3652 3653 
3 12817 12818 
1 12817 15972 
3 12818 12819 
1 10515 12819 
2 10789 10790 
2 10790 10791 
3 4693 4694 
3 4694 4695 
1 10092 10872 
3 9362 9363 
3 20729 20730 
3 20728 20729 
2 17876 17877 
2 17875 17876 
1 13839 17875 
3 13838 13839 
2 2398 2399 
3 7345 7346 
1 7345 8325 
3 8324 8325 
3 8323 8324 
3 7346 7347 
3 21089 21090 
3 21088 21089 
2 12041 12042 
2 12040 12041 
1 12040 13806 
3 15970 15971 
3 15971 15972 
3 17635 17636 
3 17636 17637 
3 17056 17057 
1 15858 17056 
2 15857 15858 
2 15856 15857 
3 3328 3329 
3 4559 4560 
3 4558 4559 
3 3329 3330 
2 18847 18848 
2 18848 18849 
3 10870 10871 
1 10870 18849 
3 10871 10872 
3 17057 17058 
2 12082 12083 
3 12740 12741 
1 12084 12739 
3 12739 12740 
2 12083 12084 
3 11321 11322 
3 11320 11321 
1 11320 18622 
3 18622 18623 
3 18623 18624 
3 14407 14408 
1 14407 20368 
3 20368 20369 
3 14408 14409 
3 20369 20370 
2 7388 7389 
2 7387 7388 
1 8154 13653 
2 8153 8154 
2 21506 21507 
2 21505 21506 
2 8152 8153 
1 8152 21505 
3 17689 17690 
3 9805 9806 
1 9805 17689 
1 7347 9807 
3 9806 9807 
1 7389 9649 
2 9649 9650 
2 9650 9651 
2 4844 4845 
2 4843 4844 
3 4444 4445 
1 4444 18438 
2 565 566 
2 566 567 
3 2462 2463 
3 2461 2462 
1 9534 11020 
3 9533 9534 
3 9532 9533 
3 1934 1935 
3 18436 18437 
3 1933 1934 
1 1933 18436 
3 18437 18438 
2 16532 16533 
2 16531 16532 
2 2720 2721 
2 2719 2720 
2 4706 4707 
2 4705 4706 
2 15454 15455 
2 15455 15456 
2 14729 14730 
2 14728 14729 
3 14240 14241 
3 14239 14240 
1 11322 14239 
2 13351 13352 
2 13352 13353 
2 13652 13653 
2 18589 18590 
2 13651 13652 
1 13651 18589 
2 18590 18591 
3 5249 5250 
1 5250 11236 
3 743 744 
3 742 743 
1 744 17136 
3 17135 17136 
3 14714 14715 
3 14713 14714 
3 17690 17691 
3 15127 15128 
3 5248 5249 
1 5248 15127 
3 15128 15129 
3 4445 4446 
3 20212 20213 
1 10236 20212 
3 20213 20214 
3 10235 10236 
3 10234 10235 
2 10747 10748 
2 10748 10749 
3 16184 16185 
3 16183 16184 
2 7712 7713 
2 7711 7712 
1 7713 15475 
3 18269 18270 
3 18268 18269 
3 9430 9431 
3 8165 8166 
3 8164 8165 
3 17134 17135 
1 2319 8164 
3 2318 2319 
3 2317 2318 
1 2317 3495 
3 3494 3495 
1 3036 13353 
2 3034 3035 
2 3035 3036 
3 19022 19023 
3 19021 19022 
3 7624 7625 
1 7624 19021 
3 7625 7626 
3 19067 19068 
3 9431 9432 
3 11236 11237 
1 9432 11238 
3 11237 11238 
2 7052 7053 
2 7051 7052 
2 19549 19550 
2 19550 19551 
3 12754 12755 
1 12754 12912 
3 12755 12756 
2 12911 12912 
2 12910 12911 
2 1753 1754 
2 1754 1755 
3 11492 11493 
3 11491 11492 
1 1755 11491 
1 13239 17805 
2 13238 13239 
3 21364 21365 
2 13237 13238 
3 21041 21042 
3 3332 3333 
3 13682 13683 
2 1442 1443 
3 3074 3075 
3 3073 3074 
1 3073 15279 
2 9368 9369 
2 9367 9368 
2 1441 1442 
3 19066 19067 
2 1019 1020 
2 1018 1019 
3 11617 11618 
3 11618 11619 
2 13082 13083 
2 13081 13082 
3 5926 5927 
1 5926 13081 
3 5927 5928 
3 19946 19947 
3 19945 19946 
3 20377 20378 
3 11312 11313 
2 17804 17805 
2 3511 3512 
2 3512 3513 
3 9851 9852 
3 9850 9851 
3 13681 13682 
2 17803 17804 
2 16925 16926 
2 16924 16925 
2 1528 1529 
1 1528 16924 
2 1529 1530 
2 15277 15278 
1 15277 16995 
2 15278 15279 
2 16994 16995 
2 16993 16994 
1 8502 16993 
2 8500 8501 
2 8501 8502 
3 8252 8253 
3 8251 8252 
1 7836 9285 
3 7835 7836 
3 7834 7835 
1 7834 16926 
2 4987 4988 
1 4987 9369 
2 4988 4989 
3 4324 4325 
3 19451 19452 
3 2554 2555 
1 2554 19452 
3 2555 2556 
3 5560 5561 
3 5561 5562 
3 3689 3690 
3 3688 3689 
3 18145 18146 
3 18146 18147 
2 11662 11663 
2 20612 20613 
3 13484 13485 
3 13483 13484 
2 10891 10892 
1 10891 14658 
3 21427 21428 
3 21428 21429 
3 11311 11312 
2 15683 15684 
2 4064 4065 
1 4065 16446 
2 4063 4064 
2 16444 16445 
2 16445 16446 
3 17374 17375 
3 17375 17376 
3 3800 3801 
2 15682 15683 
2 6745 6746 
1 6745 13068 
2 584 585 
2 583 584 
3 13067 13068 
2 14134 14135 
2 14135 14136 
3 13066 13067 
1 13066 14136 
2 19738 19739 
2 3634 3635 
2 6746 6747 
2 2428 2429 
2 2429 2430 
1 2430 3636 
2 3635 3636 
3 4325 4326 
3 12335 12336 
3 19450 19451 
1 12336 19450 
3 12334 12335 
1 12334 17842 
2 13990 13991 
2 13991 13992 
3 9283 9284 
1 9283 13992 
3 9284 9285 
3 1778 1779 
3 1777 1778 
2 1694 1695 
2 1693 1694 
3 3172 3173 
3 3173 3174 
2 9932 9933 
2 9931 9932 
2 11663 11664 
2 5191 5192 
1 1779 5191 
2 5192 5193 
1 5193 9931 
3 292 293 
3 293 294 
2 307 308 
2 308 309 
1 7065 9933 
2 7063 7064 
2 7064 7065 
2 6394 6395 
1 11646 14656 
2 14656 14657 
2 11645 11646 
2 11644 11645 
2 14657 14658 
2 6395 6396 
3 3799 3800 
3 13865 13866 
3 6134 6135 
2 4162 4163 
3 6133 6134 
3 12829 12830 
1 12829 20388 
3 12830 12831 
2 19739 19740 
1 18162 19740 
2 18161 18162 
2 18160 18161 
2 18721 18722 
2 18722 18723 
3 7903 7904 
1 7903 18723 
3 15073 15074 
3 15074 15075 
2 12685 12686 
2 12686 12687 
3 1960 1961 
1 1960 18172 
3 1961 1962 
2 151 152 
2 18173 18174 
2 152 153 
2 18172 18173 
2 5018 5019 
1 5019 20718 
2 5017 5018 
2 20717 20718 
2 16618 16619 
2 16619 16620 
2 20716 20717 
2 5135 5136 
2 13852 13853 
1 5136 13852 
2 13853 13854 
3 19763 19764 
3 19762 19763 
2 5134 5135 
2 3613 3614 
2 3614 3615 
3 20383 20384 
2 15656 15657 
3 19967 19968 
3 9437 9438 
3 9436 9437 
3 1550 1551 
3 1549 1550 
3 19966 19967 
3 4616 4617 
3 4615 4616 
3 10507 10508 
3 12973 12974 
3 10508 10509 
2 14908 14909 
2 17647 17648 
2 17648 17649 
3 8195 8196 
3 8194 8195 
2 2908 2909 
2 2971 2972 
3 5932 5933 
3 10759 10760 
1 10759 16044 
3 5933 5934 
3 1799 1800 
3 11362 11363 
3 1798 1799 
1 1798 11362 
3 10760 10761 
3 13982 13983 
3 16870 16871 
3 13981 13982 
1 13981 16872 
3 16871 16872 
2 17069 17070 
3 12283 12284 
3 5576 5577 
3 5575 5576 
2 6776 6777 
2 6775 6776 
2 15655 15656 
2 7433 7434 
2 7432 7433 
3 18652 18653 
3 18653 18654 
3 7859 7860 
3 7858 7859 
1 7860 13446 
3 13445 13446 
3 12974 12975 
1 6336 13444 
3 13444 13445 
2 6334 6335 
2 6335 6336 
2 6365 6366 
2 6364 6365 
2 8161 8162 
2 21272 21273 
2 21271 21272 
2 14909 14910 
2 17120 17121 
2 17119 17120 
2 8162 8163 
2 2909 2910 
2 1324 1325 
2 1325 1326 
3 5389 5390 
3 16042 16043 
2 2972 2973 
2 16594 16595 
1 2973 16594 
2 16595 16596 
3 5390 5391 
1 5391 9531 
2 9529 9530 
2 9530 9531 
3 16043 16044 
3 9548 9549 
3 9547 9548 
2 13576 13577 
2 13577 13578 
1 12423 13983 
3 12422 12423 
3 12421 12422 
2 21499 21500 
2 17068 17069 
2 14596 14597 
3 14864 14865 
3 16817 16818 
3 16816 16817 
2 19367 19368 
2 19366 19367 
2 9116 9117 
3 7142 7143 
3 7141 7142 
1 7141 9232 
3 9232 9233 
3 9233 9234 
2 15140 15141 
2 15139 15140 
3 6566 6567 
3 14813 14814 
3 14812 14813 
2 9745 9746 
1 9745 15033 
2 9746 9747 
2 15031 15032 
2 15032 15033 
1 192 6364 
2 191 192 
2 190 191 
2 3241 3242 
2 3242 3243 
2 13412 13413 
2 13411 13412 
1 8163 13413 
2 20237 20238 
2 12503 12504 
2 12502 12503 
3 6371 6372 
3 11536 11537 
3 11537 11538 
2 12599 12600 
2 12598 12599 
1 12504 12598 
2 21500 21501 
2 14597 14598 
3 19486 19487 
3 21275 21276 
3 20452 20453 
1 16818 20454 
3 20453 20454 
2 12380 12381 
3 16682 16683 
3 16681 16682 
3 14254 14255 
3 14255 14256 
2 2356 2357 
2 2357 2358 
2 1618 1619 
1 1618 2356 
2 1619 1620 
3 6565 6566 
1 6565 8058 
3 8057 8058 
3 8056 8057 
2 12934 12935 
3 4450 4451 
1 8718 16680 
3 3577 3578 
3 10445 10446 
3 3578 3579 
2 14462 14463 
2 14461 14462 
1 14461 18108 
2 18106 18107 
2 18107 18108 
2 19960 19961 
2 16678 16679 
1 16678 19960 
2 16679 16680 
2 19961 19962 
3 15724 15725 
3 15725 15726 
3 10444 10445 
2 20236 20237 
3 6370 6371 
3 20932 20933 
1 14643 20934 
3 20933 20934 
3 18691 18692 
2 19196 19197 
3 14621 14622 
3 19562 19563 
2 19195 19196 
1 19195 19563 
3 19561 19562 
2 17278 17279 
3 6725 6726 
3 6724 6725 
1 6724 17278 
2 17279 17280 
2 6461 6462 
2 15370 15371 
2 15371 15372 
1 987 15372 
3 5449 5450 
3 5450 5451 
2 12379 12380 
2 4222 4223 
2 4223 4224 
3 349 350 
1 349 4452 
3 350 351 
3 4451 4452 
2 12935 12936 
2 8716 8717 
2 8717 8718 
2 8713 8714 
1 8715 18378 
2 8714 8715 
2 16561 16562 
2 16562 16563 
1 5469 17860 
2 17860 17861 
2 17861 17862 
2 5468 5469 
2 835 836 
1 837 10444 
2 836 837 
1 8229 21250 
3 15046 15047 
3 7445 7446 
3 7444 7445 
3 15047 15048 
2 16162 16163 
1 16162 21252 
2 16163 16164 
2 7706 7707 
2 21250 21251 
2 21251 21252 
3 9740 9741 
3 9739 9740 
1 6972 9741 
2 6971 6972 
3 11165 11166 
2 7705 7706 
1 4116 6970 
2 6970 6971 
3 14620 14621 
3 15692 15693 
3 15691 15692 
2 19265 19266 
2 10481 10482 
2 10480 10481 
2 18169 18170 
2 18170 18171 
2 19168 19169 
2 19264 19265 
1 19170 19264 
2 19169 19170 
2 6533 6534 
2 6532 6533 
2 11254 11255 
2 11255 11256 
1 6534 11254 
2 7414 7415 
3 3890 3891 
3 18554 18555 
3 18553 18554 
3 3889 3890 
2 5260 5261 
2 5261 5262 
3 5296 5297 
3 5297 5298 
3 12430 12431 
3 20900 20901 
3 20899 20900 
1 6474 12430 
3 6473 6474 
3 6472 6473 
3 12025 12026 
2 5467 5468 
1 5467 6472 
3 12026 12027 
2 18376 18377 
2 18377 18378 
2 1015 1016 
2 2342 2343 
2 2341 2342 
3 8789 8790 
2 17555 17556 
2 17554 17555 
2 18881 18882 
2 18880 18881 
3 8788 8789 
1 8788 18880 
2 18191 18192 
2 18190 18191 
3 19060 19061 
3 19061 19062 
3 12431 12432 
3 8228 8229 
3 8227 8228 
2 16406 16407 
1 1089 16405 
2 16405 16406 
3 1088 1089 
3 1087 1088 
1 9306 15048 
2 9305 9306 
3 16145 16146 
3 15470 15471 
3 16144 16145 
3 15469 15470 
3 1186 1187 
3 11164 11165 
2 9304 9305 
2 8404 8405 
2 8405 8406 
1 8406 21192 
2 21191 21192 
2 21190 21191 
2 4115 4116 
2 4114 4115 
3 919 920 
2 433 434 
2 434 435 
2 13385 13386 
2 15985 15986 
2 15986 15987 
2 14344 14345 
2 7415 7416 
3 18670 18671 
3 18671 18672 
3 4771 4772 
2 14345 14346 
2 14191 14192 
1 14191 14991 
2 14192 14193 
2 14990 14991 
2 12071 12072 
2 14989 14990 
3 16333 16334 
2 16748 16749 
2 16747 16748 
2 247 248 
3 4772 4773 
1 16059 19404 
3 19403 19404 
3 19402 19403 
1 4773 19402 
1 12027 16057 
3 16058 16059 
3 16057 16058 
2 2573 2574 
2 2572 2573 
1 2572 12070 
2 12070 12071 
2 2930 2931 
2 2929 2930 
1 2929 5262 
3 7210 7211 
3 7211 7212 
2 248 249 
3 14503 14504 
3 14504 14505 
3 13460 13461 
3 13459 13460 
1 11604 13461 
3 11603 11604 
3 3031 3032 
3 19837 19838 
3 19838 19839 
3 21080 21081 
1 19839 21079 
3 21079 21080 
3 14435 14436 
1 2538 14436 
3 2537 2538 
3 2536 2537 
3 11570 11571 
3 11569 11570 
1 11569 18709 
3 18709 18710 
3 11602 11603 
1 11602 18711 
3 18710 18711 
2 18331 18332 
2 18332 18333 
3 2894 2895 
3 14434 14435 
3 2893 2894 
1 2893 14434 
2 4910 4911 
2 4909 4910 
3 1187 1188 
2 16103 16104 
2 11279 11280 
2 18790 18791 
1 11280 18792 
2 18791 18792 
3 218 219 
3 14200 14201 
3 14201 14202 
3 217 218 
2 19468 19469 
2 19469 19470 
1 921 10812 
3 920 921 
2 2771 2772 
1 2772 19470 
2 2770 2771 
2 2482 2483 
2 2483 2484 
2 16895 16896 
2 16894 16895 
2 13384 13385 
3 10820 10821 
3 10819 10820 
1 10819 18672 
2 13270 13271 
2 8452 8453 
2 8453 8454 
2 11444 11445 
2 11560 11561 
1 11560 13291 
2 11443 11444 
1 11443 11562 
2 11561 11562 
2 1411 1412 
2 1412 1413 
2 13292 13293 
2 13291 13292 
1 3033 15609 
3 15608 15609 
3 3032 3033 
3 15607 15608 
3 17566 17567 
3 8723 8724 
3 8722 8723 
2 14720 14721 
2 19790 19791 
2 19789 19790 
1 4911 19791 
2 16655 16656 
2 16102 16103 
2 11278 11279 
2 12484 12485 
2 12485 12486 
2 16654 16655 
3 20363 20364 
3 18698 18699 
3 18697 18698 
3 20362 20363 
2 10880 10881 
2 10879 10880 
2 5741 5742 
2 2897 2898 
2 2896 2897 
2 6215 6216 
2 6214 6215 
1 6214 7747 
2 7747 7748 
2 7748 7749 
2 5740 5741 
2 11923 11924 
2 11924 11925 
2 3944 3945 
3 6703 6704 
2 19996 19997 
3 16702 16703 
1 16702 19996 
3 16703 16704 
2 3943 3944 
2 7292 7293 
2 7291 7292 
3 6704 6705 
2 721 722 
2 722 723 
3 902 903 
3 901 902 
2 4960 4961 
2 4961 4962 
3 7148 7149 
3 13372 13373 
3 13373 13374 
2 8578 8579 
2 8579 8580 
3 17567 17568 
2 19573 19574 
2 19574 19575 
1 17568 19573 
2 7180 7181 
2 7181 7182 
3 2903 2904 
2 14719 14720 
2 18988 18989 
2 18989 18990 
2 11132 11133 
2 2548 2549 
3 2687 2688 
1 2550 16656 
2 2549 2550 
3 15584 15585 
3 15583 15584 
1 2688 15583 
2 18340 18341 
2 11131 11132 
1 11131 12486 
2 1490 1491 
2 1489 1490 
2 19352 19353 
2 19351 19352 
3 2704 2705 
3 2705 2706 
3 9460 9461 
2 718 719 
2 719 720 
2 8294 8295 
2 8293 8294 
1 8295 10737 
2 10735 10736 
2 10736 10737 
3 11020 11021 
3 11021 11022 
2 10939 10940 
2 10940 10941 
3 6694 6695 
2 14755 14756 
2 14756 14757 
3 6823 6824 
3 6824 6825 
2 1669 1670 
2 9593 9594 
2 9592 9593 
2 19997 19998 
3 20323 20324 
3 20324 20325 
3 7147 7148 
3 2686 2687 
1 2686 19821 
2 13757 13758 
2 18341 18342 
3 10088 10089 
3 10087 10088 
3 7447 7448 
2 15721 15722 
3 7448 7449 
1 7449 19819 
3 19819 19820 
3 19820 19821 
2 15722 15723 
1 9345 11356 
3 11356 11357 
3 9461 9462 
2 14519 14520 
3 4811 4812 
2 14518 14519 
3 4810 4811 
1 4810 14518 
2 9539 9540 
2 9538 9539 
2 18175 18176 
2 18176 18177 
1 17478 18177 
3 17477 17478 
3 17476 17477 
2 4484 4485 
2 4483 4484 
3 6695 6696 
3 6763 6764 
3 6764 6765 
3 10675 10676 
2 1670 1671 
1 1671 10675 
3 10676 10677 
3 20966 20967 
3 20965 20966 
2 13861 13862 
2 13862 13863 
2 1789 1790 
2 1790 1791 
2 4198 4199 
2 4199 4200 
2 21289 21290 
2 21290 21291 
1 15207 21291 
2 15205 15206 
2 15206 15207 
3 10196 10197 
2 3992 3993 
2 8554 8555 
2 3991 3992 
1 3991 8554 
2 9344 9345 
1 1383 9343 
2 9343 9344 
2 1381 1382 
2 1382 1383 
2 4837 4838 
2 4838 4839 
3 19955 19956 
3 19954 19955 
2 15190 15191 
2 15191 15192 
1 15192 21363 
2 21361 21362 
2 21362 21363 
3 12998 12999 
3 14575 14576 
3 14576 14577 
3 12997 12998 
1 12997 14577 
2 8402 8403 
2 8401 8402 
3 4193 4194 
3 4192 4193 
1 4192 8403 
2 21073 21074 
2 21074 21075 
2 3475 3476 
2 3476 3477 
3 5941 5942 
2 18563 18564 
3 2111 2112 
1 2112 19770 
3 19769 19770 
3 19768 19769 
3 5942 5943 
3 301 302 
3 302 303 
2 17452 17453 
1 4200 18562 
2 18562 18563 
3 20816 20817 
3 13700 13701 
3 13699 13700 
1 13699 20815 
3 10195 10196 
1 10195 13701 
3 4906 4907 
3 2110 2111 
1 2110 4906 
3 20815 20816 
2 17453 17454 
2 16450 16451 
3 11258 11259 
3 11257 11258 
2 13132 13133 
1 13132 18594 
2 18593 18594 
2 18592 18593 
2 13133 13134 
1 3753 13134 
3 3751 3752 
3 3752 3753 
3 8974 8975 
3 20378 20379 
2 4111 4112 
2 14212 14213 
1 912 14212 
2 911 912 
2 910 911 
2 14213 14214 
3 8410 8411 
2 11984 11985 
2 11983 11984 
2 8510 8511 
2 8509 8510 
2 4298 4299 
3 11285 11286 
3 11284 11285 
3 3682 3683 
2 4363 4364 
1 4363 8509 
2 4364 4365 
2 4297 4298 
1 4297 17460 
2 17458 17459 
2 17459 17460 
3 18271 18272 
1 18271 19227 
3 18272 18273 
3 21430 21431 
3 21431 21432 
3 19226 19227 
2 9797 9798 
3 19225 19226 
3 20101 20102 
1 14082 20101 
3 14081 14082 
3 14080 14081 
2 9796 9797 
2 11005 11006 
1 4908 11005 
3 4907 4908 
2 11006 11007 
2 5030 5031 
2 16451 16452 
2 14552 14553 
2 14551 14552 
2 859 860 
2 10892 10893 
3 18230 18231 
3 18229 18230 
2 4112 4113 
3 8411 8412 
2 20486 20487 
2 20485 20486 
2 17138 17139 
2 17137 17138 
3 7318 7319 
3 7319 7320 
3 3683 3684 
2 5641 5642 
1 5641 19720 
2 19720 19721 
2 5642 5643 
2 19721 19722 
2 1073 1074 
2 9982 9983 
2 9983 9984 
2 8647 8648 
2 8648 8649 
2 5890 5891 
1 5890 8649 
2 5891 5892 
1 5892 19225 
3 20102 20103 
3 6244 6245 
3 6245 6246 
3 11875 11876 
3 3527 3528 
3 3526 3527 
3 11876 11877 
2 20003 20004 
2 20002 20003 
2 860 861 
2 3722 3723 
2 6686 6687 
2 8806 8807 
2 8807 8808 
2 1072 1073 
2 4067 4068 
2 4066 4067 
2 7228 7229 
2 7229 7230 
2 1064 1065 
2 1063 1064 
2 21442 21443 
2 21443 21444 
3 3293 3294 
3 13789 13790 
1 3864 13791 
3 13790 13791 
3 3862 3863 
3 3863 3864 
3 5014 5015 
3 5015 5016 
2 12526 12527 
1 12526 18954 
2 18953 18954 
2 18952 18953 
2 12527 12528 
2 9868 9869 
2 9869 9870 
2 3721 3722 
2 14765 14766 
2 14764 14765 
2 6685 6686 
2 2281 2282 
2 2282 2283 
3 11450 11451 
3 11449 11450 
2 19120 19121 
3 3292 3293 
3 1808 1809 
3 10214 10215 
3 1807 1808 
1 1807 10213 
3 10213 10214 
3 11392 11393 
1 10215 11392 
3 11393 11394 
2 13468 13469 
2 13469 13470 
2 7880 7881 
2 21475 21476 
2 7879 7880 
1 7879 21475 
2 7586 7587 
2 4957 4958 
1 4957 7587 
2 4958 4959 
1 4959 7881 
2 1795 1796 
1 1795 4228 
2 1796 1797 
2 7585 7586 
2 12646 12647 
1 2901 12646 
2 12647 12648 
3 4231 4232 
3 776 777 
3 775 776 
1 775 4231 
2 8503 8504 
2 40 41 
2 2276 2277 
3 4282 4283 
1 4282 8505 
2 8504 8505 
2 20084 20085 
2 20083 20084 
2 9434 9435 
2 9433 9434 
2 2275 2276 
1 2275 11592 
2 11590 11591 
2 11591 11592 
2 3437 3438 
2 3436 3437 
1 3436 4372 
3 4372 4373 
3 1745 1746 
3 1744 1745 
2 8894 8895 
2 8893 8894 
3 3784 3785 
3 3785 3786 
3 5593 5594 
3 5594 5595 
2 1349 1350 
3 13159 13160 
1 13159 13422 
2 13421 13422 
2 1900 1901 
1 1900 10191 
2 1901 1902 
2 10190 10191 
2 18844 18845 
2 18845 18846 
2 13420 13421 
2 6868 6869 
1 6868 13420 
2 6869 6870 
2 11399 11400 
2 11398 11399 
3 9035 9036 
3 9034 9035 
3 11363 11364 
3 3931 3932 
1 3931 11739 
1 3933 15072 
3 3932 3933 
3 4748 4749 
3 5012 5013 
3 5011 5012 
3 2113 2114 
3 2114 2115 
1 2115 2379 
1 9660 15070 
3 15071 15072 
3 15070 15071 
3 9658 9659 
2 18415 18416 
2 18416 18417 
3 9659 9660 
3 2036 2037 
3 2035 2036 
1 777 20374 
3 20375 20376 
3 20374 20375 
3 8618 8619 
3 7480 7481 
3 7481 7482 
2 2674 2675 
2 41 42 
2 11381 11382 
3 4283 4284 
3 5108 5109 
1 5109 9684 
3 5107 5108 
3 17888 17889 
3 17887 17888 
2 17410 17411 
2 17411 17412 
1 15336 17412 
2 12631 12632 
2 12632 12633 
2 20648 20649 
3 16597 16598 
3 16598 16599 
2 1348 1349 
1 1348 16599 
3 6560 6561 
3 6559 6560 
2 7783 7784 
1 7783 17601 
2 7784 7785 
2 15281 15282 
2 17599 17600 
1 15282 17599 
2 17600 17601 
3 20266 20267 
2 15280 15281 
3 3647 3648 
3 3646 3647 
1 3646 15835 
3 17912 17913 
3 17911 17912 
2 10780 10781 
1 10782 15802 
2 15802 15803 
2 10781 10782 
2 15803 15804 
3 20267 20268 
2 10189 10190 
1 10185 10189 
2 10183 10184 
2 10184 10185 
3 11546 11547 
1 14232 17913 
3 14231 14232 
3 14230 14231 
3 2783 2784 
3 2782 2783 
3 11737 11738 
3 11738 11739 
3 21508 21509 
3 21509 21510 
2 3358 3359 
2 3359 3360 
3 10397 10398 
3 10396 10397 
1 2568 8331 
2 2567 2568 
2 8329 8330 
2 8330 8331 
3 4735 4736 
3 15763 15764 
3 15764 15765 
3 9683 9684 
3 9682 9683 
2 14276 14277 
2 14275 14276 
1 14275 17889 
2 11516 11517 
3 442 443 
3 443 444 
2 11515 11516 
3 14312 14313 
2 18575 18576 
2 18574 18575 
2 5431 5432 
2 12340 12341 
2 12341 12342 
2 15835 15836 
2 15836 15837 
2 5432 5433 
3 20590 20591 
3 20591 20592 
2 356 357 
1 357 20590 
2 355 356 
3 18668 18669 
3 18667 18668 
3 833 834 
3 832 833 
1 1455 7102 
2 7102 7103 
2 7103 7104 
2 18725 18726 
2 18724 18725 
2 9964 9965 
2 21347 21348 
2 21346 21347 
1 9966 21348 
2 9965 9966 
3 3734 3735 
3 3733 3734 
3 13033 13034 
3 13063 13064 
1 13063 15765 
3 13034 13035 
2 19414 19415 
2 19415 19416 
3 10757 10758 
3 13064 13065 
3 10756 10757 
3 4679 4680 
3 4678 4679 
1 4678 15270 
3 17371 17372 
3 17372 17373 
3 18734 18735 
3 18733 18734 
3 18635 18636 
1 3543 18636 
3 3542 3543 
3 3541 3542 
3 9209 9210 
3 9208 9209 
1 11517 16593 
2 16592 16593 
2 16591 16592 
3 16195 16196 
3 16196 16197 
2 20176 20177 
2 20177 20178 
2 794 795 
2 793 794 
1 795 12273 
2 12271 12272 
2 12272 12273 
3 19891 19892 
3 19892 19893 
3 14642 14643 
3 15412 15413 
3 15413 15414 
2 5387 5388 
3 7246 7247 
1 7246 14622 
3 7247 7248 
2 7538 7539 
2 5386 5387 
2 7537 7538 
3 12656 12657 
3 12655 12656 
2 5840 5841 
1 5841 15942 
2 5839 5840 
2 331 332 
1 331 17920 
2 332 333 
2 18211 18212 
2 10319 10320 
2 10318 10319 
1 10318 16272 
1 10320 12657 
2 16271 16272 
2 16270 16271 
2 11707 11708 
3 10993 10994 
3 10994 10995 
3 15268 15269 
3 15269 15270 
3 2239 2240 
3 2240 2241 
3 18634 18635 
2 13952 13953 
2 13951 13952 
3 14641 14642 
3 7684 7685 
3 7685 7686 
3 1873 1874 
1 1873 7686 
3 1874 1875 
2 11177 11178 
3 6551 6552 
2 11176 11177 
3 1946 1947 
3 1945 1946 
3 505 506 
3 506 507 
2 19085 19086 
2 19084 19085 
3 6563 6564 
3 6562 6563 
3 13571 13572 
3 13570 13571 
3 21229 21230 
1 753 21229 
2 11468 11469 
2 10250 10251 
2 10249 10250 
2 641 642 
2 640 641 
1 640 11469 
3 203 204 
2 16750 16751 
3 202 203 
1 202 16750 
3 4900 4901 
3 4901 4902 
1 4902 18375 
3 18374 18375 
3 3092 3093 
3 3091 3092 
2 7943 7944 
1 3093 7942 
2 7942 7943 
2 16828 16829 
2 16829 16830 
3 436 437 
2 101 102 
2 100 101 
1 100 436 
1 102 7944 
1 438 20434 
3 437 438 
3 6550 6551 
3 1603 1604 
3 1604 1605 
2 17873 17874 
2 17980 17981 
2 17981 17982 
2 17872 17873 
2 166 167 
1 166 7867 
2 7867 7868 
2 167 168 
2 7868 7869 
3 19078 19079 
3 19079 19080 
3 6172 6173 
1 6172 19080 
3 6173 6174 
3 3659 3660 
3 3658 3659 
1 3658 11095 
3 11096 11097 
3 11095 11096 
3 21230 21231 
2 10895 10896 
2 10894 10895 
1 10894 11467 
2 11467 11468 
3 20306 20307 
3 20305 20306 
1 10251 20305 
2 15919 15920 
2 15920 15921 
2 16751 16752 
2 19492 19493 
2 19493 19494 
3 18373 18374 
3 16358 16359 
3 16357 16358 
3 17528 17529 
3 17527 17528 
1 7989 17529 
3 7988 7989 
3 16466 16467 
3 7987 7988 
1 7987 16467 
2 19463 19464 
2 19462 19463 
3 20434 20435 
3 20435 20436 
2 6854 6855 
2 17914 17915 
2 6853 6854 
2 17915 17916 
3 21517 21518 
3 14290 14291 
3 18250 18251 
3 18251 18252 
3 14291 14292 
2 13271 13272 
3 1030 1031 
1 1030 13272 
3 1031 1032 
3 15559 15560 
3 15560 15561 
2 15106 15107 
3 12764 12765 
3 12763 12764 
2 2915 2916 
2 15179 15180 
2 15178 15179 
1 3900 15178 
2 2914 2915 
2 17036 17037 
1 6855 17035 
2 17035 17036 
3 16465 16466 
3 3899 3900 
3 3898 3899 
3 6419 6420 
3 21518 21519 
2 3620 3621 
2 3619 3620 
3 2056 2057 
3 2057 2058 
2 4190 4191 
2 4189 4190 
1 243 3309 
2 242 243 
2 3308 3309 
2 241 242 
2 9089 9090 
2 9088 9089 
3 11084 11085 
3 11083 11084 
3 11653 11654 
3 11654 11655 
2 17839 17840 
1 15108 17839 
2 17840 17841 
2 15107 15108 
2 16906 16907 
2 16907 16908 
2 10972 10973 
1 10972 16906 
2 10973 10974 
2 7972 7973 
2 7973 7974 
2 4528 4529 
2 2003 2004 
2 4529 4530 
2 19189 19190 
2 17212 17213 
1 17212 19189 
2 17213 17214 
2 8192 8193 
2 8191 8192 
2 5566 5567 
1 8193 16699 
2 5567 5568 
2 12139 12140 
2 12140 12141 
3 20615 20616 
3 20614 20615 
3 11566 11567 
3 11567 11568 
2 8674 8675 
1 8674 12141 
2 8675 8676 
3 12122 12123 
3 12121 12122 
3 2905 2906 
3 13819 13820 
3 2906 2907 
2 6250 6251 
2 6251 6252 
3 3821 3822 
3 3820 3821 
1 3820 10152 
2 11711 11712 
2 11683 11684 
1 11683 11710 
2 11710 11711 
2 11684 11685 
2 4673 4674 
2 5497 5498 
1 5497 16509 
2 16508 16509 
2 16507 16508 
2 14282 14283 
2 4672 4673 
1 4672 14283 
2 20134 20135 
3 19397 19398 
3 19396 19397 
3 5194 5195 
2 20135 20136 
3 5195 5196 
2 13756 13757 
3 20846 20847 
3 20845 20846 
3 15520 15521 
2 2002 2003 
2 21593 21594 
2 2735 2736 
1 2736 16701 
2 2734 2735 
2 16700 16701 
2 9095 9096 
2 9094 9095 
2 19190 19191 
2 16699 16700 
2 2611 2612 
2 2612 2613 
1 2613 20410 
2 20410 20411 
2 20411 20412 
2 5693 5694 
2 5692 5693 
3 14483 14484 
3 14482 14483 
3 10312 10313 
3 10313 10314 
2 15061 15062 
2 15062 15063 
3 10162 10163 
3 16432 16433 
3 16433 16434 
3 10163 10164 
3 13820 13821 
3 13187 13188 
3 13186 13187 
3 10151 10152 
3 10150 10151 
2 9286 9287 
2 9287 9288 
1 9288 10150 
2 5498 5499 
3 9059 9060 
3 9058 9059 
2 3650 3651 
2 3649 3650 
2 14281 14282 
3 3379 3380 
1 3379 9058 
3 3380 3381 
2 8800 8801 
2 8801 8802 
1 3381 8802 
3 1471 1472 
1 20136 20569 
2 20569 20570 
2 20570 20571 
2 8413 8414 
1 8413 20571 
2 8414 8415 
2 3482 3483 
2 3481 3482 
3 19063 19064 
3 19064 19065 
3 15521 15522 
3 7138 7139 
3 7139 7140 
2 18628 18629 
3 3493 3494 
2 18629 18630 
3 1481 1482 
1 1482 13401 
3 13400 13401 
3 13399 13400 
2 16484 16485 
2 1312 1313 
1 1312 16483 
2 16483 16484 
2 1313 1314 
2 6050 6051 
3 13531 13532 
3 13000 13001 
3 13001 13002 
3 19358 19359 
3 19357 19358 
3 13532 13533 
3 3595 3596 
3 3596 3597 
3 4840 4841 
3 4841 4842 
1 7191 10578 
2 7189 7190 
2 7190 7191 
3 11201 11202 
3 11200 11201 
2 9457 9458 
2 9458 9459 
3 1472 1473 
3 4424 4425 
2 19876 19877 
2 19877 19878 
1 8415 15343 
3 14639 14640 
3 14638 14639 
2 15343 15344 
1 14640 15345 
2 15344 15345 
3 8975 8976 
3 7331 7332 
3 7330 7331 
3 10147 10148 
1 10147 15832 
2 15832 15833 