ITEM: TIMESTEP
15000000
ITEM: NUMBER OF ATOMS
318
ITEM: BOX BOUNDS pp pp pp
0.0000000000000000e+00 5.0000000000000000e+01
0.0000000000000000e+00 5.0000000000000000e+01
0.0000000000000000e+00 5.0000000000000000e+01
ITEM: ATOMS id type vx vy vz 
17343 1 -5.43646 2.68956 2.76321 
5503 1 -0.369337 -3.18139 2.14656 
18256 1 5.71083 0.498544 -2.22299 
13092 1 -1.59719 4.50555 2.36694 
17192 3 -2.04292 -4.04768 -0.0448473 
17191 1 -4.71945 -0.557066 -0.0413801 
17253 1 6.77408 -1.86686 1.24139 
17193 1 1.41181 1.37345 2.898 
17341 1 -4.76301 -2.90657 -1.54894 
17342 3 1.24444 -1.74322 0.142474 
15365 3 0.739522 0.228478 1.7999 
15366 1 -3.1474 -0.702616 2.01865 
15364 1 -0.929814 2.52346 -0.846109 
2751 1 2.69866 -2.01172 -1.86453 
15849 1 -2.16573 0.540702 -1.40537 
8371 1 -0.217229 4.19455 -0.461187 
8372 3 -3.09155 -1.41419 1.59399 
8664 1 4.26551 2.66516 1.73099 
5504 3 0.0229883 2.20588 0.217428 
5505 1 0.0477887 4.63214 -5.80192 
4389 1 -2.14066 -1.81858 -0.64646 
10977 1 -2.46101 2.53652 -1.1226 
3538 1 2.59941 1.52528 4.66825 
3539 3 0.358751 -1.05789 -0.973659 
3540 1 -4.58416 3.7588 2.14593 
18258 1 -2.38148 4.46636 0.927551 
18257 3 -3.12858 0.260886 -1.34099 
13091 3 -4.5845 0.303667 0.913103 
13090 1 1.16967 2.25102 2.64637 
20032 1 -3.47637 -4.57119 2.69989 
5600 3 1.64469 0.189643 -0.454766 
5599 1 1.14665 -0.286383 -3.34961 
14530 1 1.2069 4.07124 -3.30662 
5601 1 1.4859 -0.12636 1.57089 
8373 1 -8.28409 1.00233 5.60422 
9667 1 -0.577551 -4.9163 -10.4928 
17252 3 0.412406 -1.93821 2.77097 
17251 1 1.25979 2.12599 3.90878 
9668 3 2.19238 0.66605 1.26491 
9669 1 1.56608 -3.03577 -2.02918 
19776 1 7.8927 0.58087 7.86655 
3420 1 -1.81467 2.70645 -7.57416 
3419 3 -0.610164 3.33039 1.30126 
8662 1 5.3131 -5.87375 0.704332 
15847 1 2.36932 0.42849 2.72565 
15848 3 -1.33499 -1.52706 -0.469454 
8663 3 0.664963 3.33953 0.104795 
16360 1 2.53826 -0.380155 -0.949105 
19774 1 -2.31151 -1.12358 -1.14834 
19775 3 -3.46181 0.634761 -1.03957 
16361 3 1.78019 1.32414 0.524478 
16362 1 1.80349 2.78311 -0.955843 
10423 1 2.37765 -2.21623 1.98536 
8904 1 9.56296 -0.230417 0.654838 
2807 3 1.9118 -1.68207 -0.935705 
2806 1 -0.846797 8.22099 4.39204 
19992 1 -1.60674 -4.45773 -2.20515 
19991 3 -2.03625 -0.361056 -4.64548 
19990 1 1.03632 3.26305 -4.93463 
10424 3 2.32018 1.95317 2.10691 
10425 1 -5.98988 -4.22668 -6.03556 
7650 1 4.17403 -8.5985 1.50051 
10393 1 2.42298 -6.98337 1.09572 
4387 1 6.03897 -0.910919 -8.28478 
8883 1 2.46609 1.57367 -3.25227 
4388 3 -2.07842 -3.1064 2.26541 
8882 3 -1.91109 2.91288 -1.52053 
8881 1 0.378535 2.52722 -0.381748 
4770 1 -4.13232 -0.499981 0.216853 
4769 2 -2.40562 -0.598315 -1.77542 
10975 1 -1.03238 -0.732567 2.83318 
4768 1 -1.17177 -0.800082 -3.82805 
10976 3 -0.521602 3.21861 0.0178386 
14532 1 3.53071 1.50654 -0.875166 
7648 1 1.31656 -0.548454 -0.327626 
7649 3 -2.59598 2.34006 -5.3268 
14531 3 4.04974 -2.6757 -0.250795 
10395 1 2.48086 4.35295 6.47874 
10394 3 -4.11962 2.38995 -0.973315 
21551 3 -3.52186 0.480253 -2.17242 
21550 1 0.942572 -1.07654 8.51652 
21552 1 1.16215 4.36311 -2.08273 
206 3 0.658831 -1.28473 1.04259 
205 1 -7.86108 -4.69079 -5.27554 
3184 1 9.13091 4.24775 4.60929 
17559 1 -0.018832 4.08432 -0.266331 
463 1 -3.30084 1.29907 3.0225 
120 1 -1.76707 -4.07929 -0.637377 
14877 1 -10.3154 1.82701 -3.86266 
14876 3 -0.426132 2.44427 1.32762 
14875 1 -2.0195 -1.37074 1.22249 
118 1 -3.68598 -0.575532 5.51473 
119 3 7.11918 5.11685 -2.09118 
17130 1 0.991047 7.91519 1.50033 
14394 1 -1.69149 -3.63052 2.82954 
17129 3 -0.649683 -1.84431 4.54888 
5419 1 2.37304 2.73445 -5.55687 
14393 3 -3.81518 0.0779123 -4.92689 
14392 1 -3.94299 4.2177 2.57731 
207 1 -2.82334 0.774517 -0.994443 
14543 3 1.06131 1.65548 -3.02047 
14542 1 0.679034 2.49865 -1.62556 
18253 1 2.58788 -0.114877 3.95108 
465 1 3.28767 1.64902 -1.06431 
464 3 1.48234 2.45702 0.506928 
1233 1 -0.78369 1.3369 -0.524402 
5792 3 -0.73 -0.19461 1.3335 
5793 1 2.22463 2.43209 -1.55483 
5421 1 3.67164 -3.7408 -1.55224 
5420 3 -1.48827 2.31098 -0.408713 
5791 1 0.662823 2.94535 3.15111 
17128 1 -0.457409 4.65314 0.223335 
1232 3 -0.739431 -0.856357 -0.757678 
21112 1 -0.895394 1.25235 -0.907253 
21113 3 4.89789 -1.07753 1.71061 
21114 1 1.64334 4.35687 -0.106658 
20911 1 4.39935 2.31109 2.05053 
20912 3 0.889708 2.17192 1.75603 
17511 1 -3.1249 -0.169741 3.11844 
20033 3 -1.60521 3.44165 -1.40159 
17497 1 -4.35784 5.37018 -0.63484 
6738 1 -3.39959 -1.41007 -5.99496 
17498 3 -1.85669 2.07431 0.419533 
17499 1 2.33214 2.53189 2.87484 
20913 1 4.03985 4.74232 -2.84735 
20034 1 -0.873409 1.75276 -1.86609 
3185 3 -3.27796 -1.83373 3.54353 
3186 1 -5.49624 -2.57197 1.59009 
13232 3 1.02945 0.0277938 -3.22197 
15711 1 -0.599538 -2.15555 2.45023 
13231 1 -2.19236 -0.540706 -4.35283 
15710 3 -4.27985 -5.37577 -1.07656 
15709 1 2.66007 0.81766 -1.78217 
3418 1 -3.38047 -6.75329 -4.69634 
2750 3 0.932921 -0.410662 -1.61903 
2749 1 0.834318 5.43912 0.92716 
4148 3 -0.553955 -0.344973 -2.3308 
4147 1 0.436802 -3.46578 5.85519 
17557 1 -0.215269 3.14339 -1.55138 
17558 3 3.05434 -0.208573 -0.167305 
4149 1 2.87228 4.63076 2.4215 
140 3 -0.253214 2.25474 0.346822 
141 1 2.06772 0.578765 3.17218 
7339 1 2.95987 -3.57756 -2.68421 
6072 1 2.26682 -3.68209 0.959932 
6071 3 -0.377439 -2.80431 -1.63814 
6070 1 -3.88957 2.33899 -1.85363 
6736 1 -4.74965 0.211288 1.55236 
6737 3 -0.510149 1.74383 0.205128 
14859 1 -5.28552 0.517856 4.09945 
14858 3 -1.07631 -1.68884 2.63638 
15319 1 0.698662 -0.0847511 -4.07825 
15320 3 -1.07378 -3.99433 -0.0831406 
13233 1 2.5415 1.77396 -0.558369 
15321 1 0.213591 -2.56588 -3.44926 
5393 3 1.98736 2.68355 0.908898 
5392 1 -1.38243 2.21987 -4.09464 
14544 1 -0.507638 -1.63591 1.745 
18255 1 -1.57424 2.26042 1.19741 
2178 1 1.91613 -6.78113 5.50059 
18254 3 -0.798933 -2.45418 3.6554 
14962 1 4.4612 -0.237765 -1.43808 
2176 1 2.04645 -7.93495 -3.6551 
2177 3 -2.71211 -5.33383 -2.04559 
679 1 5.19292 8.89464 -5.88573 
11673 1 -8.40167 8.40057 -2.54929 
11672 3 -0.697667 -1.95919 1.56963 
14449 1 7.17378 -4.21743 -0.405568 
139 1 2.94408 -2.79375 6.05566 
11671 1 -2.1791 -1.88583 0.759712 
14450 3 0.117966 1.18298 2.87388 
14451 1 4.65809 -2.33391 5.83495 
1231 1 0.245382 1.39132 0.171876 
3883 1 0.124265 -2.11728 4.36463 
3884 3 -3.06475 1.35925 1.6986 
3885 1 -0.00927571 2.4417 5.27828 
681 1 3.06463 3.73511 1.93556 
680 3 -2.04812 2.69502 -1.25756 
20328 1 -3.30156 6.59915 0.064055 
20327 2 3.0518 2.74836 1.15261 
20326 1 -0.107239 1.83287 1.49236 
12536 3 -1.1504 0.723631 -2.43017 
1120 1 -4.91361 0.30801 1.93865 
1122 1 0.778591 9.28038 -2.27939 
1121 3 -1.42104 1.10115 1.75484 
12537 1 2.10085 -3.00039 1.77405 
17509 1 -2.1845 1.87024 -0.297367 
17510 3 -1.38278 3.31981 -4.44094 
13765 1 -1.77082 -6.01601 0.276574 
10326 1 -1.90195 -0.713996 3.06476 
10325 3 -2.72311 -1.29352 -1.07614 
10324 1 5.87458 -3.21126 3.88786 
18493 1 -1.36693 4.49948 0.363657 
18494 3 -2.41283 4.21773 -2.17491 
18495 1 -2.45022 -2.12923 -2.82002 
15124 1 6.40995 7.89254 3.15395 
21412 1 3.18157 -1.61514 -5.26073 
21413 3 6.74064 -0.175892 -4.29387 
14772 1 4.0766 1.41533 3.17614 
21414 1 0.882484 2.88278 1.136 
16267 1 8.5144 3.84338 1.62942 
7899 1 -1.55396 2.29983 -1.22406 
7897 1 6.14371 -3.18312 0.561831 
7898 3 0.262331 -1.37828 -1.61336 
12535 1 5.46889 -1.86342 0.377269 
12840 1 1.66692 -2.86523 -8.35899 
8854 1 0.718265 -2.01806 -2.07844 
15753 1 -1.2133 -2.343 5.31975 
12838 1 -2.18297 -3.91374 1.28101 
12839 3 -1.06627 2.0883 -0.822886 
13766 3 0.190583 -0.761787 -3.14616 
7341 1 -0.148229 4.88278 5.76895 
13767 1 5.26552 -0.360454 3.76343 
7340 3 -1.31783 1.6402 -1.81836 
16997 3 -3.21639 2.37897 -3.14462 
668 3 0.299679 -0.68664 3.87201 
667 1 1.84918 -1.46318 2.33444 
4001 3 -0.240658 1.51946 -0.367089 
4000 1 4.74341 4.43667 -1.45542 
15752 3 -5.07677 0.655226 1.11073 
15751 1 -2.65072 -1.92697 -1.63359 
16996 1 -3.64786 -1.52656 -0.446232 
14857 1 3.11305 1.31655 -1.40162 
4002 1 -0.279242 -2.02153 3.76343 
15900 1 8.10922 -1.81458 -1.47806 
21077 3 1.31464 -2.98861 3.95067 
21076 1 -3.55907 -2.06035 -10.4055 
8856 1 -3.24983 -3.14586 1.17222 
14964 1 -5.99853 -2.98779 -0.836104 
8855 3 -0.68132 3.00598 3.5377 
14963 3 -0.973697 2.06949 1.27158 
12957 1 -1.08126 -3.13168 5.40886 
12956 3 0.157131 -6.7228 -2.95723 
12955 1 1.58101 -1.45034 2.26982 
669 1 3.53569 4.36394 5.9206 
20982 1 0.35423 -2.73811 -4.2792 
20981 3 1.91768 1.11435 -4.30603 
20980 1 3.16686 0.599291 -6.01996 
16268 3 2.0415 1.92291 -4.71223 
16269 1 1.30915 -0.642836 2.55377 
2951 3 0.0193486 4.53067 0.834212 
2950 1 1.39214 7.0054 -1.94599 
2952 1 -5.03736 1.25692 2.02495 
20497 1 5.10931 -1.60415 1.07142 
20498 3 1.5858 0.764249 -0.0911735 
20499 1 1.2672 -3.15448 1.47292 
21078 1 -2.24032 0.425427 -1.43312 
10199 3 -3.03654 -1.74257 4.27703 
10198 1 -9.81351 0.326449 -2.25027 
10023 1 3.17058 0.714222 -0.76568 
10022 3 -0.245561 0.863844 -2.6241 
10021 1 -3.52458 4.79485 -5.36805 
2808 1 1.07702 1.88933 -6.02916 
10200 1 0.340249 1.03614 0.823345 
2742 1 2.41445 8.13068 -0.00862682 
17104 1 5.19883 -1.49149 -7.07499 
17105 3 -1.18738 -1.89721 -1.24714 
15898 1 1.99686 -0.598778 6.56302 
15899 3 2.36424 1.38358 -3.29366 
17106 1 -3.74441 -0.40837 3.75446 
5394 1 1.85718 -2.11861 -2.91418 
199 1 2.14525 3.11262 0.383275 
7677 1 -1.60379 -1.31756 -2.12729 
201 1 -1.33276 9.44742 -2.42555 
200 3 0.574077 -2.05474 -0.808886 
8100 1 -5.97949 0.590011 2.26311 
8099 3 -3.49531 -0.731 -2.94593 
2740 1 -4.99368 6.61542 -3.1023 
2741 3 2.64714 0.679305 4.10269 
14867 3 3.55554 2.91355 1.99129 
10614 1 0.354905 -0.258087 -0.206634 
14866 1 4.09659 1.65143 3.711 
10612 1 -5.56801 0.612976 -2.17449 
10613 3 -0.964488 0.020034 1.75033 
1731 1 1.92379 0.799071 -0.947969 
1730 3 6.5105 0.853126 0.78853 
19151 3 4.16085 1.53327 0.308964 
19150 1 0.559533 -3.80575 -6.66724 
19152 1 0.259965 -0.991585 1.90386 
14868 1 3.31184 4.85957 -3.9062 
8832 1 -3.21456 0.0354637 -9.15123 
8831 3 0.162284 -4.13239 -1.79761 
1729 1 0.836481 2.15281 6.27859 
8830 1 -0.102062 3.95024 2.07395 
13677 1 -3.55103 1.11196 1.17246 
15125 3 0.957662 -1.02154 -0.851332 
13021 1 -1.81314 2.84 2.64575 
13022 3 0.510736 2.88531 -1.40177 
14770 1 -0.891909 -6.77006 -3.62013 
13023 1 -5.69147 4.66895 1.95214 
8902 1 7.8915 -3.15443 -4.58036 
14771 3 0.12942 -0.329558 -1.67929 
8903 3 2.88666 0.615546 -2.60918 
10557 1 4.80865 -7.16818 3.91923 
16998 1 5.05825 0.202109 2.61477 
9126 1 0.643192 2.24077 2.23133 
7675 1 4.07917 0.680691 -3.16729 
9125 3 0.553216 1.14749 -0.37294 
9124 1 -2.07864 2.68543 0.481751 
15126 1 -1.02031 -3.43068 5.87507 
7676 3 3.20341 0.444839 1.69433 
10555 1 -0.880627 -0.748301 -3.98748 
10556 3 7.33459 -1.99153 2.43341 
18238 1 0.195572 -8.35211 6.79364 
18239 3 0.883642 1.21176 3.08725 
18240 1 -1.99933 -3.93897 -5.16233 
8098 1 2.14508 0.446834 3.19791 
6529 1 0.897583 -1.72573 -0.940238 
6999 1 -1.53155 4.68111 2.66048 
6997 1 -0.642979 1.03851 -0.451991 
6998 3 3.32827 -5.86895 -0.379582 
13675 1 -0.980241 -5.78477 6.21124 
13676 3 3.54251 -1.25555 0.093399 
6530 2 0.011141 0.846573 -1.78705 
6531 1 4.98325 4.18398 0.934595 
6466 1 2.41557 2.73094 2.23434 
6468 1 -5.1282 2.03249 -3.04625 
6467 2 3.73586 0.708826 2.19264 
