LAMMPS data file via write_data, version 7 Aug 2019, timestep = 20000000

63 atoms
3 atom types
56 bonds
3 bond types
49 angles
3 angle types

0.0000000000000000e+00 5.0000000000000000e+01 xlo xhi
0.0000000000000000e+00 5.0000000000000000e+01 ylo yhi
0.0000000000000000e+00 5.0000000000000000e+01 zlo zhi

Masses

1 0.25
2 0.5
3 0.5

Bond Coeffs # harmonic

1 6000 0.15
2 2000 0.4
3 2000 0.4

Angle Coeffs # harmonic

1 100 180
2 50 180
3 50 180

Atoms # angle

21586 1 1 6.4267725442028452e+00 2.3937858461354661e+01 4.9070624661466065e+00
21587 3 3 6.7024296304553497e+00 2.4299229343320786e+01 4.9742465904861266e+00
4245 1 1 6.9987994153993238e+00 2.4754497981051479e+01 4.9712654850286437e+00
21588 1 1 6.9355126328137837e+00 2.4612152829075040e+01 4.9740359582218776e+00
15065 3 3 4.7944826829661885e+01 5.3934693766247643e-01 1.4417627006837010e+01
15066 1 1 4.8120776989494104e+01 9.0359162787289848e-01 1.4594673602576412e+01
18007 1 1 4.8222178488602346e+01 1.0195319298583654e+00 1.4648636959889590e+01
15064 1 1 4.7602588751994737e+01 2.8219620968134801e-01 1.4350367818422908e+01
18008 3 3 4.8408803163457868e+01 1.2747194123750432e+00 1.4817917665661366e+01
18009 1 1 4.8654189350524668e+01 1.5372894472849050e+00 1.4999091407337943e+01
10437 1 1 4.8764356602655774e+01 1.6555799304133800e+00 1.5097779720619981e+01
10436 3 3 4.8936469900965648e+01 1.9408796459401698e+00 1.5266280147560733e+01
10435 1 1 4.8999467364722769e+01 2.2571039681018110e+00 1.5485644472339363e+01
14145 1 1 4.9043023380566638e+01 2.3798716941200011e+00 1.5556770007478175e+01
14144 3 3 4.9235300723412166e+01 2.7002345976308137e+00 1.5818236111581269e+01
14143 1 1 4.9430932159502234e+01 2.8623131679992806e+00 1.6083681166181176e+01
362 3 3 3.8734486008735665e+01 1.7604720509301785e+01 1.1589574465448425e+01
361 1 1 3.8583069349486472e+01 1.7851998328738237e+01 1.1304656891977235e+01
363 1 1 3.8854491314760374e+01 1.7386563661986713e+01 1.1914354069412877e+01
18069 1 1 7.7774735824815151e+00 2.6246712619142183e+01 4.5149034909714949e+00
4244 3 3 7.1185102122450328e+00 2.5114585635714892e+01 4.9410314905598076e+00
4243 1 1 7.3337194809082353e+00 2.5400456612267615e+01 4.8574447859856225e+00
18067 1 1 7.4421561491562924e+00 2.5546857377882237e+01 4.8197910362015888e+00
18068 3 3 7.6524195040449108e+00 2.5885099762470091e+01 4.7287033734570612e+00
4219 1 1 3.6892671449862071e+01 3.1343189039646752e+01 1.2467176702942679e+00
4220 2 2 3.6933013574203208e+01 3.1609764791068795e+01 1.4886773472693473e+00
11366 2 2 3.6912366060001389e+01 3.0882919528647825e+01 9.3111601348053807e-01
11365 1 1 3.6886099101445865e+01 3.1241320339886194e+01 1.1463697294306583e+00
11367 1 1 3.6939761699733474e+01 3.0586940127746246e+01 6.3262029026040811e-01
17464 1 1 4.8984981930450800e+01 2.5284788052402774e+01 2.4637879022894689e+00
17465 3 3 4.9371610887100324e+01 2.5264254155129350e+01 2.4177463325032416e+00
17466 1 1 4.9763767639026376e+01 2.5342194057273396e+01 2.3101775925839871e+00
4221 1 1 3.7003856612192671e+01 3.1976942547049049e+01 1.7134179687652100e+00
13333 1 1 3.7020424385267880e+01 3.2096770014063218e+01 1.7904300392892762e+00
13334 3 3 3.7104349206020821e+01 3.2388805653442155e+01 2.0437931517897505e+00
13335 1 1 3.7097106544258324e+01 3.2558523280283893e+01 2.4136045186658390e+00
9930 1 1 3.7064302533620854e+01 3.2628405950896358e+01 2.5613637109301286e+00
9929 3 3 3.6982772427123976e+01 3.2798920946569154e+01 2.8875064945972966e+00
9928 1 1 3.6994206626381533e+01 3.2949677577840063e+01 3.2904914075654870e+00
6613 1 1 3.7246651570202488e+01 3.3195515356746036e+01 4.3542970826496070e+00
17004 1 1 3.7167063219875601e+01 3.3162282798981579e+01 4.2202969524302638e+00
17002 1 1 3.7045521981919890e+01 3.2981289486895136e+01 3.4601121957247116e+00
17003 3 3 3.7136840591627738e+01 3.3072737239417982e+01 3.8259161289609667e+00
6614 3 3 3.7438697313523051e+01 3.3259103207436517e+01 4.7089878767819213e+00
6615 1 1 3.7630603180022113e+01 3.3289403340734452e+01 5.0997364213150886e+00
96 1 1 8.6273125510894975e+00 2.5377028566397033e+01 3.4301969689214665e+01
95 3 3 8.6663755440856374e+00 2.5682394164002773e+01 3.4528981846707246e+01
7621 1 1 8.5963381172895161e+00 2.7073647883551573e+01 3.4981470856954772e+01
17808 1 1 8.5731712886653391e+00 2.7241842322410236e+01 3.4986213019748682e+01
7622 3 3 8.6891655797940910e+00 2.6674276769448831e+01 3.4912720478159187e+01
7623 1 1 8.7020523625693542e+00 2.6254870847046405e+01 3.4785239183112850e+01
94 1 1 8.6958762343446505e+00 2.6109320625317057e+01 3.4736551011460001e+01
17807 3 3 8.4978529051374458e+00 2.7663189633584881e+01 3.4926064056463701e+01
17806 1 1 8.5317109779162354e+00 2.8023386521681751e+01 3.4818645337808320e+01
4800 1 1 3.0160049098286205e+01 1.5698594519397790e+01 3.2978818369043310e+01
7629 1 1 2.8861896434157671e+01 1.5616453892011577e+01 3.4329836245038997e+01
13743 1 1 2.8941027072226014e+01 1.5611920916055320e+01 3.4215236574254412e+01
13742 3 3 2.9261911596978191e+01 1.5596945830704252e+01 3.3947806790205036e+01
13741 1 1 2.9580766676139234e+01 1.5628943111991417e+01 3.3672129562496970e+01
4798 1 1 2.9706086599524291e+01 1.5634126038743101e+01 3.3526608724850043e+01
7628 3 3 2.8632979879204996e+01 1.5612540363326815e+01 3.4663031778885603e+01
4799 3 3 2.9986400759255101e+01 1.5639230860682332e+01 3.3299901728435955e+01
7627 1 1 2.8384020164389408e+01 1.5632760721659363e+01 3.5011894013039608e+01

Velocities

21586 5.4802991414378377e-01 -6.3559030607563383e-01 1.7575398848247994e+00
21587 -1.7467200792558013e+00 3.1807116128894980e-01 3.8277858659469666e-01
4245 4.3076129024861159e-01 5.7305316190871505e+00 -3.6823782131062521e+00
21588 1.4463585144542117e+00 -1.8230766621196419e+00 -2.3972846500777933e+00
15065 -3.3452427362491419e+00 -1.1717193211392785e+00 -2.9860365243336990e+00
15066 -3.8393494127510341e-01 4.7289350030422650e+00 2.5546163938098725e+00
18007 -7.9983744410989543e-01 -5.6400269795037836e+00 9.8163905086216410e+00
15064 -2.7275113515738481e+00 3.9630515249193468e+00 2.2690687963686775e+00
18008 -1.3153633240317846e+00 -3.5835664987582003e+00 -3.8501382086328313e+00
18009 -4.5665803017058204e+00 2.3142717760103810e+00 -3.3373043413760692e+00
10437 -5.4405350914257324e+00 5.4660283426703247e+00 -2.7698910300115394e+00
10436 -9.0129618015514734e-01 -1.4359853880950977e+00 3.1437925487951551e-01
10435 4.1305011966428555e+00 -1.9381441670436101e+00 -2.0227140644702910e+00
14145 -3.2685544238348476e+00 -3.5439969531113402e-01 1.9702132065946101e+00
14144 -2.6563473240219615e+00 -3.6179909421907386e-01 -3.8531957523709952e+00
14143 2.5695920438058137e+00 3.0498779806854257e+00 -3.1648239448873401e+00
362 1.1072325156245619e+00 -8.8673220443150935e-01 -1.4755369129287743e+00
361 -2.4508533767036522e+00 -2.9445459349529968e-01 -3.7304638875860010e+00
363 -1.7229520905199904e+00 -5.1132261859150239e+00 4.6255648767051767e+00
18069 5.4834295362142917e+00 -1.5909324879193998e+00 -4.4988117156732113e+00
4244 6.3394811630923185e+00 -2.1960050583764135e+00 -4.7900024435298894e-01
4243 -2.3291062203080672e+00 -1.1206194486785859e-01 -4.5005738804765203e+00
18067 -2.0417664496758423e+00 9.6678807701653169e-01 2.2773100904293782e+00
18068 -3.7826987029408454e-01 -4.2831986538235318e+00 -2.4734088223582246e-01
4219 2.7488795476676775e+00 9.2310860549136620e-01 7.3812907916728205e+00
4220 3.5639759897174499e+00 -1.5661468903817370e+00 -1.6614108736749924e+00
11366 -1.8135134941511775e+00 -2.6846961580099511e+00 1.1876259079503357e+00
11365 7.4547801609130664e+00 -2.6470263565692074e+00 2.7727462009667931e+00
11367 -7.8404442949805366e+00 -5.2929131518771140e+00 -7.6476762036318646e-02
17464 6.3031014874839961e+00 1.5754613481357818e+00 -3.4950688147061721e+00
17465 8.0789338520619580e-01 -8.5768144806814950e-01 -1.1525469032751581e+00
17466 -1.4909066590219906e+00 1.4764429626960902e+00 1.0422228937745539e+00
4221 -2.3219599113977365e+00 1.3146776175474146e+00 4.6023869986577731e-01
13333 1.6131496710197972e+00 -1.2276739421125180e+00 4.2261083914651429e+00
13334 -2.5781147011911645e+00 -2.2056080667478639e-01 -6.6450283346730787e-01
13335 1.2437253920005789e+00 2.2871260343636703e+00 3.2921023840621255e+00
9930 1.1776623894442158e+00 4.5318584475052361e+00 2.8098594792176446e+00
9929 -2.3320718836852499e+00 -2.2382573406255997e+00 -3.3760765011288942e+00
9928 -6.2441838718189224e+00 -3.6131664324176653e+00 -3.2646629611812235e+00
6613 2.9755529635416376e+00 5.2758330593427889e+00 -1.1895498106028377e+00
17004 -4.8233100878079394e-01 -1.9073722323776321e+00 4.2088628380780924e-01
17002 2.7824434523294350e-01 -6.4923746330600043e+00 2.3871735710279323e+00
17003 -5.1535040802244234e+00 -3.8253536246242099e+00 5.4280855726312782e-01
6614 -5.5089499606205394e-01 -7.2271031972534983e-02 4.3059953566445947e-01
6615 3.2094131990694321e+00 5.8428385938560599e+00 -3.3369916539848654e-01
96 3.2298900904562009e+00 2.0783507413489923e+00 -2.1922331174552196e+00
95 3.7779097939354784e+00 1.0147765413384886e+00 1.1433387073937997e+00
7621 4.3865379130983601e-01 5.9813042791771298e-01 6.6071654390010384e+00
17808 1.9886295008710324e+00 2.5460500604380665e-01 1.3124139525776257e+00
7622 2.5078221230159241e+00 2.3034906747161648e+00 -7.6321282178322514e-01
7623 7.0831387662370393e-01 -1.4900013722228485e+00 3.5789178705786830e+00
94 2.5601318137510227e+00 -1.2886848487654599e+00 1.1384089615925763e+00
17807 -3.8426458406772293e+00 3.0637933001064392e+00 -3.4774834876182488e+00
17806 -5.0015374818361646e+00 8.8448601641121449e-01 5.1368553072873695e+00
4800 -4.4176969514039621e+00 -4.1747812662746042e-01 -1.6718796705691135e+00
7629 -2.0129818517315767e-02 4.0882754397953844e+00 1.5307661278565793e-01
13743 -1.4990682490647100e+00 -4.9821265565952150e-01 1.3283827493564369e+00
13742 1.1508915806471152e+00 -1.8408912532573396e+00 1.6997753491511201e+00
13741 5.7665356575479985e+00 -2.3766561753776125e+00 -1.2027247895539241e+00
4798 -1.9303455415838560e+00 6.1096666733080596e-01 5.6657675805641237e+00
7628 1.7134948879862284e+00 1.1216977040467613e+00 2.8762264246907288e+00
4799 2.8495100773014941e+00 -1.2385599938034511e+00 1.4227632121584133e-01
7627 -3.2854348454914883e+00 -1.1444561208598409e+00 -4.0710620285667707e+00

Bonds

898 3 21586 21587
899 3 21587 21588
900 1 4245 21588
2954 3 15065 15066
2955 1 15066 18007
2956 3 18007 18008
2960 3 15064 15065
2961 3 18008 18009
2963 1 10437 18009
2986 3 10436 10437
3093 3 10435 10436
3094 1 10435 14145
3096 3 14144 14145
3097 3 14143 14144
3763 3 362 363
3764 3 361 362
4565 3 4244 4245
4566 3 4243 4244
4567 1 4243 18067
4568 3 18067 18068
4569 3 18068 18069
6965 2 4219 4220
6966 1 4219 11365
6967 2 4220 4221
6968 2 11366 11367
6969 2 11365 11366
6990 3 17464 17465
6991 3 17465 17466
7000 1 4221 13333
7001 3 13333 13334
7002 3 13334 13335
7003 1 9930 13335
7004 3 9929 9930
7100 3 9928 9929
7101 1 9928 17002
7102 3 6613 6614
7103 1 6613 17004
7104 3 17002 17003
7105 3 17003 17004
7240 3 6614 6615
10204 3 95 96
10214 3 7621 7622
10215 1 7621 17808
10216 3 7622 7623
10217 3 94 95
10218 1 94 7623
10234 3 17807 17808
10235 3 17806 17807
13922 1 7629 13743
13923 3 13742 13743
13924 3 13741 13742
13925 3 4798 4799
13926 1 4798 13741
13928 3 7628 7629
13941 3 4799 4800
14022 3 7627 7628

Angles

652 3 21586 21587 21588
653 1 4244 4245 21588
654 1 21587 21588 4245
2270 3 15064 15065 15066
2271 1 15065 15066 18007
2272 1 18008 18007 15066
2276 3 18007 18008 18009
2277 1 18008 18009 10437
2278 1 10436 10437 18009
2297 3 10435 10436 10437
2390 1 10436 10435 14145
2391 1 14144 14145 10435
2394 3 14143 14144 14145
2893 3 361 362 363
3493 3 4243 4244 4245
3494 1 4244 4243 18067
3495 1 18068 18067 4243
3496 3 18067 18068 18069
5279 1 4220 4219 11365
5280 2 4219 4220 4221
5281 2 11365 11366 11367
5282 1 11366 11365 4219
5295 3 17464 17465 17466
5301 1 4220 4221 13333
5302 1 13334 13333 4221
5303 3 13333 13334 13335
5304 1 13334 13335 9930
5305 1 9929 9930 13335
5306 3 9928 9929 9930
5389 1 9929 9928 17002
5390 1 6614 6613 17004
5391 1 17003 17004 6613
5392 1 17003 17002 9928
5393 3 17002 17003 17004
5515 3 6613 6614 6615
7826 3 94 95 96
7834 1 7622 7621 17808
7835 1 17807 17808 7621
7836 3 7621 7622 7623
7837 1 7622 7623 94
7838 1 95 94 7623
7849 3 17806 17807 17808
10687 1 7628 7629 13743
10688 1 13742 13743 7629
10689 3 13741 13742 13743
10690 1 13742 13741 4798
10691 1 4799 4798 13741
10693 3 7627 7628 7629
10705 3 4798 4799 4800
