ITEM: TIMESTEP
15000000
ITEM: NUMBER OF ENTRIES
91
ITEM: BOX BOUNDS pp pp pp
0 50
0 50
0 50
ITEM: ENTRIES c_binfo[1] c_binfo[2] c_binfo[3] 
2 10916 10917 
1 10917 16791 
2 10915 10916 
2 9827 9828 
1 8241 13908 
2 13907 13908 
2 8240 8241 
2 13906 13907 
2 15839 15840 
3 1931 1932 
2 9826 9827 
3 1930 1931 
1 1930 9826 
2 6032 6033 
2 6031 6032 
2 1198 1199 
2 16789 16790 
1 1200 16789 
2 1199 1200 
2 8239 8240 
2 10178 10179 
3 9256 9257 
1 9256 10177 
2 10177 10178 
2 10574 10575 
2 10573 10574 
1 10573 12858 
2 16790 16791 
3 7838 7839 
3 7837 7838 
2 15325 15326 
1 15325 15838 
2 15838 15839 
2 3841 3842 
3 20762 20763 
3 10702 10703 
1 10702 20763 
3 10703 10704 
3 9257 9258 
2 2872 2873 
3 2708 2709 
3 2707 2708 
3 20800 20801 
2 12857 12858 
3 20992 20993 
2 12856 12857 
1 12856 20992 
3 20993 20994 
3 20761 20762 
3 20801 20802 
3 17959 17960 
1 17959 20761 
1 3843 8464 
2 8464 8465 
2 8465 8466 
2 3842 3843 
1 10008 12439 
3 10007 10008 
3 10006 10007 
2 2873 2874 
3 9703 9704 
3 9704 9705 
3 10682 10683 
3 10681 10682 
3 12440 12441 
3 17960 17961 
3 12460 12461 
1 12460 17961 
3 12439 12440 
3 12461 12462 
3 874 875 
1 874 12462 
3 10592 10593 
3 10591 10592 
3 5215 5216 
1 5215 5511 
3 5216 5217 
3 5510 5511 
3 5509 5510 
3 18941 18942 
3 18940 18941 
2 15326 15327 
2 17039 17040 
2 18565 18566 
2 17038 17039 
1 17038 18565 
2 18566 18567 
2 10658 10659 
1 10659 18567 
2 10657 10658 
3 875 876 
