ITEM: TIMESTEP
15000000
ITEM: NUMBER OF ATOMS
111
ITEM: BOX BOUNDS pp pp pp
0.0000000000000000e+00 5.0000000000000000e+01
0.0000000000000000e+00 5.0000000000000000e+01
0.0000000000000000e+00 5.0000000000000000e+01
ITEM: ATOMS id type xs ys zs
10916 2 0.278493 0.103572 0.240432
10917 1 0.277647 0.100643 0.247291
16791 1 0.277545 0.0998617 0.249863
10915 1 0.281252 0.108253 0.234059
9828 1 0.299783 0.0210314 0.276047
9827 2 0.304192 0.0263831 0.272649
13908 1 0.265619 0.0522172 0.263073
8241 1 0.266704 0.0548881 0.261439
13907 2 0.263212 0.0457792 0.266302
8240 2 0.270728 0.0617192 0.257202
13906 1 0.262176 0.0387795 0.270521
15839 2 0.305874 0.0557917 0.281972
15840 1 0.301484 0.0576212 0.276454
1931 3 0.309237 0.0417868 0.263123
1932 1 0.312122 0.0473141 0.259664
9826 1 0.306681 0.0325802 0.268928
1930 1 0.30743 0.0353373 0.267335
6032 2 0.246339 0.0726473 0.283957
6031 1 0.250412 0.0698694 0.277492
1198 1 0.280618 0.0888856 0.282356
16789 1 0.277411 0.0940014 0.26437
1200 1 0.277507 0.093185 0.267001
1199 2 0.279472 0.0913617 0.275291
8239 1 0.274572 0.0685291 0.253513
10178 2 0.291987 0.071788 0.273692
9256 1 0.287802 0.0666444 0.283239
10177 1 0.289232 0.0679273 0.280716
10574 2 0.304957 0.088954 0.273659
10573 1 0.305526 0.0933394 0.279959
10575 1 0.304566 0.088105 0.266483
10179 1 0.295793 0.0743881 0.267344
7839 1 0.276748 0.112111 0.269407
16790 2 0.277204 0.0966298 0.25686
7838 3 0.269513 0.111727 0.269682
7837 1 0.262447 0.110563 0.271277
12858 1 0.306067 0.0950147 0.282362
9258 1 0.280475 0.0604579 0.295374
15325 1 0.311889 0.0529355 0.290653
15838 1 0.310234 0.0541086 0.288398
3841 1 0.226269 0.0793933 0.310857
6033 1 0.242045 0.0749534 0.29021
20762 3 0.280355 0.0933363 0.309467
20763 1 0.276099 0.0882813 0.306769
10702 1 0.274404 0.0854424 0.305819
10703 3 0.270582 0.0805308 0.301064
10704 1 0.267022 0.0767623 0.295551
9257 3 0.283796 0.0640696 0.289192
2872 1 0.213105 0.109711 0.315382
2708 3 0.265489 0.110842 0.300824
2709 1 0.259688 0.113732 0.306135
2707 1 0.272164 0.110218 0.297343
20800 1 0.283678 0.123353 0.288341
12857 2 0.305382 0.100318 0.288561
20992 1 0.305643 0.109372 0.296451
12856 1 0.305247 0.106783 0.294003
20993 3 0.306573 0.116443 0.299363
20994 1 0.308065 0.123949 0.302767
20761 1 0.286068 0.0995549 0.312063
20801 3 0.285514 0.117614 0.292977
20802 1 0.289243 0.111809 0.29756
17959 1 0.288383 0.101784 0.313409
3843 1 0.217738 0.0771325 0.323445
8466 1 0.199434 0.0732546 0.329635
8464 1 0.215422 0.076437 0.324986
8465 2 0.207558 0.0753001 0.32783
3842 2 0.221847 0.0780585 0.318387
10008 1 0.308853 0.0942823 0.324014
10007 3 0.303345 0.0894947 0.328144
10006 1 0.299067 0.0853279 0.333688
2873 2 0.207845 0.115921 0.317763
2874 1 0.201473 0.120411 0.319706
9705 1 0.217584 0.103458 0.342225
9703 1 0.233155 0.105988 0.345858
9704 3 0.225254 0.10406 0.343674
10682 3 0.240993 0.105345 0.328922
10683 1 0.240308 0.112945 0.327508
10681 1 0.24267 0.0977918 0.330108
12440 3 0.314977 0.10214 0.31913
17960 3 0.292909 0.107506 0.318152
12460 1 0.299164 0.114927 0.323162
12439 1 0.310527 0.0957346 0.322465
12461 3 0.305255 0.120348 0.324452
12462 1 0.310342 0.126107 0.32811
17961 1 0.297605 0.112832 0.322074
874 1 0.311879 0.128069 0.329471
5217 1 0.199215 0.0916571 0.354699
10593 1 0.21781 0.0666157 0.349006
10592 3 0.213745 0.0703842 0.354224
10591 1 0.21068 0.0740356 0.362052
5511 1 0.213888 0.0872002 0.36325
5215 1 0.211224 0.0874905 0.362613
5216 3 0.205221 0.0893833 0.359364
5510 3 0.221544 0.0858776 0.36637
5509 1 0.228676 0.0863865 0.369732
18941 3 0.326197 0.0567152 0.262146
18940 1 0.333765 0.0553012 0.263747
18942 1 0.320902 0.0612021 0.260988
15327 1 0.320274 0.0506259 0.303571
17040 1 0.327558 0.0418361 0.310133
15326 2 0.315879 0.0519585 0.297236
17039 2 0.334839 0.0413756 0.30401
18565 1 0.346034 0.0396524 0.302575
17038 1 0.343241 0.0403483 0.302578
18567 1 0.362462 0.0373017 0.30571
18566 2 0.354515 0.0387172 0.302742
10658 2 0.372316 0.0347937 0.309162
10659 1 0.365233 0.0367988 0.306598
10657 1 0.378595 0.0330369 0.31365
12441 1 0.32153 0.106416 0.316845
875 3 0.316081 0.133563 0.333458
876 1 0.319478 0.139549 0.336173
