ITEM: TIMESTEP
15000000
ITEM: NUMBER OF ENTRIES
228
ITEM: BOX BOUNDS pp pp pp
0 50
0 50
0 50
ITEM: ENTRIES c_binfo[1] c_binfo[2] c_binfo[3] 
1 5778 11667 
2 5776 5777 
2 5777 5778 
2 7762 7763 
3 13202 13203 
2 11665 11666 
1 11665 13203 
2 11666 11667 
2 1718 1719 
2 1717 1718 
1 1717 7764 
2 7763 7764 
2 1868 1869 
2 12916 12917 
2 13123 13124 
1 1719 13123 
2 1867 1868 
1 9336 19611 
2 19610 19611 
2 19609 19610 
2 9335 9336 
3 13201 13202 
2 10186 10187 
1 10186 13201 
2 10187 10188 
2 8746 8747 
1 8748 10510 
2 10510 10511 
2 10511 10512 
2 8747 8748 
2 4312 4313 
2 4313 4314 
2 487 488 
2 3553 3554 
1 3553 12916 
2 3554 3555 
2 13124 13125 
1 3555 15376 
2 15376 15377 
2 15377 15378 
1 15378 19057 
2 19057 19058 
2 9910 9911 
2 9911 9912 
2 3356 3357 
2 21146 21147 
1 13125 21145 
2 21145 21146 
1 15201 21147 
2 15200 15201 
2 8474 8475 
2 8473 8474 
1 8473 9334 
2 9334 9335 
2 12917 12918 
2 14672 14673 
2 14054 14055 
2 14053 14054 
3 15923 15924 
2 5327 5328 
2 3355 3356 
1 3355 5326 
2 5326 5327 
3 15922 15923 
2 11396 11397 
1 11397 16674 
2 11395 11396 
1 11395 15922 
2 14671 14672 
2 932 933 
2 931 932 
2 1331 1332 
2 1330 1331 
1 1330 9195 
2 9194 9195 
3 17666 17667 
2 12832 12833 
1 12832 19713 
2 12833 12834 
2 19712 19713 
2 8944 8945 
1 8944 11749 
2 19058 19059 
3 17665 17666 
2 21059 21060 
1 4314 8946 
2 8945 8946 
2 11639 11640 
1 11640 17884 
2 11638 11639 
1 489 11638 
2 488 489 
2 11750 11751 
2 11749 11750 
2 19379 19380 
2 7819 7820 
2 15199 15200 
1 17394 18087 
2 18085 18086 
2 18086 18087 
2 1388 1389 
2 16672 16673 
2 16673 16674 
2 1387 1388 
1 1387 11586 
1 9294 17734 
2 7640 7641 
2 17393 17394 
2 16370 16371 
2 7639 7640 
1 7639 17392 
2 9293 9294 
2 17392 17393 
2 9292 9293 
2 16369 16370 
2 6779 6780 
2 19711 19712 
2 6778 6779 
1 6778 19711 
2 20075 20076 
2 20074 20075 
1 3108 20074 
2 16439 16440 
1 4377 21171 
2 21170 21171 
2 21058 21059 
1 21058 21169 
2 21169 21170 
2 6073 6074 
2 6074 6075 
2 12443 12444 
2 12442 12443 
1 12442 17736 
3 17735 17736 
2 17885 17886 
2 2627 2628 
2 2626 2627 
1 2626 17628 
2 17884 17885 
2 3106 3107 
2 3107 3108 
2 3640 3641 
1 3640 4137 
2 3641 3642 
1 2628 19378 
2 19378 19379 
2 11219 11220 
1 11220 18529 
2 18529 18530 
2 11218 11219 
1 11218 16006 
2 16006 16007 
2 16007 16008 
3 17734 17735 
2 6022 6023 
1 6022 6075 
2 6023 6024 
1 6024 21097 
2 11465 11466 
2 11464 11465 
2 3787 3788 
1 3787 11466 
2 21098 21099 
2 21097 21098 
2 9565 9566 
2 9566 9567 
2 9193 9194 
1 9193 9567 
2 15193 15194 
2 15194 15195 
2 2048 2049 
2 2047 2048 
1 2047 15195 
2 4375 4376 
2 6841 6842 
1 6841 17817 
2 6842 6843 
1 6843 16438 
2 4376 4377 
2 16438 16439 
2 17627 17628 
1 8238 17626 
2 17626 17627 
2 4135 4136 
2 626 627 
2 625 626 
1 625 13189 
2 13189 13190 
2 13190 13191 
2 4136 4137 
2 18530 18531 
2 8213 8214 
2 8212 8213 
1 8212 15193 
2 17816 17817 
2 17815 17816 
2 12152 12153 
2 12151 12152 
2 16879 16880 
2 16880 16881 
2 11584 11585 
1 11584 16881 
2 11585 11586 
2 7820 7821 
1 7821 12151 
2 11864 11865 
2 11863 11864 
1 16905 18085 
2 20038 20039 
2 20039 20040 
2 14854 14855 
2 14855 14856 
2 11543 11544 
1 6186 16903 
2 6184 6185 
2 6185 6186 
2 16903 16904 
2 8185 8186 
2 8186 8187 
2 2293 2294 
1 2293 8187 
2 2294 2295 
1 2295 21099 
2 16904 16905 
2 3788 3789 
2 8236 8237 
2 8237 8238 
2 11542 11543 
