ITEM: TIMESTEP
0
ITEM: NUMBER OF ATOMS
195
ITEM: BOX BOUNDS pp pp pp
0.0000000000000000e+00 5.0000000000000000e+01
0.0000000000000000e+00 5.0000000000000000e+01
0.0000000000000000e+00 5.0000000000000000e+01
ITEM: ATOMS id type 
127 1 
128 3 
129 1 
1501 1 
1502 3 
1503 1 
3421 1 
3422 2 
3423 1 
6001 1 
6002 3 
6003 1 
1219 1 
1220 2 
1221 1 
1282 1 
1283 3 
1284 1 
5596 1 
5597 3 
5598 1 
8119 1 
8120 3 
8121 1 
10093 1 
10094 3 
10095 1 
148 1 
149 3 
150 1 
211 1 
212 3 
213 1 
9274 1 
9275 2 
9276 1 
10351 1 
10352 3 
10353 1 
2326 1 
2327 3 
2328 1 
2623 1 
2624 3 
2625 1 
7960 1 
7961 3 
7962 1 
8200 1 
8201 2 
8202 1 
5935 1 
5936 3 
5937 1 
6895 1 
6896 3 
6897 1 
847 1 
848 3 
849 1 
3781 1 
3782 2 
3783 1 
10687 1 
10688 3 
10689 1 
982 1 
983 3 
984 1 
1822 1 
1823 3 
1824 1 
2656 1 
2657 3 
2658 1 
2722 1 
2723 3 
2724 1 
3982 1 
3983 3 
3984 1 
4216 1 
4217 3 
4218 1 
8719 1 
8720 3 
8721 1 
9922 1 
9923 2 
9924 1 
10633 1 
10634 3 
10635 1 
10873 1 
10874 3 
10875 1 
2728 1 
2729 2 
2730 1 
3025 1 
3026 3 
3027 1 
3805 1 
3806 3 
3807 1 
6511 1 
6512 3 
6513 1 
9688 1 
9689 3 
9690 1 
1057 1 
1058 3 
1059 1 
1906 1 
1907 3 
1908 1 
5086 1 
5087 3 
5088 1 
6400 1 
6401 3 
6402 1 
2692 1 
2693 3 
2694 1 
3895 1 
3896 3 
3897 1 
18487 1 
18488 3 
18489 1 
13171 1 
13172 3 
13173 1 
18805 1 
18806 3 
18807 1 
19825 1 
19826 3 
19827 1 
13363 1 
13364 3 
13365 1 
15418 1 
15419 3 
15420 1 
18649 1 
18650 3 
18651 1 
20989 1 
20990 2 
20991 1 
11782 1 
11783 3 
11784 1 
13039 1 
13040 3 
13041 1 
15973 1 
15974 3 
15975 1 
13648 1 
13649 3 
13650 1 
17974 1 
17975 3 
17976 1 
19105 1 
19106 2 
19107 1 
13843 1 
13844 3 
13845 1 
14860 1 
14861 2 
14862 1 
16066 1 
16067 3 
16068 1 
21463 1 
21464 2 
21465 1 
11878 1 
11879 3 
11880 1 
16258 1 
16259 3 
16260 1 
18355 1 
18356 3 
18357 1 
21472 1 
21473 3 
21474 1 
