ITEM: TIMESTEP
15000000
ITEM: NUMBER OF ATOMS
264
ITEM: BOX BOUNDS pp pp pp
0.0000000000000000e+00 5.0000000000000000e+01
0.0000000000000000e+00 5.0000000000000000e+01
0.0000000000000000e+00 5.0000000000000000e+01
ITEM: ATOMS id type xs ys zs
5778 1 0.153057 0.352227 0.4403
5776 1 0.149263 0.351078 0.424648
5777 2 0.151736 0.350379 0.432597
7762 1 0.0485405 0.530682 0.435508
13203 1 0.148076 0.354172 0.462224
13202 3 0.145379 0.353548 0.469371
11665 1 0.149467 0.354374 0.458295
11666 2 0.151914 0.352795 0.451002
11667 1 0.152636 0.352751 0.443184
1718 2 0.0567962 0.54146 0.459918
1717 1 0.054605 0.537821 0.453161
7764 1 0.0538719 0.536541 0.449685
7763 2 0.0506586 0.534074 0.443471
1868 2 0.0888116 0.541812 0.452511
1869 1 0.0868477 0.534747 0.45652
12916 1 0.0444234 0.573585 0.473325
13123 1 0.0599834 0.547143 0.46877
1719 1 0.0589288 0.546091 0.466254
3357 1 0.058783 0.570907 0.472823
1867 1 0.0887859 0.549219 0.447486
9336 1 0.0919668 0.561843 0.467907
19611 1 0.0892626 0.56187 0.46728
19610 2 0.0817179 0.561842 0.464435
19609 1 0.0734721 0.560998 0.46319
9335 2 0.0988577 0.560627 0.470434
10188 1 0.135888 0.349847 0.494861
13201 1 0.143137 0.353553 0.477166
10186 1 0.142016 0.353779 0.480424
10187 2 0.139255 0.352977 0.487942
8746 1 0.058208 0.529574 0.501339
8748 1 0.0702011 0.533296 0.491143
10510 1 0.0728224 0.534949 0.48963
10511 2 0.0782342 0.539637 0.485177
8747 2 0.0641503 0.530793 0.496149
4312 1 0.0837566 0.535762 0.5036
4313 2 0.0786533 0.541156 0.505216
487 1 0.0286533 0.573751 0.503138
12834 1 0.0178994 0.554747 0.503379
3553 1 0.043521 0.57103 0.475288
3554 2 0.04104 0.56534 0.480463
13124 2 0.0628693 0.55121 0.474913
3555 1 0.0403214 0.559736 0.486411
15376 1 0.0405562 0.557169 0.489518
15377 2 0.0412862 0.551522 0.495776
15378 1 0.0416555 0.547092 0.501188
19057 1 0.0420161 0.544713 0.504216
9910 1 0.0488996 0.568102 0.505858
9911 2 0.0497545 0.57367 0.49952
3356 2 0.0660375 0.574011 0.476957
21146 2 0.0700039 0.559368 0.489943
13125 1 0.06585 0.554276 0.481687
21145 1 0.0669151 0.555975 0.484142
10512 1 0.0851528 0.544337 0.48319
15201 1 0.0775 0.563074 0.497373
21147 1 0.0750756 0.561913 0.495299
15200 2 0.0830263 0.566044 0.503427
8474 2 0.115769 0.553652 0.479889
8473 1 0.108592 0.556716 0.476002
9334 1 0.106323 0.557579 0.474501
8475 1 0.123399 0.55271 0.482984
12917 2 0.0471601 0.579435 0.469723
12918 1 0.0475622 0.587214 0.465974
14673 1 0.103235 0.582414 0.469634
14672 2 0.110428 0.581953 0.47315
14054 2 0.0246256 0.584124 0.487245
14055 1 0.026668 0.580665 0.480587
14053 1 0.0245949 0.586719 0.495642
9912 1 0.0508669 0.578225 0.493542
15923 3 0.0573883 0.603274 0.493645
5327 2 0.0838427 0.578952 0.483539
5328 1 0.0908118 0.581796 0.48585
3355 1 0.0741613 0.576339 0.478562
5326 1 0.076435 0.57715 0.479809
15922 1 0.0642413 0.598025 0.495308
11396 2 0.0724267 0.591574 0.500539
11397 1 0.0782238 0.587972 0.504823
11395 1 0.0668961 0.596198 0.496583
933 1 0.118161 0.58547 0.489065
14671 1 0.117623 0.582998 0.477341
932 2 0.121642 0.581847 0.495099
931 1 0.125716 0.57938 0.501834
15924 1 0.0510472 0.607815 0.493264
1331 2 0.128382 0.283442 0.595954
9195 1 0.127672 0.293158 0.59098
1330 1 0.127722 0.290536 0.591802
9194 2 0.127894 0.300278 0.586554
1332 1 0.132494 0.276705 0.598611
17667 1 0.0643762 0.51245 0.532954
17666 3 0.0629714 0.517955 0.527489
12832 1 0.0206464 0.554429 0.519413
12833 2 0.0187435 0.554462 0.511749
19712 2 0.0240828 0.552723 0.530288
19713 1 0.021671 0.554411 0.521993
8944 1 0.0575436 0.554648 0.517579
19058 2 0.043763 0.539607 0.509701
17665 1 0.059775 0.524733 0.522679
19059 1 0.0465352 0.533889 0.515324
21059 2 0.0799919 0.551523 0.532379
21060 1 0.0824287 0.554085 0.525902
8946 1 0.0692349 0.547152 0.509433
4314 1 0.0714674 0.545801 0.508354
8945 2 0.0637611 0.551034 0.513377
7641 1 0.109042 0.554698 0.512629
11639 2 0.0170752 0.576522 0.527882
11640 1 0.0137881 0.579085 0.536011
11638 1 0.0203902 0.576018 0.520395
489 1 0.0217477 0.575276 0.51788
488 2 0.0253104 0.574097 0.510305
11751 1 0.0450646 0.56328 0.528037
11750 2 0.0481424 0.558547 0.522401
11749 1 0.0548848 0.55546 0.519145
19379 2 0.0404909 0.572761 0.534801
19380 1 0.0428043 0.570469 0.526818
7819 1 0.0489178 0.583863 0.515312
16008 1 0.0646618 0.569732 0.529566
15199 1 0.0887557 0.56831 0.507921
1389 1 0.0689258 0.564524 0.514121
17394 1 0.0898242 0.577594 0.531412
18087 1 0.0878482 0.5789 0.532438
18085 1 0.0743917 0.585933 0.535532
18086 2 0.0809614 0.582179 0.53393
16674 1 0.0805226 0.5863 0.506637
1388 2 0.0677865 0.57325 0.515806
16672 1 0.091611 0.580445 0.517218
16673 2 0.0855544 0.583543 0.512672
11586 1 0.0650087 0.582485 0.517642
1387 1 0.0662304 0.579975 0.51736
9294 1 0.122955 0.561323 0.535901
7640 2 0.105119 0.559474 0.518275
16371 1 0.108737 0.583851 0.509013
17393 2 0.0948197 0.572105 0.529686
16370 2 0.111298 0.579133 0.515869
7639 1 0.100507 0.564401 0.524088
9293 2 0.121319 0.566596 0.530988
17392 1 0.0990465 0.566641 0.525681
9292 1 0.119051 0.571055 0.525243
16369 1 0.114109 0.574243 0.52253
6779 2 0.0278502 0.554265 0.549208
19711 1 0.0252513 0.552946 0.538261
6778 1 0.025966 0.553465 0.541584
20075 2 0.0490746 0.542871 0.562656
20074 1 0.0499981 0.549753 0.558468
3108 1 0.0501249 0.552281 0.556684
16439 2 0.0882243 0.541106 0.56552
4377 1 0.0714273 0.547477 0.562538
21171 1 0.0719656 0.54799 0.559393
16440 1 0.0853934 0.539949 0.558395
21170 2 0.0740961 0.549024 0.550827
21058 1 0.0771294 0.550019 0.539766
21169 1 0.0762945 0.549645 0.543323
6075 1 0.103834 0.552948 0.555875
6073 1 0.111173 0.539154 0.557419
6074 2 0.107992 0.546153 0.556549
12444 1 0.132772 0.538868 0.565295
12443 2 0.131275 0.542823 0.558498
12442 1 0.128681 0.546452 0.552628
17736 1 0.127625 0.548631 0.550139
17735 3 0.125668 0.55488 0.544114
6780 1 0.029895 0.556065 0.556541
17885 2 0.0118176 0.582779 0.545952
17886 1 0.010563 0.585162 0.553493
2627 2 0.0308958 0.578925 0.551667
17628 1 0.0269045 0.581912 0.560291
2626 1 0.0279159 0.581323 0.558231
17884 1 0.0135221 0.579913 0.538503
3106 1 0.0488418 0.564281 0.546007
3107 2 0.0507639 0.557976 0.551534
3640 1 0.0520328 0.573011 0.563023
4137 1 0.0519867 0.570659 0.565703
3641 2 0.0518631 0.578362 0.557636
3642 1 0.0515291 0.584593 0.553117
2628 1 0.0345228 0.576542 0.544902
19378 1 0.0363731 0.575498 0.542603
11219 2 0.073834 0.570859 0.553552
11220 1 0.0755338 0.574099 0.561449
18529 1 0.0760167 0.575643 0.564419
11218 1 0.0700837 0.568183 0.546152
16006 1 0.0685361 0.567916 0.543595
16007 2 0.0659184 0.567509 0.536825
17734 1 0.123778 0.55976 0.537886
6022 1 0.102754 0.556 0.556272
6023 2 0.101221 0.563752 0.557356
6024 1 0.09991 0.57163 0.557296
11465 2 0.120033 0.576833 0.551307
11464 1 0.124517 0.570921 0.553706
11466 1 0.115675 0.583303 0.549651
3787 1 0.114145 0.585792 0.549056
21098 2 0.0950207 0.58198 0.55677
21097 1 0.0985079 0.574578 0.556923
9565 1 0.127018 0.326245 0.574092
9566 2 0.127047 0.318229 0.577836
9567 1 0.128004 0.31118 0.580228
9193 1 0.128499 0.308307 0.581803
15193 1 0.0459637 0.517637 0.596189
15194 2 0.0479938 0.523909 0.591941
2049 1 0.0610234 0.542488 0.579818
15195 1 0.0510168 0.528277 0.586785
2048 2 0.0564557 0.536157 0.581144
2047 1 0.0526677 0.530235 0.584994
20076 1 0.0469847 0.535024 0.566872
4375 1 0.0678937 0.552143 0.576775
17817 1 0.0912386 0.546294 0.595802
6841 1 0.091826 0.546045 0.592967
6842 2 0.0910986 0.544338 0.58414
6843 1 0.0917091 0.542585 0.576509
4376 2 0.0698746 0.54924 0.568764
16438 1 0.0912203 0.541846 0.573543
13191 1 0.0257518 0.575023 0.583774
17627 2 0.0236554 0.583928 0.567107
8238 1 0.0177698 0.585211 0.575763
17626 1 0.019256 0.584899 0.573783
4135 1 0.0553771 0.555861 0.574556
626 2 0.0490227 0.563165 0.593145
625 1 0.0421384 0.566311 0.589972
13189 1 0.0393767 0.567705 0.589105
13190 2 0.0328645 0.57099 0.585907
4136 2 0.0546136 0.564312 0.57121
18531 1 0.0748672 0.583003 0.580212
18530 2 0.0758437 0.579624 0.572289
8213 2 0.0425429 0.509987 0.600955
8212 1 0.0448096 0.515695 0.597553
8214 1 0.0377182 0.504031 0.603091
17816 2 0.0884995 0.547459 0.6031
17815 1 0.0849179 0.549414 0.610707
627 1 0.0557089 0.561074 0.596349
12152 2 0.0239623 0.596557 0.50856
12153 1 0.0176714 0.600093 0.506025
12151 1 0.0309357 0.593168 0.512634
16879 1 0.0469047 0.61159 0.52733
16880 2 0.050531 0.605231 0.523475
16881 1 0.05633 0.599178 0.521387
11584 1 0.0578874 0.596798 0.520117
11585 2 0.0622878 0.589925 0.518744
7820 2 0.0416143 0.587873 0.514156
7821 1 0.0338336 0.592108 0.513311
11864 2 0.0741588 0.606352 0.523082
11865 1 0.0718851 0.602502 0.530413
11863 1 0.0764549 0.61079 0.517972
16905 1 0.0715168 0.58742 0.53631
20040 1 0.0956412 0.595712 0.530704
20038 1 0.0997554 0.609723 0.524936
20039 2 0.0976563 0.602313 0.527198
14854 1 0.0608839 0.603123 0.565031
11544 1 0.0470639 0.596109 0.55934
14855 2 0.0583482 0.609768 0.561466
14856 1 0.0581991 0.617652 0.558385
11543 2 0.0404573 0.59968 0.562701
6186 1 0.0558222 0.594723 0.541414
6184 1 0.0453284 0.6039 0.54554
6185 2 0.0501675 0.59837 0.542777
16903 1 0.0580283 0.593382 0.540937
8187 1 0.0762388 0.605312 0.550054
8185 1 0.0665076 0.617316 0.546299
8186 2 0.0708237 0.610446 0.546448
2293 1 0.0783694 0.602915 0.551704
2294 2 0.0837914 0.598224 0.555126
21099 1 0.0907573 0.58925 0.556211
2295 1 0.0889608 0.591667 0.556101
16904 2 0.0649979 0.590784 0.539359
3789 1 0.10788 0.599416 0.539984
3788 2 0.109684 0.592532 0.545332
8236 1 0.00776714 0.588324 0.589307
8237 2 0.012619 0.586841 0.582634
11542 1 0.0356754 0.604097 0.567696
