ITEM: TIMESTEP
0
ITEM: NUMBER OF ATOMS
111
ITEM: BOX BOUNDS pp pp pp
0.0000000000000000e+00 5.0000000000000000e+01
0.0000000000000000e+00 5.0000000000000000e+01
0.0000000000000000e+00 5.0000000000000000e+01
ITEM: ATOMS id type 
8239 1 
8240 2 
8241 1 
9256 1 
9257 3 
9258 1 
6031 1 
6032 2 
6033 1 
7837 1 
7838 3 
7839 1 
10006 1 
10007 3 
10008 1 
10177 1 
10178 2 
10179 1 
1198 1 
1199 2 
1200 1 
5509 1 
5510 3 
5511 1 
1930 1 
1931 3 
1932 1 
2707 1 
2708 3 
2709 1 
3841 1 
3842 2 
3843 1 
8464 1 
8465 2 
8466 1 
10681 1 
10682 3 
10683 1 
10573 1 
10574 2 
10575 1 
10702 1 
10703 3 
10704 1 
874 1 
875 3 
876 1 
10591 1 
10592 3 
10593 1 
9703 1 
9704 3 
9705 1 
9826 1 
9827 2 
9828 1 
10657 1 
10658 2 
10659 1 
2872 1 
2873 2 
2874 1 
5215 1 
5216 3 
5217 1 
10915 1 
10916 2 
10917 1 
20761 1 
20762 3 
20763 1 
12439 1 
12440 3 
12441 1 
15325 1 
15326 2 
15327 1 
18565 1 
18566 2 
18567 1 
12460 1 
12461 3 
12462 1 
20800 1 
20801 3 
20802 1 
20992 1 
20993 3 
20994 1 
12856 1 
12857 2 
12858 1 
17959 1 
17960 3 
17961 1 
13906 1 
13907 2 
13908 1 
18940 1 
18941 3 
18942 1 
15838 1 
15839 2 
15840 1 
16789 1 
16790 2 
16791 1 
17038 1 
17039 2 
17040 1 
