ITEM: TIMESTEP
15000000
ITEM: NUMBER OF ATOMS
207
ITEM: BOX BOUNDS pp pp pp
0.0000000000000000e+00 5.0000000000000000e+01
0.0000000000000000e+00 5.0000000000000000e+01
0.0000000000000000e+00 5.0000000000000000e+01
ITEM: ATOMS id type vx vy vz 
12552 1 2.76581 0.209248 0.823755 
18991 1 -7.14497 1.27159 8.07595 
3175 1 5.89687 0.877577 0.414947 
3176 3 -1.2286 1.65789 2.38801 
3177 1 2.4695 3.51617 -1.78801 
10484 3 1.56267 -2.95393 -0.937761 
10485 1 -3.57898 0.576411 -2.28442 
11463 1 4.19943 0.419162 1.32718 
7258 1 -2.19847 -0.0976051 0.214805 
10483 1 0.849565 -6.56369 -1.80196 
18993 1 1.80498 -0.568748 4.28484 
14956 1 0.957633 0.235872 -1.93158 
18992 3 -6.33102 0.496725 -1.12474 
6209 3 0.116492 -0.728125 -2.29313 
4099 1 4.47647 -3.27363 -1.98241 
6208 1 2.78309 -0.805605 -6.18945 
6210 1 5.07135 1.75464 0.0556769 
7602 1 2.94359 5.84236 3.78332 
8266 1 1.84477 -0.241694 -0.119002 
8267 3 -0.0795628 -2.46039 2.00343 
11462 3 -1.33649 1.75882 1.87716 
11461 1 -6.67354 -6.72905 -0.700974 
21226 1 1.43144 5.98976 -1.30517 
15998 3 0.657648 0.760193 2.69792 
15997 1 6.06423 4.91226 -2.32936 
18143 3 -0.242626 -0.268146 -1.10963 
18142 1 0.190849 6.63067 2.87633 
14113 1 -6.44852 3.37151 3.52701 
20892 1 -0.597848 -0.810044 -0.643407 
18054 1 3.50783 4.92214 6.94029 
18053 3 -0.288162 -0.775638 -0.775187 
18052 1 -0.715236 5.46145 -1.93201 
7260 1 -6.13518 -2.44577 -6.09591 
7259 3 0.447867 -5.01978 1.76423 
17548 1 2.83976 -1.4596 -1.88522 
6068 3 -0.920222 -2.31651 0.324972 
6067 1 -1.27587 -0.0644965 7.3928 
6069 1 2.2602 1.58621 1.51544 
8536 1 0.283073 7.7585 -5.27955 
8537 3 -2.60935 -0.740853 2.46069 
8268 1 -0.980814 -1.2761 3.90645 
8538 1 1.66982 1.86029 -6.37799 
21160 1 -1.78276 -0.649897 0.822497 
13544 3 2.77483 -3.27644 2.80273 
17549 3 -1.68387 -0.987977 -3.31481 
21162 1 -1.21754 0.25515 5.6001 
21161 3 2.74716 0.218318 -4.8806 
13545 1 -0.245098 -0.929822 -0.542862 
4291 1 0.250367 0.0629836 2.13423 
4292 3 -1.21958 -0.929745 -0.715091 
2225 3 0.744935 4.96678 -1.14877 
2226 1 -5.17993 -1.02812 0.689451 
2224 1 0.556711 0.608695 6.00626 
14958 1 -5.90123 -0.834143 -3.2848 
14957 3 0.0324693 2.30007 2.97343 
12550 1 -7.31528 0.582369 -0.122537 
11098 1 -1.91624 -0.683505 1.8283 
11099 3 0.756287 -1.87368 1.73982 
18144 1 0.996751 -8.61107 1.31384 
11100 1 4.05364 5.62518 -2.12245 
6433 1 2.28721 -8.25626 6.19407 
6434 3 1.22503 -2.0837 -3.14786 
5721 1 -0.538065 -1.75655 -0.69325 
5720 3 1.97182 0.590238 0.438669 
5719 1 -0.329092 -1.12648 1.95217 
17550 1 0.716611 -1.04557 2.33314 
18430 1 -2.27633 2.14232 2.88087 
4100 3 -3.7914 -3.7384 -2.96813 
1124 3 -1.2927 4.56931 4.36791 
7522 1 -5.42843 -1.18137 0.4585 
1125 1 3.19335 -3.04295 4.24162 
7600 1 0.0368912 0.503767 -0.133878 
7601 3 2.29361 0.797054 -3.47573 
7524 1 1.73988 1.79717 -0.132706 
7523 3 -3.00377 -2.90171 -2.4513 
17321 3 3.85157 2.25605 -1.96182 
17320 1 -2.65447 -4.17836 6.65402 
19312 1 -3.55629 -1.89726 1.84315 
4101 1 1.67539 -5.81178 6.94638 
17322 1 3.41548 0.292854 0.389953 
15959 3 -0.41106 1.41279 1.91814 
16416 1 -2.39015 7.36504 -3.18367 
15960 1 2.91226 -0.476943 -4.30345 
19313 3 -1.68259 -2.03807 1.23729 
19314 1 -1.48072 -1.7039 2.94336 
10114 1 4.82703 3.0066 8.48011 
21228 1 -0.903329 1.91623 6.47531 
21227 3 -0.530294 4.4332 -0.323688 
881 3 -1.33493 0.945996 -2.13346 
10218 1 -4.37481 -1.05781 -1.30548 
882 1 -3.68123 5.26414 0.441125 
20997 1 -3.24706 -0.755828 0.65868 
20996 3 2.06998 2.59098 -3.04842 
20995 1 -3.62062 -0.811284 -2.03477 
1123 1 5.89114 -4.77041 1.23778 
10216 1 1.81633 0.248945 0.349279 
10217 3 -3.18589 5.1622 9.1605 
15999 1 -1.96485 2.84261 -10.2114 
14115 1 5.39136 -4.19722 1.38526 
14114 3 1.57539 -1.80979 -8.14716 
5921 3 3.36591 2.6557 0.89115 
12604 1 3.54227 1.44747 -2.2865 
12605 3 -0.132583 0.997102 1.37465 
12606 1 -2.66987 3.60599 -0.95395 
20890 1 0.0314285 1.45631 -3.03722 
20891 3 3.63499 0.0104035 1.88513 
17006 3 0.481136 0.227637 -2.49498 
17005 1 -4.77159 0.61081 4.60014 
17007 1 2.12452 -1.25582 -0.323934 
7902 1 3.2155 6.02994 -0.326874 
10116 1 -2.59215 -2.53674 -1.11614 
12559 1 -2.60268 6.09623 6.48469 
5920 1 -2.49022 0.0647043 2.6262 
12560 3 -2.23013 0.777795 0.768912 
12561 1 -1.12506 1.18704 3.09343 
10115 3 -1.79636 -3.95253 0.0604754 
9767 3 -0.441835 -2.40954 -6.2997 
11961 1 3.37895 0.0719893 -4.06119 
6142 1 0.62139 -0.112144 3.19428 
11960 3 -1.53333 -0.801369 -1.03922 
11959 1 -1.27751 6.88689 -8.4358 
13543 1 -0.610282 -0.914687 -0.318852 
7377 1 0.202244 -0.389216 -0.858708 
9766 1 -3.82428 -0.749311 4.31958 
7900 1 5.84085 -0.705439 9.47784 
7901 3 -0.327299 -0.192509 2.64067 
6144 1 -1.01098 1.88339 1.80445 
4293 1 -0.0786754 -8.0514 -0.511667 
6143 3 1.02648 1.86486 -0.506482 
2329 1 -1.79118 1.51443 4.16195 
17066 3 -3.89419 3.21506 0.243512 
17065 1 -1.11535 -5.75001 0.39345 
2331 1 -2.51276 2.51536 2.16319 
5922 1 0.999135 -1.98363 -3.11215 
2330 3 6.13847 -1.13202 -2.17756 
12551 3 4.11364 -5.07647 3.42707 
20885 2 2.44233 -3.33985 -0.223746 
6435 1 -3.32462 -2.79339 4.76048 
20884 1 -3.92718 5.46103 1.74845 
5062 1 1.27126 -1.8131 0.0450824 
5063 3 -1.98075 1.64712 0.428228 
5064 1 0.308773 2.30378 0.631537 
20886 1 4.1796 -4.44335 5.87591 
2479 1 0.349629 3.58039 -5.20021 
18431 3 -0.479995 3.65509 -1.7939 
2480 2 -0.482732 2.11107 -1.48371 
2481 1 4.89515 1.54916 -1.40601 
18432 1 -4.23871 1.94404 0.983902 
2250 1 -0.0803112 4.54703 -2.79088 
19423 1 3.30375 3.83509 2.58754 
19424 2 -0.267414 -4.2444 -4.1247 
19425 1 -0.112084 7.5686 1.41036 
17059 1 -1.49031 2.24172 -2.5851 
17061 1 -3.25667 -1.154 1.87363 
17060 3 3.01043 -3.65191 -0.96664 
16414 1 0.302781 4.3312 0.784898 
16415 3 -1.38096 -1.09434 -3.85953 
15958 1 -2.03421 -0.869464 0.4614 
19207 1 1.1344 0.210489 -5.10254 
17608 1 -5.07822 0.16517 -3.04459 
17609 3 -4.36242 3.58525 -2.25197 
11276 3 3.06277 -1.80973 -0.0014413 
11277 1 -1.24824 1.50023 -0.190315 
8479 1 2.33003 1.37106 -5.16156 
3559 1 -0.895072 -0.421784 1.00008 
10019 3 -3.48982 -0.392617 -1.48013 
10020 1 2.56032 -0.96803 0.296695 
8481 1 6.20571 7.26644 6.85455 
19208 3 0.662265 2.24176 0.114194 
19209 1 -4.99279 -6.18413 2.43144 
8480 3 0.588968 -1.77544 -0.998306 
21174 1 0.91399 -2.87848 -0.907703 
880 1 -3.4967 -4.04668 0.425555 
7375 1 -7.84903 -3.52288 -2.76913 
7376 3 1.47397 1.63296 -3.10596 
21172 1 4.16356 2.17321 -1.80271 
21173 3 0.272885 -1.37569 -0.433592 
16311 1 -4.0697 -2.3383 5.29414 
16310 3 -2.00021 1.88385 0.255285 
4426 1 2.20291 0.0386231 9.61859 
20924 3 5.08532 1.44312 -2.22873 
17067 1 -0.612322 -6.59716 -2.42646 
4897 1 2.99717 -4.15848 -2.35154 
16309 1 6.45005 6.71283 -2.24935 
11275 1 -0.643021 0.495422 1.27095 
20923 1 -2.57079 1.39867 6.47504 
20925 1 -2.22794 2.04863 1.42101 
10240 1 3.25578 -2.00061 -5.14274 
3560 3 2.22974 -3.57636 -2.14773 
3561 1 2.85853 0.502499 -5.03287 
10242 1 5.66872 2.52921 4.6926 
10241 3 -0.084118 3.24149 -3.26241 
4899 1 -5.95998 0.655633 1.25088 
4898 3 2.00791 -2.81986 1.11818 
9768 1 1.76345 1.90678 2.35278 
2249 2 1.76197 -1.37339 -0.474911 
2248 1 3.1554 -3.13731 4.22172 
13569 1 1.74355 -2.06084 -1.86635 
13568 2 0.265632 -0.230696 1.68542 
13567 1 1.24161 -4.23818 -1.32663 
3208 1 -4.95848 -0.101613 0.124272 
4428 1 1.3644 0.605567 -2.06945 
4427 3 -0.290642 -1.91097 -2.84737 
17610 1 -1.14547 -1.43202 1.64032 
10018 1 -1.17979 -0.234541 2.8749 
3210 1 0.47266 -0.764038 2.79139 
3209 3 -1.40633 -0.404597 0.114895 
