ITEM: TIMESTEP
15000000
ITEM: NUMBER OF ATOMS
195
ITEM: BOX BOUNDS pp pp pp
0.0000000000000000e+00 5.0000000000000000e+01
0.0000000000000000e+00 5.0000000000000000e+01
0.0000000000000000e+00 5.0000000000000000e+01
ITEM: ATOMS id type vx vy vz 
3421 1 -0.695734 -0.570414 3.45364 
3782 2 0.00952481 -2.80551 0.861231 
3783 1 -5.39445 0.281824 -0.51905 
1284 1 3.59822 1.44528 -0.621531 
4217 3 0.627036 -0.394505 0.0204616 
4216 1 -1.7266 -2.49502 -7.4838 
4218 1 5.10139 4.78098 -3.96461 
9922 1 4.54886 1.70934 -0.0355185 
6513 1 -1.70116 0.00610269 1.12972 
6512 3 2.34238 -0.997871 1.65847 
149 3 -0.378424 2.07204 -0.537289 
148 1 5.15585 -2.68961 0.581231 
150 1 -1.0746 3.86527 0.741255 
3025 1 -4.28574 4.70842 -1.55883 
10875 1 2.60119 0.166714 1.48018 
10874 3 -0.695532 -0.229174 -3.75659 
10873 1 -0.833142 0.793767 2.41877 
3423 1 -1.18591 0.277506 1.34264 
3422 2 -6.31373 1.00899 -5.20004 
19827 1 1.59446 0.368538 1.10244 
3781 1 3.37747 2.3331 -0.728279 
19826 3 4.10529 -2.14749 4.2374 
11783 3 1.84029 -1.12953 -0.577136 
11784 1 0.353494 -0.299216 1.36797 
19825 1 -1.49098 2.17972 2.0058 
19106 2 -2.73559 -0.458487 -2.54792 
19105 1 -4.44829 -2.03986 0.19224 
19107 1 7.83804 0.107102 -5.70374 
13363 1 2.66804 -4.03263 -7.46623 
13364 3 2.72391 -0.301838 -1.415 
13172 3 1.01127 0.61581 1.33466 
13171 1 -2.1359 -1.00693 -1.40667 
18357 1 -1.97017 2.95463 0.874519 
18355 1 -6.42682 0.126656 1.62785 
18356 3 0.720088 5.42573 -1.00816 
2623 1 1.02875 0.670911 -4.79473 
2624 3 -1.31001 1.55941 5.17392 
2625 1 3.92799 -0.884224 -3.30765 
211 1 2.20923 2.46383 0.0735829 
847 1 3.23516 -0.918967 1.80855 
848 3 -1.1444 0.0582527 -2.18246 
15974 3 3.63308 -1.17036 0.610005 
15973 1 -3.65915 -1.2851 0.338761 
8119 1 -6.39507 1.16249 -0.382252 
8120 3 -2.35549 1.12045 -2.93666 
10353 1 -3.81748 2.29415 2.364 
2723 3 -2.11266 -1.06791 0.69942 
2724 1 0.818533 -2.9653 -5.01564 
10351 1 -5.91993 -1.45716 3.8787 
2722 1 1.81436 -4.38897 6.38902 
10352 3 4.72341 2.7357 2.24412 
1907 3 0.230371 2.12092 4.39723 
5087 3 -1.66475 2.96241 8.48448 
5088 1 -3.93604 1.68325 -0.196294 
212 3 -0.0766038 -2.42918 -0.0256187 
13648 1 -1.43481 -2.31679 -3.43421 
213 1 1.846 -5.59991 3.61372 
13649 3 0.329827 -2.29552 -2.014 
13650 1 -0.968102 2.9155 5.03924 
9690 1 1.73159 -1.78985 2.20985 
16066 1 0.728632 -4.13741 3.62746 
10689 1 2.56214 0.620398 1.12345 
1906 1 -1.28275 -4.2675 -3.77308 
15419 3 6.35952 0.0639547 1.34748 
15418 1 1.23304 4.39873 8.10746 
15420 1 -0.680464 0.839498 -0.80965 
6003 1 -0.674102 -0.890044 -0.918321 
1057 1 5.26836 -2.56281 -0.717783 
6002 3 0.843736 2.1244 -1.16377 
6001 1 7.90971 -2.10264 3.30239 
18650 3 2.13544 0.0344912 0.195146 
18651 1 4.7374 2.72205 -0.182613 
8721 1 4.2004 2.57345 -2.49439 
16067 3 -5.00973 -3.80012 -0.470873 
16068 1 -3.81653 -0.437264 7.7257 
18649 1 1.45363 -0.954658 -2.249 
9276 1 -5.03766 3.61475 -7.7645 
1282 1 -0.91232 -0.796853 1.37381 
1283 3 2.00505 1.79073 -0.576565 
10687 1 -1.46796 -8.64308 -3.94257 
20989 1 1.3811 -2.14245 3.84472 
10688 3 -0.415297 -5.71142 -4.22189 
20990 2 1.87996 -0.869753 3.58308 
20991 1 -0.538076 -4.06985 0.220582 
9274 1 -2.38752 0.428147 -1.71982 
9275 2 1.03824 -2.44144 1.77315 
8720 3 0.91244 1.63954 -1.75297 
8719 1 -8.93688 0.46081 0.31054 
9924 1 -2.48294 -4.95956 -2.24291 
9923 2 -0.712847 -3.91478 5.09811 
3027 1 -4.23013 -3.96815 -3.12414 
3026 3 0.811889 -1.60125 -0.737173 
11782 1 -4.04076 3.34454 3.45074 
3806 3 -0.44535 0.927951 0.396963 
21473 3 -4.90157 2.56926 -0.08453 
21474 1 2.79131 2.08265 4.77052 
127 1 -0.0806602 -1.56879 5.60159 
13365 1 1.49815 0.587529 -1.70692 
3807 1 3.62962 -0.353883 -1.57384 
6511 1 -1.1855 4.34904 1.7376 
21472 1 -0.694305 9.13801 -2.55386 
3805 1 0.176015 -5.85578 -0.227648 
7960 1 0.405912 -0.506399 0.379007 
2327 3 -0.55407 -0.328054 1.75202 
2328 1 -1.60936 -2.12109 -3.69141 
7961 3 -1.98539 0.655611 -2.02177 
7962 1 -3.01864 4.3823 -3.02792 
2326 1 4.67314 5.74669 3.31022 
2728 1 -3.76622 1.64091 -4.24507 
2729 2 0.359605 -1.6423 -1.26507 
2730 1 3.11503 1.31327 4.82739 
21465 1 -4.33443 -4.53655 -3.43524 
129 1 -1.71709 -2.99178 -0.635285 
128 3 2.09623 -0.154943 -1.13679 
6895 1 0.407843 0.335204 -2.41787 
6896 3 0.792111 -1.3161 -2.30286 
6897 1 -0.0828797 -3.86779 1.16989 
13173 1 1.80913 -4.54723 -3.99372 
1220 2 2.58379 -2.59355 0.466488 
1221 1 5.52623 3.60412 -1.36328 
8202 1 0.629237 2.72687 4.72383 
3895 1 0.731874 -2.2263 6.19152 
3896 3 -4.95863 3.21835 1.76483 
8200 1 0.810093 2.50941 -3.79521 
8201 2 -0.305517 -1.72003 1.29865 
1219 1 0.632387 2.47748 -5.57384 
3982 1 -0.0916835 1.262 2.30651 
3983 3 1.85896 -2.88769 -0.434654 
3984 1 -2.44989 10.2485 -2.60976 
849 1 -0.536593 0.784192 0.465364 
11878 1 0.6441 -5.31414 -0.381392 
14862 1 6.56202 7.03567 -2.12501 
14861 2 -0.173063 -0.188106 2.93574 
982 1 0.548075 3.84931 2.41156 
8121 1 -1.35058 -0.355552 2.24888 
1908 1 -3.73636 -4.95159 -0.707121 
1503 1 9.52149 1.37223 3.25461 
3897 1 3.84424 -0.607112 -0.985912 
13040 3 0.761876 -0.971106 -1.99985 
13039 1 -2.04462 2.1072 0.900799 
5086 1 -4.12195 -1.9499 -7.9936 
13041 1 4.18381 3.22779 -0.502316 
18487 1 -3.92604 2.00917 -2.32963 
1502 3 2.97615 1.00087 -0.041035 
10635 1 -2.19854 1.97361 0.387661 
1501 1 1.03348 5.38942 3.42894 
10634 3 1.43096 -3.45569 0.263209 
17974 1 -0.552329 4.33249 -0.157322 
10633 1 -6.10522 1.31951 5.01265 
9688 1 0.731065 -3.03756 6.37877 
11880 1 2.58268 -5.62472 -5.35777 
9689 3 -0.178964 0.951508 5.06039 
18488 3 1.26438 -1.27184 1.95659 
18489 1 -3.27788 -3.15597 3.361 
11879 3 0.98191 1.02669 0.576235 
17976 1 -5.76341 -3.07455 -2.57951 
10093 1 -3.58502 -3.46916 0.559222 
10094 3 3.98347 0.290795 2.31409 
983 3 3.29911 0.452514 -2.06574 
15975 1 -5.78258 2.19045 6.54879 
5936 3 1.51571 3.30978 1.11626 
5937 1 -1.58838 7.06828 4.36988 
10095 1 2.11622 1.02115 4.14093 
5935 1 0.918066 -2.62702 1.86909 
984 1 4.06683 -1.84569 -0.223727 
2658 1 0.283401 4.68334 -0.682243 
2657 3 -0.873248 3.06934 3.2454 
1822 1 -0.476125 0.515282 6.87755 
6400 1 3.40027 -1.79501 2.48037 
6401 3 -2.31093 -5.48118 3.53622 
13844 3 3.1328 2.03051 0.454412 
13843 1 0.846023 -0.248962 -1.11356 
1824 1 -6.8595 2.68996 -3.82066 
2656 1 -6.33854 -1.53369 -7.03615 
1823 3 -0.46043 -3.22603 -3.1844 
1058 3 3.86184 0.744297 -0.0964071 
1059 1 0.397123 -6.25055 2.42918 
16258 1 -0.813737 -2.74112 -1.02951 
16259 3 3.8203 1.34631 0.287084 
17975 3 1.05702 -4.03387 2.56808 
16260 1 0.972467 1.7896 4.20355 
5596 1 4.62401 1.91042 -4.10202 
6402 1 -4.87765 -5.26116 4.80223 
5597 3 0.119564 2.14451 -5.18388 
5598 1 -2.70214 2.04723 1.66899 
14860 1 0.088607 -0.184659 3.40603 
2693 3 -0.0284922 6.45616 2.39299 
2694 1 2.35019 1.70465 -3.07962 
2692 1 -3.56339 3.94156 -0.0104894 
18807 1 -0.0582496 -1.10772 -3.11168 
13845 1 -0.424882 -1.95584 -2.19558 
18806 3 -3.38224 3.153 0.607026 
18805 1 4.20293 -4.04341 -1.55961 
21464 2 0.76467 2.67368 -5.88146 
21463 1 2.22987 1.44982 4.55204 
