ITEM: TIMESTEP
15000000
ITEM: NUMBER OF ATOMS
207
ITEM: BOX BOUNDS pp pp pp
0.0000000000000000e+00 5.0000000000000000e+01
0.0000000000000000e+00 5.0000000000000000e+01
0.0000000000000000e+00 5.0000000000000000e+01
ITEM: ATOMS id type xs ys zs
12552 1 0.133353 0.00127072 0.385218
18991 1 0.127336 0.979694 0.308412
3175 1 0.118105 0.958968 0.33704
3176 3 0.112342 0.963246 0.337438
3177 1 0.106657 0.968574 0.34014
10484 3 0.131509 0.961594 0.328009
10485 1 0.129638 0.966154 0.321678
11463 1 0.142329 0.941613 0.338138
7258 1 0.132667 0.955534 0.337507
10483 1 0.132608 0.956695 0.334887
18993 1 0.128998 0.967946 0.319689
14956 1 0.104365 0.970365 0.341143
18992 3 0.127935 0.974299 0.314429
6209 3 0.167215 0.895736 0.366655
4099 1 0.161731 0.901373 0.374634
6208 1 0.163258 0.899967 0.372636
6210 1 0.169868 0.892437 0.360437
7602 1 0.213709 0.880942 0.373935
8266 1 0.149161 0.937714 0.362198
8267 3 0.155812 0.938628 0.360244
11462 3 0.141474 0.934231 0.344402
11461 1 0.140139 0.928174 0.350589
21226 1 0.17184 0.919479 0.375397
15998 3 0.20708 0.9327 0.371799
15997 1 0.209372 0.92672 0.365778
18143 3 0.123001 0.969736 0.357223
18142 1 0.116601 0.969564 0.354755
14113 1 0.103521 0.969285 0.371094
20892 1 0.136192 0.94748 0.375678
18054 1 0.135567 0.947631 0.372505
18053 3 0.134736 0.948889 0.36456
18052 1 0.133737 0.950494 0.356445
7260 1 0.13351 0.950566 0.352659
7259 3 0.133165 0.952247 0.345152
17548 1 0.18601 0.966558 0.355616
6068 3 0.168172 0.965576 0.360918
6067 1 0.170324 0.969357 0.367418
6069 1 0.166059 0.962245 0.35463
8536 1 0.165566 0.940992 0.360562
8537 3 0.171955 0.944541 0.361915
8268 1 0.162762 0.939506 0.360315
8538 1 0.178453 0.948597 0.36294
21160 1 0.218382 0.949644 0.365479
13544 3 0.198802 0.952435 0.373483
17549 3 0.192719 0.967817 0.359967
21162 1 0.21353 0.948685 0.349163
21161 3 0.215534 0.948634 0.357217
13545 1 0.192169 0.948155 0.371225
4291 1 0.21971 0.949682 0.368045
4292 3 0.223602 0.949214 0.375074
2225 3 0.0850587 0.987608 0.350085
2226 1 0.0783932 0.991327 0.348675
2224 1 0.0903244 0.981563 0.3486
14958 1 0.0926605 0.979327 0.348108
14957 3 0.0984509 0.973859 0.344352
12550 1 0.136531 0.993069 0.372142
11098 1 0.150999 0.970474 0.363464
11099 3 0.141682 0.970542 0.363456
18144 1 0.129882 0.970754 0.360205
11100 1 0.132853 0.970931 0.361143
6433 1 0.171275 0.971161 0.36922
6434 3 0.174927 0.977334 0.372967
5721 1 0.217352 0.975909 0.369945
5720 3 0.21097 0.973074 0.365957
5719 1 0.202788 0.970549 0.363995
17550 1 0.199808 0.969813 0.363047
18430 1 0.219794 0.976645 0.371458
4100 3 0.15625 0.905205 0.378645
1124 3 0.211815 0.903743 0.385958
7522 1 0.196126 0.901366 0.380607
1125 1 0.21373 0.896709 0.382879
7600 1 0.21364 0.893319 0.381615
7601 3 0.213476 0.886362 0.377921
7524 1 0.191918 0.892033 0.392813
7523 3 0.193914 0.896783 0.38663
17321 3 0.142577 0.916651 0.386469
17320 1 0.1366 0.920654 0.389938
19312 1 0.15546 0.92904 0.385261
4101 1 0.150173 0.909533 0.382664
17322 1 0.147968 0.911585 0.383717
15959 3 0.173866 0.933038 0.406142
16416 1 0.186983 0.911436 0.405756
15960 1 0.1685 0.931883 0.399
19313 3 0.160983 0.929544 0.391515
19314 1 0.167114 0.931516 0.3971
10114 1 0.177885 0.93621 0.383053
21228 1 0.177076 0.933497 0.381264
21227 3 0.175162 0.925189 0.378267
881 3 0.215688 0.933333 0.408313
10218 1 0.196929 0.93914 0.400927
882 1 0.213321 0.927266 0.402776
20997 1 0.2132 0.92548 0.400799
20996 3 0.212564 0.919534 0.395716
20995 1 0.212108 0.913833 0.390114
1123 1 0.21184 0.910626 0.388641
10216 1 0.202457 0.932588 0.387561
10217 3 0.19972 0.935948 0.394424
15999 1 0.205396 0.937801 0.377603
14115 1 0.108017 0.962542 0.38475
14114 3 0.105243 0.96578 0.377231
5921 3 0.151266 0.96704 0.383729
12604 1 0.150887 0.9551 0.402031
12605 3 0.152528 0.948889 0.398089
12606 1 0.152997 0.941988 0.394299
20890 1 0.138461 0.945991 0.390753
20891 3 0.137185 0.94702 0.383115
17006 3 0.171199 0.955431 0.405127
17005 1 0.164583 0.949367 0.404414
17007 1 0.177853 0.960829 0.404701
7902 1 0.184685 0.951217 0.391749
10116 1 0.182785 0.948619 0.390963
12559 1 0.160035 0.959487 0.382436
5920 1 0.158338 0.96194 0.382775
12560 3 0.164067 0.953791 0.382348
12561 1 0.16807 0.946986 0.383834
10115 3 0.180272 0.942119 0.386388
9767 3 0.199977 0.966739 0.406392
11961 1 0.213808 0.963046 0.392985
6142 1 0.215943 0.963735 0.395437
11960 3 0.209635 0.961412 0.38703
11959 1 0.205954 0.958564 0.381351
13543 1 0.203925 0.957629 0.378866
7377 1 0.19599 0.94036 0.40359
9766 1 0.196222 0.962288 0.40042
7900 1 0.194349 0.960246 0.398332
7901 3 0.18894 0.956223 0.393946
6144 1 0.22761 0.968713 0.40558
4293 1 0.22926 0.946667 0.381012
6143 3 0.222008 0.965974 0.399773
2329 1 0.132908 0.985397 0.387047
17066 3 0.14836 0.989427 0.402568
17065 1 0.14226 0.98757 0.397269
2331 1 0.142923 0.972333 0.387016
5922 1 0.144872 0.970445 0.386304
2330 3 0.137827 0.978157 0.387355
12551 3 0.134653 0.997246 0.378641
20885 2 0.183328 0.99145 0.381416
6435 1 0.178572 0.983578 0.377248
20884 1 0.179796 0.985737 0.378363
5062 1 0.173941 0.98707 0.396211
5063 3 0.168821 0.980322 0.39632
5064 1 0.163897 0.97403 0.398817
20886 1 0.187789 0.998974 0.384128
2479 1 0.248812 0.976563 0.393412
18431 3 0.225629 0.978754 0.377297
2480 2 0.241738 0.977198 0.388176
2481 1 0.23403 0.978125 0.383403
18432 1 0.231714 0.97839 0.382158
2250 1 0.266634 0.978004 0.407785
19423 1 0.264066 0.977425 0.40586
19424 2 0.257143 0.976597 0.400235
19425 1 0.251205 0.976519 0.395537
17059 1 0.19821 0.90011 0.423266
17061 1 0.19515 0.90528 0.438362
17060 3 0.195912 0.903118 0.430289
16414 1 0.196058 0.898031 0.411879
16415 3 0.190818 0.905466 0.409363
15958 1 0.176343 0.935146 0.413032
19207 1 0.176523 0.936193 0.415406
17608 1 0.13681 0.961122 0.428031
17609 3 0.132025 0.95891 0.436161
11276 3 0.141404 0.967287 0.42027
11277 1 0.148485 0.964898 0.421231
8479 1 0.150966 0.963916 0.421873
3559 1 0.178466 0.96223 0.422386
10019 3 0.17873 0.948608 0.437482
10020 1 0.176403 0.944326 0.431946
8481 1 0.165701 0.955054 0.422573
19208 3 0.17485 0.940081 0.422397
19209 1 0.175685 0.942816 0.429436
8480 3 0.15906 0.960486 0.422648
21174 1 0.217323 0.942415 0.413319
880 1 0.216991 0.939969 0.41216
7375 1 0.189299 0.94581 0.416377
7376 3 0.193499 0.943085 0.409972
21172 1 0.226602 0.954973 0.419577
21173 3 0.220546 0.949622 0.416808
16311 1 0.117554 0.9724 0.410283
16310 3 0.123879 0.97184 0.414057
4426 1 0.1535 0.9736 0.437654
20924 3 0.12799 0.981825 0.432918
17067 1 0.153259 0.990815 0.408591
4897 1 0.154935 0.991255 0.410517
16309 1 0.131028 0.97023 0.416823
11275 1 0.13364 0.969848 0.418291
20923 1 0.129007 0.974163 0.430308
20925 1 0.125702 0.987934 0.437108
10240 1 0.181239 0.990545 0.43009
3560 3 0.176886 0.97038 0.423937
3561 1 0.175044 0.977797 0.425786
10242 1 0.166651 0.992319 0.423588
10241 3 0.173284 0.9922 0.427493
4899 1 0.164227 0.992197 0.422064
4898 3 0.159478 0.99086 0.416515
9768 1 0.201532 0.972358 0.412824
2249 2 0.272766 0.980371 0.411204
2248 1 0.279682 0.982989 0.413903
13569 1 0.297825 0.985138 0.417031
13568 2 0.290426 0.9849 0.416342
13567 1 0.282828 0.983622 0.414741
3208 1 0.155696 0.957807 0.445406
4428 1 0.155003 0.960686 0.444676
4427 3 0.153877 0.967413 0.441642
17610 1 0.128172 0.956014 0.442361
10018 1 0.180504 0.953445 0.443155
3210 1 0.161668 0.944363 0.451253
3209 3 0.158043 0.951167 0.448379
