ITEM: TIMESTEP
15000000
ITEM: NUMBER OF ATOMS
19944
ITEM: BOX BOUNDS pp pp pp
0.0000000000000000e+00 5.0000000000000000e+01
0.0000000000000000e+00 5.0000000000000000e+01
0.0000000000000000e+00 5.0000000000000000e+01
ITEM: ATOMS id type vx vy vz 
9978 1 -5.25293 0.494446 1.53643 
9977 3 -5.8024 -4.01545 0.397845 
14178 1 -7.46858 2.49654 -0.484987 
7215 1 -4.4997 4.40292 -3.43258 
7214 3 0.932348 -6.07334 2.40175 
7213 1 -2.46917 1.28199 3.06457 
3203 2 2.35688 1.35443 3.72706 
3204 1 -1.47797 -0.560001 1.04765 
3202 1 2.36321 -3.50318 3.21151 
19054 1 -1.97142 -4.43897 4.88018 
19055 3 -2.68423 -0.0653492 0.119112 
11128 1 5.50163 7.5179 2.38466 
11130 1 -4.14018 -2.59627 -0.177117 
19056 1 -5.60569 -4.33886 -1.37363 
11129 3 0.313412 -0.17025 0.185622 
5800 1 1.93603 -6.12931 0.221991 
5801 2 0.902613 -0.973712 -2.14578 
12648 1 3.82561 -6.18896 4.74067 
17021 2 0.860193 -1.65917 -0.251132 
19297 1 -0.304807 4.90466 3.68425 
17020 1 2.17961 -4.43331 2.88318 
10452 1 -0.0790244 -1.90507 2.73888 
3081 1 2.3308 1.06444 5.01699 
3080 2 0.984695 -2.77783 2.02928 
3079 1 1.86394 4.78235 -1.29596 
1710 1 2.71346 -1.78783 -2.60889 
1709 3 -4.72324 -0.0013166 -4.11088 
1708 1 1.37626 -1.49456 0.688249 
1890 1 5.94353 -1.0754 6.32465 
12292 1 0.71415 -0.419677 -0.957244 
12293 3 -1.76602 1.50458 -2.44473 
1641 1 4.00305 -3.81146 0.262318 
5278 1 1.6715 2.64032 -3.75902 
5279 2 -1.28403 0.594422 1.31203 
1640 2 -0.0933022 6.43586 -2.84045 
1639 1 0.800242 2.24382 6.02509 
15383 3 -2.0562 -7.727 4.16218 
13736 2 -2.79961 -2.91821 1.52008 
13735 1 -3.52278 -2.90657 -0.892622 
13737 1 -0.626159 2.02195 -0.319188 
5128 1 -2.2949 5.26952 1.31786 
1861 1 2.01563 -5.64535 0.808054 
15384 1 7.24766 -0.545648 4.87032 
5506 1 0.412294 -1.52042 2.23309 
5507 2 -0.592481 0.423175 0.58371 
6118 1 -2.15617 1.78472 3.38242 
12032 3 4.52963 2.91705 1.41991 
12033 1 -3.59415 0.790747 1.9103 
6120 1 3.28155 3.83167 -0.835307 
6119 3 -0.875363 3.23845 -0.142363 
312 1 -1.06753 5.73004 1.37005 
375 1 5.35496 -4.26088 0.910441 
374 3 -2.81278 5.15191 -2.52124 
373 1 1.02874 -3.61603 -3.06736 
310 1 -2.41351 0.0843155 -1.46449 
311 2 -1.28501 -0.13737 -0.0607532 
16494 1 -1.87284 3.80077 3.93382 
16493 2 2.51195 2.72489 0.365618 
5129 3 0.854318 -3.22617 -1.17689 
5130 1 1.36706 -0.423824 3.4679 
3194 2 2.29864 0.633678 1.48993 
3195 1 -3.00513 1.53794 -5.98572 
3193 1 -5.23884 2.01492 -0.436212 
18786 1 -1.77153 -5.00025 0.154414 
5508 1 3.58196 0.994171 0.391885 
18785 2 -1.34326 -0.656656 5.55116 
18784 1 -0.679561 4.91709 -0.312457 
20844 1 -5.43376 0.264336 -1.90105 
20843 3 4.93876 0.32196 -0.778254 
20842 1 -4.16795 -5.13304 3.75225 
14071 1 -2.51953 2.02894 1.99619 
16492 1 0.00748886 -2.39899 -1.78378 
4538 2 3.9134 1.14438 0.582866 
4537 1 3.66128 -8.41978 2.37017 
4539 1 0.628284 5.26091 -2.18146 
12991 1 0.422245 -3.8989 2.76817 
19919 2 0.703547 0.187831 0.167829 
19918 1 -1.51193 -0.125237 -1.00768 
2008 1 -2.63313 0.173971 -5.89654 
2009 3 -4.95648 0.843079 0.787299 
2010 1 3.79279 -4.29438 -0.420169 
1974 1 -0.225697 -2.06229 -0.725091 
1973 2 -0.30374 -0.967973 1.94829 
12992 2 0.46466 -1.85644 3.5015 
20005 1 -3.50103 -1.30415 -1.54291 
2038 1 1.51246 -3.01226 -1.22798 
2039 3 -2.08927 -1.01357 2.83765 
2040 1 6.49921 3.1787 2.58188 
17614 1 1.18513 1.48392 1.25156 
5802 1 -0.055572 0.149795 -0.864922 
5080 1 2.63343 3.2231 -1.96868 
5081 2 -2.37872 2.4852 -7.5186 
17616 1 -8.7707 8.35167 -3.50074 
5082 1 4.65321 0.342913 3.81972 
17615 2 0.367094 -2.20179 -1.66714 
20582 3 5.1595 2.11505 4.57425 
20583 1 6.7021 0.487772 5.35227 
1889 2 -5.24912 -3.62319 0.625815 
19618 1 1.69781 -2.53665 -0.469237 
19619 2 -4.19181 -2.40571 1.87993 
20581 1 3.26282 0.88814 -5.23464 
10600 1 -5.31625 -0.254614 3.45242 
3876 1 4.46408 -0.598839 7.14194 
10602 1 -4.11093 -1.7782 2.66743 
10601 3 1.19513 4.82852 0.643327 
12294 1 1.94341 4.13157 -6.9185 
14119 1 1.14142 6.9465 0.772661 
19620 1 2.14015 -4.02305 3.84584 
14121 1 -1.39413 -1.5496 -2.20839 
14120 2 1.67371 -0.99101 4.22601 
8617 1 -2.89337 -1.39133 3.25741 
3875 3 -1.09338 1.57927 -2.35989 
3874 1 -7.56099 -4.12155 2.25619 
2448 1 3.62783 -1.72856 4.21354 
4816 1 0.0781991 0.460704 -0.301535 
4817 2 2.59456 3.38741 -0.67546 
1566 1 3.54657 4.27484 -4.79916 
1565 2 -2.5082 0.868854 1.02887 
1564 1 2.4191 3.73362 -0.503834 
12031 1 0.87072 -3.64862 -3.56091 
4818 1 -5.45528 -3.34946 2.9331 
10392 1 -1.86321 -8.17563 0.227477 
10391 3 0.651286 -5.08682 -1.16038 
12126 1 7.43526 -3.74385 1.46431 
12125 2 4.1841 2.33388 -3.55525 
15382 1 -0.23079 -4.07282 4.47067 
1539 1 1.11708 -4.32868 0.249293 
1538 3 1.60368 0.0259256 -0.0997 
1537 1 -3.08971 4.02121 -4.7031 
12124 1 -2.30024 -0.656547 -0.510792 
15233 2 0.181894 -0.560627 -1.32732 
15232 1 -6.37879 1.86347 -1.25234 
15234 1 -4.1062 -0.92377 6.96987 
14072 3 0.868541 -1.23806 3.28527 
1512 1 4.11352 2.54944 -0.338307 
379 1 -0.943648 6.16164 -0.794704 
380 2 -1.46072 -4.74457 -1.86141 
381 1 1.93715 3.85197 0.300269 
6822 1 -2.49847 1.36599 4.52598 
8093 2 -0.940005 -2.10433 0.401463 
8094 1 -1.3641 -0.718455 1.56395 
6820 1 3.11385 -8.28595 -7.50991 
6821 2 1.33505 2.28125 -2.2334 
1972 1 -5.65012 -1.9715 -1.88286 
10584 1 0.200153 2.01739 -1.43035 
8092 1 -3.09531 -4.19555 0.705001 
10583 3 -4.10996 2.23186 -3.41746 
10582 1 -2.68707 4.70101 -5.00682 
14073 1 5.66428 -2.99353 -2.8155 
16011 1 -0.928636 2.73409 3.78248 
16010 3 -2.41251 0.615839 0.654139 
14506 1 3.91987 -1.5515 -2.37737 
16009 1 -7.94018 -1.11588 -1.72068 
14507 3 -4.80608 -0.0482846 -1.30933 
1511 3 0.756518 0.381433 -0.321941 
1510 1 1.697 -3.33912 -1.79321 
4455 1 -1.84342 2.00938 -5.30659 
4454 2 1.71429 -0.801199 3.20456 
4453 1 -1.82011 -2.76813 4.02215 
6682 1 -4.25077 3.92591 -2.78306 
12595 1 -2.54377 2.05554 -2.76158 
20563 1 -4.95966 -0.722491 6.68596 
20564 2 -2.33444 -3.68453 -0.0860421 
12597 1 3.73517 0.0783954 2.51018 
12596 2 -8.14359 -1.34852 1.66491 
6379 1 -1.17587 -2.44569 -7.09033 
5010 1 0.628397 0.263408 6.22095 
6380 3 -1.97006 -4.6041 0.769048 
6381 1 5.05917 5.3113 1.76022 
20565 1 -2.50234 1.19394 -5.85304 
14355 1 2.84913 -0.00534742 -8.5326 
14353 1 -1.25524 3.12215 2.28494 
14354 2 -2.7968 -0.432282 -6.40743 
5916 1 1.30085 -2.0964 -1.41172 
5915 2 -3.87371 0.428356 -1.42221 
2446 1 0.636766 4.35598 -2.19528 
2447 2 -0.0494916 -3.7449 -0.532936 
133 1 -0.0957276 -8.21597 -1.75379 
134 3 -1.99333 -3.26357 0.920505 
135 1 -1.80782 0.71492 -1.8612 
2491 1 4.81861 0.942469 1.13671 
2493 1 -1.27365 2.17494 1.02454 
10390 1 -0.549958 0.125101 2.71908 
2492 2 7.95775 1.56583 1.1537 
8688 1 4.51443 3.11383 -3.75991 
18679 1 -1.39525 1.99384 -4.16281 
8687 3 0.0998586 -3.73122 -1.62903 
8866 1 -1.80216 2.74817 -2.4743 
8206 1 -5.29745 0.242775 -2.56606 
8207 3 1.40012 1.65103 -5.24179 
8208 1 1.08629 3.67188 3.61717 
18680 2 -3.42259 -0.35856 1.18355 
18681 1 0.627612 3.62077 -1.91893 
15260 2 0.0217639 3.99273 1.66944 
11487 1 1.12188 1.11546 -1.49987 
11486 2 3.5961 -0.362645 -2.20829 
15261 1 -5.67145 7.59408 -6.5768 
11485 1 2.4419 -1.20628 0.366351 
15259 1 -2.76081 -3.31287 1.78681 
14508 1 -4.13225 7.91161 3.5768 
7005 1 -4.5295 -2.8252 -0.85467 
7004 2 -0.910911 -3.40426 1.78175 
7003 1 2.57895 0.964467 -1.36786 
9115 1 3.86336 4.21277 -1.6476 
16107 1 -1.76125 2.92426 -2.84366 
14650 1 1.72924 5.45977 -0.797479 
14652 1 7.48398 3.57994 -0.925269 
14651 2 3.07658 -2.19675 -0.286185 
13515 1 0.554488 1.26481 5.48532 
13514 3 -0.2611 -0.832333 0.924575 
13513 1 2.98199 3.8107 0.680576 
9191 3 0.827766 1.9072 -1.58441 
18186 1 2.98852 1.74357 -2.3384 
9192 1 0.155151 3.5995 -1.30008 
18184 1 -2.04764 1.61652 -1.51492 
18185 3 -0.535137 -1.07067 0.745737 
1963 1 -6.1404 4.17804 7.0774 
1964 3 -6.17113 -1.94795 0.0980242 
5009 3 -1.12588 -2.16699 1.36874 
7666 1 -0.741564 -5.3234 -2.20221 
7667 2 -2.53195 0.836926 2.01148 
7668 1 -3.62973 -0.0468101 6.59815 
5008 1 -0.473915 -5.93315 -0.210418 
14653 1 7.12458 -2.83442 6.33523 
14654 3 -0.0996256 -1.54648 -3.57424 
18543 1 -2.77254 0.111517 9.96743 
10985 2 0.541347 -3.86196 -2.59699 
10986 1 -2.14713 -1.28114 1.80449 
5914 1 -7.16017 0.286021 -0.397629 
10984 1 0.912586 -5.07264 -0.383892 
6787 1 -5.36566 1.00253 -1.13612 
18541 1 -1.17765 -1.61525 0.491857 
18542 2 0.992795 2.70806 1.24004 
13441 1 2.11633 0.20202 2.15155 
6789 1 -1.28284 -1.2726 2.77011 
6788 2 -2.62636 -0.554356 3.46241 
6189 1 -3.47395 3.32518 -0.851952 
6188 3 0.605327 -3.83873 0.129653 
6187 1 1.19239 -1.34193 -1.92648 
10035 1 -8.91023 3.93204 -10.1348 
8867 3 -1.11086 -1.09402 -0.420686 
8868 1 -3.80542 0.00333771 4.13905 
6882 1 2.79011 -1.1269 1.56202 
20299 1 -0.217398 0.348503 6.27304 
1378 1 7.62326 2.39331 2.26109 
10033 1 5.15478 -0.274767 -0.170373 
10034 3 -2.70696 -1.86523 -2.46345 
18873 1 -0.385179 -5.17154 -4.80971 
20301 1 -1.81361 -2.18959 -0.812813 
20300 3 1.97646 0.813011 -1.96532 
18871 1 -5.32429 -0.360174 6.40417 
18872 3 -0.401912 -3.15239 2.41041 
16380 1 -3.61287 -1.79128 -1.69542 
21274 1 0.633062 2.40829 1.36963 
1341 1 1.84572 3.16304 -2.92176 
1340 2 2.53542 3.90489 -1.71921 
1339 1 3.31301 0.890736 3.91303 
15784 1 1.99146 -0.531773 5.87626 
15785 2 -1.22024 2.41784 2.9399 
16105 1 -3.02999 5.67336 2.47234 
16106 2 -1.20944 -1.38024 3.40835 
15786 1 2.63345 -8.04985 2.57077 
1023 1 0.16587 -2.80462 -6.22645 
1076 2 -4.18659 -3.59434 2.09749 
1075 1 2.22502 4.26936 0.794756 
1077 1 6.74886 8.05749 -4.49401 
4904 2 -0.198423 0.936281 0.808045 
4903 1 3.60998 2.95206 -8.79962 
6621 1 0.569334 4.553 0.498035 
6620 2 1.12037 -5.08309 -0.89584 
6619 1 -2.79543 0.21452 6.748 
14037 1 -5.40522 5.565 -2.88635 
20350 1 -7.10418 4.69204 2.32375 
12205 1 -0.904454 -5.19494 -1.96238 
12206 3 2.27158 -2.83336 -1.57359 
12207 1 3.33441 1.1705 2.49404 
14401 1 -3.63653 -2.55358 -1.31584 
14403 1 1.90554 6.76805 -4.60485 
14402 3 -1.68678 0.391123 -2.66756 
9190 1 -3.54433 1.45336 -3.0677 
17931 1 -0.00550956 -3.89808 -4.29127 
17930 3 0.820803 2.05006 3.47513 
17929 1 0.103323 -2.11119 3.63731 
15874 1 1.17758 1.88166 -2.79769 
15875 3 -2.65407 0.431987 -0.925439 
15876 1 -0.513343 -1.27235 0.140734 
7032 1 3.42696 -2.48349 -0.197528 
1965 1 -7.12128 -2.3772 -1.84174 
9713 3 0.641278 1.44219 -1.72611 
9712 1 -1.49792 3.25821 -2.3331 
18213 1 -0.454492 1.4306 -1.85332 
9714 1 -4.28433 0.435029 -5.70341 
18212 2 2.80961 1.99323 -0.417235 
21345 1 -3.33931 -1.45872 -1.34177 
5773 1 -1.68904 0.517502 6.98268 
5775 1 2.28574 -4.13965 -5.80109 
5774 2 1.17708 -2.26412 -1.17708 
4305 1 -1.36504 2.26077 -0.0224778 
4304 3 -3.40081 -1.59802 2.128 
7031 2 4.55355 -0.468453 -0.55678 
4303 1 -0.882762 -0.920762 4.2581 
7030 1 3.31216 5.34148 0.101697 
12447 1 0.334016 -8.82719 1.16908 
12446 3 -0.817369 2.96029 -3.23558 
12445 1 -3.3259 3.89694 7.17535 
21342 1 -2.71325 -4.62651 0.392422 
21340 1 5.86177 -0.868075 -3.81527 
21341 3 -0.749024 -1.40501 -2.26455 
14896 1 -3.38335 -1.88236 -8.15733 
14898 1 2.85799 -3.76753 -2.5334 
14897 2 0.0606721 -2.94615 -0.639644 
21136 1 4.32614 -5.34696 0.513313 
21137 3 -0.114599 -0.426354 -0.406109 
21138 1 1.54676 -4.07475 2.42361 
14655 1 -1.26983 -2.70836 5.31763 
17830 1 -2.20302 -0.167415 -2.54757 
17831 3 -1.79119 3.10312 -3.01783 
17832 1 -3.02708 -2.90041 3.49142 
17331 1 4.1332 -2.16625 2.8479 
13442 3 -0.58919 4.2424 1.11129 
13443 1 -0.774532 0.176005 0.0210905 
6880 1 -0.42764 6.85097 0.307558 
6881 3 4.03828 3.07949 1.20609 
3453 1 -3.31828 -3.53241 -8.22764 
3451 1 -0.717603 -1.93539 9.44478 
3452 3 0.917443 3.76816 1.69105 
1379 3 0.56124 0.356977 -1.09025 
1380 1 8.12154 -4.35039 4.90918 
16345 1 2.33217 -4.31999 -1.14417 
16346 3 -3.9377 -1.2255 -3.5815 
16347 1 1.27526 -0.771756 -0.0114502 
11709 1 1.14864 2.01425 -3.5478 
11708 2 -1.19034 -2.48712 0.658585 
6460 1 1.25458 -5.99208 -3.29628 
4404 1 -2.49615 3.45109 -2.92923 
4403 2 -0.146808 -0.0967271 -3.1241 
4402 1 1.06911 1.70501 -2.87667 
985 1 3.33416 -1.59566 -5.78102 
986 2 0.492417 -0.891009 -0.339588 
16379 2 0.025675 0.155985 2.35153 
16378 1 0.79323 3.70363 0.807721 
1022 2 1.76927 1.75656 -3.32382 
1021 1 -8.09594 -4.06257 1.01598 
10798 1 -7.63257 -3.27074 3.44806 
10799 2 -3.45774 -0.318946 0.94113 
11659 1 -3.02626 -3.69227 2.61776 
5853 1 0.652906 0.538522 0.755081 
20257 1 0.135755 -4.04474 -2.97507 
11298 1 -3.53513 -2.44218 -0.763343 
8809 1 -5.52022 1.50243 -4.2412 
18877 1 2.08934 2.43532 1.68486 
14591 2 -0.48431 -4.62296 4.28544 
14590 1 -1.22156 2.17857 0.718363 
14592 1 1.90955 1.69633 -2.62509 
18878 3 2.29456 0.929511 -5.49268 
18879 1 -2.19029 2.41618 -3.55607 
14035 1 0.849763 -6.36624 2.9934 
14036 3 -2.32958 -0.104016 3.82209 
16425 1 1.88 2.9274 -0.377051 
6794 2 -2.22731 2.10652 -0.764346 
21344 3 1.63227 0.151095 0.774425 
6793 1 2.18987 -1.18807 -5.12746 
21343 1 1.63249 6.81397 -2.17747 
6795 1 -2.97058 -4.60369 0.752581 
9217 1 0.438169 0.741381 -4.8622 
9219 1 -3.02952 4.18508 1.74828 
9218 2 -3.52829 -6.94011 3.36939 
11296 1 -1.03879 2.8835 0.67377 
11297 2 -5.71362 0.374239 -0.56393 
11127 1 2.40264 11.3934 -0.298178 
11126 3 5.17533 0.654347 0.0679763 
11125 1 3.82017 -10.8896 -2.15163 
18739 1 2.9584 -2.83565 -0.816952 
13635 1 -4.50658 6.95098 -5.83453 
13634 3 2.90159 -4.14408 2.36786 
13633 1 -2.57802 4.15084 -0.472985 
16413 1 -2.93098 0.163105 -4.80937 
17329 1 -0.607352 -2.62015 -4.95328 
17330 3 -2.884 -2.24518 0.0629975 
16412 2 2.15597 3.46627 1.75306 
6347 3 -5.86935 3.83339 -3.80535 
6348 1 1.98031 0.664911 -2.44503 
6346 1 3.20689 -3.28781 2.86031 
9183 1 -0.953781 2.56391 -2.93464 
12096 1 -2.04772 -2.17159 0.143393 
12095 2 -0.324106 0.49408 2.74051 
12094 1 2.95902 5.03593 1.8559 
15810 1 -2.8151 -4.68696 1.35183 
15808 1 1.7438 2.60414 5.83052 
15809 2 -2.62374 -4.54334 1.16261 
10800 1 2.57719 -0.260604 -1.16387 
11660 2 3.42572 -2.41091 0.299008 
11661 1 -1.27191 0.320297 -2.90651 
751 1 -3.478 0.837807 -0.0444441 
752 2 -0.654326 -1.13123 2.41375 
16021 1 -0.973946 -1.40862 -1.79542 
5852 2 0.930666 2.93537 0.0394568 
5851 1 -1.68379 2.05609 1.83904 
13018 1 2.46651 1.6245 -1.22664 
20258 2 -5.06647 -1.42118 2.45532 
13019 2 -3.46019 2.43882 0.500789 
13020 1 -0.657377 -2.73304 -4.54551 
20259 1 -2.47878 -2.51885 -2.98126 
15598 1 3.49966 2.20851 -4.57235 
8811 1 -0.462775 4.64995 -3.0029 
8810 2 0.796113 -1.86085 -2.40589 
11499 1 -0.0925977 -0.174837 0.875194 
15600 1 -1.5511 -5.85009 2.66893 
15599 3 -0.730536 1.16908 1.02687 
17536 1 5.24982 0.399545 -0.244073 
4379 2 -2.44907 -4.14373 3.15009 
4380 1 7.13732 3.12826 1.48611 
17538 1 2.93531 3.71943 -2.25475 
17537 2 -1.50201 -0.194967 -0.0310078 
16424 2 1.27293 -1.27744 -3.25624 
1069 1 0.343713 1.8739 -2.70549 
16423 1 -2.35019 -0.429554 -3.74894 
18741 1 0.297737 -3.04247 -3.46428 
18740 3 -0.200613 0.422908 0.775158 
9643 1 3.85923 -1.67321 -0.146942 
9644 3 -2.90352 3.99377 0.81383 
9645 1 -2.67411 6.45635 -3.68535 
1070 3 0.904162 2.96531 0.227648 
1071 1 2.23356 -12.2236 -2.31244 
5293 1 -2.34187 5.54864 -2.29887 
6238 1 2.85588 -2.27691 1.68902 
6240 1 -6.74503 1.10155 -4.0128 
6239 3 -1.91248 -6.76058 2.709 
14473 1 0.351495 -1.09717 2.72684 
1854 1 -1.09021 1.97592 -0.0896295 
1853 2 0.912274 -1.63046 1.56103 
1852 1 -0.376941 -3.86454 2.34323 
17232 1 1.82107 8.77491 0.595415 
15796 1 -3.41138 0.434897 -0.735469 
15798 1 -3.3384 1.59273 0.374731 
15797 2 -0.547123 -2.0335 -2.10733 
16411 1 0.499266 -0.692783 -1.63049 
7039 1 -4.53761 -3.35229 1.5547 
7040 3 -2.01938 -2.86913 -0.644521 
17231 2 0.943412 3.11007 -1.54664 
1523 2 0.623083 -4.39722 4.27592 
1522 1 -2.59432 -0.313908 -1.35129 
9357 1 6.40041 5.49473 -1.76675 
1524 1 -3.43416 2.86712 3.51009 
4564 1 2.19391 -0.290903 -6.44771 
4565 2 -2.45683 -0.640308 0.376499 
4566 1 3.28912 7.18611 -9.63445 
17230 1 2.58258 -2.47406 -0.681574 
6281 2 0.642962 1.32026 -1.96209 
6282 1 4.04294 1.96088 0.996242 
9182 2 2.71614 3.16078 -0.773265 
9181 1 3.95057 -0.058759 6.72194 
6280 1 1.28943 4.79474 10.2751 
9356 2 3.80196 -2.42077 0.0539935 
9355 1 -3.39003 3.4111 -3.61028 
16605 1 -0.136991 -0.410151 -4.534 
10080 1 4.05551 0.483352 1.61086 
10513 1 4.9577 -1.33626 1.31694 
10514 2 -0.787753 -1.50968 5.53109 
18512 2 -1.57534 -0.00835638 0.532808 
18511 1 -4.45668 -1.53424 -5.18652 
18513 1 7.53861 2.14229 3.88852 
10079 2 -1.41347 1.27548 1.37195 
10078 1 -2.26596 0.0457848 -0.197531 
11497 1 -3.00506 -1.98835 2.7465 
11498 2 2.84506 -1.02695 -2.13131 
4779 1 1.37098 0.517108 1.84897 
4778 2 1.47151 -0.767598 -0.588326 
4777 1 0.668122 3.26323 7.76264 
3019 1 1.52338 3.34036 1.53187 
1607 3 -0.936125 2.58337 3.04654 
1606 1 0.596215 -1.22235 -2.61297 
1608 1 3.5008 2.75793 4.66202 
6911 3 -1.1588 2.70176 -0.828785 
16100 2 0.0646422 -5.16796 -2.60347 
6912 1 -0.097998 -5.97693 -1.94784 
15174 1 0.925069 4.02309 1.11302 
1817 3 -0.48237 -1.17926 -1.36131 
16101 1 1.91863 4.74692 -0.81691 
1816 1 -0.78545 1.50581 1.73177 
15173 3 -1.6121 -1.32493 -1.09085 
63 1 -1.62161 0.466058 5.33841 
62 3 -2.88668 0.455997 -0.54374 
61 1 1.6319 2.15353 1.54754 
19446 1 -1.8166 -4.2029 0.124904 
19445 3 -2.25221 -0.377087 -0.800622 
13415 3 1.27037 2.78736 -4.00403 
13416 1 -1.3946 0.693539 -4.694 
11402 2 2.75601 -2.1623 -0.279091 
11401 1 -2.53079 -1.0884 -7.14422 
11403 1 -3.57162 -0.428871 -2.90631 
12098 2 0.310498 1.79477 3.39012 
12097 1 -0.424514 2.93611 4.48708 
5294 3 0.785155 2.56231 -3.44416 
5295 1 -7.77925 3.0182 -1.07161 
9361 1 -1.57125 3.86827 2.23283 
15172 1 -4.61439 0.760673 -4.02488 
13837 1 -4.43939 -6.75665 -2.05207 
13414 1 2.76954 4.64635 -3.8535 
6036 1 -2.11807 -2.08287 -3.00103 
6035 2 1.16452 2.52791 1.46295 
2400 1 1.26788 -1.42173 2.40907 
6034 1 -8.66761 9.18157 -2.76949 
2399 2 1.78922 0.253801 -1.66472 
19421 2 -0.663371 2.73161 -0.898618 
19422 1 -2.91042 3.33682 -1.19887 
19420 1 -8.73569 -1.63986 -2.61469 
7087 1 5.25072 3.44667 1.00916 
19594 1 -1.24403 -4.35572 -0.370298 
19595 3 -1.72661 5.95035 -2.66739 
19596 1 -1.17449 -1.91116 4.76186 
7089 1 1.4629 1.28177 1.43017 
7088 3 -3.16454 -1.17123 1.65784 
7041 1 -6.75774 -0.841696 1.3844 
21034 1 4.01431 -2.41885 3.20758 
21035 2 -1.95369 -1.60715 0.694564 
21036 1 -2.52532 5.49392 1.86325 
3762 1 -1.97193 1.94913 -2.13278 
4787 2 -1.27279 1.943 2.32204 
4788 1 0.239616 -5.20183 3.60846 
16604 2 -1.22365 1.95567 -1.41214 
16603 1 4.01747 -0.753436 0.201369 
4786 1 2.51023 -3.33404 -4.89354 
3760 1 4.5836 3.38627 0.443615 
3761 3 -0.403894 -3.34797 3.07295 
16077 1 -2.49109 1.74649 5.50976 
13806 1 0.777817 -0.352033 -0.539101 
13804 1 -2.31458 -5.82252 4.12454 
13805 2 -2.71049 0.655088 -0.666519 
16076 3 -3.26574 0.292167 1.06442 
3654 1 -5.43873 -2.84435 1.11014 
3653 3 -2.4007 -2.11356 0.782043 
3652 1 -2.77336 -5.93666 0.292688 
12817 1 0.174141 1.0594 -0.0605088 
12818 3 -2.29314 3.26236 3.16088 
15972 1 3.3204 -1.01281 -4.91697 
12819 1 5.1565 -0.742241 1.90958 
10515 1 0.451985 0.178558 -6.74046 
10789 1 -0.473675 1.20567 3.13743 
10790 2 -3.42112 -4.39576 -4.78513 
10791 1 0.202883 -3.59549 4.24957 
4695 1 1.09562 -2.24471 2.64453 
4693 1 2.28699 -0.367144 -3.43109 
4694 3 -0.376614 -1.65805 2.8617 
3330 1 5.49305 -5.50873 0.580721 
1818 1 -5.14787 -3.02745 6.88872 
10092 1 -2.3747 -4.78201 -0.814464 
12099 1 1.397 1.502 0.441267 
9362 3 -0.0503914 -0.225887 1.91678 
9363 1 -0.425428 3.75569 -1.32633 
20730 1 -4.04624 -0.456796 3.28652 
20729 3 -1.21945 4.81933 -3.52204 
20728 1 -1.08659 -0.249327 4.03641 
17877 1 -1.52946 1.34734 3.20677 
17876 2 1.19292 4.94636 2.34787 
17875 1 4.29392 -2.81782 -1.36262 
13839 1 -2.53334 2.07971 -0.555545 
13838 3 1.0951 -2.42795 -2.83844 
2398 1 2.48112 -2.99363 2.97485 
14409 1 5.32853 -6.90998 -5.70084 
8325 1 1.19671 3.60402 1.04417 
7345 1 0.00034127 -2.37382 1.85256 
8324 3 -0.00874606 -3.60949 1.47144 
8323 1 0.208397 3.03707 -3.19147 
7346 3 0.550272 -4.90066 2.70095 
21089 3 2.56126 -3.81518 -1.54 
21088 1 -5.19516 -0.0668979 -2.36306 
21090 1 2.87101 -0.853408 -0.568889 
12042 1 -0.274273 -3.30496 -0.808741 
12041 2 0.708886 0.411135 -3.21982 
12040 1 1.93579 -0.701122 6.71914 
15970 1 8.99642 1.45446 0.498419 
15971 3 1.94035 3.85881 2.9847 
17635 1 -0.505492 2.94224 4.41199 
17636 3 2.28812 -2.22436 -1.34286 
17637 1 -3.23584 3.84425 3.2225 
17056 1 1.45968 4.4298 -1.13238 
15858 1 4.68713 2.21756 -4.69592 
15857 2 1.07078 -3.67385 -1.67682 
15856 1 -0.0850139 0.146052 1.80161 
4560 1 -4.5448 7.82621 0.724413 
3328 1 -2.50124 -2.01166 1.17942 
4559 3 2.06831 -0.316906 3.41181 
4558 1 0.697091 -8.17759 -3.16514 
3329 3 2.01731 1.01274 -2.22704 
18847 1 0.794362 -2.75969 -0.564366 
18848 2 0.460651 -0.318864 -3.96461 
18849 1 -0.525273 1.28338 2.00573 
10870 1 0.443145 0.430013 0.234749 
10871 3 0.321062 -2.95276 -0.65513 
10872 1 0.0640127 -4.84209 -2.98261 
17057 3 0.549712 1.38738 -1.74594 
12082 1 7.30277 -3.62738 1.83638 
18624 1 -6.86801 1.8121 -2.47472 
12741 1 1.13265 0.87049 1.28305 
12740 3 -0.324458 -2.82159 2.00853 
12084 1 8.56622 2.9906 -2.23973 
12739 1 6.16729 1.65177 -3.26977 
12083 2 0.139994 4.20131 2.85813 
11321 3 1.07672 0.449068 -1.5961 
11320 1 1.55318 1.42281 0.265133 
18622 1 4.2739 -1.23184 0.634936 
18623 3 1.84007 -2.44773 -4.21596 
14407 1 5.16724 -1.44014 0.823097 
20368 1 -7.12787 -2.2987 -1.75618 
14408 3 0.948483 -0.35732 1.56377 
20369 3 0.473637 -1.40034 -0.430113 
20370 1 -0.414731 -4.22572 6.2156 
7388 2 -3.83984 -4.34637 0.247008 
7387 1 6.06069 -3.7739 7.02383 
13653 1 5.96035 3.09177 -5.17804 
8154 1 -4.72676 0.375884 -3.77281 
8153 2 2.71887 2.86147 -1.28541 
14715 1 -0.167659 1.19568 0.885582 
21506 2 0.342015 -0.187229 1.97523 
21505 1 0.560265 -2.8827 1.99296 
8152 1 -3.86478 5.05011 -4.99176 
21507 1 6.71203 1.73168 -0.734722 
17689 1 -2.32651 5.67922 -3.6368 
9805 1 4.67527 -4.03624 0.845923 
7347 1 1.89843 4.45508 -1.52154 
9806 3 2.32061 0.893417 -0.235298 
9807 1 1.68427 3.45026 -3.34226 
7389 1 5.38445 -3.87712 -0.668024 
9649 1 -0.760982 0.687434 -2.11678 
9650 2 0.108943 6.14495 -1.89959 
9651 1 -5.72783 -0.621656 -6.57044 
4845 1 3.0596 -1.47532 1.05351 
4844 2 1.50249 -0.277438 0.65384 
4843 1 1.4045 0.871066 -2.53205 
18438 1 3.99155 -2.43815 -6.55719 
4444 1 0.716812 4.97091 -1.11108 
567 1 2.75985 2.11312 2.1208 
565 1 -2.48013 3.81877 -5.03964 
566 2 -1.88606 -0.157988 -0.558534 
2462 3 3.51167 0.420887 3.18683 
2463 1 0.98775 3.24675 3.13584 
2461 1 2.57124 -0.167512 6.74653 
9534 1 -3.19769 3.70698 -0.0278408 
9533 3 -0.597426 -1.30081 -0.784263 
9532 1 0.952622 5.04334 -2.8712 
1934 3 0.184006 -2.53266 2.24668 
18436 1 5.50682 -0.990231 6.12906 
1933 1 -5.23874 2.59659 0.536376 
1935 1 -2.14172 -0.910693 -4.00837 
18437 3 -0.498828 0.174221 0.112866 
16532 2 -0.143131 1.63517 -2.60717 
16531 1 2.22027 6.27603 -5.0875 
2720 2 0.412865 -0.96537 -0.324006 
2719 1 0.472649 -1.9992 1.09821 
17058 1 0.447742 1.05719 2.73406 
4706 2 -1.03397 3.26722 -2.42066 
4705 1 -4.00012 -5.06685 0.758184 
4707 1 3.13056 -1.58511 -6.75859 
15454 1 -4.18316 0.564057 -2.65362 
15455 2 1.86948 5.66357 0.8031 
15456 1 1.6986 -1.10249 -0.28657 
14729 2 0.697268 0.130542 1.25148 
14728 1 1.61609 1.96719 2.4082 
14240 3 -0.538164 -1.71134 0.295557 
14239 1 1.17564 -4.51811 2.31689 
11322 1 -3.38709 -1.72465 -4.84773 
13351 1 2.38548 3.33184 -4.18983 
13352 2 -0.10618 2.25386 2.65308 
13652 2 1.32581 -0.877298 2.73104 
18589 1 3.78983 4.07206 2.60547 
13651 1 -0.105315 -4.60174 -2.59652 
14730 1 -0.614612 0.356209 1.56546 
18590 2 -0.989283 5.66214 0.760229 
18591 1 -4.35434 -4.08658 -3.27281 
14241 1 -3.17502 -5.22786 -1.69759 
19023 1 -4.02482 -1.12339 3.23447 
5249 3 4.26331 1.03839 4.82154 
5250 1 7.34172 -0.729068 0.169806 
743 3 0.461681 -2.03536 -2.76366 
742 1 1.50624 -0.521399 -2.06359 
744 1 -0.256126 -3.96935 0.998749 
17136 1 -4.00988 -0.672 -3.1088 
17135 3 -0.585414 -0.0893304 0.0389443 
14714 3 -6.09315 -0.693714 -1.26215 
14713 1 -1.58231 -2.94093 5.7198 
17690 3 2.2219 2.32132 -3.78395 
15129 1 2.02763 -0.780543 1.18008 
15127 1 2.95964 -0.580199 -0.666205 
5248 1 -7.81696 0.784966 1.47858 
15128 3 3.35862 1.59458 0.339309 
17691 1 -0.654618 2.80186 -0.683072 
4446 1 1.62547 0.500537 4.32993 
4445 3 3.65978 -2.72572 -6.81424 
20214 1 3.84248 5.57425 -0.039211 
20212 1 2.59488 7.36082 -2.75128 
10236 1 3.03515 -0.194975 -2.95784 
20213 3 -2.12851 3.30847 -1.79455 
10235 3 3.81264 1.01005 -6.1816 
10234 1 -1.09714 1.25494 3.19191 
10749 1 -0.771701 -2.56184 3.4318 
10747 1 -7.22051 1.3581 -1.81215 
10748 2 -0.343663 -2.06709 3.05815 
11493 1 4.94623 -3.5816 5.21303 
16184 3 2.11313 -2.04722 -0.34094 
2721 1 2.2222 -3.41929 4.48005 
16183 1 5.52279 2.16309 -4.65084 
16185 1 -0.440631 -0.0689484 -0.247228 
7712 2 -0.732398 -5.36015 -4.42969 
7711 1 -5.58619 3.66597 1.7521 
7713 1 6.66074 1.49703 3.51852 
18269 3 2.58818 0.251503 0.330508 
18268 1 1.98932 -1.02718 9.4141 
9430 1 2.70769 -1.26958 4.16342 
8165 3 -1.01805 -1.39249 -2.6938 
8164 1 -0.653957 -4.05797 -0.558366 
8166 1 -7.45546 9.2917 2.14024 
17134 1 3.32165 5.47462 -1.63359 
2319 1 -6.50197 5.75391 -3.82287 
2318 3 -0.629125 4.17835 0.159092 
2317 1 3.80992 -3.54992 -1.12408 
3495 1 -4.8833 -2.95657 -1.32733 
3494 3 -0.534835 -3.56131 1.61984 
3036 1 -2.66017 1.52722 4.18666 
13353 1 -5.88744 -2.25075 1.00309 
3034 1 -3.49721 0.14001 7.49851 
3035 2 1.87616 -0.535808 -0.383813 
18270 1 0.112893 0.149464 -2.56269 
19022 3 1.56862 2.90225 0.378019 
19021 1 0.824195 -3.06806 1.27222 
7624 1 -2.07391 -1.91443 -1.87443 
7625 3 2.44618 0.956233 0.209467 
7626 1 -3.60343 3.85274 1.27733 
19068 1 -3.36466 -2.90494 -5.03992 
19067 3 -0.220408 0.876357 2.19694 
9431 3 1.75125 1.92191 -0.23555 
11236 1 -3.06906 -0.518683 -1.77989 
9432 1 4.50994 -11.1726 1.18171 
11238 1 1.46462 2.27801 11.1001 
11237 3 -0.69247 0.391663 -4.27696 
7052 2 0.853085 -0.724869 -2.50022 
7051 1 -2.778 2.55288 -3.43893 
7053 1 0.58052 -3.61951 -1.72733 
19549 1 0.10621 -6.64043 2.93827 
19550 2 2.88435 -2.08137 -1.03403 
12756 1 1.09712 9.14148 -3.4076 
12754 1 0.943258 0.86583 -2.06132 
12912 1 0.304983 -0.228888 0.0996396 
12755 3 -2.06948 2.1112 -2.35417 
12911 2 -1.6747 -1.18218 4.66782 
19551 1 -3.45583 -4.78259 -1.45479 
12910 1 4.06261 3.49995 -1.63156 
1753 1 -5.84243 -1.0422 -1.97638 
1754 2 -0.346177 -1.51071 -0.528948 
11492 3 2.85331 -2.95744 -0.148276 
11491 1 -4.62139 1.17507 -0.44471 
1755 1 3.43176 -2.54152 4.03962 
13239 1 4.44148 -1.95025 -4.08308 
13238 2 4.79304 2.72769 1.26341 
17805 1 -0.362297 2.92531 -0.254051 
21364 1 -0.662188 -1.74372 -1.87701 
13237 1 5.94822 -0.433538 2.34054 
21042 1 -4.39689 -3.11172 -8.14011 
21041 3 -1.48635 -1.7398 1.24804 
3332 3 -1.50201 -1.77464 -1.45151 
3333 1 -1.83288 4.55889 -4.84016 
13683 1 2.91807 0.0613743 2.16077 
13682 3 -0.804537 -0.506648 -2.76027 
18537 1 0.255102 -0.128981 2.59384 
1442 2 2.26792 -0.695078 -0.710778 
1443 1 1.99919 -0.984026 3.22507 
3075 1 -2.80255 -0.173995 -4.90695 
3074 3 -3.68733 -0.334598 1.05155 
3073 1 2.52537 -1.6188 0.0792799 
9368 2 -4.20589 -0.905689 1.82942 
9369 1 0.608954 1.81305 -4.67614 
9367 1 -5.24612 -4.39177 9.24372 
1441 1 -0.876784 4.96601 6.43368 
19066 1 -3.62067 -8.37945 -5.55333 
1019 2 -2.00694 -3.4097 -1.99678 
1020 1 -3.87414 -0.27214 -1.04692 
1018 1 0.922483 3.59774 -1.31788 
11619 1 0.854103 -0.569043 0.275654 
11617 1 -5.45074 -0.517056 -0.961065 
11618 3 5.29261 -0.625322 1.57614 
13083 1 1.8393 -2.67827 2.53303 
13082 2 -1.44368 -1.662 -1.4489 
13081 1 -6.15186 0.381474 0.212872 
5926 1 2.4145 2.69822 1.82183 
5927 3 -1.3296 2.85601 1.96475 
5928 1 0.574173 -3.39837 -3.14886 
19947 1 -3.76629 -4.23395 -3.1857 
19946 3 4.79231 -1.53207 -2.9885 
19945 1 3.76014 1.28404 -0.584138 
20377 1 7.82384 7.47078 -0.206169 
11312 3 -4.3985 -1.89038 -2.1891 
11313 1 1.09853 -1.35451 -3.10178 
17079 1 2.33417 1.44937 5.96388 
17804 2 -1.79017 1.19981 -0.86605 
3511 1 0.22245 2.38476 1.61128 
3512 2 2.8959 -6.60856 -4.7385 
9851 3 -0.977648 1.43566 0.0643374 
9850 1 -2.77438 -6.18458 -2.21362 
13681 1 1.93779 2.49201 5.79697 
17803 1 -5.14283 5.17539 -0.482685 
16925 2 -1.28539 -0.268876 -0.457547 
16924 1 -3.5693 -2.19488 -1.3509 
1528 1 -1.64119 -2.90997 -4.73918 
1529 2 0.816384 -0.85864 4.50434 
1530 1 3.66954 -1.06111 5.59617 
16995 1 1.179 -1.72325 -1.75494 
15277 1 -1.8242 7.82235 1.43577 
15278 2 1.57676 -0.995437 -0.116748 
16994 2 -3.69381 0.691978 -2.29275 
16993 1 -0.0831336 0.338471 3.01295 
8502 1 -0.863343 4.80843 -3.7256 
8500 1 1.6143 -1.91852 -0.171323 
8501 2 3.05111 -3.13875 0.369143 
8252 3 -1.53919 -2.82695 -3.40976 
8251 1 1.1056 2.45403 -3.41614 
8253 1 -2.48981 -1.77472 -1.02255 
9285 1 -0.576979 3.84095 1.33739 
7836 1 5.06451 0.723827 -4.5936 
7835 3 -0.470029 1.8982 -1.02381 
7834 1 -1.62353 2.665 -1.17543 
16926 1 -6.75301 0.615463 5.09836 
15279 1 -1.52565 5.47387 -0.639053 
4987 1 -0.768703 1.64499 4.63918 
4988 2 -0.0685773 -2.22333 -2.06771 
4989 1 0.468396 2.52767 -3.66354 
4324 1 2.28876 0.326677 8.73181 
19451 3 3.89413 -5.68554 0.718774 
19452 1 2.43836 -3.78835 -0.401614 
2554 1 -1.06331 -2.53181 -0.889001 
2556 1 -5.8304 1.62705 -7.22636 
2555 3 -0.940205 2.02413 -3.07767 
5560 1 -3.47652 -0.690807 3.81557 
5561 3 -2.11853 -2.97908 3.15412 
3690 1 -4.42539 -0.801426 -3.19 
5562 1 8.38892 -4.14029 -1.17879 
3689 3 1.04433 2.62634 4.00637 
3688 1 -0.898655 -0.48356 3.30547 
18145 1 -5.42814 1.40347 0.226926 
18146 3 -0.124267 1.83204 0.0509358 
18147 1 -2.34498 -11.1852 0.425126 
11662 1 0.374409 7.03703 2.80104 
20613 1 2.02905 3.50198 5.8523 
20612 2 -0.8855 1.03292 1.49331 
13485 1 -0.183681 -1.63789 -4.26506 
13484 3 -0.486218 -3.03469 -1.12782 
13483 1 3.11406 -3.12494 -5.93065 
10891 1 0.356682 -1.90047 -1.20698 
14658 1 0.326838 -2.37857 0.0690331 
21427 1 7.99623 3.42997 1.26119 
21428 3 1.48494 0.271221 2.29804 
11311 1 0.0159696 2.18952 4.62345 
15683 2 -0.33398 -4.47157 3.27839 
15684 1 1.13574 0.160439 -1.41378 
16446 1 -3.12699 4.45792 -0.83108 
4064 2 -0.812905 0.903929 1.22124 
4065 1 0.266159 8.05477 -3.25212 
4063 1 1.01782 -0.85995 3.4155 
16444 1 -2.1671 -1.05338 4.47471 
16445 2 -0.995331 -2.52063 3.44674 
3801 1 1.80026 1.45201 -2.09461 
17374 1 4.98881 -1.52491 -2.20951 