ITEM: TIMESTEP
0
ITEM: NUMBER OF ATOMS
63
ITEM: BOX BOUNDS pp pp pp
0.0000000000000000e+00 5.0000000000000000e+01
0.0000000000000000e+00 5.0000000000000000e+01
0.0000000000000000e+00 5.0000000000000000e+01
ITEM: ATOMS id type 
361 1 
362 3 
363 1 
94 1 
95 3 
96 1 
4798 1 
4799 3 
4800 1 
10435 1 
10436 3 
10437 1 
7621 1 
7622 3 
7623 1 
7627 1 
7628 3 
7629 1 
4219 1 
4220 2 
4221 1 
6613 1 
6614 3 
6615 1 
9928 1 
9929 3 
9930 1 
4243 1 
4244 3 
4245 1 
17464 1 
17465 3 
17466 1 
13333 1 
13334 3 
13335 1 
11365 1 
11366 2 
11367 1 
17806 1 
17807 3 
17808 1 
13741 1 
13742 3 
13743 1 
15064 1 
15065 3 
15066 1 
18007 1 
18008 3 
18009 1 
18067 1 
18068 3 
18069 1 
17002 1 
17003 3 
17004 1 
14143 1 
14144 3 
14145 1 
21586 1 
21587 3 
21588 1 
