ITEM: TIMESTEP
15000000
ITEM: NUMBER OF ATOMS
318
ITEM: BOX BOUNDS pp pp pp
0.0000000000000000e+00 5.0000000000000000e+01
0.0000000000000000e+00 5.0000000000000000e+01
0.0000000000000000e+00 5.0000000000000000e+01
ITEM: ATOMS id type xs ys zs
17343 1 0.707631 0.595338 0.219651
5503 1 0.726791 0.551552 0.248376
18256 1 0.754742 0.552355 0.24911
13092 1 0.789131 0.550634 0.244344
17192 3 0.694941 0.586166 0.239837
17191 1 0.694481 0.582629 0.246196
17253 1 0.694771 0.581095 0.248688
17193 1 0.696766 0.587701 0.231955
17341 1 0.698131 0.588537 0.229687
17342 3 0.702642 0.5921 0.225134
15365 3 0.716623 0.582485 0.243112
15366 1 0.713353 0.575855 0.241399
15364 1 0.719231 0.589702 0.245202
2751 1 0.719869 0.593045 0.24627
15849 1 0.734999 0.587414 0.249773
8371 1 0.716488 0.556669 0.252646
8372 3 0.714411 0.564001 0.256306
8664 1 0.727944 0.561501 0.275422
5504 3 0.73394 0.553338 0.251561
5505 1 0.740849 0.554038 0.254402
4389 1 0.754114 0.563908 0.279691
10977 1 0.779571 0.552368 0.278247
3538 1 0.777804 0.551799 0.276492
3539 3 0.772814 0.551711 0.270656
3540 1 0.767463 0.550365 0.265262
18258 1 0.765309 0.550382 0.262917
18257 3 0.759943 0.551906 0.256186
13091 3 0.787349 0.550275 0.252143
13090 1 0.782792 0.549718 0.259801
20032 1 0.710977 0.593732 0.263562
5600 3 0.713452 0.578919 0.268887
5599 1 0.714331 0.584382 0.274033
14530 1 0.714798 0.586509 0.27671
5601 1 0.713505 0.572246 0.263421
8373 1 0.713663 0.569959 0.261691
9667 1 0.696588 0.569095 0.28085
17252 3 0.694684 0.576941 0.254724
17251 1 0.694911 0.574366 0.26212
9668 3 0.696082 0.57039 0.27268
9669 1 0.694947 0.573381 0.264632
19776 1 0.747933 0.580817 0.274853
3420 1 0.746816 0.583293 0.274667
3419 3 0.743689 0.591618 0.272855
8662 1 0.730714 0.57305 0.263393
15847 1 0.73132 0.575118 0.260699
15848 3 0.733683 0.58173 0.255665
8663 3 0.729963 0.566933 0.269798
16360 1 0.771073 0.580867 0.280797
19774 1 0.752747 0.566628 0.278541
19775 3 0.750331 0.573509 0.276066
16361 3 0.773332 0.584056 0.274186
16362 1 0.777186 0.586917 0.267594
10423 1 0.779034 0.587811 0.265071
8904 1 0.766233 0.595639 0.271569
2807 3 0.759433 0.594348 0.256992
2806 1 0.761767 0.587007 0.257094
19992 1 0.762705 0.583787 0.257126
19991 3 0.76455 0.575853 0.258175
19990 1 0.767284 0.567104 0.259225
10424 3 0.784444 0.590463 0.258444
10425 1 0.789593 0.593918 0.252832
7650 1 0.694959 0.563172 0.298388
10393 1 0.727319 0.562933 0.306051
4387 1 0.760216 0.55222 0.2891
8883 1 0.762091 0.55076 0.291127
4388 3 0.756617 0.557963 0.28384
8882 3 0.766163 0.546934 0.296472
8881 1 0.771353 0.541051 0.298742
4770 1 0.796327 0.556889 0.30822
4769 2 0.792892 0.556802 0.3017
10975 1 0.786975 0.554858 0.290952
4768 1 0.788594 0.554951 0.293865
10976 3 0.78373 0.553329 0.283656
14532 1 0.71626 0.595429 0.288631
7648 1 0.696472 0.5686 0.283949
7649 3 0.696221 0.566392 0.291157
14531 3 0.715885 0.590548 0.282682
10395 1 0.728617 0.577493 0.302138
10394 3 0.727219 0.570715 0.304492
21551 3 0.767585 0.574775 0.288915
21550 1 0.77028 0.579269 0.28301
21552 1 0.766735 0.570835 0.296319
206 3 0.69635 0.626156 0.238732
205 1 0.694713 0.619076 0.242038
3184 1 0.694455 0.616517 0.243105
17559 1 0.679958 0.642069 0.239318
463 1 0.666569 0.657241 0.227944
120 1 0.664511 0.655263 0.229184
14877 1 0.679553 0.641747 0.236524
14876 3 0.677513 0.641061 0.229401
14875 1 0.675926 0.641408 0.221296
118 1 0.657085 0.64365 0.237292
119 3 0.659694 0.649699 0.233434
17130 1 0.708751 0.647449 0.224171
14394 1 0.707327 0.645251 0.225529
17129 3 0.713037 0.652824 0.221223
5419 1 0.700638 0.654442 0.235716
14393 3 0.704883 0.640773 0.230668
14392 1 0.701801 0.634613 0.23352
207 1 0.700332 0.632474 0.234686
14543 3 0.724417 0.638973 0.240286
14542 1 0.717781 0.635834 0.237473
18253 1 0.66583 0.667308 0.242523
465 1 0.675954 0.667692 0.218144
464 3 0.671767 0.661836 0.223704
1233 1 0.7105 0.670951 0.233059
5792 3 0.686301 0.677566 0.228248
5793 1 0.689347 0.670683 0.230826
5421 1 0.690957 0.667601 0.231556
5420 3 0.696369 0.661777 0.233907
5791 1 0.684582 0.68553 0.22594
17128 1 0.717487 0.659172 0.217621
1232 3 0.715887 0.667634 0.238716
21112 1 0.651575 0.615218 0.261509
21113 3 0.660576 0.616564 0.263482
21114 1 0.668486 0.615689 0.262136
20911 1 0.671324 0.615646 0.261455
20912 3 0.679616 0.616433 0.258574
17511 1 0.679512 0.605896 0.270101
20033 3 0.705037 0.596823 0.259675
17497 1 0.701238 0.622514 0.260813
6738 1 0.70132 0.62492 0.25959
17498 3 0.701379 0.616498 0.264697
17499 1 0.700348 0.610255 0.26918
20913 1 0.68724 0.618146 0.25761
20034 1 0.699064 0.601737 0.256604
3185 3 0.693486 0.608789 0.245608
3186 1 0.691385 0.600761 0.247872
13232 3 0.722835 0.621101 0.261819
15711 1 0.727477 0.61114 0.263997
13231 1 0.726329 0.61371 0.263274
15710 3 0.730991 0.604348 0.266433
15709 1 0.736534 0.598867 0.269167
3418 1 0.738847 0.597202 0.270284
2750 3 0.723157 0.600143 0.248621
2749 1 0.725987 0.607538 0.248814
4148 3 0.682456 0.648537 0.265371
4147 1 0.680786 0.645295 0.258079
17557 1 0.680437 0.644049 0.255485
17558 3 0.679504 0.642538 0.247047
4149 1 0.6838 0.652427 0.271001
140 3 0.712672 0.657522 0.270499
141 1 0.71197 0.649937 0.271993
7339 1 0.710547 0.647181 0.273044
6072 1 0.705188 0.656184 0.247515
6071 3 0.704097 0.648739 0.250518
6070 1 0.703121 0.640761 0.253298
6736 1 0.702585 0.638757 0.254261
6737 3 0.701398 0.63175 0.257166
14859 1 0.733711 0.65708 0.261073
14858 3 0.735404 0.653898 0.268838
15319 1 0.718493 0.646909 0.25986
15320 3 0.720871 0.639031 0.261924
13233 1 0.72164 0.628443 0.262785
15321 1 0.721662 0.631727 0.262861
5393 3 0.741806 0.643616 0.250231
5392 1 0.734638 0.641964 0.246018
14544 1 0.731789 0.641514 0.244824
18255 1 0.678012 0.671177 0.250366
2178 1 0.680555 0.67224 0.251356
18254 3 0.672076 0.669581 0.246769
14962 1 0.698228 0.680028 0.272829
2176 1 0.696052 0.675308 0.254993
2177 3 0.687413 0.674601 0.253373
679 1 0.71803 0.684219 0.263134
11673 1 0.71786 0.680807 0.264823
11672 3 0.718004 0.673419 0.26667
14449 1 0.732739 0.658249 0.258717
139 1 0.71578 0.66403 0.268934
11671 1 0.716492 0.666639 0.26819
14450 3 0.728317 0.661855 0.251786
14451 1 0.722922 0.664795 0.246201
1231 1 0.720904 0.66548 0.244498
3883 1 0.70442 0.695057 0.255774
3884 3 0.697679 0.69703 0.259473
3885 1 0.692016 0.700292 0.264098
681 1 0.721817 0.695523 0.253013
680 3 0.719693 0.690065 0.258151
20328 1 0.651041 0.615297 0.281377
20327 2 0.64554 0.609941 0.278815
20326 1 0.640573 0.604079 0.274159
12536 3 0.659665 0.622302 0.283664
1120 1 0.68144 0.610317 0.301251
1122 1 0.665725 0.607879 0.303406
1121 3 0.673367 0.609323 0.302003
12537 1 0.653519 0.617011 0.282199
17509 1 0.682271 0.603914 0.285908
17510 3 0.679231 0.605074 0.278787
13765 1 0.69012 0.623807 0.283838
10326 1 0.712717 0.614525 0.281485
10325 3 0.707083 0.614191 0.285978
10324 1 0.70068 0.614852 0.290358
18493 1 0.698008 0.614976 0.292122
18494 3 0.691355 0.613591 0.297066
18495 1 0.684229 0.611035 0.300493
15124 1 0.743053 0.621033 0.303737
21412 1 0.720574 0.602486 0.2995
21413 3 0.727655 0.599639 0.297047
14772 1 0.738127 0.597312 0.296421
21414 1 0.735262 0.597662 0.296406
16267 1 0.717991 0.603444 0.300799
7899 1 0.667039 0.630572 0.284774
7897 1 0.679219 0.639555 0.281156
7898 3 0.673375 0.635438 0.283342
12535 1 0.664926 0.628168 0.284654
12840 1 0.691814 0.637973 0.303889
8854 1 0.703662 0.655818 0.295705
15753 1 0.707847 0.634448 0.297822
12838 1 0.705333 0.635069 0.299239
12839 3 0.699049 0.636608 0.302002
13766 3 0.693969 0.630516 0.28173
7341 1 0.701158 0.63785 0.277871
13767 1 0.699182 0.635737 0.278861
7340 3 0.705114 0.643018 0.274884
16997 3 0.744191 0.650093 0.285245
668 3 0.724466 0.650869 0.288628
667 1 0.726399 0.643812 0.28915
4001 3 0.72955 0.629186 0.282085
4000 1 0.723561 0.630888 0.287761
15752 3 0.714208 0.633254 0.29331
15751 1 0.721383 0.631241 0.288936
16996 1 0.741099 0.650048 0.277711
14857 1 0.739808 0.650635 0.275529
4002 1 0.73606 0.629443 0.276969
15900 1 0.739177 0.629894 0.274803
21077 3 0.6878 0.683625 0.297788
21076 1 0.68683 0.682803 0.290121
8856 1 0.69849 0.666316 0.286569
14964 1 0.698588 0.668588 0.284657
8855 3 0.700996 0.659808 0.29092
14963 3 0.699017 0.674572 0.278572
12957 1 0.722695 0.677785 0.286786
12956 3 0.722605 0.670719 0.287191
12955 1 0.722917 0.662105 0.288628
669 1 0.723289 0.659147 0.288628
20982 1 0.692901 0.606982 0.324287
20981 3 0.697319 0.605663 0.317771
20980 1 0.702407 0.606474 0.311912
16268 3 0.711626 0.605054 0.305573
16269 1 0.705001 0.606636 0.30997
2951 3 0.737436 0.616025 0.311325
2950 1 0.741277 0.619549 0.305775
2952 1 0.733964 0.610878 0.317246
20497 1 0.716232 0.605467 0.329253
20498 3 0.722169 0.612108 0.327537
20499 1 0.729766 0.616576 0.327579
21078 1 0.686323 0.684081 0.305368
10199 3 0.775351 0.616866 0.262496
10198 1 0.76897 0.618624 0.267725
10023 1 0.751533 0.618769 0.257687
10022 3 0.755184 0.612242 0.258799
10021 1 0.758565 0.604619 0.257522
2808 1 0.759 0.6019 0.257192
10200 1 0.781845 0.615307 0.258422
2742 1 0.763154 0.657533 0.265871
17104 1 0.76139 0.655881 0.264695
17105 3 0.756988 0.649936 0.262134
15898 1 0.75209 0.633702 0.266437
15899 3 0.746072 0.630811 0.270179
17106 1 0.751012 0.646081 0.256439
5394 1 0.749024 0.645087 0.254837
199 1 0.796206 0.635713 0.261555
7677 1 0.781213 0.638683 0.273033
201 1 0.78382 0.639026 0.271001
200 3 0.789547 0.637903 0.265391
8100 1 0.749408 0.666806 0.264372
8099 3 0.750056 0.66965 0.27227
2740 1 0.774926 0.666786 0.270534
2741 3 0.768891 0.66135 0.268055
14867 3 0.800026 0.686353 0.25651
10614 1 0.7987 0.674967 0.256931
14866 1 0.799143 0.678601 0.257232
10612 1 0.794213 0.659426 0.252138
10613 3 0.795667 0.666554 0.255492
1731 1 0.82008 0.679149 0.255087
1730 3 0.821562 0.687262 0.255937
19151 3 0.816811 0.667729 0.25403
19150 1 0.819252 0.676314 0.254575
19152 1 0.815362 0.660061 0.25312
14868 1 0.800469 0.6941 0.255254
8832 1 0.828454 0.713017 0.250208
8831 3 0.82676 0.70557 0.252902
1729 1 0.822892 0.69529 0.255161
8830 1 0.82339 0.698233 0.254725
13677 1 0.763939 0.615269 0.30372
15125 3 0.747602 0.625106 0.297947
13021 1 0.764181 0.614268 0.301034
13022 3 0.764188 0.610265 0.293704
14770 1 0.753751 0.597101 0.29411
13023 1 0.764305 0.60627 0.287999
8902 1 0.764459 0.60496 0.285096
14771 3 0.745722 0.597192 0.295159
8903 3 0.764299 0.601105 0.277501
10557 1 0.805738 0.622804 0.274951
16998 1 0.748151 0.649974 0.290831
9126 1 0.764594 0.636959 0.282351
7675 1 0.767462 0.63738 0.280266
9125 3 0.759118 0.635081 0.287211
9124 1 0.754484 0.63089 0.291453
15126 1 0.752964 0.629145 0.293164
7676 3 0.773932 0.637933 0.276487
10555 1 0.804874 0.637794 0.280545
10556 3 0.805269 0.62966 0.277093
18238 1 0.804832 0.640226 0.281942
18239 3 0.804517 0.64741 0.2844
18240 1 0.802446 0.654607 0.286262
8098 1 0.750521 0.673943 0.279206
6529 1 0.806813 0.668089 0.300162
6999 1 0.805757 0.669415 0.297204
6997 1 0.798039 0.678621 0.286475
6998 3 0.802118 0.67374 0.291761
13675 1 0.761402 0.625904 0.316442
13676 3 0.763807 0.620101 0.310481
6530 2 0.806912 0.66502 0.307407
6531 1 0.809754 0.662541 0.31384
6466 1 0.810397 0.661789 0.317012
6468 1 0.810747 0.662127 0.332142
6467 2 0.811503 0.660227 0.324762
