ITEM: TIMESTEP
15000000
ITEM: NUMBER OF ENTRIES
56
ITEM: BOX BOUNDS pp pp pp
0 50
0 50
0 50
ITEM: ENTRIES c_binfo[1] c_binfo[2] c_binfo[3] 
3 17465 17466 
3 17464 17465 
3 13333 13334 
1 4221 13333 
2 4220 4221 
2 4219 4220 
1 4219 11365 
3 9929 9930 
3 13334 13335 
1 9930 13335 
3 10435 10436 
1 10435 14145 
3 14144 14145 
3 17002 17003 
3 9928 9929 
1 9928 17002 
3 6613 6614 
1 6613 17004 
3 17003 17004 
3 14143 14144 
3 6614 6615 
2 11366 11367 
2 11365 11366 
3 18068 18069 
3 18008 18009 
1 10437 18009 
3 361 362 
3 362 363 
3 10436 10437 
3 15065 15066 
1 15066 18007 
3 18007 18008 
3 95 96 
3 94 95 
1 94 7623 
3 7621 7622 
1 7621 17808 
3 7622 7623 
3 4798 4799 
1 4798 13741 
3 13741 13742 
3 4799 4800 
3 17806 17807 
3 17807 17808 
3 7627 7628 
3 7628 7629 
1 7629 13743 
3 13742 13743 
3 4243 4244 
1 4243 18067 
3 18067 18068 
1 4245 21588 
3 21587 21588 
3 21586 21587 
3 4244 4245 
3 15064 15065 
