ITEM: TIMESTEP
0
ITEM: NUMBER OF ATOMS
318
ITEM: BOX BOUNDS pp pp pp
0.0000000000000000e+00 5.0000000000000000e+01
0.0000000000000000e+00 5.0000000000000000e+01
0.0000000000000000e+00 5.0000000000000000e+01
ITEM: ATOMS id type 
3184 1 
3185 3 
3186 1 
4387 1 
4388 3 
4389 1 
8881 1 
8882 3 
8883 1 
9124 1 
9125 3 
9126 1 
10021 1 
10022 3 
10023 1 
10324 1 
10325 3 
10326 1 
139 1 
140 3 
141 1 
199 1 
200 3 
201 1 
5599 1 
5600 3 
5601 1 
6736 1 
6737 3 
6738 1 
8902 1 
8903 3 
8904 1 
10393 1 
10394 3 
10395 1 
205 1 
206 3 
207 1 
1231 1 
1232 3 
1233 1 
4768 1 
4769 2 
4770 1 
5791 1 
5792 3 
5793 1 
463 1 
464 3 
465 1 
5503 1 
5504 3 
5505 1 
6997 1 
6998 3 
6999 1 
7897 1 
7898 3 
7899 1 
10423 1 
10424 3 
10425 1 
118 1 
119 3 
120 1 
3418 1 
3419 3 
3420 1 
3538 1 
3539 3 
3540 1 
8098 1 
8099 3 
8100 1 
10198 1 
10199 3 
10200 1 
10555 1 
10556 3 
10557 1 
667 1 
668 3 
669 1 
2950 1 
2951 3 
2952 1 
4147 1 
4148 3 
4149 1 
6070 1 
6071 3 
6072 1 
8830 1 
8831 3 
8832 1 
9667 1 
9668 3 
9669 1 
679 1 
680 3 
681 1 
2176 1 
2177 3 
2178 1 
5419 1 
5420 3 
5421 1 
7339 1 
7340 3 
7341 1 
8662 1 
8663 3 
8664 1 
7648 1 
7649 3 
7650 1 
8371 1 
8372 3 
8373 1 
8854 1 
8855 3 
8856 1 
1120 1 
1121 3 
1122 1 
2740 1 
2741 3 
2742 1 
2806 1 
2807 3 
2808 1 
3883 1 
3884 3 
3885 1 
4000 1 
4001 3 
4002 1 
6466 1 
6467 2 
6468 1 
1729 1 
1730 3 
1731 1 
2749 1 
2750 3 
2751 1 
5392 1 
5393 3 
5394 1 
6529 1 
6530 2 
6531 1 
7675 1 
7676 3 
7677 1 
10612 1 
10613 3 
10614 1 
10975 1 
10976 3 
10977 1 
14530 1 
14531 3 
14532 1 
15364 1 
15365 3 
15366 1 
17341 1 
17342 3 
17343 1 
14542 1 
14543 3 
14544 1 
15319 1 
15320 3 
15321 1 
18493 1 
18494 3 
18495 1 
13231 1 
13232 3 
13233 1 
15751 1 
15752 3 
15753 1 
19774 1 
19775 3 
19776 1 
20911 1 
20912 3 
20913 1 
16360 1 
16361 3 
16362 1 
17497 1 
17498 3 
17499 1 
17557 1 
17558 3 
17559 1 
20980 1 
20981 3 
20982 1 
12535 1 
12536 3 
12537 1 
14392 1 
14393 3 
14394 1 
14449 1 
14450 3 
14451 1 
15709 1 
15710 3 
15711 1 
17509 1 
17510 3 
17511 1 
13021 1 
13022 3 
13023 1 
13090 1 
13091 3 
13092 1 
14770 1 
14771 3 
14772 1 
15124 1 
15125 3 
15126 1 
15847 1 
15848 3 
15849 1 
16267 1 
16268 3 
16269 1 
17104 1 
17105 3 
17106 1 
19150 1 
19151 3 
19152 1 
19990 1 
19991 3 
19992 1 
21550 1 
21551 3 
21552 1 
14962 1 
14963 3 
14964 1 
16996 1 
16997 3 
16998 1 
18253 1 
18254 3 
18255 1 
18256 1 
18257 3 
18258 1 
21076 1 
21077 3 
21078 1 
11671 1 
11672 3 
11673 1 
13765 1 
13766 3 
13767 1 
17128 1 
17129 3 
17130 1 
17191 1 
17192 3 
17193 1 
17251 1 
17252 3 
17253 1 
14857 1 
14858 3 
14859 1 
14866 1 
14867 3 
14868 1 
20326 1 
20327 2 
20328 1 
20497 1 
20498 3 
20499 1 
12838 1 
12839 3 
12840 1 
12955 1 
12956 3 
12957 1 
13675 1 
13676 3 
13677 1 
14875 1 
14876 3 
14877 1 
15898 1 
15899 3 
15900 1 
18238 1 
18239 3 
18240 1 
20032 1 
20033 3 
20034 1 
21112 1 
21113 3 
21114 1 
21412 1 
21413 3 
21414 1 
