ITEM: TIMESTEP
15000000
ITEM: NUMBER OF ATOMS
498
ITEM: BOX BOUNDS pp pp pp
0.0000000000000000e+00 5.0000000000000000e+01
0.0000000000000000e+00 5.0000000000000000e+01
0.0000000000000000e+00 5.0000000000000000e+01
ITEM: ATOMS id type xs ys zs
2308 1 0.499314 0.389025 0.136628
2310 1 0.483943 0.38848 0.142453
2309 2 0.491357 0.388708 0.140001
1279 1 0.496501 0.380788 0.15448
7206 1 0.476128 0.383301 0.173171
7204 1 0.480971 0.387566 0.158146
7205 2 0.478196 0.385272 0.166429
8270 2 0.483125 0.393649 0.185109
5379 1 0.49769 0.403107 0.179153
19235 2 0.48218 0.406715 0.170962
19234 1 0.482103 0.41274 0.166462
8269 1 0.482272 0.399054 0.179031
19236 1 0.482339 0.401491 0.176753
15870 1 0.496803 0.414053 0.162697
8139 1 0.494402 0.443237 0.185879
8138 2 0.498153 0.447434 0.179655
6749 2 0.485227 0.44425 0.16442
6750 1 0.479694 0.448744 0.160518
6748 1 0.490424 0.439916 0.168489
370 1 0.45925 0.394026 0.196505
17770 1 0.459677 0.391225 0.198045
17771 2 0.462603 0.383531 0.201587
17772 1 0.467194 0.378486 0.204945
20147 2 0.485018 0.380995 0.197897
20146 1 0.485587 0.374948 0.203441
20148 1 0.48518 0.386886 0.19216
8271 1 0.484954 0.388818 0.190263
6741 1 0.464172 0.407112 0.21959
6740 2 0.465607 0.4055 0.212942
6739 1 0.466996 0.40373 0.204717
372 1 0.457453 0.408163 0.190997
371 2 0.458187 0.400743 0.193587
11972 2 0.487656 0.422513 0.219244
11973 1 0.481929 0.424145 0.214727
11885 2 0.48415 0.420371 0.195934
11884 1 0.486972 0.4134 0.195629
21386 2 0.498679 0.400932 0.211166
21387 1 0.494917 0.405022 0.205259
16113 1 0.476683 0.445274 0.190844
3675 1 0.497773 0.438725 0.190124
16112 2 0.479959 0.437606 0.192576
11886 1 0.482473 0.427545 0.194688
16111 1 0.482404 0.430267 0.193481
19923 1 0.473222 0.471509 0.190309
21050 2 0.49309 0.456117 0.199927
21049 1 0.485631 0.455517 0.196488
19922 2 0.477337 0.478356 0.190822
19921 1 0.478208 0.486606 0.19294
15957 1 0.497055 0.364177 0.236051
11107 1 0.496385 0.419588 0.223575
11971 1 0.494243 0.420341 0.222268
18405 1 0.486043 0.442913 0.234137
18403 1 0.497492 0.445303 0.224701
18404 2 0.491337 0.44367 0.229439
6314 2 0.482508 0.475523 0.250077
9925 1 0.489472 0.477075 0.240736
9926 3 0.494238 0.478849 0.234891
9927 1 0.497805 0.480667 0.227603
6315 1 0.487605 0.476659 0.242958
18235 1 0.498718 0.480923 0.225513
6313 1 0.477603 0.473955 0.256457
7755 1 0.519899 0.343141 0.216073
1458 1 0.609477 0.394862 0.0924369
17859 1 0.539384 0.375398 0.124849
17858 2 0.535462 0.371493 0.119331
17857 1 0.531305 0.366946 0.113827
2532 1 0.538888 0.407133 0.120167
13398 1 0.554813 0.402009 0.112038
2530 1 0.551828 0.402941 0.1135
2531 2 0.544702 0.404012 0.115847
7912 1 0.581818 0.398544 0.117284
5531 2 0.589223 0.397468 0.10869
5532 1 0.58349 0.397935 0.114954
7913 3 0.57759 0.401476 0.123194
13397 2 0.562893 0.400632 0.109762
13396 1 0.570087 0.400815 0.108088
5530 1 0.595748 0.397032 0.103052
1457 3 0.603715 0.395927 0.0968128
1456 1 0.597669 0.396676 0.101479
12908 2 0.525735 0.420882 0.123468
12909 1 0.521853 0.423799 0.118316
11507 2 0.527006 0.373124 0.140659
11506 1 0.526981 0.365118 0.13995
11508 1 0.527227 0.380527 0.140547
17050 1 0.516777 0.388595 0.132443
1280 2 0.504548 0.383504 0.15594
1281 1 0.512713 0.387068 0.156457
2124 1 0.527268 0.384083 0.140299
17051 2 0.50911 0.387972 0.133323
17052 1 0.501557 0.388882 0.135759
2122 1 0.528889 0.398727 0.138317
2123 2 0.527465 0.391504 0.139494
2007 1 0.553082 0.398442 0.151312
2006 2 0.553722 0.392772 0.146902
9772 1 0.544565 0.403478 0.156909
2005 1 0.55102 0.386626 0.140595
3159 1 0.549797 0.384957 0.138511
3158 2 0.545291 0.381322 0.132677
3157 1 0.541032 0.377161 0.127166
21546 1 0.581911 0.396665 0.146962
21545 3 0.581744 0.389994 0.151156
7914 1 0.571736 0.403631 0.128332
7658 2 0.506066 0.435612 0.153642
15868 1 0.507852 0.413716 0.150698
19443 1 0.51005 0.413891 0.148987
12907 1 0.530385 0.418214 0.130079
19441 1 0.522623 0.415149 0.138759
19442 2 0.515967 0.414117 0.14343
9229 1 0.541778 0.409635 0.142649
9230 2 0.536566 0.413189 0.137472
9231 1 0.532296 0.416998 0.132674
14029 1 0.511446 0.455617 0.156179
17101 1 0.513527 0.455714 0.153072
17103 1 0.522603 0.462476 0.142582
17102 2 0.51788 0.457879 0.146692
7659 1 0.504585 0.440195 0.148626
6195 1 0.540628 0.457982 0.156806
16689 1 0.560575 0.462949 0.154877
8314 1 0.530555 0.375891 0.157083
8316 1 0.537777 0.371996 0.169876
8315 2 0.533594 0.374912 0.163789
18397 1 0.530475 0.402493 0.184865
5378 2 0.500535 0.39621 0.175867
5377 1 0.50273 0.388626 0.173027
1966 1 0.52742 0.40168 0.1831
1967 2 0.521765 0.398423 0.179251
1968 1 0.517862 0.394589 0.174504
16266 1 0.528469 0.395639 0.157779
16265 2 0.521355 0.391979 0.158132
16264 1 0.515023 0.387942 0.157118
18398 2 0.536307 0.404037 0.188043
9579 1 0.548765 0.400534 0.173323
16071 1 0.545052 0.381518 0.170464
16070 2 0.548561 0.389064 0.172698
16069 1 0.548453 0.397196 0.173695
9773 2 0.537275 0.401157 0.157557
9774 1 0.53071 0.397203 0.157672
16207 1 0.586166 0.407315 0.174117
11841 1 0.57698 0.384371 0.183515
11839 1 0.562364 0.38863 0.180759
11840 2 0.570384 0.387177 0.183334
21544 1 0.580056 0.38459 0.157326
5580 1 0.600581 0.393792 0.18575
20117 2 0.526777 0.437449 0.164071
4478 2 0.514284 0.42243 0.187172
4479 1 0.510443 0.422997 0.180064
3100 1 0.509405 0.424047 0.177381
3101 2 0.508532 0.427424 0.17016
20116 1 0.526997 0.428666 0.165806
13930 1 0.527178 0.426334 0.166449
13931 2 0.528623 0.418651 0.167983
13932 1 0.530535 0.410508 0.168965
15869 2 0.502797 0.413285 0.157165
3102 1 0.50809 0.430746 0.162654
7657 1 0.507616 0.432144 0.160158
7934 2 0.53547 0.437409 0.183879
1104 1 0.5413 0.433411 0.162184
15114 1 0.558084 0.421178 0.182096
12682 1 0.557243 0.425067 0.16286
1102 1 0.554773 0.426924 0.162674
15113 2 0.550179 0.426145 0.183918
1103 2 0.547897 0.430955 0.162981
15112 1 0.54457 0.430319 0.184379
7933 1 0.541987 0.432198 0.184347
9578 2 0.548301 0.408505 0.172655
9577 1 0.548397 0.417105 0.171764
1876 1 0.57651 0.434674 0.184609
1877 2 0.572408 0.432937 0.178053
1878 1 0.569025 0.432622 0.171922
12683 2 0.563469 0.419584 0.162896
12684 1 0.569436 0.414958 0.165489
16209 1 0.571846 0.413444 0.166693
16208 2 0.579421 0.410077 0.17
11520 1 0.59992 0.437236 0.183412
5653 1 0.508276 0.465329 0.177279
5654 2 0.50514 0.469013 0.184404
17532 1 0.530601 0.460329 0.183775
29 2 0.517852 0.444628 0.18443
28 1 0.525616 0.44091 0.183103
7935 1 0.527636 0.440455 0.182987
20118 1 0.528886 0.44403 0.16229
6193 1 0.530405 0.44644 0.161474
30 1 0.510799 0.44877 0.185807
14030 2 0.50813 0.454001 0.164237
8137 1 0.502669 0.450948 0.173669
14031 1 0.504295 0.452003 0.171302
4197 1 0.55826 0.445551 0.187471
21102 1 0.559093 0.445965 0.173173
21101 2 0.552848 0.449829 0.17611
17530 1 0.544415 0.454257 0.179213
21100 1 0.54609 0.453448 0.178339
17531 2 0.537082 0.457233 0.181539
6194 2 0.535564 0.452112 0.158873
17545 1 0.545385 0.469903 0.163899
16687 1 0.54791 0.469135 0.162483
16688 2 0.553583 0.46588 0.157997
20573 2 0.582872 0.458769 0.181289
11518 1 0.586419 0.443925 0.179513
20574 1 0.590212 0.458409 0.17871
6322 1 0.572746 0.460312 0.186759
20572 1 0.575228 0.460137 0.185107
16329 1 0.609668 0.460465 0.168884
16328 2 0.602962 0.465053 0.169496
11519 2 0.5937 0.440709 0.180405
19858 1 0.523881 0.472112 0.187919
6583 1 0.528882 0.475126 0.169541
6585 1 0.515177 0.480065 0.171076
6584 2 0.521633 0.477006 0.170766
17547 1 0.532011 0.474071 0.169124
17546 2 0.539008 0.471435 0.166864
13388 2 0.537781 0.487382 0.182169
13387 1 0.535259 0.489771 0.175916
13320 1 0.592455 0.488432 0.172623
13319 2 0.593103 0.480861 0.171895
20502 1 0.575177 0.479004 0.180347
20501 2 0.576589 0.480479 0.188395
13878 1 0.574626 0.478275 0.177312
13876 1 0.570773 0.477269 0.16147
13877 2 0.572063 0.476888 0.169597
16327 1 0.598508 0.470998 0.170033
13318 1 0.596985 0.473735 0.170543
4597 1 0.529889 0.374165 0.200939
13750 1 0.52797 0.371412 0.201928
5728 1 0.505924 0.372402 0.219603
13751 2 0.523579 0.365975 0.20473
7753 1 0.521632 0.357038 0.20879
13752 1 0.521972 0.359401 0.207576
7754 3 0.52044 0.350066 0.211753
5723 2 0.553789 0.369505 0.197483
12961 1 0.549784 0.3637 0.205297
5722 1 0.550503 0.365161 0.203155
12963 1 0.545158 0.356863 0.217528
12962 2 0.546981 0.36032 0.212049
5724 1 0.556106 0.373526 0.192158
857 2 0.514108 0.402688 0.198442
8729 2 0.517327 0.406897 0.215802
858 1 0.514726 0.403893 0.205421
8728 1 0.514984 0.404497 0.208298
5730 1 0.510635 0.384047 0.208312
5729 2 0.508237 0.378082 0.213836
21385 1 0.502414 0.397352 0.217968
856 1 0.514407 0.402689 0.189877
19602 1 0.501995 0.379467 0.192609
19601 2 0.506223 0.384672 0.195289
19600 1 0.510779 0.391152 0.197754
6933 1 0.538461 0.400095 0.216793
5569 1 0.538595 0.399007 0.219417
10948 1 0.560691 0.402999 0.196126
3719 2 0.558268 0.386888 0.213868
3720 1 0.551243 0.390009 0.214848
10949 2 0.552805 0.405269 0.194473
10950 1 0.545659 0.405994 0.191625
18399 1 0.54313 0.405946 0.19066
6932 2 0.536056 0.40341 0.209979
6931 1 0.53177 0.404173 0.20439
4599 1 0.5375 0.38799 0.197295
4598 2 0.532338 0.380964 0.198166
18720 1 0.583046 0.386584 0.203948
18719 2 0.585842 0.381746 0.197499
10389 1 0.582474 0.387662 0.206002
10388 2 0.582465 0.390213 0.214697
18718 1 0.58976 0.377941 0.191546
9270 1 0.579662 0.399411 0.203797
17468 2 0.566436 0.407183 0.219375
9268 1 0.563827 0.402507 0.197684
3718 1 0.564666 0.384376 0.211025
9269 2 0.571757 0.401039 0.199239
20650 1 0.596698 0.405073 0.200001
5578 1 0.596711 0.403859 0.197585
5579 2 0.598343 0.399217 0.19056
2753 2 0.527404 0.431997 0.219428
2754 1 0.521181 0.429102 0.214796
285 1 0.518872 0.42844 0.212972
284 2 0.511468 0.428229 0.207998
18632 2 0.529051 0.421078 0.198136
283 1 0.5057 0.430291 0.204338
3673 1 0.503861 0.431818 0.202491
3674 2 0.500809 0.435802 0.19695
18631 1 0.522754 0.42062 0.193828
4477 1 0.519931 0.420898 0.191844
13528 1 0.554961 0.422301 0.209172
13530 1 0.53988 0.423052 0.203369
13529 2 0.547467 0.422639 0.205815
18633 1 0.536837 0.422461 0.202355
19278 1 0.58727 0.426548 0.194139
5243 2 0.581936 0.43626 0.19734
5244 1 0.585945 0.429113 0.194855
19276 1 0.59326 0.412313 0.188965
19277 2 0.589092 0.419281 0.191698
15003 1 0.569328 0.427992 0.2012
15002 2 0.568173 0.422042 0.207507
15001 1 0.567329 0.416147 0.212957
17467 1 0.566821 0.41428 0.21456
1240 1 0.597383 0.415078 0.218354
17014 1 0.611403 0.430402 0.218046
17015 2 0.610721 0.425289 0.210982
17016 1 0.610705 0.420396 0.205488
20652 1 0.597353 0.413389 0.21634
20651 2 0.596658 0.408985 0.208575
3906 1 0.607331 0.438466 0.190539
280 1 0.625571 0.419359 0.218713
19860 1 0.522405 0.469579 0.202542
8336 2 0.529417 0.453433 0.204061
8335 1 0.521756 0.453889 0.20414
15651 1 0.518816 0.454357 0.203978
15650 2 0.510657 0.454914 0.203237
15649 1 0.503256 0.45546 0.202652
21051 1 0.500223 0.455686 0.202005
14 2 0.554801 0.441189 0.213333
4196 2 0.557688 0.44283 0.194969
4195 1 0.556677 0.440815 0.202138
13 1 0.556285 0.440788 0.205278
10708 1 0.554744 0.463631 0.200418
5119 1 0.545121 0.449124 0.217301
10710 1 0.53995 0.456951 0.20513
10709 2 0.547549 0.461071 0.203901
8337 1 0.53733 0.455648 0.204942
6324 1 0.558924 0.463862 0.19552
5242 1 0.581476 0.443093 0.200714
13407 1 0.578075 0.461381 0.206551
13406 2 0.580212 0.453285 0.203297
6323 2 0.565741 0.46242 0.190648
13405 1 0.581743 0.445966 0.20195
17206 1 0.600609 0.444834 0.207501
17207 2 0.598395 0.446353 0.21541
3904 1 0.60141 0.444504 0.204757
3905 2 0.60359 0.441224 0.197982
19859 2 0.523467 0.471676 0.194949
7727 2 0.50296 0.4763 0.19939
18236 3 0.50142 0.480123 0.21784
7726 1 0.502338 0.478278 0.206546
18237 1 0.501707 0.478715 0.209658
7728 1 0.502122 0.473693 0.193117
5655 1 0.502482 0.472818 0.190359
4118 2 0.551447 0.495302 0.215278
1870 1 0.557375 0.485683 0.216792
4117 1 0.555155 0.488533 0.21658
15427 1 0.540349 0.477418 0.211009
15428 2 0.541601 0.473648 0.217915
17620 1 0.540187 0.478994 0.208167
17621 2 0.540442 0.48116 0.199987
17622 1 0.538463 0.48301 0.192394
13389 1 0.538218 0.483938 0.189265
6376 1 0.561847 0.494496 0.195712
6377 2 0.568764 0.500202 0.196127
1871 2 0.562051 0.480026 0.218415
20500 1 0.578226 0.482603 0.196304
10056 1 0.546937 0.505097 0.215486
10055 2 0.544867 0.513194 0.216299
4119 1 0.547353 0.502463 0.215477
10054 1 0.545917 0.522178 0.21684
6378 1 0.575922 0.504183 0.193707
15497 2 0.527776 0.363081 0.230275
15498 1 0.522585 0.357493 0.225333
15956 2 0.501341 0.366844 0.228594
15955 1 0.504679 0.370273 0.221973
8326 1 0.559328 0.366851 0.232443
4594 1 0.5617 0.365714 0.233187
8327 2 0.55302 0.370737 0.23051
8328 1 0.546491 0.375025 0.229343
18815 2 0.537724 0.373292 0.244151
18816 1 0.533606 0.369681 0.238203
15496 1 0.531562 0.367983 0.235467
10816 1 0.553759 0.36352 0.247357
10817 2 0.554266 0.356665 0.251193
4596 1 0.57674 0.360228 0.231111
4595 2 0.569103 0.362328 0.233336
9502 1 0.599773 0.375311 0.222957
17983 1 0.521749 0.385402 0.245443
17984 2 0.517488 0.388408 0.240543
17985 1 0.51294 0.390553 0.234925
8488 1 0.511407 0.391607 0.232742
8489 2 0.507053 0.394612 0.227036
8490 1 0.503391 0.396219 0.220101
4247 2 0.556852 0.3874 0.250823
7679 2 0.561529 0.394742 0.231993
7678 1 0.559408 0.388856 0.236658
5118 1 0.536982 0.396382 0.23824
5117 2 0.536743 0.396185 0.246814
5570 2 0.538512 0.396556 0.226939
5571 1 0.537321 0.397035 0.235575
4248 1 0.553476 0.379837 0.248574
18814 1 0.540902 0.379552 0.250061
15762 1 0.586922 0.398566 0.240729
15760 1 0.58345 0.393734 0.225797
10387 1 0.582876 0.392423 0.222473
15761 2 0.585145 0.396563 0.233375
16999 1 0.587443 0.399681 0.243735
9504 1 0.592087 0.379086 0.235647
17469 1 0.565711 0.401451 0.225091
7680 1 0.564505 0.399265 0.227092
12860 2 0.616207 0.396238 0.250668
12861 1 0.613982 0.402668 0.247485
1222 1 0.612937 0.40513 0.246799
9503 2 0.596046 0.376505 0.229687
16564 1 0.529594 0.416378 0.235103
12895 1 0.526699 0.415978 0.234653
12896 2 0.51926 0.415622 0.233556
12897 1 0.511968 0.415451 0.232141
11109 1 0.509085 0.415617 0.231121
11108 2 0.501821 0.416032 0.227347
8730 1 0.519609 0.410797 0.222533
14273 2 0.556423 0.437474 0.232474
14272 1 0.554107 0.437445 0.241083
5752 1 0.553116 0.437676 0.24383
2752 1 0.532153 0.436765 0.223461
8585 2 0.555354 0.415843 0.237441
8586 1 0.548205 0.4147 0.236417
16566 1 0.545296 0.414614 0.235921
16565 2 0.537997 0.415902 0.235144
263 2 0.574425 0.421559 0.236149
264 1 0.566623 0.418439 0.238345
8584 1 0.563249 0.417522 0.238657
262 1 0.580001 0.426859 0.234014
1242 1 0.593683 0.422867 0.232436
282 1 0.621455 0.412769 0.232419
21380 2 0.610272 0.431218 0.240654
21379 1 0.609028 0.423964 0.242713
21381 1 0.611948 0.437836 0.238231
281 2 0.623435 0.417183 0.225358
1224 1 0.609089 0.421181 0.24385
1223 2 0.609691 0.412471 0.244902
1241 2 0.596662 0.419998 0.2253
15487 1 0.556328 0.459354 0.241072
4716 1 0.554618 0.461565 0.239519
4715 2 0.549816 0.465995 0.233418
15488 2 0.560673 0.453743 0.244805
4714 1 0.546204 0.470061 0.227185
5121 1 0.532594 0.45306 0.2265
15 1 0.55575 0.439543 0.221206
14274 1 0.555989 0.439177 0.224125
5120 2 0.539384 0.450885 0.221492
6086 2 0.589546 0.456927 0.250154
8436 1 0.567925 0.445909 0.249424
15489 1 0.565224 0.448018 0.248104
5992 1 0.623049 0.450837 0.230321
5994 1 0.613377 0.440629 0.23697
19250 2 0.59518 0.450705 0.23322
19249 1 0.59443 0.453399 0.241003
6087 1 0.593495 0.454375 0.243823
17208 1 0.597286 0.447787 0.222947
19251 1 0.596936 0.448525 0.226313
5993 2 0.617061 0.446575 0.233264
12822 1 0.624906 0.453104 0.229105
12820 1 0.633233 0.463647 0.22333
12821 3 0.628549 0.458565 0.225704
15429 1 0.545107 0.471319 0.224371
1872 1 0.566201 0.47286 0.220155
10818 1 0.552495 0.349783 0.254536
4588 1 0.541773 0.406289 0.27824
5116 1 0.538134 0.392821 0.253996
7549 1 0.560527 0.396647 0.252613
4246 1 0.55952 0.393367 0.252171
17001 1 0.588659 0.403717 0.260564
17000 2 0.588053 0.402306 0.251522
7550 2 0.563783 0.403956 0.255308
12859 1 0.618791 0.389607 0.255036
4590 1 0.530462 0.41476 0.270672
21130 1 0.53877 0.429687 0.276948
21131 2 0.542751 0.432018 0.270448
21132 1 0.546069 0.433652 0.263377
4589 2 0.536837 0.41131 0.274727
5753 2 0.550921 0.436403 0.251945
5754 1 0.547453 0.434146 0.260347
8434 1 0.580494 0.434932 0.252967
21370 1 0.570985 0.426473 0.267535
21372 1 0.566426 0.412901 0.261412
7551 1 0.56584 0.410154 0.25984
21371 2 0.568372 0.419543 0.265464
18659 2 0.619094 0.437957 0.259011
18660 1 0.619698 0.428607 0.260775
19009 1 0.620268 0.425339 0.261266
19011 1 0.620076 0.41 0.264799
19010 2 0.620839 0.417638 0.263637
18515 3 0.581225 0.464054 0.264408
6085 1 0.586337 0.459315 0.256744
18516 1 0.584809 0.460593 0.259007
18514 1 0.578058 0.469869 0.268239
8435 2 0.574327 0.440071 0.251898
1649 2 0.614491 0.456012 0.255595
18658 1 0.616415 0.445506 0.257286
1648 1 0.615945 0.448236 0.25645
321 1 0.596574 0.445284 0.271256
320 2 0.597121 0.442006 0.263269
1650 1 0.613715 0.464356 0.254324
319 1 0.598824 0.440524 0.255993
8167 1 0.582072 0.425509 0.292592
8168 2 0.578176 0.43185 0.294312
8169 1 0.571906 0.43841 0.294886
3696 1 0.550859 0.469416 0.292122
17937 1 0.559843 0.452821 0.292225
3694 1 0.557008 0.454992 0.292127
3695 2 0.552871 0.461056 0.291677
17936 3 0.564741 0.447037 0.292391
17935 1 0.569843 0.440647 0.294311
13147 1 0.549713 0.472188 0.29333
13149 1 0.545172 0.487023 0.300193
13148 2 0.546483 0.479157 0.296703
