ITEM: TIMESTEP
0
ITEM: NUMBER OF ATOMS
498
ITEM: BOX BOUNDS pp pp pp
0.0000000000000000e+00 5.0000000000000000e+01
0.0000000000000000e+00 5.0000000000000000e+01
0.0000000000000000e+00 5.0000000000000000e+01
ITEM: ATOMS id type 
370 1 
371 2 
372 1 
2530 1 
2531 2 
2532 1 
5530 1 
5531 2 
5532 1 
7204 1 
7205 2 
7206 1 
8167 1 
8168 2 
8169 1 
10387 1 
10388 2 
10389 1 
13 1 
14 2 
15 1 
262 1 
263 2 
264 1 
319 1 
320 2 
321 1 
1222 1 
1223 2 
1224 1 
1279 1 
1280 2 
1281 1 
1456 1 
1457 3 
1458 1 
3673 1 
3674 2 
3675 1 
5653 1 
5654 2 
5655 1 
5722 1 
5723 2 
5724 1 
6739 1 
6740 2 
6741 1 
7753 1 
7754 3 
7755 1 
7933 1 
7934 2 
7935 1 
28 1 
29 2 
30 1 
1648 1 
1649 2 
1650 1 
2308 1 
2309 2 
2310 1 
3694 1 
3695 2 
3696 1 
4588 1 
4589 2 
4590 1 
4594 1 
4595 2 
4596 1 
4714 1 
4715 2 
4716 1 
5728 1 
5729 2 
5730 1 
6748 1 
6749 2 
6750 1 
6931 1 
6932 2 
6933 1 
8314 1 
8315 2 
8316 1 
9268 1 
9269 2 
9270 1 
10054 1 
10055 2 
10056 1 
280 1 
281 2 
282 1 
283 1 
284 2 
285 1 
1240 1 
1241 2 
1242 1 
4477 1 
4478 2 
4479 1 
4597 1 
4598 2 
4599 1 
8137 1 
8138 2 
8139 1 
8326 1 
8327 2 
8328 1 
3718 1 
3719 2 
3720 1 
5569 1 
5570 2 
5571 1 
5578 1 
5579 2 
5580 1 
5752 1 
5753 2 
5754 1 
5992 1 
5993 2 
5994 1 
7912 1 
7913 3 
7914 1 
8269 1 
8270 2 
8271 1 
8335 1 
8336 2 
8337 1 
9229 1 
9230 2 
9231 1 
1870 1 
1871 2 
1872 1 
3904 1 
3905 2 
3906 1 
8584 1 
8585 2 
8586 1 
856 1 
857 2 
858 1 
1102 1 
1103 2 
1104 1 
1876 1 
1877 2 
1878 1 
2122 1 
2123 2 
2124 1 
5116 1 
5117 2 
5118 1 
5119 1 
5120 2 
5121 1 
5242 1 
5243 2 
5244 1 
6193 1 
6194 2 
6195 1 
6313 1 
6314 2 
6315 1 
6322 1 
6323 2 
6324 1 
6376 1 
6377 2 
6378 1 
9502 1 
9503 2 
9504 1 
10816 1 
10817 2 
10818 1 
2005 1 
2006 2 
2007 1 
6085 1 
6086 2 
6087 1 
8434 1 
8435 2 
8436 1 
8488 1 
8489 2 
8490 1 
8728 1 
8729 2 
8730 1 
9925 1 
9926 3 
9927 1 
10708 1 
10709 2 
10710 1 
10948 1 
10949 2 
10950 1 
1966 1 
1967 2 
1968 1 
3100 1 
3101 2 
3102 1 
3157 1 
3158 2 
3159 1 
4117 1 
4118 2 
4119 1 
4246 1 
4247 2 
4248 1 
5377 1 
5378 2 
5379 1 
6583 1 
6584 2 
6585 1 
7657 1 
7658 2 
7659 1 
7726 1 
7727 2 
7728 1 
9577 1 
9578 2 
9579 1 
2752 1 
2753 2 
2754 1 
4195 1 
4196 2 
4197 1 
7549 1 
7550 2 
7551 1 
7678 1 
7679 2 
7680 1 
9772 1 
9773 2 
9774 1 
11107 1 
11108 2 
11109 1 
13147 1 
13148 2 
13149 1 
13387 1 
13388 2 
13389 1 
15427 1 
15428 2 
15429 1 
15487 1 
15488 2 
15489 1 
16327 1 
16328 2 
16329 1 
16564 1 
16565 2 
16566 1 
16687 1 
16688 2 
16689 1 
17467 1 
17468 2 
17469 1 
17530 1 
17531 2 
17532 1 
17770 1 
17771 2 
17772 1 
19441 1 
19442 2 
19443 1 
20650 1 
20651 2 
20652 1 
13396 1 
13397 2 
13398 1 
15496 1 
15497 2 
15498 1 
13405 1 
13406 2 
13407 1 
13528 1 
13529 2 
13530 1 
17545 1 
17546 2 
17547 1 
18514 1 
18515 3 
18516 1 
18631 1 
18632 2 
18633 1 
18814 1 
18815 2 
18816 1 
11506 1 
11507 2 
11508 1 
15760 1 
15761 2 
15762 1 
17620 1 
17621 2 
17622 1 
18397 1 
18398 2 
18399 1 
18403 1 
18404 2 
18405 1 
19600 1 
19601 2 
19602 1 
11518 1 
11519 2 
11520 1 
13318 1 
13319 2 
13320 1 
14272 1 
14273 2 
14274 1 
15649 1 
15650 2 
15651 1 
18658 1 
18659 2 
18660 1 
18718 1 
18719 2 
18720 1 
19858 1 
19859 2 
19860 1 
20572 1 
20573 2 
20574 1 
21049 1 
21050 2 
21051 1 
11884 1 
11885 2 
11886 1 
12907 1 
12908 2 
12909 1 
12961 1 
12962 2 
12963 1 
13750 1 
13751 2 
13752 1 
13930 1 
13931 2 
13932 1 
15001 1 
15002 2 
15003 1 
16207 1 
16208 2 
16209 1 
16264 1 
16265 2 
16266 1 
17050 1 
17051 2 
17052 1 
17101 1 
17102 2 
17103 1 
19921 1 
19922 2 
19923 1 
21130 1 
21131 2 
21132 1 
21370 1 
21371 2 
21372 1 
21544 1 
21545 3 
21546 1 
11839 1 
11840 2 
11841 1 
12682 1 
12683 2 
12684 1 
12859 1 
12860 2 
12861 1 
13876 1 
13877 2 
13878 1 
16999 1 
17000 2 
17001 1 
19276 1 
19277 2 
19278 1 
20116 1 
20117 2 
20118 1 
21379 1 
21380 2 
21381 1 
11971 1 
11972 2 
11973 1 
15868 1 
15869 2 
15870 1 
16111 1 
16112 2 
16113 1 
17014 1 
17015 2 
17016 1 
19234 1 
19235 2 
19236 1 
21385 1 
21386 2 
21387 1 
12820 1 
12821 3 
12822 1 
17206 1 
17207 2 
17208 1 
17857 1 
17858 2 
17859 1 
17983 1 
17984 2 
17985 1 
20146 1 
20147 2 
20148 1 
20500 1 
20501 2 
20502 1 
21100 1 
21101 2 
21102 1 
12895 1 
12896 2 
12897 1 
14029 1 
14030 2 
14031 1 
15112 1 
15113 2 
15114 1 
15955 1 
15956 2 
15957 1 
16069 1 
16070 2 
16071 1 
17935 1 
17936 3 
17937 1 
18235 1 
18236 3 
18237 1 
19009 1 
19010 2 
19011 1 
19249 1 
19250 2 
19251 1 
