ITEM: TIMESTEP
15000000
ITEM: NUMBER OF ATOMS
63
ITEM: BOX BOUNDS pp pp pp
0.0000000000000000e+00 5.0000000000000000e+01
0.0000000000000000e+00 5.0000000000000000e+01
0.0000000000000000e+00 5.0000000000000000e+01
ITEM: ATOMS id type xs ys zs
17465 3 0.138734 0.201176 0.64971
17464 1 0.138743 0.205056 0.643919
17466 1 0.138565 0.195359 0.656733
13333 1 0.194607 0.121327 0.764083
4221 1 0.195874 0.118372 0.765232
4220 2 0.197501 0.11138 0.770195
4219 1 0.201136 0.105695 0.775818
363 1 0.188106 0.146817 0.776753
9929 3 0.189177 0.147918 0.760693
13334 3 0.191059 0.12861 0.76342
9930 1 0.189627 0.13933 0.761936
13335 1 0.189556 0.136394 0.762369
10435 1 0.209867 0.167797 0.773149
14145 1 0.210879 0.16754 0.770148
14144 3 0.214564 0.166918 0.763043
17002 1 0.189684 0.158828 0.758309
9928 1 0.189179 0.155723 0.758913
6613 1 0.194143 0.177952 0.756739
17003 3 0.190978 0.166873 0.75708
17004 1 0.193394 0.174895 0.756824
14143 1 0.218555 0.167118 0.756712
6615 1 0.199544 0.192481 0.755677
6614 3 0.195961 0.185321 0.756038
11367 1 0.20724 0.0906279 0.784566
11366 2 0.204567 0.098052 0.782248
11365 1 0.202124 0.103663 0.777776
18068 3 0.207717 0.145054 0.806779
18069 1 0.214595 0.14173 0.802588
18008 3 0.201152 0.17659 0.794506
18009 1 0.203494 0.173226 0.788388
10437 1 0.204482 0.172071 0.785988
361 1 0.191228 0.162407 0.779005
362 3 0.189219 0.155898 0.778884
10436 3 0.206983 0.169869 0.779582
15065 3 0.195792 0.191002 0.804607
15066 1 0.197371 0.184984 0.800509
18007 1 0.198754 0.182519 0.798944
96 1 0.259174 0.335281 0.72678
95 3 0.264855 0.332496 0.728514
94 1 0.271988 0.32855 0.730666
7623 1 0.274447 0.327202 0.731384
7621 1 0.286319 0.320998 0.739325
17808 1 0.288924 0.319967 0.741649
7622 3 0.281397 0.323392 0.734614
4798 1 0.263222 0.327875 0.75737
13741 1 0.264589 0.329697 0.757581
4799 3 0.259533 0.321692 0.759457
4800 1 0.254317 0.317079 0.762644
17806 1 0.299964 0.315096 0.751394
17807 3 0.294228 0.317059 0.746786
7627 1 0.280648 0.357724 0.767997
7628 3 0.277938 0.350587 0.766246
7629 1 0.275024 0.345287 0.762415
13743 1 0.273378 0.342508 0.761056
13742 3 0.269374 0.336535 0.757977
4243 1 0.199094 0.150045 0.812582
18067 1 0.201573 0.148986 0.811239
4245 1 0.186606 0.157917 0.817294
21588 1 0.184013 0.160313 0.818912
21587 3 0.177731 0.165413 0.821262
21586 1 0.172027 0.168909 0.82187
4244 3 0.192101 0.15447 0.814039
15064 1 0.192859 0.196326 0.810061
