ITEM: TIMESTEP
0
ITEM: NUMBER OF ATOMS
7560
ITEM: BOX BOUNDS pp pp pp
0.0000000000000000e+00 5.0000000000000000e+01
0.0000000000000000e+00 5.0000000000000000e+01
0.0000000000000000e+00 5.0000000000000000e+01
ITEM: ATOMS id type 
10 1 
11 2 
12 1 
67 1 
68 2 
69 1 
124 1 
125 2 
126 1 
127 1 
128 3 
129 1 
130 1 
131 2 
132 1 
181 1 
182 2 
183 1 
190 1 
191 2 
192 1 
307 1 
308 2 
309 1 
367 1 
368 2 
369 1 
370 1 
371 2 
372 1 
421 1 
422 3 
423 1 
481 1 
482 3 
483 1 
484 1 
485 2 
486 1 
487 1 
488 2 
489 1 
1141 1 
1142 2 
1143 1 
1204 1 
1205 3 
1206 1 
1207 1 
1208 2 
1209 1 
1261 1 
1262 3 
1263 1 
1264 1 
1265 3 
1266 1 
1387 1 
1388 2 
1389 1 
1444 1 
1445 2 
1446 1 
1447 1 
1448 2 
1449 1 
1510 1 
1511 3 
1512 1 
1561 1 
1562 2 
1563 1 
2281 1 
2282 2 
2283 1 
2287 1 
2288 2 
2289 1 
2404 1 
2405 3 
2406 1 
2407 1 
2408 3 
2409 1 
2410 1 
2411 2 
2412 1 
2461 1 
2462 3 
2463 1 
2464 1 
2465 2 
2466 1 
2470 1 
2471 3 
2472 1 
2527 1 
2528 2 
2529 1 
2530 1 
2531 2 
2532 1 
2590 1 
2591 2 
2592 1 
3181 1 
3182 2 
3183 1 
3244 1 
3245 2 
3246 1 
3301 1 
3302 2 
3303 1 
3310 1 
3311 2 
3312 1 
3481 1 
3482 2 
3483 1 
3484 1 
3485 2 
3486 1 
3490 1 
3491 2 
3492 1 
3547 1 
3548 2 
3549 1 
3550 1 
3551 2 
3552 1 
3610 1 
3611 2 
3612 1 
3664 1 
3665 2 
3666 1 
3721 1 
3722 2 
3723 1 
4327 1 
4328 2 
4329 1 
4330 1 
4331 2 
4332 1 
4381 1 
4382 3 
4383 1 
4390 1 
4391 2 
4392 1 
4441 1 
4442 3 
4443 1 
4501 1 
4502 3 
4503 1 
4507 1 
4508 3 
4509 1 
4510 1 
4511 2 
4512 1 
4564 1 
4565 2 
4566 1 
4624 1 
4625 2 
4626 1 
4627 1 
4628 2 
4629 1 
4681 1 
4682 2 
4683 1 
4687 1 
4688 2 
4689 1 
4741 1 
4742 3 
4743 1 
4807 1 
4808 2 
4809 1 
4870 1 
4871 2 
4872 1 
5521 1 
5522 2 
5523 1 
5584 1 
5585 3 
5586 1 
5587 1 
5588 2 
5589 1 
5590 1 
5591 2 
5592 1 
5641 1 
5642 2 
5643 1 
5704 1 
5705 2 
5706 1 
5770 1 
5771 2 
5772 1 
5881 1 
5882 2 
5883 1 
5884 1 
5885 2 
5886 1 
5887 1 
5888 3 
5889 1 
5941 1 
5942 3 
5943 1 
6010 1 
6011 3 
6012 1 
6661 1 
6662 2 
6663 1 
6841 1 
6842 2 
6843 1 
6964 1 
6965 3 
6966 1 
6967 1 
6968 3 
6969 1 
7024 1 
7025 2 
7026 1 
7027 1 
7028 2 
7029 1 
7081 1 
7082 3 
7083 1 
7090 1 
7091 2 
7092 1 
7144 1 
7145 2 
7146 1 
7204 1 
7205 2 
7206 1 
7741 1 
7742 2 
7743 1 
7744 1 
7745 2 
7746 1 
7747 1 
7748 2 
7749 1 
7804 1 
7805 2 
7806 1 
7810 1 
7811 3 
7812 1 
7867 1 
7868 2 
7869 1 
7924 1 
7925 2 
7926 1 
7930 1 
7931 2 
7932 1 
7984 1 
7985 2 
7986 1 
8044 1 
8045 2 
8046 1 
8050 1 
8051 3 
8052 1 
8104 1 
8105 3 
8106 1 
8161 1 
8162 2 
8163 1 
8167 1 
8168 2 
8169 1 
8170 1 
8171 2 
8172 1 
8890 1 
8891 2 
8892 1 
8944 1 
8945 2 
8946 1 
9001 1 
9002 3 
9003 1 
9004 1 
9005 2 
9006 1 
9007 1 
9008 2 
9009 1 
9067 1 
9068 3 
9069 1 
9121 1 
9122 2 
9123 1 
9127 1 
9128 3 
9129 1 
9184 1 
9185 2 
9186 1 
9250 1 
9251 2 
9252 1 
9970 1 
9971 2 
9972 1 
10027 1 
10028 3 
10029 1 
10141 1 
10142 3 
10143 1 
10147 1 
10148 3 
10149 1 
10150 1 
10151 3 
10152 1 
10207 1 
10208 3 
10209 1 
10261 1 
10262 3 
10263 1 
10264 1 
10265 2 
10266 1 
10267 1 
10268 2 
10269 1 
10381 1 
10382 2 
10383 1 
10384 1 
10385 3 
10386 1 
10444 1 
10445 3 
10446 1 
10450 1 
10451 2 
10452 1 
10510 1 
10511 2 
10512 1 
16 1 
17 2 
18 1 
22 1 
23 3 
24 1 
79 1 
80 3 
81 1 
136 1 
137 2 
138 1 
142 1 
143 3 
144 1 
193 1 
194 2 
195 1 
313 1 
314 3 
315 1 
316 1 
317 2 
318 1 
322 1 
323 2 
324 1 
376 1 
377 2 
378 1 
439 1 
440 3 
441 1 
496 1 
497 2 
498 1 
502 1 
503 2 
504 1 
1162 1 
1163 2 
1164 1 
1219 1 
1220 2 
1221 1 
1273 1 
1274 3 
1275 1 
1276 1 
1277 2 
1278 1 
1333 1 
1334 3 
1335 1 
1339 1 
1340 2 
1341 1 
1396 1 
1397 2 
1398 1 
1399 1 
1400 3 
1401 1 
1402 1 
1403 3 
1404 1 
1459 1 
1460 2 
1461 1 
1516 1 
1517 2 
1518 1 
1519 1 
1520 2 
1521 1 
1576 1 
1577 3 
1578 1 
1636 1 
1637 3 
1638 1 
1639 1 
1640 2 
1641 1 
2233 1 
2234 2 
2235 1 
2242 1 
2243 3 
2244 1 
2293 1 
2294 2 
2295 1 
2296 1 
2297 2 
2298 1 
2356 1 
2357 2 
2358 1 
2413 1 
2414 2 
2415 1 
2416 1 
2417 2 
2418 1 
2473 1 
2474 2 
2475 1 
2479 1 
2480 2 
2481 1 
2539 1 
2540 2 
2541 1 
2602 1 
2603 2 
2604 1 
3193 1 
3194 2 
3195 1 
3196 1 
3197 2 
3198 1 
3202 1 
3203 2 
3204 1 
3313 1 
3314 2 
3315 1 
3316 1 
3317 2 
3318 1 
3319 1 
3320 2 
3321 1 
3322 1 
3323 3 
3324 1 
3442 1 
3443 3 
3444 1 
3496 1 
3497 2 
3498 1 
3553 1 
3554 2 
3555 1 
3559 1 
3560 3 
3561 1 
3616 1 
3617 2 
3618 1 
3622 1 
3623 2 
3624 1 
3673 1 
3674 2 
3675 1 
3676 1 
3677 2 
3678 1 
3679 1 
3680 2 
3681 1 
3736 1 
3737 2 
3738 1 
3739 1 
3740 2 
3741 1 
4342 1 
4343 3 
4344 1 
4393 1 
4394 3 
4395 1 
4456 1 
4457 2 
4458 1 
4462 1 
4463 2 
4464 1 
4573 1 
4574 2 
4575 1 
4576 1 
4577 2 
4578 1 
4582 1 
4583 2 
4584 1 
4636 1 
4637 2 
4638 1 
4759 1 
4760 3 
4761 1 
4762 1 
4763 2 
4764 1 
4816 1 
4817 2 
4818 1 
4822 1 
4823 2 
4824 1 
4879 1 
4880 3 
4881 1 
5533 1 
5534 3 
5535 1 
5536 1 
5537 2 
5538 1 
5539 1 
5540 3 
5541 1 
5602 1 
5603 3 
5604 1 
5716 1 
5717 2 
5718 1 
5719 1 
5720 3 
5721 1 
5773 1 
5774 2 
5775 1 
5893 1 
5894 2 
5895 1 
5896 1 
5897 2 
5898 1 
5902 1 
5903 3 
5904 1 
5962 1 
5963 2 
5964 1 
6013 1 
6014 2 
6015 1 
6019 1 
6020 2 
6021 1 
6022 1 
6023 2 
6024 1 
6673 1 
6674 3 
6675 1 
6676 1 
6677 2 
6678 1 
6679 1 
6680 2 
6681 1 
6682 1 
6683 2 
6684 1 
6739 1 
6740 2 
6741 1 
6742 1 
6743 3 
6744 1 
6859 1 
6860 3 
6861 1 
6913 1 
6914 2 
6915 1 
6916 1 
6917 2 
6918 1 
6976 1 
6977 3 
6978 1 
6979 1 
6980 2 
6981 1 
7033 1 
7034 3 
7035 1 
7216 1 
7217 2 
7218 1 
7222 1 
7223 2 
7224 1 
7756 1 
7757 2 
7758 1 
7762 1 
7763 2 
7764 1 
7816 1 
7817 2 
7818 1 
7879 1 
7880 2 
7881 1 
7939 1 
7940 2 
7941 1 
7993 1 
7994 2 
7995 1 
8002 1 
8003 2 
8004 1 
8053 1 
8054 3 
8055 1 
8059 1 
8060 2 
8061 1 
8062 1 
8063 2 
8064 1 
8113 1 
8114 2 
8115 1 
8122 1 
8123 2 
8124 1 
8236 1 
8237 2 
8238 1 
8239 1 
8240 2 
8241 1 
8242 1 
8243 2 
8244 1 
8296 1 
8297 2 
8298 1 
8299 1 
8300 3 
8301 1 
8302 1 
8303 2 
8304 1 
8893 1 
8894 2 
8895 1 
8953 1 
8954 2 
8955 1 
8962 1 
8963 3 
8964 1 
9073 1 
9074 2 
9075 1 
9076 1 
9077 2 
9078 1 
9139 1 
9140 2 
9141 1 
9142 1 
9143 2 
9144 1 
9199 1 
9200 2 
9201 1 
10036 1 
10037 2 
10038 1 
10159 1 
10160 3 
10161 1 
10396 1 
10397 3 
10398 1 
10399 1 
10400 2 
10401 1 
10402 1 
10403 2 
10404 1 
10516 1 
10517 2 
10518 1 
91 1 
92 2 
93 1 
145 1 
146 3 
147 1 
151 1 
152 2 
153 1 
154 1 
155 2 
156 1 
265 1 
266 2 
267 1 
328 1 
329 3 
330 1 
331 1 
332 2 
333 1 
334 1 
335 2 
336 1 
388 1 
389 2 
390 1 
448 1 
449 2 
450 1 
508 1 
509 2 
510 1 
514 1 
515 3 
516 1 
1165 1 
1166 2 
1167 1 
1168 1 
1169 2 
1170 1 
1174 1 
1175 2 
1176 1 
1285 1 
1286 2 
1287 1 
1354 1 
1355 2 
1356 1 
1408 1 
1409 3 
1410 1 
1411 1 
1412 2 
1413 1 
1528 1 
1529 2 
1530 1 
1534 1 
1535 3 
1536 1 
1585 1 
1586 3 
1587 1 
1588 1 
1589 2 
1590 1 
1594 1 
1595 2 
1596 1 
2248 1 
2249 2 
2250 1 
2308 1 
2309 2 
2310 1 
2311 1 
2312 3 
2313 1 
2368 1 
2369 2 
2370 1 
2425 1 
2426 2 
2427 1 
2431 1 
2432 3 
2433 1 
2488 1 
2489 2 
2490 1 
2494 1 
2495 3 
2496 1 
2605 1 
2606 2 
2607 1 
2608 1 
2609 2 
2610 1 
2614 1 
2615 2 
2616 1 
3205 1 
3206 2 
3207 1 
3208 1 
3209 3 
3210 1 
3211 1 
3212 2 
3213 1 
3265 1 
3266 2 
3267 1 
3271 1 
3272 2 
3273 1 
3328 1 
3329 3 
3330 1 
3334 1 
3335 3 
3336 1 
3385 1 
3386 2 
3387 1 
3388 1 
3389 3 
3390 1 
3391 1 
3392 2 
3393 1 
3394 1 
3395 3 
3396 1 
3445 1 
3446 2 
3447 1 
3508 1 
3509 3 
3510 1 
3511 1 
3512 2 
3513 1 
3565 1 
3566 2 
3567 1 
3574 1 
3575 2 
3576 1 
3625 1 
3626 3 
3627 1 
3691 1 
3692 3 
3693 1 
3694 1 
3695 2 
3696 1 
3745 1 
3746 3 
3747 1 
3754 1 
3755 3 
3756 1 
4348 1 
4349 3 
4350 1 
4585 1 
4586 3 
4587 1 
4588 1 
4589 2 
4590 1 
4591 1 
4592 3 
4593 1 
4594 1 
4595 2 
4596 1 
4645 1 
4646 2 
4647 1 
4654 1 
4655 2 
4656 1 
4705 1 
4706 2 
4707 1 
4708 1 
4709 3 
4710 1 
4888 1 
4889 3 
4890 1 
5485 1 
5486 2 
5487 1 
5494 1 
5495 2 
5496 1 
5545 1 
5546 3 
5547 1 
5551 1 
5552 2 
5553 1 
5605 1 
5606 2 
5607 1 
5614 1 
5615 2 
5616 1 
5665 1 
5666 3 
5667 1 
5674 1 
5675 2 
5676 1 
5728 1 
5729 2 
5730 1 
5734 1 
5735 3 
5736 1 
5845 1 
5846 2 
5847 1 
5848 1 
5849 2 
5850 1 
5854 1 
5855 2 
5856 1 
5905 1 
5906 2 
5907 1 
5908 1 
5909 2 
5910 1 
5974 1 
5975 3 
5976 1 
6034 1 
6035 2 
6036 1 
6691 1 
6692 2 
6693 1 
6751 1 
6752 2 
6753 1 
6754 1 
6755 3 
6756 1 
6805 1 
6806 3 
6807 1 
6808 1 
6809 3 
6810 1 
6865 1 
6866 2 
6867 1 
6871 1 
6872 2 
6873 1 
6925 1 
6926 3 
6927 1 
6928 1 
6929 2 
6930 1 
6991 1 
6992 3 
6993 1 
7051 1 
7052 2 
7053 1 
7108 1 
7109 3 
7110 1 
7111 1 
7112 2 
7113 1 
7171 1 
7172 2 
7173 1 
7228 1 
7229 2 
7230 1 
7234 1 
7235 2 
7236 1 
7771 1 
7772 3 
7773 1 
7834 1 
7835 3 
7836 1 
7885 1 
7886 3 
7887 1 
7888 1 
7889 2 
7890 1 
7891 1 
7892 2 
7893 1 
7894 1 
7895 3 
7896 1 
7951 1 
7952 3 
7953 1 
8005 1 
8006 2 
8007 1 
8071 1 
8072 2 
8073 1 
8074 1 
8075 3 
8076 1 
8185 1 
8186 2 
8187 1 
8194 1 
8195 3 
8196 1 
8245 1 
8246 2 
8247 1 
8248 1 
8249 3 
8250 1 
8254 1 
8255 2 
8256 1 
8305 1 
8306 2 
8307 1 
8905 1 
8906 2 
8907 1 
8908 1 
8909 3 
8910 1 
8971 1 
8972 2 
8973 1 
9085 1 
9086 3 
9087 1 
9088 1 
9089 2 
9090 1 
9148 1 
9149 3 
9150 1 
9271 1 
9272 2 
9273 1 
9328 1 
9329 2 
9330 1 
9331 1 
9332 2 
9333 1 
9334 1 
9335 2 
9336 1 
9985 1 
9986 3 
9987 1 
9988 1 
9989 2 
9990 1 
10105 1 
10106 3 
10107 1 
10108 1 
10109 2 
10110 1 
10114 1 
10115 3 
10116 1 
10285 1 
10286 3 
10287 1 
10288 1 
10289 3 
10290 1 
10345 1 
10346 2 
10347 1 
10408 1 
10409 3 
10410 1 
10411 1 
10412 2 
10413 1 
10414 1 
10415 2 
10416 1 
40 1 
41 2 
42 1 
46 1 
47 2 
48 1 
103 1 
104 3 
105 1 
106 1 
107 2 
108 1 
160 1 
161 3 
162 1 
166 1 
167 2 
168 1 
220 1 
221 2 
222 1 
283 1 
284 2 
285 1 
337 1 
338 2 
339 1 
340 1 
341 2 
342 1 
403 1 
404 3 
405 1 
457 1 
458 2 
459 1 
460 1 
461 2 
462 1 
517 1 
518 3 
519 1 
520 1 
521 2 
522 1 
526 1 
527 2 
528 1 
1183 1 
1184 2 
1185 1 
1237 1 
1238 2 
1239 1 
1243 1 
1244 2 
1245 1 
1303 1 
1304 3 
1305 1 
1306 1 
1307 2 
1308 1 
1357 1 
1358 2 
1359 1 
1363 1 
1364 2 
1365 1 
1366 1 
1367 2 
1368 1 
1423 1 
1424 2 
1425 1 
1540 1 
1541 2 
1542 1 
1543 1 
1544 2 
1545 1 
1597 1 
1598 3 
1599 1 
1603 1 
1604 3 
1605 1 
1663 1 
1664 2 
1665 1 
2257 1 
2258 2 
2259 1 
2260 1 
2261 2 
2262 1 
2383 1 
2384 2 
2385 1 
2437 1 
2438 2 
2439 1 
2446 1 
2447 2 
2448 1 
2557 1 
2558 2 
2559 1 
2563 1 
2564 2 
2565 1 
2617 1 
2618 3 
2619 1 
2620 1 
2621 2 
2622 1 
2626 1 
2627 2 
2628 1 
3280 1 
3281 2 
3282 1 
3283 1 
3284 2 
3285 1 
3340 1 
3341 2 
3342 1 
3397 1 
3398 3 
3399 1 
3403 1 
3404 3 
3405 1 
3460 1 
3461 3 
3462 1 
3463 1 
3464 2 
3465 1 
3466 1 
3467 2 
3468 1 
3577 1 
3578 3 
3579 1 
3637 1 
3638 2 
3639 1 
3700 1 
3701 3 
3702 1 
3766 1 
3767 2 
3768 1 
4423 1 
4424 3 
4425 1 
4426 1 
4427 3 
4428 1 
4480 1 
4481 2 
4482 1 
4486 1 
4487 2 
4488 1 
4537 1 
4538 2 
4539 1 
4540 1 
4541 2 
4542 1 
4600 1 
4601 3 
4602 1 
4603 1 
4604 2 
4605 1 
4657 1 
4658 2 
4659 1 
4660 1 
4661 2 
4662 1 
4720 1 
4721 2 
4722 1 
4723 1 
4724 2 
4725 1 
4726 1 
4727 2 
4728 1 
4777 1 
4778 2 
4779 1 
4786 1 
4787 2 
4788 1 
4837 1 
4838 2 
4839 1 
4843 1 
4844 2 
4845 1 
4846 1 
4847 2 
4848 1 
4903 1 
4904 2 
4905 1 
5506 1 
5507 2 
5508 1 
5563 1 
5564 2 
5565 1 
5617 1 
5618 2 
5619 1 
5680 1 
5681 3 
5682 1 
5740 1 
5741 2 
5742 1 
5743 1 
5744 3 
5745 1 
5806 1 
5807 2 
5808 1 
5857 1 
5858 2 
5859 1 
5863 1 
5864 2 
5865 1 
5917 1 
5918 2 
5919 1 
5920 1 
5921 3 
5922 1 
5983 1 
5984 2 
5985 1 
5986 1 
5987 3 
5988 1 
6046 1 
6047 3 
6048 1 
6697 1 
6698 2 
6699 1 
6703 1 
6704 3 
6705 1 
6766 1 
6767 3 
6768 1 
6820 1 
6821 2 
6822 1 
6877 1 
6878 2 
6879 1 
6886 1 
6887 2 
6888 1 
6937 1 
6938 2 
6939 1 
6943 1 
6944 3 
6945 1 
6997 1 
6998 3 
6999 1 
7000 1 
7001 2 
7002 1 
7006 1 
7007 3 
7008 1 
7057 1 
7058 2 
7059 1 
7060 1 
7061 3 
7062 1 
7066 1 
7067 3 
7068 1 
7120 1 
7121 2 
7122 1 
7186 1 
7187 2 
7188 1 
7237 1 
7238 2 
7239 1 
7243 1 
7244 2 
7245 1 
7783 1 
7784 2 
7785 1 
7837 1 
7838 3 
7839 1 
7846 1 
7847 2 
7848 1 
7897 1 
7898 3 
7899 1 
7900 1 
7901 3 
7902 1 
8017 1 
8018 2 
8019 1 
8137 1 
8138 2 
8139 1 
8143 1 
8144 2 
8145 1 
8197 1 
8198 2 
8199 1 
8200 1 
8201 2 
8202 1 
8260 1 
8261 3 
8262 1 
8263 1 
8264 2 
8265 1 
8266 1 
8267 3 
8268 1 
8317 1 
8318 2 
8319 1 
8320 1 
8321 3 
8322 1 
8326 1 
8327 2 
8328 1 
8923 1 
8924 2 
8925 1 
8926 1 
8927 2 
8928 1 
8980 1 
8981 2 
8982 1 
8983 1 
8984 3 
8985 1 
8986 1 
8987 3 
8988 1 
9100 1 
9101 3 
9102 1 
9106 1 
9107 2 
9108 1 
9157 1 
9158 2 
9159 1 
9160 1 
9161 2 
9162 1 
9163 1 
9164 3 
9165 1 
9166 1 
9167 2 
9168 1 
9283 1 
9284 3 
9285 1 
9286 1 
9287 2 
9288 1 
10003 1 
10004 3 
10005 1 
10060 1 
10061 2 
10062 1 
10183 1 
10184 2 
10185 1 
10243 1 
10244 2 
10245 1 
10246 1 
10247 2 
10248 1 
10306 1 
10307 2 
10308 1 
10363 1 
10364 3 
10365 1 
10417 1 
10418 2 
10419 1 
10420 1 
10421 2 
10422 1 
10423 1 
10424 3 
10425 1 
10483 1 
10484 3 
10485 1 
10543 1 
10544 2 
10545 1 
10546 1 
10547 2 
10548 1 
115 1 
116 2 
117 1 
172 1 
173 3 
174 1 
178 1 
179 2 
180 1 
232 1 
233 2 
234 1 
289 1 
290 3 
291 1 
352 1 
353 3 
354 1 
358 1 
359 3 
360 1 
415 1 
416 3 
417 1 
469 1 
470 2 
471 1 
538 1 
539 3 
540 1 
1249 1 
1250 2 
1251 1 
1252 1 
1253 2 
1254 1 
1309 1 
1310 3 
1311 1 
1312 1 
1313 2 
1314 1 
1318 1 
1319 3 
1320 1 
1375 1 
1376 2 
1377 1 
1378 1 
1379 3 
1380 1 
1432 1 
1433 2 
1434 1 
1435 1 
1436 3 
1437 1 
1438 1 
1439 2 
1440 1 
1489 1 
1490 2 
1491 1 
1558 1 
1559 3 
1560 1 
1618 1 
1619 2 
1620 1 
1672 1 
1673 3 
1674 1 
1675 1 
1676 2 
1677 1 
2272 1 
2273 2 
2274 1 
2329 1 
2330 3 
2331 1 
2332 1 
2333 2 
2334 1 
2338 1 
2339 2 
2340 1 
2395 1 
2396 2 
2397 1 
2398 1 
2399 2 
2400 1 
2449 1 
2450 2 
2451 1 
2458 1 
2459 2 
2460 1 
2512 1 
2513 3 
2514 1 
2572 1 
2573 2 
2574 1 
2575 1 
2576 2 
2577 1 
2578 1 
2579 3 
2580 1 
3229 1 
3230 2 
3231 1 
3235 1 
3236 3 
3237 1 
3289 1 
3290 2 
3291 1 
3292 1 
3293 3 
3294 1 
3298 1 
3299 3 
3300 1 
3349 1 
3350 2 
3351 1 
3358 1 
3359 2 
3360 1 
3412 1 
3413 2 
3414 1 
3589 1 
3590 2 
3591 1 
3649 1 
3650 2 
3651 1 
3652 1 
3653 3 
3654 1 
3709 1 
3710 2 
3711 1 
3769 1 
3770 2 
3771 1 
3772 1 
3773 3 
3774 1 
3775 1 
3776 2 
3777 1 
3778 1 
3779 3 
3780 1 
4375 1 
4376 2 
4377 1 
4378 1 
4379 2 
4380 1 
4432 1 
4433 2 
4434 1 
4489 1 
4490 3 
4491 1 
4609 1 
4610 2 
4611 1 
4612 1 
4613 3 
4614 1 
4675 1 
4676 2 
4677 1 
4729 1 
4730 2 
4731 1 
4738 1 
4739 3 
4740 1 
4795 1 
4796 3 
4797 1 
4915 1 
4916 2 
4917 1 
4918 1 
4919 3 
4920 1 
5515 1 
5516 2 
5517 1 
5518 1 
5519 3 
5520 1 
5689 1 
5690 2 
5691 1 
5755 1 
5756 3 
5757 1 
5812 1 
5813 2 
5814 1 
5869 1 
5870 2 
5871 1 
5875 1 
5876 2 
5877 1 
5929 1 
5930 2 
5931 1 
5935 1 
5936 3 
5937 1 
5998 1 
5999 3 
6000 1 
6049 1 
6050 2 
6051 1 
6058 1 
6059 2 
6060 1 
6709 1 
6710 3 
6711 1 
6712 1 
6713 2 
6714 1 
6715 1 
6716 2 
6717 1 
6778 1 
6779 2 
6780 1 
6829 1 
6830 2 
6831 1 
6835 1 
6836 2 
6837 1 
6838 1 
6839 3 
6840 1 
6892 1 
6893 2 
6894 1 
6895 1 
6896 3 
6897 1 
6898 1 
6899 3 
6900 1 
6958 1 
6959 2 
6960 1 
7012 1 
7013 3 
7014 1 
7069 1 
7070 3 
7071 1 
7132 1 
7133 3 
7134 1 
7192 1 
7193 2 
7194 1 
7249 1 
7250 2 
7251 1 
7258 1 
7259 3 
7260 1 
7795 1 
7796 2 
7797 1 
7852 1 
7853 3 
7854 1 
7915 1 
7916 2 
7917 1 
8032 1 
8033 3 
8034 1 
8095 1 
8096 2 
8097 1 
8158 1 
8159 2 
8160 1 
8215 1 
8216 2 
8217 1 
8218 1 
8219 3 
8220 1 
8929 1 
8930 2 
8931 1 
9049 1 
9050 2 
9051 1 
9109 1 
9110 3 
9111 1 
9115 1 
9116 2 
9117 1 
9118 1 
9119 2 
9120 1 
9169 1 
9170 3 
9171 1 
9172 1 
9173 3 
9174 1 
9178 1 
9179 2 
9180 1 
9289 1 
9290 2 
9291 1 
9295 1 
9296 2 
9297 1 
10009 1 
10010 2 
10011 1 
10012 1 
10013 3 
10014 1 
10015 1 
10016 3 
10017 1 
10018 1 
10019 3 
10020 1 
10075 1 
10076 3 
10077 1 
10078 1 
10079 2 
10080 1 
10138 1 
10139 2 
10140 1 
10189 1 
10190 2 
10191 1 
10192 1 
10193 3 
10194 1 
10249 1 
10250 2 
10251 1 
10255 1 
10256 3 
10257 1 
10309 1 
10310 2 
10311 1 
10312 1 
10313 3 
10314 1 
10378 1 
10379 2 
10380 1 
10429 1 
10430 3 
10431 1 
10435 1 
10436 3 
10437 1 
10438 1 
10439 3 
10440 1 
541 1 
542 3 
543 1 
550 1 
551 2 
552 1 
607 1 
608 2 
609 1 
661 1 
662 2 
663 1 
670 1 
671 3 
672 1 
781 1 
782 2 
783 1 
790 1 
791 3 
792 1 
847 1 
848 3 
849 1 
901 1 
902 3 
903 1 
910 1 
911 2 
912 1 
961 1 
962 3 
963 1 
1021 1 
1022 2 
1023 1 
1027 1 
1028 2 
1029 1 
1081 1 
1082 3 
1083 1 
1684 1 
1685 2 
1686 1 
1690 1 
1691 2 
1692 1 
1741 1 
1742 2 
1743 1 
1747 1 
1748 3 
1749 1 
1861 1 
1862 3 
1863 1 
1867 1 
1868 2 
1869 1 
1921 1 
1922 3 
1923 1 
1930 1 
1931 3 
1932 1 
1984 1 
1985 3 
1986 1 
1987 1 
1988 2 
1989 1 
1990 1 
1991 3 
1992 1 
2041 1 
2042 2 
2043 1 
2044 1 
2045 3 
2046 1 
2101 1 
2102 3 
2103 1 
2161 1 
2162 3 
2163 1 
2170 1 
2171 3 
2172 1 
2641 1 
2642 3 
2643 1 
2644 1 
2645 2 
2646 1 
2710 1 
2711 3 
2712 1 
2824 1 
2825 2 
2826 1 
2827 1 
2828 2 
2829 1 
2881 1 
2882 3 
2883 1 
2947 1 
2948 2 
2949 1 
3001 1 
3002 2 
3003 1 
3010 1 
3011 3 
3012 1 
3061 1 
3062 3 
3063 1 
3064 1 
3065 2 
3066 1 
3067 1 
3068 3 
3069 1 
3841 1 
3842 2 
3843 1 
3844 1 
3845 2 
3846 1 
3850 1 
3851 3 
3852 1 
3901 1 
3902 3 
3903 1 
3910 1 
3911 3 
3912 1 
4081 1 
4082 2 
4083 1 
4150 1 
4151 3 
4152 1 
4261 1 
4262 2 
4263 1 
4264 1 
4265 2 
4266 1 
4267 1 
4268 2 
4269 1 
4930 1 
4931 2 
4932 1 
4984 1 
4985 3 
4986 1 
5044 1 
5045 2 
5046 1 
5050 1 
5051 2 
5052 1 
5107 1 
5108 3 
5109 1 
5110 1 
5111 3 
5112 1 
5161 1 
5162 2 
5163 1 
5221 1 
5222 2 
5223 1 
5227 1 
5228 3 
5229 1 
5230 1 
5231 2 
5232 1 
5281 1 
5282 2 
5283 1 
5284 1 
5285 3 
5286 1 
5350 1 
5351 3 
5352 1 
5404 1 
5405 2 
5406 1 
6127 1 
6128 2 
6129 1 
6181 1 
6182 2 
6183 1 
6184 1 
6185 2 
6186 1 
6250 1 
6251 2 
6252 1 
6307 1 
6308 3 
6309 1 
6361 1 
6362 2 
6363 1 
6364 1 
6365 2 
6366 1 
6421 1 
6422 2 
6423 1 
6427 1 
6428 3 
6429 1 
6430 1 
6431 2 
6432 1 
6487 1 
6488 3 
6489 1 
6541 1 
6542 2 
6543 1 
6550 1 
6551 3 
6552 1 
6601 1 
6602 2 
6603 1 
6604 1 
6605 2 
6606 1 
7264 1 
7265 3 
7266 1 
7267 1 
7268 2 
7269 1 
7270 1 
7271 2 
7272 1 
7327 1 
7328 2 
7329 1 
7384 1 
7385 2 
7386 1 
7387 1 
7388 2 
7389 1 
7390 1 
7391 2 
7392 1 
7444 1 
7445 3 
7446 1 
7447 1 
7448 3 
7449 1 
7570 1 
7571 3 
7572 1 
7630 1 
7631 2 
7632 1 
8410 1 
8411 3 
8412 1 
8461 1 
8462 2 
8463 1 
8464 1 
8465 2 
8466 1 
8521 1 
8522 3 
8523 1 
8524 1 
8525 2 
8526 1 
8581 1 
8582 2 
8583 1 
8587 1 
8588 2 
8589 1 
8704 1 
8705 2 
8706 1 
8761 1 
8762 2 
8763 1 
8764 1 
8765 2 
8766 1 
8770 1 
8771 3 
8772 1 
9361 1 
9362 3 
9363 1 
9364 1 
9365 2 
9366 1 
9421 1 
9422 2 
9423 1 
9424 1 
9425 2 
9426 1 
9427 1 
9428 3 
9429 1 
9430 1 
9431 3 
9432 1 
9541 1 
9542 2 
9543 1 
9547 1 
9548 3 
9549 1 
9601 1 
9602 3 
9603 1 
9607 1 
9608 2 
9609 1 
9610 1 
9611 2 
9612 1 
9661 1 
9662 2 
9663 1 
9664 1 
9665 2 
9666 1 
9670 1 
9671 2 
9672 1 
9727 1 
9728 3 
9729 1 
9730 1 
9731 2 
9732 1 
9787 1 
9788 2 
9789 1 
10567 1 
10568 2 
10569 1 
10570 1 
10571 2 
10572 1 
10627 1 
10628 3 
10629 1 
10681 1 
10682 3 
10683 1 
10684 1 
10685 3 
10686 1 
10747 1 
10748 2 
10749 1 
10750 1 
10751 3 
10752 1 
10804 1 
10805 2 
10806 1 
10861 1 
10862 2 
10863 1 
10864 1 
10865 2 
10866 1 
10930 1 
10931 2 
10932 1 
11041 1 
11042 2 
11043 1 
11050 1 
11051 2 
11052 1 
553 1 
554 2 
555 1 
556 1 
557 3 
558 1 
559 1 
560 3 
561 1 
619 1 
620 3 
621 1 
673 1 
674 3 
675 1 
676 1 
677 2 
678 1 
733 1 
734 2 
735 1 
736 1 
737 2 
738 1 
742 1 
743 3 
744 1 
793 1 
794 2 
795 1 
799 1 
800 2 
801 1 
856 1 
857 2 
858 1 
913 1 
914 2 
915 1 
922 1 
923 2 
924 1 
973 1 
974 3 
975 1 
976 1 
977 2 
978 1 
979 1 
980 2 
981 1 
1033 1 
1034 2 
1035 1 
1036 1 
1037 2 
1038 1 
1039 1 
1040 2 
1041 1 
1042 1 
1043 3 
1044 1 
1093 1 
1094 2 
1095 1 
1693 1 
1694 2 
1695 1 
1699 1 
1700 2 
1701 1 
1753 1 
1754 2 
1755 1 
1756 1 
1757 3 
1758 1 
1879 1 
1880 3 
1881 1 
1936 1 
1937 2 
1938 1 
1999 1 
2000 2 
2001 1 
2002 1 
2003 2 
2004 1 
2053 1 
2054 3 
2055 1 
2059 1 
2060 2 
2061 1 
2119 1 
2120 2 
2121 1 
2122 1 
2123 2 
2124 1 
2653 1 
2654 2 
2655 1 
2659 1 
2660 3 
2661 1 
2662 1 
2663 3 
2664 1 
2713 1 
2714 3 
2715 1 
2716 1 
2717 2 
2718 1 
2719 1 
2720 2 
2721 1 
2896 1 
2897 2 
2898 1 
2962 1 
2963 3 
2964 1 
3013 1 
3014 2 
3015 1 
3019 1 
3020 3 
3021 1 
3073 1 
3074 3 
3075 1 
3079 1 
3080 2 
3081 1 
3142 1 
3143 3 
3144 1 
3802 1 
3803 2 
3804 1 
3856 1 
3857 2 
3858 1 
3859 1 
3860 2 
3861 1 
3982 1 
3983 3 
3984 1 
4036 1 
4037 3 
4038 1 
4039 1 
4040 3 
4041 1 
4096 1 
4097 2 
4098 1 
4102 1 
4103 2 
4104 1 
4153 1 
4154 3 
4155 1 
4213 1 
4214 3 
4215 1 
4273 1 
4274 3 
4275 1 
4276 1 
4277 3 
4278 1 
4279 1 
4280 2 
4281 1 
4933 1 
4934 2 
4935 1 
4936 1 
4937 2 
4938 1 
4939 1 
4940 2 
4941 1 
4942 1 
4943 2 
4944 1 
4999 1 
5000 2 
5001 1 
5002 1 
5003 3 
5004 1 
5053 1 
5054 2 
5055 1 
5059 1 
5060 3 
5061 1 
5122 1 
5123 2 
5124 1 
5173 1 
5174 2 
5175 1 
5176 1 
5177 2 
5178 1 
5179 1 
5180 2 
5181 1 
5236 1 
5237 2 
5238 1 
5296 1 
5297 3 
5298 1 
5353 1 
5354 2 
5355 1 
5356 1 
5357 2 
5358 1 
5359 1 
5360 2 
5361 1 
5416 1 
5417 2 
5418 1 
5422 1 
5423 2 
5424 1 
6073 1 
6074 2 
6075 1 
6079 1 
6080 3 
6081 1 
6316 1 
6317 2 
6318 1 
6322 1 
6323 2 
6324 1 
6376 1 
6377 2 
6378 1 
6556 1 
6557 2 
6558 1 
6559 1 
6560 3 
6561 1 
6562 1 
6563 3 
6564 1 
6619 1 
6620 2 
6621 1 
7279 1 
7280 2 
7281 1 
7333 1 
7334 2 
7335 1 
7393 1 
7394 2 
7395 1 
7396 1 
7397 2 
7398 1 
7402 1 
7403 2 
7404 1 
7456 1 
7457 3 
7458 1 
7516 1 
7517 2 
7518 1 
7519 1 
7520 3 
7521 1 
7573 1 
7574 2 
7575 1 
7576 1 
7577 3 
7578 1 
7639 1 
7640 2 
7641 1 
7699 1 
7700 2 
7701 1 
8353 1 
8354 3 
8355 1 
8416 1 
8417 2 
8418 1 
8422 1 
8423 3 
8424 1 
8473 1 
8474 2 
8475 1 
8536 1 
8537 3 
8538 1 
8542 1 
8543 3 
8544 1 
8596 1 
8597 2 
8598 1 
8602 1 
8603 3 
8604 1 
8653 1 
8654 3 
8655 1 
8659 1 
8660 3 
8661 1 
8662 1 
8663 3 
8664 1 
8779 1 
8780 2 
8781 1 
8836 1 
8837 2 
8838 1 
9442 1 
9443 3 
9444 1 
9499 1 
9500 2 
9501 1 
9502 1 
9503 2 
9504 1 
9613 1 
9614 3 
9615 1 
9616 1 
9617 2 
9618 1 
9619 1 
9620 2 
9621 1 
9682 1 
9683 3 
9684 1 
9796 1 
9797 2 
9798 1 
9853 1 
9854 2 
9855 1 
9862 1 
9863 2 
9864 1 
9916 1 
9917 2 
9918 1 
9919 1 
9920 2 
9921 1 
10579 1 
10580 2 
10581 1 
10639 1 
10640 3 
10641 1 
10642 1 
10643 2 
10644 1 
10699 1 
10700 3 
10701 1 
10813 1 
10814 2 
10815 1 
10816 1 
10817 2 
10818 1 
10819 1 
10820 3 
10821 1 
10876 1 
10877 3 
10878 1 
10933 1 
10934 2 
10935 1 
10936 1 
10937 3 
10938 1 
10939 1 
10940 2 
10941 1 
10993 1 
10994 3 
10995 1 
11002 1 
11003 3 
11004 1 
685 1 
686 2 
687 1 
691 1 
692 3 
693 1 
748 1 
749 2 
750 1 
751 1 
752 2 
753 1 
754 1 
755 2 
756 1 
811 1 
812 2 
813 1 
988 1 
989 2 
990 1 
991 1 
992 2 
993 1 
1051 1 
1052 2 
1053 1 
1054 1 
1055 2 
1056 1 
1108 1 
1109 2 
1110 1 
1828 1 
1829 2 
1830 1 
1831 1 
1832 2 
1833 1 
1834 1 
1835 3 
1836 1 
1885 1 
1886 2 
1887 1 
1954 1 
1955 3 
1956 1 
2068 1 
2069 3 
2070 1 
2125 1 
2126 2 
2127 1 
2128 1 
2129 3 
2130 1 
2134 1 
2135 3 
2136 1 
2185 1 
2186 2 
2187 1 
2191 1 
2192 3 
2193 1 
2674 1 
2675 2 
2676 1 
2725 1 
2726 3 
2727 1 
2728 1 
2729 2 
2730 1 
2731 1 
2732 3 
2733 1 
2785 1 
2786 2 
2787 1 
2788 1 
2789 2 
2790 1 
2791 1 
2792 2 
2793 1 
2911 1 
2912 2 
2913 1 
2968 1 
2969 2 
2970 1 
2971 1 
2972 2 
2973 1 
3028 1 
3029 2 
3030 1 
3085 1 
3086 2 
3087 1 
3088 1 
3089 3 
3090 1 
3811 1 
3812 3 
3813 1 
3865 1 
3866 3 
3867 1 
3871 1 
3872 2 
3873 1 
3874 1 
3875 3 
3876 1 
3934 1 
3935 2 
3936 1 
3991 1 
3992 2 
3993 1 
4048 1 
4049 2 
4050 1 
4168 1 
4169 2 
4170 1 
4285 1 
4286 3 
4287 1 
4945 1 
4946 3 
4947 1 
4951 1 
4952 3 
4953 1 
5005 1 
5006 2 
5007 1 
5065 1 
5066 3 
5067 1 
5068 1 
5069 3 
5070 1 
5074 1 
5075 3 
5076 1 
5128 1 
5129 3 
5130 1 
5131 1 
5132 2 
5133 1 
5248 1 
5249 3 
5250 1 
5308 1 
5309 3 
5310 1 
6091 1 
6092 3 
6093 1 
6145 1 
6146 3 
6147 1 
6148 1 
6149 3 
6150 1 
6154 1 
6155 2 
6156 1 
6214 1 
6215 2 
6216 1 
6271 1 
6272 2 
6273 1 
6388 1 
6389 2 
6390 1 
6394 1 
6395 2 
6396 1 
6505 1 
6506 2 
6507 1 
6508 1 
6509 3 
6510 1 
6511 1 
6512 3 
6513 1 
6514 1 
6515 2 
6516 1 
6574 1 
6575 2 
6576 1 
6625 1 
6626 2 
6627 1 
6631 1 
6632 2 
6633 1 
6634 1 
6635 2 
6636 1 
7285 1 
7286 2 
7287 1 
7291 1 
7292 2 
7293 1 
7354 1 
7355 2 
7356 1 
7405 1 
7406 2 
7407 1 
7411 1 
7412 2 
7413 1 
7531 1 
7532 3 
7533 1 
7585 1 
7586 2 
7587 1 
7645 1 
7646 3 
7647 1 
7651 1 
7652 2 
7653 1 
7705 1 
7706 2 
7707 1 
7711 1 
7712 2 
7713 1 
7714 1 
7715 3 
7716 1 
8374 1 
8375 2 
8376 1 
8488 1 
8489 2 
8490 1 
8491 1 
8492 2 
8493 1 
8494 1 
8495 2 
8496 1 
8554 1 
8555 2 
8556 1 
8605 1 
8606 2 
8607 1 
8674 1 
8675 2 
8676 1 
8728 1 
8729 2 
8730 1 
8731 1 
8732 3 
8733 1 
8785 1 
8786 3 
8787 1 
8794 1 
8795 2 
8796 1 
9391 1 
9392 3 
9393 1 
9451 1 
9452 3 
9453 1 
9568 1 
9569 2 
9570 1 
9685 1 
9686 2 
9687 1 
9694 1 
9695 2 
9696 1 
9745 1 
9746 2 
9747 1 
9748 1 
9749 2 
9750 1 
9754 1 
9755 2 
9756 1 
10588 1 
10589 2 
10590 1 
10645 1 
10646 3 
10647 1 
10651 1 
10652 3 
10653 1 
10654 1 
10655 3 
10656 1 
10831 1 
10832 2 
10833 1 
10834 1 
10835 2 
10836 1 
10891 1 
10892 2 
10893 1 
10951 1 
10952 2 
10953 1 
11014 1 
11015 2 
11016 1 
11071 1 
11072 2 
11073 1 
577 1 
578 2 
579 1 
580 1 
581 2 
582 1 
583 1 
584 2 
585 1 
643 1 
644 2 
645 1 
703 1 
704 2 
705 1 
706 1 
707 2 
708 1 
760 1 
761 2 
762 1 
823 1 
824 2 
825 1 
826 1 
827 2 
828 1 
880 1 
881 3 
882 1 
1006 1 
1007 3 
1008 1 
1066 1 
1067 3 
1068 1 
1117 1 
1118 2 
1119 1 
1123 1 
1124 3 
1125 1 
1717 1 
1718 2 
1719 1 
1720 1 
1721 2 
1722 1 
1723 1 
1724 2 
1725 1 
1783 1 
1784 2 
1785 1 
1837 1 
1838 2 
1839 1 
1846 1 
1847 3 
1848 1 
1897 1 
1898 2 
1899 1 
1900 1 
1901 2 
1902 1 
1957 1 
1958 2 
1959 1 
2023 1 
2024 2 
2025 1 
2077 1 
2078 2 
2079 1 
2080 1 
2081 3 
2082 1 
2083 1 
2084 2 
2085 1 
2137 1 
2138 3 
2139 1 
2140 1 
2141 2 
2142 1 
2203 1 
2204 2 
2205 1 
2680 1 
2681 3 
2682 1 
2686 1 
2687 3 
2688 1 
2743 1 
2744 2 
2745 1 
2803 1 
2804 2 
2805 1 
2863 1 
2864 2 
2865 1 
2920 1 
2921 2 
2922 1 
2977 1 
2978 2 
2979 1 
2983 1 
2984 2 
2985 1 
3043 1 
3044 2 
3045 1 
3046 1 
3047 2 
3048 1 
3163 1 
3164 2 
3165 1 
3820 1 
3821 3 
3822 1 
3880 1 
3881 2 
3882 1 
3997 1 
3998 2 
3999 1 
4003 1 
4004 2 
4005 1 
4063 1 
4064 2 
4065 1 
4297 1 
4298 2 
4299 1 
4957 1 
4958 2 
4959 1 
4966 1 
4967 2 
4968 1 
5017 1 
5018 2 
5019 1 
5020 1 
5021 2 
5022 1 
5023 1 
5024 3 
5025 1 
5080 1 
5081 2 
5082 1 
5086 1 
5087 3 
5088 1 
5143 1 
5144 2 
5145 1 
5197 1 
5198 2 
5199 1 
5206 1 
5207 3 
5208 1 
5257 1 
5258 2 
5259 1 
5266 1 
5267 2 
5268 1 
5317 1 
5318 3 
5319 1 
5320 1 
5321 2 
5322 1 
5383 1 
5384 2 
5385 1 
5386 1 
5387 2 
5388 1 
5443 1 
5444 2 
5445 1 
6163 1 
6164 2 
6165 1 
6280 1 
6281 2 
6282 1 
6403 1 
6404 2 
6405 1 
6406 1 
6407 2 
6408 1 
6460 1 
6461 2 
6462 1 
6466 1 
6467 2 
6468 1 
6586 1 
6587 2 
6588 1 
6640 1 
6641 2 
6642 1 
7306 1 
7307 2 
7308 1 
7417 1 
7418 2 
7419 1 
7426 1 
7427 2 
7428 1 
7477 1 
7478 3 
7479 1 
7483 1 
7484 3 
7485 1 
7540 1 
7541 2 
7542 1 
7546 1 
7547 2 
7548 1 
7600 1 
7601 3 
7602 1 
7606 1 
7607 2 
7608 1 
7666 1 
7667 2 
7668 1 
7717 1 
7718 3 
7719 1 
8383 1 
8384 2 
8385 1 
8500 1 
8501 2 
8502 1 
8560 1 
8561 3 
8562 1 
8680 1 
8681 2 
8682 1 
8686 1 
8687 3 
8688 1 
8743 1 
8744 2 
8745 1 
8746 1 
8747 2 
8748 1 
8803 1 
8804 2 
8805 1 
8806 1 
8807 2 
8808 1 
8866 1 
8867 3 
8868 1 
9520 1 
9521 2 
9522 1 
9577 1 
9578 2 
9579 1 
9583 1 
9584 3 
9585 1 
9637 1 
9638 3 
9639 1 
9646 1 
9647 2 
9648 1 
9703 1 
9704 3 
9705 1 
9757 1 
9758 3 
9759 1 
9760 1 
9761 2 
9762 1 
9766 1 
9767 3 
9768 1 
9826 1 
9827 2 
9828 1 
9880 1 
9881 2 
9882 1 
9943 1 
9944 2 
9945 1 
10597 1 
10598 2 
10599 1 
10600 1 
10601 3 
10602 1 
10657 1 
10658 2 
10659 1 
10663 1 
10664 2 
10665 1 
10726 1 
10727 3 
10728 1 
10786 1 
10787 2 
10788 1 
10840 1 
10841 2 
10842 1 
10897 1 
10898 3 
10899 1 
10903 1 
10904 2 
10905 1 
10957 1 
10958 2 
10959 1 
11017 1 
11018 2 
11019 1 
11077 1 
11078 2 
11079 1 
11080 1 
11081 2 
11082 1 
11083 1 
11084 3 
11085 1 
595 1 
596 2 
597 1 
598 1 
599 3 
600 1 
772 1 
773 2 
774 1 
835 1 
836 2 
837 1 
892 1 
893 3 
894 1 
895 1 
896 3 
897 1 
955 1 
956 3 
957 1 
958 1 
959 3 
960 1 
1012 1 
1013 2 
1014 1 
1018 1 
1019 2 
1020 1 
1075 1 
1076 2 
1077 1 
1132 1 
1133 3 
1134 1 
1138 1 
1139 2 
1140 1 
1789 1 
1790 2 
1791 1 
1852 1 
1853 2 
1854 1 
1858 1 
1859 3 
1860 1 
2092 1 
2093 2 
2094 1 
2152 1 
2153 3 
2154 1 
2158 1 
2159 2 
2160 1 
2689 1 
2690 2 
2691 1 
2752 1 
2753 2 
2754 1 
2809 1 
2810 3 
2811 1 
2815 1 
2816 3 
2817 1 
2872 1 
2873 2 
2874 1 
2875 1 
2876 2 
2877 1 
2935 1 
2936 2 
2937 1 
2989 1 
2990 2 
2991 1 
3115 1 
3116 2 
3117 1 
3118 1 
3119 3 
3120 1 
3172 1 
3173 3 
3174 1 
3838 1 
3839 2 
3840 1 
3892 1 
3893 2 
3894 1 
3895 1 
3896 3 
3897 1 
3949 1 
3950 2 
3951 1 
3952 1 
3953 2 
3954 1 
3955 1 
3956 3 
3957 1 
4069 1 
4070 2 
4071 1 
4072 1 
4073 2 
4074 1 
4078 1 
4079 3 
4080 1 
4129 1 
4130 2 
4131 1 
4132 1 
4133 2 
4134 1 
4189 1 
4190 2 
4191 1 
4249 1 
4250 2 
4251 1 
4255 1 
4256 2 
4257 1 
4309 1 
4310 2 
4311 1 
4312 1 
4313 2 
4314 1 
4318 1 
4319 2 
4320 1 
4969 1 
4970 2 
4971 1 
4972 1 
4973 2 
4974 1 
4975 1 
4976 2 
4977 1 
5092 1 
5093 2 
5094 1 
5098 1 
5099 3 
5100 1 
5209 1 
5210 2 
5211 1 
5212 1 
5213 2 
5214 1 
5275 1 
5276 2 
5277 1 
5329 1 
5330 2 
5331 1 
5332 1 
5333 3 
5334 1 
5389 1 
5390 3 
5391 1 
5455 1 
5456 3 
5457 1 
6175 1 
6176 2 
6177 1 
6232 1 
6233 2 
6234 1 
6235 1 
6236 2 
6237 1 
6298 1 
6299 3 
6300 1 
6352 1 
6353 2 
6354 1 
6358 1 
6359 2 
6360 1 
6418 1 
6419 3 
6420 1 
6529 1 
6530 2 
6531 1 
6532 1 
6533 2 
6534 1 
6649 1 
6650 2 
6651 1 
6658 1 
6659 3 
6660 1 
7372 1 
7373 2 
7374 1 
7432 1 
7433 2 
7434 1 
7555 1 
7556 2 
7557 1 
7558 1 
7559 3 
7560 1 
7612 1 
7613 2 
7614 1 
7615 1 
7616 3 
7617 1 
7678 1 
7679 2 
7680 1 
7735 1 
7736 3 