ITEM: TIMESTEP
100000000
ITEM: NUMBER OF ENTRIES
929
ITEM: BOX BOUNDS pp pp pp
0 50
0 50
0 50
ITEM: ENTRIES c_binfo[1] c_binfo[2] c_binfo[3] 
2 6745 6746 
1 6745 13068 
2 6746 6747 
3 13067 13068 
3 13066 13067 
1 13066 14136 
2 8767 8768 
2 8768 8769 
2 15719 15720 
2 15718 15719 
3 7991 7992 
3 7990 7991 
2 3190 3191 
2 20194 20195 
2 4756 4757 
2 13285 13286 
2 13286 13287 
2 6439 6440 
2 6440 6441 
3 11686 11687 
3 11687 11688 
2 3191 3192 
3 12239 12240 
3 12238 12239 
2 4757 4758 
3 14710 14711 
3 14711 14712 
3 17714 17715 
3 17713 17714 
1 12240 13281 
2 13280 13281 
2 13279 13280 
2 3410 3411 
2 3409 3410 
3 5185 5186 
3 5186 5187 
2 4300 4301 
2 4301 4302 
1 4302 17715 
3 2782 2783 
3 2783 2784 
3 13373 13374 
3 13372 13373 
2 5377 5378 
3 2240 2241 
3 2239 2240 
3 19166 19167 
3 19165 19166 
2 14933 14934 
2 14932 14933 
2 5378 5379 
1 5379 20706 
3 20704 20705 
3 20705 20706 
2 12257 12258 
2 12256 12257 
1 12256 12982 
3 12982 12983 
3 12983 12984 
2 20914 20915 
2 8362 8363 
2 8363 8364 
3 2755 2756 
3 2756 2757 
2 6293 6294 
2 6292 6293 
3 14149 14150 
3 14150 14151 
2 11177 11178 
2 11176 11177 
2 20915 20916 
3 9959 9960 
3 9958 9959 
3 11257 11258 
3 11258 11259 
3 20944 20945 
3 18602 18603 
2 17077 17078 
2 17078 17079 
2 18578 18579 
2 18577 18578 
2 1072 1073 
2 1073 1074 
3 20945 20946 
3 18601 18602 
3 18572 18573 
3 18571 18572 
1 18571 20724 
2 15211 15212 
2 15212 15213 
2 20723 20724 
2 20722 20723 
3 1760 1761 
3 1759 1760 
2 3277 3278 
2 3278 3279 
3 16402 16403 
3 16403 16404 
3 21106 21107 
3 21107 21108 
2 10271 10272 
2 9026 9027 
2 16505 16506 
3 15878 15879 
3 15877 15878 
3 18472 18473 
3 18473 18474 
2 19181 19182 
2 19180 19181 
3 15329 15330 
3 15328 15329 
3 19804 19805 
3 19805 19806 
2 10270 10271 
1 10270 19806 
2 4960 4961 
2 4961 4962 
1 4962 12531 
2 9025 9026 
1 9025 15330 
2 16504 16505 
3 8750 8751 
3 8749 8750 
2 8309 8310 
2 8308 8309 
2 17474 17475 
2 17473 17474 
3 12530 12531 
3 12529 12530 
2 6595 6596 
1 6595 8751 
2 6596 6597 
2 17791 17792 
2 17792 17793 
3 20975 20976 
3 20974 20975 
3 15865 15866 
3 15866 15867 
2 3103 3104 
2 3104 3105 
2 19859 19860 
2 19858 19859 
2 12938 12939 
2 12937 12938 
3 13370 13371 
3 15556 15557 
3 15557 15558 
3 14767 14768 
3 14768 14769 
2 17824 17825 
2 17825 17826 
3 13369 13370 
1 13369 17826 
3 14665 14666 
3 14666 14667 
2 1349 1350 
1 15666 16597 
3 16598 16599 
3 16597 16598 
2 1348 1349 
1 1348 16599 
3 4351 4352 
3 13987 13988 
2 7003 7004 
2 15665 15666 
2 15664 15665 
2 7004 7005 
3 18122 18123 
3 18121 18122 
2 10165 10166 
2 10166 10167 
2 20839 20840 
2 20840 20841 
3 4352 4353 
3 5323 5324 
3 5324 5325 
1 11340 20002 
3 11339 11340 
2 20002 20003 
2 20003 20004 
3 11338 11339 
2 8816 8817 
2 8815 8816 
1 5325 8815 
2 11755 11756 
2 11756 11757 
3 8618 8619 
2 8173 8174 
1 8173 11757 
3 8617 8618 
2 8174 8175 
2 6113 6114 
2 6112 6113 
1 6112 7725 
2 19514 19515 
2 19513 19514 
2 7724 7725 
2 7723 7724 
2 18313 18314 
2 18314 18315 
3 9446 9447 
3 13435 13436 
3 9445 9446 
1 9445 13435 
3 13436 13437 
3 18943 18944 
3 18944 18945 
1 13956 18945 
2 6671 6672 
2 13955 13956 
2 13954 13955 
2 6670 6671 
1 6670 13954 
2 19153 19154 
2 19154 19155 
2 15929 15930 
2 15928 15929 
1 15930 16864 
3 16864 16865 
3 5561 5562 
3 5560 5561 
3 16865 16866 
2 10375 10376 
2 10376 10377 
3 13795 13796 
3 13796 13797 
2 12065 12066 
2 12064 12065 
2 19282 19283 
2 19283 19284 
3 10928 10929 
3 10927 10928 
3 12823 12824 
3 12824 12825 
3 15433 15434 
3 15434 15435 
3 16160 16161 
3 16159 16160 
2 16294 16295 
2 16295 16296 
3 6368 6369 
3 6367 6368 
2 10274 10275 
2 10273 10274 
3 1711 1712 
1 1713 10273 
3 1712 1713 
2 10373 10374 
2 10372 10373 
1 6369 8379 
2 8378 8379 
2 8377 8378 
3 5365 5366 
3 5366 5367 
3 19652 19653 
3 5041 5042 
3 5042 5043 
3 9133 9134 
3 9134 9135 
3 16468 16469 
3 16469 16470 
3 13949 13950 
2 9910 9911 
1 9910 16470 
2 9911 9912 
3 13988 13989 
1 13989 17479 
3 13948 13949 
2 17480 17481 
2 17479 17480 
2 19942 19943 
2 19943 19944 
3 17684 17685 
3 17683 17684 
2 6776 6777 
2 6775 6776 
2 10096 10097 
3 13628 13629 
1 4608 13627 
3 13627 13628 
2 10097 10098 
2 4607 4608 
2 4606 4607 
2 9629 9630 
2 9628 9629 
2 14134 14135 
2 14135 14136 
2 410 411 
2 409 410 
3 20951 20952 
3 8222 8223 
3 20950 20951 
2 15299 15300 
3 12428 12429 
3 12427 12428 
1 12429 15300 
2 15298 15299 
3 5972 5973 
3 5971 5972 
2 9238 9239 
3 6017 6018 
3 6016 6017 
2 9239 9240 
1 9240 21034 
2 21034 21035 
3 20690 20691 
3 20689 20690 
3 1736 1737 
3 1735 1736 
3 8221 8222 
1 1737 8221 
2 14003 14004 
2 14002 14003 
3 2852 2853 
3 2851 2852 
1 2851 14004 
2 21035 21036 
3 16888 16889 
3 16889 16890 
3 7982 7983 
3 7981 7982 
2 16715 16716 
3 14405 14406 
3 14404 14405 
2 16714 16715 
2 19604 19605 
2 19603 19604 
2 19883 19884 
2 19882 19883 
3 1850 1851 
3 1849 1850 
1 288 17454 
2 8642 8643 
2 8641 8642 
1 8641 13842 
3 13841 13842 
3 13840 13841 
3 13028 13029 
3 13027 13028 
2 8956 8957 
2 8957 8958 
2 1568 1569 
2 1567 1568 
3 5933 5934 
3 14060 14061 
1 14061 17461 
2 17462 17463 
2 17461 17462 
3 14059 14060 
3 5932 5933 
3 18110 18111 
3 18109 18110 
2 19420 19421 
2 19421 19422 
2 12868 12869 
2 12869 12870 
3 2944 2945 
3 2945 2946 
2 17624 17625 
3 2774 2775 
3 2773 2774 
1 2773 9217 
2 9218 9219 
2 9217 9218 
2 10943 10944 
2 10942 10943 
2 17623 17624 
3 11875 11876 
3 11876 11877 
2 16411 16412 
2 5120 5121 
2 5119 5120 
2 16412 16413 
3 10025 10026 
3 10024 10025 
1 10024 12096 
2 12095 12096 
2 6782 6783 
2 6781 6782 
1 6781 12094 
2 12094 12095 
2 8396 8397 
2 8395 8396 
2 14647 14648 
2 14648 14649 
1 303 14649 
3 302 303 
3 301 302 
3 13178 13179 
3 13177 13178 
3 11209 11210 
1 11209 13177 
2 21187 21188 
3 11210 11211 
2 21188 21189 
3 17210 17211 
3 14023 14024 
2 4876 4877 
3 17209 17210 
3 15013 15014 
1 15013 17209 
3 15014 15015 
2 15809 15810 
2 15808 15809 
2 7789 7790 
2 7790 7791 
3 14024 14025 
3 532 533 
3 533 534 
2 851 852 
3 14179 14180 
3 14180 14181 
2 850 851 
1 850 14181 
2 2167 2168 
2 2168 2169 
2 4877 4878 
3 650 651 
3 649 650 
2 11293 11294 
2 11294 11295 
3 17324 17325 
3 17323 17324 
2 15571 15572 
2 15572 15573 
2 20429 20430 
3 13091 13092 
3 13090 13091 
2 17204 17205 
2 17203 17204 
2 9277 9278 
1 9277 17203 
2 9278 9279 
2 9979 9980 
2 9980 9981 
3 7490 7491 
3 7489 7490 
1 7489 9279 
2 20428 20429 
3 11546 11547 
3 11545 11546 
2 4178 4179 
2 4177 4178 
3 5633 5634 
3 5632 5633 
1 5632 5799 
2 5797 5798 
2 5798 5799 
2 3815 3816 
2 3814 3815 
3 11069 11070 
3 11068 11069 
3 9742 9743 
3 9743 9744 
2 9587 9588 
3 13055 13056 
3 13054 13055 
3 7214 7215 
3 7213 7214 
2 9586 9587 
3 14176 14177 
3 14177 14178 
3 3557 3558 
3 3556 3557 
2 17953 17954 
2 17954 17955 
3 11383 11384 
1 11383 17955 
2 8609 8610 
2 8608 8609 
3 11384 11385 
2 6685 6686 
1 6685 16092 
2 6686 6687 
3 16091 16092 
3 16090 16091 
3 11269 11270 
3 11270 11271 
3 8470 8471 
3 9721 9722 
3 9722 9723 
3 8471 8472 
2 13243 13244 
2 13244 13245 
2 14684 14685 
2 14683 14684 
1 13245 14683 
3 286 287 
1 286 6687 
3 287 288 
2 17453 17454 
2 17452 17453 
2 7975 7976 
3 18685 18686 
3 18686 18687 
2 7654 7655 
2 7655 7656 
3 19747 19748 
3 19748 19749 
2 15641 15642 
2 15640 15641 
1 6204 13048 
3 13048 13049 
3 13049 13050 
3 11800 11801 
3 11801 11802 
1 11802 15640 
2 6202 6203 
2 6203 6204 
3 18148 18149 
3 18149 18150 
3 19271 19272 
3 19270 19271 
2 4648 4649 
1 4648 19272 
3 1946 1947 
2 4649 4650 
2 10667 10668 
2 10666 10667 
3 1945 1946 
2 3475 3476 
2 3241 3242 
2 3242 3243 
2 3476 3477 
3 8350 8351 
3 8351 8352 
2 2914 2915 
2 2915 2916 
2 18173 18174 
2 18172 18173 
3 1960 1961 
1 1960 18172 
3 1961 1962 
3 18884 18885 
3 18883 18884 
3 9715 9716 
3 9716 9717 
3 10252 10253 
3 10253 10254 
3 629 630 
3 628 629 
3 8344 8345 
3 8345 8346 
2 3731 3732 
2 3730 3731 
3 14611 14612 
2 14752 14753 
1 13542 14752 
2 14753 14754 
2 20195 20196 
2 13541 13542 
2 13540 13541 
2 20810 20811 
2 20809 20810 
3 9517 9518 
3 9518 9519 
2 3847 3848 
2 3848 3849 
2 2227 2228 
2 2228 2229 
3 17005 17006 
1 9519 17007 
3 17006 17007 
2 20318 20319 
3 10990 10991 
1 10990 20319 
3 10991 10992 
2 2995 2996 
2 2996 2997 
3 4694 4695 
3 4693 4694 
3 19999 20000 
3 20000 20001 
3 14747 14748 
2 2636 2637 
2 2635 2636 
2 12322 12323 
1 12322 14748 
2 12323 12324 
3 18454 18455 
3 18455 18456 
2 652 653 
2 653 654 
3 6025 6026 
3 6026 6027 
3 2323 2324 
3 2324 2325 
2 21491 21492 
2 21490 21491 
3 13097 13098 
3 13096 13097 
2 7079 7080 
2 7078 7079 
3 15514 15515 
3 1994 1995 
3 1993 1994 
2 758 759 
3 9763 9764 
3 9764 9765 
2 16945 16946 
1 9765 16945 
2 16946 16947 
2 757 758 
3 16930 16931 
3 16931 16932 
3 16418 16419 
3 16417 16418 
2 2630 2631 
2 2629 2630 
3 5183 5184 
2 9091 9092 
3 5182 5183 
1 5182 9093 
2 9092 9093 
2 6788 6789 
2 6787 6788 
1 6787 13792 
3 19967 19968 
3 251 252 
3 250 251 
3 19966 19967 
2 8594 8595 
2 8593 8594 
3 19394 19395 
3 19393 19394 
2 10463 10464 
2 10462 10463 
2 20317 20318 
3 11473 11474 
3 11474 11475 
2 14818 14819 
2 14819 14820 
3 12700 12701 
1 12700 14818 
2 19988 19989 
2 19987 19988 
3 14746 14747 
3 12701 12702 
3 16501 16502 
2 9325 9326 
1 9325 16501 
3 16502 16503 
2 9326 9327 
2 6211 6212 
2 6212 6213 
2 6760 6761 
2 6761 6762 
3 2849 2850 
3 2848 2849 
3 11260 11261 
2 2033 2034 
2 2032 2033 
3 11261 11262 
2 14758 14759 
2 14759 14760 
3 9814 9815 
3 9815 9816 
3 1384 1385 
3 1385 1386 
3 19651 19652 
2 12733 12734 
2 6032 6033 
2 6031 6032 
2 12734 12735 
3 9146 9147 
2 19532 19533 
2 19531 19532 
1 9147 19531 
3 9145 9146 
3 11284 11285 
2 10705 10706 
1 10705 11284 
2 10706 10707 
3 11285 11286 
2 968 969 
2 967 968 
2 18725 18726 
3 20750 20751 
3 1909 1910 
2 18724 18725 
3 4183 4184 
3 4184 4185 
3 1910 1911 
2 18346 18347 
2 18347 18348 
3 15515 15516 
3 18760 18761 
3 18761 18762 
2 9304 9305 
2 9305 9306 
1 9306 15048 
3 15047 15048 
3 15046 15047 
3 21284 21285 
3 21283 21284 
3 9412 9413 
3 9413 9414 
3 16219 16220 
2 19384 19385 
2 19385 19386 
2 16150 16151 
2 16151 16152 
3 16220 16221 
2 8128 8129 
2 8129 8130 
2 5362 5363 
2 5363 5364 
1 5364 9048 
3 9047 9048 
3 9046 9047 
2 13669 13670 
2 13670 13671 
2 18232 18233 
2 18233 18234 
2 18331 18332 
3 2821 2822 
3 2822 2823 
3 4241 4242 
3 4240 4241 
2 18332 18333 
3 8840 8841 
3 8839 8840 
2 10531 10532 
2 10532 10533 
2 21511 21512 
2 21512 21513 
2 20479 20480 
2 20480 20481 
2 12910 12911 
3 14612 14613 
3 12754 12755 
1 12754 12912 
2 12911 12912 
3 12755 12756 
3 14705 14706 
3 14704 14705 
2 2146 2147 
2 2147 2148 
2 6989 6990 
2 6988 6989 
2 9781 9782 
3 14920 14921 
3 14921 14922 
3 18914 18915 
3 18913 18914 
3 13682 13683 
3 13681 13682 
2 10882 10883 
2 10883 10884 
3 9736 9737 
3 9737 9738 
2 15350 15351 
3 1283 1284 
3 1282 1283 
2 7561 7562 
2 7562 7563 
1 7563 10069 
3 10069 10070 
3 10070 10071 
2 15349 15350 
2 17398 17399 
2 17399 17400 
2 10847 10848 
2 10846 10847 
1 10846 17400 
2 14563 14564 
2 14564 14565 
2 14062 14063 
2 14063 14064 
3 4105 4106 
3 4106 4107 
2 3593 3594 
2 3592 3593 
1 3592 13818 
3 13816 13817 
3 13817 13818 
2 13777 13778 
2 13778 13779 
2 20635 20636 
2 20636 20637 
3 12727 12728 
3 12728 12729 
2 17554 17555 
2 17555 17556 
1 17556 19870 
3 19870 19871 
3 19871 19872 
2 13885 13886 
2 13886 13887 
3 20749 20750 
2 19565 19566 
2 19564 19565 
3 9034 9035 
3 9035 9036 
3 17428 17429 
2 18167 18168 
2 18166 18167 
3 17429 17430 
2 20887 20888 
3 214 215 
1 214 20887 
2 20888 20889 
2 17183 17184 
2 17182 17183 
3 215 216 
3 20462 20463 
3 20461 20462 
2 17384 17385 
2 17383 17384 
2 14596 14597 
2 14597 14598 
2 18797 18798 
2 18796 18797 
2 19948 19949 
3 9790 9791 
3 9791 9792 
2 431 432 
2 430 431 
1 430 4252 
2 4252 4253 
2 19949 19950 
2 15133 15134 
3 19430 19431 
3 6955 6956 
3 19429 19430 
1 6957 19429 
3 6956 6957 
3 20771 20772 
3 20770 20771 
2 4253 4254 
2 18340 18341 
2 18341 18342 
2 15134 15135 
2 6290 6291 
2 6289 6290 
3 17930 17931 
3 17929 17930 
2 5801 5802 
2 5800 5801 
2 12572 12573 
2 12571 12572 
2 11291 11292 
2 11290 11291 
3 6392 6393 
3 6391 6392 
2 14755 14756 
3 8252 8253 
2 14756 14757 
2 3725 3726 
2 7873 7874 
1 7875 8251 
3 8251 8252 
2 7874 7875 
3 11939 11940 
3 11938 11939 
2 3724 3725 
2 4111 4112 
2 4112 4113 
3 19162 19163 
3 19163 19164 
1 10542 19164 
2 9893 9894 
2 9892 9893 
1 9892 10540 
3 10540 10541 
3 10541 10542 
1 10362 18018 
3 10361 10362 
2 18017 18018 
3 10360 10361 
3 6152 6153 
3 6151 6152 
2 18016 18017 
2 9317 9318 
2 9316 9317 
1 9318 11617 
3 11617 11618 
3 11618 11619 
2 11245 11246 
1 11247 15412 
2 11246 11247 
3 15412 15413 
3 15413 15414 
3 3137 3138 
2 10988 10989 
2 10987 10988 
3 3136 3137 
1 3136 10987 
2 18049 18050 
2 18050 18051 
2 19664 19665 
2 19663 19664 
3 1210 1211 
3 1211 1212 
3 3914 3915 
3 3913 3914 
2 8183 8184 
2 8182 8183 
2 11141 11142 
2 11140 11141 
3 13792 13793 
3 13793 13794 
3 20779 20780 
1 20779 20820 
3 20780 20781 
3 20819 20820 
3 20818 20819 
2 12265 12266 
2 20485 20486 
2 20486 20487 
3 764 765 
3 763 764 
3 13600 13601 
3 13601 13602 
2 12266 12267 
1 12267 13602 
3 15691 15692 
3 19808 19809 
3 19807 19808 
2 14966 14967 
1 14967 19809 
2 14965 14966 
2 38 39 
2 37 38 
3 15692 15693 
2 12097 12098 
2 7976 7977 
2 9782 9783 
2 12098 12099 
