ITEM: TIMESTEP
0
ITEM: NUMBER OF ATOMS
1269
ITEM: BOX BOUNDS pp pp pp
0.0000000000000000e+00 5.0000000000000000e+01
0.0000000000000000e+00 5.0000000000000000e+01
0.0000000000000000e+00 5.0000000000000000e+01
ITEM: ATOMS id type 
250 1 
251 3 
252 1 
301 1 
302 3 
303 1 
430 1 
431 2 
432 1 
1210 1 
1211 3 
1212 1 
1384 1 
1385 3 
1386 1 
1567 1 
1568 2 
1569 1 
2227 1 
2228 2 
2229 1 
3190 1 
3191 2 
3192 1 
3241 1 
3242 2 
3243 1 
3724 1 
3725 2 
3726 1 
3730 1 
3731 2 
3732 1 
6670 1 
6671 2 
6672 1 
6781 1 
6782 2 
6783 1 
6787 1 
6788 2 
6789 1 
7981 1 
7982 3 
7983 1 
7990 1 
7991 3 
7992 1 
8221 1 
8222 3 
8223 1 
9304 1 
9305 2 
9306 1 
10024 1 
10025 3 
10026 1 
10270 1 
10271 2 
10272 1 
1282 1 
1283 3 
1284 1 
2239 1 
2240 3 
2241 1 
3556 1 
3557 3 
3558 1 
4693 1 
4694 3 
4695 1 
4756 1 
4757 2 
4758 1 
4876 1 
4877 2 
4878 1 
6016 1 
6017 3 
6018 1 
7213 1 
7214 3 
7215 1 
7873 1 
7874 2 
7875 1 
8173 1 
8174 2 
8175 1 
8182 1 
8183 2 
8184 1 
8956 1 
8957 2 
8958 1 
9133 1 
9134 3 
9135 1 
9316 1 
9317 2 
9318 1 
9979 1 
9980 2 
9981 1 
10096 1 
10097 2 
10098 1 
10273 1 
10274 2 
10275 1 
10462 1 
10463 2 
10464 1 
214 1 
215 3 
216 1 
1348 1 
1349 2 
1350 1 
4351 1 
4352 3 
4353 1 
4648 1 
4649 2 
4650 1 
5971 1 
5972 3 
5973 1 
6025 1 
6026 3 
6027 1 
6031 1 
6032 2 
6033 1 
6685 1 
6686 2 
6687 1 
6745 1 
6746 2 
6747 1 
6988 1 
6989 2 
6990 1 
8128 1 
8129 2 
8130 1 
8251 1 
8252 3 
8253 1 
8308 1 
8309 2 
8310 1 
9025 1 
9026 2 
9027 1 
9034 1 
9035 3 
9036 1 
9091 1 
9092 2 
9093 1 
9145 1 
9146 3 
9147 1 
9325 1 
9326 2 
9327 1 
10165 1 
10166 2 
10167 1 
10531 1 
10532 2 
10533 1 
37 1 
38 2 
39 1 
286 1 
287 3 
288 1 
2323 1 
2324 3 
2325 1 
3277 1 
3278 2 
3279 1 
4606 1 
4607 2 
4608 1 
5560 1 
5561 3 
5562 1 
5797 1 
5798 2 
5799 1 
5800 1 
5801 2 
5802 1 
6760 1 
6761 2 
6762 1 
7003 1 
7004 2 
7005 1 
9046 1 
9047 3 
9048 1 
9217 1 
9218 2 
9219 1 
9277 1 
9278 2 
9279 1 
10360 1 
10361 3 
10362 1 
10540 1 
10541 3 
10542 1 
409 1 
410 2 
411 1 
532 1 
533 3 
534 1 
2629 1 
2630 2 
2631 1 
2635 1 
2636 2 
2637 1 
3409 1 
3410 2 
3411 1 
3475 1 
3476 2 
3477 1 
3592 1 
3593 2 
3594 1 
5632 1 
5633 3 
5634 1 
5932 1 
5933 3 
5934 1 
6775 1 
6776 2 
6777 1 
6955 1 
6956 3 
6957 1 
7078 1 
7079 2 
7080 1 
7789 1 
7790 2 
7791 1 
7975 1 
7976 2 
7977 1 
9238 1 
9239 2 
9240 1 
10069 1 
10070 3 
10071 1 
10252 1 
10253 3 
10254 1 
10372 1 
10373 2 
10374 1 
10375 1 
10376 2 
10377 1 
850 1 
851 2 
852 1 
967 1 
968 2 
969 1 
2167 1 
2168 2 
2169 1 
2821 1 
2822 3 
2823 1 
2944 1 
2945 3 
2946 1 
3847 1 
3848 2 
3849 1 
5041 1 
5042 3 
5043 1 
6367 1 
6368 3 
6369 1 
7561 1 
7562 2 
7563 1 
8344 1 
8345 3 
8346 1 
8350 1 
8351 3 
8352 1 
8470 1 
8471 3 
8472 1 
8641 1 
8642 2 
8643 1 
8767 1 
8768 2 
8769 1 
9721 1 
9722 3 
9723 1 
9781 1 
9782 2 
9783 1 
9790 1 
9791 3 
9792 1 
9910 1 
9911 2 
9912 1 
10927 1 
10928 3 
10929 1 
10987 1 
10988 2 
10989 1 
10990 1 
10991 3 
10992 1 
1759 1 
1760 3 
1761 1 
1993 1 
1994 3 
1995 1 
2773 1 
2774 3 
2775 1 
2782 1 
2783 3 
2784 1 
3136 1 
3137 3 
3138 1 
3913 1 
3914 3 
3915 1 
5119 1 
5120 2 
5121 1 
5182 1 
5183 3 
5184 1 
5362 1 
5363 2 
5364 1 
6202 1 
6203 2 
6204 1 
6439 1 
6440 2 
6441 1 
8362 1 
8363 2 
8364 1 
8593 1 
8594 2 
8595 1 
8839 1 
8840 3 
8841 1 
9736 1 
9737 3 
9738 1 
9742 1 
9743 3 
9744 1 
10882 1 
10883 2 
10884 1 
10942 1 
10943 2 
10944 1 
628 1 
629 3 
630 1 
1711 1 
1712 3 
1713 1 
1945 1 
1946 3 
1947 1 
2848 1 
2849 3 
2850 1 
2851 1 
2852 3 
2853 1 
2914 1 
2915 2 
2916 1 
3814 1 
3815 2 
3816 1 
4105 1 
4106 3 
4107 1 
4111 1 
4112 2 
4113 1 
5185 1 
5186 3 
5187 1 
5365 1 
5366 3 
5367 1 
6151 1 
6152 3 
6153 1 
6211 1 
6212 2 
6213 1 
6391 1 
6392 3 
6393 1 
7654 1 
7655 2 
7656 1 
8608 1 
8609 2 
8610 1 
9445 1 
9446 3 
9447 1 
9628 1 
9629 2 
9630 1 
9814 1 
9815 3 
9816 1 
10705 1 
10706 2 
10707 1 
11068 1 
11069 3 
11070 1 
757 1 
758 2 
759 1 
763 1 
764 3 
765 1 
1960 1 
1961 3 
1962 1 
2146 1 
2147 2 
2148 1 
3103 1 
3104 2 
3105 1 
4177 1 
4178 2 
4179 1 
4183 1 
4184 3 
4185 1 
4240 1 
4241 3 
4242 1 
4300 1 
4301 2 
4302 1 
4960 1 
4961 2 
4962 1 
5323 1 
5324 3 
5325 1 
5377 1 
5378 2 
5379 1 
7723 1 
7724 2 
7725 1 
8377 1 
8378 2 
8379 1 
8617 1 
8618 3 
8619 1 
9517 1 
9518 3 
9519 1 
9586 1 
9587 2 
9588 1 
9763 1 
9764 3 
9765 1 
10666 1 
10667 2 
10668 1 
10846 1 
10847 2 
10848 1 
649 1 
650 3 
651 1 
652 1 
653 2 
654 1 
1072 1 
1073 2 
1074 1 
1735 1 
1736 3 
1737 1 
1849 1 
1850 3 
1851 1 
1909 1 
1910 3 
1911 1 
2032 1 
2033 2 
2034 1 
2755 1 
2756 3 
2757 1 
2995 1 
2996 2 
2997 1 
4252 1 
4253 2 
4254 1 
6112 1 
6113 2 
6114 1 
6289 1 
6290 2 
6291 1 
6292 1 
6293 2 
6294 1 
6595 1 
6596 2 
6597 1 
7489 1 
7490 3 
7491 1 
8395 1 
8396 2 
8397 1 
8749 1 
8750 3 
8751 1 
8815 1 
8816 2 
8817 1 
9412 1 
9413 3 
9414 1 
9715 1 
9716 3 
9717 1 
9892 1 
9893 2 
9894 1 
9958 1 
9959 3 
9960 1 
11284 1 
11285 3 
11286 1 
11290 1 
11291 2 
11292 1 
12064 1 
12065 2 
12066 1 
12427 1 
12428 3 
12429 1 
14404 1 
14405 3 
14406 1 
14647 1 
14648 2 
14649 1 
15664 1 
15665 2 
15666 1 
16501 1 
16502 3 
16503 1 
16504 1 
16505 2 
16506 1 
17461 1 
17462 2 
17463 1 
18601 1 
18602 3 
18603 1 
18724 1 
18725 2 
18726 1 
19564 1 
19565 2 
19566 1 
19747 1 
19748 3 
19749 1 
19804 1 
19805 3 
19806 1 
19807 1 
19808 3 
19809 1 
19870 1 
19871 3 
19872 1 
20704 1 
20705 3 
20706 1 
20770 1 
20771 3 
20772 1 
20887 1 
20888 2 
20889 1 
20944 1 
20945 3 
20946 1 
20950 1 
20951 3 
20952 1 
11176 1 
11177 2 
11178 1 
11293 1 
11294 2 
11295 1 
11473 1 
11474 3 
11475 1 
12256 1 
12257 2 
12258 1 
12322 1 
12323 2 
12324 1 
13279 1 
13280 2 
13281 1 
14596 1 
14597 2 
14598 1 
15433 1 
15434 3 
15435 1 
15556 1 
15557 3 
15558 1 
16402 1 
16403 3 
16404 1 
17473 1 
17474 2 
17475 1 
17479 1 
17480 2 
17481 1 
17713 1 
17714 3 
17715 1 
18796 1 
18797 2 
18798 1 
19513 1 
19514 2 
19515 1 
19882 1 
19883 2 
19884 1 
20722 1 
20723 2 
20724 1 
20779 1 
20780 3 
20781 1 
20839 1 
20840 2 
20841 1 
11245 1 
11246 2 
11247 1 
12094 1 
12095 2 
12096 1 
12265 1 
12266 2 
12267 1 
12571 1 
12572 2 
12573 1 
13285 1 
13286 2 
13287 1 
14611 1 
14612 3 
14613 1 
14665 1 
14666 3 
14667 1 
15328 1 
15329 3 
15330 1 
15514 1 
15515 3 
15516 1 
15571 1 
15572 2 
15573 1 
15691 1 
15692 3 
15693 1 
16411 1 
16412 2 
16413 1 
16468 1 
16469 3 
16470 1 
16714 1 
16715 2 
16716 1 
17428 1 
17429 3 
17430 1 
17554 1 
17555 2 
17556 1 
17791 1 
17792 2 
17793 1 
18454 1 
18455 3 
18456 1 
18571 1 
18572 3 
18573 1 
18685 1 
18686 3 
18687 1 
19531 1 
19532 2 
19533 1 
19651 1 
19652 3 
19653 1 
20914 1 
20915 2 
20916 1 
20974 1 
20975 3 
20976 1 
21034 1 
21035 2 
21036 1 
11140 1 
11141 2 
11142 1 
11257 1 
11258 3 
11259 1 
11260 1 
11261 3 
11262 1 
11383 1 
11384 3 
11385 1 
12097 1 
12098 2 
12099 1 
13177 1 
13178 3 
13179 1 
13243 1 
13244 2 
13245 1 
13540 1 
13541 2 
13542 1 
13600 1 
13601 3 
13602 1 
14563 1 
14564 2 
14565 1 
14683 1 
14684 2 
14685 1 
15640 1 
15641 2 
15642 1 
16417 1 
16418 3 
16419 1 
16597 1 
16598 3 
16599 1 
17323 1 
17324 3 
17325 1 
17383 1 
17384 2 
17385 1 
17623 1 
17624 2 
17625 1 
17683 1 
17684 3 
17685 1 
18577 1 
18578 2 
18579 1 
18760 1 
18761 3 
18762 1 
18883 1 
18884 3 
18885 1 
19603 1 
19604 2 
19605 1 
19663 1 
19664 2 
19665 1 
11209 1 
11210 3 
11211 1 
11269 1 
11270 3 
11271 1 
11338 1 
11339 3 
11340 1 
12238 1 
12239 3 
12240 1 
12529 1 
12530 3 
12531 1 
13369 1 
13370 3 
13371 1 
13372 1 
13373 3 
13374 1 
13435 1 
13436 3 
13437 1 
15349 1 
15350 2 
15351 1 
15412 1 
15413 3 
15414 1 
15718 1 
15719 2 
15720 1 
17398 1 
17399 2 
17400 1 
17452 1 
17453 2 
17454 1 
18472 1 
18473 3 
18474 1 
19858 1 
19859 2 
19860 1 
20635 1 
20636 2 
20637 1 
20689 1 
20690 3 
20691 1 
20749 1 
20750 3 
20751 1 
20809 1 
20810 2 
20811 1 
20818 1 
20819 3 
20820 1 
12727 1 
12728 3 
12729 1 
12910 1 
12911 2 
12912 1 
13027 1 
13028 3 
13029 1 
13090 1 
13091 3 
13092 1 
13627 1 
13628 3 
13629 1 
13681 1 
13682 3 
13683 1 
13987 1 
13988 3 
13989 1 
14704 1 
14705 3 
14706 1 
14710 1 
14711 3 
14712 1 
14767 1 
14768 3 
14769 1 
16090 1 
16091 3 
16092 1 
16150 1 
16151 2 
16152 1 
16864 1 
16865 3 
16866 1 
16930 1 
16931 3 
16932 1 
17824 1 
17825 2 
17826 1 
18121 1 
18122 3 
18123 1 
19270 1 
19271 3 
19272 1 
19384 1 
19385 2 
19386 1 
19987 1 
19988 2 
19989 1 
20461 1 
20462 3 
20463 1 
21187 1 
21188 2 
21189 1 
21490 1 
21491 2 
21492 1 
12733 1 
12734 2 
12735 1 
12982 1 
12983 3 
12984 1 
13096 1 
13097 3 
13098 1 
13816 1 
13817 3 
13818 1 
14002 1 
14003 2 
14004 1 
14059 1 
14060 3 
14061 1 
14062 1 
14063 2 
14064 1 
14176 1 
14177 3 
14178 1 
14179 1 
14180 3 
14181 1 
15013 1 
15014 3 
15015 1 
15133 1 
15134 2 
15135 1 
16159 1 
16160 3 
16161 1 
16219 1 
16220 3 
16221 1 
17182 1 
17183 2 
17184 1 
17953 1 
17954 2 
17955 1 
18016 1 
18017 2 
18018 1 
18313 1 
18314 2 
18315 1 
18913 1 
18914 3 
18915 1 
19153 1 
19154 2 
19155 1 
19162 1 
19163 3 
19164 1 
19282 1 
19283 2 
19284 1 
19393 1 
19394 3 
19395 1 
19942 1 
19943 2 
19944 1 
19999 1 
20000 3 
20001 1 
20002 1 
20003 2 
20004 1 
20479 1 
20480 2 
20481 1 
11545 1 
11546 3 
11547 1 
12754 1 
12755 3 
12756 1 
12868 1 
12869 2 
12870 1 
13048 1 
13049 3 
13050 1 
13054 1 
13055 3 
13056 1 
13885 1 
13886 2 
13887 1 
13948 1 
13949 3 
13950 1 
13954 1 
13955 2 
13956 1 
14134 1 
14135 2 
14136 1 
14965 1 
14966 2 
14967 1 
15211 1 
15212 2 
15213 1 
15808 1 
15809 2 
15810 1 
15865 1 
15866 3 
15867 1 
15928 1 
15929 2 
15930 1 
16294 1 
16295 2 
16296 1 
16888 1 
16889 3 
16890 1 
16945 1 
16946 2 
16947 1 
17005 1 
17006 3 
17007 1 
18148 1 
18149 3 
18150 1 
18331 1 
18332 2 
18333 1 
19165 1 
19166 3 
19167 1 
19948 1 
19949 2 
19950 1 
20194 1 
20195 2 
20196 1 
20428 1 
20429 2 
20430 1 
20485 1 
20486 2 
20487 1 
21511 1 
21512 2 
21513 1 
11617 1 
11618 3 
11619 1 
11686 1 
11687 3 
11688 1 
11800 1 
11801 3 
11802 1 
12700 1 
12701 3 
12702 1 
12823 1 
12824 3 
12825 1 
12937 1 
12938 2 
12939 1 
13066 1 
13067 3 
13068 1 
13777 1 
13778 2 
13779 1 
13840 1 
13841 3 
13842 1 
14023 1 
14024 3 
14025 1 
14746 1 
14747 3 
14748 1 
14920 1 
14921 3 
14922 1 
15046 1 
15047 3 
15048 1 
15877 1 
15878 3 
15879 1 
17077 1 
17078 2 
17079 1 
17203 1 
17204 2 
17205 1 
18166 1 
18167 2 
18168 1 
18340 1 
18341 2 
18342 1 
18346 1 
18347 2 
18348 1 
18943 1 
18944 3 
18945 1 
19180 1 
19181 2 
19182 1 
19420 1 
19421 2 
19422 1 
19966 1 
19967 3 
19968 1 
20317 1 
20318 2 
20319 1 
21106 1 
21107 3 
21108 1 
21283 1 
21284 3 
21285 1 
11755 1 
11756 2 
11757 1 
11875 1 
11876 3 
11877 1 
11938 1 
11939 3 
11940 1 
13669 1 
13670 2 
13671 1 
13792 1 
13793 3 
13794 1 
13795 1 
13796 3 
13797 1 
14149 1 
14150 3 
14151 1 
14752 1 
14753 2 
14754 1 
14755 1 
14756 2 
14757 1 
14758 1 
14759 2 
14760 1 
14818 1 
14819 2 
14820 1 
14932 1 
14933 2 
14934 1 
15298 1 
15299 2 
15300 1 
17209 1 
17210 3 
17211 1 
17929 1 
17930 3 
17931 1 
18049 1 
18050 2 
18051 1 
18109 1 
18110 3 
18111 1 
18172 1 
18173 2 
18174 1 
18232 1 
18233 2 
18234 1 
19429 1 
19430 3 
19431 1 
