ITEM: TIMESTEP
100000000
ITEM: NUMBER OF ATOMS
7560
ITEM: BOX BOUNDS pp pp pp
0.0000000000000000e+00 5.0000000000000000e+01
0.0000000000000000e+00 5.0000000000000000e+01
0.0000000000000000e+00 5.0000000000000000e+01
ITEM: ATOMS id type vx vy vz 
11815 1 -0.0960111 -1.95882 -5.25643 
11816 3 3.72523 3.3946 -0.930805 
13787 2 -0.883445 2.55358 1.84362 
13786 1 -1.23896 5.22213 3.40041 
14773 1 -1.70728 -0.0675009 1.64529 
16770 1 0.516423 0.839776 9.77931 
16768 1 -7.03605 -3.65125 -4.07603 
16769 3 -3.85567 1.32869 0.661231 
15423 1 -0.56581 -2.91811 1.37105 
6997 1 4.84187 -5.49048 1.79249 
11817 1 0.353195 -1.82902 -6.1633 
6998 3 -1.06916 0.83582 -1.13983 
14774 2 1.33179 1.38157 -1.68434 
20524 1 3.24792 -0.857809 -5.73109 
14775 1 0.561664 0.756703 -0.342598 
20525 3 -0.788623 0.459523 2.46401 
20526 1 -1.32725 0.356018 0.724381 
13788 1 0.741717 -1.15226 1.10446 
7645 1 7.97422 4.8031 -1.91408 
7646 3 -4.08778 4.11236 -3.85732 
7647 1 4.9425 6.62654 3.56541 
15961 1 -1.30243 0.345774 -0.639849 
15962 2 -1.12158 -4.18085 3.93046 
130 1 1.9169 2.6944 0.44647 
131 2 2.15807 -1.67462 1.75621 
15963 1 -4.59342 4.41007 -0.728142 
2646 1 -2.77401 3.85704 -0.813825 
16524 1 -1.00107 -4.20855 2.01188 
2332 1 -1.6 -1.83179 -2.51687 
5936 3 -2.7141 -0.897502 -1.55287 
5935 1 3.03423 -0.0588509 -0.317904 
132 1 2.16633 5.76106 -4.79315 
6562 1 -2.03135 7.11865 3.81836 
6563 3 1.25792 0.21691 -1.08331 
1285 1 3.94528 -1.94007 1.26338 
6564 1 4.12332 6.89126 3.38132 
12687 1 -0.443457 -2.94637 2.52582 
15485 2 -0.307157 0.371277 -0.320038 
15486 1 2.07403 -8.11357 -0.728306 
2645 2 2.70041 5.04785 2.28103 
12188 2 -3.00294 0.520801 2.37401 
12189 1 -0.141404 2.87721 4.49668 
2644 1 3.23303 4.59812 8.06731 
12187 1 -1.69165 5.33498 -0.885206 
15484 1 -0.759166 -0.858798 -1.25813 
3340 1 1.56584 -4.76786 -4.22003 
20439 1 1.76427 1.02253 -4.53913 
3341 2 2.55882 0.0643721 2.34826 
12686 2 -2.83873 -1.50855 2.0333 
2333 2 -2.32848 3.12492 -4.45524 
2334 1 5.62256 1.7305 -5.75781 
17887 1 3.79235 -5.96956 -1.66009 
18418 1 -3.64501 -7.06927 -1.52064 
18419 2 3.12857 1.39699 3.85828 
17888 3 1.89456 -0.807641 0.76252 
18420 1 1.14522 1.47639 -2.9417 
4281 1 1.71421 4.09096 -4.47088 
17082 1 -1.35415 0.0474036 -1.29537 
17081 3 6.92602 -1.6662 0.00739828 
17080 1 -1.47625 -1.86408 1.39772 
18940 1 -1.01137 -0.974409 -4.73529 
895 1 4.61388 -0.173535 1.84394 
896 3 -1.86514 -0.231863 -0.691439 
18942 1 -2.22681 2.59201 -5.61868 
18941 3 -0.963478 1.46894 1.8504 
8250 1 5.4025 0.343555 0.296621 
16492 1 0.354968 -1.47962 -2.14183 
16494 1 -1.08789 0.483893 1.92785 
16493 2 -4.5314 -3.50776 0.0636919 
15984 1 -3.69711 -3.16446 3.64417 
15983 2 -2.65031 3.51832 -1.32034 
11037 1 3.63107 -3.72112 0.742799 
11036 3 2.48436 -0.816422 -1.61642 
9921 1 1.34338 -0.762225 -0.0350277 
11035 1 -3.63742 -2.47426 -1.8521 
9920 2 0.543984 1.76854 -0.516325 
8249 3 -0.196209 -3.62762 -0.187526 
12425 3 0.38064 -1.01938 1.81236 
12424 1 0.243909 -3.02278 -1.89405 
14943 1 7.65526 -1.23426 2.11232 
2922 1 2.2792 3.63672 -1.24527 
6163 1 -2.4916 5.72832 -7.23888 
6164 2 -0.29606 -0.692794 2.92509 
1286 2 0.653254 -0.0331334 4.8419 
6165 1 -1.5136 -1.53797 3.10875 
20017 1 1.09102 0.609736 0.883123 
1287 1 1.4623 1.65021 0.21388 
19255 1 0.655066 -2.01575 -5.25608 
19256 2 -2.60962 2.26327 -1.89809 
12685 1 1.47172 -0.909952 -1.29893 
17596 1 1.00611 0.954958 -1.05909 
17597 2 -1.91518 -3.24446 -3.04789 
17598 1 3.50659 -1.48233 0.909557 
21073 1 -0.945053 2.90559 0.313266 
578 2 -0.280826 2.33159 0.530902 
579 1 -8.44729 -1.53444 -2.49257 
3342 1 3.73735 0.308176 1.07784 
577 1 3.39478 -3.33722 -2.31867 
20535 1 1.79905 -3.59251 2.55643 
20438 2 -6.11151 -0.774589 -4.35507 
13912 1 1.40862 -2.99304 3.19327 
20437 1 3.88975 2.40615 0.869839 
13914 1 -0.512775 2.63361 -1.91001 
13913 2 -1.62719 1.45517 3.84495 
17889 1 2.88717 1.00367 -0.445511 
14275 1 3.29284 -1.25034 -3.99762 
14276 2 2.75696 1.49 -0.572823 
14277 1 0.0666579 2.90403 0.193721 
13951 1 4.22959 8.24195 -5.29206 
4280 2 -1.47159 1.88107 0.597827 
897 1 -2.65416 0.78447 -7.08177 
6487 1 -1.82961 4.37965 6.60844 
6488 3 -3.05525 -1.85175 0.709754 
6489 1 -0.147654 -0.213482 -3.09686 
1440 1 -4.53959 -1.70858 -1.26655 
1439 2 -2.39014 -0.23534 0.441104 
13129 1 -6.73692 3.79493 -2.74391 
21272 2 4.77179 -0.0661009 0.905767 
21273 1 -0.185478 0.889184 -0.500603 
21271 1 -3.14478 3.43113 -1.75521 
9666 1 -2.16986 -0.0966302 3.68781 
137 2 0.583004 -0.539185 -0.202267 
138 1 0.438391 -5.13765 3.09568 
15982 1 2.41795 2.9532 -4.64879 
136 1 3.13382 3.67328 -0.96072 
6051 1 0.291793 0.744326 1.37945 
19901 2 -3.48041 -2.57475 0.0508134 
9919 1 -3.07753 -1.42865 2.47533 
19900 1 6.57187 1.08216 3.98771 
17440 1 5.0798 -3.2054 -0.0995894 
19902 1 -3.91035 1.61529 -4.15266 
8248 1 1.59853 -1.11739 -3.04686 
19003 1 2.58086 -5.84713 -5.75721 
16960 1 -9.67114 -0.853559 2.29419 
19005 1 1.14835 -0.414883 -3.11068 
19004 2 -0.474069 1.94764 0.545916 
12426 1 1.35387 2.35867 4.63825 
16255 1 -2.15018 -0.996914 -1.92902 
16961 2 2.03279 -2.87651 -1.29039 
16256 2 -2.17216 -1.86921 1.15646 
18440 2 0.702342 0.496728 0.396767 
18441 1 3.73703 -1.63318 5.37426 
20878 1 -1.4326 -1.76545 -2.59095 
16257 1 2.22636 -6.92074 -3.90517 
20018 2 -0.680785 -2.1941 -2.23463 
4637 2 -0.87625 -3.64807 1.30859 
4638 1 -4.27536 0.0179447 -6.11695 
20019 1 -1.36752 1.27225 -1.81756 
4636 1 -6.22767 1.65526 3.68572 
1054 1 5.01433 1.71446 -1.90477 
19713 1 -4.99656 3.54486 1.62795 
12832 1 -3.5601 -1.62823 0.769574 
19257 1 -2.36342 3.88225 4.77435 
12833 2 2.41527 -2.97592 0.553169 
12834 1 -0.984549 -3.69826 5.40658 
14645 2 0.5589 2.56719 -2.48103 
14646 1 -1.4952 -0.603003 1.17834 
21075 1 1.43232 -3.46967 5.47574 
21074 2 1.2266 2.36176 -0.13993 
20534 2 0.420001 3.62621 0.754332 
10831 1 2.90377 -5.57819 3.3517 
20533 1 1.87003 9.34705 -2.14077 
10832 2 0.590651 -1.6307 0.179346 
10833 1 -0.942016 -0.243745 0.393919 
14644 1 -0.215231 -5.48291 2.01301 
16312 1 -0.896754 5.76911 4.74706 
16314 1 4.25013 2.41651 -3.38816 
13952 2 4.82509 1.7708 -1.52067 
15897 1 5.82636 0.432556 -3.32409 
13953 1 4.82026 1.16789 -1.22343 
15896 2 0.528792 0.550143 -1.54388 
15895 1 1.40349 0.42349 3.05696 
20938 1 -1.87656 0.770756 -1.6546 
20939 2 -0.288253 2.10985 1.11593 
20940 1 -3.00245 0.585237 0.112921 
1438 1 2.00871 -1.13603 1.55515 
5022 1 -2.58949 0.292139 2.71447 
13131 1 -0.913737 1.93104 -2.795 
13130 2 2.22207 1.19951 1.95713 
10818 1 1.0776 -3.50607 -2.07326 
10817 2 3.43229 -0.663304 -1.68468 
5021 2 -0.782002 -1.83171 1.00524 
8927 2 -1.41523 4.23397 -1.60217 
8926 1 -5.10117 6.08415 -0.520563 
5020 1 -2.00771 -4.15435 1.11759 
2160 1 5.63416 -1.6528 1.86383 
8928 1 -2.43026 3.1082 -0.703914 
9665 2 -4.26716 4.11583 -0.957849 
9664 1 2.58081 -3.97485 3.48735 
9918 1 -3.40362 -0.531947 2.77998 
9917 2 -2.49571 -2.82195 -0.736774 
9916 1 -3.11297 -1.76171 4.65187 
18459 1 -1.74153 1.01752 3.33675 
17026 1 -3.74105 1.80512 2.14242 
19526 2 0.345674 -1.93481 -2.25305 
19525 1 1.83905 5.41699 -3.41634 
16962 1 -3.60041 -5.18599 1.31981 
4071 1 -0.787269 0.463591 6.22818 
19527 1 5.46191 -1.86665 -2.229 
1055 2 -2.16944 -0.872404 -1.8581 
16126 1 0.713814 0.856901 2.71348 
1056 1 4.03797 -1.23564 4.59804 
16127 2 -2.22245 -1.45882 -0.443806 
6050 2 -1.93391 -1.36293 3.13558 
6049 1 -5.42637 1.19273 1.07833 
7852 1 1.39177 4.60482 1.00556 
7853 3 0.0769272 1.94595 -1.47957 
7816 1 0.766153 -2.71176 -2.68585 
19241 2 -0.345975 -2.15304 0.0491582 
19240 1 -9.85183 3.71147 1.60308 
7817 2 3.76819 -0.461657 2.78554 
19242 1 -0.106365 -6.88328 1.67794 
16375 1 2.23769 -4.50033 3.75947 
16376 2 -2.84074 4.67298 3.42865 
16377 1 -5.23275 2.87111 2.16245 
12076 1 -2.61982 5.87322 0.418913 
12077 3 1.26208 -0.701019 2.0686 
7854 1 -1.71896 -1.07162 -0.712112 
17442 1 -0.574065 0.0291747 -0.79322 
5897 2 0.699812 -1.32035 1.00569 
5896 1 -5.47974 -3.41966 -0.383535 
5898 1 2.08171 0.974316 1.77037 
17441 2 0.401549 -0.236186 -0.246021 
14323 1 -0.907793 3.31423 -0.88217 
14325 1 2.5102 -1.24513 -2.62174 
14324 2 -2.8444 0.762426 -2.57214 
8560 1 4.74472 4.65958 -3.85418 
8561 3 -0.389466 3.09048 -2.50778 
3766 1 -1.06885 -6.69617 1.58044 
3767 2 0.347156 2.7536 6.48023 
8779 1 -3.0975 -1.87661 0.229421 
7384 1 -3.08276 7.39201 3.10172 
7385 2 4.76493 -7.12513 1.87674 
7386 1 -8.97586 -5.8251 2.10665 
8780 2 2.45019 -0.692021 1.94536 
13666 1 -0.876439 0.542106 -3.28034 
13667 2 -0.295319 0.229743 6.59038 
18808 1 -1.42621 -3.40071 2.83535 
13668 1 3.81694 5.53723 -3.17014 
16620 1 3.81626 -1.73334 2.55929 
17027 3 -3.80493 1.52726 -0.604028 
17028 1 2.45073 7.07208 4.24136 
16618 1 0.872598 -4.60548 -1.5452 
16619 2 -1.35118 -1.50868 3.39592 
10816 1 -2.40767 -4.62963 5.08567 
17856 1 1.78517 2.67017 6.06047 
17855 2 1.95423 -0.578518 3.70687 
17854 1 1.55398 -3.53732 -4.43394 
4070 2 -1.00636 0.780602 -2.49587 
3484 1 -8.2822 1.01472 -1.05688 
4069 1 -1.24049 5.36532 -1.55382 
2752 1 2.11415 1.68788 -6.77891 
2753 2 -3.26651 -0.229568 -2.73983 
3485 2 1.64141 2.63759 0.657577 
2754 1 3.36996 3.32982 -2.49766 
2159 2 -0.742142 -2.16092 -1.87935 
2158 1 1.12652 0.539726 5.83722 
9106 1 -5.37878 2.91661 0.144268 
16128 1 2.25235 -7.66706 3.39245 
9108 1 4.81604 3.31588 1.03859 
14914 1 -1.55372 -0.843578 -8.58456 
9107 2 -2.06921 5.01737 -2.6246 
18458 2 0.0538425 -3.52626 0.196033 
18457 1 -5.67793 -3.68672 -4.15182 
21583 1 -1.90529 0.715677 -1.41766 
21105 1 3.1167 4.61281 -5.77488 
21104 2 0.142778 0.932023 -0.488689 
21584 2 -2.10214 -7.27604 0.339495 
21585 1 -8.2666 -0.813192 2.18707 
13119 1 -2.85962 0.0371463 -6.6961 
13118 2 0.360881 2.8813 4.95646 
21103 1 2.98292 -6.48275 0.513574 
2140 1 -7.5001 -0.865556 6.0301 
11722 1 0.417904 1.79525 -1.20046 
2451 1 -1.17142 -2.0506 1.02194 
7818 1 2.73744 -2.91856 -3.62505 
2141 2 -1.30014 2.49954 -0.483378 
2142 1 3.51371 1.7383 -3.75007 
450 1 -1.23679 -5.45816 1.63816 
2449 1 -1.10232 -1.39328 -1.05369 
2450 2 1.11486 -2.03626 0.350233 
4487 2 0.639729 -3.26678 -0.580436 
4486 1 -1.14584 0.97686 5.9667 
12078 1 3.05739 1.3555 2.83615 
4488 1 -3.35185 -5.88688 -2.66002 
12934 1 7.97098 -2.1908 -5.06188 
449 2 1.86692 0.53708 -3.7176 
5808 1 -0.964406 4.17741 -2.12268 
5807 2 -1.82053 0.0687451 -1.254 
7059 1 -1.72976 2.15192 -7.2306 
5806 1 0.816107 -1.66015 1.26946 
8562 1 -0.0564103 3.25223 5.58799 
16893 1 -4.47826 -2.46915 -0.936214 
16892 2 3.53023 -0.540253 0.391672 
16891 1 -0.976352 3.17586 0.727507 
7058 2 2.21625 -0.0564102 -0.838277 
17175 1 4.16894 0.111191 -1.20224 
7477 1 4.4744 -6.93918 0.599772 
3768 1 3.87868 -1.45544 -1.94373 
8781 1 -4.727 -6.71285 4.44307 
4574 2 2.05375 2.50718 0.903365 
4573 1 2.64723 2.48103 1.68513 
4575 1 0.535385 1.36036 3.38362 
1162 1 1.65853 -1.2736 -1.95868 
18809 2 -2.58987 -3.03852 2.48113 
7478 3 -3.28964 1.50082 1.85138 
18810 1 1.04883 -1.371 -5.71646 
1411 1 1.60819 -0.861987 1.38561 
1412 2 -1.93779 -0.436715 -1.78275 
7479 1 -0.42736 -0.621505 -3.81896 
12717 1 -3.98492 -0.330608 2.20009 
1413 1 1.50729 -8.95034 -4.1847 
10952 2 3.85522 2.28071 -3.07997 
10953 1 -2.80669 4.34958 0.500736 
11899 1 1.23025 -5.58166 -2.6856 
11900 2 2.13259 0.87812 -1.24968 
11901 1 -1.12689 -1.72025 1.83526 
3590 2 -2.41775 3.58525 0.844502 
3589 1 -1.12619 3.26817 -3.35041 
3591 1 -5.93634 -2.15806 6.93093 
284 2 -1.19123 -0.291797 -3.02796 
3486 1 2.93293 1.64121 -4.75072 
15409 1 0.606654 0.385756 -5.22994 
8895 1 3.03408 0.829305 1.20199 
15411 1 -1.16069 -0.476989 1.13661 
15410 2 1.5957 2.31062 1.45838 
6677 2 -0.318757 -5.40227 -4.34265 
6676 1 0.318502 3.33902 -4.22788 
14916 1 0.740401 3.76207 0.0772037 
6678 1 -2.06824 3.72877 7.78877 
285 1 1.1393 0.200421 -1.43459 
5850 1 1.64882 0.145366 -5.03059 
14915 2 -1.19733 -1.65548 -1.48314 
107 2 3.40672 -0.164549 -5.19137 
108 1 2.45249 0.775849 -1.88416 
17523 1 -2.38274 -5.75587 -4.3703 
106 1 -3.51756 -5.42459 3.74784 
17522 2 -1.78235 1.0883 -0.295328 
13117 1 0.943983 -0.55239 -9.16059 
5848 1 -1.83132 3.81691 -0.630992 
5849 2 2.16613 3.70086 0.632853 
10543 1 6.31358 -2.08449 -0.143888 
19031 2 2.62217 0.402133 4.175 
11723 2 -3.73543 0.311191 -1.52551 
12936 1 4.71801 0.168703 -2.16008 
3548 2 -0.153418 -4.12869 -0.36806 
3547 1 -3.27433 -3.21642 1.18865 
448 1 -1.91076 -1.45369 -1.61376 
12935 2 -1.53684 -1.07884 -0.010374 
3549 1 -3.20427 0.288855 0.938995 
17242 1 0.651886 -1.90274 5.00489 
17243 2 -0.389668 -2.32792 2.66468 
18561 1 4.46737 2.06659 -0.446147 
11724 1 -0.672813 -2.24518 4.79331 
19030 1 1.55368 5.48116 -0.345451 
19032 1 -7.35669 -6.21031 -0.539092 
17933 2 0.572339 1.04827 -1.2707 
7984 1 5.30824 3.99431 -0.120714 
17932 1 1.43613 0.93073 -6.32925 
7057 1 0.086866 -6.72856 6.68071 
17934 1 0.11884 -0.517638 5.6319 
17174 3 -0.73083 -3.80971 -3.67331 
16341 1 3.7199 -0.630486 -2.16608 
17173 1 0.746268 -0.911553 4.04429 
16340 2 1.39679 -0.505043 -1.09646 
1163 2 0.811516 -2.18717 -0.515185 
4509 1 0.27604 0.380986 4.56002 
1164 1 -1.88378 1.68827 3.66012 
10651 1 -1.87161 3.09869 -3.1611 
10652 3 -2.22421 2.83198 2.14212 
10653 1 3.98679 0.193123 1.25959 
9768 1 1.97647 -3.33638 -2.75176 
4129 1 0.134834 -3.14944 1.5112 
12716 2 -4.44001 4.8468 1.89574 
12715 1 -0.679867 4.1459 4.15177 
17845 1 -1.79946 -3.59104 1.49555 
4130 2 1.9224 -2.70588 1.04101 
4131 1 3.03948 -2.69611 -1.44661 
17846 3 -1.64123 3.61283 -3.43008 
19815 1 1.23151 2.99561 -0.571482 
19814 2 -0.193035 -1.29971 -1.4494 
1042 1 -1.71835 2.1587 0.226154 
19813 1 3.78008 1.03349 -6.6155 
10951 1 -4.34041 2.41041 4.48682 
2053 1 -1.17714 1.13019 1.87603 
2054 3 1.84819 -2.95868 2.10654 
17847 1 3.33314 1.90089 6.8038 
18075 1 1.52901 4.25071 0.288434 
1847 3 0.828165 -0.0744611 -1.92214 
15925 1 -2.06301 4.04232 1.72311 
8893 1 0.695711 -1.23453 2.39831 
8894 2 4.82535 -2.64939 3.45681 
1846 1 2.23474 2.14724 -0.784367 
7267 1 5.09554 -1.80889 -0.770638 
7268 2 3.87151 -2.3505 0.581194 
7269 1 5.00658 -4.35938 -1.27608 
15926 3 1.73205 -1.00743 1.34663 
12881 2 0.354519 -5.84561 -1.87734 
12882 1 3.64339 0.90411 -4.20367 
17521 1 -2.28455 0.669947 -3.45259 
12880 1 -8.38794 5.02208 3.35033 
14001 1 -3.28813 3.68395 2.39742 
6541 1 -2.81309 -4.56471 -3.05981 
21532 1 1.11942 -1.06265 2.4574 
10548 1 7.27369 5.30512 2.14588 
10547 2 4.77713 -0.337988 1.09107 
12671 2 2.18541 1.78819 4.13531 
12672 1 -4.4095 -1.40408 -5.48977 
18559 1 2.78577 -3.68816 1.25258 
18560 2 1.63397 3.6533 -3.38216 
10546 1 -1.92557 -2.98851 0.973013 
7335 1 -1.99762 3.11886 -0.459244 
12670 1 2.32593 -1.39759 0.961394 
18216 1 3.37574 -2.02419 6.11962 
21533 2 0.875469 -4.16897 -2.19703 
7334 2 1.03118 -1.59305 -1.46644 
17244 1 2.51253 -1.6691 -0.433956 
7333 1 0.471849 2.37404 -5.92374 
7986 1 4.94618 -3.59451 1.18261 
7985 2 -3.33159 1.33859 -0.0844708 
16339 1 3.34754 -0.820171 -0.86685 
8596 1 0.798247 1.49885 -7.36816 
8597 2 -1.70375 4.60462 0.431285 
8598 1 0.840227 0.621102 4.10308 
8376 1 0.370139 -1.89772 0.243305 
8375 2 -1.55611 0.193903 -2.23583 
11460 1 3.66038 3.77836 -2.91024 
403 1 1.20409 1.05816 1.08239 
4507 1 4.94058 1.41999 -4.17449 
4508 3 7.16634 -1.13457 0.378489 
21508 1 -4.5613 4.0389 -4.86681 
21509 3 -6.42928 -1.29582 1.87933 
21510 1 6.49464 1.89256 2.62307 
16245 1 4.87882 -5.95547 1.65711 
16244 3 -4.4193 -3.10425 3.66672 
16243 1 -3.3257 -1.86534 -1.4135 
20389 1 -1.2804 4.65766 -4.13806 
20390 3 -3.06702 -0.723418 -3.33456 
1043 3 1.82502 0.262125 0.0144352 
2055 1 -1.74264 1.69887 -2.22683 
11598 1 2.33663 0.916338 4.88655 
1044 1 -3.47546 -0.148317 4.22033 
6859 1 4.06555 2.21203 -3.78137 
18074 3 -2.01007 -1.52783 1.50821 
18073 1 -6.5231 -2.19234 -1.78701 
2962 1 3.75861 -3.42788 -5.84291 
2963 3 -2.79234 -0.408723 -2.58119 
2964 1 -4.86061 -3.23891 2.63743 
10288 1 -8.8361 6.55403 -0.336627 
9767 3 -0.707669 -0.322587 4.24396 
9766 1 -3.68064 3.3495 1.64095 
7900 1 3.596 -3.48609 2.93971 
2659 1 2.9619 -1.18556 -2.2377 
2660 3 4.3202 -1.33692 -3.15182 
12100 1 4.87182 0.313529 3.65832 
15927 1 -2.37528 -2.22355 -1.87757 
2661 1 1.51649 -0.793514 1.53119 
7901 3 4.88518 -2.94157 1.06169 
11597 3 -1.64968 1.33754 -2.28259 
11596 1 2.64086 -0.265264 -0.85968 
3984 1 0.73349 -3.85642 -1.58259 
21201 1 8.47254 1.97734 6.14871 
14000 3 -1.09097 1.49482 -1.6297 
13999 1 10.0034 -0.508735 2.39506 
21200 3 0.207317 -3.30142 0.721082 
6861 1 0.632031 -0.589405 1.51844 
21199 1 2.40693 -3.1136 -4.3381 
6860 3 4.26073 6.90914 -4.00543 
9169 1 -5.75879 -1.69302 -0.990821 
2161 1 -3.61193 4.56688 1.00577 
18215 3 2.8932 -5.4972 1.48437 
18214 1 -2.90827 1.29468 4.21435 
20028 1 0.354786 1.20266 5.33431 
20027 3 -0.866692 -3.15532 1.21615 
3754 1 -2.03418 2.24783 -2.33633 
3755 3 -0.0647817 -0.0257451 1.87829 
3756 1 1.0983 -2.85205 -2.55361 
18099 1 0.590418 0.499859 -3.5457 
2618 3 -2.53694 2.58511 -0.903633 
18098 3 0.546732 0.597413 0.714478 
2619 1 3.33766 -1.84998 -3.65377 
2617 1 0.0303352 -4.02504 1.19136 
21534 1 1.74448 4.39247 2.71102 
4945 1 -3.89157 -2.12048 -1.84037 
4946 3 -2.26478 1.78832 -3.56221 
8374 1 1.15992 7.04452 1.72291 
4947 1 -6.72212 1.84538 1.77948 
9639 1 -0.402082 4.26259 2.37467 
11343 1 -1.91866 -1.02145 -0.381356 
12556 1 -1.4881 -3.87036 2.79291 
12558 1 1.83537 -4.26166 10.7471 
3235 1 -0.467497 -1.13903 2.23389 
12557 3 -1.64699 1.04423 6.74139 
11341 1 -1.71113 -2.55515 1.87855 
3236 3 2.53403 -0.798331 -0.804737 
404 3 -2.37479 -0.0543777 -0.63886 
405 1 -3.67088 5.46059 -2.74549 
11342 3 -2.82487 -2.00908 1.15406 
13764 1 2.89363 -2.32518 3.87678 
20391 1 0.651163 -1.46972 1.56239 
13763 3 -1.47219 2.44317 0.735683 
13762 1 -2.38439 -1.85439 -3.30208 
18670 1 0.979783 1.40502 -5.90236 
10289 3 -1.96449 -2.28593 -2.94028 
10290 1 -4.08473 2.58601 -2.07849 
15964 1 0.526331 -3.51764 2.9414 
15965 3 0.863598 0.840079 2.2863 
15966 1 1.36613 4.19231 -4.0398 
7616 3 0.756862 2.80073 2.24283 
9478 1 4.49795 3.58681 -0.308058 
7617 1 2.20634 -3.54479 -1.60843 
8219 3 -0.584778 -2.55698 0.0320264 
8218 1 0.542145 -1.92556 0.476431 
7902 1 0.362059 -0.821679 2.52921 
10114 1 1.22255 -0.259108 -5.11233 
10115 3 -4.63035 4.95561 -0.347115 
10116 1 3.28601 -0.684001 -5.31178 
21228 1 2.19395 -4.16994 1.28374 
12101 3 1.13469 -1.13186 -0.276891 
12102 1 1.84764 5.35968 -2.72187 
8220 1 -3.35082 0.865737 -0.041975 
7615 1 -2.34531 -0.0755039 -2.81561 
10897 1 2.63645 -2.95046 2.35091 
19332 1 -5.86188 -0.160045 1.07858 
19331 3 0.923104 -1.22121 3.60577 
3983 3 1.72085 3.22853 0.169341 
19330 1 -1.7786 6.32558 -3.23636 
849 1 4.87064 -1.4159 1.92036 
3982 1 -3.59013 1.97553 -3.66695 
848 3 -0.721601 0.601491 -0.115821 
5074 1 -2.29581 -1.90331 1.41286 
9171 1 1.65351 1.95983 -6.18295 
9170 3 -1.2228 -1.50129 0.0169499 
847 1 1.8068 1.09783 1.70608 
5075 3 -1.04267 -0.634561 -1.65043 
15309 1 0.630508 -1.24602 -3.07673 
16648 1 -4.75755 -9.32858 0.950327 
2163 1 -5.69008 0.688384 1.46712 
2162 3 -0.644071 2.40033 1.86398 
7060 1 4.5964 -3.57085 -10.1899 
20026 1 6.42367 1.43584 -2.25842 
5736 1 -2.23892 -2.6532 8.33098 
13755 1 -5.00577 -1.58266 0.921274 
5734 1 -1.30977 -4.0627 -7.01731 
5735 3 -1.03237 0.420066 2.10338 
18097 1 -1.35697 -0.583722 -3.08521 
7061 3 -0.462778 0.0345 0.364101 
7570 1 0.434964 -2.14856 1.96817 
17633 3 -1.58883 -1.79069 -3.71957 
10208 3 1.52795 0.567434 3.98448 
9638 3 0.790122 0.430654 2.50549 
10209 1 1.81533 -0.663429 3.22501 
9637 1 4.23199 3.7888 -6.69547 
10207 1 4.27172 0.110177 -2.34314 
17632 1 1.46531 -3.30928 -3.76762 
17634 1 2.17529 0.977673 2.85617 
8194 1 -2.26305 4.75239 0.232598 
8195 3 3.93002 1.83305 -2.18153 
8196 1 0.383423 -3.01828 -3.53201 
4423 1 -6.49551 -0.152973 -0.721287 
3237 1 3.47993 2.20005 -3.73208 
5682 1 1.48349 -0.911992 1.45949 
5681 3 -0.0405792 2.97589 -1.90153 
5680 1 -1.15986 7.63325 -0.42655 
4424 3 0.635971 -1.78011 -1.0952 
9417 1 1.68919 -4.57671 -0.647073 
18671 3 3.8633 1.62103 0.738415 
18672 1 -2.11948 -4.65347 -0.759241 
10819 1 0.0113108 -3.93075 -2.44289 
10820 3 2.15667 1.32784 -2.12522 
10821 1 4.3744 0.509345 0.09158 
17172 1 6.64063 -3.21708 3.07324 
10898 3 -1.17396 -1.24854 5.1536 
10003 1 -3.15031 2.00584 -0.979864 
21227 3 -1.9507 -3.6083 2.64859 
13343 3 -0.635916 4.19578 4.08678 
13342 1 -0.44263 1.06055 -1.94152 
21226 1 1.16753 3.30095 5.27849 
13344 1 2.01947 -2.57226 -0.250245 
15934 1 -1.52569 1.40904 -1.8294 
9480 1 -4.29034 -2.09988 -6.4083 
10899 1 -2.79097 1.27614 -3.45196 
15308 3 3.38103 -3.3693 -2.25586 
3652 1 -0.277013 1.24056 -1.44188 
15307 1 2.61301 -1.0483 -2.4843 
3653 3 2.08757 -1.47381 0.97459 
14997 1 5.81199 2.95182 -1.76419 
5076 1 -1.45475 4.89442 -3.35906 
14995 1 -2.61998 2.03616 3.60028 
14996 3 0.948336 1.39313 -1.44662 
670 1 1.15194 -6.46334 -1.18442 
671 3 0.581081 1.9752 2.56548 
17171 3 -0.977161 -0.0179911 5.55543 
17170 1 0.175653 5.26389 -2.07958 
8076 1 -3.30915 -0.333579 -0.0871924 
8075 3 -2.03517 2.00347 0.286624 
13754 3 -0.250526 -1.0308 4.01418 
13753 1 -0.448461 1.97159 -0.0371068 
19354 1 -5.50011 2.54061 3.41803 
19355 3 -1.60755 3.27688 -1.30609 
19356 1 -7.8534 -1.84118 -0.691453 
7571 3 -2.12528 0.189952 -0.910685 
6640 1 0.35785 4.5466 5.55765 
17588 3 0.670621 0.0144121 1.65494 
17587 1 2.09962 -0.160023 -4.04348 
17589 1 2.52345 5.01569 0.0438833 
20009 3 5.57051 -2.50019 -3.68133 
7572 1 0.427705 -0.649663 -5.37483 
20008 1 0.742269 -0.0123178 6.67405 
6641 2 1.15518 -2.95135 1.83155 
7896 1 4.39804 -1.06633 0.711042 
4425 1 4.41735 2.86862 -4.03801 
7895 3 -2.64718 3.88898 1.32592 
7894 1 0.620452 -1.01482 -0.135435 
2470 1 -2.88083 -5.0841 -0.324475 
9416 3 -0.0105995 -1.0448 -0.427078 
10029 1 -3.72843 1.08442 0.167768 
10028 3 0.963885 -2.098 -0.0597887 
10027 1 1.1806 2.9811 -1.49888 
5107 1 -6.2913 -0.658484 0.166986 
5108 3 -4.67729 -2.97926 -0.67826 
12220 1 -1.30034 -3.01377 0.524302 
15935 3 3.57322 1.00823 -1.83912 
15936 1 3.76641 6.44468 -1.37605 
12221 3 -5.00716 2.35672 2.66186 
9415 1 1.09749 -0.0683546 3.81053 
14475 1 4.31832 3.83579 0.432747 
14474 3 -4.19644 1.42318 -1.33851 
3654 1 2.52194 -0.261202 0.44736 
10876 1 -0.459286 -1.21245 -5.56225 
12354 1 -1.11179 -2.53265 6.70342 
12353 3 -3.55218 4.3111 3.53856 
12352 1 2.50081 2.42369 3.02745 
12812 3 1.06701 3.04208 2.36332 
672 1 -2.64617 2.13568 -1.08863 
12811 1 1.98821 -2.15583 -1.21471 
8074 1 -3.55908 -4.13494 4.43101 
7951 1 2.41363 0.735553 1.55718 
7952 3 -1.28082 -0.0437034 -0.302154 
7953 1 6.75694 -5.25743 -4.16994 
5350 1 -6.50518 0.505481 2.4974 
19975 1 -1.23047 -0.729028 -0.397577 
11533 1 4.12763 -5.46613 -0.605698 
12813 1 1.97956 0.00319849 1.59967 
2881 1 1.96491 0.867776 -2.37208 
11534 3 -2.53349 -2.42113 -0.117604 
11535 1 -1.39881 -3.92712 -2.23362 
2882 3 0.700378 0.71543 -4.17171 
13062 1 5.47899 1.11333 -4.94508 
19635 1 1.42294 -0.113038 0.599488 
13061 3 -2.95992 0.886379 -2.9739 
6642 1 1.88874 2.50246 5.17361 
13060 1 -1.16374 2.02335 -4.09621 
11740 1 0.0747909 0.893807 -2.70332 
20010 1 -1.06914 -3.5611 -5.41093 
6550 1 -3.77944 3.66441 -3.67831 
11741 3 -0.590081 -2.48884 -0.960207 
11742 1 3.89862 3.74441 -2.37159 
19125 1 0.679026 2.49714 -4.4847 
19123 1 -3.09341 2.32111 -1.80269 
19124 3 0.1448 1.81122 2.85649 
12348 1 7.36731 -3.8059 -3.95409 
21334 1 3.64093 4.19148 -6.18013 
21335 3 -1.67255 -1.97879 -3.14431 
5351 3 1.35383 -0.713808 -1.64849 
5352 1 -1.48456 -0.991231 2.98806 
11191 1 7.53384 3.78845 1.034 
11192 3 0.605865 1.33339 2.10621 
17765 3 -2.50269 -6.76629 -2.27962 
1992 1 -3.16449 6.18792 3.9212 
17766 1 -1.21254 -2.81215 0.446015 
14662 1 4.26793 3.22205 -1.45529 
2471 3 1.92305 -0.0632691 -6.11771 
2472 1 -0.571743 -2.39842 -2.31026 
12222 1 2.33994 -5.88895 -0.367821 
12118 1 -3.53105 -3.66173 -0.830222 
12119 3 -1.2499 0.198959 -1.42401 
14663 3 -1.76125 -0.747154 -2.16427 
14664 1 -2.11012 -3.21099 2.81683 
12120 1 -3.01167 3.42102 3.45237 
14473 1 4.85282 1.73672 2.26446 
11988 1 3.97132 -0.518224 -9.10355 
9682 1 -5.99252 -2.65512 -0.249109 
1991 3 8.05317 -2.02332 1.73186 
1990 1 5.20325 -2.08395 2.43432 
1674 1 -0.585249 -1.0324 0.508124 
1673 3 -1.96521 0.570698 -1.26256 
10877 3 -0.62819 -0.507802 2.15703 
19449 1 -1.43177 1.14614 3.56529 
12691 1 -1.29357 5.92475 -6.66308 
9683 3 -0.176127 0.5413 -0.788797 
5109 1 0.25733 -3.98912 1.50137 
9684 1 -1.6635 0.204335 -0.311124 
19448 3 6.7642 1.26797 -3.4221 
10878 1 -1.46161 -0.558805 5.98456 
19447 1 -3.96948 -0.604161 2.72671 
19976 3 2.4944 0.857012 -0.369565 
19977 1 0.855892 0.375744 -2.89824 
20584 1 6.70811 5.16146 2.58756 
20585 3 0.688959 2.95134 0.584765 
2883 1 -0.129756 -3.29879 -3.45857 
4501 1 0.250969 -4.44492 -4.17587 
902 3 -0.98512 0.81336 -0.0874751 
901 1 2.06947 -0.207505 1.48041 
903 1 -1.66888 -1.80887 -2.86927 
6551 3 3.73438 -0.167552 2.86567 
19633 1 -0.684854 -3.2413 -2.37945 
19634 3 -3.60044 3.67072 0.846351 
10994 3 1.12435 1.64967 4.38775 
10995 1 0.280463 -1.9317 2.90993 
10993 1 -7.325 0.110931 0.726385 
6552 1 -1.62167 1.04789 0.543056 
5046 1 0.141288 4.63442 3.13277 
9111 1 -1.93658 -3.27935 0.729397 
12347 3 0.182338 0.35236 2.37634 
12346 1 -2.30651 4.77837 1.19164 
9110 3 -4.30322 -2.96023 -1.63081 
21502 1 0.37694 5.27674 -1.00144 
2152 1 -3.294 -2.13357 -1.12987 
9286 1 -1.88626 0.347951 3.27305 
9109 1 4.90943 -4.99559 -4.25518 
9287 2 1.54375 2.61759 0.768657 
21336 1 3.76956 -1.4668 -1.56007 
2153 3 1.80323 2.8049 -0.992909 
2154 1 0.939369 -3.39521 -0.163409 
13571 3 0.647795 0.937192 1.47821 
11986 1 3.13348 1.87253 -2.55325 
13570 1 1.30721 -3.03056 0.0267005 
11987 3 -1.95823 -6.39567 0.765954 
13572 1 -4.40254 0.586881 3.99728 
1576 1 0.40739 1.62253 -1.76595 
1578 1 -1.87535 -1.29114 0.0576461 
12250 1 -3.49926 -1.76108 3.063 
1577 3 -1.20587 1.08101 0.987794 
12251 3 -0.808264 -2.4816 -2.13342 
1672 1 -4.71308 -3.63088 -2.76919 
142 1 -0.746785 3.76585 -0.606611 
143 3 -4.69709 1.17752 -1.44309 
144 1 3.5307 4.52364 2.38023 
5208 1 -2.36405 5.29174 -1.23838 
10911 1 0.634835 1.11759 1.0803 
20532 1 2.72537 0.257906 -4.57258 
20531 3 -2.58556 -4.20585 -3.58697 
12692 3 -2.3323 0.679078 -0.605997 
12693 1 1.92212 1.44278 -2.00353 
16971 1 -0.0444077 -1.30867 -1.47762 
17784 1 -1.21868 0.339134 1.24759 
11193 1 -0.489703 3.55797 5.07896 
20530 1 -0.709946 -6.16938 3.24972 
20586 1 -0.95162 0.972307 -0.156634 
17783 3 -5.37481 0.0197418 -1.96351 
4502 3 0.502401 2.15004 0.763613 
21590 3 1.70329 0.385521 2.52786 
21589 1 2.76042 -3.43503 -2.20065 
15633 1 1.32021 -6.61722 0.568893 
21591 1 -4.12635 2.39759 -2.23563 
17782 1 1.17427 1.4509 6.24266 
4503 1 -0.514583 2.50754 1.25924 
15632 3 -1.95389 -0.30845 2.92777 
11446 1 -0.549365 -1.6329 1.30072 
5045 2 -2.52389 -4.73772 -1.02731 
14595 1 -1.59577 -3.95831 -2.91531 
5044 1 -5.18762 -0.755363 4.93059 
14594 3 -1.84856 -6.18357 -1.1721 
6755 3 -2.55578 2.06217 3.35629 
9288 1 6.72976 -3.63413 0.241203 
10150 1 2.24881 2.50465 2.90067 
10151 3 -1.17095 0.265589 0.533015 
10152 1 -2.03351 -2.14081 5.61555 
3820 1 -5.32238 -2.45917 4.27314 
6754 1 3.34932 2.01192 0.986041 
21504 1 1.64924 -0.273136 -1.94544 
21503 2 4.33139 -2.2871 -0.273664 
5545 1 3.60757 -0.719793 -1.59027 
5547 1 9.89133 -1.4896 -1.91257 
10287 1 0.118532 1.04759 2.83505 
5546 3 -1.34535 -2.96483 2.16242 
10286 3 0.339965 -4.17819 3.365 
12252 1 -3.65205 -2.226 -3.75514 
15601 1 -3.08746 3.64415 5.44609 
19222 1 3.83816 -8.05164 -6.2744 
19224 1 7.34157 -1.16787 -4.78157 
19223 3 -3.09097 1.41806 -1.60651 
7559 3 -5.15499 1.44518 -0.560995 
5206 1 -5.15389 -1.40035 -2.18713 
7560 1 2.76442 2.11299 -0.0547922 
5207 3 -0.937372 -0.373209 3.8727 
10910 3 2.4648 1.77067 1.58292 
11819 3 -0.494408 1.62305 0.311314 
10909 1 2.16709 4.67732 -0.35931 
11818 1 5.88 -1.09512 -2.37005 
11820 1 -0.91407 0.772318 3.40292 
15258 1 6.90145 1.2899 2.85967 
15631 1 -3.30993 3.34005 -5.37696 
8260 1 5.39973 -1.51464 2.05905 
8261 3 5.34053 1.47246 2.48556 
8262 1 2.04405 2.25838 -2.33685 
3627 1 6.11394 -2.24034 5.35887 
16970 3 1.87596 2.37784 1.07086 
19477 1 -3.18303 -2.00043 -6.75295 
14593 1 1.52632 -3.9874 2.58209 
1408 1 0.58461 2.11023 -0.687765 
13017 1 -3.34447 -0.0129357 0.619634 
13016 2 -3.12033 1.25371 2.30552 
13015 1 -1.26713 -3.0913 2.65675 
19478 2 -2.09063 0.460271 -3.99674 
1038 1 -2.28835 0.203724 1.84718 
19479 1 -4.04081 -1.14338 -0.553106 
1037 2 -3.48183 -0.287205 5.66493 
598 1 -1.15797 -2.29684 1.76864 
3821 3 1.04732 0.149199 -4.44333 
6756 1 0.123401 2.70841 1.54072 
18028 1 2.01807 -2.73086 2.8365 
18029 3 -1.67782 -1.01336 1.61169 
13035 1 0.797028 -4.09008 -7.05697 
18030 1 1.89788 -0.338683 1.60349 
10285 1 -1.12101 -1.86949 -0.857851 
3822 1 3.1653 -1.87859 -5.2221 
360 1 -2.13976 -1.76011 -8.1027 
359 3 -4.76849 1.00392 -4.84559 
3710 2 3.52299 -5.50234 -4.24369 
15602 3 -0.842192 -2.07311 -1.27479 
599 3 -1.71619 -4.63359 2.42898 
600 1 -4.98608 1.20355 -1.39016 
693 1 0.650377 -3.13226 5.9031 
4442 3 1.43203 3.03866 -1.9657 
15603 1 -2.37544 1.04678 -5.9945 
4441 1 0.831511 6.80915 4.22736 
4443 1 3.94959 0.561437 5.64978 
11529 1 2.97458 4.42177 1.61162 
7558 1 4.61999 0.0185388 -3.64631 
21378 1 -1.12107 -1.39278 -0.992697 
1984 1 -2.6395 0.168874 0.549757 
1985 3 4.02464 -3.8101 6.55276 
1986 1 2.98641 1.28228 4.81376 
15256 1 2.19499 -5.15522 -0.423059 
15257 3 0.17342 -2.00249 0.0998568 
2045 3 2.22646 0.923884 -0.710177 
2046 1 1.80848 -2.2181 5.21005 
4741 1 0.133258 -5.33756 3.58826 
3626 3 -0.348643 0.81369 -1.14504 
4742 3 4.81843 -3.206 -1.02722 
4743 1 -2.68219 5.43795 -4.92046 
3625 1 5.65237 2.15789 1.16368 
1409 3 -3.28563 -1.34235 -0.743821 
3711 1 0.502108 -1.59591 -1.52059 
20269 1 -2.1838 -0.0256346 1.16683 
20271 1 1.12888 -4.81715 -5.61872 
20270 3 4.75107 3.28904 1.96559 
1036 1 3.73598 4.73059 5.94677 
17549 3 -1.76433 -2.86453 1.14788 
5719 1 5.41678 0.243004 -5.75734 
17550 1 3.35607 -1.62252 2.61606 
17548 1 3.2244 0.545557 -11.7366 
1410 1 0.737158 -1.06474 5.10051 
6514 1 1.90003 1.31076 0.23705 
6977 3 1.64203 -0.191075 -1.06141 
6976 1 -2.98314 -6.63553 1.82043 
6515 2 1.43749 0.139464 -4.21668 
6516 1 3.12779 -1.40004 -1.50662 
13835 2 -4.65452 5.65725 0.795993 
13834 1 -3.50952 -8.36441 0.161687 