ITEM: TIMESTEP
100000000
ITEM: NUMBER OF ATOMS
4047
ITEM: BOX BOUNDS pp pp pp
0.0000000000000000e+00 5.0000000000000000e+01
0.0000000000000000e+00 5.0000000000000000e+01
0.0000000000000000e+00 5.0000000000000000e+01
ITEM: ATOMS id type vx vy vz 
18973 1 2.90531 -0.932689 -2.30658 
796 1 -2.50205 1.65277 1.03835 
797 3 -1.68929 1.52344 -1.86758 
798 1 1.93278 4.68287 -1.17808 
18196 1 -2.95519 -3.33284 -4.11725 
845 2 -2.50346 2.23092 -1.75622 
846 1 -4.76283 1.61828 3.18628 
18974 2 0.520435 -0.516384 -3.00073 
3720 1 -3.1596 -1.76537 -3.95022 
10072 1 -3.0352 -0.168456 -1.48128 
18975 1 -4.90129 -2.36403 0.0259406 
3719 2 -1.51124 -1.19409 -0.850037 
3718 1 -6.76724 4.44296 6.14978 
10073 2 -1.46867 1.90546 -4.31519 
7023 1 -3.36528 -0.0783881 -1.4439 
7022 2 0.811372 -0.628842 -1.65012 
16531 1 1.75739 4.68566 -4.82651 
18384 1 2.14976 -3.35695 0.115281 
18383 2 2.91031 3.84599 0.431977 
13772 2 0.479727 -4.61436 -1.06653 
13773 1 -2.65663 4.67704 1.89655 
18382 1 4.09978 -3.05388 2.68584 
13771 1 0.384755 7.44232 2.31856 
19366 1 2.46544 -3.81641 -2.73312 
19367 2 1.15498 -0.0153765 -3.71769 
5433 1 -1.94215 2.55491 3.53036 
507 1 -1.72615 1.31194 -2.20347 
506 3 1.61583 0.717724 -0.454946 
31 1 -4.61986 4.10938 -2.37089 
19953 1 2.29668 3.33223 -1.38699 
19952 3 -0.126915 -4.65793 -2.29435 
19951 1 -3.34489 -3.10721 7.14696 
7410 1 -0.860761 1.77479 4.19634 
7535 2 -2.35735 -5.1715 2.73641 
505 1 5.50745 0.869813 -0.019675 
15354 1 6.02464 -3.70212 -2.93124 
15353 3 0.941359 -0.927961 2.73086 
10620 1 2.18106 -3.92526 -1.46257 
7021 1 -1.06217 5.20635 2.10107 
7536 1 0.589591 5.5046 -0.352453 
17484 1 -3.30771 1.64368 -11.8301 
10619 2 3.51535 2.42316 2.28473 
10618 1 -0.864597 -4.39685 0.433911 
5832 1 3.62319 -3.60344 -0.606861 
17483 2 1.24482 -4.89217 -5.52093 
17482 1 1.98808 -1.90966 -0.709055 
21278 3 0.815054 -0.797454 -3.56924 
21279 1 -0.32364 4.56145 -3.26775 
19368 1 1.0522 2.60539 7.1625 
14508 1 -1.9756 0.806646 -2.62922 
11580 1 -3.95714 0.876748 0.137762 
11579 2 -1.25867 -2.94595 1.56675 
11578 1 4.49276 3.19884 -2.54619 
4686 1 0.557723 1.95262 -0.650584 
5821 1 1.21913 -0.87643 2.30867 
5432 2 0.348081 -0.534837 0.671976 
5431 1 8.31043 5.26229 -2.58526 
5913 1 5.21592 -0.599014 0.935446 
7409 3 -0.357068 -2.56903 0.201567 
15352 1 -6.82992 3.17055 0.869805 
2866 1 -4.94955 -1.47368 2.11851 
2867 3 -0.659158 3.1474 -3.43447 
17880 1 0.433964 1.04529 4.04796 
17879 2 -4.86512 -2.61014 2.19407 
5822 3 0.364388 0.143144 -1.67821 
5823 1 2.14315 -1.19181 -4.53282 
3829 1 0.66758 0.799902 -0.539757 
9264 1 1.57443 2.55145 -3.06323 
7408 1 -3.19815 0.430418 -0.790936 
7858 1 -1.83608 -2.7941 -3.1508 
7859 3 0.370062 4.77271 -3.19072 
7860 1 -6.49056 -2.75808 -0.104971 
9263 3 -2.73686 -1.45455 0.866133 
9262 1 -0.973702 2.35746 -3.48863 
13446 1 -2.5969 -2.01117 2.3626 
13445 3 -0.686344 -5.13204 -1.04188 
5831 3 -0.553172 -1.56651 -0.867785 
2868 1 -0.617239 -1.43489 -5.2927 
78 1 -0.343123 3.70707 -1.74933 
5830 1 -3.59159 0.614795 -4.58804 
12156 1 -1.81954 4.97145 -0.925919 
77 3 -1.37589 0.946555 -1.34914 
76 1 -2.93835 4.08787 -4.13213 
19093 1 -3.96719 -3.93952 0.830976 
12155 3 -4.21609 -0.114947 -3.20897 
20788 1 -1.04021 -2.44077 -4.03812 
20789 2 0.847183 -0.591245 2.48463 
21480 1 -0.553446 -4.54738 -0.204833 
9094 1 2.44196 -0.139405 2.99675 
21277 1 1.65635 -3.31293 -1.33667 
9095 2 2.49702 -5.0955 2.71237 
6643 1 1.47897 -0.508565 4.59057 
9096 1 2.93373 -1.05672 -0.51886 
12154 1 4.62821 4.956 6.42501 
21478 1 3.08709 -2.79982 1.10561 
2179 1 2.36606 -1.01925 3.54424 
2180 3 1.48105 -1.54207 -5.35683 
21479 3 2.92067 4.5437 -1.68497 
4685 3 0.742031 0.490305 0.0232637 
2181 1 1.27772 0.483665 -0.682996 
8151 1 3.7789 1.96103 -5.14179 
4684 1 1.43823 -5.62373 -1.6804 
7957 1 -2.536 -0.172631 3.33554 
7958 3 1.61216 3.63008 1.47198 
7959 1 5.2243 -4.02832 -3.1879 
73 1 1.13694 -1.29824 -1.51678 
74 3 -1.30467 2.57779 1.2097 
14625 1 -0.716759 -0.00615397 -3.13883 
14624 2 0.252628 -1.48468 -0.777553 
6827 3 0.660697 -1.1713 1.38018 
17836 1 1.6133 -3.7404 -4.90947 
6828 1 5.85138 3.94608 -0.0527552 
16717 1 -0.373256 -1.51445 0.19412 
16718 2 -1.13088 -4.13796 1.19586 
16719 1 -6.54776 -4.53852 -4.25459 
6270 1 -2.95387 0.545599 1.84442 
6269 3 0.173359 3.26222 0.593988 
17837 3 -1.66304 -4.41487 1.4255 
20971 1 -0.6188 -1.27513 4.56668 
10965 1 0.808696 -1.94048 5.68658 
14623 1 2.49724 -4.59328 2.04377 
6267 1 -1.04224 2.62042 -7.32007 
6266 3 2.33249 -0.693537 0.680445 
10963 1 -0.801405 -6.87195 -0.815537 
14334 1 -4.69583 -4.27636 -2.27167 
14333 3 3.1134 1.11729 -0.168236 
17878 1 3.00219 -0.383893 -4.38387 
14332 1 -3.36527 3.19766 5.12528 
6265 1 -9.23566 1.57564 -0.173257 
6268 1 2.04041 1.89854 -1.92222 
10964 3 0.32671 4.18286 -1.39784 
5673 1 3.22103 1.04474 -0.762411 
18004 1 -5.59473 -7.08031 1.87549 
9780 1 8.4339 -2.17679 -1.68496 
19567 1 1.52516 -5.34741 2.07233 
19568 2 -3.19466 -1.18097 -2.83817 
19569 1 -0.738299 -4.06568 2.19346 
19803 1 2.98261 6.33475 2.43023 
19802 2 2.22659 1.82746 -2.5831 
9779 2 2.38717 0.0567688 0.0927808 
9778 1 -2.57651 -5.66208 -4.67624 
13444 1 -1.9892 -1.32157 -2.64039 
6336 1 6.4459 5.13954 0.114982 
6335 2 -4.68517 1.85798 4.77377 
19094 3 2.08465 -0.868501 -0.414296 
5995 1 -1.86448 4.25346 0.835176 
5996 3 -0.217712 0.0691686 -0.392516 
19095 1 0.00514846 -2.54289 -0.308061 
14602 1 3.75671 2.59209 3.36681 
5997 1 -0.877438 -4.02896 -3.42549 
14603 3 -1.23137 1.24287 -3.1709 
927 1 1.5386 4.24728 -5.31657 
19287 1 -1.2818 -2.81193 0.658003 
15267 1 -2.06601 2.5996 -0.529728 
14068 1 2.34481 -7.91054 -5.08145 
15266 2 -2.23816 1.73316 -0.997317 
20790 1 -2.00449 2.20347 -3.95478 
16383 1 -0.288245 4.35082 -1.25148 
16382 2 3.40211 -2.16189 1.01216 
16197 1 -2.78739 -3.52316 5.26659 
16196 3 4.15449 0.627348 -3.20729 
16195 1 -0.161407 3.10908 3.04234 
6334 1 1.11678 -6.11607 -0.1867 
2697 1 -0.0637034 -1.35223 -6.49776 
926 3 1.3094 1.63777 0.338084 
15768 1 1.8085 -2.44158 -4.65068 
15767 3 -0.497746 -2.12396 -5.38104 
925 1 5.20142 -0.000330373 -1.59727 
16381 1 4.8998 1.79183 0.129435 
2696 3 -0.318251 -1.61605 -3.34134 
14548 1 2.21144 4.09641 1.10831 
13257 1 -3.71951 -5.23413 0.0766439 
14069 2 4.26203 0.495401 -0.81385 
20329 1 2.92723 -10.9338 -7.83518 
14070 1 -5.87761 2.88605 3.9421 
2562 1 -3.11228 4.12707 -3.90304 
2561 2 -1.08894 -1.86312 -0.622567 
2560 1 -1.55511 0.295599 5.10721 
5967 1 -4.52121 3.949 -1.53765 
8150 3 2.89324 2.27466 0.382198 
14549 3 0.744212 -5.11938 0.6463 
14550 1 -3.14724 -2.45589 2.05596 
18924 1 -0.942004 5.30911 -4.98116 
8149 1 2.18876 -0.632178 3.89366 
6096 1 0.49058 6.1444 0.231266 
6095 3 0.623516 -0.118883 -1.22087 
6094 1 2.08819 1.90324 -0.481736 
8487 1 4.38019 -3.9937 4.6542 
13751 2 -1.83086 0.631975 0.19417 
75 1 -0.959944 1.32323 3.81182 
7755 1 3.01468 0.232818 0.17107 
13752 1 -1.43488 -2.09703 2.00631 
7754 3 0.330051 -3.22831 2.69304 
7753 1 -0.783567 -0.55272 2.09862 
6436 1 7.76169 -1.68901 5.12688 
3837 1 3.84856 -5.50607 2.02918 
19261 1 -3.46998 5.74553 -3.56471 
19262 3 3.87626 0.896725 2.51913 
19263 1 -1.82296 3.54579 -0.319278 
20541 1 -1.08429 0.209341 0.398637 
20972 2 -0.160904 -0.217733 -0.0185159 
20540 2 -1.84411 -2.11221 2.11559 
20539 1 5.87833 4.63064 -0.521361 
8512 1 2.43758 1.62066 1.50463 
20973 1 3.75247 0.921394 0.477037 
15912 1 -0.684529 -3.26583 2.94424 
3836 3 0.519897 0.534517 -2.14938 
15911 3 -4.47657 0.258539 1.04609 
5196 1 -6.49183 4.16482 3.09487 
15910 1 -4.11222 3.50733 4.0804 
8673 1 3.86811 -2.05017 7.02597 
18006 1 -0.459944 -1.84508 -5.33961 
12393 1 0.12477 4.63582 -0.755659 
12392 3 -3.08575 0.453485 -0.191313 
12391 1 -6.21218 0.23548 -0.732134 
18005 3 5.33311 0.90418 1.59653 
5672 3 1.90977 0.33563 2.89253 
19801 1 1.687 2.33911 -2.73414 
8513 3 0.520966 -0.635661 3.31662 
15481 1 -2.57113 -0.261738 3.4069 
8514 1 3.32057 -2.38648 -2.9445 
15482 3 1.56859 -1.94205 -5.08966 
15483 1 -5.49085 -4.27994 -2.10661 
17472 1 -5.46152 1.02308 3.74695 
109 1 2.01181 -3.71067 -5.20412 
110 3 -3.90555 -1.41094 0.888112 
10348 1 2.80626 -3.77987 -1.74434 
10349 3 3.07233 -1.78822 1.69586 
5671 1 -5.60509 -1.26399 -2.03943 
14604 1 -2.61906 -3.65042 -3.83784 
20923 1 2.84913 2.46025 -4.94457 
16408 1 1.91756 -2.03269 -0.323381 
20924 3 0.402585 -2.54701 2.32228 
20925 1 6.24254 -2.11083 0.706674 
16459 1 2.09146 1.26286 -1.63327 
16409 3 1.99491 0.456619 4.57561 
16460 3 -0.964302 -0.19636 3.54406 
15265 1 -1.85853 -6.09324 -6.53797 
11331 1 4.76057 -3.8944 -0.408576 
20025 1 0.851068 3.3428 -1.88854 
11330 3 -4.3785 -3.36196 1.94402 
11329 1 2.26219 8.35955 7.28736 
20023 1 -1.6366 3.23788 -0.825518 
20024 3 -0.603477 2.24992 2.26311 
17471 3 6.3473 -3.01323 2.41119 
18328 1 3.06109 -3.42606 1.41538 
15766 1 0.813536 5.54175 -3.9287 
10293 1 -1.5715 -5.76174 3.63598 
17470 1 1.26103 -2.76252 -2.51613 
2701 1 -5.07322 -3.63549 5.20946 
2695 1 0.596394 1.24614 -3.82381 
16410 1 0.49822 1.21852 -2.1181 
13105 1 2.29181 -2.20872 2.1861 
2703 1 -6.57974 -2.8882 -5.24692 
2702 3 3.4055 -1.46361 1.65947 
13106 3 -1.22799 -2.88427 3.01055 
13107 1 -1.0584 3.31759 -8.49226 
7117 1 9.64472 -0.881467 5.07472 
10292 3 -0.376258 -2.22494 -0.218082 
6469 1 -0.179653 -3.99329 -2.62787 
473 3 -3.54754 1.00647 1.71292 
6470 2 -1.29823 -1.65662 -1.06373 
6471 1 3.40151 1.72497 -4.93677 
5966 3 0.917491 -0.975259 0.221384 
472 1 1.66607 -1.15813 -0.570006 
20330 2 -4.37872 0.161729 2.33886 
20331 1 -0.701222 -6.69969 1.99475 
9081 1 5.68627 -2.49494 1.32242 
9080 3 -1.24486 0.1094 -1.04959 
9079 1 1.50301 -2.63433 0.744974 
345 1 -1.13841 3.00117 -0.703707 
344 3 -0.519515 -2.6893 0.911586 
16918 1 -3.66542 -0.325954 -1.2233 
7118 3 -2.44291 -1.67116 -0.710647 
18923 3 -2.49119 2.60144 -1.57289 
18922 1 -3.98646 1.16252 -0.517795 
10593 1 0.378754 0.136874 -1.83436 
10592 3 -0.446592 0.444997 0.934862 
10591 1 1.0499 -0.505897 -6.0124 
11332 1 -0.0147246 2.2578 -4.58987 
2759 3 -0.044129 -0.953049 -0.503375 
474 1 -4.30457 -0.0643593 -2.12705 
2760 1 -4.91255 -3.91754 0.291274 
5965 1 -5.95062 2.39264 -1.98277 
8208 1 -8.33256 -2.20717 0.690739 
8207 3 -1.11028 -1.50341 -0.338024 
8486 3 -0.92781 -0.706402 -1.31913 
8206 1 -4.42572 2.6402 0.637866 
18926 2 -4.51943 -1.09289 4.78079 
18925 1 10.4302 -2.51773 4.2156 
14248 1 -1.23096 1.34773 -1.90084 
8485 1 -0.141076 5.62253 -3.6813 
2698 1 -1.58659 3.80545 3.00375 
2699 3 -0.0816721 -0.343669 -0.876244 
2700 1 -1.78371 -4.6508 -10.8035 
14249 3 2.1068 1.20335 0.600752 
13750 1 -5.82412 -6.35284 2.37933 
18003 1 -0.162021 2.86382 -1.09763 
4597 1 -4.89513 -0.150923 0.0273986 
14250 1 -2.89592 2.66447 1.37862 
18876 1 -1.73272 1.45946 -0.174064 
4598 2 1.31708 -1.48396 6.25777 
17276 2 2.43022 -1.01732 3.6129 
17277 1 6.93493 6.71722 0.604958 
8827 1 1.74855 4.5264 0.121655 
8828 2 -1.2078 -0.766771 -5.35458 
8829 1 -1.8952 -3.16353 3.15509 
17275 1 -3.62134 -8.21829 -2.07445 
7496 3 3.57949 -0.38748 0.749363 
7495 1 -2.64684 2.15199 -1.23419 
4580 2 1.86376 -2.52671 3.95191 
1998 1 -6.42824 0.535676 -2.11899 
4581 1 -0.645818 -4.11139 4.77717 
4579 1 -1.1452 -3.74663 -3.30142 
4665 1 1.4068 0.361095 -1.39926 
15714 1 -0.67014 1.71504 -0.245888 
15713 2 -2.41793 2.58824 1.03097 
15712 1 -2.80628 7.21445 -0.669572 
8850 1 0.414579 2.52538 2.33187 
8849 2 -0.556837 -1.21481 3.24885 
13595 2 0.468458 0.385667 0.0812901 
13594 1 0.768604 1.26013 2.9656 
15507 1 -1.13594 5.69059 3.08111 
10099 1 -1.92856 -5.73133 0.873145 
13596 1 -3.49631 3.14391 -3.57825 
6454 1 1.7377 -2.32013 -0.72147 
16570 1 0.895256 3.67175 2.4363 
17380 1 8.17463 1.9028 -2.85416 
10100 2 0.908444 -4.8322 1.77108 
17381 2 -0.910882 3.03584 4.12155 
13861 1 1.93992 1.568 -2.52633 
11404 1 -2.42357 3.76106 -0.684255 
11405 3 -3.51192 -4.39586 -1.03925 
13862 2 -4.94395 2.34866 -3.33571 
11542 1 0.779369 2.18391 4.30947 
13863 1 -8.58539 -5.22376 5.60917 
8848 1 0.549678 3.99924 -0.380577 
15506 2 -2.46813 -0.0772283 -1.14636 
15505 1 -4.0279 -5.4423 6.33436 
9348 1 -3.04609 -8.19995 -4.33665 
9347 3 0.408916 -5.5655 2.36262 
9346 1 -4.35392 -2.99241 -1.03354 
10474 1 -0.525739 -2.33775 -0.1097 
10475 3 0.536346 -1.79834 -3.13141 
11543 2 -0.60534 1.73865 -2.8844 
11544 1 7.76103 -0.741635 0.920979 
9515 3 -3.22432 -1.79841 -6.12341 
10476 1 0.48066 1.34557 -0.327907 
9514 1 1.42293 -2.48478 -1.97924 
9516 1 -0.560645 -6.50794 0.921285 
10074 1 -0.57704 -0.710646 -4.15461 
19908 1 4.39757 -1.40074 4.37526 
20700 1 -2.2277 -3.70713 -4.2544 
20699 2 -7.21676 -2.24602 2.9436 
18197 2 0.32939 -1.80373 -1.4428 
2650 1 0.374621 -2.62045 1.21823 
6537 1 -3.55708 0.800144 5.93197 
18198 1 1.00073 5.59992 3.31846 
2651 2 -3.30973 1.85493 3.65106 
2652 1 -6.15474 0.725776 6.93345 
12310 1 2.44038 -0.903614 7.51215 
19645 1 0.211525 2.85309 -0.350285 
19646 3 4.24839 -2.08022 0.107468 
19647 1 4.30431 0.830982 -3.11303 
4639 1 2.61699 -1.17867 -0.528267 
1419 1 -4.8965 -4.91138 2.00718 
6812 3 2.40938 -0.424035 6.00363 
6813 1 1.47135 4.836 5.03235 
844 1 1.74985 -1.99082 4.3669 
10795 1 8.37976 4.42877 3.33353 
18088 1 -6.37336 -0.334283 -0.101582 
4237 1 3.71754 -1.01636 4.89157 
18581 3 3.61859 4.03635 -0.115718 
18126 1 -2.52151 -6.10878 1.96075 
9999 1 2.25617 1.732 3.14158 
5403 1 0.693168 -2.86192 -0.868964 
5401 1 -4.01428 -2.82584 0.377644 
9000 1 1.87152 -4.42014 -4.46292 
5402 2 2.01973 3.95423 -2.78302 
19907 3 1.25717 0.867071 -0.612315 
18089 2 2.34666 0.390874 -1.68028 
19906 1 2.56972 4.57166 0.78033 
3930 1 -1.54597 -2.65692 -4.64377 
3929 2 1.03208 -0.538368 0.75789 
3928 1 -0.2509 -2.72743 -5.74164 
13692 1 -4.79955 0.951196 -3.27512 
18090 1 4.06498 1.06367 -2.80811 
6577 1 -4.2336 -3.38893 -3.10507 
2194 1 1.34291 -1.33252 -1.43082 
20698 1 2.20707 -2.98883 1.04983 
7996 1 -3.01077 4.83776 -3.24078 
7997 3 0.960401 -0.693209 -0.0441705 
7998 1 2.64115 1.01406 -4.33788 
18358 1 -3.44967 -3.16438 2.61757 
18359 3 1.21741 0.655262 1.63465 
9997 1 -4.49951 0.843093 3.98634 
9998 2 4.16822 -2.62777 -0.923164 
5373 1 1.91292 3.67455 -8.02635 
5372 2 3.75247 0.171008 3.08636 
6536 2 1.69316 2.17587 3.49724 
5371 1 -0.0188053 4.43372 0.408998 
14797 1 -1.25845 -4.41667 -1.02527 
6535 1 1.12893 -0.169932 5.97726 
14798 2 0.776703 3.40399 -6.33226 
14799 1 4.47277 -0.528427 1.14878 
15661 1 -4.41045 -1.51772 1.60554 
15662 2 0.740946 2.74244 -1.94793 
16533 1 7.87057 10.9718 1.89279 
3421 1 3.96881 0.118346 -4.58018 
16532 2 -0.329701 1.99832 3.73868 
12311 2 0.388686 -0.392896 -4.47923 
12312 1 2.32762 -4.97212 -0.893271 
4640 2 0.837816 -0.183477 2.54933 
4641 1 2.28811 -6.12927 -6.41392 
64 1 -3.4517 -4.07133 1.94594 
65 3 4.12628 -6.09996 2.55122 
1418 3 -0.265835 1.04311 -0.685721 
7910 3 -0.531048 -0.885026 -5.52969 
7911 1 3.09338 11.9909 0.606934 
20859 1 0.783176 -4.87711 -0.315372 
7909 1 1.18694 5.08097 0.5793 
20858 3 -1.31788 0.228123 -2.80599 
20857 1 -3.45514 4.3281 1.47226 
6811 1 2.71697 -0.0303994 -0.473108 
547 1 -1.88062 5.27349 -2.61105 
14860 1 -0.719687 -1.50544 -3.24886 
1788 1 0.365444 -1.69021 -2.49774 
549 1 0.478091 0.0528244 -2.34739 
548 2 -1.83726 -2.17063 -3.30406 
1787 2 4.56504 2.27416 -0.719633 
1417 1 0.515233 -0.46692 1.23034 
3798 1 4.69761 -1.37871 2.74194 
9300 1 -2.41246 -6.10079 -1.7832 
9299 2 -0.20698 0.096732 2.21363 
9298 1 5.35106 0.119116 3.19582 
5409 1 -2.8759 0.641706 -0.25034 
3797 3 4.40564 -0.754386 -3.13721 
4719 1 1.39355 -1.04955 -4.66648 
3796 1 0.197516 -0.561785 3.84717 
20707 1 -3.4002 0.560434 2.11042 
2100 1 1.6393 -2.01739 2.50754 
20709 1 -0.76441 3.36999 2.97368 
2099 2 0.111333 -3.28568 -2.10093 
20708 3 -2.12742 0.815639 -1.03648 
6084 1 2.40753 -3.22449 1.79465 
6083 3 3.40238 -0.790901 -0.904612 
16030 1 3.18655 0.090271 -2.56351 
6082 1 -5.67147 -4.86962 3.79142 
5408 2 0.741206 0.267701 -1.6298 
17517 1 1.52565 -3.09659 -1.66004 
12372 1 0.912802 0.180312 0.282158 
12371 3 -2.05808 2.32482 -1.93234 
18285 1 5.75625 -8.23708 -3.84339 
10197 1 5.29435 3.15151 4.09292 
10796 3 -5.20782 1.56276 -4.4772 
10797 1 -2.18403 -5.62754 -0.460444 
21027 1 -1.70163 -4.22387 -2.67193 
21026 2 -0.591241 -1.43073 0.870755 
10196 3 1.14505 -0.703163 -2.19401 
8571 1 -2.57383 -5.12015 -0.0930354 
16737 1 -6.18707 -2.89351 2.04142 
17652 1 1.06288 -3.0346 -3.69235 
4238 2 -2.09374 -1.18786 0.60474 
4239 1 -2.32888 2.14667 1.01847 
5341 1 -1.34122 1.06498 -1.03962 
5342 3 0.562535 5.08518 -0.0526475 
5343 1 0.713261 1.94373 -2.031 
361 1 -3.33884 8.53393 0.114197 
9947 2 0.662146 -0.269875 -0.927873 
20258 2 -1.02841 -0.905796 -0.371627 
18125 2 -0.222554 -1.18275 -2.96568 
18124 1 -2.77518 2.42559 -1.90207 
10648 1 -2.9301 0.368295 1.55561 
9948 1 -6.61482 4.23085 1.79278 
13079 3 1.80461 0.954948 2.29498 
13080 1 -0.374742 2.80538 -2.46575 
18582 1 3.53513 -0.996754 -5.54167 
9946 1 -1.9708 3.70985 0.221037 
13078 1 -6.49361 -4.62918 -1.88441 
19346 3 0.701686 4.18331 -0.628206 
667 1 -2.18301 2.1559 -3.20026 
8999 2 -0.332449 0.31412 -3.19817 
8998 1 -2.73853 -4.0719 2.78122 
10326 1 -1.75428 1.26363 -4.46116 
21025 1 2.8285 5.08711 -6.17815 
10947 1 -1.93664 3.4216 -2.69958 
10946 3 -1.5562 6.50618 0.506312 
19347 1 4.04549 1.15673 5.76393 
7534 1 -2.5079 4.24247 2.69547 
19345 1 -0.898074 -8.09935 -1.2642 
13691 3 -0.276569 -1.77908 1.17321 
3333 1 -4.74208 -5.06118 2.76739 
3332 3 -3.92937 2.38191 -2.21607 
3331 1 -2.09775 -0.695845 -1.56234 
8637 1 -2.1262 -0.599691 -4.04023 
6578 3 -5.45222 1.7405 1.32633 
10649 3 0.0911616 5.48635 -0.302236 
14363 3 1.22932 -0.0783202 0.703152 
6579 1 1.12853 1.58126 6.55318 
10339 1 -2.96048 -0.503279 -0.388492 
10340 3 -0.158728 -1.25797 -4.47202 
10650 1 1.7774 2.15042 -0.972594 
10341 1 1.95804 2.20078 3.38469 
12262 1 1.00739 -2.94403 -7.87474 
14362 1 -5.62387 -1.32808 1.26732 
15196 1 -7.73634 1.35727 3.81521 
13591 1 -3.22406 4.20413 -0.950299 
15197 3 2.45443 0.112502 -3.76413 
14364 1 -4.48545 0.33749 -3.85186 
10945 1 1.59132 -1.56088 1.14559 
10874 3 0.746892 -0.732709 0.632355 
10873 1 0.652368 -2.45148 7.9551 
3423 1 -1.01464 1.44802 1.27214 
3422 2 -3.4268 2.26096 0.720527 
20325 1 1.95285 -4.09338 1.58861 
15663 1 -7.01556 1.82629 1.66483 
10996 1 2.13915 2.58331 1.28841 
10875 1 -4.87019 -1.44283 -0.913825 
13690 1 3.28939 -0.0271332 -1.13133 
1161 1 0.781173 0.575598 -3.03555 
10997 3 -0.00684291 2.00965 1.83259 
10998 1 -2.78684 0.112181 -0.902541 
12454 1 -3.67851 -1.71863 -3.91012 
66 1 0.225031 -2.42425 -0.72841 
1160 3 -1.8449 3.72004 3.85903 
14842 1 2.66064 1.71415 6.91697 
1159 1 4.8627 7.27168 3.35472 
19518 1 -2.20211 -3.30281 -0.201563 
19517 3 1.27399 -0.639911 0.149909 
19516 1 -5.2628 -3.74407 -5.57331 
18360 1 -0.337251 1.49245 3.53724 
5368 1 -5.26361 -1.52481 -2.44946 
5369 3 1.06581 -0.318007 -1.51341 
3024 1 2.64298 -3.01266 -1.35841 
5370 1 3.88376 -0.549639 3.89661 
9175 1 4.34263 0.0724353 0.329405 
9176 3 3.49047 -2.74531 -0.886064 
3023 3 0.256727 -1.52637 2.12384 
13592 3 -1.35233 -1.25547 1.41115 
1786 1 -5.79833 1.74426 2.63648 
14507 3 -0.990435 3.92842 -6.09929 
14861 2 3.04689 1.64397 0.0407169 
11879 3 2.1127 3.13194 1.41921 
11880 1 -3.22444 -2.82733 -2.13359 
9688 1 2.42515 3.49187 4.43034 
11878 1 1.98467 2.5165 -0.58844 
14862 1 -5.33473 -0.164644 -7.67374 
20838 1 4.34025 -4.64082 -0.927063 
14506 1 -0.137859 -4.76759 1.00314 
16009 1 2.72261 -2.62862 -1.77149 
4718 3 -5.07346 -4.17808 -3.39687 
12455 3 -3.47808 -1.558 -3.00543 
4717 1 -4.42899 1.79872 4.9262 
10240 1 3.81941 -2.54687 -5.84264 
10241 3 0.373695 -2.85324 0.679741 
10242 1 4.72825 1.69219 -5.4723 
9861 1 3.72172 -0.281805 -1.20007 
9860 3 -1.50672 0.912998 -0.663284 
4899 1 -2.64585 3.96144 -4.56626 
19374 1 1.94145 3.84617 -4.88846 
2098 1 -3.38337 -1.56717 6.09034 
19373 2 -0.456506 -2.55721 -0.029229 
9177 1 -0.895435 7.60202 1.22652 
1049 3 -3.23718 0.45582 -0.590495 
1050 1 -0.248624 -2.8392 4.23429 
19372 1 5.7381 5.20941 6.47524 
3783 1 -2.49353 3.19264 3.46333 
1048 1 6.41698 -0.137391 1.19596 
12774 1 1.79977 3.24451 -3.26514 
20622 1 -1.66561 2.90259 3.69714 
16010 3 2.68931 -0.852671 -3.51141 
16031 3 -0.54276 -3.89377 0.273117 
16011 1 1.57982 1.1275 -0.62493 
14073 1 -1.2568 0.348326 -6.02282 
20837 3 2.61863 1.35574 0.393902 
16032 1 0.719865 -0.593765 -0.32739 
20836 1 -1.98627 3.38285 3.51671 
16453 1 -4.00628 -0.734769 1.36339 
16454 3 -3.38385 -0.87665 -0.935171 
5407 1 7.34052 1.09771 3.25513 
16455 1 -0.875263 1.52223 1.8221 
21255 1 -3.02247 2.41447 -1.06859 
21254 3 2.68308 -3.1946 -1.93751 
21253 1 -3.51223 -3.3875 -3.3831 
14545 1 -0.234643 1.14811 -4.73816 
14546 3 2.33403 3.23269 -0.915331 
12773 3 -0.760196 -3.0736 1.71387 
3782 2 -0.108385 0.0493254 0.641401 
3781 1 1.35332 6.6814 2.53544 
16632 1 0.0814817 -1.33307 0.927079 
16631 3 1.18462 0.774854 -1.56779 
19827 1 2.1753 -3.04779 2.0502 
16630 1 -3.15039 2.20733 3.09154 
21487 1 0.907383 -3.2082 7.71321 
12772 1 0.0309713 2.48827 -2.88857 
6192 1 -8.83262 2.28309 -4.45608 
6191 2 -2.50536 -1.74509 1.20833 
3529 1 2.79503 0.629387 2.10676 
3530 3 0.00404499 0.209881 1.07465 
3531 1 -0.481841 -3.83447 -5.91539 
19636 1 4.25436 2.46809 0.0392207 
17516 3 1.3955 0.0373962 1.31788 
17515 1 -2.54029 -3.03401 1.37397 
4012 1 1.10854 -0.0550056 -11.2011 
4013 3 -3.0748 0.338454 -3.41185 
4014 1 0.227708 -6.76392 5.28272 
5970 1 -4.26867 -2.69656 -4.49922 
12370 1 3.53613 -4.75578 1.32128 
6940 1 1.44746 -4.14849 1.89132 
6941 2 0.762367 1.38416 1.12035 
6942 1 -5.84339 -2.33546 2.25434 
13206 1 -5.05247 -3.12181 1.01765 
14547 1 -7.36188 0.173729 -2.09205 
5944 1 -3.07043 -4.26116 4.5155 
18283 1 -0.532518 -7.18641 -0.584697 
21488 3 -0.499696 -1.31169 0.686063 
18284 2 2.8523 -2.87482 0.675311 
5945 3 -3.11463 0.596042 -2.94415 
5946 1 -2.18528 5.82037 -1.1275 
18469 1 -1.08733 -3.28703 -4.64633 
5911 1 2.06752 2.04619 -11.1623 
10195 1 -1.87911 0.544349 -0.952323 
13701 1 1.87421 -0.984819 -1.81827 
13700 3 -0.909809 0.455589 1.74705 
13699 1 -3.35637 4.98303 0.0531892 
20815 1 2.40726 7.0311 1.43415 
3453 1 3.47403 0.346147 -2.07657 
3452 3 1.1347 0.554041 -1.11343 
7720 1 3.46963 -2.17729 2.56973 
5912 3 -3.1434 4.27709 -1.02132 
983 3 0.510258 -0.0240852 -0.709961 
16736 2 0.793204 0.771112 2.17889 
16735 1 -3.60305 7.94493 -8.24856 
19731 1 -0.0614417 0.226823 -2.66714 
19730 3 -2.17893 -1.96504 1.50702 
982 1 -0.234464 1.64634 -5.79666 
7857 1 0.0812521 1.91125 -1.72096 
19729 1 0.724967 2.26332 2.46797 
7856 3 0.806206 2.16919 1.99488 
20257 1 -0.914713 -5.4372 0.715828 
12589 1 0.110146 0.248732 -0.655187 
12590 3 0.389631 -1.26648 -2.81283 
12591 1 -4.44004 -1.98949 -3.98603 
4858 1 -1.89304 0.544789 -0.704981 
20993 3 4.70928 3.38564 1.62446 
4859 3 6.68488 -0.127367 4.58242 
20992 1 2.14155 -0.436737 0.989816 
21349 1 -3.84037 -0.478305 0.921142 
3831 1 3.1021 0.0456606 3.15705 
10325 3 2.57551 0.777566 3.20782 
20816 3 1.56335 2.19225 -2.57052 
10324 1 -5.00722 1.13492 -1.17885 
18493 1 1.1585 8.3549 3.70103 
18494 3 -1.29727 3.27342 -3.37266 
18495 1 -5.1485 2.58104 4.06838 
7950 1 -2.27853 4.83232 -3.0687 
3830 3 -1.11313 -0.358179 -2.38894 
4450 1 -1.68777 1.1799 -0.177738 
8636 3 -0.230579 -0.946075 -2.67605 
4451 3 -0.367499 4.88745 -2.13613 
362 3 -1.10314 -1.87968 3.06835 
363 1 3.92352 -8.47978 -0.154986 
2421 1 3.48536 4.16916 1.36093 
8635 1 7.49291 -2.19406 0.994384 
2420 3 0.973484 2.47562 0.751844 
20286 1 3.04722 -0.331817 -0.624438 
2419 1 -2.99398 -1.54831 -1.86458 
15756 1 1.71073 -0.833271 2.22405 
15755 3 5.59075 -3.44079 -5.01498 
15754 1 2.98617 3.45539 -0.0564202 
8782 1 -3.11415 -3.66893 -5.36353 
8783 3 -2.41887 0.874073 3.79334 
8784 1 -3.70851 3.6369 1.91114 
4860 1 -2.12004 2.37188 -0.272347 
20324 3 -3.19655 -3.68441 0.958962 
668 3 2.30252 -0.389908 -4.16182 
1120 1 -1.34145 6.26477 1.55319 
12957 1 -1.56102 -2.08145 2.10126 
18264 1 -1.40078 1.92604 3.68705 
12956 3 5.78896 2.74785 -4.50945 
12955 1 -4.36605 0.811456 1.94127 
669 1 4.99273 0.346549 1.87084 
20323 1 0.29986 0.0536822 -1.61063 
18691 1 5.49701 0.23949 5.05379 
3025 1 8.2199 -4.58296 -5.27236 
14843 3 0.889972 -0.111914 0.164722 
18692 3 3.37608 3.02499 1.39466 
18693 1 -2.28265 2.52415 -0.191134 
2764 1 -6.62914 -5.06211 0.507947 
14844 1 -0.360629 2.48052 -0.0633651 
14260 1 -3.44267 -2.18483 1.08124 
14794 1 -0.625745 5.15779 -1.01542 
20284 1 -5.37796 -0.0966871 -1.02856 
20285 3 -0.878182 3.06318 2.91581 
740 3 -3.51162 -2.59283 1.06154 
275 3 -0.633683 0.254933 3.61381 
276 1 9.67438 -0.741019 4.91749 
741 1 1.74598 1.80344 6.07462 
12263 3 -3.31361 -0.0553979 1.62624 
10557 1 3.01797 -1.57814 0.527293 
13593 1 0.979902 1.55046 2.062 
12264 1 -3.86421 5.48512 2.62737 
10174 1 4.13102 -0.60135 -2.5429 
10175 3 -1.66708 -2.36166 -1.62493 
10176 1 -4.50111 2.96025 0.036591 
20446 1 -3.60337 -6.76443 -0.544695 
3022 1 0.779036 0.535651 -2.14135 
15132 1 -3.1144 0.405339 1.96585 
739 1 1.53374 -6.99237 -0.97882 
6645 1 -1.00047 3.6609 -0.461323 
9689 3 0.588153 -6.50427 -2.80471 
3026 3 -2.11354 0.902643 0.0606305 
3027 1 -4.91195 0.634173 2.08058 
10470 1 -4.45461 -0.638532 -1.64549 
10469 3 1.89522 3.58449 1.6215 
10468 1 -1.05896 -0.0662734 1.1581 
633 1 -3.70158 -1.16878 0.444005 
6644 3 1.96871 1.92705 8.27002 
9859 1 1.09401 4.46168 1.21035 
14261 3 -4.4098 -4.20554 0.882953 
12456 1 -5.83977 -6.73382 1.09254 
14262 1 0.415542 0.0490336 -5.0862 
855 1 -2.4887 -0.453815 1.8504 
854 3 -3.09997 -2.0613 -1.16716 
10000 1 3.49266 -8.25817 2.79817 
853 1 1.86358 2.64707 -3.9876 
1507 1 -0.734378 4.22548 -1.09228 
1508 3 -0.213881 -0.906154 3.99843 
8040 1 -2.45122 8.2659 6.98722 
8039 3 0.693577 -0.380527 1.13775 
8038 1 -4.75329 2.72904 -3.97857 
6816 1 0.862807 -4.88075 -3.83101 
15131 3 2.2832 0.137227 1.70416 
12067 1 1.02887 -8.61003 -1.70708 
15130 1 6.7823 1.07738 -0.999951 
20621 3 1.52331 1.6086 -1.54604 
12068 3 -2.30943 2.0391 1.5029 
12069 1 -1.01012 1.81156 2.58031 
14072 3 -3.99929 -5.47918 6.9246 
14071 1 -2.3409 9.44296 -1.54981 
20842 1 -1.27564 -5.24273 -4.65156 
9690 1 -1.53561 1.54766 5.06513 
16066 1 -3.0052 -0.644834 5.62401 
16067 3 2.23092 2.58508 -2.16099 
20843 3 2.72861 2.36967 5.12834 
14286 1 -1.13411 0.256452 -4.73493 
14285 3 -2.59104 -1.81334 -0.796121 
16068 1 -4.61692 -2.89911 2.62625 
18649 1 0.484055 0.95479 -3.3793 
631 1 2.03973 2.47408 -3.28635 
18650 3 2.12974 -1.12304 4.69695 
632 3 -1.50017 -1.84718 -0.432926 
612 1 3.27539 2.15889 4.406 
4898 3 2.64992 8.06523 -4.31999 
4897 1 2.6115 -0.953662 -4.24753 
17067 1 -8.09509 -3.07079 -0.335476 
17066 3 -0.883887 -2.73645 -0.793621 
17065 1 0.85856 -0.992346 -2.06335 
17023 1 -1.32163 -4.64785 -0.715155 
1509 1 0.440285 4.82486 -3.1761 
6815 3 1.5867 1.08326 5.50821 
20620 1 -6.51868 -6.06953 -0.417781 
14352 1 3.23229 2.97933 -3.96684 
14351 3 2.85085 -1.61612 2.38827 
19826 3 -1.41151 4.8219 3.43469 
19825 1 4.7292 0.590156 -2.55558 
11784 1 -4.51454 0.234028 2.79141 
14350 1 0.224719 0.76388 3.5762 
11783 3 -3.67983 5.29869 -0.768362 
11782 1 -1.12257 3.02467 -3.50757 
6814 1 2.44916 5.80524 -3.78126 
15145 1 0.761233 0.515007 1.96262 
18429 1 -1.52239 -0.924119 -2.35414 
6190 1 2.11998 -0.274591 4.76171 
19637 3 -5.05286 -2.81947 -0.970453 
20844 1 1.51234 4.50831 -1.43927 
6118 1 1.3365 -3.98323 4.75812 
6119 3 1.19225 -0.00757834 1.43424 
19638 1 -1.01758 -1.17239 2.96144 
21523 1 -0.663547 4.55336 -4.68938 
5969 3 0.870039 0.146245 -2.75718 
611 3 1.34129 -1.14 -2.11905 
17265 1 0.572703 0.259203 -0.768996 
610 1 6.82385 4.66598 1.56836 
10770 1 4.52004 2.81877 1.45774 
10769 3 0.212255 -3.92146 3.66292 
17264 3 -1.29131 3.67484 -2.44009 
17263 1 -5.16229 0.596459 4.23079 
11635 1 -1.36911 -0.524117 2.38646 
11636 3 -3.26443 -2.81253 2.55284 
10768 1 -5.26702 3.79628 2.31949 
5968 1 -0.159603 1.59589 -1.97297 
19134 1 4.55418 3.27106 -2.70202 
17024 3 2.554 1.67394 -2.92232 
16809 1 -0.146353 3.81971 -5.03514 
18021 1 1.55944 -0.256283 -0.481598 
21489 1 1.91889 -5.89794 11.583 
8847 1 2.10454 6.4968 -5.0137 
8846 3 2.24144 -0.409758 1.90785 
8845 1 2.32559 0.550628 -2.75838 
1842 1 4.48179 -2.764 1.02676 
1841 3 0.336981 6.15592 -1.4097 
21524 3 -0.363549 -1.06938 0.605122 
21525 1 6.53453 -5.06828 0.870321 
12180 1 -5.25352 -0.659324 -0.473389 
12179 2 -1.61445 -1.85536 -2.94665 
19133 3 -0.667528 0.92771 -2.91876 
19132 1 -0.405487 3.81442 -0.25494 
13731 1 -2.73052 -1.8061 -0.109918 
13730 3 -2.9554 -0.384665 1.46573 
19474 1 0.241779 -2.74613 -6.24177 
19475 3 -1.73354 0.518506 -0.0961633 
18471 1 -2.14501 2.22321 -1.41911 
13205 3 1.79993 -1.2567 -1.07965 
13204 1 -1.21604 5.33872 2.27501 
8283 1 3.16475 0.225778 0.627404 
8282 3 1.17409 0.0537726 1.0385 
8281 1 6.90009 7.22826 -3.54405 
7554 1 -4.39692 1.5518 5.15188 
18470 3 -1.25626 -5.81949 3.31421 
17694 1 1.47566 2.49658 -2.33082 
7169 3 0.642139 -3.1098 1.23107 
7170 1 -1.67265 -0.26156 1.73343 
3042 1 -4.53596 -3.19471 -3.12348 
3041 3 1.56066 0.936049 3.36664 
3040 1 0.768558 2.61624 -2.38388 
3451 1 -1.23093 -4.22557 0.370366 
13560 1 0.161519 -2.56605 2.49567 
7431 1 -2.70423 -3.0411 2.79124 
13559 3 -2.62422 1.57433 -3.73976 
7430 3 1.7439 1.21788 -0.55776 
3963 1 2.18416 -4.35718 2.85549 
7168 1 5.13667 -0.810277 -0.836408 
12990 1 0.848107 0.0488465 1.38348 
8011 1 -2.21099 4.45203 0.461055 
8012 3 -1.85032 -1.65554 -1.52674 
7855 1 1.71393 1.53918 -2.01867 
16927 1 4.66881 2.39617 3.04711 
8013 1 2.37209 0.469209 4.53286 
18061 1 5.08649 4.53978 4.03847 
12694 1 -9.04363 0.781709 -0.209767 
17938 1 4.86181 2.6813 0.402188 
20994 1 0.0981312 2.57445 -4.92846 
12695 3 2.44865 -4.66705 -1.4979 
17939 3 0.159945 0.416295 -1.26326 
17940 1 0.403262 -0.236992 0.725372 
19117 1 1.43778 -1.21605 4.07574 
12696 1 -2.16571 4.48016 -1.57467 
10552 1 0.8411 8.89468 -1.73798 
10553 2 -0.605235 2.85762 -3.52712 
7949 3 -0.515194 0.873119 0.497409 
13558 1 3.2137 0.747292 -3.4267 
20817 1 -1.87086 1.88766 4.08078 
9358 1 2.86995 -2.26629 4.73129 
9359 3 -1.2561 -1.41542 -1.07527 
9360 1 -0.512746 0.358568 -2.24 
12873 1 -1.67968 -1.94633 0.736616 
12872 3 -0.162671 -2.59134 -1.10775 
7429 1 -3.27155 0.857965 -0.690396 
18963 1 -4.71364 1.46231 0.206922 
18062 3 -0.372768 -5.66815 -2.43377 