LAMMPS data file via write_data, version 3 Mar 2020, timestep = 100000000

4047 atoms
3 atom types
3960 bonds
3 bond types
3873 angles
3 angle types

0.0000000000000000e+00 5.0000000000000000e+01 xlo xhi
0.0000000000000000e+00 5.0000000000000000e+01 ylo yhi
0.0000000000000000e+00 5.0000000000000000e+01 zlo zhi

Masses

1 0.25
2 0.5
3 0.5

Bond Coeffs # harmonic

1 6000 0.15
2 2000 0.4
3 2000 0.4

Angle Coeffs # harmonic

1 100 180
2 50 180
3 50 180

Atoms # angle

18973 1 1 1.8701195441164046e+01 2.8541811708399383e+00 3.2598617708606525e+01
796 1 1 1.9604852991601259e+01 2.9102205401843873e+00 3.1306794263034789e+01
797 3 3 1.9820889034053103e+01 3.0971353567610547e+00 3.1566114857730529e+01
798 1 1 1.9985669749666041e+01 3.3023958342946864e+00 3.1892105295839816e+01
18196 1 1 2.0058892749461229e+01 3.3791002631280094e+00 3.1993939678507630e+01
845 2 2 1.9991140412753378e+01 4.9366589981202225e+00 3.2260203330062950e+01
846 1 1 1.9764084078371909e+01 5.0341533607159361e+00 3.1982155153925916e+01
18974 2 2 1.9058199610642436e+01 2.9554949079490598e+00 3.2787580549248624e+01
3720 1 1 1.9381902538244812e+01 2.4102732863417389e+00 3.3454295113754561e+01
10072 1 1 1.9551020513559614e+01 2.3874774503381238e+00 3.3365124195373348e+01
18975 1 1 1.9417270200903925e+01 3.0765456965397262e+00 3.3021589901273565e+01
3719 2 2 1.9045604261411896e+01 2.4597191295775058e+00 3.3687190030595296e+01
3718 1 1 1.8840189889990658e+01 2.4803218048714766e+00 3.4047367246765866e+01
10073 2 2 1.9924751055825656e+01 2.3373905507791970e+00 3.3133668782454819e+01
7023 1 1 1.9578394839277827e+01 1.5910731569275658e+00 3.3751154703655146e+01
7022 2 2 1.9717869168395666e+01 1.7382103201934651e+00 3.4087031509834688e+01
16531 1 1 2.0035566236138131e+01 3.3770933165948165e+00 3.3902105283401099e+01
18384 1 1 1.9514581195923473e+01 3.1354712212331046e+00 3.3092702378176007e+01
18383 2 2 1.9788726411832233e+01 3.3000671394740082e+00 3.3347072816384795e+01
13772 2 2 1.9453996937535301e+01 4.4592592299547515e+00 3.3672959991085094e+01
13773 1 1 1.9220021498990803e+01 4.2030507181119621e+00 3.3471576863855098e+01
18382 1 1 1.9975039263314230e+01 3.3396026382852133e+00 3.3759764325014231e+01
13771 1 1 1.9668128303394418e+01 4.7247432605812589e+00 3.3862351972171773e+01
19366 1 1 1.9741627721015824e+01 4.8353716363099624e+00 3.3934021093531662e+01
19367 2 2 1.9884489457488609e+01 5.1535424803807590e+00 3.4178737738537706e+01
5433 1 1 1.9796829269019490e+01 5.1017800760824117e-01 3.5905819245124938e+01
507 1 1 1.9241026017289098e+01 1.2653427647931554e+00 3.4604188044166435e+01
506 3 3 1.9239459410054639e+01 1.4996605437319863e+00 3.4948255113673646e+01
31 1 1 1.9801763747627000e+01 3.4390380414546673e-01 3.5827883890177631e+01
19953 1 1 1.7581500621510141e+01 1.9204575829012527e+00 3.5404996781604154e+01
19952 3 3 1.7636331245441152e+01 2.2379857971484798e+00 3.5668700108047105e+01
19951 1 1 1.7693947102562920e+01 2.5939189152167805e+00 3.5841740290664404e+01
7410 1 1 1.7726173410913042e+01 2.7409591946520528e+00 3.5913121022849879e+01
7535 2 2 1.9988639541862049e+01 2.1108982808606331e+00 3.4853730727090642e+01
505 1 1 1.9273827377875456e+01 1.7968122757288085e+00 3.5293643836075375e+01
15354 1 1 1.9289629807189211e+01 1.9132067754849551e+00 3.5418915694970082e+01
15353 3 3 1.9262172132758298e+01 2.1256571110153639e+00 3.5719029470001011e+01
10620 1 1 1.8871102866110224e+01 3.0426544862271352e+00 3.5049630130896389e+01
7021 1 1 1.9883351375003951e+01 1.8442435466752478e+00 3.4415604251570372e+01
7536 1 1 1.9913212072148841e+01 1.8959832052411263e+00 3.4549134277753701e+01
17484 1 1 1.9261949994403782e+01 4.3884587112647759e+00 3.4644338153367258e+01
10619 2 2 1.9117197169015757e+01 3.2539377782685737e+00 3.5319594871788340e+01
10618 1 1 1.9365102244887858e+01 3.5062046940579061e+00 3.5605082196068189e+01
5832 1 1 1.9487356116196420e+01 3.5771409638876150e+00 3.5712608996705008e+01
17483 2 2 1.9447100117608581e+01 4.5526823869092894e+00 3.4963231788821503e+01
17482 1 1 1.9609746984692922e+01 4.7658523578448397e+00 3.5278749150029455e+01
21278 3 3 1.9828577581598179e+01 5.0532723091916338e+00 3.5686094001158438e+01
21279 1 1 1.9671387613040022e+01 4.8506055673587589e+00 3.5408816282804729e+01
19368 1 1 2.0001657368346173e+01 5.4226361593649495e+00 3.4434259665604834e+01
14508 1 1 2.0058259329750786e+01 5.5255396345802685e+00 3.4557280462917319e+01
11580 1 1 1.9542150504583876e+01 6.2438442134222321e+00 3.4901946241628472e+01
11579 2 2 1.9432803607624862e+01 6.2824321873792019e+00 3.5269291869420769e+01
11578 1 1 1.9453317648595853e+01 6.4060558421658209e+00 3.5588796915282281e+01
4686 1 1 1.9431283296041233e+01 6.4557808724601644e+00 3.5723514742289318e+01
5821 1 1 1.9966017675700275e+01 1.3860724022435271e+00 3.6332069045736205e+01
5432 2 2 1.9861107318693247e+01 8.9739578922051744e-01 3.6091444331914040e+01
5431 1 1 1.9928237106987805e+01 1.2509229447236783e+00 3.6277971033963027e+01
5913 1 1 2.0012462242086663e+01 1.8708174000271652e-02 3.7156487086620061e+01
7409 3 3 1.7851280094226237e+01 3.0693997300453781e+00 3.6098300824885548e+01
15352 1 1 1.9258396920822740e+01 2.4082419387484348e+00 3.6026835856222554e+01
2866 1 1 1.9267236227640410e+01 2.5098243807596372e+00 3.6138153323895331e+01
2867 3 3 1.9286410562848651e+01 2.7515019729920116e+00 3.6414752332026886e+01
17880 1 1 1.8849249372170362e+01 2.3403071577438768e+00 3.7187231265008279e+01
17879 2 2 1.8950517778676804e+01 2.6684801213735820e+00 3.7448424553756141e+01
5822 3 3 2.0007952608230028e+01 1.7666469054259943e+00 3.6490561912402228e+01
5823 1 1 2.0061338520054427e+01 2.1417182602160358e+00 3.6651602592514834e+01
3829 1 1 2.0071569486201529e+01 2.2503311865452149e+00 3.6743259675740319e+01
9264 1 1 1.6953323835414462e+01 4.1065381898168800e+00 3.6784797780726443e+01
7408 1 1 1.7908952867529528e+01 3.3969895714424685e+00 3.6317627066493714e+01
7858 1 1 1.7946145775346469e+01 3.5152722120085711e+00 3.6422175666948242e+01
7859 3 3 1.8041753356831656e+01 3.7784455181420173e+00 3.6730868810259523e+01
7860 1 1 1.8129343857781866e+01 3.9559723765256760e+00 3.7027496043892135e+01
9263 3 3 1.7090784095206732e+01 4.2470775183732314e+00 3.7121035030318296e+01
9262 1 1 1.7130225199774372e+01 4.3551735343367577e+00 3.7462664508188453e+01
13446 1 1 1.8178557827009449e+01 4.0032314146994947e+00 3.7140200748585514e+01
13445 3 3 1.8317881367374021e+01 4.0975401375010909e+00 3.7454658927490492e+01
5831 3 3 1.9675782935782848e+01 3.7964331516658190e+00 3.5996470038133445e+01
2868 1 1 1.9375208370831654e+01 3.1237088797761712e+00 3.6635674189786428e+01
78 1 1 1.9403977087013192e+01 3.2373440172840136e+00 3.6688433330580217e+01
5830 1 1 1.9819877452280100e+01 4.0528421897094837e+00 3.6275404211363949e+01
12156 1 1 1.9866695202301358e+01 4.1344876246168871e+00 3.6372102112328484e+01
77 3 3 1.9417245499504684e+01 3.5176463730964764e+00 3.6959581079596965e+01
76 1 1 1.9529861423494722e+01 3.7478539644489453e+00 3.7224080825407228e+01
19093 1 1 1.9542826079239941e+01 3.8459967875596153e+00 3.7320546292894619e+01
12155 3 3 2.0001095343263504e+01 4.4415476366802604e+00 3.6657818853616241e+01
20788 1 1 1.8097211694196563e+01 5.1319181879997737e+00 3.7083937054441826e+01
20789 2 2 1.8116633268848858e+01 5.3057571652099975e+00 3.7373934668499693e+01
21480 1 1 1.9982132619659119e+01 5.3322266566991532e+00 3.7537833923208439e+01
9094 1 1 1.8896958898853157e+01 4.8734975799279843e+00 3.6348267783311670e+01
21277 1 1 1.9959607014238063e+01 5.2292862197001098e+00 3.6030856618942835e+01
9095 2 2 1.8996376121222003e+01 5.0657215885489402e+00 3.6598259917920849e+01
6643 1 1 2.0032826445881714e+01 5.3149350018995696e+00 3.6134399045256188e+01
9096 1 1 1.9155082919519529e+01 5.4027552499894975e+00 3.6836484418187027e+01
12154 1 1 2.0020654494375222e+01 4.7000107750922986e+00 3.6919557381402669e+01
21478 1 1 2.0015911909532782e+01 4.7933785729469118e+00 3.7046108245016015e+01
2179 1 1 1.9178673544143525e+01 5.5044314952742228e+00 3.6910740549914081e+01
2180 3 3 1.9254356283813788e+01 5.8483882460759178e+00 3.7160898787808989e+01
21479 3 3 1.9980209523393430e+01 5.0622792914822066e+00 3.7296321910514152e+01
4685 3 3 1.9442689756690488e+01 6.5315401194882678e+00 3.6107623383240139e+01
2181 1 1 1.9253143139880983e+01 6.1882414447569190e+00 3.7377651194128234e+01
8151 1 1 1.9243911492431796e+01 6.3026669829651398e+00 3.7465926482614201e+01
4684 1 1 1.9466692547108671e+01 6.7708298555705895e+00 3.6413922296238731e+01
7957 1 1 1.9509782587654065e+01 6.8800481028336318e+00 3.6566363285273091e+01
7958 3 3 1.9600200313653996e+01 7.0859371106377766e+00 3.6903715035328410e+01
7959 1 1 1.9684079523937442e+01 7.3439035137568549e+00 3.7154521986069163e+01
73 1 1 1.9692938286282910e+01 7.4591901978349586e+00 3.7225436656074606e+01
74 3 3 1.9607226952758840e+01 7.7680450212221555e+00 3.7482163833285213e+01
14625 1 1 1.8353030375725794e+01 1.1681966617637063e+00 3.8113071081506902e+01
14624 2 2 1.8481921063225194e+01 1.4748019024249892e+00 3.8269328478916975e+01
6827 3 3 1.8971288586514422e+01 3.4049250308673631e-02 3.7567541741407027e+01
17836 1 1 1.9942405224425471e+01 4.2983658153092974e-01 3.9121323630133851e+01
6828 1 1 1.9109371061206275e+01 3.2370601164208279e-01 3.7791566671834929e+01
16717 1 1 1.9153310919548872e+01 4.6205750932283673e-01 3.7869671143234328e+01
16718 2 2 1.9187367164443945e+01 7.3598911612953000e-01 3.8112449231109764e+01
16719 1 1 1.9256021042070653e+01 1.0045307373562795e+00 3.8457175974492785e+01
6270 1 1 1.9290254758226872e+01 1.0938739924992420e+00 3.8576172065523771e+01
6269 3 3 1.9380659342242662e+01 1.3382082819767849e+00 3.8811929999350681e+01
17837 3 3 1.9747907288027083e+01 2.0240728511947836e-01 3.8858509789720330e+01
20971 1 1 1.8241980769201312e+01 1.7204345162699288e+00 3.8997984470803900e+01
10965 1 1 2.0020255726070062e+01 3.0431053919838420e+00 3.9040108968468118e+01
14623 1 1 1.8646576019984522e+01 1.8702169649159524e+00 3.8383554427753950e+01
6267 1 1 1.8690916064943689e+01 1.9907447704945411e+00 3.8445573611250495e+01
6266 3 3 1.8808748927084924e+01 2.3042534616799779e+00 3.8652457946381119e+01
10963 1 1 2.0079620846110728e+01 2.5379598264813295e+00 3.8443790168525744e+01
14334 1 1 1.9879290864989073e+01 1.7035174150534502e+00 3.7824711786745056e+01
14333 3 3 2.0022156161416600e+01 2.0598919273386040e+00 3.8065586812867835e+01
17878 1 1 1.9056372487404737e+01 2.9839497180079930e+00 3.7726499174591389e+01
14332 1 1 2.0075329417068087e+01 2.4117998594182906e+00 3.8331597448438018e+01
6265 1 1 1.8985050399756073e+01 2.6023203077422932e+00 3.8879403714889477e+01
6268 1 1 1.9506951541927233e+01 1.6542191361320904e+00 3.9041770015720758e+01
10964 3 3 2.0060525254325867e+01 2.7715713372655544e+00 3.8744781283809807e+01
5673 1 1 1.9011521154952117e+01 2.6946430863544300e+00 3.8972816093254096e+01
18004 1 1 1.9532012941589311e+01 1.7228131936703264e+00 3.9124311507584707e+01
9780 1 1 1.7168591372273326e+01 4.3970168927501305e+00 3.7566910410468736e+01
19567 1 1 1.7488606435861257e+01 3.3376799766294529e+00 3.7600242576151579e+01
19568 2 2 1.7641665826292659e+01 3.4923579393768511e+00 3.7954599422585986e+01
19569 1 1 1.7710318604297008e+01 3.6007718865876188e+00 3.8278387275174111e+01
19803 1 1 1.7742937206163749e+01 3.6672065398694742e+00 3.8425428800302349e+01
19802 2 2 1.7831750678977198e+01 3.8370061747599529e+00 3.8805767209524888e+01
9779 2 2 1.7288804631418785e+01 4.4554233865371149e+00 3.7951400167478411e+01
9778 1 1 1.7351051119870728e+01 4.6185945238590813e+00 3.8374999858403989e+01
13444 1 1 1.8338777756527893e+01 4.3050882726835287e+00 3.7783980977410948e+01
6336 1 1 1.8357854239220835e+01 4.4033378467268918e+00 3.7918743598288415e+01
6335 2 2 1.8489456268464771e+01 4.6032952740163946e+00 3.8164842420873931e+01
19094 3 3 1.9570267073678522e+01 4.0880260059413054e+00 3.7599721513580057e+01
5995 1 1 1.9090252845013346e+01 3.1022894624882253e+00 3.7844004571030794e+01
5996 3 3 1.9129110613894493e+01 3.3328595829153969e+00 3.8190536808493341e+01
19095 1 1 1.9642863266553679e+01 4.3258004697591019e+00 3.7916166860786454e+01
14602 1 1 1.9234653570247779e+01 3.7022416273191956e+00 3.8657111161625203e+01
5997 1 1 1.9192168457640342e+01 3.6025408619363128e+00 3.8514327087713802e+01
14603 3 3 1.9277530930325149e+01 3.8971697314993756e+00 3.8968818652410114e+01
927 1 1 1.9671139276329804e+01 4.4072427477280218e+00 3.8015806275727385e+01
19287 1 1 2.0060014307164888e+01 3.1625587588023110e+00 3.9140035877913235e+01
15267 1 1 1.7358697938275526e+01 4.6485107149586007e+00 3.8481975288495491e+01
14068 1 1 1.7375954212966608e+01 6.0243613702006105e+00 3.7636409514550436e+01
15266 2 2 1.7359216582007445e+01 4.8054027457372763e+00 3.8890324966149848e+01
20790 1 1 1.8187528699475546e+01 5.5622225114677404e+00 3.7722206474628891e+01
16383 1 1 1.8242603900395071e+01 5.5983693200678140e+00 3.7844440104306550e+01
16382 2 2 1.8413233571664762e+01 5.7157384518624541e+00 3.8177841255461132e+01
16197 1 1 1.9967762428938840e+01 5.4196364846403409e+00 3.7631556837585535e+01
16196 3 3 1.9951137131265618e+01 5.6862775016999176e+00 3.7934005867972608e+01
16195 1 1 2.0013012160013982e+01 5.9482706201043349e+00 3.8262663892964106e+01
6334 1 1 1.8601334526748882e+01 4.7665935388766218e+00 3.8574683075324813e+01
2697 1 1 1.8645935002682165e+01 4.8386175600429473e+00 3.8720962237857513e+01
926 3 3 1.9750161109742368e+01 4.6973170348149740e+00 3.8290209366360017e+01
15768 1 1 1.9873711015802506e+01 5.0822124239122033e+00 3.8689953579958356e+01
15767 3 3 1.9940820480290665e+01 5.3341600615994160e+00 3.8959092170525558e+01
925 1 1 1.9824166244309065e+01 4.9735437423165294e+00 3.8570028581722916e+01
16381 1 1 1.8662277231619651e+01 5.9309424922696410e+00 3.8414157379104637e+01
2696 3 3 1.8753021286366529e+01 5.0164763304143740e+00 3.9020930135756210e+01
14548 1 1 1.8728160811912812e+01 5.9935953899986867e+00 3.8490761181592312e+01
13257 1 1 2.0041992973953974e+01 6.0367627204080723e+00 3.8383916901925573e+01
14069 2 2 1.7511093841724925e+01 6.2959299567955425e+00 3.7800489249777328e+01
20329 1 1 1.7693667220485089e+01 6.2560375129534691e+00 3.8887380189238307e+01
14070 1 1 1.7561791450961159e+01 6.6264778368941935e+00 3.8074829670421451e+01
2562 1 1 1.7602360049663261e+01 6.7341553446426579e+00 3.8185174391616414e+01
2561 2 2 1.7756203819076415e+01 6.9428245331701790e+00 3.8475642987898588e+01
2560 1 1 1.7980366378257944e+01 7.1947455045149153e+00 3.8753069061366034e+01
5967 1 1 1.8061948771388188e+01 7.2605413899689042e+00 3.8869504079568010e+01
8150 3 3 1.9219674062841079e+01 6.6011893977339779e+00 3.7753017145033930e+01
14549 3 3 1.8990561865980467e+01 6.2230803280678790e+00 3.8734307207168818e+01
14550 1 1 1.9127800625739692e+01 6.5247059986190372e+00 3.9008085518490148e+01
18924 1 1 1.9180527453416769e+01 6.6132861983647970e+00 3.9111478792920963e+01
8149 1 1 1.9279253441735602e+01 6.9504684304638591e+00 3.7994945701812803e+01
6096 1 1 1.9317866478891311e+01 7.0585729198533356e+00 3.8121964917857277e+01
6095 3 3 1.9418021566602565e+01 7.2484850184954155e+00 3.8444511507171910e+01
6094 1 1 1.9452428070357836e+01 7.5129051093581793e+00 3.8763850103934871e+01
8487 1 1 1.9471541685603015e+01 7.5890236182708604e+00 3.8874096882332864e+01
13751 2 2 1.9794121236825461e+01 9.1665229324663535e+00 3.8897251256536386e+01
75 1 1 1.9612188984004369e+01 8.1539697311715482e+00 3.7701078738892598e+01
7755 1 1 1.9604123320796315e+01 8.2622944819350757e+00 3.7809734219388226e+01
13752 1 1 1.9721014323537538e+01 8.8795569976641104e+00 3.8550809945110110e+01
7754 3 3 1.9637262043799616e+01 8.5347406718085335e+00 3.8080351667112019e+01
7753 1 1 1.9722151274705368e+01 8.8010354310633421e+00 3.8410403566669075e+01
6436 1 1 2.0009565584587218e+01 5.0670952963675653e-01 3.9216869602277519e+01
3837 1 1 1.9245258609972716e+01 1.2649923869046249e+00 4.0431563951184934e+01
19261 1 1 1.9198791958854066e+01 7.9637783619829849e-01 3.9719206695492609e+01
19262 3 3 1.9172477073120959e+01 9.8182643260777214e-01 4.0037881892596410e+01
19263 1 1 1.9226920279114243e+01 1.1676981092532686e+00 4.0318181566889997e+01
20541 1 1 1.6956653258892437e+01 2.4998317018051033e+00 3.9353938811678702e+01
20972 2 2 1.8248515342792764e+01 1.7806666378228608e+00 3.9373227417552862e+01
20540 2 2 1.7242799915129684e+01 2.7010282641521348e+00 3.9587308026112794e+01
20539 1 1 1.7523283495689196e+01 2.9033871172189025e+00 3.9753677061613082e+01
8512 1 1 1.7623286335138186e+01 2.9799626599746518e+00 3.9854509032595615e+01
20973 1 1 1.8350228753816822e+01 1.9076484639199003e+00 3.9759441991069195e+01
15912 1 1 1.8389502224220436e+01 1.9670513035103820e+00 3.9878270901618315e+01
3836 3 3 1.9354873931427598e+01 1.5827963948987465e+00 4.0674136144601043e+01
15911 3 3 1.8551299948092158e+01 2.1835048194967346e+00 4.0173474697857131e+01
5196 1 1 1.9955415317673467e+01 2.8818889976979563e+00 4.0558810816930063e+01
15910 1 1 1.8655061573879632e+01 2.4634579681408875e+00 4.0507286492194048e+01
8673 1 1 1.8721206525676735e+01 2.5660795309711011e+00 4.0609315796999674e+01
18006 1 1 1.9709475727625463e+01 2.1906519204084911e+00 3.9666587235799035e+01
12393 1 1 1.9934217936000675e+01 2.7928335113428302e+00 4.0428078368256848e+01
12392 3 3 1.9806938324371583e+01 2.5553638006940949e+00 4.0093571364350360e+01
12391 1 1 1.9750921077549837e+01 2.2956466833326350e+00 3.9779918668575569e+01
18005 3 3 1.9597927285146415e+01 1.9524435874993622e+00 3.9418545096499649e+01
5672 3 3 1.9066363015733380e+01 2.9189538265101356e+00 3.9292078596995957e+01
19801 1 1 1.8053808052826032e+01 3.9277583009195394e+00 3.9163764342513012e+01
8513 3 3 1.7800051809905082e+01 3.2380451715014100e+00 4.0140644776104295e+01
15481 1 1 1.8137301739669969e+01 3.9813474161730866e+00 3.9288605078179735e+01
8514 1 1 1.7937751054891891e+01 3.4439117535727912e+00 4.0414045624113832e+01
15482 3 3 1.8313563371441379e+01 4.1275770412281281e+00 3.9624875572378244e+01
15483 1 1 1.8354223410855582e+01 4.4055584734013840e+00 3.9916832326345222e+01
17472 1 1 1.8381012002826314e+01 4.4933919881105657e+00 4.0018122448224155e+01
109 1 1 1.7271311987756505e+01 4.2215337804750117e+00 4.0145983070991768e+01
110 3 3 1.7338260382829226e+01 4.4030977933250579e+00 4.0521443494403933e+01
10348 1 1 1.8028421141894430e+01 3.5478649064090995e+00 4.0511187076330593e+01
10349 3 3 1.8233361494760366e+01 3.8304041250936343e+00 4.0727558749251777e+01
5671 1 1 1.9137001682622433e+01 3.1326866215759823e+00 3.9631574147199593e+01
14604 1 1 1.9362111520537269e+01 4.1344649642582239e+00 3.9265456808381408e+01
20923 1 1 1.9165404753130698e+01 3.2176215376049799e+00 3.9773497402035638e+01
16408 1 1 1.9388174959540677e+01 4.2419788851507700e+00 3.9384411455723885e+01
20924 3 3 1.9174255733664438e+01 3.4838991571773668e+00 4.0092650051241769e+01
20925 1 1 1.9233875484151554e+01 3.7336911199236971e+00 4.0313715715401031e+01
16459 1 1 1.9256344025758430e+01 3.8307413606970835e+00 4.0448074498870653e+01
16409 3 3 1.9455319906996380e+01 4.5133174739271462e+00 3.9629640027517773e+01
16460 3 3 1.9305233049420533e+01 4.1024340314007128e+00 4.0721344778099919e+01
15265 1 1 1.7413216535686292e+01 4.9102369221718227e+00 3.9274348132159986e+01
11331 1 1 1.7447545307253158e+01 4.9355593399569173e+00 3.9419336283647894e+01
20025 1 1 1.8216387011162123e+01 6.0542371314969179e+00 4.0598619109493811e+01
11330 3 3 1.7611207395265513e+01 5.1354664938158843e+00 3.9783066360628865e+01
11329 1 1 1.7769196107626637e+01 5.3863848223814674e+00 4.0050190087520008e+01
20023 1 1 1.7858158330512609e+01 5.4804344746007860e+00 4.0150794253141953e+01
20024 3 3 1.8061643737712352e+01 5.7599877683696423e+00 4.0388516931575374e+01
17471 3 3 1.8502862374157548e+01 4.7361605342054185e+00 4.0308452413795663e+01
18328 1 1 1.8684073642477671e+01 5.1114559011548346e+00 4.0715738512233635e+01
15766 1 1 1.9955051994709596e+01 5.5834270825382051e+00 3.9246984268937680e+01
10293 1 1 1.9973848536362919e+01 5.6825497042240993e+00 3.9387368927581122e+01
17470 1 1 1.8621588668824128e+01 5.0071268262425761e+00 4.0623275572172091e+01
2701 1 1 1.9761422070638414e+01 5.4043506515605140e+00 4.0665264034731216e+01
2695 1 1 1.8849633202630400e+01 5.2298789683446447e+00 3.9298709277394110e+01
16410 1 1 1.9489179532580231e+01 4.7664273178055572e+00 3.9970887130083206e+01
13105 1 1 1.8862788468564879e+01 5.3227294610024201e+00 3.9424441319952109e+01
2703 1 1 1.9523076324577854e+01 4.8729919415999730e+00 4.0110578775284019e+01
2702 3 3 1.9599669117570816e+01 5.1140993069103411e+00 4.0419920238427331e+01
13106 3 3 1.8888558521327461e+01 5.6428262305919308e+00 3.9719800926056841e+01
13107 1 1 1.8981456448340339e+01 5.8568332939248098e+00 4.0038021857373622e+01
7117 1 1 1.9046796478099136e+01 5.9426220261443383e+00 4.0160921078209810e+01
10292 3 3 2.0023310002584889e+01 5.9124832836346135e+00 3.9692085123092731e+01
6469 1 1 1.6931223193246023e+01 6.3712675419585665e+00 4.0453294508252988e+01
473 3 3 1.7482815384372092e+01 7.5592955247986975e+00 4.0408109602234305e+01
6470 2 2 1.6997024520745548e+01 6.7520204814485565e+00 4.0471745260312524e+01
6471 1 1 1.7160755263002336e+01 7.0888603816715703e+00 4.0446259350766184e+01
5966 3 3 1.8244969840454814e+01 7.4551850677220521e+00 3.9157115902204161e+01
472 1 1 1.7251165270644609e+01 7.2489681350882726e+00 4.0418860660573550e+01
20330 2 2 1.7854247756154905e+01 6.3649366045170179e+00 3.9292115997789409e+01
20331 1 1 1.7955470623268127e+01 6.5298089605892891e+00 3.9622876678148643e+01
9081 1 1 1.8021387181916758e+01 6.5973361360566374e+00 3.9750253507369841e+01
9080 3 3 1.8234802098822637e+01 6.8151585803281360e+00 4.0042576263826270e+01
9079 1 1 1.8367651696198230e+01 7.0734212277841113e+00 4.0253218758756667e+01
345 1 1 1.8414448587455226e+01 7.1884140964695717e+00 4.0370323606607478e+01
344 3 3 1.8485090153879266e+01 7.4210475230242663e+00 4.0678355919108817e+01
16918 1 1 1.8227206461596790e+01 6.1808485334665297e+00 4.0703876321664168e+01
7118 3 3 1.9179297613136548e+01 6.2132196551098327e+00 4.0461117107951210e+01
18923 3 3 1.9308065273028809e+01 6.8095216304219504e+00 3.9452296480528481e+01
18922 1 1 1.9335362831789876e+01 7.0276989060035646e+00 3.9793878955139959e+01
10593 1 1 1.9374033082005759e+01 7.1226269904459896e+00 3.9921002040121905e+01
10592 3 3 1.9452822665885495e+01 7.3216055400882345e+00 4.0199547146479553e+01
10591 1 1 1.9595562999870669e+01 7.5134468662923153e+00 4.0497668672530793e+01
11332 1 1 1.9654742680210333e+01 7.6173700906894046e+00 4.0617407649695579e+01
2759 3 3 1.7918032864602242e+01 8.4115585774180666e+00 4.0686157154175426e+01
474 1 1 1.7705813145729064e+01 7.9154393615788550e+00 4.0507812641330020e+01
2760 1 1 1.7762896108178108e+01 8.0431017260184614e+00 4.0548753020087055e+01
5965 1 1 1.8300974419021170e+01 7.7996788021286703e+00 3.9416029111354263e+01
8208 1 1 1.8345459359167446e+01 7.9135026304326725e+00 3.9504502296760272e+01
8207 3 3 1.8420023248770409e+01 8.2158570673493490e+00 3.9737960004693491e+01
8486 3 3 1.9515509867393344e+01 7.8344909899302051e+00 3.9202317024221266e+01
8206 1 1 1.8577514235263607e+01 8.5171487620847195e+00 3.9984926159491152e+01
18926 2 2 1.9852029644189102e+01 9.0854814020006742e+00 4.0483520311576896e+01
18925 1 1 1.9840846760405253e+01 8.7910977130285541e+00 4.0272785821589551e+01
14248 1 1 1.8636201232381399e+01 8.6240779302876565e+00 4.0057482625845431e+01
8485 1 1 1.9614654144108890e+01 8.0784516709332035e+00 3.9469914315658535e+01
2698 1 1 1.9662132627867173e+01 8.1790412734596742e+00 3.9567881500343468e+01
2699 3 3 1.9763763935706539e+01 8.4530527647342364e+00 3.9862052826718454e+01
2700 1 1 1.9814118085222827e+01 8.6763624271833013e+00 4.0163791143005163e+01
14249 3 3 1.8763437017569750e+01 8.9460467685095324e+00 4.0268397605168772e+01
13750 1 1 1.9879163753459217e+01 9.4148333494442920e+00 3.9217630458412764e+01
18003 1 1 2.0069875120686493e+01 1.0562580807299636e+01 4.0617242159458371e+01
4597 1 1 1.9921681399623743e+01 9.4869468565024349e+00 3.9323812962015865e+01
14250 1 1 1.8904775220723536e+01 9.3074413252939099e+00 4.0472183828780061e+01
18876 1 1 1.8915275925131663e+01 9.4387225046306611e+00 4.0546443313381999e+01
4598 2 2 2.0064442041602813e+01 9.7198127867263064e+00 3.9622328192320040e+01
17276 2 2 2.2118992732456004e+01 9.7902246261934547e+00 3.7606021864775535e-01
17277 1 1 2.2323544859899400e+01 9.9879928887160627e+00 6.2086129203721330e-01
8827 1 1 2.2397596365132820e+01 1.0109999188370137e+01 7.4590983954904833e-01
8828 2 2 2.2531618781520677e+01 1.0316505139613245e+01 9.5673395953151630e-01
8829 1 1 2.2613460698182156e+01 1.0637337713630021e+01 1.1939921998618375e+00
17275 1 1 2.1977052808216758e+01 9.5801127746064658e+00 4.8835292621251546e-02
7496 3 3 2.4051606384322962e+01 1.1161548855090800e+01 3.4608149976370614e-02
7495 1 1 2.4319637924677394e+01 1.1264745740467703e+01 3.6677125532492033e-01
4580 2 2 2.1564900929109424e+01 1.2973677180227535e+01 1.3827489248734459e-01
1998 1 1 2.1304214646338657e+01 1.2468839359756728e+01 5.7217316632060873e-02
4581 1 1 2.1385263073086989e+01 1.2644976663476211e+01 7.6169500206656915e-02
4579 1 1 2.1851399318599334e+01 1.3244077696350233e+01 2.2208648475284107e-01
4665 1 1 2.3740055892415427e+01 1.4224060128892997e+01 3.0056262517822435e-01
15714 1 1 2.3782602446643928e+01 1.4285777161371177e+01 4.3527562265004982e-01
15713 2 2 2.3908114436563888e+01 1.4433208805487489e+01 8.1566087536588849e-01
15712 1 1 2.4067200641414686e+01 1.4692894520372155e+01 1.1017165509575764e+00
8850 1 1 2.4121154529042155e+01 1.4774824725887990e+01 1.2135428173396872e+00
8849 2 2 2.4254272303456023e+01 1.5008730240743510e+01 1.5067857645869092e+00
13595 2 2 2.3329889159255671e+01 1.5686326339815112e+01 7.1157312733058431e-01
13594 1 1 2.3555690832240050e+01 1.5792728568061035e+01 1.0069204924270281e+00
15507 1 1 2.3617721665332279e+01 1.5841061026422953e+01 1.1608696903712328e+00
10099 1 1 2.4407082992370007e+01 1.5712740837433298e+01 2.2358144341702357e-01
13596 1 1 2.3154440253336613e+01 1.5596825583832679e+01 3.8803052352396483e-01
6454 1 1 2.4338970316414386e+01 1.5611421430482453e+01 1.0432462024844821e-01
16570 1 1 2.3125596056205932e+01 1.5556573545695906e+01 2.6365233194356957e-01
17380 1 1 2.3990699945895550e+01 1.6547596755127689e+01 2.8118391110399177e-01
10100 2 2 2.4552597594410479e+01 1.5948544823295553e+01 4.9074023340431566e-01
17381 2 2 2.3680425885701180e+01 1.6447406866574973e+01 3.7858087287814035e-02
13861 1 1 2.3598916657006448e+01 1.8314152874739499e+01 6.2418394317298764e-01
11404 1 1 2.3693187818166773e+01 1.8251650810651732e+01 5.2470480158107102e-01
11405 3 3 2.3874264753245498e+01 1.8059142682126893e+01 2.1229547234435744e-01
13862 2 2 2.3376316478679321e+01 1.8485926644560312e+01 8.7507169081698088e-01
11542 1 1 2.3074211039328070e+01 1.8642553634573517e+01 1.3226484598874968e+00
13863 1 1 2.3140590581483032e+01 1.8613707964885645e+01 1.1911296595321681e+00
8848 1 1 2.4261095051576216e+01 1.5306211800863096e+01 1.7868504847649027e+00
15506 2 2 2.3739652798799192e+01 1.5891269794018152e+01 1.5170450365858095e+00
15505 1 1 2.3910550685831399e+01 1.5987559972336134e+01 1.9258886162300073e+00
9348 1 1 2.3994614779963253e+01 1.6031525192206786e+01 2.0550808794442044e+00
9347 3 3 2.4132378206684791e+01 1.6188209394944220e+01 2.3745756938267553e+00
9346 1 1 2.4238843557606682e+01 1.6354912298173019e+01 2.6320727821371310e+00
10474 1 1 2.4266745710649229e+01 1.6452488814495851e+01 2.7163380211168655e+00
10475 3 3 2.4353529057092448e+01 1.6776002642112825e+01 2.9732566915099046e+00
11543 2 2 2.2876296345574449e+01 1.8749527160143643e+01 1.6201507045374621e+00
11544 1 1 2.2644702252627265e+01 1.8912885492486446e+01 1.9152626892851938e+00
9515 3 3 2.4522903913951431e+01 1.7665732660540275e+01 3.5521238066353904e+00
10476 1 1 2.4408220407444460e+01 1.7170898164219118e+01 3.1492959943167635e+00
9514 1 1 2.4427529431213582e+01 1.7311777539891633e+01 3.2256454296797270e+00
9516 1 1 2.4589674984629788e+01 1.7842188077149689e+01 3.9186361431879968e+00
10074 1 1 2.0239285961746383e+01 2.3232319748751200e+00 3.2889076982510502e+01
19908 1 1 2.1955726438616761e+01 1.7066286411559515e+00 3.3112228772174980e+01
20700 1 1 2.3224348812058935e+01 1.7520538373741197e+00 3.2704562811179386e+01
20699 2 2 2.3326895339621540e+01 1.9757991332908360e+00 3.2997653202394972e+01
18197 2 2 2.0221109462218099e+01 3.5318088930623674e+00 3.2294046226438489e+01
2650 1 1 2.1355338650327710e+01 3.7914830060310201e+00 3.1993591267789721e+01
6537 1 1 2.0461967570261752e+01 3.6930772899091515e+00 3.2841669603998525e+01
18198 1 1 2.0413720316860747e+01 3.6550533617298879e+00 3.2690198897074268e+01
2651 2 2 2.1389436936399402e+01 4.0884755459048501e+00 3.2329101949959046e+01
2652 1 1 2.1515884964181847e+01 4.2672670074523280e+00 3.2728182063136757e+01
12310 1 1 2.1557382714440426e+01 4.3218765172195237e+00 3.2891251759890068e+01
19645 1 1 2.2361947576614725e+01 3.1380086351585166e+00 3.2275622870263561e+01
19646 3 3 2.2451636402838904e+01 3.1426764934368916e+00 3.2637772922337454e+01
19647 1 1 2.2510823733044433e+01 3.2117214129628873e+00 3.3038961330981309e+01
4639 1 1 2.2499667923588209e+01 3.2403149591341247e+00 3.3166036461977711e+01
1419 1 1 2.2732542487100361e+01 4.2536738663624831e+00 3.3184868998170948e+01
6812 3 3 2.0522156081294977e+01 5.0067927053504535e+00 3.3014040401238610e+01
6813 1 1 2.0321216854720717e+01 4.9326528405128025e+00 3.2665110550062273e+01
844 1 1 2.0217829769002758e+01 4.9213260799955494e+00 3.2558509659238055e+01
10795 1 1 2.0436802565221178e+01 9.3351857794999593e-01 3.4525963219819147e+01
18088 1 1 2.2843895955728883e+01 1.2901598200837716e+00 3.3968473478851614e+01
4237 1 1 2.2389612767461383e+01 2.5588794341693549e-01 3.4664099114679274e+01
18581 3 3 2.3530526517689488e+01 9.1472095075686002e-02 3.4461705988261521e+01
18126 1 1 2.3418745715571340e+01 1.1361073766239276e+00 3.4604281448006034e+01
9999 1 1 2.3963506939579290e+01 1.4032569755397128e+00 3.3496280176323893e+01
5403 1 1 2.0705044790095091e+01 2.0617722879399221e+00 3.3609040087238292e+01