LAMMPS data file via write_data, version 3 Mar 2020, timestep = 100000000

7560 atoms
3 atom types
7443 bonds
3 bond types
7326 angles
3 angle types

0.0000000000000000e+00 5.0000000000000000e+01 xlo xhi
0.0000000000000000e+00 5.0000000000000000e+01 ylo yhi
0.0000000000000000e+00 5.0000000000000000e+01 zlo zhi

Masses

1 0.25
2 0.5
3 0.5

Bond Coeffs # harmonic

1 6000 0.15
2 2000 0.4
3 2000 0.4

Angle Coeffs # harmonic

1 100 180
2 50 180
3 50 180

Atoms # angle

11815 1 1 3.2090870754159746e+00 3.3799501924230526e+01 2.5272649538454699e+00
11816 3 3 3.3380507235968166e+00 3.3832685008353771e+01 2.9049484512948975e+00
13787 2 2 2.3237195262465429e+00 3.0723589216600026e+01 4.5831206111674030e+00
13786 1 1 2.2035277031481284e+00 3.0479020833448327e+01 4.2611376289554821e+00
14773 1 1 2.1766846792661956e-01 3.1333867282668773e+01 4.4085931137772993e+00
16770 1 1 2.6489010258586981e-01 3.3339693006193947e+01 3.5755828079157048e+00
16768 1 1 9.9983859459005842e-02 3.3825123918907316e+01 4.1905512225160351e+00
16769 3 3 1.9135724476462623e-01 3.3632139243935178e+01 3.8199835533543789e+00
15423 1 1 7.0358095010454896e-02 3.3898967581649146e+01 4.3147189596552069e+00
6997 1 1 3.5182275333254580e+00 3.3796220458123862e+01 3.4421800901070343e+00
11817 1 1 3.4391312794805899e+00 3.3804367406229829e+01 3.2757435076503336e+00
6998 3 3 3.6314380195576317e+00 3.3831469295971779e+01 3.7870117145243190e+00
14774 2 2 2.3655831146376499e-01 3.1335147116413950e+01 4.8129412966962910e+00
20524 1 1 2.6535540996899071e-01 3.1378102607246625e+01 5.3736620748177941e+00
14775 1 1 2.4895745550571416e-01 3.1365811785600481e+01 5.2154409216771507e+00
20525 3 3 2.4970681839638878e-01 3.1336516089976580e+01 5.7556754688994980e+00
20526 1 1 1.3798404658637359e-01 3.1245546919157768e+01 6.1136158142794121e+00
13788 1 1 2.3755339160815065e+00 3.1036822243804874e+01 4.8559249003978380e+00
7645 1 1 2.4089341499798178e+00 3.1178383311845661e+01 4.9889304511678594e+00
7646 3 3 2.5068330924578981e+00 3.1433706487593170e+01 5.2377954125712636e+00
7647 1 1 2.6160907024845970e+00 3.1744359102342003e+01 5.4757610366980902e+00
15961 1 1 2.6501067589709049e+00 3.1863583152345601e+01 5.5740101188377702e+00
15962 2 2 2.7884905462788256e+00 3.2184008836411387e+01 5.8217099400485042e+00
130 1 1 1.7121448273355189e+00 3.3259068116992928e+01 5.9263527397114482e+00
131 2 2 1.9684922309596808e+00 3.3356369118285201e+01 6.1869874639189444e+00
15963 1 1 2.9680380872092247e+00 3.2377573987798279e+01 6.0776492589972735e+00
2646 1 1 3.0383601660351576e+00 3.2473509416998560e+01 6.1663563610680070e+00
16524 1 1 1.9168843745721036e+00 3.3849634177122816e+01 4.6832987856439390e+00
2332 1 1 4.8150754415931436e+00 3.3467234041535228e+01 5.9542369185580029e+00
5936 3 3 2.2544615425136010e-02 3.1183066721324582e+01 6.6399391026929520e+00
5935 1 1 7.8071291621507208e-02 3.1246114962601009e+01 6.2680597648388510e+00
132 1 1 2.2175733256400809e+00 3.3408969583014184e+01 6.4801716184868052e+00
6562 1 1 2.2877375256630970e+00 3.3452080493271779e+01 6.6249579717575013e+00
6563 3 3 2.3934022668924637e+00 3.3527313334119597e+01 7.0386828388542462e+00
1285 1 1 2.3802243748715606e+00 3.3543532846038822e+01 7.6157796282081653e+00
6564 1 1 2.3732621957258968e+00 3.3534477933841039e+01 7.4535127772023095e+00
12687 1 1 3.0642307002675238e+00 3.2675539215467417e+01 7.3719142844316679e+00
15485 2 2 4.1269635226574675e+00 3.2743763914042781e+01 6.7359136639234229e+00
15486 1 1 4.1601217159756878e+00 3.2695291555201329e+01 6.3352626658010411e+00
2645 2 2 3.1761461934158950e+00 3.2806345240751163e+01 6.3677458601090331e+00
12188 2 2 3.5398953984190671e+00 3.3447604428304771e+01 7.1030499279523829e+00
12189 1 1 3.3701025241668754e+00 3.3231193926286920e+01 6.7839433313554744e+00
2644 1 1 3.2993038126155523e+00 3.3128662067615359e+01 6.6487793734853922e+00
12187 1 1 3.6194108738796968e+00 3.3606472134367458e+01 7.4637262516549425e+00
15484 1 1 4.1478454101982294e+00 3.2794129069216069e+01 7.1616234063418203e+00
3340 1 1 4.1734259365536150e+00 3.2809158254593861e+01 7.3063783660548154e+00
20439 1 1 3.6555450643825735e+00 3.3683095648849260e+01 7.6073710210087508e+00
3341 2 2 4.2217463435669025e+00 3.2853953052668736e+01 7.6885210940081086e+00
12686 2 2 3.1303197303714358e+00 3.2689985710586377e+01 7.7732189288158340e+00
2333 2 2 4.8091408649375884e+00 3.3552828878772921e+01 6.3641087939444123e+00
2334 1 1 4.8291302108055616e+00 3.3665140575227475e+01 6.7385169542326118e+00
17887 1 1 5.8044937576024367e+00 3.3059723470863567e+01 7.3289730902033137e+00
18418 1 1 4.8448384093013281e+00 3.3696500789698277e+01 6.9037288666472074e+00
18419 2 2 4.8497058823619037e+00 3.3756489863502189e+01 7.2620737177076986e+00
17888 3 3 5.6840882056101387e+00 3.3045197583548131e+01 7.7279514184774118e+00
18420 1 1 4.8801054334933882e+00 3.3823417900281498e+01 7.6659904233348808e+00
4281 1 1 4.8914515689228502e+00 3.3842822837170402e+01 7.7815133349568342e+00
17082 1 1 3.2088403085417427e-01 3.0807484149378315e+01 8.7701561539243880e+00
17081 3 3 1.4056315428759872e-01 3.0787565446950431e+01 8.4328847407626437e+00
17080 1 1 1.2905334823727011e-02 3.0803725764015581e+01 8.0478969577739150e+00
18940 1 1 7.3562795567480777e-01 3.2158975517963093e+01 7.8512587937401701e+00
895 1 1 3.8033929246765974e-01 3.0847897378733773e+01 8.9108878685118196e+00
896 3 3 5.1222515337625363e-01 3.0933247687408560e+01 9.2290562061209833e+00
18942 1 1 8.5904825807103879e-01 3.2244823073185493e+01 8.5795636471746732e+00
18941 3 3 7.6595047152254170e-01 3.2201132281349913e+01 8.2424886479701396e+00
8250 1 1 9.1486524040552675e-01 3.2295517956332581e+01 8.7107130324211486e+00
16492 1 1 4.2280457144133834e+00 3.1974681599997524e+01 7.9241748392121618e+00
16494 1 1 3.9750130557909404e+00 3.1954248698742891e+01 8.6795246097548766e+00
16493 2 2 4.0897157709003507e+00 3.1962998129393466e+01 8.3295765244455389e+00
15984 1 1 3.9570364554100168e+00 3.1954105107380848e+01 8.8312445745113966e+00
15983 2 2 3.9621804020717906e+00 3.1959133511421914e+01 9.2614566913600935e+00
11037 1 1 5.2771330432538193e+00 3.1492773141713709e+01 7.9922006541404276e+00
11036 3 3 5.2248578115708417e+00 3.1654765840715019e+01 8.3742318123082775e+00
9921 1 1 5.2245951781685145e+00 3.1911838342006281e+01 8.8723668835487217e+00
11035 1 1 5.2458005209700440e+00 3.1857894839664510e+01 8.7313245750008441e+00
9920 2 2 5.1448762042101608e+00 3.2094313148663886e+01 9.2237146139157584e+00
8249 3 3 9.9647788135816662e-01 3.2438289933674199e+01 9.0736757797134242e+00
12425 3 3 9.3376079143049184e-02 3.3589037085273915e+01 9.3358425395367401e+00
12424 1 1 5.9593943167590334e-02 3.3422424597427508e+01 8.9697776580750936e+00
14943 1 1 3.4262368376266825e-02 3.3349068275603301e+01 8.8541412488579212e+00
2922 1 1 1.6065636750072962e+00 3.3871597836013201e+01 8.3377917160320010e+00
6163 1 1 2.1791277931546662e+00 3.2375877864066702e+01 8.1030501671717285e+00
6164 2 2 2.1770322423487700e+00 3.2456596957548086e+01 8.4998249378873698e+00
1286 2 2 2.4486378069646975e+00 3.3610814204895874e+01 8.0249689990616382e+00
6165 1 1 2.1246741879679063e+00 3.2536256570532316e+01 8.9078571824358175e+00
20017 1 1 2.1184013309743546e+00 3.2567214687858154e+01 9.0550682939724041e+00
1287 1 1 2.5377840275629135e+00 3.3633822498373966e+01 8.4333830845323572e+00
19255 1 1 2.5398556393331089e+00 3.3659762045457704e+01 8.5972307471677301e+00
19256 2 2 2.5609040571199819e+00 3.3723679886709967e+01 8.9790096316496300e+00
12685 1 1 3.1322791713809095e+00 3.2719085715020398e+01 8.1771612152071995e+00
17596 1 1 3.1182586138970607e+00 3.2747824737475376e+01 8.3386678170152564e+00
17597 2 2 3.1576838292380023e+00 3.2809994509698107e+01 8.7192221651884587e+00
17598 1 1 3.1940835682509645e+00 3.2877647591211392e+01 9.0909641455591377e+00
21073 1 1 3.2186798496483067e+00 3.2885574259181865e+01 9.2235202238968892e+00
578 2 2 4.1968117195067203e+00 3.3061498302512213e+01 8.6603527037664154e+00
579 1 1 4.1816265131732626e+00 3.3006509045135680e+01 8.2427756693076137e+00
3342 1 1 4.2115046472436442e+00 3.2980223072634331e+01 8.0978910589481057e+00
577 1 1 4.3021111448406080e+00 3.3017051946523921e+01 9.0618069660030791e+00
20535 1 1 4.3261956058087225e+00 3.3024666365455971e+01 9.1800311117835331e+00
20438 2 2 3.7037525279022874e+00 3.3782980178676347e+01 7.9677351574671764e+00
13912 1 1 3.7121842540721763e+00 3.3814943756541965e+01 8.4842925268609726e+00
20437 1 1 3.7144524502409686e+00 3.3811309618197356e+01 8.3408484019491560e+00
13914 1 1 3.6600433204061926e+00 3.3869730769214975e+01 9.3185151916537876e+00
13913 2 2 3.6590970984335076e+00 3.3833976801835441e+01 8.9246080364860045e+00
17889 1 1 5.5800135370301724e+00 3.3038986612335577e+01 8.0840719503020875e+00
14275 1 1 5.5331322939783982e+00 3.3040517310946001e+01 8.2211173238185964e+00
14276 2 2 5.4306734224669428e+00 3.3068709104270738e+01 8.6086743120724432e+00
14277 1 1 5.2988984418082046e+00 3.3108148300059504e+01 8.9767156462920603e+00
13951 1 1 5.2990558267830830e+00 3.3129751491251554e+01 9.0924044146141245e+00
4280 2 2 4.9020358932081125e+00 3.3883966998226391e+01 8.1451628661821296e+00
897 1 1 7.4301400548586805e-01 3.1093249890692324e+01 9.5015542121768490e+00
6487 1 1 8.1076256115757028e-01 3.1165183392327720e+01 9.6438411921859952e+00
6488 3 3 9.1728009007379452e-01 3.1377893756914325e+01 9.9437007350837892e+00
6489 1 1 1.0250845254082463e+00 3.1594492111919987e+01 1.0238557536419778e+01
1440 1 1 1.0616169812492757e+00 3.1679807053941698e+01 1.0344968825611067e+01
1439 2 2 1.1813883865947019e+00 3.1919164732067816e+01 1.0710432849603132e+01
13129 1 1 3.6393406776090603e-01 3.1825293370251281e+01 1.0893803497356402e+01
21272 2 2 2.7559547061667291e+00 3.1988568872596598e+01 1.0167104219857420e+01
21273 1 1 2.7217342001405309e+00 3.2021731178815422e+01 1.0560336733731614e+01
21271 1 1 2.8605711458257983e+00 3.2002000418581872e+01 9.7415044783909330e+00
9666 1 1 2.7292215668734685e+00 3.2015494976244987e+01 1.0732566842096778e+01
137 2 2 3.9200693299813825e+00 3.2221677211688160e+01 1.0154990533331915e+01
138 1 1 3.9619672056110797e+00 3.2076180181512967e+01 9.7725660524000713e+00
15982 1 1 3.9560599288702134e+00 3.2027438461245112e+01 9.6398587318445497e+00
136 1 1 3.8916530029135630e+00 3.2318319236103022e+01 1.0520542469278253e+01
6051 1 1 3.8908605001651817e+00 3.2340479603354311e+01 1.0689167981069920e+01
19901 2 2 5.1456670736362211e+00 3.2192993144633057e+01 1.0144537365702433e+01
9919 1 1 5.0753752890508741e+00 3.2215712724555175e+01 9.6261244332564004e+00
19900 1 1 5.0961092137256143e+00 3.2210941885256879e+01 9.7712670857076827e+00
17440 1 1 5.1604641105108184e+00 3.2231174201243221e+01 1.0731231105504953e+01
19902 1 1 5.2117453645820282e+00 3.2226405957686687e+01 1.0582497863798810e+01
8248 1 1 9.8134695042509390e-01 3.2534952089066401e+01 9.4399236674104490e+00
19003 1 1 9.7271382740801371e-01 3.2573204260600100e+01 9.5764609523705122e+00
16960 1 1 9.0611630805490506e-01 3.2848252620491849e+01 1.0469363623113304e+01
19005 1 1 9.0445602885332699e-01 3.2815991669926703e+01 1.0339018347359113e+01
19004 2 2 9.2607013605345856e-01 3.2749515367792235e+01 9.9309416641752897e+00
12426 1 1 1.6093638913198924e-01 3.3717782414835803e+01 9.7425419665869075e+00
16255 1 1 2.0569976906177648e-01 3.3766894052992569e+01 9.9004354194172581e+00
16961 2 2 9.8743526308273977e-01 3.3039753689446215e+01 1.0793315983555162e+01
16256 2 2 3.5929835131289561e-01 3.3836216825117127e+01 1.0220658400251278e+01
18440 2 2 1.4605098857904331e+00 3.3855145029120784e+01 9.6379131258175956e+00
18441 1 1 1.4596021915082038e+00 3.3905122239470955e+01 1.0033938137909939e+01
20878 1 1 4.0572009456933811e-01 3.3894749961883342e+01 1.0740117237912253e+01
16257 1 1 4.0105398388162072e-01 3.3883000158235753e+01 1.0598207749508182e+01
20018 2 2 2.0473011022236518e+00 3.2747086516050992e+01 9.4357414015554841e+00
4637 2 2 2.1207507305551241e+00 3.2934806488912493e+01 1.0329289579183079e+01
4638 1 1 2.1085875925652098e+00 3.2862629659598973e+01 9.9270056572684631e+00
20019 1 1 2.0958049830117060e+00 3.2829636771495160e+01 9.7809748688025735e+00
4636 1 1 2.0711032944781231e+00 3.3027500778430031e+01 1.0757279614340181e+01
1054 1 1 2.0918551460928096e+00 3.3052901645182750e+01 1.0891430190517086e+01
19713 1 1 2.5200428934964103e+00 3.3892900638997205e+01 1.0477492914112975e+01
12832 1 1 2.5188149260228743e+00 3.3881707258716119e+01 1.0300866763440444e+01
19257 1 1 2.5832813757034869e+00 3.3773606116274912e+01 9.3683969305250656e+00
12833 2 2 2.5449542571372215e+00 3.3879779800134628e+01 9.9126886393522149e+00
12834 1 1 2.5670736190711105e+00 3.3798867423275929e+01 9.5148849480992617e+00
14645 2 2 3.2508992733566111e+00 3.3085255320158041e+01 1.0518042123633224e+01
14646 1 1 3.2543134851775579e+00 3.2981243561479324e+01 1.0106424487240632e+01
21075 1 1 3.2656070290514667e+00 3.2955653344606091e+01 9.9669512311495527e+00
21074 2 2 3.2951098518936268e+00 3.2865434941900205e+01 9.5892841624661234e+00
20534 2 2 4.3973266374839861e+00 3.3040485069140566e+01 9.5285243876805445e+00
10831 1 1 4.3702727824757774e+00 3.3126637264809055e+01 1.0073594515025782e+01
20533 1 1 4.3792102217089290e+00 3.3120047827767422e+01 9.9113049851809087e+00
10832 2 2 4.4083890032956914e+00 3.3142842592525909e+01 1.0463477073869559e+01
10833 1 1 4.4453966572127799e+00 3.3222606468753924e+01 1.0842096278811800e+01
14644 1 1 3.2690842611012165e+00 3.3181395913905988e+01 1.0901929873669216e+01
16312 1 1 3.6495486153681713e+00 3.3889654465579106e+01 9.4694707983803070e+00
16314 1 1 3.7528073655052951e+00 3.3905476204538239e+01 1.0230056852847042e+01
13952 2 2 5.3652004469052113e+00 3.3214551588926192e+01 9.4762201966364383e+00
15897 1 1 5.4634418187057951e+00 3.3237960923069267e+01 1.0003847180922602e+01
13953 1 1 5.4151861442603595e+00 3.3256706089647579e+01 9.8485399306968695e+00
15896 2 2 5.4942377883711160e+00 3.3235034741311637e+01 1.0413486854534140e+01
15895 1 1 5.4723179101321451e+00 3.3352229710993292e+01 1.0800881873845926e+01
20938 1 1 5.8635998471486976e+00 3.0403379069983263e+01 1.1967335389312048e+01
20939 2 2 5.5930536081581597e+00 3.0560154090767437e+01 1.2164690681733974e+01
20940 1 1 5.4127489172636727e+00 3.0790696565979598e+01 1.2366094489292568e+01
1438 1 1 1.3107890735315726e+00 3.2091592727131918e+01 1.1009771341967573e+01
5022 1 1 1.3232892134589775e+00 3.2150475278108466e+01 1.1131646811486485e+01
13131 1 1 4.1097536506869664e-01 3.2112482546486738e+01 1.1603553555366375e+01
13130 2 2 3.6956539957311807e-01 3.1971300676296057e+01 1.1246561663093450e+01
10818 1 1 4.3819656404580037e-01 3.2151572094935176e+01 1.1765880021725208e+01
10817 2 2 4.9439326650840826e-01 3.2309756480679177e+01 1.2137558718311816e+01
5021 2 2 1.4103135162691205e+00 3.2234594889170381e+01 1.1536336570781804e+01
8927 2 2 1.1296181769798173e+00 3.1317542463014622e+01 1.1915803542619825e+01
8926 1 1 1.2273443848677059e+00 3.1207700742559698e+01 1.1509092949277344e+01
5020 1 1 1.4324059284716861e+00 3.2283577080382337e+01 1.1943119003023007e+01
2160 1 1 1.4485170024398828e+00 3.2316852180193713e+01 1.2092934542395602e+01
8928 1 1 1.0085862490714335e+00 3.1353901028979692e+01 1.2336039301925094e+01
9665 2 2 2.7455529389611426e+00 3.2053110379193100e+01 1.1073373277014808e+01
9664 1 1 2.7234898166178980e+00 3.2222144972793103e+01 1.1408461352587931e+01
9918 1 1 2.6952059946901050e+00 3.2244066625276638e+01 1.1554825400475016e+01
9917 2 2 2.6682025913647567e+00 3.2281599574489540e+01 1.1950534854781676e+01
9916 1 1 2.6746210701797617e+00 3.2320768537886792e+01 1.2314199205459571e+01
18459 1 1 2.6862543443673959e+00 3.2333751730775305e+01 1.2461944518762808e+01
17026 1 1 5.3434432450269114e+00 3.0884972724783349e+01 1.2463109497521216e+01
19526 2 2 9.8566721494584963e-01 3.3210828708733345e+01 1.1667028203607176e+01
19525 1 1 1.0335792147739182e+00 3.3148540093289512e+01 1.1277782934130165e+01
16962 1 1 1.0130669459137063e+00 3.3129515161987442e+01 1.1133539150260587e+01
4071 1 1 1.1252935780272386e+00 3.3314721303681722e+01 1.2146254966614389e+01
19527 1 1 1.0892630222311770e+00 3.3296769697719213e+01 1.2005460688318196e+01
1055 2 2 2.1228173808723088e+00 3.3177416774039600e+01 1.1250769325870914e+01
16126 1 1 2.0870688621462041e+00 3.3157656345375123e+01 1.1722224592224137e+01
1056 1 1 2.0981393917209994e+00 3.3154609986357670e+01 1.1585190680199640e+01
16127 2 2 2.0991967294319416e+00 3.3259402897694372e+01 1.2159857648691546e+01
6050 2 2 3.8530294968084666e+00 3.2384402475033198e+01 1.1092301078347989e+01
6049 1 1 3.8503473840045763e+00 3.2378672798906820e+01 1.1487228522633250e+01
7852 1 1 3.8434214328521490e+00 3.2394322014188120e+01 1.1632897536052772e+01
7853 3 3 3.8344969065116516e+00 3.2447859517193457e+01 1.2039707888493137e+01
7816 1 1 3.2518267883427008e+00 3.3395182532333813e+01 1.1980416960361890e+01
19241 2 2 3.2761653189085842e+00 3.3293403527174782e+01 1.1428992655383505e+01
19240 1 1 3.2338613146306239e+00 3.3357042209291158e+01 1.1822674954438980e+01
7817 2 2 3.2080191801482467e+00 3.3469758802118605e+01 1.2377940290860765e+01
19242 1 1 3.2651739556157731e+00 3.3216083778282616e+01 1.1057411621355225e+01
16375 1 1 4.4469378990949373e+00 3.3240438430169228e+01 1.1011745204891520e+01
16376 2 2 4.4442205891047264e+00 3.3282461946154974e+01 1.1415766061343255e+01
16377 1 1 4.3716144329120290e+00 3.3366630865449089e+01 1.1797599610093927e+01
12076 1 1 4.3603569401462794e+00 3.3367219536165031e+01 1.1939008531528049e+01
12077 3 3 4.3521216656651394e+00 3.3411646011548420e+01 1.2377786193733348e+01
7854 1 1 3.8207412722349670e+00 3.2519274824469612e+01 1.2410895781993377e+01
17442 1 1 4.9690220477724765e+00 3.2434502950660359e+01 1.1471312545695397e+01
5897 2 2 4.9121779552877767e+00 3.2481242922251319e+01 1.1985608565490322e+01
5896 1 1 4.9397407147396626e+00 3.2468866788922668e+01 1.1613263315163067e+01
5898 1 1 4.8897031678745826e+00 3.2584224375817307e+01 1.2367467279355933e+01
17441 2 2 5.0759007234175257e+00 3.2369912256141731e+01 1.1112685961169422e+01
14323 1 1 5.4685257468145885e+00 3.3388926506839141e+01 1.0947639432498320e+01
14325 1 1 5.5494142112044109e+00 3.3449288722818473e+01 1.1750894406875984e+01
14324 2 2 5.4730883060905979e+00 3.3413190304543768e+01 1.1353530890218863e+01
8560 1 1 5.5721495217564581e+00 3.3439825787538666e+01 1.1910694119270284e+01
8561 3 3 5.6158901277491564e+00 3.3427984586649202e+01 1.2296117894662318e+01
3766 1 1 2.3862266077231817e+00 3.0658457254622082e+01 1.3498853153658967e+01
3767 2 2 2.4346983125685115e+00 3.0707031178539566e+01 1.3874288550575507e+01
8779 1 1 8.3800033121208162e-01 3.1559588163163365e+01 1.3359638911006043e+01
7384 1 1 8.5235346245066201e-01 3.1503572778306932e+01 1.3235507352924635e+01
7385 2 2 9.0692155795634555e-01 3.1417497567579083e+01 1.2890822521654240e+01
7386 1 1 9.6689174927636312e-01 3.1393587621060668e+01 1.2502778126672537e+01
8780 2 2 8.4863360075045646e-01 3.1746377858672531e+01 1.3727516085310876e+01
13666 1 1 1.9394793055035202e+00 3.1615600537313934e+01 1.3700711573601044e+01
13667 2 2 1.9239563916624300e+00 3.1508211312944596e+01 1.3313168760870274e+01
18808 1 1 1.9474831643459016e+00 3.1641681900133840e+01 1.3838788391076912e+01
13668 1 1 1.8955485245805086e+00 3.1445495653707525e+01 1.2942445739069310e+01
16620 1 1 4.4991307752048435e+00 3.1931713453836309e+01 1.3486004775166716e+01
17027 3 3 5.1338072881854373e+00 3.1075310713871875e+01 1.2706641459760952e+01
17028 1 1 4.8931693218313406e+00 3.1301952246316905e+01 1.2901627232888092e+01
16618 1 1 4.8148027918557643e+00 3.1399593272052080e+01 1.2986593030683876e+01
16619 2 2 4.6578969130429169e+00 3.1640974679174168e+01 1.3215564948116084e+01
10816 1 1 5.4919754773862817e-01 3.2438372032970342e+01 1.2524242072593447e+01
17856 1 1 5.4054451892573441e-01 3.2471923892254196e+01 1.2659452585237267e+01
17855 2 2 5.1373135954933380e-01 3.2610679520116129e+01 1.3025289708196805e+01
17854 1 1 5.5138943654937034e-01 3.2720398936782402e+01 1.3428171402043795e+01
4070 2 2 1.1545380628273254e+00 3.3388804594343689e+01 1.2543728669955502e+01
3484 1 1 5.6011549671140104e-01 3.2741376895992289e+01 1.3565253438032107e+01
4069 1 1 1.1423820991259361e+00 3.3520077240744762e+01 1.2908345481077854e+01
2752 1 1 1.1157706856924501e+00 3.3576050158604112e+01 1.3065385376150122e+01
2753 2 2 1.1317569943308041e+00 3.3640303437782883e+01 1.3483112464933047e+01
3485 2 2 5.5184158660150395e-01 3.2896316896239718e+01 1.3968104213347779e+01
2754 1 1 1.1443856975061026e+00 3.3734236938067994e+01 1.3882802491686961e+01
2159 2 2 1.5494795495577356e+00 3.2425753377179980e+01 1.2478934693772052e+01
2158 1 1 1.6195144851981540e+00 3.2518184408932164e+01 1.2822761154642331e+01
9106 1 1 1.6400115151482937e+00 3.2552490926046531e+01 1.2944691513665356e+01
16128 1 1 2.1274954670835098e+00 3.3316088704254952e+01 1.2538248276793848e+01
9108 1 1 1.5795234810568801e+00 3.2648461043411977e+01 1.3750699420027203e+01
14914 1 1 1.5636487963491668e+00 3.2654487953243148e+01 1.3912733515726259e+01
9107 2 2 1.6077368193527237e+00 3.2621283844639336e+01 1.3333139182427498e+01
18458 2 2 2.6950950540526555e+00 3.2459732971714921e+01 1.2821614388299858e+01
18457 1 1 2.7099409473032163e+00 3.2566060169735501e+01 1.3169859024269256e+01
21583 1 1 2.1449965344401387e+00 3.3341356596988128e+01 1.2668068234095990e+01
21105 1 1 2.7218663041029494e+00 3.2600625793509678e+01 1.3336462567093946e+01
21104 2 2 2.7000154500353979e+00 3.2715017564608047e+01 1.3691481116628923e+01
21584 2 2 2.1214065429599454e+00 3.3460739343964249e+01 1.3008866782657218e+01
21585 1 1 2.1790555980535986e+00 3.3519849098299311e+01 1.3353766922966347e+01
13119 1 1 2.1849473403889275e+00 3.3557122975973734e+01 1.3479009833619493e+01
13118 2 2 2.2005700194618778e+00 3.3671189000400886e+01 1.3846694468227270e+01
21103 1 1 2.6618200966780212e+00 3.2846409259430146e+01 1.4032978988168603e+01
2140 1 1 3.8217351963415744e+00 3.2548766510513175e+01 1.2546853882645390e+01
11722 1 1 3.3025469823090914e+00 3.3635393730548159e+01 1.3874612823772248e+01
2451 1 1 3.2769493079556433e+00 3.3611177444536615e+01 1.3702067011030815e+01
7818 1 1 3.1596825521368208e+00 3.3506814889449011e+01 1.2748394327996706e+01
2141 2 2 3.7429998502127879e+00 3.2601753986308765e+01 1.2902103845785469e+01
2142 1 1 3.7518979387931046e+00 3.2681914192169501e+01 1.3332225334146266e+01
450 1 1 3.7572314957729227e+00 3.2678218940657203e+01 1.3505480160031672e+01
2449 1 1 3.1544203529496060e+00 3.3496697548492286e+01 1.2893491481845601e+01
2450 2 2 3.1871018227218220e+00 3.3579214568204307e+01 1.3313659074276389e+01
4487 2 2 4.3849662599284462e+00 3.3513765705148124e+01 1.3340327577273602e+01
4486 1 1 4.3886014875916057e+00 3.3506907429064562e+01 1.2950766475833261e+01
12078 1 1 4.3623114309049962e+00 3.3514409709189131e+01 1.2823333826461605e+01
4488 1 1 4.3800240444303231e+00 3.3597459232089982e+01 1.3736501950541157e+01
12934 1 1 4.4063904852528966e+00 3.3636319026240848e+01 1.3898032972213299e+01
449 2 2 3.8016291340824115e+00 3.2760984866361426e+01 1.3965231562012125e+01
5808 1 1 4.8978688951669511e+00 3.2600979412098724e+01 1.2501122718776381e+01
5807 2 2 4.8899679134600387e+00 3.2635922066445239e+01 1.2904074042090999e+01
7059 1 1 4.9116347910478373e+00 3.2707101256613335e+01 1.3483615696609734e+01
5806 1 1 4.9124120994166347e+00 3.2701279235594860e+01 1.3329768650433724e+01
8562 1 1 5.6829461513516009e+00 3.3472386872804137e+01 1.2734070532885998e+01
16893 1 1 5.6686629379799927e+00 3.3494987657812196e+01 1.2879825548749945e+01
16892 2 2 5.6137815357123726e+00 3.3504019566191879e+01 1.3289238582218339e+01
16891 1 1 5.6112795039852523e+00 3.3535395417375959e+01 1.3689991789547825e+01
7058 2 2 4.9410661244151859e+00 3.2756451091312272e+01 1.3851142898694166e+01
17175 1 1 5.6361382804020579e+00 3.3535731146173461e+01 1.3839082312307177e+01
7477 1 1 2.4590824367489947e+00 3.0779366053331220e+01 1.4423871717372366e+01
3768 1 1 2.4664237367278257e+00 3.0767712788181328e+01 1.4245827950479558e+01
8781 1 1 8.0799417309737676e-01 3.1890066911433280e+01 1.4074726421679555e+01
4574 2 2 7.9060331735681189e-01 3.2034779050773352e+01 1.4603014344412266e+01
4573 1 1 7.3529411527079214e-01 3.2087930527526005e+01 1.5048281587047095e+01
4575 1 1 8.0532591222944883e-01 3.1921985983115320e+01 1.4238677679649618e+01
1162 1 1 7.3533993188487323e-01 3.2112704225722112e+01 1.5197278840493034e+01
18809 2 2 2.0037482580038422e+00 3.1712102114930612e+01 1.4196945743694229e+01
7478 3 3 2.4188310164513327e+00 3.0842086604778874e+01 1.4806040378850353e+01
18810 1 1 2.0641922916048663e+00 3.1820457005734315e+01 1.4575119700860922e+01
1411 1 1 2.0667658940062603e+00 3.1858885338836171e+01 1.4740707047212377e+01
1412 2 2 2.0011110663535026e+00 3.1932011175138630e+01 1.5191147127586193e+01
7479 1 1 2.4497786560048556e+00 3.0889277452638979e+01 1.5198179127617719e+01
12717 1 1 2.4573859654962003e+00 3.0917735043032124e+01 1.5319299071987331e+01
1413 1 1 1.9106027905933238e+00 3.1978557954348187e+01 1.5567036817402157e+01
10952 2 2 3.0595716575060203e+00 3.2038685783982075e+01 1.5427845324056745e+01
10953 1 1 3.0787941533755956e+00 3.1999915698912012e+01 1.5113779137433861e+01
11899 1 1 3.0895249688015216e+00 3.2002603764732427e+01 1.4942628585079827e+01
11900 2 2 3.1504224359661843e+00 3.1973896206384975e+01 1.4511835180276757e+01
11901 1 1 3.1505079730536329e+00 3.1967999043406543e+01 1.4095610255225763e+01
3590 2 2 4.8649476745002707e+00 3.1813284606876948e+01 1.4337377251472361e+01
3589 1 1 4.7010375446359518e+00 3.1551322987187056e+01 1.4601859344439683e+01
3591 1 1 4.9920601982715151e+00 3.2084375899214500e+01 1.4055934558249522e+01
284 2 2 1.1806583541569136e+00 3.3831171264575900e+01 1.4424311030610850e+01
3486 1 1 5.5685158424609260e-01 3.3045677220244279e+01 1.4333937245498605e+01
15409 1 1 3.7304433669400172e-01 3.3185378763912119e+01 1.5224209820509845e+01
8895 1 1 3.2181858238534417e-01 3.3172521513404149e+01 1.5362329476954217e+01
15411 1 1 5.3878212167948114e-01 3.3102868587788791e+01 1.4481919793631674e+01
15410 2 2 4.6163115027757329e-01 3.3197081164097696e+01 1.4865002207104251e+01
6677 2 2 1.4857269210662216e+00 3.2971146563441586e+01 1.5223260800261867e+01
6676 1 1 1.4870827910334081e+00 3.2836947923024169e+01 1.4853367271749709e+01
14916 1 1 1.4881718902018377e+00 3.2790257658062586e+01 1.4696593211320792e+01
6678 1 1 1.3928797521193350e+00 3.3043357588342353e+01 1.5594202003699857e+01
285 1 1 1.1498631653063731e+00 3.3754055353582189e+01 1.4056430045645671e+01
5850 1 1 2.1866673780009478e+00 3.3873555564931628e+01 1.5200514197130026e+01
14915 2 2 1.5485839650323423e+00 3.2688007682668953e+01 1.4274157950379625e+01
107 2 2 2.5861394631517611e+00 3.2907974048426873e+01 1.4511105848318072e+01
108 1 1 2.6469658477173348e+00 3.2886129968558301e+01 1.4173151023311679e+01
17523 1 1 2.5429333265341043e+00 3.2981293147476812e+01 1.5083679159053476e+01
106 1 1 2.5377636512712347e+00 3.2971719348574510e+01 1.4921832373699310e+01
17522 2 2 2.6007793492692968e+00 3.3041998136413014e+01 1.5475995386449910e+01
13117 1 1 2.1970353838153307e+00 3.3736962685016266e+01 1.4264123649670813e+01
5848 1 1 2.2055312177563762e+00 3.3744430524593419e+01 1.4420744548437330e+01
5849 2 2 2.1686362422351912e+00 3.3792265378302474e+01 1.4851601446630562e+01
10543 1 1 2.1673991350312041e+00 3.3894348688172819e+01 1.5358680332440965e+01
19031 2 2 3.3063779536190898e+00 3.3834555214451711e+01 1.5187100947753297e+01
11723 2 2 3.3514457543046650e+00 3.3673808077418997e+01 1.4239823569347383e+01
12936 1 1 4.5221875154847346e+00 3.3699548384412047e+01 1.4708102254078657e+01
3548 2 2 3.5817534606523798e+00 3.2863596665797914e+01 1.4847558633468026e+01
3547 1 1 3.7221179933460551e+00 3.2850403003628735e+01 1.4493344300743912e+01
448 1 1 3.7632360647987082e+00 3.2812041605746707e+01 1.4363485252363235e+01
12935 2 2 4.4819767951978280e+00 3.3682734467747608e+01 1.4295699606666194e+01
3549 1 1 3.5881857319411528e+00 3.2851181469764569e+01 1.5233650270478678e+01
17242 1 1 4.5054994522567622e+00 3.3700740313823005e+01 1.4886827411665214e+01
17243 2 2 4.4382411084379125e+00 3.3705963378777071e+01 1.5226992958848284e+01
18561 1 1 3.6238780602780345e+00 3.2878685544479914e+01 1.5373770063804216e+01
11724 1 1 3.4020809118374875e+00 3.3741723295740407e+01 1.4603115388357796e+01
19030 1 1 3.2526723482232001e+00 3.3868358499514855e+01 1.5568427736502326e+01
19032 1 1 3.3843544511368036e+00 3.3775018502003832e+01 1.4788698289856516e+01
17933 2 2 4.8651955594959277e+00 3.2842450525609316e+01 1.4799501509739329e+01
7984 1 1 4.8392591274547057e+00 3.2886460866850413e+01 1.5322047962616180e+01
17932 1 1 4.8573671694081142e+00 3.2899181252798073e+01 1.5182445018646833e+01
7057 1 1 4.9366120373435676e+00 3.2841286006584625e+01 1.4249737918160916e+01
17934 1 1 4.9407766705265725e+00 3.2862083458144113e+01 1.4402445744578044e+01
17174 3 3 5.6651354590701377e+00 3.3543022764034497e+01 1.4319858718693585e+01
16341 1 1 5.6732004931870987e+00 3.3629950238847144e+01 1.4870472219027540e+01
17173 1 1 5.6846443001795368e+00 3.3613646595319871e+01 1.4734335479065699e+01
16340 2 2 5.6095231460924504e+00 3.3673804620322798e+01 1.5307499966590845e+01
1163 2 2 7.5237156677684447e-01 3.2172249805936794e+01 1.5632270027567824e+01
4509 1 1 7.3722703597454453e-01 3.1270943759850990e+01 1.7100107916747746e+01
1164 1 1 7.5068340244961129e-01 3.2169085601120706e+01 1.6032894669411689e+01
10651 1 1 7.4775206113074366e-01 3.2182133871770290e+01 1.6199764561422263e+01
10652 3 3 7.2219616955532673e-01 3.2188378004526051e+01 1.6629599500443838e+01
10653 1 1 7.2505995260411327e-01 3.2224440772616290e+01 1.7018132032280512e+01
9768 1 1 7.3617399794929739e-01 3.2245466826401838e+01 1.7155034386086644e+01
4129 1 1 1.8890958258738968e+00 3.2012252070377144e+01 1.5682098962149910e+01
12716 2 2 2.4570474877026953e+00 3.1053976834089937e+01 1.5688859766059275e+01
12715 1 1 2.4453943891488126e+00 3.1122421940067262e+01 1.6081597778928021e+01
17845 1 1 2.4565689895671019e+00 3.1159724934707391e+01 1.6255733521557438e+01