ITEM: TIMESTEP
0
ITEM: NUMBER OF ATOMS
8724
ITEM: BOX BOUNDS pp pp pp
0.0000000000000000e+00 5.0000000000000000e+01
0.0000000000000000e+00 5.0000000000000000e+01
0.0000000000000000e+00 5.0000000000000000e+01
ITEM: ATOMS id type 
61 1 
62 3 
63 1 
70 1 
71 2 
72 1 
121 1 
122 2 
123 1 
184 1 
185 3 
186 1 
187 1 
188 2 
189 1 
241 1 
242 2 
243 1 
244 1 
245 2 
246 1 
304 1 
305 3 
306 1 
310 1 
311 2 
312 1 
364 1 
365 3 
366 1 
424 1 
425 3 
426 1 
490 1 
491 2 
492 1 
1144 1 
1145 3 
1146 1 
1147 1 
1148 3 
1149 1 
1150 1 
1151 2 
1152 1 
1201 1 
1202 3 
1203 1 
1321 1 
1322 2 
1323 1 
1324 1 
1325 2 
1326 1 
1330 1 
1331 2 
1332 1 
1381 1 
1382 2 
1383 1 
1390 1 
1391 3 
1392 1 
1441 1 
1442 2 
1443 1 
1450 1 
1451 3 
1452 1 
1504 1 
1505 2 
1506 1 
1570 1 
1571 2 
1572 1 
1621 1 
1622 2 
1623 1 
1624 1 
1625 2 
1626 1 
1630 1 
1631 2 
1632 1 
2221 1 
2222 3 
2223 1 
2284 1 
2285 2 
2286 1 
2290 1 
2291 3 
2292 1 
2341 1 
2342 2 
2343 1 
2344 1 
2345 2 
2346 1 
2347 1 
2348 3 
2349 1 
2350 1 
2351 2 
2352 1 
2401 1 
2402 3 
2403 1 
2467 1 
2468 3 
2469 1 
2521 1 
2522 2 
2523 1 
2584 1 
2585 3 
2586 1 
2587 1 
2588 3 
2589 1 
3184 1 
3185 3 
3186 1 
3187 1 
3188 3 
3189 1 
3247 1 
3248 2 
3249 1 
3304 1 
3305 3 
3306 1 
3307 1 
3308 2 
3309 1 
3361 1 
3362 2 
3363 1 
3364 1 
3365 3 
3366 1 
3370 1 
3371 3 
3372 1 
3427 1 
3428 2 
3429 1 
3430 1 
3431 3 
3432 1 
3541 1 
3542 3 
3543 1 
3544 1 
3545 3 
3546 1 
3601 1 
3602 3 
3603 1 
3604 1 
3605 2 
3606 1 
3607 1 
3608 3 
3609 1 
3661 1 
3662 3 
3663 1 
3670 1 
3671 3 
3672 1 
3727 1 
3728 2 
3729 1 
4321 1 
4322 3 
4323 1 
4387 1 
4388 3 
4389 1 
4444 1 
4445 3 
4446 1 
4504 1 
4505 3 
4506 1 
4567 1 
4568 2 
4569 1 
4630 1 
4631 3 
4632 1 
4690 1 
4691 2 
4692 1 
4747 1 
4748 3 
4749 1 
4801 1 
4802 2 
4803 1 
4804 1 
4805 3 
4806 1 
4810 1 
4811 3 
4812 1 
4861 1 
4862 3 
4863 1 
4864 1 
4865 2 
4866 1 
4867 1 
4868 3 
4869 1 
5461 1 
5462 2 
5463 1 
5467 1 
5468 2 
5469 1 
5470 1 
5471 2 
5472 1 
5524 1 
5525 3 
5526 1 
5527 1 
5528 2 
5529 1 
5530 1 
5531 2 
5532 1 
5581 1 
5582 2 
5583 1 
5644 1 
5645 3 
5646 1 
5647 1 
5648 3 
5649 1 
5650 1 
5651 3 
5652 1 
5701 1 
5702 2 
5703 1 
5707 1 
5708 2 
5709 1 
5761 1 
5762 3 
5763 1 
5764 1 
5765 2 
5766 1 
5767 1 
5768 3 
5769 1 
5827 1 
5828 2 
5829 1 
5890 1 
5891 2 
5892 1 
5950 1 
5951 3 
5952 1 
6004 1 
6005 2 
6006 1 
6007 1 
6008 3 
6009 1 
6664 1 
6665 2 
6666 1 
6721 1 
6722 3 
6723 1 
6724 1 
6725 3 
6726 1 
6727 1 
6728 2 
6729 1 
6730 1 
6731 3 
6732 1 
6784 1 
6785 3 
6786 1 
6844 1 
6845 3 
6846 1 
6847 1 
6848 3 
6849 1 
6850 1 
6851 3 
6852 1 
6901 1 
6902 2 
6903 1 
6904 1 
6905 2 
6906 1 
6907 1 
6908 2 
6909 1 
6961 1 
6962 3 
6963 1 
6970 1 
6971 2 
6972 1 
7030 1 
7031 2 
7032 1 
7087 1 
7088 3 
7089 1 
7141 1 
7142 3 
7143 1 
7147 1 
7148 3 
7149 1 
7150 1 
7151 2 
7152 1 
7201 1 
7202 2 
7203 1 
7210 1 
7211 3 
7212 1 
7801 1 
7802 3 
7803 1 
7807 1 
7808 3 
7809 1 
7921 1 
7922 2 
7923 1 
7987 1 
7988 3 
7989 1 
8041 1 
8042 2 
8043 1 
8047 1 
8048 3 
8049 1 
8101 1 
8102 3 
8103 1 
8107 1 
8108 2 
8109 1 
8224 1 
8225 3 
8226 1 
8227 1 
8228 3 
8229 1 
8230 1 
8231 2 
8232 1 
8284 1 
8285 2 
8286 1 
8287 1 
8288 2 
8289 1 
8881 1 
8882 3 
8883 1 
8884 1 
8885 3 
8886 1 
8887 1 
8888 2 
8889 1 
8941 1 
8942 3 
8943 1 
8947 1 
8948 3 
8949 1 
8950 1 
8951 3 
8952 1 
9061 1 
9062 3 
9063 1 
9070 1 
9071 2 
9072 1 
9124 1 
9125 3 
9126 1 
9130 1 
9131 3 
9132 1 
9181 1 
9182 2 
9183 1 
9187 1 
9188 2 
9189 1 
9190 1 
9191 3 
9192 1 
9241 1 
9242 2 
9243 1 
9244 1 
9245 2 
9246 1 
9247 1 
9248 3 
9249 1 
9301 1 
9302 3 
9303 1 
9307 1 
9308 3 
9309 1 
9310 1 
9311 2 
9312 1 
9961 1 
9962 3 
9963 1 
9964 1 
9965 2 
9966 1 
9967 1 
9968 2 
9969 1 
10021 1 
10022 3 
10023 1 
10081 1 
10082 3 
10083 1 
10087 1 
10088 3 
10089 1 
10090 1 
10091 3 
10092 1 
10144 1 
10145 2 
10146 1 
10327 1 
10328 3 
10329 1 
10387 1 
10388 2 
10389 1 
10390 1 
10391 3 
10392 1 
10441 1 
10442 2 
10443 1 
10447 1 
10448 2 
10449 1 
10501 1 
10502 3 
10503 1 
10504 1 
10505 3 
10506 1 
10507 1 
10508 3 
10509 1 
13 1 
14 2 
15 1 
19 1 
20 3 
21 1 
82 1 
83 2 
84 1 
133 1 
134 3 
135 1 
139 1 
140 3 
141 1 
199 1 
200 3 
201 1 
202 1 
203 3 
204 1 
253 1 
254 2 
255 1 
256 1 
257 2 
258 1 
259 1 
260 2 
261 1 
262 1 
263 2 
264 1 
319 1 
320 2 
321 1 
373 1 
374 3 
375 1 
379 1 
380 2 
381 1 
382 1 
383 2 
384 1 
433 1 
434 2 
435 1 
436 1 
437 3 
438 1 
442 1 
443 3 
444 1 
499 1 
500 3 
501 1 
1153 1 
1154 3 
1155 1 
1156 1 
1157 2 
1158 1 
1213 1 
1214 2 
1215 1 
1216 1 
1217 3 
1218 1 
1222 1 
1223 2 
1224 1 
1279 1 
1280 2 
1281 1 
1336 1 
1337 2 
1338 1 
1342 1 
1343 2 
1344 1 
1393 1 
1394 3 
1395 1 
1453 1 
1454 2 
1455 1 
1456 1 
1457 3 
1458 1 
1462 1 
1463 2 
1464 1 
1513 1 
1514 2 
1515 1 
1573 1 
1574 2 
1575 1 
1579 1 
1580 3 
1581 1 
1642 1 
1643 3 
1644 1 
2236 1 
2237 2 
2238 1 
2299 1 
2300 3 
2301 1 
2353 1 
2354 2 
2355 1 
2359 1 
2360 3 
2361 1 
2422 1 
2423 3 
2424 1 
2476 1 
2477 3 
2478 1 
2482 1 
2483 2 
2484 1 
2533 1 
2534 3 
2535 1 
2536 1 
2537 3 
2538 1 
2593 1 
2594 3 
2595 1 
2596 1 
2597 3 
2598 1 
2599 1 
2600 2 
2601 1 
3199 1 
3200 3 
3201 1 
3253 1 
3254 3 
3255 1 
3256 1 
3257 3 
3258 1 
3259 1 
3260 2 
3261 1 
3262 1 
3263 2 
3264 1 
3373 1 
3374 3 
3375 1 
3376 1 
3377 3 
3378 1 
3379 1 
3380 3 
3381 1 
3382 1 
3383 3 
3384 1 
3439 1 
3440 3 
3441 1 
3502 1 
3503 3 
3504 1 
3562 1 
3563 3 
3564 1 
3613 1 
3614 2 
3615 1 
3619 1 
3620 2 
3621 1 
3682 1 
3683 3 
3684 1 
3733 1 
3734 3 
3735 1 
3742 1 
3743 3 
3744 1 
4336 1 
4337 2 
4338 1 
4339 1 
4340 2 
4341 1 
4399 1 
4400 2 
4401 1 
4402 1 
4403 2 
4404 1 
4516 1 
4517 2 
4518 1 
4519 1 
4520 3 
4521 1 
4522 1 
4523 3 
4524 1 
4633 1 
4634 3 
4635 1 
4642 1 
4643 2 
4644 1 
4696 1 
4697 3 
4698 1 
4702 1 
4703 2 
4704 1 
4819 1 
4820 3 
4821 1 
4882 1 
4883 2 
4884 1 
5473 1 
5474 2 
5475 1 
5476 1 
5477 2 
5478 1 
5482 1 
5483 3 
5484 1 
5599 1 
5600 3 
5601 1 
5653 1 
5654 2 
5655 1 
5656 1 
5657 3 
5658 1 
5659 1 
5660 2 
5661 1 
5713 1 
5714 3 
5715 1 
5722 1 
5723 2 
5724 1 
5776 1 
5777 2 
5778 1 
5833 1 
5834 2 
5835 1 
5836 1 
5837 2 
5838 1 
5839 1 
5840 2 
5841 1 
5842 1 
5843 3 
5844 1 
5899 1 
5900 3 
5901 1 
5953 1 
5954 3 
5955 1 
5956 1 
5957 3 
5958 1 
5959 1 
5960 3 
5961 1 
6733 1 
6734 2 
6735 1 
6736 1 
6737 3 
6738 1 
6793 1 
6794 2 
6795 1 
6796 1 
6797 3 
6798 1 
6799 1 
6800 3 
6801 1 
6802 1 
6803 2 
6804 1 
6853 1 
6854 2 
6855 1 
6856 1 
6857 3 
6858 1 
6862 1 
6863 2 
6864 1 
6973 1 
6974 2 
6975 1 
6982 1 
6983 2 
6984 1 
7036 1 
7037 3 
7038 1 
7039 1 
7040 3 
7041 1 
7093 1 
7094 2 
7095 1 
7096 1 
7097 2 
7098 1 
7099 1 
7100 2 
7101 1 
7102 1 
7103 2 
7104 1 
7153 1 
7154 3 
7155 1 
7156 1 
7157 2 
7158 1 
7159 1 
7160 3 
7161 1 
7162 1 
7163 3 
7164 1 
7219 1 
7220 3 
7221 1 
7759 1 
7760 2 
7761 1 
7813 1 
7814 3 
7815 1 
7819 1 
7820 2 
7821 1 
7822 1 
7823 3 
7824 1 
7882 1 
7883 3 
7884 1 
7933 1 
7934 2 
7935 1 
7942 1 
7943 2 
7944 1 
7999 1 
8000 3 
8001 1 
8056 1 
8057 3 
8058 1 
8176 1 
8177 2 
8178 1 
8179 1 
8180 2 
8181 1 
8233 1 
8234 3 
8235 1 
8293 1 
8294 2 
8295 1 
8899 1 
8900 2 
8901 1 
8902 1 
8903 3 
8904 1 
8959 1 
8960 3 
8961 1 
9013 1 
9014 3 
9015 1 
9019 1 
9020 3 
9021 1 
9022 1 
9023 2 
9024 1 
9136 1 
9137 2 
9138 1 
9193 1 
9194 2 
9195 1 
9196 1 
9197 2 
9198 1 
9253 1 
9254 2 
9255 1 
9256 1 
9257 3 
9258 1 
9313 1 
9314 3 
9315 1 
9322 1 
9323 2 
9324 1 
9973 1 
9974 3 
9975 1 
9982 1 
9983 2 
9984 1 
10039 1 
10040 3 
10041 1 
10153 1 
10154 2 
10155 1 
10156 1 
10157 3 
10158 1 
10162 1 
10163 3 
10164 1 
10213 1 
10214 3 
10215 1 
10216 1 
10217 3 
10218 1 
10222 1 
10223 3 
10224 1 
10276 1 
10277 3 
10278 1 
10279 1 
10280 3 
10281 1 
10282 1 
10283 2 
10284 1 
10333 1 
10334 3 
10335 1 
10336 1 
10337 2 
10338 1 
10342 1 
10343 2 
10344 1 
10393 1 
10394 3 
10395 1 
10453 1 
10454 3 
10455 1 
10459 1 
10460 3 
10461 1 
10513 1 
10514 2 
10515 1 
10519 1 
10520 2 
10521 1 
25 1 
26 2 
27 1 
28 1 
29 2 
30 1 
34 1 
35 3 
36 1 
85 1 
86 2 
87 1 
88 1 
89 3 
90 1 
148 1 
149 3 
150 1 
205 1 
206 3 
207 1 
208 1 
209 3 
210 1 
211 1 
212 3 
213 1 
268 1 
269 2 
270 1 
271 1 
272 2 
273 1 
325 1 
326 2 
327 1 
385 1 
386 3 
387 1 
391 1 
392 3 
393 1 
445 1 
446 3 
447 1 
451 1 
452 3 
453 1 
454 1 
455 2 
456 1 
511 1 
512 2 
513 1 
1171 1 
1172 3 
1173 1 
1225 1 
1226 3 
1227 1 
1231 1 
1232 3 
1233 1 
1234 1 
1235 3 
1236 1 
1288 1 
1289 2 
1290 1 
1291 1 
1292 3 
1293 1 
1345 1 
1346 3 
1347 1 
1405 1 
1406 2 
1407 1 
1414 1 
1415 3 
1416 1 
1465 1 
1466 2 
1467 1 
1468 1 
1469 2 
1470 1 
1471 1 
1472 3 
1473 1 
1474 1 
1475 3 
1476 1 
1525 1 
1526 3 
1527 1 
1531 1 
1532 2 
1533 1 
1645 1 
1646 2 
1647 1 
1648 1 
1649 2 
1650 1 
1654 1 
1655 3 
1656 1 
2251 1 
2252 3 
2253 1 
2305 1 
2306 3 
2307 1 
2314 1 
2315 2 
2316 1 
2365 1 
2366 3 
2367 1 
2371 1 
2372 3 
2373 1 
2374 1 
2375 2 
2376 1 
2428 1 
2429 2 
2430 1 
2434 1 
2435 2 
2436 1 
2485 1 
2486 2 
2487 1 
2491 1 
2492 2 
2493 1 
2545 1 
2546 2 
2547 1 
2548 1 
2549 2 
2550 1 
2551 1 
2552 3 
2553 1 
2611 1 
2612 2 
2613 1 
3214 1 
3215 3 
3216 1 
3274 1 
3275 3 
3276 1 
3325 1 
3326 3 
3327 1 
3448 1 
3449 2 
3450 1 
3454 1 
3455 2 
3456 1 
3505 1 
3506 3 
3507 1 
3514 1 
3515 2 
3516 1 
3568 1 
3569 2 
3570 1 
3628 1 
3629 2 
3630 1 
3631 1 
3632 2 
3633 1 
3634 1 
3635 2 
3636 1 
3685 1 
3686 3 
3687 1 
3748 1 
3749 3 
3750 1 
3751 1 
3752 3 
3753 1 
4345 1 
4346 2 
4347 1 
4354 1 
4355 2 
4356 1 
4405 1 
4406 2 
4407 1 
4414 1 
4415 3 
4416 1 
4465 1 
4466 3 
4467 1 
4468 1 
4469 2 
4470 1 
4474 1 
4475 2 
4476 1 
4528 1 
4529 2 
4530 1 
4531 1 
4532 3 
4533 1 
4534 1 
4535 2 
4536 1 
4651 1 
4652 3 
4653 1 
4714 1 
4715 2 
4716 1 
4765 1 
4766 3 
4767 1 
4768 1 
4769 2 
4770 1 
4828 1 
4829 3 
4830 1 
4885 1 
4886 3 
4887 1 
4891 1 
4892 2 
4893 1 
5488 1 
5489 2 
5490 1 
5491 1 
5492 2 
5493 1 
5548 1 
5549 3 
5550 1 
5554 1 
5555 3 
5556 1 
5608 1 
5609 2 
5610 1 
5611 1 
5612 3 
5613 1 
5668 1 
5669 2 
5670 1 
5725 1 
5726 2 
5727 1 
5731 1 
5732 2 
5733 1 
5785 1 
5786 3 
5787 1 
5788 1 
5789 3 
5790 1 
5791 1 
5792 3 
5793 1 
5794 1 
5795 3 
5796 1 
5851 1 
5852 2 
5853 1 
5914 1 
5915 2 
5916 1 
6028 1 
6029 3 
6030 1 
6688 1 
6689 3 
6690 1 
6694 1 
6695 3 
6696 1 
6748 1 
6749 2 
6750 1 
6874 1 
6875 3 
6876 1 
6931 1 
6932 2 
6933 1 
6934 1 
6935 3 
6936 1 
6994 1 
6995 2 
6996 1 
7048 1 
7049 2 
7050 1 
7054 1 
7055 3 
7056 1 
7114 1 
7115 2 
7116 1 
7768 1 
7769 2 
7770 1 
7774 1 
7775 2 
7776 1 
7825 1 
7826 2 
7827 1 
7828 1 
7829 2 
7830 1 
7831 1 
7832 2 
7833 1 
7945 1 
7946 2 
7947 1 
8008 1 
8009 3 
8010 1 
8014 1 
8015 3 
8016 1 
8065 1 
8066 2 
8067 1 
8068 1 
8069 3 
8070 1 
8125 1 
8126 3 
8127 1 
8131 1 
8132 3 
8133 1 
8134 1 
8135 3 
8136 1 
8188 1 
8189 3 
8190 1 
8191 1 
8192 2 
8193 1 
8311 1 
8312 3 
8313 1 
8314 1 
8315 2 
8316 1 
8911 1 
8912 3 
8913 1 
8914 1 
8915 3 
8916 1 
8974 1 
8975 3 
8976 1 
9028 1 
9029 3 
9030 1 
9031 1 
9032 2 
9033 1 
9151 1 
9152 3 
9153 1 
9154 1 
9155 3 
9156 1 
9211 1 
9212 2 
9213 1 
9214 1 
9215 2 
9216 1 
9268 1 
9269 2 
9270 1 
9274 1 
9275 2 
9276 1 
9991 1 
9992 2 
9993 1 
9994 1 
9995 2 
9996 1 
10045 1 
10046 3 
10047 1 
10048 1 
10049 2 
10050 1 
10054 1 
10055 2 
10056 1 
10111 1 
10112 2 
10113 1 
10171 1 
10172 3 
10173 1 
10225 1 
10226 3 
10227 1 
10231 1 
10232 2 
10233 1 
10234 1 
10235 3 
10236 1 
10354 1 
10355 3 
10356 1 
10471 1 
10472 2 
10473 1 
10525 1 
10526 3 
10527 1 
10528 1 
10529 2 
10530 1 
43 1 
44 2 
45 1 
97 1 
98 3 
99 1 
100 1 
101 2 
102 1 
157 1 
158 2 
159 1 
217 1 
218 3 
219 1 
223 1 
224 2 
225 1 
277 1 
278 3 
279 1 
280 1 
281 2 
282 1 
400 1 
401 2 
402 1 
406 1 
407 3 
408 1 
463 1 
464 3 
465 1 
466 1 
467 3 
468 1 
523 1 
524 2 
525 1 
1177 1 
1178 3 
1179 1 
1180 1 
1181 2 
1182 1 
1186 1 
1187 3 
1188 1 
1240 1 
1241 2 
1242 1 
1246 1 
1247 2 
1248 1 
1297 1 
1298 2 
1299 1 
1300 1 
1301 2 
1302 1 
1360 1 
1361 3 
1362 1 
1420 1 
1421 3 
1422 1 
1480 1 
1481 3 
1482 1 
1483 1 
1484 3 
1485 1 
1486 1 
1487 2 
1488 1 
1537 1 
1538 3 
1539 1 
1546 1 
1547 3 
1548 1 
1600 1 
1601 3 
1602 1 
1657 1 
1658 3 
1659 1 
1660 1 
1661 2 
1662 1 
1666 1 
1667 3 
1668 1 
2263 1 
2264 3 
2265 1 
2266 1 
2267 2 
2268 1 
2320 1 
2321 3 
2322 1 
2326 1 
2327 3 
2328 1 
2380 1 
2381 2 
2382 1 
2386 1 
2387 3 
2388 1 
2443 1 
2444 2 
2445 1 
2497 1 
2498 3 
2499 1 
2500 1 
2501 3 
2502 1 
2503 1 
2504 2 
2505 1 
2506 1 
2507 3 
2508 1 
2566 1 
2567 2 
2568 1 
2623 1 
2624 3 
2625 1 
3220 1 
3221 3 
3222 1 
3223 1 
3224 3 
3225 1 
3337 1 
3338 3 
3339 1 
3343 1 
3344 2 
3345 1 
3346 1 
3347 2 
3348 1 
3400 1 
3401 3 
3402 1 
3406 1 
3407 3 
3408 1 
3457 1 
3458 2 
3459 1 
3517 1 
3518 3 
3519 1 
3520 1 
3521 2 
3522 1 
3523 1 
3524 3 
3525 1 
3526 1 
3527 3 
3528 1 
3580 1 
3581 2 
3582 1 
3586 1 
3587 3 
3588 1 
3640 1 
3641 2 
3642 1 
3643 1 
3644 2 
3645 1 
3646 1 
3647 3 
3648 1 
3697 1 
3698 2 
3699 1 
3703 1 
3704 3 
3705 1 
3757 1 
3758 2 
3759 1 
3760 1 
3761 3 
3762 1 
3763 1 
3764 2 
3765 1 
4357 1 
4358 3 
4359 1 
4360 1 
4361 3 
4362 1 
4417 1 
4418 3 
4419 1 
4477 1 
4478 2 
4479 1 
4483 1 
4484 2 
4485 1 
4543 1 
4544 2 
4545 1 
4546 1 
4547 2 
4548 1 
4666 1 
4667 2 
4668 1 
4780 1 
4781 3 
4782 1 
4783 1 
4784 3 
4785 1 
4900 1 
4901 3 
4902 1 
4906 1 
4907 3 
4908 1 
5497 1 
5498 2 
5499 1 
5500 1 
5501 2 
5502 1 
5503 1 
5504 3 
5505 1 
5566 1 
5567 2 
5568 1 
5620 1 
5621 2 
5622 1 
5623 1 
5624 2 
5625 1 
5626 1 
5627 2 
5628 1 
5677 1 
5678 3 
5679 1 
5683 1 
5684 3 
5685 1 
5686 1 
5687 3 
5688 1 
5746 1 
5747 2 
5748 1 
5803 1 
5804 3 
5805 1 
5860 1 
5861 2 
5862 1 
5866 1 
5867 3 
5868 1 
5923 1 
5924 3 
5925 1 
5977 1 
5978 3 
5979 1 
6037 1 
6038 3 
6039 1 
6040 1 
6041 3 
6042 1 
6700 1 
6701 3 
6702 1 
6706 1 
6707 2 
6708 1 
6757 1 
6758 3 
6759 1 
6763 1 
6764 3 
6765 1 
6823 1 
6824 3 
6825 1 
6880 1 
6881 3 
6882 1 
6883 1 
6884 3 
6885 1 
6946 1 
6947 3 
6948 1 
7063 1 
7064 2 
7065 1 
7123 1 
7124 2 
7125 1 
7126 1 
7127 3 
7128 1 
7177 1 
7178 3 
7179 1 
7180 1 
7181 2 
7182 1 
7183 1 
7184 3 
7185 1 
7246 1 
7247 3 
7248 1 
7777 1 
7778 3 
7779 1 
7786 1 
7787 2 
7788 1 
7840 1 
7841 2 
7842 1 
7843 1 
7844 3 
7845 1 
7903 1 
7904 3 
7905 1 
7906 1 
7907 3 
7908 1 
7960 1 
7961 3 
7962 1 
7963 1 
7964 3 
7965 1 
7966 1 
7967 2 
7968 1 
8026 1 
8027 3 
8028 1 
8080 1 
8081 3 
8082 1 
8083 1 
8084 2 
8085 1 
8086 1 
8087 2 
8088 1 
8140 1 
8141 3 
8142 1 
8146 1 
8147 3 
8148 1 
8203 1 
8204 3 
8205 1 
8323 1 
8324 3 
8325 1 
8917 1 
8918 3 
8919 1 
8920 1 
8921 3 
8922 1 
9037 1 
9038 3 
9039 1 
9040 1 
9041 2 
9042 1 
9043 1 
9044 2 
9045 1 
9097 1 
9098 2 
9099 1 
9103 1 
9104 3 
9105 1 
9223 1 
9224 3 
9225 1 
9226 1 
9227 3 
9228 1 
9280 1 
9281 3 
9282 1 
9337 1 
9338 3 
9339 1 
9343 1 
9344 2 
9345 1 
10006 1 
10007 3 
10008 1 
10057 1 
10058 2 
10059 1 
10063 1 
10064 3 
10065 1 
10066 1 
10067 3 
10068 1 
10117 1 
10118 2 
10119 1 
10123 1 
10124 3 
10125 1 
10177 1 
10178 2 
10179 1 
10186 1 
10187 2 
10188 1 
10237 1 
10238 2 
10239 1 
10297 1 
10298 3 
10299 1 
10300 1 
10301 3 
10302 1 
10303 1 
10304 2 
10305 1 
10357 1 
10358 2 
10359 1 
10426 1 
10427 2 
10428 1 
10477 1 
10478 2 
10479 1 
10480 1 
10481 2 
10482 1 
10486 1 
10487 3 
10488 1 
52 1 
53 2 
54 1 
55 1 
56 2 
57 1 
58 1 
59 3 
60 1 
118 1 
119 3 
120 1 
175 1 
176 3 
177 1 
229 1 
230 2 
231 1 
235 1 
236 2 
237 1 
292 1 
293 3 
294 1 
295 1 
296 2 
297 1 
298 1 
299 3 
300 1 
355 1 
356 2 
357 1 
412 1 
413 2 
414 1 
418 1 
419 2 
420 1 
478 1 
479 2 
480 1 
535 1 
536 3 
537 1 
1189 1 
1190 3 
1191 1 
1192 1 
1193 3 
1194 1 
1195 1 
1196 3 
1197 1 
1198 1 
1199 2 
1200 1 
1255 1 
1256 2 
1257 1 
1258 1 
1259 2 
1260 1 
1315 1 
1316 2 
1317 1 
1369 1 
1370 3 
1371 1 
1372 1 
1373 2 
1374 1 
1492 1 
1493 2 
1494 1 
1495 1 
1496 2 
1497 1 
1552 1 
1553 3 
1554 1 
1555 1 
1556 3 
1557 1 
1609 1 
1610 2 
1611 1 
1615 1 
1616 3 
1617 1 
1669 1 
1670 2 
1671 1 
1678 1 
1679 2 
1680 1 
2269 1 
2270 3 
2271 1 
2275 1 
2276 2 
2277 1 
2278 1 
2279 2 
2280 1 
2335 1 
2336 3 
2337 1 
2389 1 
2390 2 
2391 1 
2392 1 
2393 3 
2394 1 
2452 1 
2453 2 
2454 1 
2455 1 
2456 3 
2457 1 
2515 1 
2516 2 
2517 1 
2518 1 
2519 3 
2520 1 
2632 1 
2633 3 
2634 1 
2638 1 
2639 2 
2640 1 
3232 1 
3233 2 
3234 1 
3295 1 
3296 2 
3297 1 
3352 1 
3353 3 
3354 1 
3355 1 
3356 2 
3357 1 
3415 1 
3416 3 
3417 1 
3418 1 
3419 3 
3420 1 
3469 1 
3470 3 
3471 1 
3472 1 
3473 3 
3474 1 
3478 1 
3479 3 
3480 1 
3532 1 
3533 3 
3534 1 
3535 1 
3536 3 
3537 1 
3538 1 
3539 3 
3540 1 
3598 1 
3599 3 
3600 1 
3655 1 
3656 2 
3657 1 
3658 1 
3659 3 
3660 1 
4369 1 
4370 2 
4371 1 
4435 1 
4436 3 
4437 1 
4438 1 
4439 3 
4440 1 
4492 1 
4493 2 
4494 1 
4495 1 
4496 2 
4497 1 
4498 1 
4499 2 
4500 1 
4549 1 
4550 2 
4551 1 
4552 1 
4553 3 
4554 1 
4555 1 
4556 2 
4557 1 
4558 1 
4559 3 
4560 1 
4615 1 
4616 3 
4617 1 
4618 1 
4619 2 
4620 1 
4669 1 
4670 2 
4671 1 
4672 1 
4673 2 
4674 1 
4789 1 
4790 2 
4791 1 
4849 1 
4850 2 
4851 1 
4852 1 
4853 2 
4854 1 
4855 1 
4856 3 
4857 1 
4909 1 
4910 2 
4911 1 
5512 1 
5513 3 
5514 1 
5569 1 
5570 2 
5571 1 
5572 1 
5573 3 
5574 1 
5575 1 
5576 3 
5577 1 
5578 1 
5579 2 
5580 1 
5635 1 
5636 2 
5637 1 
5638 1 
5639 2 
5640 1 
5695 1 
5696 2 
5697 1 
5749 1 
5750 3 
5751 1 
5752 1 
5753 2 
5754 1 
5758 1 
5759 3 
5760 1 
5809 1 
5810 2 
5811 1 
5815 1 
5816 2 
5817 1 
5818 1 
5819 2 
5820 1 
5872 1 
5873 2 
5874 1 
5938 1 
5939 2 
5940 1 
5989 1 
5990 2 
5991 1 
5992 1 
5993 2 
5994 1 
6052 1 
6053 2 
6054 1 
6055 1 
6056 3 
6057 1 
6718 1 
6719 3 
6720 1 
6772 1 
6773 2 
6774 1 
6889 1 
6890 3 
6891 1 
6949 1 
6950 3 
6951 1 
7015 1 
7016 2 
7017 1 
7018 1 
7019 2 
7020 1 
7072 1 
7073 2 
7074 1 
7129 1 
7130 3 
7131 1 
7135 1 
7136 2 
7137 1 
7138 1 
7139 3 
7140 1 
7189 1 
7190 2 
7191 1 
7198 1 
7199 2 
7200 1 
7252 1 
7253 3 
7254 1 
7255 1 
7256 2 
7257 1 
7792 1 
7793 2 
7794 1 
7798 1 
7799 2 
7800 1 
7849 1 
7850 2 
7851 1 
7912 1 
7913 3 
7914 1 
7969 1 
7970 3 
7971 1 
7972 1 
7973 2 
7974 1 
8029 1 
8030 3 
8031 1 
8035 1 
8036 2 
8037 1 
8089 1 
8090 3 
8091 1 
8092 1 
8093 2 
8094 1 
8098 1 
8099 3 
8100 1 
8152 1 
8153 2 
8154 1 
8155 1 
8156 3 
8157 1 
8209 1 
8210 2 
8211 1 
8269 1 
8270 2 
8271 1 
8272 1 
8273 2 
8274 1 
8275 1 
8276 3 
8277 1 
8278 1 
8279 3 
8280 1 
8329 1 
8330 2 
8331 1 
8332 1 
8333 2 
8334 1 
8335 1 
8336 2 
8337 1 
8338 1 
8339 3 
8340 1 
8932 1 
8933 3 
8934 1 
8935 1 
8936 3 
8937 1 
8938 1 
8939 2 
8940 1 
8992 1 
8993 3 
8994 1 
9052 1 
9053 2 
9054 1 
9055 1 
9056 2 
9057 1 
9058 1 
9059 3 
9060 1 
9112 1 
9113 3 
9114 1 
9229 1 
9230 2 
9231 1 
9232 1 
9233 3 
9234 1 
9235 1 
9236 2 
9237 1 
9292 1 
9293 2 
9294 1 
9349 1 
9350 2 
9351 1 
9352 1 
9353 3 
9354 1 
10129 1 
10130 2 
10131 1 
10132 1 
10133 3 
10134 1 
10135 1 
10136 2 
10137 1 
10198 1 
10199 3 
10200 1 
10315 1 
10316 2 
10317 1 
10318 1 
10319 2 
10320 1 
10369 1 
10370 2 
10371 1 
10489 1 
10490 3 
10491 1 
10492 1 
10493 3 
10494 1 
10495 1 
10496 2 
10497 1 
10498 1 
10499 3 
10500 1 
10549 1 
10550 3 
10551 1 
10558 1 
10559 2 
10560 1 
544 1 
545 3 
546 1 
601 1 
602 2 
603 1 
664 1 
665 3 
666 1 
721 1 
722 2 
723 1 
724 1 
725 2 
726 1 
727 1 
728 3 
729 1 
730 1 
731 3 
732 1 
784 1 
785 3 
786 1 
787 1 
788 3 
789 1 
904 1 
905 2 
906 1 
907 1 
908 3 
909 1 
964 1 
965 3 
966 1 
970 1 
971 2 
972 1 
1024 1 
1025 2 
1026 1 
1030 1 
1031 3 
1032 1 
1084 1 
1085 3 
1086 1 
1087 1 
1088 3 
1089 1 
1090 1 
1091 3 
1092 1 
1681 1 
1682 3 
1683 1 
1744 1 
1745 3 
1746 1 
1750 1 
1751 2 
1752 1 
1804 1 
1805 3 
1806 1 
1807 1 
1808 3 
1809 1 
1810 1 
1811 2 
1812 1 
1864 1 
1865 2 
1866 1 
1870 1 
1871 2 
1872 1 
1924 1 
1925 2 
1926 1 
1927 1 
1928 2 
1929 1 
1981 1 
1982 3 
1983 1 
2104 1 
2105 3 
2106 1 
2107 1 
2108 3 
2109 1 
2110 1 
2111 3 
2112 1 
2647 1 
2648 3 
2649 1 
2704 1 
2705 3 
2706 1 
2707 1 
2708 3 
2709 1 
2761 1 
2762 2 
2763 1 
2770 1 
2771 2 
2772 1 
2830 1 
2831 3 
2832 1 
2884 1 
2885 2 
2886 1 
2887 1 
2888 2 
2889 1 
2890 1 
2891 3 
2892 1 
2941 1 
2942 2 
2943 1 
2950 1 
2951 3 
2952 1 
3004 1 
3005 3 
3006 1 
3070 1 
3071 3 
3072 1 
3121 1 
3122 3 
3123 1 
3127 1 
3128 3 
3129 1 
3130 1 
3131 3 
3132 1 
3787 1 
3788 2 
3789 1 
3790 1 
3791 2 
3792 1 
3904 1 
3905 2 
3906 1 
3964 1 
3965 3 
3966 1 
3970 1 
3971 3 
3972 1 
4021 1 
4022 2 
4023 1 
4024 1 
4025 3 
4026 1 
4027 1 
4028 2 
4029 1 
4090 1 
4091 3 
4092 1 
4141 1 
4142 3 
4143 1 
4144 1 
4145 2 
4146 1 
4147 1 
4148 3 
4149 1 
4201 1 
4202 2 
4203 1 
4204 1 
4205 2 
4206 1 
4207 1 
4208 3 
4209 1 
4210 1 
4211 2 
4212 1 
4270 1 
4271 3 
4272 1 
4924 1 
4925 2 
4926 1 
4927 1 
4928 2 
4929 1 
4981 1 
4982 2 
4983 1 
4987 1 
4988 2 
4989 1 
4990 1 
4991 3 
4992 1 
5164 1 
5165 2 
5166 1 
5167 1 
5168 2 
5169 1 
5170 1 
5171 2 
5172 1 
5287 1 
5288 3 
5289 1 
5290 1 
5291 2 
5292 1 
5410 1 
5411 2 
5412 1 
6061 1 
6062 3 
6063 1 
6070 1 
6071 3 
6072 1 
6121 1 
6122 3 
6123 1 
6187 1 
6188 3 
6189 1 
6241 1 
6242 3 
6243 1 
6244 1 
6245 3 
6246 1 
6247 1 
6248 3 
6249 1 
6301 1 
6302 3 
6303 1 
6304 1 
6305 3 
6306 1 
6424 1 
6425 2 
6426 1 
6481 1 
6482 3 
6483 1 
6484 1 
6485 3 
6486 1 
6490 1 
6491 2 
6492 1 
6544 1 
6545 3 
6546 1 
7261 1 
7262 2 
7263 1 
7321 1 
7322 3 
7323 1 
7324 1 
7325 2 
7326 1 
7330 1 
7331 3 
7332 1 
7381 1 
7382 3 
7383 1 
7441 1 
7442 3 
7443 1 
7501 1 
7502 3 
7503 1 
7504 1 
7505 2 
7506 1 
7507 1 
7508 3 
7509 1 
7510 1 
7511 2 
7512 1 
7564 1 
7565 2 
7566 1 
7567 1 
7568 2 
7569 1 
7624 1 
7625 3 
7626 1 
7684 1 
7685 3 
7686 1 
7687 1 
7688 3 
7689 1 
7690 1 
7691 3 
7692 1 
8341 1 
8342 3 
8343 1 
8347 1 
8348 3 
8349 1 
8401 1 
8402 2 
8403 1 
8404 1 
8405 2 
8406 1 
8407 1 
8408 2 
8409 1 
8467 1 
8468 3 
8469 1 
8527 1 
8528 3 
8529 1 
8530 1 
8531 3 
8532 1 
8584 1 
8585 2 
8586 1 
8647 1 
8648 2 
8649 1 
8707 1 
8708 3 
8709 1 
8824 1 
8825 2 
8826 1 
8830 1 
8831 3 
8832 1 
9367 1 
9368 2 
9369 1 
9370 1 
9371 3 
9372 1 
9481 1 
9482 3 
9483 1 
9484 1 
9485 3 
9486 1 
9490 1 
9491 2 
9492 1 
9544 1 
9545 2 
9546 1 
9550 1 
9551 3 
9552 1 
9667 1 
9668 3 
9669 1 
9784 1 
9785 2 
9786 1 
9841 1 
9842 3 
9843 1 
9844 1 
9845 2 
9846 1 
9847 1 
9848 2 
9849 1 
9901 1 
9902 2 
9903 1 
9904 1 
9905 2 
9906 1 
9907 1 
9908 3 
9909 1 
10564 1 
10565 2 
10566 1 
10621 1 
10622 2 
10623 1 
10624 1 
10625 2 
10626 1 
10687 1 
10688 3 
10689 1 
10744 1 
10745 3 
10746 1 
10801 1 
10802 2 
10803 1 
10807 1 
10808 2 
10809 1 
10867 1 
10868 3 
10869 1 
10870 1 
10871 3 
10872 1 
10924 1 
10925 2 
10926 1 
10981 1 
10982 3 
10983 1 
10984 1 
10985 2 
10986 1 
11044 1 
11045 3 
11046 1 
562 1 
563 3 
564 1 
613 1 
614 2 
615 1 
616 1 
617 3 
618 1 
622 1 
623 2 
624 1 
679 1 
680 3 
681 1 
802 1 
803 3 
804 1 
859 1 
860 2 
861 1 
916 1 
917 2 
918 1 
1096 1 
1097 2 
1098 1 
1099 1 
1100 3 
1101 1 
1102 1 
1103 2 
1104 1 
1762 1 
1763 2 
1764 1 
1813 1 
1814 2 
1815 1 
1816 1 
1817 3 
1818 1 
1819 1 
1820 2 
1821 1 
1873 1 
1874 3 
1875 1 
1876 1 
1877 2 
1878 1 
1882 1 
1883 3 
1884 1 
1933 1 
1934 3 
1935 1 
1942 1 
1943 2 
1944 1 
2062 1 
2063 2 
2064 1 
2116 1 
2117 3 
2118 1 
2173 1 
2174 3 
2175 1 
2176 1 
2177 3 
2178 1 
2182 1 
2183 3 
2184 1 
2776 1 
2777 2 
2778 1 
2779 1 
2780 3 
2781 1 
2833 1 
2834 2 
2835 1 
2839 1 
2840 2 
2841 1 
2842 1 
2843 3 
2844 1 
2893 1 
2894 3 
2895 1 
2899 1 
2900 2 
2901 1 
2902 1 
2903 3 
2904 1 
2953 1 
2954 3 
2955 1 
2956 1 
2957 3 
2958 1 
3016 1 
3017 2 
3018 1 
3076 1 
3077 2 
3078 1 
3082 1 
3083 3 
3084 1 
3133 1 
3134 2 
3135 1 
3139 1 
3140 3 
3141 1 
3793 1 
3794 2 
3795 1 
3799 1 
3800 3 
3801 1 
3853 1 
3854 2 
3855 1 
3862 1 
3863 3 
3864 1 
3916 1 
3917 2 
3918 1 
3922 1 
3923 2 
3924 1 
3973 1 
3974 3 
3975 1 
3976 1 
3977 3 
3978 1 
4033 1 
4034 2 
4035 1 
4042 1 
4043 3 
4044 1 
4093 1 
4094 2 
4095 1 
4099 1 
4100 3 
4101 1 
4156 1 
4157 3 
4158 1 
4159 1 
4160 2 
4161 1 
4162 1 
4163 2 
4164 1 
4282 1 
4283 3 
4284 1 
4993 1 
4994 3 
4995 1 
5056 1 
5057 3 
5058 1 
5062 1 
5063 3 
5064 1 
5113 1 
5114 3 
5115 1 
5116 1 
5117 2 
5118 1 
5233 1 
5234 3 
5235 1 
5239 1 
5240 3 
5241 1 
5242 1 
5243 2 
5244 1 
5293 1 
5294 3 
5295 1 
5299 1 
5300 3 
5301 1 
5302 1 
5303 3 
5304 1 
5413 1 
5414 3 
5415 1 
5419 1 
5420 3 
5421 1 
6076 1 
6077 2 
6078 1 
6136 1 
6137 3 
6138 1 
6142 1 
6143 3 
6144 1 
6193 1 
6194 2 
6195 1 
6199 1 
6200 3 
6201 1 
6256 1 
6257 2 
6258 1 
6262 1 
6263 3 
6264 1 
6313 1 
6314 2 
6315 1 
6319 1 
6320 2 
6321 1 
6373 1 
6374 2 
6375 1 
6382 1 
6383 2 
6384 1 
6493 1 
6494 3 
6495 1 
6616 1 
6617 2 
6618 1 
6622 1 
6623 3 
6624 1 
7276 1 
7277 3 
7278 1 
7336 1 
7337 3 
7338 1 
7339 1 
7340 3 
7341 1 
7342 1 
7343 3 
7344 1 
7399 1 
7400 2 
7401 1 
7462 1 
7463 2 
7464 1 
7513 1 
7514 2 
7515 1 
7582 1 
7583 2 
7584 1 
7633 1 
7634 3 
7635 1 
7636 1 
7637 3 
7638 1 
7642 1 
7643 2 
7644 1 
7693 1 
7694 3 
7695 1 
7696 1 
7697 3 
7698 1 
8356 1 
8357 2 
8358 1 
8359 1 
8360 2 
8361 1 
8413 1 
8414 2 
8415 1 
8476 1 
8477 3 
8478 1 
8479 1 
8480 3 
8481 1 
8482 1 
8483 3 
8484 1 
8533 1 
8534 3 
8535 1 
8539 1 
8540 2 
8541 1 
8599 1 
8600 3 
8601 1 
8656 1 
8657 2 
8658 1 
8713 1 
8714 2 
8715 1 
8716 1 
8717 2 
8718 1 
8776 1 
8777 3 
8778 1 
8833 1 
8834 3 
8835 1 
9376 1 
9377 3 
9378 1 
9379 1 
9380 3 
9381 1 
9382 1 
9383 2 
9384 1 
9433 1 
9434 2 
9435 1 
9436 1 
9437 3 
9438 1 
9439 1 
9440 2 
9441 1 
9496 1 
9497 2 
9498 1 
9553 1 
9554 3 
9555 1 
9556 1 
9557 3 
9558 1 
9622 1 
9623 3 
9624 1 
9673 1 
9674 3 
9675 1 
9733 1 
9734 2 
9735 1 
9739 1 
9740 3 
9741 1 
9793 1 
9794 3 
9795 1 
9799 1 
9800 3 
9801 1 
9802 1 
9803 2 
9804 1 
9913 1 
9914 2 
9915 1 
10576 1 
10577 3 
10578 1 
10636 1 
10637 3 
10638 1 
10693 1 
10694 3 
10695 1 
10702 1 
10703 3 
10704 1 
10753 1 
10754 2 
10755 1 
10756 1 
10757 3 
10758 1 
10759 1 
10760 3 
10761 1 
10762 1 
10763 2 
10764 1 
10822 1 
10823 3 
10824 1 
10879 1 
10880 2 
10881 1 
10999 1 
11000 3 
11001 1 
11053 1 
11054 2 
11055 1 
11056 1 
11057 3 
11058 1 
11059 1 
11060 2 
11061 1 
11062 1 
11063 3 
11064 1 
565 1 
566 2 
567 1 
571 1 
572 2 
573 1 
574 1 
575 3 
576 1 
625 1 
626 2 
627 1 
634 1 
635 2 
636 1 
688 1 
689 3 
690 1 
694 1 
695 3 
696 1 
745 1 
746 2 
747 1 
805 1 
806 2 
807 1 
808 1 
809 3 
810 1 
814 1 
815 2 
816 1 
865 1 
866 2 
867 1 
868 1 
869 2 
870 1 
871 1 
872 2 
873 1 
874 1 
875 3 
876 1 
928 1 
929 3 
930 1 
931 1 
932 2 
933 1 
985 1 
986 2 
987 1 
994 1 
995 3 
996 1 
1045 1 
1046 2 
1047 1 
1105 1 
1106 3 
1107 1 
1111 1 
1112 2 
1113 1 
1114 1 
1115 3 
1116 1 
1765 1 
1766 3 
1767 1 
1771 1 
1772 2 
1773 1 
1774 1 
1775 2 
1776 1 
1825 1 
1826 3 
1827 1 
1888 1 
1889 2 
1890 1 
1894 1 
1895 3 
1896 1 
1951 1 
1952 3 
1953 1 
2005 1 
2006 2 
2007 1 
2008 1 
2009 3 
2010 1 
2011 1 
2012 3 
2013 1 
2014 1 
2015 3 
2016 1 
2065 1 
2066 2 
2067 1 
2074 1 
2075 2 
2076 1 
2131 1 
2132 3 
2133 1 
2665 1 
2666 3 
2667 1 
2668 1 
2669 2 
2670 1 
2671 1 
2672 3 
2673 1 
2734 1 
2735 2 
2736 1 
2794 1 
2795 3 
2796 1 
2845 1 
2846 2 
2847 1 
2905 1 
2906 3 
2907 1 
2965 1 
2966 3 
2967 1 
2974 1 
2975 3 
2976 1 
3034 1 
3035 2 
3036 1 
3091 1 
3092 3 
3093 1 
3145 1 
3146 3 
3147 1 
3151 1 
3152 2 
3153 1 
3808 1 
3809 3 
3810 1 
3868 1 
3869 2 
3870 1 
3925 1 
3926 3 
3927 1 
3931 1 
3932 3 
3933 1 
3985 1 
3986 3 
3987 1 
3988 1 
3989 3 
3990 1 
3994 1 
3995 3 
3996 1 
4045 1 
4046 3 
4047 1 
4051 1 
4052 2 
4053 1 
4054 1 
4055 3 
4056 1 
4108 1 
4109 2 
4110 1 
4114 1 
4115 2 
4116 1 
4171 1 
4172 3 
4173 1 
4174 1 
4175 2 
4176 1 
4225 1 
4226 3 
4227 1 
4228 1 
4229 3 
4230 1 
4231 1 
4232 3 
4233 1 
4234 1 
4235 2 
4236 1 
4288 1 
4289 2 
4290 1 
4294 1 
4295 2 
4296 1 
4948 1 
4949 3 
4950 1 
4954 1 
4955 3 
4956 1 
5011 1 
5012 3 
5013 1 
5071 1 
5072 3 
5073 1 
5125 1 
5126 3 
5127 1 
5134 1 
5135 2 
5136 1 
5188 1 
5189 2 
5190 1 
5191 1 
5192 2 
5193 1 
5245 1 
5246 2 
5247 1 
5254 1 
5255 2 
5256 1 
5305 1 
5306 2 
5307 1 
5311 1 
5312 3 
5313 1 
5374 1 
5375 2 
5376 1 
5428 1 
5429 2 
5430 1 
6085 1 
6086 2 
6087 1 
6205 1 
6206 2 
6207 1 
6208 1 
6209 3 
6210 1 
6274 1 
6275 2 
6276 1 
6325 1 
6326 3 
6327 1 
6328 1 
6329 3 
6330 1 
6331 1 
6332 3 
6333 1 
6385 1 
6386 2 
6387 1 
6451 1 
6452 3 
6453 1 
6565 1 
6566 3 
6567 1 
6568 1 
6569 2 
6570 1 
6571 1 
6572 3 
6573 1 
6628 1 
6629 2 
6630 1 
7294 1 
7295 2 
7296 1 
7345 1 
7346 3 
7347 1 
7348 1 
7349 3 
7350 1 
7351 1 
7352 3 
7353 1 
7414 1 
7415 2 
7416 1 
7465 1 
7466 3 
7467 1 
7528 1 
7529 2 
7530 1 
7588 1 
7589 2 
7590 1 
7591 1 
7592 3 
7593 1 
7648 1 
7649 3 
7650 1 
8368 1 
8369 3 
8370 1 
8371 1 
8372 3 
8373 1 
8425 1 
8426 2 
8427 1 
8428 1 
8429 3 
8430 1 
8431 1 
8432 3 
8433 1 
8434 1 
8435 2 
8436 1 
8545 1 
8546 2 
8547 1 
8548 1 
8549 3 
8550 1 
8551 1 
8552 3 
8553 1 
8614 1 
8615 2 
8616 1 
8665 1 
8666 3 
8667 1 
8668 1 
8669 3 
8670 1 
8725 1 
8726 3 
8727 1 
8734 1 
8735 2 
8736 1 
8791 1 
8792 3 
8793 1 
8854 1 
8855 3 
8856 1 
9385 1 
9386 2 
9387 1 
9394 1 
9395 3 
9396 1 
9448 1 
9449 3 
9450 1 
9454 1 
9455 2 
9456 1 
9505 1 
9506 2 
9507 1 
9511 1 
9512 3 
9513 1 
9565 1 
9566 2 
9567 1 
9571 1 
9572 2 
9573 1 
9625 1 
9626 2 
9627 1 
9631 1 
9632 3 
9633 1 
9634 1 
9635 3 
9636 1 
9691 1 
9692 2 
9693 1 
9751 1 
9752 2 
9753 1 
9805 1 
9806 3 
9807 1 
9808 1 
9809 3 
9810 1 
9811 1 
9812 2 
9813 1 
9868 1 
9869 2 
9870 1 
9874 1 
9875 3 
9876 1 
9925 1 
9926 3 
9927 1 
9931 1 
9932 2 
9933 1 
9934 1 
9935 2 
9936 1 
10594 1 
10595 2 
10596 1 
10708 1 
10709 2 
10710 1 
10711 1 
10712 3 
10713 1 
10714 1 
10715 3 
10716 1 
10765 1 
10766 3 
10767 1 
10771 1 
10772 2 
10773 1 
10828 1 
10829 2 
10830 1 
10885 1 
10886 3 
10887 1 
10888 1 
10889 3 
10890 1 
10894 1 
10895 2 
10896 1 
10948 1 
10949 2 
10950 1 
10954 1 
10955 3 
10956 1 
11005 1 
11006 2 
11007 1 
11011 1 
11012 2 
11013 1 
11065 1 
11066 3 
11067 1 
11074 1 
11075 3 
11076 1 
637 1 
638 2 
639 1 
640 1 
641 2 
642 1 
700 1 
701 3 