ITEM: TIMESTEP
100000000
ITEM: NUMBER OF ATOMS
7560
ITEM: BOX BOUNDS pp pp pp
0.0000000000000000e+00 5.0000000000000000e+01
0.0000000000000000e+00 5.0000000000000000e+01
0.0000000000000000e+00 5.0000000000000000e+01
ITEM: ATOMS id type xs ys zs
11815 1 0.0641817 0.67599 0.0505453
11816 3 0.066761 0.676654 0.058099
13787 2 0.0464744 0.614472 0.0916624
13786 1 0.0440706 0.60958 0.0852228
14773 1 0.00435337 0.626677 0.0881719
16770 1 0.0052978 0.666794 0.0715117
16768 1 0.00199968 0.676502 0.083811
16769 3 0.00382714 0.672643 0.0763997
15423 1 0.00140716 0.677979 0.0862944
6997 1 0.0703646 0.675924 0.0688436
11817 1 0.0687826 0.676087 0.0655149
6998 3 0.0726288 0.676629 0.0757402
14774 2 0.00473117 0.626703 0.0962588
20524 1 0.00530711 0.627562 0.107473
14775 1 0.00497915 0.627316 0.104309
20525 3 0.00499414 0.62673 0.115114
20526 1 0.00275968 0.624911 0.122272
13788 1 0.0475107 0.620736 0.0971185
7645 1 0.0481787 0.623568 0.0997786
7646 3 0.0501367 0.628674 0.104756
7647 1 0.0523218 0.634887 0.109515
15961 1 0.0530021 0.637272 0.11148
15962 2 0.0557698 0.64368 0.116434
130 1 0.0342429 0.665181 0.118527
131 2 0.0393698 0.667127 0.12374
15963 1 0.0593608 0.647551 0.121553
2646 1 0.0607672 0.64947 0.123327
16524 1 0.0383377 0.676993 0.093666
2332 1 0.0963015 0.669345 0.119085
5936 3 0.000450892 0.623661 0.132799
5935 1 0.00156143 0.624922 0.125361
132 1 0.0443515 0.668179 0.129603
6562 1 0.0457548 0.669042 0.132499
6563 3 0.047868 0.670546 0.140774
1285 1 0.0476045 0.670871 0.152316
6564 1 0.0474652 0.67069 0.14907
12687 1 0.0612846 0.653511 0.147438
15485 2 0.0825393 0.654875 0.134718
15486 1 0.0832024 0.653906 0.126705
2645 2 0.0635229 0.656127 0.127355
12188 2 0.0707979 0.668952 0.142061
12189 1 0.0674021 0.664624 0.135679
2644 1 0.0659861 0.662573 0.132976
12187 1 0.0723882 0.672129 0.149275
15484 1 0.0829569 0.655883 0.143232
3340 1 0.0834685 0.656183 0.146128
20439 1 0.0731109 0.673662 0.152147
3341 2 0.0844349 0.657079 0.15377
12686 2 0.0626064 0.6538 0.155464
2333 2 0.0961828 0.671057 0.127282
2334 1 0.0965826 0.673303 0.13477
17887 1 0.11609 0.661194 0.146579
18418 1 0.0968968 0.67393 0.138075
18419 2 0.0969941 0.67513 0.145241
17888 3 0.113682 0.660904 0.154559
18420 1 0.0976021 0.676468 0.15332
4281 1 0.097829 0.676856 0.15563
17082 1 0.00641768 0.61615 0.175403
17081 3 0.00281126 0.615751 0.168658
17080 1 0.000258107 0.616075 0.160958
18940 1 0.0147126 0.64318 0.157025
895 1 0.00760679 0.616958 0.178218
896 3 0.0102445 0.618665 0.184581
18942 1 0.017181 0.644896 0.171591
18941 3 0.015319 0.644023 0.16485
8250 1 0.0182973 0.64591 0.174214
16492 1 0.0845609 0.639494 0.158483
16494 1 0.0795003 0.639085 0.17359
16493 2 0.0817943 0.63926 0.166592
15984 1 0.0791407 0.639082 0.176625
15983 2 0.0792436 0.639183 0.185229
11037 1 0.105543 0.629855 0.159844
11036 3 0.104497 0.633095 0.167485
9921 1 0.104492 0.638237 0.177447
11035 1 0.104916 0.637158 0.174626
9920 2 0.102898 0.641886 0.184474
8249 3 0.0199296 0.648766 0.181474
12425 3 0.00186752 0.671781 0.186717
12424 1 0.00119188 0.668448 0.179396
14943 1 0.000685247 0.666981 0.177083
2922 1 0.0321313 0.677432 0.166756
6163 1 0.0435826 0.647518 0.162061
6164 2 0.0435406 0.649132 0.169996
1286 2 0.0489728 0.672216 0.160499
6165 1 0.0424935 0.650725 0.178157
20017 1 0.042368 0.651344 0.181101
1287 1 0.0507557 0.672676 0.168668
19255 1 0.0507971 0.673195 0.171945
19256 2 0.0512181 0.674474 0.17958
12685 1 0.0626456 0.654382 0.163543
17596 1 0.0623652 0.654956 0.166773
17597 2 0.0631537 0.6562 0.174384
17598 1 0.0638817 0.657553 0.181819
21073 1 0.0643736 0.657711 0.18447
578 2 0.0839362 0.66123 0.173207
579 1 0.0836325 0.66013 0.164856
3342 1 0.0842301 0.659604 0.161958
577 1 0.0860422 0.660341 0.181236
20535 1 0.0865239 0.660493 0.183601
20438 2 0.0740751 0.67566 0.159355
13912 1 0.0742437 0.676299 0.169686
20437 1 0.074289 0.676226 0.166817
13914 1 0.0732009 0.677395 0.18637
13913 2 0.0731819 0.67668 0.178492
17889 1 0.1116 0.66078 0.161681
14275 1 0.110663 0.66081 0.164422
14276 2 0.108613 0.661374 0.172173
14277 1 0.105978 0.662163 0.179534
13951 1 0.105981 0.662595 0.181848
4280 2 0.0980407 0.677679 0.162903
897 1 0.0148603 0.621865 0.190031
6487 1 0.0162153 0.623304 0.192877
6488 3 0.0183456 0.627558 0.198874
6489 1 0.0205017 0.63189 0.204771
1440 1 0.0212323 0.633596 0.206899
1439 2 0.0236278 0.638383 0.214209
13129 1 0.00727868 0.636506 0.217876
21272 2 0.0551191 0.639771 0.203342
21273 1 0.0544347 0.640435 0.211207
21271 1 0.0572114 0.64004 0.19483
9666 1 0.0545844 0.64031 0.214651
137 2 0.0784014 0.644434 0.2031
138 1 0.0792393 0.641524 0.195451
15982 1 0.0791212 0.640549 0.192797
136 1 0.0778331 0.646366 0.210411
6051 1 0.0778172 0.64681 0.213783
19901 2 0.102913 0.64386 0.202891
9919 1 0.101508 0.644314 0.192522
19900 1 0.101922 0.644219 0.195425
17440 1 0.103209 0.644623 0.214625
19902 1 0.104235 0.644528 0.21165
8248 1 0.0196269 0.650699 0.188798
19003 1 0.0194543 0.651464 0.191529
16960 1 0.0181223 0.656965 0.209387
19005 1 0.0180891 0.65632 0.20678
19004 2 0.0185214 0.65499 0.198619
12426 1 0.00321873 0.674356 0.194851
16255 1 0.004114 0.675338 0.198009
16961 2 0.0197487 0.660795 0.215866
16256 2 0.00718597 0.676724 0.204413
18440 2 0.0292102 0.677103 0.192758
18441 1 0.029192 0.678102 0.200679
20878 1 0.0081144 0.677895 0.214802
16257 1 0.00802108 0.67766 0.211964
20018 2 0.040946 0.654942 0.188715
4637 2 0.042415 0.658696 0.206586
4638 1 0.0421718 0.657253 0.19854
20019 1 0.0419161 0.656593 0.195619
4636 1 0.0414221 0.66055 0.215146
1054 1 0.0418371 0.661058 0.217829
19713 1 0.0504009 0.677858 0.20955
12832 1 0.0503763 0.677634 0.206017
19257 1 0.0516656 0.675472 0.187368
12833 2 0.0508991 0.677596 0.198254
12834 1 0.0513415 0.675977 0.190298
14645 2 0.065018 0.661705 0.210361
14646 1 0.0650863 0.659625 0.202128
21075 1 0.0653121 0.659113 0.199339
21074 2 0.0659022 0.657309 0.191786
20534 2 0.0879465 0.66081 0.19057
10831 1 0.0874055 0.662533 0.201472
20533 1 0.0875842 0.662401 0.198226
10832 2 0.0881678 0.662857 0.20927
10833 1 0.0889079 0.664452 0.216842
14644 1 0.0653817 0.663628 0.218039
16312 1 0.072991 0.677793 0.189389
16314 1 0.0750561 0.67811 0.204601
13952 2 0.107304 0.664291 0.189524
15897 1 0.109269 0.664759 0.200077
13953 1 0.108304 0.665134 0.196971
15896 2 0.109885 0.664701 0.20827
15895 1 0.109446 0.667045 0.216018
20938 1 0.117272 0.608068 0.239347
20939 2 0.111861 0.611203 0.243294
20940 1 0.108255 0.615814 0.247322
1438 1 0.0262158 0.641832 0.220195
5022 1 0.0264658 0.64301 0.222633
13131 1 0.00821951 0.64225 0.232071
13130 2 0.00739131 0.639426 0.224931
10818 1 0.00876393 0.643031 0.235318
10817 2 0.00988787 0.646195 0.242751
5021 2 0.0282063 0.644692 0.230727
8927 2 0.0225924 0.626351 0.238316
8926 1 0.0245469 0.624154 0.230182
5020 1 0.0286481 0.645672 0.238862
2160 1 0.0289703 0.646337 0.241859
8928 1 0.0201717 0.627078 0.246721
9665 2 0.0549111 0.641062 0.221467
9664 1 0.0544698 0.644443 0.228169
9918 1 0.0539041 0.644881 0.231097
9917 2 0.0533641 0.645632 0.239011
9916 1 0.0534924 0.646415 0.246284
18459 1 0.0537251 0.646675 0.249239
17026 1 0.106869 0.617699 0.249262
19526 2 0.0197133 0.664217 0.233341
19525 1 0.0206716 0.662971 0.225556
16962 1 0.0202613 0.66259 0.222671
4071 1 0.0225059 0.666294 0.242925
19527 1 0.0217853 0.665935 0.240109
1055 2 0.0424563 0.663548 0.225015
16126 1 0.0417414 0.663153 0.234444
1056 1 0.0419628 0.663092 0.231704
16127 2 0.0419839 0.665188 0.243197
6050 2 0.0770606 0.647688 0.221846
6049 1 0.0770069 0.647573 0.229745
7852 1 0.0768684 0.647886 0.232658
7853 3 0.0766899 0.648957 0.240794
7816 1 0.0650365 0.667904 0.239608
19241 2 0.0655233 0.665868 0.22858
19240 1 0.0646772 0.667141 0.236453
7817 2 0.0641604 0.669395 0.247559
19242 1 0.0653035 0.664322 0.221148
16375 1 0.0889388 0.664809 0.220235
16376 2 0.0888844 0.665649 0.228315
16377 1 0.0874323 0.667333 0.235952
12076 1 0.0872071 0.667344 0.23878
12077 3 0.0870424 0.668233 0.247556
7854 1 0.0764148 0.650385 0.248218
17442 1 0.0993804 0.64869 0.229426
5897 2 0.0982436 0.649625 0.239712
5896 1 0.0987948 0.649377 0.232265
5898 1 0.0977941 0.651684 0.247349
17441 2 0.101518 0.647398 0.222254
14323 1 0.109371 0.667779 0.218953
14325 1 0.110988 0.668986 0.235018
14324 2 0.109462 0.668264 0.227071
8560 1 0.111443 0.668797 0.238214
8561 3 0.112318 0.66856 0.245922
3766 1 0.0477245 0.613169 0.269977
3767 2 0.048694 0.614141 0.277486
8779 1 0.01676 0.631192 0.267193
7384 1 0.0170471 0.630071 0.26471
7385 2 0.0181384 0.62835 0.257816
7386 1 0.0193378 0.627872 0.250056
8780 2 0.0169727 0.634928 0.27455
13666 1 0.0387896 0.632312 0.274014
13667 2 0.0384791 0.630164 0.266263
18808 1 0.0389497 0.632834 0.276776
13668 1 0.037911 0.62891 0.258849
16620 1 0.0899826 0.638634 0.26972
17027 3 0.102676 0.621506 0.254133
17028 1 0.0978634 0.626039 0.258033
16618 1 0.0962961 0.627992 0.259732
16619 2 0.0931579 0.632819 0.264311
10816 1 0.010984 0.648767 0.250485
17856 1 0.0108109 0.649438 0.253189
17855 2 0.0102746 0.652214 0.260506
17854 1 0.0110278 0.654408 0.268563
4070 2 0.0230908 0.667776 0.250875
3484 1 0.0112023 0.654828 0.271305
4069 1 0.0228476 0.670402 0.258167
2752 1 0.0223154 0.671521 0.261308
2753 2 0.0226351 0.672806 0.269662
3485 2 0.0110368 0.657926 0.279362
2754 1 0.0228877 0.674685 0.277656
2159 2 0.0309896 0.648515 0.249579
2158 1 0.0323903 0.650364 0.256455
9106 1 0.0328002 0.65105 0.258894
16128 1 0.0425499 0.666322 0.250765
9108 1 0.0315905 0.652969 0.275014
14914 1 0.031273 0.65309 0.278255
9107 2 0.0321547 0.652426 0.266663
18458 2 0.0539019 0.649195 0.256432
18457 1 0.0541988 0.651321 0.263397
21583 1 0.0428999 0.666827 0.253361
21105 1 0.0544373 0.652013 0.266729
21104 2 0.0540003 0.6543 0.27383
21584 2 0.0424281 0.669215 0.260177
21585 1 0.0435811 0.670397 0.267075
13119 1 0.0436989 0.671142 0.26958
13118 2 0.0440114 0.673424 0.276934
21103 1 0.0532364 0.656928 0.28066
2140 1 0.0764347 0.650975 0.250937
11722 1 0.0660509 0.672708 0.277492
2451 1 0.065539 0.672224 0.274041
7818 1 0.0631937 0.670136 0.254968
2141 2 0.07486 0.652035 0.258042
2142 1 0.075038 0.653638 0.266645
450 1 0.0751446 0.653564 0.27011
2449 1 0.0630884 0.669934 0.25787
2450 2 0.063742 0.671584 0.266273
4487 2 0.0876993 0.670275 0.266807
4486 1 0.087772 0.670138 0.259015
12078 1 0.0872462 0.670288 0.256467
4488 1 0.0876005 0.671949 0.27473
12934 1 0.0881278 0.672726 0.277961
449 2 0.0760326 0.65522 0.279305
5808 1 0.0979574 0.65202 0.250022
5807 2 0.0977994 0.652718 0.258081
7059 1 0.0982327 0.654142 0.269672
5806 1 0.0982482 0.654026 0.266595
8562 1 0.113659 0.669448 0.254681
16893 1 0.113373 0.6699 0.257597
16892 2 0.112276 0.67008 0.265785
16891 1 0.112226 0.670708 0.2738
7058 2 0.0988213 0.655129 0.277023
17175 1 0.112723 0.670715 0.276782
7477 1 0.0491816 0.615587 0.288477
3768 1 0.0493285 0.615354 0.284917
8781 1 0.0161599 0.637801 0.281495
4574 2 0.0158121 0.640696 0.29206
4573 1 0.0147059 0.641759 0.300966
4575 1 0.0161065 0.63844 0.284774
1162 1 0.0147068 0.642254 0.303946
18809 2 0.040075 0.634242 0.283939
7478 3 0.0483766 0.616842 0.296121
18810 1 0.0412838 0.636409 0.291502
1411 1 0.0413353 0.637178 0.294814
1412 2 0.0400222 0.63864 0.303823
7479 1 0.0489956 0.617786 0.303964
12717 1 0.0491477 0.618355 0.306386
1413 1 0.0382121 0.639571 0.311341
10952 2 0.0611914 0.640774 0.308557
10953 1 0.0615759 0.639998 0.302276
11899 1 0.0617905 0.640052 0.298853
11900 2 0.0630084 0.639478 0.290237
11901 1 0.0630102 0.63936 0.281912
3590 2 0.097299 0.636266 0.286748
3589 1 0.0940208 0.631026 0.292037
3591 1 0.0998412 0.641688 0.281119
284 2 0.0236132 0.676623 0.288486
3486 1 0.011137 0.660914 0.286679
15409 1 0.00746089 0.663708 0.304484
8895 1 0.00643637 0.66345 0.307247
15411 1 0.0107756 0.662057 0.289638
15410 2 0.00923262 0.663942 0.2973
6677 2 0.0297145 0.659423 0.304465
6676 1 0.0297417 0.656739 0.297067
14916 1 0.0297634 0.655805 0.293932
6678 1 0.0278576 0.660867 0.311884
285 1 0.0229973 0.675081 0.281129
5850 1 0.0437333 0.677471 0.30401
14915 2 0.0309717 0.65376 0.285483
107 2 0.0517228 0.658159 0.290222
108 1 0.0529393 0.657723 0.283463
17523 1 0.0508587 0.659626 0.301674
106 1 0.0507553 0.659434 0.298437
17522 2 0.0520156 0.66084 0.30952
13117 1 0.0439407 0.674739 0.285282
5848 1 0.0441106 0.674889 0.288415
5849 2 0.0433727 0.675845 0.297032
10543 1 0.043348 0.677887 0.307174
19031 2 0.0661276 0.676691 0.303742
11723 2 0.0670289 0.673476 0.284796
12936 1 0.0904438 0.673991 0.294162
3548 2 0.0716351 0.657272 0.296951
3547 1 0.0744424 0.657008 0.289867
448 1 0.0752647 0.656241 0.28727
12935 2 0.0896395 0.673655 0.285914
3549 1 0.0717637 0.657024 0.304673
17242 1 0.09011 0.674015 0.297737
17243 2 0.0887648 0.674119 0.30454
18561 1 0.0724776 0.657574 0.307475
11724 1 0.0680416 0.674834 0.292062
19030 1 0.0650534 0.677367 0.311369
19032 1 0.0676871 0.6755 0.295774
17933 2 0.0973039 0.656849 0.29599
7984 1 0.0967852 0.657729 0.306441
17932 1 0.0971473 0.657984 0.303649
7057 1 0.0987322 0.656826 0.284995
17934 1 0.0988155 0.657242 0.288049
17174 3 0.113303 0.67086 0.286397
16341 1 0.113464 0.672599 0.297409
17173 1 0.113693 0.672273 0.294687
16340 2 0.11219 0.673476 0.30615
1163 2 0.0150474 0.643445 0.312645
4509 1 0.0147445 0.625419 0.342002
1164 1 0.0150137 0.643382 0.320658
10651 1 0.014955 0.643643 0.323995
10652 3 0.0144439 0.643768 0.332592
10653 1 0.0145012 0.644489 0.340363
9768 1 0.0147235 0.644909 0.343101
4129 1 0.0377819 0.640245 0.313642
12716 2 0.0491409 0.62108 0.313777
12715 1 0.0489079 0.622448 0.321632
17845 1 0.0491314 0.623194 0.325115
4130 2 0.0374363 0.641485 0.320964
4131 1 0.0378913 0.640606 0.328697
17846 3 0.0488195 0.623983 0.333462
19815 1 0.0593878 0.643539 0.334315
19814 2 0.0610216 0.642125 0.326596
1042 1 0.0587322 0.644151 0.337179
19813 1 0.0611409 0.641861 0.318977
10951 1 0.0610407 0.641456 0.315872
2053 1 0.0378184 0.640512 0.331642
2054 3 0.0358833 0.642021 0.339004
17847 1 0.0493392 0.625073 0.341407
18075 1 0.0692546 0.619371 0.338175
1847 3 0.000961683 0.66303 0.333323
15925 1 0.0242372 0.66369 0.333253
8893 1 0.00313165 0.662073 0.32323
8894 2 0.00542601 0.662252 0.314659
1846 1 0.00232053 0.662769 0.326135
7267 1 0.0248466 0.66299 0.330936
7268 2 0.0256694 0.662429 0.32349
7269 1 0.0275352 0.661035 0.314926
15926 3 0.023312 0.665497 0.340642
12881 2 0.0521208 0.66136 0.327941
12882 1 0.051554 0.660798 0.320476
17521 1 0.0519342 0.660751 0.317723
12880 1 0.0509567 0.662081 0.335886
14001 1 0.0502328 0.662902 0.339086
6541 1 0.0644362 0.677823 0.313986
21532 1 0.0872266 0.676362 0.333657
10548 1 0.091352 0.654525 0.338357
10547 2 0.0918411 0.655109 0.331077
12671 2 0.0729856 0.661352 0.333203
12672 1 0.0746273 0.661131 0.325929
18559 1 0.0752832 0.660748 0.323078
18560 2 0.0738779 0.659607 0.314751
10546 1 0.0922833 0.655166 0.323632
7335 1 0.0884368 0.676038 0.316235
12670 1 0.0710769 0.663051 0.340665
18216 1 0.0908901 0.654321 0.341699
21533 2 0.0876451 0.676378 0.341436
7334 2 0.0869314 0.67644 0.323231
17244 1 0.0887174 0.675473 0.312962
7333 1 0.0868723 0.676034 0.331045
7986 1 0.0929017 0.655211 0.32079
7985 2 0.0951176 0.655815 0.313584
16339 1 0.111317 0.673742 0.314084
8596 1 0.111158 0.674146 0.316631
8597 2 0.109862 0.674776 0.324523
8598 1 0.109098 0.673457 0.332326
8376 1 0.108698 0.67282 0.335064
8375 2 0.108918 0.670264 0.342594
11460 1 0.00139934 0.629648 0.367649
403 1 0.00142006 0.630938 0.370484
4507 1 0.0185634 0.629979 0.356434
4508 3 0.0166517 0.627169 0.349133
21508 1 0.0197929 0.630816 0.35919
21509 3 0.0208517 0.632518 0.366591
21510 1 0.0208516 0.633741 0.374052
16245 1 0.0492288 0.62594 0.344462
16244 3 0.0495357 0.627374 0.352461
16243 1 0.0499163 0.628036 0.36056
20389 1 0.049913 0.628601 0.363141
20390 3 0.050176 0.629454 0.370879
1043 3 0.0577568 0.645389 0.345426
2055 1 0.0358161 0.645377 0.346888
11598 1 0.0357105 0.646103 0.350126
1044 1 0.0574906 0.646351 0.353499
6859 1 0.057482 0.647234 0.355968
18074 3 0.0688949 0.623045 0.344566
18073 1 0.0707073 0.626138 0.352441
2962 1 0.0715266 0.627216 0.354919
2963 3 0.0734978 0.630429 0.362166
2964 1 0.0728276 0.632077 0.369747
10288 1 0.0728967 0.632989 0.372714
9767 3 0.0136771 0.647378 0.351354
9766 1 0.0135956 0.649862 0.358556
7900 1 0.0130076 0.651238 0.361447
2659 1 0.0232391 0.669975 0.365401
2660 3 0.0229295 0.669302 0.358524
12100 1 0.0233657 0.670169 0.368402
15927 1 0.0228112 0.667839 0.348631
2661 1 0.0225131 0.668312 0.351147
7901 3 0.012642 0.652974 0.37012
11597 3 0.0357191 0.648018 0.357389
11596 1 0.0359246 0.64862 0.365097
3984 1 0.0357439 0.649301 0.368011
21201 1 0.0478766 0.666886 0.357156
14000 3 0.0481224 0.665443 0.345631
13999 1 0.0476895 0.666827 0.353899
21200 3 0.0475525 0.667304 0.365498
6861 1 0.0587981 0.651359 0.371081
21199 1 0.0466311 0.669145 0.373652
6860 3 0.0571144 0.648927 0.363034
9169 1 0.059297 0.652783 0.374005
2161 1 0.0879245 0.674804 0.371473
18215 3 0.0897956 0.654446 0.350305
18214 1 0.0894037 0.653033 0.358436
20028 1 0.0888657 0.652492 0.361389
20027 3 0.0865082 0.651689 0.368573
3754 1 0.0698526 0.663698 0.343338
3755 3 0.0681779 0.665235 0.351613
3756 1 0.0680014 0.666433 0.359277
18099 1 0.0679827 0.666998 0.362233
2618 3 0.0875639 0.67483 0.35945
18098 3 0.0682823 0.669263 0.369161
2619 1 0.0879935 0.675663 0.351736
2617 1 0.0878818 0.674706 0.368345
21534 1 0.0878194 0.675433 0.349148
4945 1 0.108285 0.666527 0.353389
4946 3 0.107106 0.663179 0.359826
8374 1 0.108936 0.667524 0.35014
4947 1 0.105667 0.660443 0.366852
9639 1 0.104961 0.659896 0.36983
11343 1 0.000792168 0.63339 0.389851
12556 1 0.0209964 0.634335 0.377334
12558 1 0.0248884 0.635036 0.393568
3235 1 0.0252952 0.634547 0.396373
12557 3 0.0233954 0.635841 0.385235
11341 1 0.00284723 0.635116 0.404992
3236 3 0.0268305 0.63499 0.404415
404 3 0.0009211 0.634028 0.379143
405 1 0.000120357 0.633586 0.386909
11342 3 0.00291115 0.633618 0.396842
13764 1 0.0500213 0.633532 0.381882
20391 1 0.0501771 0.632395 0.378794
13763 3 0.0506766 0.636199 0.389709
13762 1 0.0514013 0.638753 0.396874
18670 1 0.0512383 0.639788 0.400153
10289 3 0.0733103 0.63613 0.379817
10290 1 0.0742202 0.638957 0.388055
15964 1 0.0746211 0.63985 0.390337
15965 3 0.0733742 0.641809 0.397732
15966 1 0.0722949 0.644992 0.405105
7616 3 0.0219757 0.674466 0.394437
9478 1 0.00201789 0.67723 0.397432
7617 1 0.0219734 0.671814 0.386719
8219 3 0.000663589 0.673831 0.3868
8218 1 0.0018312 0.676263 0.394969
7902 1 0.0129053 0.654015 0.377078
10114 1 0.0135661 0.656048 0.396063
10115 3 0.0117992 0.65601 0.38873
10116 1 0.0126315 0.654926 0.3804
21228 1 0.0141065 0.655843 0.398989
12101 3 0.0225295 0.670486 0.376036
12102 1 0.02188 0.671638 0.383593
8220 1 0.000146346 0.672339 0.379113
7615 1 0.0222554 0.674464 0.402498
10897 1 0.0225903 0.674643 0.405488
19332 1 0.0452594 0.67622 0.389723
19331 3 0.0448046 0.674146 0.383181
3983 3 0.0355456 0.651422 0.376102
19330 1 0.0461893 0.670304 0.376508
849 1 0.034873 0.654728 0.386925
3982 1 0.0354613 0.65389 0.383846
848 3 0.0351998 0.655006 0.394427
5074 1 0.0600768 0.658293 0.39314
9171 1 0.0601452 0.657768 0.389497
9170 3 0.0593605 0.655595 0.381394
847 1 0.0353807 0.657236 0.402353
5075 3 0.0586925 0.66056 0.400722
15309 1 0.0354811 0.658187 0.405177
16648 1 0.0451278 0.676817 0.392011
2163 1 0.0883401 0.677825 0.386235
2162 3 0.0887634 0.675737 0.37893
7060 1 0.0681539 0.673397 0.379262
20026 1 0.0848662 0.652664 0.376455
5736 1 0.0842258 0.653562 0.379821
13755 1 0.0822588 0.661547 0.397645
5734 1 0.0827607 0.659992 0.394632
5735 3 0.0834452 0.656763 0.387151
18097 1 0.0679202 0.672032 0.376574
7061 3 0.0678748 0.676067 0.387225
7570 1 0.108028 0.676766 0.402481
17633 3 0.110227 0.677437 0.391113
10208 3 0.10155 0.657318 0.398284
9638 3 0.104218 0.659657 0.378472
10209 1 0.102774 0.658518 0.390428
9637 1 0.102922 0.658778 0.387385
10207 1 0.100433 0.654817 0.404821
17632 1 0.108014 0.677412 0.399493
17634 1 0.111358 0.677644 0.383115
8194 1 0.00328702 0.636174 0.408035
8195 3 0.00407816 0.638844 0.415471
8196 1 0.00540485 0.640242 0.423555
4423 1 0.00561076 0.640513 0.426658
3237 1 0.0275622 0.638283 0.411862
5682 1 0.027736 0.639533 0.415163
5681 3 0.0287972 0.641371 0.423008
5680 1 0.0305452 0.642275 0.430598
4424 3 0.0070179 0.642108 0.433827
9417 1 0.0310747 0.64285 0.433596
18671 3 0.0504858 0.641698 0.408315
18672 1 0.0502743 0.643235 0.415711
10819 1 0.0504224 0.643891 0.418824
10820 3 0.0507272 0.644001 0.4277
10821 1 0.0513514 0.643329 0.435709
17172 1 0.0719803 0.645482 0.407782
10898 3 0.0232478 0.67722 0.412883
10003 1 0.00341506 0.67749 0.416458
21227 3 0.0152545 0.655636 0.406558
13343 3 0.0182135 0.659637 0.424342
13342 1 0.0180967 0.658583 0.41711
21226 1 0.0175779 0.658069 0.414528
13344 1 0.0185798 0.659915 0.432881
15934 1 0.0192331 0.660316 0.435818
9480 1 0.00335164 0.677103 0.41396
10899 1 0.0245603 0.677352 0.420572
15308 3 0.0355655 0.65963 0.412979
3652 1 0.0377493 0.663934 0.423512
15307 1 0.0370434 0.662992 0.42045
3653 3 0.0389472 0.665359 0.431178
14997 1 0.0571454 0.66342 0.411003
5076 1 0.0573997 0.66269 0.408496
14995 1 0.0590724 0.664579 0.42633
14996 3 0.0569914 0.664098 0.418954
670 1 0.059267 0.664682 0.429135
671 3 0.0588813 0.664966 0.436488
17171 3 0.0709218 0.647328 0.415641
17170 1 0.0709205 0.648272 0.423867
8076 1 0.0708188 0.648232 0.426688
8075 3 0.0713398 0.648317 0.435552
13754 3 0.0817514 0.664235 0.406125
13753 1 0.0825309 0.665792 0.414612
19354 1 0.0821615 0.666019 0.417505
19355 3 0.081785 0.666553 0.425158
19356 1 0.081652 0.666261 0.433864
7571 3 0.107946 0.674517 0.410074
6640 1 0.0974625 0.653142 0.42583
17588 3 0.0980755 0.653541 0.415054
17587 1 0.0975418 0.653144 0.422401
17589 1 0.0999545 0.654245 0.407389
20009 3 0.109422 0.669101 0.429228
7572 1 0.108523 0.672401 0.418215
20008 1 0.108673 0.671046 0.42138
6641 2 0.0973617 0.652315 0.434261
7896 1 0.00935475 0.641819 0.444815
4425 1 0.00871565 0.641809 0.441815
7895 3 0.0100483 0.642287 0.453161
7894 1 0.0102813 0.64451 0.460941
2470 1 0.0101198 0.645157 0.463376
9416 3 0.0326921 0.646584 0.441248
10029 1 0.0517251 0.643268 0.438711
10028 3 0.0531035 0.643697 0.446909
10027 1 0.0525391 0.645933 0.454832
5107 1 0.0522592 0.646475 0.457921
5108 3 0.0532819 0.646745 0.465302
12220 1 0.0217507 0.665445 0.456103
15935 3 0.021128 0.662244 0.444344
15936 1 0.0210806 0.664306 0.452928
12221 3 0.0205811 0.666931 0.464493
9415 1 0.0331045 0.648615 0.449561
14475 1 0.0330407 0.648955 0.452382
14474 3 0.0327725 0.649638 0.461205
3654 1 0.0396658 0.665725 0.438575
10876 1 0.0415955 0.668097 0.460472
12354 1 0.0399652 0.666241 0.44168
12353 3 0.0413204 0.665681 0.449601
12352 1 0.041511 0.667229 0.457528
12812 3 0.0613747 0.66593 0.454981
672 1 0.059968 0.665304 0.444716
12811 1 0.0604807 0.665436 0.447786
8074 1 0.0719862 0.648509 0.443408
7951 1 0.0723838 0.648516 0.446042
7952 3 0.0728557 0.647942 0.453646
7953 1 0.0741388 0.64784 0.462562
5350 1 0.0742907 0.647892 0.465508
19975 1 0.0635272 0.665742 0.465197
11533 1 0.0810687 0.666008 0.436839
12813 1 0.062744 0.666117 0.462176
2881 1 0.0826746 0.665646 0.45559
11534 3 0.0810217 0.666261 0.444825
11535 1 0.0823241 0.665594 0.453069
2882 3 0.0838608 0.666063 0.463029
13062 1 0.0979092 0.648045 0.461085
19635 1 0.0972963 0.64834 0.463971
13061 3 0.0978472 0.649394 0.453068
6642 1 0.0972033 0.651145 0.441953
13060 1 0.0973541 0.650554 0.44515
11740 1 0.10691 0.669003 0.440174
20010 1 0.107518 0.668997 0.437242
6550 1 0.104112 0.669838 0.460391
11741 3 0.105657 0.669132 0.448547
11742 1 0.104482 0.66956 0.457214
19125 1 0.0177359 0.624424 0.475362
19123 1 0.0137971 0.629314 0.491003
19124 3 0.0157979 0.627177 0.483025
12348 1 0.0128627 0.629908 0.493459
21334 1 0.0326054 0.6286 0.48608
21335 3 0.0338019 0.633479 0.491816
5351 3 0.0745874 0.646946 0.473973
5352 1 0.0755107 0.645554 0.481465
11191 1 0.0756212 0.645368 0.484356
11192 3 0.0758703 0.646353 0.493494
17765 3 0.0203568 0.676782 0.498098
1992 1 0.0307743 0.648796 0.471982
17766 1 0.01958 0.675063 0.491084
14662 1 0.0192998 0.674013 0.488524
2471 3 0.00946851 0.648606 0.47163
2472 1 0.00965233 0.65146 0.479212
12222 1 0.0203205 0.667653 0.472123
12118 1 0.00995486 0.6522 0.482454
12119 3 0.0104539 0.653415 0.49016
14663 3 0.0188498 0.671024 0.481444
14664 1 0.0197198 0.668438 0.474985
12120 1 0.0117686 0.656046 0.497343
14473 1 0.0309985 0.648809 0.469282
11988 1 0.0520235 0.647674 0.495843
9682 1 0.0517814 0.64776 0.493175
1991 3 0.0311354 0.650047 0.479751
1990 1 0.0315691 0.653538 0.486996
1674 1 0.0318247 0.654193 0.489639
1673 3 0.0312091 0.655835 0.497856
10877 3 0.042659 0.668776 0.469188
19449 1 0.0416386 0.673919 0.495609
12691 1 0.0421294 0.67437 0.498671
9683 3 0.052435 0.648065 0.485225
5109 1 0.0525022 0.647375 0.473609
9684 1 0.0523953 0.647625 0.476466
19448 3 0.0415232 0.672546 0.488466
10878 1 0.0428972 0.670799 0.477006
19447 1 0.0424776 0.671353 0.479995
19976 3 0.0630679 0.666059 0.472388
19977 1 0.0628729 0.665439 0.480849
20584 1 0.0633437 0.664843 0.484004
20585 3 0.0637481 0.665674 0.491694
2883 1 0.0837938 0.665875 0.470037
4501 1 0.0845367 0.668648 0.491976
902 3 0.0841196 0.667013 0.481446
901 1 0.0838862 0.666051 0.473398
903 1 0.084181 0.668479 0.488818
6551 3 0.103723 0.669707 0.46919
19633 1 0.0964685 0.654063 0.477986
19634 3 0.0958144 0.650405 0.470743
10994 3 0.105792 0.667262 0.488003
10995 1 0.106426 0.668432 0.480456
10993 1 0.105464 0.664794 0.496047
6552 1 0.106274 0.668953 0.477721
5046 1 0.105199 0.663629 0.498881
9111 1 0.00874135 0.636875 0.510364
12347 3 0.0107877 0.633744 0.500694
12346 1 0.00926839 0.636121 0.507712
9110 3 0.00734628 0.638864 0.51769
21502 1 0.00674445 0.642154 0.528475
2152 1 0.0304843 0.638275 0.518808
9286 1 0.0298544 0.638602 0.521436
9109 1 0.00738619 0.641889 0.525621
9287 2 0.0281761 0.640128 0.528887
21336 1 0.0341289 0.636175 0.500066
2153 3 0.0316985 0.636842 0.510797
2154 1 0.0338909 0.636704 0.503205
13571 3 0.0523671 0.644055 0.522396
11986 1 0.0514397 0.645347 0.512266
13570 1 0.0517755 0.644525 0.515525
11987 3 0.0517938 0.647166 0.504151
13572 1 0.0502184 0.644417 0.529862
1576 1 0.0116631 0.657199 0.50007
1578 1 0.0109948 0.661584 0.516264
12250 1 0.0110091 0.661986 0.519024
1577 3 0.0108657 0.659884 0.508148
12251 3 0.0110688 0.661764 0.526686
1672 1 0.0303971 0.655951 0.506993
142 1 0.0303442 0.656061 0.510032
143 3 0.0307983 0.658131 0.517558
144 1 0.0324031 0.659943 0.525266
5208 1 0.0331604 0.660079 0.528061
10911 1 0.0579663 0.666679 0.523498
20532 1 0.0582012 0.667257 0.520484
20531 3 0.0600742 0.668088 0.512067
12692 3 0.0425819 0.675682 0.506181
12693 1 0.0425242 0.678079 0.514121
16971 1 0.0856692 0.676639 0.527417
17784 1 0.0850908 0.676424 0.52396
11193 1 0.0766046 0.648266 0.50111
20530 1 0.0626813 0.666373 0.503812
20586 1 0.063644 0.666357 0.500627
17783 3 0.0859194 0.67336 0.51713
4502 3 0.0841519 0.669226 0.499914
21590 3 0.0758113 0.651489 0.511666
21589 1 0.0764995 0.648917 0.504273
15633 1 0.0748532 0.655082 0.521102
21591 1 0.074944 0.653597 0.518443
17782 1 0.0848048 0.671715 0.509762
4503 1 0.0841521 0.670953 0.507142
15632 3 0.0744889 0.658924 0.527461
11446 1 0.110045 0.676915 0.529909
5045 2 0.103607 0.660384 0.506179
14595 1 0.1022 0.658156 0.517863
5044 1 0.102421 0.658824 0.514499
14594 3 0.101371 0.657696 0.525906
6755 3 0.00540232 0.646211 0.556059
9288 1 0.0262649 0.641366 0.537162
10150 1 0.0257812 0.641838 0.540371
10151 3 0.0247497 0.643725 0.548461
10152 1 0.0255982 0.643062 0.557183
3820 1 0.0267036 0.642736 0.560231
6754 1 0.00518792 0.643339 0.547418
21504 1 0.00544702 0.642848 0.544433
21503 2 0.00637108 0.642327 0.536615
5545 1 0.0495354 0.644131 0.532559
5547 1 0.0488327 0.643083 0.548658
10287 1 0.0493488 0.642706 0.551599
5546 3 0.0483691 0.643057 0.540409
10286 3 0.050792 0.642507 0.559303
12252 1 0.00942099 0.661904 0.534403
15601 1 0.0113234 0.667871 0.554885
19222 1 0.0116477 0.667163 0.552386
19224 1 0.00959573 0.662186 0.537544
19223 3 0.0109763 0.664119 0.544925
7559 3 0.0351013 0.66158 0.555207
5206 1 0.0354148 0.659951 0.544347
7560 1 0.0358684 0.660183 0.54754
5207 3 0.0338224 0.660047 0.535811
10910 3 0.0556516 0.664816 0.530711
11819 3 0.054955 0.663874 0.548882
10909 1 0.0564823 0.663249 0.537619
11818 1 0.0568877 0.66327 0.54048
11820 1 0.0543508 0.665168 0.556652
15258 1 0.0543036 0.665522 0.559251
15631 1 0.0760609 0.661098 0.535489
8260 1 0.0763245 0.661377 0.538109
8261 3 0.0764159 0.661913 0.546459
8262 1 0.0769184 0.661502 0.554873
3627 1 0.0767571 0.66092 0.557855
16970 3 0.0871082 0.677193 0.535606
19477 1 0.110873 0.675683 0.532199
14593 1 0.0994916 0.656078 0.533072
1408 1 0.0969561 0.659426 0.554414
13017 1 0.0989947 0.655882 0.536068
13016 2 0.0985915 0.656701 0.543646
13015 1 0.0974229 0.658572 0.55169
19478 2 0.113917 0.671484 0.539154
1038 1 0.117887 0.665639 0.548037
19479 1 0.117229 0.667328 0.545222
1037 2 0.11844 0.662608 0.555718
598 1 0.00633962 0.647247 0.566797
3821 3 0.0290748 0.643052 0.567362
6756 1 0.00601244 0.647061 0.563338
18028 1 0.0544513 0.645219 0.584727
18029 3 0.0544275 0.643501 0.577023
13035 1 0.0548136 0.64537 0.587319
18030 1 0.0528222 0.642803 0.56994
10285 1 0.0520774 0.642828 0.566899
3822 1 0.031365 0.643318 0.57545
360 1 0.0318578 0.643622 0.578258
359 3 0.030931 0.645183 0.585778
3710 2 0.113252 0.6472 0.590067
15602 3 0.0112934 0.669445 0.563228
599 3 0.00709087 0.648999 0.575259
600 1 0.00838368 0.651874 0.583169
693 1 0.00843789 0.653 0.586467
4442 3 0.0103698 0.67271 0.581547
15603 1 0.01175 0.670055 0.570773
4441 1 0.011923 0.670312 0.574085
4443 1 0.00947023 0.67323 0.58908
11529 1 0.00874507 0.673666 0.592532
7558 1 0.0339634 0.661877 0.563266
21378 1 0.031157 0.662736 0.585627
1984 1 0.0314988 0.662335 0.582615
1985 3 0.0320071 0.662478 0.574735
1986 1 0.033279 0.662198 0.566215
15256 1 0.0519076 0.663655 0.575499
15257 3 0.0540193 0.664705 0.567132
2045 3 0.05035 0.663933 0.58667
2046 1 0.0513975 0.663447 0.578546
4741 1 0.0702668 0.66003 0.590566
3626 3 0.0753937 0.659734 0.565438
4742 3 0.0714957 0.65901 0.583214
4743 1 0.0723829 0.658956 0.575414
3625 1 0.0728189 0.659195 0.572525
1409 3 0.0974596 0.661955 0.562271