ITEM: TIMESTEP
100000000
ITEM: NUMBER OF ENTRIES
8557
ITEM: BOX BOUNDS pp pp pp
0 50
0 50
0 50
ITEM: ENTRIES c_binfo[1] c_binfo[2] c_binfo[3] 
2 1289 1290 
1 1290 9237 
3 10222 10223 
1 3327 10222 
3 3326 3327 
1 10047 13590 
2 9235 9236 
1 9235 16869 
2 9236 9237 
3 18353 18354 
3 4304 4305 
3 10066 10067 
1 6825 10066 
3 10067 10068 
1 4305 10068 
1 17691 18352 
3 17690 17691 
3 17689 17690 
3 9805 9806 
1 9805 17689 
3 18352 18353 
3 6622 6623 
3 5012 5013 
1 5013 6622 
3 6824 6825 
3 6823 6824 
1 6823 10716 
3 10715 10716 
3 5011 5012 
1 5011 20953 
3 9806 9807 
1 7347 9807 
1 6111 17295 
3 7346 7347 
3 7345 7346 
1 7345 8325 
3 4531 4532 
1 4531 18379 
3 4532 4533 
3 20953 20954 
3 20954 20955 
3 1471 1472 
1 1471 20955 
3 10714 10715 
1 4533 10714 
2 18379 18380 
3 1472 1473 
2 18380 18381 
3 8324 8325 
3 8323 8324 
3 17293 17294 
1 17293 20103 
1 2016 8323 
3 20102 20103 
3 2015 2016 
3 17294 17295 
3 19339 19340 
1 1473 19339 
3 19340 19341 
3 1420 1421 
1 1420 19341 
3 10046 10047 
3 875 876 
3 874 875 
1 874 12462 
3 3406 3407 
1 3406 18508 
3 2014 2015 
1 2014 16012 
3 14081 14082 
3 20101 20102 
3 16012 16013 
3 12796 12797 
1 12796 16014 
3 16013 16014 
1 14082 20101 
3 14080 14081 
1 14080 19630 
3 19630 19631 
3 12797 12798 
3 19631 19632 
3 1421 1422 
1 1422 6223 
2 6223 6224 
2 6224 6225 
1 4017 6225 
3 10045 10046 
3 9820 9821 
1 9820 13915 
3 13915 13916 
3 9821 9822 
1 9822 10045 
3 17960 17961 
3 12460 12461 
1 12460 17961 
3 18508 18509 
3 18509 18510 
3 3532 3533 
1 3532 18510 
3 3533 3534 
3 11360 11361 
1 11361 12798 
3 11359 11360 
1 11359 12970 
3 12970 12971 
1 90 19632 
3 88 89 
1 88 1681 
2 4016 4017 
3 89 90 
2 4015 4016 
1 4015 11415 
3 11414 11415 
3 1681 1682 
1 13917 18316 
3 18316 18317 
3 13916 13917 
3 18317 18318 
3 20761 20762 
3 20762 20763 
3 17959 17960 
1 17959 20761 
3 10702 10703 
1 10702 20763 
1 6330 7164 
1 3534 7162 
3 7162 7163 
3 21218 21219 
3 7163 7164 
3 12971 12972 
1 12972 21217 
3 21217 21218 
3 1682 1683 
3 11413 11414 
3 710 711 
3 709 710 
1 709 10704 
3 10703 10704 
1 711 1825 
3 5899 5900 
1 5899 9906 
3 6329 6330 
3 6328 6329 
2 4022 4023 
3 1826 1827 
1 1827 4023 
3 1825 1826 
2 5039 5040 
2 9905 9906 
2 5038 5039 
1 5038 9904 
2 9904 9905 
1 2820 5040 
2 2819 2820 
2 7775 7776 
2 2818 2819 
1 2818 7774 
2 7774 7775 
1 7776 11496 
2 16624 16625 
2 11494 11495 
1 11494 16624 
2 11495 11496 
2 16625 16626 
2 17729 17730 
2 17728 17729 
1 1647 17728 
2 1646 1647 
2 1645 1646 
1 1645 16626 
1 13326 20566 
2 20566 20567 
2 20567 20568 
1 17730 20568 
2 6733 6734 
1 6733 13324 
2 6734 6735 
2 13324 13325 
2 13325 13326 
1 1572 6520 
2 6520 6521 
2 6521 6522 
2 18770 18771 
2 18769 18770 
2 5492 5493 
1 10092 10872 
3 10091 10092 
3 10871 10872 
2 5491 5492 
1 5491 19362 
2 19360 19361 
2 19361 19362 
1 1338 19360 
3 19706 19707 
2 1762 1763 
2 5167 5168 
1 5167 13297 
2 13297 13298 
2 5168 5169 
2 13298 13299 
3 10870 10871 
1 10870 18849 
2 18848 18849 
2 18847 18848 
2 601 602 
1 601 18847 
2 3569 3570 
3 19705 19706 
2 511 512 
1 511 19705 
2 512 513 
1 513 20085 
2 1337 1338 
2 1336 1337 
1 1336 1917 
2 1916 1917 
2 1915 1916 
1 1915 4674 
1 13299 16693 
1 7569 16695 
2 16694 16695 
2 16693 16694 
2 1763 1764 
1 1764 8565 
2 8564 8565 
2 8563 8564 
2 602 603 
2 3568 3569 
1 3568 4053 
2 13229 13230 
2 13228 13229 
1 6342 13228 
2 6341 6342 
2 6340 6341 
1 6340 16332 
2 4051 4052 
1 4051 9384 
2 4052 4053 
2 1571 1572 
2 20084 20085 
2 20083 20084 
1 20083 20404 
2 20404 20405 
2 20405 20406 
2 4673 4674 
2 4672 4673 
1 4672 14283 
2 14282 14283 
2 7568 7569 
2 4882 4883 
1 4882 8563 
2 19469 19470 
2 4883 4884 
1 4884 16422 
2 19468 19469 
2 7567 7568 
1 7567 19468 
1 1497 21324 
2 1496 1497 
2 16331 16332 
2 10978 10979 
1 10978 16330 
2 16330 16331 
2 10979 10980 
2 18059 18060 
2 9382 9383 
1 9382 18058 
2 9383 9384 
2 18058 18059 
2 1570 1571 
2 1495 1496 
1 1495 1570 
3 10090 10091 
1 10090 18507 
3 18506 18507 
3 18505 18506 
1 16230 17395 
3 6187 6188 
1 6187 17397 
3 17396 17397 
3 17395 17396 
2 9344 9345 
3 21302 21303 
3 21301 21302 
3 8227 8228 
1 8227 21301 
3 8228 8229 
1 8229 21250 
2 13012 13013 
2 21250 21251 
2 13013 13014 
3 10889 10890 
3 10888 10889 
1 10888 15297 
2 15296 15297 
1 447 4635 
3 446 447 
3 6188 6189 
3 19939 19940 
3 10838 10839 
1 6189 10837 
3 10837 10838 
3 19940 19941 
2 1382 1383 
2 1381 1382 
1 1381 18552 
1 1383 9343 
2 9343 9344 
2 16162 16163 
1 16162 21252 
2 16163 16164 
2 325 326 
2 21251 21252 
2 6476 6477 
1 327 6477 
2 326 327 
2 10232 10233 
1 10233 11577 
2 10231 10232 
1 5169 13014 
2 15295 15296 
1 15295 17037 
2 17036 17037 
2 17035 17036 
1 6855 17035 
1 10794 10839 
2 6206 6207 
2 6205 6206 
1 6205 19941 
1 10146 10792 
2 10792 10793 
2 10793 10794 
2 5939 5940 
2 10145 10146 
2 5938 5939 
3 4633 4634 
1 4633 5938 
1 282 6207 
1 5940 9994 
3 4634 4635 
2 18550 18551 
1 1317 18550 
2 18551 18552 
2 1316 1317 
2 19649 19650 
2 19648 19649 
1 885 19650 
1 16164 19648 
2 1315 1316 
1 1315 12714 
2 6475 6476 
1 6475 12651 
2 12650 12651 
2 12649 12650 
1 1680 12649 
2 20825 20826 
2 11575 11576 
1 11575 20826 
2 11576 11577 
1 603 15120 
2 15119 15120 
2 6854 6855 
2 6853 6854 
1 6853 10050 
2 10049 10050 
2 9214 9215 
1 9214 14385 
2 14384 14385 
2 14383 14384 
2 10144 10145 
1 10144 14383 
2 9994 9995 
2 281 282 
2 9995 9996 
2 280 281 
1 280 7515 
2 7514 7515 
1 9996 14119 
2 14119 14120 
2 14120 14121 
2 4355 4356 
1 873 4354 
2 4354 4355 
2 9982 9983 
2 9983 9984 
2 478 479 
1 478 9982 
2 2929 2930 
1 2929 5262 
2 884 885 
2 12713 12714 
2 12712 12713 
1 1776 12712 
2 2930 2931 
2 883 884 
1 883 2931 
2 5818 5819 
1 5818 16711 
2 16711 16712 
2 1775 1776 
2 1679 1680 
2 1678 1679 
1 1678 19315 
2 19315 19316 
2 19316 19317 
2 5819 5820 
1 5820 20824 
2 20824 20825 
2 5708 5709 
1 19317 19371 
1 1890 15118 
2 15118 15119 
2 10048 10049 
2 1889 1890 
2 1888 1889 
1 1888 12924 
2 9043 9044 
1 9043 10048 
2 9044 9045 
1 3516 9045 
2 2006 2007 
1 2007 9216 
2 9215 9216 
2 7513 7514 
1 7513 10809 
2 19795 19796 
1 14121 16654 
2 10808 10809 
2 10807 10808 
1 10807 19795 
2 16654 16655 
2 16655 16656 
1 2550 16656 
2 871 872 
1 871 16942 
2 16943 16944 
2 16942 16943 
2 872 873 
3 12974 12975 
3 4043 4044 
3 5843 5844 
3 5842 5843 
3 218 219 
3 19454 19455 
3 12331 12332 
1 12331 19455 
3 19453 19454 
1 219 14562 
3 12973 12974 
1 12333 12973 
3 12332 12333 
1 717 4887 
3 716 717 
3 12358 12359 
3 4886 4887 
1 2955 12358 
3 4042 4043 
1 4042 4885 
3 8027 8028 
3 8026 8027 
3 4885 4886 
3 4315 4316 
1 4315 8028 
3 7303 7304 
1 7303 9631 
3 9631 9632 
3 15668 15669 
1 5844 15568 
3 7304 7305 
1 12471 15570 
3 15568 15569 
3 15569 15570 
3 15667 15668 
3 4172 4173 
3 4171 4172 
1 3099 4173 
3 5678 5679 
1 9345 11356 
3 11356 11357 
3 11357 11358 
3 14692 14693 
3 14561 14562 
3 14560 14561 
1 14560 14692 
3 14693 14694 
1 11358 19453 
3 11243 11244 
3 11242 11243 
3 2953 2954 
1 2953 11244 
3 9710 9711 
3 715 716 
1 715 9709 
3 9709 9710 
3 2954 2955 
3 20686 20687 
1 19851 20686 
1 456 9711 
2 19850 19851 
3 20687 20688 
1 20688 20977 
3 11837 11838 
3 11836 11837 
1 11838 19618 
2 19618 19619 
3 4316 4317 
3 8369 8370 
3 8368 8369 
1 4317 8368 
3 5762 5763 
3 5761 5762 
1 5761 9633 
3 9632 9633 
2 19619 19620 
2 16306 16307 
1 16306 18306 
1 15669 18231 
3 12470 12471 
3 21469 21470 
3 18305 18306 
3 18304 18305 
3 12469 12470 
1 12469 18304 
3 21470 21471 
1 3684 21471 
1 13599 18229 
3 13598 13599 
3 18229 18230 
3 18230 18231 
3 5677 5678 
1 5677 10129 
2 3097 3098 
1 3097 3757 
2 3098 3099 
2 3757 3758 
2 10129 10130 
2 10130 10131 
2 19441 19442 
2 15191 15192 
1 14694 15190 
2 15190 15191 
1 636 19441 
1 15192 21363 
2 635 636 
2 634 635 
1 634 11242 
2 19442 19443 
1 10131 14887 
2 14887 14888 
2 21362 21363 
2 1649 1650 
2 454 455 
1 454 10231 
2 455 456 
2 19849 19850 
1 19849 21282 
2 21281 21282 
2 21280 21281 
2 4849 4850 
1 4849 21280 
1 1926 20607 
2 1925 1926 
1 5763 13854 
1 8370 20394 
2 1924 1925 
1 1924 19620 
2 13853 13854 
2 13852 13853 
1 5136 13852 
2 20392 20393 
2 11923 11924 
1 11923 20392 
2 20393 20394 
2 5201 5202 
1 5202 16308 
2 16307 16308 
3 3683 3684 
3 3682 3683 
1 3682 8361 
2 8360 8361 
3 13597 13598 
1 13597 17448 
3 17447 17448 
3 17446 17447 
1 17446 21049 
2 21049 21050 
2 8359 8360 
1 8359 15391 
1 4146 14889 
2 4145 4146 
2 14888 14889 
2 15868 15869 
1 15868 19443 
2 15869 15870 
2 5639 5640 
2 5638 5639 
1 5638 21361 
2 21361 21362 
1 7923 15870 
2 17897 17898 
2 16849 16850 
1 16849 17898 
1 5640 18433 
2 18433 18434 
2 17896 17897 
1 1650 17896 
2 20423 20424 
2 20422 20423 
1 20422 20605 
2 4850 4851 
1 4851 17029 
2 17029 17030 
2 17030 17031 
2 20605 20606 
2 20606 20607 
2 11924 11925 
2 5135 5136 
2 5200 5201 
1 5200 14454 
1 1374 21072 
2 1373 1374 
2 5134 5135 
2 1372 1373 
1 1372 11925 
1 30 5134 
2 29 30 
2 14452 14453 
1 14452 20782 
2 20782 20783 
2 14453 14454 
2 28 29 
1 28 7935 
2 15391 15392 
2 21050 21051 
2 15392 15393 
1 3459 15393 
2 3458 3459 
2 4550 4551 
2 15650 15651 
2 15649 15650 
1 15649 21051 
2 19100 19101 
2 4549 4550 
1 4549 19099 
2 19099 19100 
2 20099 20100 
2 4144 4145 
1 4144 9984 
2 8413 8414 
1 8413 20571 
2 8414 8415 
2 1240 1241 
1 1240 20652 
2 18434 18435 
2 14237 14238 
1 18435 20100 
2 1241 1242 
2 7922 7923 
2 7921 7922 
1 7921 14238 
1 1242 16851 
2 16850 16851 
2 14236 14237 
1 14236 19522 
2 19126 19127 
2 5707 5708 
1 5707 19126 
1 5709 20424 
2 3233 3234 
2 15163 15164 
1 15163 17031 
2 15164 15165 
1 3234 21070 
1 8043 15165 
2 21070 21071 
2 21071 21072 
2 8042 8043 
2 4246 4247 
1 4246 7549 
2 17095 17096 
2 20783 20784 
2 7934 7935 
2 7933 7934 
1 7933 15112 
2 15112 15113 
1 4248 20784 
2 4247 4248 
2 15113 15114 
1 2847 17095 
2 2846 2847 
2 271 272 
1 271 4551 
2 3457 3458 
2 2845 2846 
1 2845 3457 
2 272 273 
1 273 10926 
1 8337 10710 
2 8335 8336 
1 8335 15651 
2 8336 8337 
2 10709 10710 
2 10925 10926 
3 11704 11705 
3 6041 6042 
3 6040 6041 
1 6040 6844 
1 6042 7114 
2 17834 17835 
1 3474 17835 
2 17833 17834 
3 217 218 
1 217 11706 
3 11705 11706 
1 6546 12655 
3 6545 6546 
3 6544 6545 
3 12655 12656 
3 12359 12360 
3 6844 6845 
1 6846 12360 
3 6845 6846 
1 1983 21333 
3 1982 1983 
3 20978 20979 
3 6721 6722 
1 6721 20979 
3 6722 6723 
3 2422 2423 
1 2422 9909 
3 19406 19407 
3 9908 9909 
3 19405 19406 
3 9907 9908 
3 3473 3474 
3 1106 1107 
3 3472 3473 
1 1107 3472 
3 21089 21090 
2 10319 10320 
1 10320 12657 
3 12656 12657 
2 18511 18512 
1 18511 21088 
3 21088 21089 
3 21332 21333 
3 21331 21332 
1 19011 21331 
2 19010 19011 
2 19009 19010 
1 18660 19009 
3 2423 2424 
1 1818 19405 
3 20977 20978 
3 1817 1818 
1 2424 17695 
2 17695 17696 
2 17696 17697 
3 1816 1817 
1 1816 16101 
1 13311 17697 
2 16100 16101 
3 3400 3401 
2 2522 2523 
2 2521 2522 
1 2521 3400 
3 1105 1106 
1 1105 7336 
3 7336 7337 
3 7337 7338 
1 7338 9969 
1 3402 16614 
3 3401 3402 
2 3758 3759 
1 3759 14638 
3 14638 14639 
1 6258 15040 
2 15040 15041 
2 6257 6258 
2 10318 10319 
1 10318 16272 
2 18512 18513 
2 16271 16272 
2 16270 16271 
1 747 16270 
2 6256 6257 
1 6256 18513 
2 746 747 
2 1648 1649 
1 1648 18658 
2 18658 18659 
2 18659 18660 
3 12820 12821 
2 19147 19148 
3 12821 12822 
2 19148 19149 
2 5992 5993 
1 5992 12822 
1 9900 17362 
2 17362 17363 
2 9899 9900 
2 9898 9899 
1 9898 16099 
2 16099 16100 
2 13310 13311 
2 13309 13310 
1 1104 13309 
2 1103 1104 
2 19684 19685 
2 4495 4496 
1 4495 19684 
2 19685 19686 
1 2523 19686 
3 4208 4209 
2 9968 9969 
2 21355 21356 
2 21356 21357 
2 9967 9968 
1 9967 21357 
3 4207 4208 
1 4207 10188 
2 9526 9527 
1 9526 21355 
1 4209 19725 
3 14639 14640 
1 14640 15345 
2 15344 15345 
1 9402 15042 
2 9401 9402 
2 15041 15042 
2 745 746 
1 745 10968 
2 10967 10968 
2 10966 10967 
1 1515 17020 
2 21380 21381 
2 2599 2600 
1 2599 10966 
2 17021 17022 
2 17020 17021 
1 5994 21381 
2 18325 18326 
1 18325 19149 
2 18326 18327 
2 17363 17364 
2 5993 5994 
1 5430 17364 
1 10722 18327 
2 5429 5430 
2 1102 1103 
1 1102 12682 
2 4496 4497 
2 12682 12683 
2 12683 12684 
1 12684 16209 
1 4497 17076 
2 17075 17076 
2 20147 20148 
2 17074 17075 
1 11979 17074 
2 20146 20147 
1 9528 20146 
2 9527 9528 
2 262 263 
1 255 262 
2 10187 10188 
2 10186 10187 
1 10186 13201 
3 13201 13202 
3 13202 13203 
2 254 255 
1 8415 15343 
2 15343 15344 
2 9400 9401 
2 6274 6275 
1 6274 18537 
1 6276 9400 
2 6275 6276 
2 1222 1223 
1 1222 12861 
2 2600 2601 
1 2601 7609 
2 7609 7610 
2 16082 16083 
1 16083 17022 
2 1223 1224 
2 7610 7611 
1 1224 21379 
2 21379 21380 
2 16081 16082 
2 11011 11012 
1 11011 16081 
2 17621 17622 
2 10721 10722 
2 5428 5429 
1 5428 13387 
2 637 638 
1 637 10720 
2 638 639 
2 10720 10721 
2 13387 13388 
2 13388 13389 
1 13389 17622 
1 639 13275 
2 16208 16209 
2 10948 10949 
1 7095 19591 
2 19591 19592 
1 8271 20148 
2 16207 16208 
1 16207 19593 
2 19592 19593 
2 8269 8270 
1 8269 19236 
2 8270 8271 
2 11977 11978 
1 11977 18363 
2 11978 11979 
2 18362 18363 
1 10950 18399 
2 18398 18399 
2 10949 10950 
1 4206 11146 
2 263 264 
2 11665 11666 
1 11665 13203 
2 8584 8585 
1 264 8584 
2 11666 11667 
1 5778 11667 
2 5777 5778 
2 8585 8586 
2 11146 11147 
2 11147 11148 
2 1469 1470 
1 5469 17860 
2 1463 1464 
1 1470 17862 
2 7115 7116 
2 17861 17862 
2 17860 17861 
2 1468 1469 
2 7114 7115 
2 383 384 
3 6472 6473 
3 6473 6474 
1 6474 12430 
2 5467 5468 
1 5467 6472 
2 1462 1463 
1 1462 3889 
1 3891 19318 
3 19318 19319 
3 3890 3891 
3 3889 3890 
3 1981 1982 
1 1981 2067 
2 5468 5469 
2 2066 2067 
2 2065 2066 
1 2065 17274 
2 17273 17274 
3 15026 15027 
3 15025 15026 
2 382 383 
1 382 15025 
3 8665 8666 
1 8665 15027 
2 4928 4929 
1 4929 10693 
3 16613 16614 
3 16612 16613 
3 2173 2174 
3 10693 10694 
3 12430 12431 
3 12431 12432 
1 1626 12432 
2 1625 1626 
3 19309 19310 
3 19319 19320 
3 19310 19311 
1 19311 19320 
2 12647 12648 
2 14495 14496 
2 12646 12647 
1 2901 12646 
1 14496 17451 
1 15495 20145 
3 8666 8667 
1 8667 16065 
2 16064 16065 
2 16063 16064 
3 2174 2175 
2 7198 7199 
1 7198 10626 
2 10625 10626 
2 11861 11862 
1 10695 11862 
1 2175 10624 
2 10624 10625 
3 10694 10695 
2 3943 3944 
1 3943 9936 
2 8741 8742 
2 8740 8741 
1 8740 18132 
1 8742 19309 
2 18131 18132 
2 4201 4202 
2 1624 1625 
1 1624 4201 
2 4202 4203 
1 4203 13330 
2 10528 10529 
2 10529 10530 
2 13330 13331 
2 14494 14495 
1 10530 14494 
2 3169 3170 
1 3169 10528 
2 2900 2901 
2 2899 2900 
1 2899 16561 
2 16561 16562 
2 16688 16689 
2 16687 16688 
1 16687 17545 
2 16562 16563 
2 15493 15494 
1 15493 16689 
2 12214 12215 
1 12214 16063 
2 12215 12216 
2 5527 5528 
1 5527 7200 
2 5528 5529 
1 12216 12367 
2 12367 12368 
2 7199 7200 
2 12368 12369 
2 5453 5454 
2 3944 3945 
2 11860 11861 
1 11860 18862 
2 14341 14342 
1 14341 18864 
2 18863 18864 
2 18862 18863 
1 3945 5668 
2 5668 5669 
2 5669 5670 
2 14342 14343 
1 5670 19627 
2 19627 19628 
1 5454 9777 
2 18779 18780 
2 18130 18131 
2 1513 1514 
1 1513 18130 
2 1514 1515 
1 13332 18780 
2 13331 13332 
2 3170 3171 
1 3171 11607 
2 11606 11607 
2 17545 17546 
1 14355 20565 
1 16563 19293 
2 19292 19293 
2 6583 6584 
1 6583 17547 
2 17546 17547 
2 14354 14355 
2 19291 19292 
2 6584 6585 
2 7825 7826 
1 7825 19291 
2 14353 14354 
2 1811 1812 
1 5529 21213 
2 18397 18398 
2 1966 1967 
1 1966 18397 
1 12369 14353 
1 19215 21211 
2 21212 21213 
2 21211 21212 
2 19214 19215 
2 3521 3522 
2 1810 1811 
1 1810 3522 
2 16546 16547 
2 5452 5453 
1 5452 16546 
1 45 15153 
2 15152 15153 
2 15151 15152 
2 16721 16722 
2 1967 1968 
1 1968 14343 
1 16722 19629 
2 19628 19629 
2 17344 17345 
1 16548 17344 
2 16547 16548 
2 13757 13758 
2 17630 17631 
1 13758 17631 
2 18778 18779 
1 7104 18778 
1 1455 7102 
2 7102 7103 
2 7103 7104 
2 11605 11606 
1 5727 11605 
2 5726 5727 
2 5725 5726 
1 5725 20679 
2 18422 18423 
1 1752 18423 
2 16999 17000 
2 11843 11844 
2 11842 11843 
1 7827 11842 
2 17000 17001 
1 231 12885 
2 20564 20565 
2 20563 20564 
2 12884 12885 
2 12883 12884 
1 17001 20563 
2 7826 7827 
1 6585 12883 
1 1812 18421 
2 18421 18422 
2 12920 12921 
2 2735 2736 
2 10135 10136 
2 71 72 
2 12919 12920 
2 70 71 
1 70 19213 
1 72 10135 
2 2734 2735 
1 2734 12919 
2 19213 19214 
1 12921 16720 
2 5440 5441 
1 5440 7506 
2 16720 16721 
1 14058 21261 
2 7505 7506 
2 17345 17346 
2 7504 7505 
1 7504 15151 
2 21259 21260 
1 17346 21259 
2 21260 21261 
2 5441 5442 
2 434 435 
2 8758 8759 
1 435 8758 
2 8759 8760 
1 8760 18769 
2 18989 18990 
2 4159 4160 
1 4159 18990 
1 4161 20337 
2 4160 4161 
2 6193 6194 
1 6193 20118 
2 20336 20337 
2 20335 20336 
1 6774 20335 
2 6773 6774 
3 4616 4617 
2 6772 6773 
1 381 15232 
2 15232 15233 
2 380 381 
2 379 380 
1 379 14281 
2 14281 14282 
1 10443 15402 
2 15401 15402 
2 15233 15234 
1 4200 18562 
2 4199 4200 
2 2771 2772 
2 4198 4199 
2 2770 2771 
1 2770 4198 
2 15400 15401 
1 12291 15400 
2 12290 12291 
1 2772 19470 
2 12289 12290 
1 12289 20406 
2 433 434 
1 433 18988 
3 12413 12414 
2 16249 16250 
3 12412 12413 
1 12412 16249 
1 12414 16420 
2 16420 16421 
2 16421 16422 
1 3261 16830 
2 3260 3261 
2 21323 21324 
2 21322 21323 
2 20777 20778 
2 20776 20777 
1 20778 21322 
1 14727 20776 
2 16829 16830 
2 9539 9540 
2 9868 9869 
2 9538 9539 
1 9538 9868 
2 9869 9870 
2 16828 16829 
1 10980 16828 
1 9870 18060 
2 8567 8568 
2 8566 8567 
1 8566 21384 
1 8568 9324 
2 9323 9324 
2 18562 18563 
2 10442 10443 
2 10441 10442 
2 8938 8939 
1 8938 10441 
1 9498 15234 
2 9497 9498 
2 9496 9497 
2 2515 2516 
1 2515 9496 
1 8940 13932 
2 8939 8940 
2 2516 2517 
2 9991 9992 
1 9991 13155 
2 9992 9993 
2 18563 18564 
1 9993 18564 
2 18988 18989 
2 16250 16251 
1 11946 16251 
2 11945 11946 
2 11944 11945 
1 11944 12228 
1 6657 15358 
2 15359 15360 
2 15358 15359 
2 11863 11864 
2 4702 4703 
1 4702 11863 
2 3259 3260 
1 3259 15360 
2 6656 6657 
2 14726 14727 
2 14725 14726 
1 14725 21514 
2 21515 21516 
2 21514 21515 
1 4470 9540 
2 20188 20189 
1 20188 21516 
2 4469 4470 
2 4468 4469 
1 4468 20262 
2 20261 20262 
2 20260 20261 
2 21383 21384 
2 19771 19772 
1 19771 21382 
2 21382 21383 
2 19772 19773 
2 13931 13932 
2 13930 13931 
1 13930 20116 
2 20116 20117 
2 9311 9312 
1 9312 13726 
2 13726 13727 
1 2517 9310 
2 9310 9311 
1 10473 13153 
2 20117 20118 
2 13153 13154 
2 13154 13155 
2 10472 10473 
2 13727 13728 
2 10471 10472 
1 10471 20668 
2 20668 20669 
2 12227 12228 
2 12226 12227 
1 12226 18732 
2 18731 18732 
2 1504 1505 
1 1504 18730 
2 18730 18731 
2 4703 4704 
2 1505 1506 
2 18319 18320 
1 18288 18319 
1 18321 20190 
2 18320 18321 
2 6655 6656 
1 6655 13144 
2 13144 13145 
2 13145 13146 
2 20189 20190 
2 3946 3947 
1 3946 13146 
2 3947 3948 
1 8547 20260 
2 8546 8547 
2 8545 8546 
2 5627 5628 
2 5626 5627 
1 480 5626 
2 479 480 
1 1344 5628 
2 5339 5340 
2 5260 5261 
1 5260 5340 
2 19670 19671 
1 2934 19671 
2 19669 19670 
2 1774 1775 
1 1774 19669 
2 5261 5262 
1 3906 21033 
2 21032 21033 
2 21031 21032 
1 16713 21031 
2 5338 5339 
1 5338 9322 
2 16712 16713 
2 2933 2934 
2 15500 15501 
2 15499 15500 
1 15499 19369 
2 19369 19370 
2 19370 19371 
1 4407 4852 
2 4852 4853 
2 4853 4854 
1 4854 19128 
2 1814 1815 
1 1815 7416 
2 1813 1814 
1 1813 12922 
2 12922 12923 
2 14491 14492 
1 1128 14491 
2 1127 1128 
2 1126 1127 
1 1126 3514 
2 3157 3158 
1 3157 17859 
2 17858 17859 
2 3158 3159 
2 3514 3515 
2 3515 3516 
2 2005 2006 
1 2005 3159 
2 12923 12924 
2 6616 6617 
1 6616 16944 
2 6617 6618 
1 17895 19797 
2 17894 17895 
2 17893 17894 
1 17893 18103 
3 18103 18104 
2 2549 2550 
2 2611 2612 
2 2548 2549 
1 2548 2611 
2 2612 2613 
1 2613 20410 
2 20410 20411 
1 6618 8316 
2 19796 19797 
2 8315 8316 
2 9292 9293 
2 1342 1343 
1 1342 9292 
2 1343 1344 
2 9293 9294 
1 9294 17734 
3 17734 17735 
2 13165 13166 
1 13165 19585 
2 13166 13167 
3 17735 17736 
2 9322 9323 
2 3905 3906 
2 2932 2933 
1 2932 19587 
2 3904 3905 
1 3904 17206 
2 17207 17208 
2 19586 19587 
2 17206 17207 
2 19585 19586 
1 17208 19251 
2 7967 7968 
1 7968 15685 
2 15685 15686 
2 15686 15687 
1 15687 19464 
2 12580 12581 
1 12580 15501 
2 4406 4407 
2 12581 12582 
2 4336 4337 
1 4336 12582 
2 4337 4338 
1 4338 9253 
2 9137 9138 
2 9136 9137 
2 4405 4406 
1 4405 9136 
2 9454 9455 
1 9138 9454 
2 19108 19109 
2 15706 15707 
1 15706 19108 
2 15707 15708 
1 14493 15708 
2 11864 11865 
2 17857 17858 
2 14492 14493 
2 7414 7415 
1 7414 11865 
2 7415 7416 
2 15370 15371 
1 15370 17857 
2 15371 15372 
1 987 15372 
2 986 987 
2 985 986 
1 985 4402 
3 18104 18105 
1 5835 21535 
2 21535 21536 
2 8314 8315 
1 8314 8685 
1 18105 21537 
2 21536 21537 
3 8684 8685 
3 8683 8684 
1 8683 14457 
2 14456 14457 
2 20411 20412 
2 8179 8180 
1 8179 20412 
2 4555 4556 
1 4555 8181 
2 8180 8181 
2 16201 16202 
2 12443 12444 
2 12442 12443 
1 12442 17736 
1 16242 16708 
2 16708 16709 
2 16709 16710 
2 16241 16242 
2 16202 16203 
1 13167 16710 
2 16240 16241 
1 12603 16201 
2 19250 19251 
1 7203 16203 
2 19249 19250 
1 6087 19249 
2 6086 6087 
2 6085 6086 
1 6085 18516 
2 19109 19110 
2 9253 9254 
2 9455 9456 
2 9254 9255 
1 9255 10305 
2 10304 10305 
2 17434 17435 
2 3346 3347 
1 3346 17434 
2 5851 5852 
1 5851 13020 
2 5852 5853 
1 5853 19110 
2 3347 3348 
1 3348 9456 
2 10303 10304 
1 10303 17115 
2 13019 13020 
2 2284 2285 
1 2284 7851 
2 7850 7851 
2 7849 7850 
1 4704 7849 
2 4402 4403 
2 2567 2568 
2 2566 2567 
1 2566 4404 
2 4403 4404 
2 15532 15533 
1 4668 15532 
2 4667 4668 
2 4666 4667 
1 4666 5833 
2 5833 5834 
1 2568 8331 
2 5335 5336 
1 5335 20227 
1 1494 8545 
2 5834 5835 
2 14455 14456 
1 14455 16324 
2 16324 16325 
2 1493 1494 
2 16325 16326 
3 9580 9581 
1 9580 16326 
2 4556 4557 
3 9581 9582 
1 4557 20229 
2 1492 1493 
1 1492 12055 
2 20227 20228 
2 20228 20229 
3 12055 12056 
2 20135 20136 
1 20136 20569 
2 20569 20570 
1 4536 14247 
2 20570 20571 
2 14246 14247 
2 14245 14246 
1 14245 20098 
2 20098 20099 
2 20134 20135 
2 523 524 
1 523 20134 
2 4535 4536 
2 11669 11670 
2 11668 11669 
2 19463 19464 
2 19462 19463 
1 19462 19524 
2 19523 19524 
2 19522 19523 
2 5579 5580 
2 5578 5579 
1 5578 20650 
2 20651 20652 
2 20650 20651 
1 5580 12028 
2 3107 3108 
2 3106 3107 
1 3106 12853 
2 12853 12854 
2 12028 12029 
2 3232 3233 
1 3232 21130 
2 19127 19128 
2 12854 12855 
2 21131 21132 
1 5754 21132 
2 8041 8042 
1 8041 12855 
2 21130 21131 
2 5753 5754 
2 6076 6077 
1 6076 18904 
2 18904 18905 
2 18905 18906 
2 13273 13274 
1 13273 18906 
2 16601 16602 
2 8716 8717 
1 8716 16602 
2 8717 8718 
2 12907 12908 
1 9231 12907 
2 9230 9231 
2 7550 7551 
1 7551 21372 
2 21371 21372 
2 16600 16601 
2 21370 21371 
2 9229 9230 
1 9229 17097 
2 17096 17097 
1 15114 16600 
2 20768 20769 
2 7549 7550 
2 3763 3764 
2 13903 13904 
2 4891 4892 
1 4891 20769 
2 4892 4893 
2 10708 10709 
1 4893 10708 
2 3764 3765 
2 8231 8232 
2 7298 7299 
2 7297 7298 
1 7297 8232 
2 8230 8231 
1 8230 10924 
2 10924 10925 
2 6931 6932 
1 6931 13903 
1 888 3763 
2 20056 20057 
1 7905 20056 
2 20057 20058 
2 12991 12992 
1 12991 19918 
2 4534 4535 
1 4534 19920 
2 19919 19920 
2 19918 19919 
1 525 20058 
2 524 525 
2 6226 6227 
3 7904 7905 
2 12992 12993 
2 7966 7967 
2 12029 12030 
1 12030 21151 
2 21151 21152 
2 21152 21153 
2 9802 9803 
1 9802 20076 
2 9803 9804 
2 20075 20076 
2 13261 13262 
2 4618 4619 
1 4618 13261 
2 20074 20075 
1 3108 20074 
2 13262 13263 
2 11308 11309 
1 11308 21153 
1 6078 13263 
2 6077 6078 
2 5752 5753 
1 5752 14272 
2 14272 14273 
2 14273 14274 
1 15 14274 
2 14 15 
2 19961 19962 
2 19960 19961 
2 16678 16679 
1 16678 19960 
2 11467 11468 
2 10894 10895 
1 10894 11467 
1 642 21370 
1 8718 16680 
2 16679 16680 
2 12908 12909 
2 6320 6321 
2 7261 7262 
1 6321 7261 
2 6319 6320 
1 6319 12909 
2 641 642 
2 11468 11469 
2 640 641 
1 640 11469 
2 20767 20768 
1 12396 20767 
2 12395 12396 
2 12394 12395 
2 4108 4109 
1 4108 12394 
2 4109 4110 
2 13904 13905 
1 5151 13905 
2 7841 7842 
1 3765 7842 
2 16115 16116 
1 6180 7299 
2 6179 6180 
2 6178 6179 
1 6178 6492 
2 6491 6492 
2 7840 7841 
1 7840 16116 
2 5149 5150 
1 5149 12190 
2 5150 5151 
2 12190 12191 
2 18722 18723 
2 15058 15059 
1 15058 18721 
2 18721 18722 
2 15059 15060 
3 7903 7904 
1 7903 18723 
1 2436 12993 
2 2435 2436 
2 2434 2435 
1 2434 14947 
2 14947 14948 
2 16508 16509 
2 5498 5499 
2 5497 5498 
1 5497 16509 
2 7096 7097 
1 7096 16507 
2 14948 14949 
2 16507 16508 
2 7202 7203 
2 7201 7202 
1 7201 7966 
1 9804 20506 
2 2887 2888 
1 2887 4866 
2 15614 15615 
2 11309 11310 
2 20506 20507 
2 4864 4865 
1 4864 11310 
2 20507 20508 
1 20508 21501 
2 4865 4866 
2 15613 15614 
1 4620 15613 
2 4619 4620 
2 21500 21501 
1 15615 15813 
2 11287 11288 
1 4020 11287 
2 11288 11289 
1 2445 21396 
2 13 14 
1 13 4195 
2 4195 4196 
2 4196 4197 
1 4197 19929 
2 19928 19929 
2 2443 2444 
1 2443 10896 
2 2444 2445 
2 4019 4020 
2 4018 4019 
1 4018 19962 
2 10895 10896 
2 8734 8735 
2 7262 7263 
1 4347 7263 
2 4346 4347 
2 4345 4346 
1 4345 8734 
2 10802 10803 
1 4110 10801 
2 10801 10802 
1 2211 10803 
2 2210 2211 
2 16114 16115 
2 11621 11622 
2 9052 9053 
1 9052 16114 
2 6490 6491 
2 5989 5990 
1 5989 6490 
2 5990 5991 
1 5991 11622 
2 9053 9054 
2 20711 20712 
2 12191 12192 
1 12192 20710 
2 20710 20711 
2 6628 6629 
1 6628 20712 
2 17339 17340 
2 18535 18536 
2 3449 3450 
2 3448 3449 
1 3448 19492 
2 19492 19493 
1 3450 18535 
2 20560 20561 
1 9468 20560 
2 3628 3629 
1 3628 17340 
2 19493 19494 
2 18536 18537 
2 9467 9468 
2 3629 3630 
2 18679 18680 
2 18680 18681 
2 12859 12860 
1 12859 18679 
1 3630 7611 
2 11012 11013 
2 9466 9467 
1 9466 11013 
1 11487 18681 
2 11486 11487 
2 9811 9812 
2 12860 12861 
2 13274 13275 
2 17620 17621 
2 15427 15428 
1 15427 17620 
2 15428 15429 
2 4517 4518 
1 4518 17226 
1 13323 16980 
2 4714 4715 
1 4714 15429 
2 13322 13323 
2 4715 4716 
2 4516 4517 
1 4516 7093 
2 7093 7094 
2 16979 16980 
2 7094 7095 
2 18361 18362 
2 9268 9269 
1 9268 10948 
2 16978 16979 
1 16978 18361 
1 7125 19234 
2 7124 7125 
2 7123 7124 
2 1321 1322 
1 1321 7123 
2 19234 19235 
2 9269 9270 
2 19235 19236 
2 13406 13407 
2 4135 4136 
1 4135 4204 
2 8390 8391 
2 8389 8390 
1 8389 13407 
2 16565 16566 
2 16564 16565 
2 12895 12896 
1 12895 16564 
2 4136 4137 
2 3640 3641 
1 3640 4137 
2 4204 4205 
2 12896 12897 
2 4205 4206 
2 5776 5777 
1 5776 8391 
1 8586 16566 
2 2833 2834 
1 2833 6226 
2 6227 6228 
2 2834 2835 
2 17338 17339 
1 2835 17338 
2 412 413 
1 412 21408 
2 413 414 
1 414 19494 
2 15782 15783 
2 15781 15782 
1 15781 20562 
2 268 269 
1 268 15783 
2 20561 20562 
2 21407 21408 
2 11485 11486 
1 11485 15261 
2 15260 15261 
1 6357 10566 
2 15259 15260 
1 15259 19786 
2 19786 19787 
2 10565 10566 
2 19787 19788 
2 8435 8436 
1 8436 15489 
2 10564 10565 
1 10564 10828 
2 10828 10829 
2 6355 6356 
1 6355 9813 
2 6356 6357 
2 15488 15489 
2 17225 17226 
2 13321 13322 
1 13321 16812 
2 15487 15488 
1 4716 15487 
2 17224 17225 
1 17224 19212 
2 19211 19212 
2 16811 16812 
2 16810 16811 
2 13114 13115 
1 13114 16810 
2 19210 19211 
2 13115 13116 
2 10054 10055 
1 10054 19210 
2 1322 1323 
2 13405 13406 
1 1323 2238 
2 2237 2238 
2 2236 2237 
2 1630 1631 
1 1630 2236 
2 19277 19278 
1 5244 19278 
2 19276 19277 
2 1631 1632 
2 5243 5244 
2 5242 5243 
1 5242 13405 
2 12962 12963 
1 12963 14344 
2 14344 14345 
2 14345 14346 
1 11109 12897 
2 11108 11109 
2 11107 11108 
1 11107 11971 
2 11971 11972 
2 11972 11973 
1 3642 19738 
2 3641 3642 
2 19738 19739 
2 19739 19740 
1 18162 19740 
2 157 158 
1 157 10336 
2 10336 10337 
1 16350 18265 
2 18265 18266 
2 18266 18267 
1 18267 21406 
2 16349 16350 
1 5499 6228 
2 21406 21407 
2 5654 5655 
2 269 270 
2 5653 5654 
1 270 5653 
1 5655 7728 
2 3055 3056 
1 3055 7510 
2 7510 7511 
2 4114 4115 
2 7511 7512 
2 931 932 
1 931 4114 
2 2314 2315 
1 2314 3918 
2 2315 2316 
1 2316 19788 
2 932 933 
2 8434 8435 
1 933 8434 
1 7512 10830 
2 10829 10830 
2 4115 4116 
2 3917 3918 
1 13116 14103 
2 10055 10056 
2 3632 3633 
2 4118 4119 
1 4119 10056 
2 14101 14102 
1 3633 14101 
2 14102 14103 
2 4117 4118 
2 1870 1871 
1 1870 4117 
2 19400 19401 
1 6591 19401 
2 6590 6591 
2 6589 6590 
1 1632 6589 
2 10780 10781 
1 10780 19276 
2 15803 15804 
1 10782 15802 
2 15802 15803 
2 10781 10782 
2 19577 19578 
2 6995 6996 
1 159 6994 
2 6994 6995 
2 6664 6665 
2 565 566 
1 565 11973 
1 6666 18160 
2 19576 19577 
1 6996 19576 
1 567 16645 
2 566 567 
2 16645 16646 
2 16646 16647 
2 3037 3038 
1 3037 6664 
2 18160 18161 
2 18161 18162 
2 6665 6666 
2 158 159 
2 14671 14672 
1 14671 17629 
2 4642 4643 
1 261 4642 
2 260 261 
2 259 260 
1 259 1453 
2 13271 13272 
2 13270 13271 
1 13270 14673 
2 1453 1454 
2 14672 14673 
2 1454 1455 
2 17629 17630 
2 9812 9813 
1 3168 9811 
2 3167 3168 
2 9245 9246 
1 9246 20677 
2 20677 20678 
2 9244 9245 
1 9244 18591 
2 20618 20619 
2 20617 20618 
1 20617 20983 
2 20983 20984 
2 229 230 
1 229 20619 
2 230 231 
2 18590 18591 
2 20678 20679 
2 3166 3167 
1 3166 11844 
2 1751 1752 
1 15762 16999 
2 16490 16491 
2 15761 15762 
2 15760 15761 
2 10387 10388 
1 10387 15760 
2 10388 10389 
1 3297 14172 
1 10389 18720 
2 1750 1751 
1 1750 16489 
2 16489 16490 
1 948 16491 
2 14171 14172 
2 5723 5724 
1 5724 9270 
2 14170 14171 
1 10137 14170 
2 10136 10137 
1 2736 16701 
2 16700 16701 
2 16699 16700 
1 8193 16699 
2 5722 5723 
1 5722 12961 
2 8192 8193 
1 6417 21346 
2 21346 21347 
2 14057 14058 
1 5442 21222 
2 21347 21348 
2 8900 8901 
2 21221 21222 
1 8901 21220 
1 9966 21348 
2 15347 15348 
2 14056 14057 
1 14056 15348 
2 15346 15347 
1 13176 15346 
2 9965 9966 
2 21220 21221 
2 8899 8900 
1 237 7158 
2 4643 4644 
3 1030 1031 
1 1030 13272 
2 235 236 
1 235 18486 
2 5837 5838 
2 5836 5837 
1 4644 5836 
2 15512 15513 
2 15511 15512 
1 5838 15511 
3 1031 1032 
1 1032 10477 
2 10477 10478 
1 8154 13653 
2 8153 8154 
2 13652 13653 
2 13651 13652 
1 13651 18589 
2 236 237 
2 10478 10479 
2 18589 18590 
2 20984 20985 
1 20985 21267 
2 21266 21267 
2 21265 21266 
2 3868 3869 
1 3868 21265 
2 3869 3870 
2 9463 9464 
1 9463 16638 
1 2280 15099 
2 16637 16638 
2 16636 16637 
1 16636 18718 
2 18718 18719 
2 15098 15099 
2 18719 18720 
2 5165 5166 
2 3295 3296 
1 3295 5166 
2 3296 3297 
2 5164 5165 
1 5164 11025 