ITEM: TIMESTEP
100000000
ITEM: NUMBER OF ENTRIES
7443
ITEM: BOX BOUNDS pp pp pp
0 50
0 50
0 50
ITEM: ENTRIES c_binfo[1] c_binfo[2] c_binfo[3] 
3 11815 11816 
3 11816 11817 
2 13787 13788 
2 13786 13787 
2 14773 14774 
3 16768 16769 
3 16769 16770 
1 15423 16768 
3 6997 6998 
1 6997 11817 
3 6998 6999 
2 14774 14775 
3 20524 20525 
1 14775 20524 
3 20525 20526 
3 7645 7646 
1 7645 13788 
3 7646 7647 
1 7647 15961 
2 15961 15962 
2 15962 15963 
2 130 131 
2 131 132 
1 2646 15963 
2 2332 2333 
3 5936 5937 
3 5935 5936 
1 5935 20526 
1 132 6562 
3 6562 6563 
3 6563 6564 
2 1285 1286 
1 1285 6564 
2 15485 15486 
2 2645 2646 
2 12188 12189 
2 2644 2645 
1 2644 12189 
2 12187 12188 
1 12187 20439 
2 15484 15485 
2 3340 3341 
1 3340 15484 
2 3341 3342 
2 12686 12687 
2 2333 2334 
1 2334 18418 
3 17887 17888 
2 18418 18419 
2 18419 18420 
3 17888 17889 
1 4281 18420 
3 17081 17082 
3 17080 17081 
1 17080 17977 
3 18940 18941 
3 895 896 
1 895 17082 
3 896 897 
3 18941 18942 
1 8250 18942 
2 16492 16493 
2 16493 16494 
1 15984 16494 
2 15983 15984 
3 11036 11037 
1 9921 11035 
3 11035 11036 
2 9920 9921 
3 8249 8250 
3 12425 12426 
3 12424 12425 
1 12424 14943 
2 6163 6164 
2 6164 6165 
2 1286 1287 
1 6165 20017 
2 20017 20018 
1 1287 19255 
2 19255 19256 
2 19256 19257 
2 12685 12686 
1 12685 17596 
2 17596 17597 
2 17597 17598 
1 17598 21073 
2 21073 21074 
2 578 579 
1 579 3342 
2 577 578 
1 577 20535 
2 20438 20439 
2 13912 13913 
1 13912 20437 
2 20437 20438 
1 13914 16312 
2 13913 13914 
2 14275 14276 
1 14275 17889 
2 14276 14277 
2 13951 13952 
1 13951 14277 
2 4280 4281 
1 897 6487 
3 6487 6488 
3 6488 6489 
1 1440 6489 
2 1439 1440 
2 13129 13130 
2 21272 21273 
2 21271 21272 
1 9666 21273 
2 137 138 
1 138 15982 
2 15982 15983 
2 136 137 
1 136 6051 
2 19901 19902 
2 9919 9920 
1 9919 19900 
2 19900 19901 
2 17440 17441 
1 17440 19902 
3 8248 8249 
1 8248 19003 
2 19003 19004 
2 16960 16961 
1 16960 19005 
2 19004 19005 
1 12426 16255 
2 16255 16256 
2 16961 16962 
2 16256 16257 
2 18440 18441 
2 20878 20879 
1 16257 20878 
2 20018 20019 
2 4637 4638 
1 4638 20019 
2 4636 4637 
2 1054 1055 
1 1054 4636 
2 12832 12833 
1 12832 19713 
2 12833 12834 
1 12834 19257 
2 14645 14646 
1 14646 21075 
2 21074 21075 
2 20534 20535 
2 10831 10832 
1 10831 20533 
2 20533 20534 
2 10832 10833 
1 10833 16375 
2 14644 14645 
1 14644 19242 
2 16312 16313 
2 13952 13953 
1 13953 15897 
2 15896 15897 
2 15895 15896 
2 20938 20939 
2 20939 20940 
2 1438 1439 
1 1438 5022 
2 13130 13131 
1 10818 13131 
2 10817 10818 
2 5021 5022 
2 8927 8928 
2 8926 8927 
2 5020 5021 
1 2160 5020 
2 9665 9666 
2 9664 9665 
1 9664 9918 
2 9917 9918 
2 9916 9917 
1 9916 18459 
3 17026 17027 
1 17026 20940 
2 19526 19527 
2 19525 19526 
1 16962 19525 
1 4071 19527 
2 1055 1056 
2 16126 16127 
1 1056 16126 
2 16127 16128 
2 6050 6051 
2 6049 6050 
1 6049 7852 
3 7852 7853 
3 7853 7854 
2 7816 7817 
1 7816 19240 
2 19241 19242 
2 19240 19241 
2 7817 7818 
2 16375 16376 
2 16376 16377 
3 12076 12077 
1 12076 16377 
3 12077 12078 
2 5897 5898 
2 5896 5897 
1 5896 17442 
2 17441 17442 
2 14323 14324 
1 14323 15895 
2 14324 14325 
3 8560 8561 
1 8560 14325 
3 8561 8562 
2 3766 3767 
2 3767 3768 
2 8779 8780 
2 7384 7385 
1 7384 8779 
2 7385 7386 
1 7386 8928 
2 8780 8781 
2 13666 13667 
1 13666 18808 
2 13667 13668 
2 18808 18809 
3 17027 17028 
2 16618 16619 
1 16618 17028 
2 16619 16620 
2 10816 10817 
1 10816 17856 
2 17855 17856 
2 17854 17855 
2 4070 4071 
2 3484 3485 
1 3484 17854 
2 4069 4070 
2 2752 2753 
1 2752 4069 
2 2753 2754 
2 3485 3486 
2 2159 2160 
2 2158 2159 
1 2158 9106 
2 9106 9107 
1 16128 21583 
1 9108 14914 
2 14914 14915 
2 9107 9108 
2 18458 18459 
2 18457 18458 
1 18457 21105 
2 21583 21584 
2 21104 21105 
2 21584 21585 
1 13119 21585 
2 13118 13119 
2 21103 21104 
2 2140 2141 
1 2140 7854 
2 11722 11723 
1 2451 11722 
2 2141 2142 
1 450 2142 
2 2449 2450 
1 2449 7818 
2 2450 2451 
2 4487 4488 
2 4486 4487 
1 4486 12078 
1 4488 12934 
2 12934 12935 
2 449 450 
1 5808 5898 
2 5807 5808 
2 5806 5807 
1 5806 7059 
1 8562 16893 
2 16892 16893 
2 16891 16892 
1 16891 17175 
2 7058 7059 
3 7477 7478 
1 3768 7477 
2 4574 4575 
2 4573 4574 
1 4575 8781 
2 1162 1163 
1 1162 4573 
2 18809 18810 
3 7478 7479 
2 1411 1412 
1 1411 18810 
2 1412 1413 
1 7479 12717 
1 1413 4129 
2 10952 10953 
1 10953 11899 
2 11899 11900 
2 11900 11901 
2 3590 3591 
2 3589 3590 
2 284 285 
1 3486 15411 
2 15409 15410 
1 8895 15409 
2 15410 15411 
2 6677 6678 
2 6676 6677 
1 6676 14916 
1 6678 7269 
1 285 2754 
1 5850 10543 
2 14915 14916 
2 107 108 
1 108 21103 
2 106 107 
1 106 17523 
2 17522 17523 
2 13117 13118 
2 5848 5849 
1 5848 13117 
2 5849 5850 
2 10543 10544 
2 19031 19032 
2 11723 11724 
1 12936 17242 
2 3548 3549 
2 3547 3548 
2 448 449 
1 448 3547 
2 12935 12936 
1 3549 18561 
2 17242 17243 
2 17243 17244 
1 11724 19032 
2 19030 19031 
2 17933 17934 
2 7984 7985 
1 7984 17932 
2 17932 17933 
2 7057 7058 
1 7057 17934 
3 17174 17175 
1 16341 17173 
3 17173 17174 
2 16340 16341 
2 1163 1164 
1 1164 10651 
3 10651 10652 
3 10652 10653 
1 9768 10653 
2 4129 4130 
2 12716 12717 
2 12715 12716 
1 12715 17845 
3 17845 17846 
2 4130 4131 
3 17846 17847 
2 19814 19815 
3 1042 1043 
1 1042 19815 
2 19813 19814 
2 10951 10952 
1 10951 19813 
3 2053 2054 
1 2053 4131 
3 2054 2055 
3 1847 1848 
3 15925 15926 
2 8893 8894 
2 8894 8895 
3 1846 1847 
1 1846 8893 
2 7267 7268 
1 7267 15925 
2 7268 7269 
3 15926 15927 
2 12881 12882 
1 12882 17521 
2 17521 17522 
2 12880 12881 
1 12880 14001 
2 6541 6542 
1 6541 19030 
2 21532 21533 
1 10548 18216 
2 10547 10548 
2 12671 12672 
1 12672 18559 
2 18559 18560 
2 18560 18561 
2 10546 10547 
1 7335 17244 
2 12670 12671 
2 21533 21534 
2 7334 7335 
2 7333 7334 
1 7333 21532 
1 7986 10546 
2 7985 7986 
2 16339 16340 
2 8596 8597 
1 8596 16339 
2 8597 8598 
1 8376 8598 
2 8375 8376 
3 403 404 
1 403 11460 
3 4507 4508 
1 4507 21508 
3 4508 4509 
3 21508 21509 
3 21509 21510 
1 16245 17847 
3 16244 16245 
3 16243 16244 
1 16243 20389 
3 20389 20390 
3 20390 20391 
3 1043 1044 
1 2055 11598 
1 1044 6859 
3 6859 6860 
3 18074 18075 
3 18073 18074 
3 2962 2963 
1 2962 18073 
3 2963 2964 
1 2964 10288 
3 10288 10289 
3 9767 9768 
3 9766 9767 
3 7900 7901 
1 7900 9766 
3 2659 2660 
1 2659 12100 
3 2660 2661 
3 12100 12101 
1 2661 15927 
3 7901 7902 
3 11597 11598 
3 11596 11597 
1 3984 11596 
3 14000 14001 
3 13999 14000 
1 13999 21201 
3 21200 21201 
1 6861 9169 
3 21199 21200 
3 6860 6861 
3 9169 9170 
3 2161 2162 
1 2161 2617 
3 18215 18216 
3 18214 18215 
1 18214 20028 
3 20027 20028 
3 3754 3755 
1 3754 12670 
3 3755 3756 
1 3756 18099 
3 2618 2619 
3 18098 18099 
1 2619 21534 
3 2617 2618 
3 4945 4946 
1 4945 8374 
3 4946 4947 
2 8374 8375 
1 4947 9639 
3 12556 12557 
1 12556 21510 
3 3235 3236 
1 3235 12558 
3 12557 12558 
3 11341 11342 
3 3236 3237 
3 404 405 
1 405 11343 
3 11342 11343 
1 13764 20391 
3 13763 13764 
3 13762 13763 
1 13762 18670 
3 18670 18671 
3 10289 10290 
1 10290 15964 
3 15964 15965 
3 15965 15966 
1 15966 17172 
3 7616 7617 
3 9478 9479 
1 7617 12102 
3 8219 8220 
3 8218 8219 
1 8218 9478 
1 7902 10116 
3 10114 10115 
1 10114 21228 
3 10115 10116 
3 12101 12102 
3 7615 7616 
1 7615 10897 
3 10897 10898 
3 19331 19332 
3 3983 3984 
3 19330 19331 
1 19330 21199 
1 849 3982 
3 3982 3983 
3 848 849 
3 5074 5075 
1 5074 9171 
3 9170 9171 
3 847 848 
1 847 15309 
3 5075 5076 
3 16648 16649 
1 16648 19332 
1 2163 20049 
3 2162 2163 
3 7060 7061 
1 7060 18097 
3 20026 20027 
1 5736 20026 
3 5734 5735 
1 5734 13755 
3 5735 5736 
3 18097 18098 
3 7061 7062 
3 7570 7571 
1 7570 17632 
3 17633 17634 
3 10208 10209 
3 9638 9639 
3 9637 9638 
1 9637 10209 
3 10207 10208 
1 10207 17589 
3 17632 17633 
3 8194 8195 
1 8194 11341 
3 8195 8196 
3 4423 4424 
1 4423 8196 
1 3237 5682 
3 5681 5682 
3 5680 5681 
1 5680 9417 
3 4424 4425 
3 18671 18672 
3 10819 10820 
1 10819 18672 
3 10820 10821 
3 10898 10899 
3 10003 10004 
3 21227 21228 
3 13343 13344 
3 13342 13343 
1 13342 21226 
3 21226 21227 
1 13344 15934 
3 15934 15935 
1 9480 10003 
3 15308 15309 
3 3652 3653 
1 3652 15307 
3 15307 15308 
3 3653 3654 
1 5076 14997 
3 14995 14996 
3 14996 14997 
3 670 671 
1 670 14995 
3 671 672 
3 17171 17172 
3 17170 17171 
1 8076 17170 
3 8075 8076 
3 13754 13755 
3 13753 13754 
1 13753 19354 
3 19354 19355 
3 19355 19356 
3 7571 7572 
2 6640 6641 
1 6640 17587 
3 17588 17589 
3 17587 17588 
3 20009 20010 
1 7572 20008 
3 20008 20009 
2 6641 6642 
1 4425 7896 
3 7895 7896 
3 7894 7895 
3 2470 2471 
1 2470 7894 
3 9416 9417 
1 10029 10821 
3 10028 10029 
3 10027 10028 
3 5107 5108 
1 5107 10027 
3 5108 5109 
3 12220 12221 
1 12220 15936 
3 15935 15936 
3 12221 12222 
3 9415 9416 
1 9415 14475 
3 14474 14475 
1 3654 12354 
3 10876 10877 
1 10876 12352 
3 12353 12354 
3 12352 12353 
3 12812 12813 
1 672 12811 
3 12811 12812 
3 8074 8075 
3 7951 7952 
1 7951 8074 
3 7952 7953 
3 5350 5351 
1 5350 7953 
3 19975 19976 
3 11533 11534 
1 11533 19356 
1 12813 19975 
3 2881 2882 
1 2881 11535 
3 11534 11535 
3 2882 2883 
1 13062 19635 
3 13061 13062 
1 6642 13060 
3 13060 13061 
3 11740 11741 
1 11740 20010 
3 6550 6551 
1 6550 11742 
3 11741 11742 
3 19123 19124 
3 19124 19125 
1 12348 19123 
3 21334 21335 
3 21335 21336 
3 5351 5352 
1 5352 11191 
3 11191 11192 
3 11192 11193 
3 17765 17766 
1 1992 14473 
3 14662 14663 
1 14662 17766 
3 2471 2472 
1 2472 12118 
1 12222 14664 
3 12118 12119 
3 12119 12120 
3 14663 14664 
3 14473 14474 
3 9682 9683 
1 9682 11988 
3 1991 1992 
3 1990 1991 
1 1674 1990 
3 1673 1674 
3 10877 10878 
3 12691 12692 
1 12691 19449 
3 9683 9684 
1 5109 9684 
3 19448 19449 
1 10878 19447 
3 19447 19448 
3 19976 19977 
1 19977 20584 
3 20584 20585 
3 20585 20586 
3 4501 4502 
3 902 903 
3 901 902 
1 901 2883 
1 903 4501 
3 6551 6552 
3 19633 19634 
3 19634 19635 
3 10994 10995 
3 10993 10994 
1 6552 10995 
1 5046 10993 
1 9111 12346 
3 12347 12348 
3 12346 12347 
3 9110 9111 
2 21502 21503 
3 2152 2153 
1 2152 9286 
2 9286 9287 
3 9109 9110 
1 9109 21502 
2 9287 9288 
3 2153 2154 
1 2154 21336 
3 13571 13572 
3 11986 11987 
1 11986 13570 
3 13570 13571 
3 11987 11988 
3 1576 1577 
1 1576 12120 
1 1578 12250 
3 12250 12251 
3 1577 1578 
3 12251 12252 
3 1672 1673 
3 142 143 
1 142 1672 
3 143 144 
1 144 5208 
1 10911 20532 
3 20531 20532 
3 12692 12693 
1 16971 17784 
1 11193 21589 
3 20530 20531 
1 20530 20586 
3 17783 17784 
3 4502 4503 
3 21590 21591 
3 21589 21590 
1 15633 21591 
3 17782 17783 
1 4503 17782 
3 15632 15633 
3 11446 11447 
1 11446 19477 
2 5045 5046 
2 5044 5045 
1 5044 14595 
3 14594 14595 
3 6755 6756 
1 9288 10150 
3 10150 10151 
3 10151 10152 
3 3820 3821 
1 3820 10152 
3 6754 6755 
1 6754 21504 
2 21503 21504 
3 5545 5546 
1 5545 13572 
1 5547 10287 
3 5546 5547 
3 10286 10287 
1 12252 19224 
3 15601 15602 
1 15601 19222 
3 19222 19223 
3 19223 19224 
3 7559 7560 
3 5206 5207 
1 5206 7560 
3 5207 5208 
3 10910 10911 
3 11819 11820 
3 10909 10910 
1 10909 11818 
3 11818 11819 
1 11820 15258 
3 15631 15632 
3 8260 8261 
1 8260 15631 
3 8261 8262 
1 3627 8262 
3 16970 16971 
2 19477 19478 
3 14593 14594 
3 1408 1409 
1 1408 13015 
1 13017 14593 
2 13016 13017 
2 13015 13016 
2 19478 19479 
1 1038 19479 
2 1037 1038 
3 598 599 
1 598 6756 
3 3821 3822 
3 18028 18029 
3 18029 18030 
1 13035 18028 
3 10285 10286 
1 10285 18030 
1 360 3822 
3 359 360 
2 3710 3711 
3 15602 15603 
3 599 600 
1 600 693 
3 4442 4443 
3 4441 4442 
1 4441 15603 
1 4443 11529 
3 7558 7559 
3 1984 1985 
1 1984 21378 
3 1985 1986 
1 1986 7558 
3 15256 15257 
3 15257 15258 
3 2045 2046 
1 2046 15256 
3 4741 4742 
1 4741 8985 
3 3626 3627 
3 4742 4743 
3 3625 3626 
1 3625 4743 
3 1409 1410 
1 3711 20269 
3 20269 20270 
3 20270 20271 
2 1036 1037 
1 1036 20271 
3 17549 17550 
3 5719 5720 
1 5719 17550 
3 17548 17549 
1 1410 17548 
2 6514 6515 
3 6977 6978 
3 6976 6977 
2 6515 6516 
1 6516 6976 
2 13835 13836 
2 13834 13835 
3 358 359 
1 358 13834 
3 13034 13035 
1 12495 13033 
3 13033 13034 
3 12494 12495 
3 6148 6149 
1 6148 12493 
3 12493 12494 
3 3394 3395 
1 3394 6282 
3 3395 3396 
2 3709 3710 
1 3396 3709 
2 5422 5423 
1 5422 5889 
3 5888 5889 
3 19622 19623 
3 11528 11529 
3 21377 21378 
3 17237 17238 
3 691 692 
1 691 5665 
3 5665 5666 
3 692 693 
1 13836 19623 
3 5666 5667 
1 5667 7083 
3 14326 14327 
1 14326 17238 
3 21376 21377 
3 17236 17237 
1 17236 21376 
3 8105 8106 
3 8104 8105 
3 956 957 
1 957 8104 
3 955 956 
1 955 2044 
3 2044 2045 
3 11437 11438 
1 11437 17260 
3 8983 8984 
3 18431 18432 
3 8984 8985 
3 4760 4761 
1 4761 8983 
1 5721 18430 
3 19510 19511 
3 18430 18431 
1 4278 19510 
3 4277 4278 
3 5720 5721 
3 1862 1863 
3 5887 5888 
1 5887 17865 
3 17864 17865 
3 8033 8034 
3 1861 1862 
1 1861 8034 
3 8032 8033 
1 8032 19612 
3 4276 4277 
1 4276 6978 
3 19612 19613 
3 17863 17864 
3 13094 13095 
3 16616 16617 
1 13095 16617 
3 6149 6150 
2 7394 7395 
1 6150 7395 
2 7393 7394 
2 14438 14439 
2 14437 14438 
2 6280 6281 
1 6280 14437 
2 6281 6282 
1 6363 18301 
2 6362 6363 
2 6361 6362 
1 5424 6361 
2 18301 18302 
2 5423 5424 
3 19621 19622 
3 7082 7083 
3 14327 14328 
3 7081 7082 
1 7081 9174 
3 9173 9174 
3 13402 13403 
1 13402 14328 
3 13403 13404 
3 19556 19557 
3 19555 19556 
1 8106 19557 
3 14398 14399 
1 14398 21369 
1 17316 19555 
2 21368 21369 
3 17093 17094 
3 20627 20628 
3 17092 17093 
1 17092 20628 
3 14399 14400 
3 4759 4760 
1 4759 14400 
2 2479 2480 
1 2479 19425 
2 2480 2481 
2 19424 19425 
1 2481 18432 
3 5756 5757 
2 9364 9365 
1 9364 19512 
2 9365 9366 
1 4464 9366 
3 19511 19512 
2 4724 4725 
3 15022 15023 
1 4725 15022 
1 18057 20518 
2 20518 20519 
2 20519 20520 
2 11887 11888 
1 11887 14311 
2 11888 11889 
1 1863 20520 
3 14744 14745 
3 14311 14312 
3 14312 14313 
2 7540 7541 
1 7540 14743 
3 14743 14744 
3 13093 13094 
1 13093 14313 
2 20555 20556 
1 4722 20556 
1 9291 14439 
2 4721 4722 
2 4720 4721 
1 4720 7393 
2 14467 14468 
2 9289 9290 
1 9289 14467 
2 9290 9291 
2 14468 14469 
2 18302 18303 
2 2947 2948 
1 2947 18303 
2 2948 2949 
2 15239 15240 
2 9139 9140 
3 9172 9173 
1 9172 20152 
2 19334 19335 
2 20152 20153 
2 11858 11859 
2 19333 19334 
2 17314 17315 
1 17314 19333 
2 20153 20154 
2 1684 1685 
1 1684 13404 
1 1686 11857 
2 11857 11858 
2 1685 1686 
2 596 597 
2 595 596 
1 595 17968 
2 17315 17316 
2 17234 17235 
1 17235 21367 
2 21367 21368 
2 17233 17234 
2 4063 4064 
1 4063 17233 
1 17094 17970 
2 17968 17969 
2 17969 17970 
3 2662 2663 
1 2662 5757 
2 2825 2826 
2 19423 19424 
2 2248 2249 
1 2248 13567 
1 2250 19423 
2 2249 2250 
2 13567 13568 
2 1075 1076 
1 1075 15444 
1 2664 2824 
2 2824 2825 
3 2663 2664 
2 4723 4724 
1 4723 15442 
2 15443 15444 
2 15442 15443 
2 2416 2417 
2 2417 2418 
1 2418 4462 
2 4463 4464 
2 4462 4463 
2 14884 14885 
1 14884 18055 
2 14885 14886 
1 14886 17160 
2 16439 16440 
1 12363 16440 
2 18055 18056 
2 18056 18057 
2 6181 6182 
1 6181 12340 
2 12340 12341 
1 6183 11889 
2 6182 6183 
2 2282 2283 
2 9769 9770 
2 12341 12342 
2 9770 9771 
1 4824 9769 
2 2281 2282 
1 2281 13614 
2 18763 18764 
1 2283 18763 
2 7541 7542 
1 7542 19014 
2 19013 19014 
2 19012 19013 
2 8453 8454 
2 4823 4824 
2 4822 4823 
1 4822 18610 
2 5536 5537 
1 5536 20097 
2 5537 5538 
1 5538 20554 
2 20554 20555 
2 3616 3617 
1 3616 4542 
2 20096 20097 
2 1093 1094 
1 1093 14469 
2 1094 1095 
1 1095 12792 
2 12791 12792 
2 8264 8265 
2 8263 8264 
1 8263 19923 
2 46 47 
1 46 922 
2 47 48 
1 2949 19921 
2 19921 19922 
2 19922 19923 
2 12518 12519 
2 12517 12518 
1 12517 15799 
2 15799 15800 
2 15800 15801 
2 15238 15239 
1 15238 15801 
2 6404 6405 
2 6403 6404 
1 6403 9141 
2 9140 9141 
2 7804 7805 
1 7804 9597 
2 9596 9597 
2 3649 3650 
1 3649 19335 
2 16966 16967 
2 6913 6914 
1 3651 6913 
2 3650 3651 
2 6914 6915 
1 6915 14977 
1 11859 16966 
2 16967 16968 
2 8743 8744 
1 8743 16968 
2 3952 3953 
1 3952 17181 
2 16445 16446 
1 4065 16446 
2 4064 4065 
2 17180 17181 
2 15655 15656 
2 3769 3770 
1 3769 15655 
2 3770 3771 
2 17179 17180 
1 597 17179 
2 15656 15657 
2 16444 16445 
1 16444 20574 
2 4541 4542 
1 2826 3771 
2 1076 1077 
2 922 923 
2 4540 4541 
1 4540 13569 
2 13568 13569 
1 1077 12136 
2 12137 12138 
2 12136 12137 
2 923 924 
2 2383 2384 
1 2383 12138 
2 7613 7614 
2 7612 7613 
1 7612 11229 
1 924 2416 
1 7614 17158 
2 17158 17159 
2 17159 17160 
2 16438 16439 
1 6843 16438 
2 6842 6843 
2 6841 6842 
1 6841 17817 
2 17816 17817 
2 7639 7640 
1 7639 17392 
2 13664 13665 
2 7805 7806 
2 7640 7641 
1 7641 13612 
2 13612 13613 
2 13613 13614 
1 7806 12342 
2 14489 14490 
2 14488 14489 
1 9771 14488 
1 6234 14490 
1 6741 8452 
2 8452 8453 
2 13663 13664 
1 13663 13809 
2 13807 13808 
1 13807 19012 
2 13808 13809 
2 6739 6740 
1 6739 21459 
2 21458 21459 
2 6740 6741 
2 6323 6324 
3 7012 7013 
1 7012 17190 
2 17189 17190 
2 17188 17189 
1 17188 20095 
2 20095 20096 
2 20864 20865 
1 2874 6378 
1 3618 20865 
2 6322 6323 
1 6322 20572 
2 20572 20573 
2 3617 3618 
2 20573 20574 
3 16912 16913 
1 6939 16912 
2 2873 2874 
2 12790 12791 
2 2872 2873 
1 2872 12790 
2 4676 4677 
2 4675 4676 
2 6938 6939 
2 2719 2720 
1 2719 4675 
2 2720 2721 
2 6937 6938 
1 6937 8265 
1 48 4677 
2 3283 3284 
1 3283 13848 
1 3285 12519 
2 3284 3285 
2 11228 11229 
2 11227 11228 
1 11227 16813 
2 16813 16814 
2 16814 16815 
1 15909 19692 
2 15908 15909 
2 3872 3873 
1 3873 5605 
2 5605 5606 
2 15907 15908 
2 9595 9596 
1 9595 15907 
1 5607 6405 
2 3163 3164 
1 3163 13665 
2 5606 5607 
2 4625 4626 
2 4624 4625 
1 3165 4624 
2 3164 3165 
2 14978 14979 
2 14977 14978 
2 7796 7797 
1 14979 19071 
2 7795 7796 
2 19070 19071 
1 3954 7797 
2 3953 3954 
2 1519 1520 
1 1519 7795 
2 8744 8745 
1 8745 19389 
2 10243 10244 
1 10243 15657 
1 10245 10609 
2 10244 10245 
2 10609 10610 
2 2384 2385 
1 1620 2385 
2 1619 1620 
1 13566 13980 
2 1618 1619 
1 1618 2356 
2 13565 13566 
2 17392 17393 
2 13564 13565 
1 13564 17815 
2 17815 17816 
1 17394 18087 
2 17393 17394 
2 18086 18087 
2 20476 20477 
2 21202 21203 
2 6233 6234 
2 6232 6233 
1 6232 10800 
2 10799 10800 
2 10798 10799 
2 1021 1022 
1 1021 10798 
2 1052 1053 
3 1303 1304 
1 1303 7434 
2 21457 21458 
3 1304 1305 
2 20791 20792 
1 20791 21457 
2 20792 20793 
2 12485 12486 
2 12484 12485 
1 12484 20793 
2 7433 7434 
2 5864 5865 
3 16384 16385 
1 16384 21375 
3 16385 16386 
2 21374 21375 
2 21373 21374 
1 5865 21373 
1 4491 14892 
1 7014 14890 
2 14890 14891 
2 14891 14892 
3 4490 4491 
2 21538 21539 
1 9612 21538 
2 9611 9612 
2 9610 9611 
1 9610 16914 
2 5212 5213 
1 5212 16885 
2 16885 16886 
2 5213 5214 
2 20653 20654 
2 10747 10748 
1 10747 20653 
2 20654 20655 
3 13847 13848 
3 13846 13847 
1 5214 13846 
2 10748 10749 
2 10399 10400 
2 4189 4190 
1 4189 10399 
2 4190 4191 
1 4191 6324 
2 20863 20864 
2 7390 7391 
2 3637 3638 
1 3637 7390 
2 7391 7392 
3 7013 7014 
2 6377 6378 
2 6376 6377 
1 6376 7392 
1 372 20863 
2 370 371 
1 370 17770 
2 17770 17771 
2 371 372 
2 17771 17772 
3 16913 16914 
1 2721 16485 
2 16484 16485 
2 16483 16484 
2 1312 1313 
1 1312 16483 
2 13235 13236 
2 6430 6431 
1 6430 13236 
2 6431 6432 
2 1313 1314 
1 6432 16815 
2 3575 3576 
1 3576 19690 
2 19690 19691 
2 19691 19692 
2 3574 3575 
1 3574 15276 
2 6185 6186 
1 6186 16903 
2 3871 3872 
1 3871 10749 
1 4626 15150 
2 15149 15150 
2 14428 14429 
1 14428 15148 
2 15148 15149 
2 2788 2789 
1 2788 11133 
2 14429 14430 
1 15786 16105 
2 15785 15786 
2 11132 11133 
2 1520 1521 
1 1521 14016 
2 14015 14016 
2 17525 17526 
2 5591 5592 
2 10610 10611 
2 5590 5591 
1 5590 18951 
2 9662 9663 
1 9663 10611 
2 9661 9662 
2 15545 15546 
1 9423 9661 
2 15544 15545 
1 2358 15544 
2 2357 2358 
2 8237 8238 
2 2356 2357 
2 17537 17538 
2 8236 8237 
2 7699 7700 
1 7699 8236 
2 17536 17537 
2 13978 13979 
1 13978 17536 
2 13979 13980 
2 7700 7701 
1 4380 17538 
2 6215 6216 
2 18085 18086 
2 20477 20478 
2 16903 16904 
2 16904 16905 
1 16905 18085 
2 7585 7586 
1 7585 20478 
2 7586 7587 
1 6216 21360 
2 21359 21360 
2 21358 21359 
2 4957 4958 
1 4957 7587 
1 3951 21202 
2 1051 1052 
1 1051 21358 
2 15784 15785 
1 1023 15784 
2 3950 3951 
2 1022 1023 
2 3949 3950 
1 3949 14095 
2 14096 14097 
2 14095 14096 
2 11131 11132 
1 11131 12486 
2 7432 7433 
1 7432 16389 
2 16388 16389 
2 16387 16388 
1 3246 16387 
2 3245 3246 
2 5863 5864 
3 4489 4490 
1 10383 16896 
2 9251 9252 
1 3639 9252 
2 10382 10383 
2 21539 21540 
2 10381 10382 
1 10381 21540 
2 7867 7868 
2 7868 7869 
1 7869 16887 
2 16886 16887 
2 166 167 
1 166 7867 
2 10403 10404 
2 10079 10080 
2 10402 10403 
1 10402 14793 
2 14792 14793 
2 14791 14792 
1 14791 20655 
2 10078 10079 
2 10400 10401 
1 7668 17991 
2 17990 17991 
1 10401 17989 
2 17989 17990 
2 3638 3639 
2 4375 4376 
1 17772 20746 
2 20746 20747 
1 3483 20748 
2 20747 20748 
2 1868 1869 
2 1867 1868 
1 1867 4375 
1 1314 1869 
2 3482 3483 
2 20579 20580 
2 5729 5730 
2 2041 2042 
1 2041 19047 
2 4378 4379 
1 4266 5730 
2 2042 2043 
2 4265 4266 
1 2043 4378 
2 4264 4265 
1 4264 13234 
2 13234 13235 
2 6892 6893 
1 9117 19440 
2 20578 20579 
1 1167 20578 
2 6893 6894 
1 6894 15274 
2 15274 15275 
2 15275 15276 
2 1166 1167 
2 9116 9117 
2 9115 9116 
1 9115 16107 
2 16106 16107 
2 6184 6185 
2 1165 1166 
1 1165 6184 
2 7705 7706 
1 7705 10078 
2 16105 16106 
2 2789 2790 
1 2790 17656 
2 7706 7707 
2 17656 17657 
1 7707 14430 
1 13251 17658 
2 17657 17658 
2 4655 4656 
1 2970 4654 
2 17921 17922 
2 4654 4655 
1 4656 17526 
2 14014 14015 
1 1434 17922 
2 1433 1434 
2 1432 1433 
1 1432 14014 
2 1358 1359 
1 14559 21010 
2 5231 5232 
2 1357 1358 
1 1357 9421 
2 9421 9422 
2 5230 5231 
1 4578 5230 
2 4577 4578 
2 4576 4577 
1 4576 15546 
2 9422 9423 
2 14558 14559 
2 14557 14558 
1 14557 18949 
2 18950 18951 
2 18949 18950 
2 4379 4380 
1 4959 7881 
2 15550 15551 
1 15550 16606 
2 7880 7881 
2 15551 15552 
2 16606 16607 
1 7701 15552 
2 7879 7880 
1 7879 21475 
2 6214 6215 
1 6214 7747 
2 4958 4959 
2 7748 7749 
1 7749 8676 
2 7747 7748 
2 4786 4787 
1 4786 14599 
1 16767 20631 
2 14599 14600 
2 15628 15629 
2 16766 16767 
1 5238 15628 
1 6576 13429 
2 13430 13431 
2 6575 6576 
2 13429 13430 
2 20630 20631 
1 13431 14097 
2 14600 14601 
1 6918 10249 
2 10250 10251 
2 10249 10250 
3 20305 20306 
1 10251 20305 
2 3244 3245 
1 3244 15630 
2 15629 15630 
2 7327 7328 
2 989 990 
1 990 16894 
2 16894 16895 
2 16895 16896 
2 7328 7329 
1 7329 9250 
2 9250 9251 
2 8240 8241 
2 8239 8240 
1 168 8239 
2 167 168 
2 12062 12063 
2 5614 5615 
1 5614 15957 
2 6886 6887 
1 6886 12061 
2 12061 12062 
1 3273 20200 
2 20200 20201 
2 3272 3273 
2 3271 3272 
1 3271 10404 
2 7756 7757 
1 7756 20641 
2 20641 20642 
2 7757 7758 
1 7758 10080 
2 6887 6888 
2 2287 2288 
1 2287 4050 
2 4049 4050 
2 7666 7667 
2 7411 7412 
1 7411 7666 
2 4048 4049 
2 3481 3482 
1 3481 4048 
2 2288 2289 
2 7667 7668 
2 21169 21170 
2 21170 21171 
1 4377 21171 
2 2426 2427 
1 2427 16846 
2 16846 16847 
2 4376 4377 
2 15956 15957 
2 15955 15956 
2 5728 5729 
1 5728 15955 
2 12271 12272 
1 12271 19045 
2 19045 19046 
2 19046 19047 
2 20252 20253 
1 20253 20580 
2 12272 12273 
2 20251 20252 
1 2121 20251 
2 14296 14297 
1 14296 19438 
2 19438 19439 
2 19439 19440 
2 14297 14298 
1 6888 6892 
2 21146 21147 
2 9880 9881 
1 9880 13587 
2 9881 9882 
1 9882 13249 
2 13249 13250 
2 1594 1595 
1 1594 11826 
2 11825 11826 
2 11824 11825 
2 5236 5237 
1 5236 11824 
2 13250 13251 
1 15201 21147 
3 4889 4890 
3 4888 4889 
1 4888 16225 
2 16225 16226 
2 16226 16227 
2 14416 14417 
2 14417 14418 
2 2968 2969 
1 2968 14418 
2 17920 17921 
2 331 332 
1 331 17920 
2 2969 2970 
1 13884 14416 
2 332 333 
1 1359 16227 
2 2425 2426 
1 2425 5232 
2 21011 21012 
1 4971 21012 
2 4970 4971 
1 4263 6408 
2 6407 6408 
2 6406 6407 
1 6406 16608 
2 21010 21011 
2 9272 9273 
2 16607 16608 
2 9271 9272 
1 9271 10866 
2 11038 11039 
1 11038 21477 
2 11039 11040 
2 21476 21477 
2 21475 21476 
2 12139 12140 
1 12139 15498 
2 12140 12141 
2 8674 8675 
1 8674 12141 
2 3086 3087 
1 3087 14367 
2 16604 16605 
2 16603 16604 
1 4788 16603 
2 4787 4788 
2 14366 14367 
2 8675 8676 
2 5237 5238 
2 15200 15201 
2 15199 15200 
2 1789 1790 
1 1789 13647 
2 1790 1791 
1 1791 16765 
2 16765 16766 
2 6574 6575 
1 6574 15199 
3 20306 20307 
3 10012 10013 
1 10012 20307 
3 10013 10014 
1 10014 10413 
2 3881 3882 
2 3880 3881 
2 14720 14721 
1 4170 13893 
2 4169 4170 
2 4168 4169 
1 4168 20202 
2 20201 20202 
2 988 989 
1 988 1354 
2 1354 1355 
2 1355 1356 
1 1356 3880 
2 21059 21060 
1 21057 21060 
2 21056 21057 
2 1363 1364 
1 783 1363 
1 8241 13908 
2 13907 13908 
2 13906 13907 
1 13906 14721 
2 5615 5616 
1 1365 5616 
2 13210 13211 
1 13210 17089 
2 1364 1365 
2 13211 13212 
2 17089 17090 
2 17090 17091 
1 12063 13212 
2 20642 20643 
2 20303 20304 
2 20302 20303 
1 20302 20643 
2 6878 6879 
2 21392 21393 
2 18781 18782 
1 18781 20304 
1 6879 13585 
2 13585 13586 
2 21391 21392 
2 2716 2717 
1 2716 21391 
1 2172 9004 
1 4890 9006 
2 9004 9005 
2 9005 9006 
2 21058 21059 
1 21058 21169 
2 16847 16848 
2 18337 18338 
1 16848 18337 
2 18338 18339 
2 4510 4511 
2 793 794 
1 793 4510 
2 794 795 
1 795 12273 
1 14985 18339 
2 4511 4512 
2 17795 17796 
2 2119 2120 
1 2119 17796 
2 2120 2121 
2 913 914 
1 913 18528 
2 17794 17795 
2 18527 18528 
2 15367 15368 
1 15367 17794 
2 18815 18816 
2 2717 2718 
1 2718 14298 
2 15496 15497 
1 15496 18816 
1 1719 13123 
2 13123 13124 
2 13124 13125 
1 13125 21145 
2 21145 21146 
2 15497 15498 
2 1718 1719 
2 13586 13587 
2 1595 1596 
1 1596 14614 
2 14615 14616 
2 14614 14615 
2 17873 17874 
2 13883 13884 
2 194 195 
1 195 13882 
2 13882 13883 
2 9862 9863 
1 9862 13237 
2 13003 13004 
1 10572 19917 
2 19916 19917 
2 13004 13005 
2 4261 4262 
1 4261 13005 
2 4262 4263 
2 4969 4970 
1 4969 10570 
2 10571 10572 
2 10570 10571 
2 3301 3302 
1 3301 12072 
2 18526 18527 
1 11040 18526 
2 10865 10866 
2 10864 10865 
1 10864 15744 
2 15743 15744 
2 583 584 
1 583 4707 
2 584 585 
2 15742 15743 
2 14365 14366 
1 585 14365 
2 18541 18542 
2 1831 1832 
1 1831 16605 
1 1833 8880 
2 1832 1833 
2 8879 8880 
1 12234 18541 
2 3412 3413 
1 3412 12639 
2 13646 13647 
2 8930 8931 
2 13645 13646 
1 13645 20488 
2 20488 20489 
1 15000 20490 
2 20489 20490 
2 12638 12639 
2 8929 8930 
2 10411 10412 
1 10411 17872 
2 17872 17873 
2 10412 10413 
2 12637 12638 
2 11317 11318 
1 11317 12637 
2 3413 3414 
2 14719 14720 
1 14719 16744 
2 12499 12500 
1 12499 16746 
2 12500 12501 
2 16745 16746 
2 16744 16745 
3 12169 12170 
1 12171 13891 
2 13891 13892 
2 13892 13893 
3 12170 12171 
2 20186 20187 
2 20185 20186 
1 18783 20187 
2 18782 18783 
2 5417 5418 
2 5416 5417 
1 5416 20274 
3 20273 20274 
2 21055 21056 
3 20272 20273 
1 20272 21055 
2 20807 20808 
2 20806 20807 
2 781 782 
1 781 20806 
2 782 783 
2 16363 16364 
2 3310 3311 
1 3310 16363 
2 3311 3312 
1 3312 17091 
1 10380 15369 
2 10379 10380 
2 15368 15369 
1 4104 6636 
2 6635 6636 
2 6877 6878 
1 6877 18501 
2 6634 6635 
1 6634 21393 
2 12458 12459 
2 12457 12458 
1 12457 18499 
2 18499 18500 
2 18500 18501 
2 6395 6396 
2 6692 6693 
3 2170 2171 
3 2171 2172 
2 8416 8417 
2 8417 8418 
1 1404 8416 
2 14983 14984 
2 6460 6461 
1 6460 7239 
2 14984 14985 
2 6461 6462 
2 18244 18245 
1 6507 18244 
2 6506 6507 
1 4512 6462 
2 18245 18246 
3 11479 11480 
1 11479 18814 
2 18814 18815 
2 19720 19721 
2 914 915 
2 19721 19722 
1 915 19722 
2 8197 8198 
1 8197 11481 
3 11480 11481 
2 8198 8199 
2 5641 5642 
1 5641 19720 
2 6316 6317 
1 6316 8145 
2 7763 7764 
2 1717 1718 
1 1717 7764 
2 7762 7763 
1 10062 15468 
2 6394 6395 
1 6394 7762 
2 10061 10062 
1 5985 11344 
2 11344 11345 
2 5984 5985 
2 1543 1544 
1 1543 14616 
2 1544 1545 
2 6691 6692 
1 1545 6691 
2 8582 8583 
2 5983 5984 
1 5983 14998 
2 8017 8018 
1 8017 8583 
2 8018 8019 
2 14998 14999 
2 8581 8582 
1 8581 17874 
2 193 194 
1 193 2085 
3 7735 7736 
1 8418 19915 
2 19915 19916 
2 13237 13238 
1 13239 17805 
2 13238 13239 
2 17804 17805 
2 2083 2084 
1 2083 7735 
2 2084 2085 
2 3302 3303 
2 6505 6506 
1 6505 13003 
2 19873 19874 
1 3303 19873 
2 19874 19875 
1 1701 19875 
2 6632 6633 
2 17248 17249 
1 5259 6633 
2 5258 5259 
2 8144 8145 
2 5257 5258 
1 5257 15742 
2 8143 8144 
2 4705 4706 
1 4705 8143 
2 4706 4707 
2 2653 2654 
1 2653 16278 
2 2654 2655 
2 18542 18543 
2 1690 1691 
1 1690 7090 
2 15467 15468 
2 8878 8879 
1 8878 15466 
2 15466 15467 
1 1692 18543 
2 1691 1692 
1 378 18118 
2 18118 18119 
2 18119 18120 
1 8931 18120 
2 7090 7091 
2 377 378 
2 14999 15000 
2 11318 11319 
2 7051 7052 
1 7051 11319 
2 7052 7053 
1 7053 18468 
2 21290 21291 
1 6927 19572 
3 6926 6927 
3 6925 6926 
2 16364 16365 
3 104 105 
1 105 16365 
3 103 104 
2 12766 12767 
2 12767 12768 
3 4739 4740 
2 1175 1176 
2 1174 1175 
1 1174 4740 
2 19571 19572 
3 9703 9704 
3 9704 9705 
1 9705 20808 
2 7237 7238 
2 19570 19571 
3 4612 4613 
1 4612 16842 
3 4613 4614 
2 10378 10379 
1 10378 16840 
2 16841 16842 
2 16840 16841 
2 3722 3723 
1 3723 4102 
2 4102 4103 
2 4103 4104 
2 3721 3722 
1 3721 19144 
3 19144 19145 
2 7891 7892 
1 7891 12235 
2 12235 12236 
2 7892 7893 
3 4738 4739 
1 4738 12459 
2 12209 12210 
2 12208 12209 
1 12210 17151 
1 6396 12208 
1 17700 20926 
2 20926 20927 
3 17699 17700 
2 20927 20928 
1 6693 20928 
3 1403 1404 
3 9758 9759 
3 1402 1403 
1 1402 9757 
3 9757 9758 
3 15968 15969 
2 1027 1028 
1 1027 15969 
2 7238 7239 
2 4627 4628 
3 3328 3329 
1 3328 4627 
1 1029 18246 
2 1028 1029 
2 4628 4629 
1 4629 5643 
2 1753 1754 
1 1753 6015 
2 5642 5643 
1 8199 12237 
1 6318 16758 
2 16757 16758 
2 12236 12237 
2 6317 6318 
2 16756 16757 
2 9745 9746 
1 9745 15033 
2 10060 10061 
1 9747 10060 
2 9746 9747 
1 11346 12658 
2 12658 12659 
2 12659 12660 
1 10863 18643 
1 12660 15139 
2 18643 18644 
2 11345 11346 
2 15032 15033 
2 10862 10863 
3 19381 19382 
2 17803 17804 
1 15903 17803 
3 9163 9164 
1 9163 15901 
3 15901 15902 
3 15902 15903 
2 3491 3492 
3 9164 9165 
2 15683 15684 
2 15682 15683 
2 1699 1700 
1 1699 15682 
2 1700 1701 
2 10109 10110 
2 6014 6015 
2 6631 6632 
2 6013 6014 
1 6013 6631 
2 10108 10109 
1 10110 17250 
2 17249 17250 
1 3492 13581 