ITEM: TIMESTEP
100000000
ITEM: NUMBER OF ATOMS
1269
ITEM: BOX BOUNDS pp pp pp
0.0000000000000000e+00 5.0000000000000000e+01
0.0000000000000000e+00 5.0000000000000000e+01
0.0000000000000000e+00 5.0000000000000000e+01
ITEM: ATOMS id type vx vy vz 
13068 1 -1.32643 3.34834 0.205087 
6745 1 -2.25605 -0.839821 -5.30711 
6747 1 -0.440556 6.79619 -0.106271 
6746 2 0.892647 0.377619 -2.13786 
13067 3 0.595982 -0.605022 -0.0083332 
14136 1 1.96979 -2.93238 -10.7093 
13066 1 -3.88264 5.59009 -4.18996 
8767 1 6.75153 3.78478 -0.107565 
8768 2 1.14845 -1.8852 4.15422 
8769 1 0.727255 6.00169 4.89535 
15720 1 -0.511666 0.101576 -1.58649 
15719 2 1.35781 -1.68146 1.32262 
15718 1 0.446372 -3.58316 -1.28717 
7991 3 0.544015 -0.971728 -3.51173 
7990 1 -3.11751 -0.619956 3.82696 
6441 1 6.67294 2.91814 -0.429001 
3190 1 -7.59313 -0.125933 1.41288 
7992 1 -4.78971 -2.0512 1.59981 
20194 1 5.36927 -0.864637 -1.49478 
4756 1 3.14087 -4.66289 1.12031 
13285 1 -7.19236 -4.70503 -0.63007 
13287 1 8.08387 -3.18364 -0.304863 
13286 2 -2.54043 -1.77674 0.03403 
6439 1 1.69195 -1.86984 -3.002 
6440 2 3.34891 -2.91403 0.102481 
11688 1 -1.74741 -4.13322 1.16902 
11686 1 3.22051 1.18638 6.36491 
11687 3 -1.4498 2.92478 -1.52608 
3192 1 -0.113177 4.04704 3.18367 
3191 2 4.49788 0.0443081 0.291115 
12239 3 3.29898 2.02444 1.07736 
12238 1 -1.24361 -0.549206 1.96103 
4758 1 -1.90129 0.723457 1.84531 
4757 2 3.96898 6.36377 -3.20225 
14712 1 1.08223 6.02121 -0.975702 
14710 1 -2.92892 -0.981938 -3.76825 
14711 3 1.73034 -0.642814 -3.33312 
17714 3 -2.15323 2.50211 1.73305 
17713 1 3.86161 -1.41748 1.80227 
12240 1 -4.07728 2.68291 0.300135 
13281 1 5.77814 8.58383 6.3694 
13280 2 0.569564 -0.961616 -2.14876 
13279 1 1.89753 1.55731 3.37251 
3410 2 -2.58428 -0.319504 1.15501 
3409 1 4.53698 -4.49713 1.88093 
5185 1 -0.483933 -1.01057 -1.09462 
5186 3 3.08588 -1.52375 0.550302 
5187 1 2.38363 -7.74551 1.14906 
4300 1 1.81356 3.51876 -1.62435 
4301 2 -3.70242 3.41951 -0.75955 
4302 1 -2.30961 -4.34387 -0.946579 
17715 1 -1.63861 2.98334 -0.522267 
3411 1 7.37022 -1.12185 8.36708 
2782 1 0.254149 0.343673 2.4307 
2783 3 -0.219603 -0.896852 1.14401 
1569 1 -2.14978 2.53061 -0.551414 
13373 3 0.711361 -1.98046 0.0776638 
13372 1 -1.45934 -4.40773 4.61394 
5377 1 -0.185067 -3.09508 -3.07395 
2240 3 5.15899 2.37165 1.77919 
2239 1 -5.67324 5.65106 -0.510255 
2241 1 2.35077 -1.71514 1.0105 
2784 1 -4.18223 4.45351 0.01445 
19167 1 0.995092 0.268806 0.532174 
19166 3 -0.436321 -0.149757 -0.435271 
19165 1 -2.69573 3.80606 -2.05758 
13374 1 3.66704 3.15313 1.14673 
14933 2 -2.23527 2.057 1.35789 
14932 1 1.87684 -4.36672 3.39486 
5378 2 1.82246 -1.12648 1.2991 
5379 1 -0.858321 -1.67785 3.10341 
20706 1 -1.00214 1.61736 -0.924009 
20704 1 4.06575 -3.07558 6.73536 
20705 3 4.67365 -1.77357 0.895616 
12984 1 1.9444 -2.42898 0.0944223 
12257 2 1.41771 -1.56769 -2.41891 
12258 1 -1.07404 -1.60277 3.25038 
12256 1 -5.93241 -0.168295 -2.67917 
12982 1 -2.4157 -0.264655 -0.121694 
12983 3 -4.3343 3.26287 -1.61082 
20914 1 -5.76651 -3.59913 0.468567 
8362 1 0.627863 -4.4645 -1.09627 
8363 2 -0.14305 4.68129 -1.88709 
2755 1 1.31797 0.750504 0.58416 
2756 3 0.355651 -1.72647 -0.222691 
2757 1 1.75976 -1.98995 5.43102 
6294 1 0.959493 0.727092 -0.219463 
6293 2 4.98901 1.18548 1.89296 
6292 1 -1.94866 4.44456 -3.49047 
14149 1 2.91633 5.14344 1.71625 
14151 1 -4.58356 -2.28312 -3.16009 
14150 3 3.3501 2.35771 -2.81943 
11178 1 0.705459 -2.74372 -3.86326 
11177 2 -1.28121 -2.16655 1.89303 
11176 1 6.52063 -1.30822 -1.28585 
14934 1 1.50722 -3.71584 -6.07795 
20915 2 2.96527 4.18151 1.13756 
9960 1 -1.8398 3.16964 -1.9775 
20916 1 -0.453532 -1.69304 -8.28928 
8364 1 0.798251 -0.765838 -0.353976 
9959 3 1.96921 -2.05521 0.465632 
9958 1 -0.663953 -1.35133 -1.27726 
11257 1 -0.648421 0.502987 1.94554 
11259 1 4.93224 -1.35495 0.908733 
11258 3 1.97141 0.340735 3.0899 
20944 1 0.0813044 0.601722 -2.64298 
18602 3 -2.22297 0.0782788 -0.799272 
18603 1 1.33495 -1.1097 2.31569 
17077 1 -1.56762 0.898234 -2.51698 
17078 2 -1.82698 -0.869692 0.735088 
18578 2 -1.96126 -2.06293 0.871557 
18579 1 -2.09457 -4.43607 -5.19627 
18577 1 -0.10404 -2.52477 -4.34286 
1072 1 6.05853 12.9153 3.83325 
1073 2 -0.746059 -0.511201 -0.239877 
1074 1 -2.31911 3.35958 -2.81842 
20945 3 -2.15201 0.0489579 2.11063 
20946 1 -3.8995 3.07742 3.13381 
18601 1 -0.7184 1.23619 3.72582 
17079 1 1.09917 -2.87801 1.50976 
18572 3 0.952432 1.88136 -1.16148 
18573 1 2.63081 -3.81466 4.31425 
18571 1 -2.80167 -1.19721 -0.507794 
20724 1 -0.631907 -1.25252 -1.71982 
15211 1 1.72396 -1.53423 -3.26989 
15212 2 -1.81835 2.62859 4.45223 
20723 2 -0.126434 -0.627954 0.914051 
20722 1 2.83439 -2.31329 -2.31964 
1760 3 2.8996 0.856691 4.1527 
1761 1 3.36713 -1.37115 -2.70737 
15213 1 5.58141 3.99356 6.74079 
1759 1 2.98524 3.44532 6.52717 
18474 1 -1.64326 4.31847 -2.18095 
3277 1 5.86243 3.71935 1.27575 
3279 1 -4.7844 -6.58939 1.3666 
3278 2 0.221985 1.26889 1.62648 
16404 1 7.0266 1.60064 4.1085 
16402 1 1.33933 2.30928 5.13305 
16403 3 -0.33453 -2.65064 3.16859 
21106 1 0.96002 1.37403 -0.944003 
21107 3 0.278882 4.72015 -1.04844 
21108 1 -4.55564 2.16084 -1.07118 
10271 2 1.63763 -1.06883 -4.84055 
10272 1 2.58145 -1.28939 0.798669 
9027 1 -3.32855 -4.20315 -0.66956 
9026 2 0.746756 -1.20932 -2.18759 
16505 2 -2.83679 -0.294191 -4.17327 
16506 1 5.80996 1.37535 2.93007 
15878 3 -2.68695 -2.53338 3.27987 
15879 1 0.950003 0.207204 0.998708 
15877 1 -1.41889 3.74609 2.70949 
18472 1 -0.668006 -3.63096 0.693372 
18473 3 1.01153 -3.8841 -0.071587 
19181 2 -0.280384 -1.86036 -2.34627 
19180 1 -0.712374 3.61644 -2.98953 
15329 3 1.17031 2.53962 0.277364 
15328 1 -1.12462 1.87855 2.7511 
19804 1 2.79116 3.26568 -0.766328 
19805 3 2.81594 -2.69096 0.221715 
10270 1 -0.485926 1.44134 0.0918534 
19806 1 -5.36895 -2.39496 4.25573 
4960 1 1.58285 2.59937 -1.63418 
4961 2 1.02186 -2.04187 -1.78122 
4962 1 2.5099 3.47109 4.11345 
12531 1 0.7177 3.63977 -3.37686 
9025 1 -1.1993 6.90548 4.73061 
15330 1 -0.533673 -1.95258 4.52122 
16504 1 -1.86306 -4.71176 -5.09564 
8750 3 -1.3393 -0.36209 -2.10574 
8749 1 1.01502 -0.717645 -1.79593 
8309 2 0.960127 4.57249 -0.879232 
8310 1 -3.25979 1.23947 4.01852 
8308 1 -0.489296 0.548253 1.02557 
17475 1 -3.70989 3.67631 2.64223 
17474 2 -3.55426 0.16455 -0.94099 
17473 1 0.36354 -1.84646 0.938943 
19182 1 1.70176 -1.96951 -5.21593 
12530 3 -2.11962 -4.18489 -0.15005 
12529 1 0.268986 2.44417 0.0127322 
6595 1 4.20862 -0.0125242 -0.226442 
8751 1 -2.72988 -1.6034 0.0615091 
6597 1 -1.59291 -1.18487 2.85258 
6596 2 -4.14082 1.88629 -3.60689 
17791 1 1.79299 0.726799 5.43855 
17792 2 2.34409 -2.47668 -2.44179 
17793 1 5.26063 2.80596 0.893859 
20976 1 -1.42544 2.64343 -2.35763 
20975 3 -0.092889 0.21613 -3.32964 
20974 1 -1.10879 0.886394 -0.00606423 
5043 1 -1.01961 2.3863 -3.46161 
15865 1 -4.26338 0.740113 6.9471 
15866 3 -2.34927 0.598866 -1.3087 
15867 1 -6.29415 -0.273581 0.37558 
3103 1 -4.78147 2.49216 -2.47811 
3104 2 0.821597 -3.50202 -0.997634 
6027 1 0.877865 -0.561673 -3.71902 
15558 1 0.303814 -4.31291 1.82621 
19860 1 -5.48536 6.92741 4.32862 
19859 2 -0.574645 -3.47897 -0.979647 
19858 1 0.898677 -0.59478 3.42802 
12938 2 1.27116 -3.15255 -1.0261 
12937 1 -5.86528 0.541608 2.84242 
13371 1 -2.41065 -2.61227 -3.0787 
13370 3 0.226381 -2.62552 -4.60927 
3105 1 -2.27806 0.500927 -1.45008 
15556 1 -2.41694 5.70199 -4.44715 
15557 3 -0.684779 -3.55759 0.666903 
14769 1 2.59053 0.851198 -1.87954 
14767 1 -0.387013 -3.1304 5.8433 
14768 3 5.10293 1.30049 -0.845686 
17824 1 -1.36198 0.826359 -7.11512 
17825 2 -2.27676 -3.0242 0.637491 
17826 1 4.23286 -2.47733 0.222968 
13369 1 1.63326 -4.0404 -1.37234 
14665 1 -2.05125 -0.244728 0.170519 
14666 3 -0.205143 4.89361 0.814503 
14667 1 3.65949 -4.56633 -1.32727 
1350 1 2.52091 1.77441 -4.82446 
1349 2 -4.70389 2.15625 -0.290361 
15666 1 2.86272 2.32231 3.41296 
16598 3 4.88398 -1.9236 -1.75083 
16597 1 -1.74462 2.55378 -2.89665 
1348 1 5.58959 -6.05265 -6.75403 
16599 1 -4.36859 0.348335 -1.20737 
4351 1 -3.61231 0.00624041 0.52068 
13987 1 8.53617 -2.66166 -3.73716 
7003 1 1.39915 -1.83634 5.34787 
15665 2 2.09304 -3.58353 1.64533 
15664 1 2.32742 -1.40653 1.55874 
7004 2 0.184744 0.152981 -0.310397 
7005 1 -9.85922 -2.3509 3.95627 
18122 3 -0.941183 6.58503 0.110773 
18123 1 1.43826 -8.59575 1.166 
18121 1 6.1721 1.80308 -4.81949 
10165 1 -0.486024 -1.41695 3.46799 
10166 2 -3.19599 -0.463665 -0.122451 
10167 1 -4.8266 1.14278 0.539668 
20839 1 -2.2121 -2.55006 2.14313 
20840 2 0.406051 -1.13241 -3.06383 
20841 1 1.29622 -4.52414 3.26444 
4352 3 -1.05566 1.47562 0.0578637 
4353 1 2.69914 -0.556095 -0.776647 
5323 1 -0.51125 0.304177 0.504472 
5324 3 -3.22432 1.22585 2.23426 
11340 1 3.50851 1.26692 4.1141 
11339 3 -0.109673 -2.56243 2.46878 
20002 1 0.802994 -6.4466 -1.62439 
20003 2 1.79707 -1.61395 -4.5944 
20004 1 4.61698 -0.697975 0.525044 
11338 1 0.0367793 2.71858 1.23631 
8817 1 -0.360318 -6.9482 0.821029 
8816 2 -2.43969 2.76503 -4.6536 
8815 1 1.91964 0.110213 3.98452 
5325 1 1.67002 3.46714 2.78735 
11755 1 3.53545 -2.54397 0.250989 
11756 2 2.14103 -0.331943 1.22346 
8618 3 1.19558 -0.941255 3.35642 
8173 1 5.47147 -5.15143 -0.51052 
8619 1 -6.02663 1.52537 -6.45525 
11757 1 0.560158 1.12567 3.86478 
8617 1 4.69697 1.94758 4.51263 
8174 2 -5.24802 -2.08988 3.13644 
8175 1 -0.332129 -1.42006 -1.46757 
6113 2 2.03369 -0.4636 -1.84127 
6112 1 -1.66672 -0.430426 -1.6165 
7725 1 -1.94197 -3.31211 -0.369172 
19514 2 1.56449 -2.38923 0.752385 
19513 1 -2.56638 9.31868 3.89831 
7724 2 0.17903 -1.96375 0.742212 
7723 1 2.61034 -1.91611 -7.14134 
6114 1 -1.5548 2.03518 0.243608 
18313 1 0.936427 -5.66543 5.92282 
18314 2 -3.162 -4.82707 1.0887 
18315 1 2.42633 -7.19978 -0.434249 
19515 1 5.50763 1.51089 0.217704 
9446 3 -4.6793 2.78409 -0.777533 
9447 1 10.4857 -7.02432 -1.16541 
13435 1 0.881449 -0.715369 2.52301 
9445 1 5.18551 -4.05332 -6.42482 
13436 3 -0.46337 -5.99456 2.23504 
13437 1 -1.55008 5.60033 0.836818 
18943 1 -6.14661 -1.30304 -0.85021 
18944 3 3.02957 3.11946 3.63398 
18945 1 4.39917 0.430225 -1.84863 
13956 1 1.63367 1.53889 0.855799 
6671 2 2.64811 -2.52817 1.01789 
6672 1 -2.62992 -4.05549 0.188643 
13955 2 -0.345105 0.728551 -2.39707 
13954 1 -1.05023 5.93844 -5.5836 
6670 1 -1.53829 4.48716 -1.57164 
19153 1 -2.37881 2.23493 -1.54075 
19154 2 6.45397 -0.614643 2.15145 
15929 2 2.12932 1.68862 2.86377 
15928 1 1.21667 3.47431 2.18533 
15930 1 2.69923 -2.5826 -0.343309 
16864 1 6.64379 2.17926 0.968861 
19155 1 -5.46885 2.02026 1.25194 
5561 3 -4.19056 0.197222 0.538135 
5562 1 -0.213355 -1.0879 1.50129 
5560 1 -4.66445 -2.01479 5.12552 
16866 1 0.676661 1.53016 0.603782 
16865 3 1.25041 0.128568 0.769741 
10375 1 -0.27246 -1.08551 2.09803 
10377 1 -0.296372 -1.83729 1.10757 
10376 2 -2.59879 1.44498 1.35792 
13795 1 0.969512 4.68303 -0.384352 
13796 3 -0.456008 -2.77772 0.601241 
13797 1 4.47586 6.28961 5.07017 
12066 1 -2.12776 1.18422 3.48131 
12065 2 -3.5926 2.72478 -0.287202 
12064 1 4.88891 4.47418 0.904415 
19284 1 -2.57889 -0.0701353 2.98197 
19282 1 2.40323 -3.13904 -3.26989 
19283 2 -1.52253 -4.16682 3.68612 
10928 3 -4.50257 0.962111 0.140217 
10929 1 1.88808 2.80247 2.41103 
10927 1 -0.822657 5.91467 4.09129 
12823 1 -0.291959 -5.67978 -1.99585 
12824 3 -1.44614 0.423253 -3.0651 
12825 1 -3.70202 2.70742 2.05545 
15433 1 -0.582432 -4.77787 3.60325 
15435 1 -3.18341 -2.49035 -6.03691 
15434 3 -0.218347 0.245125 1.35485 
16160 3 -1.07116 2.84268 -1.53255 
16161 1 4.0137 0.627176 -0.675398 
16159 1 3.56522 -2.91417 -4.63245 
16294 1 -0.86069 2.85994 -4.35531 
16295 2 -3.66661 1.27671 -3.02004 
16296 1 2.73502 -5.34381 -3.20879 
6368 3 0.276607 1.037 3.32075 
6367 1 1.72224 -1.25867 0.121592 
10275 1 0.621309 1.64367 5.76357 
10274 2 -1.09163 1.82189 3.31293 
10273 1 1.18488 -2.48922 -0.813471 
1711 1 1.01202 -1.74079 -6.04181 
1713 1 2.42512 -1.70618 -0.205388 
1712 3 -3.32114 -4.17678 -0.766112 
10373 2 -2.86883 3.58191 1.2385 
10372 1 -1.8642 -0.453406 -2.69736 
10374 1 -0.0803511 5.08887 4.88886 
6369 1 3.91982 -2.77087 -4.28516 
8379 1 5.02364 -1.07701 0.310705 
8378 2 -2.23516 2.90131 -2.0474 
8377 1 -0.567325 -1.09473 -7.07065 
18456 1 -1.32772 -6.1931 2.87526 
5365 1 2.30831 -0.546887 2.48571 
5366 3 6.4803 -5.70849 -0.0707878 
5367 1 -7.1772 1.65573 2.53641 
19653 1 5.27295 1.10533 -1.62194 
19652 3 0.918925 3.90407 -3.52516 
5041 1 -4.84592 -4.96921 0.793484 
5042 3 -2.97795 -0.309336 -2.04987 
9135 1 0.413734 -0.595286 -1.87789 
9133 1 -2.59992 -6.78055 0.200116 
9134 3 -2.05819 -2.92273 0.815086 
13950 1 1.47756 2.71386 2.59797 
16468 1 -5.55085 -4.63862 -1.67898 
16469 3 -0.932117 -2.01409 -1.23102 
13949 3 1.88807 3.77033 1.35905 
16470 1 2.00544 0.189334 0.901484 
9910 1 4.50813 3.89944 10.6116 
9911 2 5.03834 0.177299 3.43548 
13988 3 -2.3225 -2.50383 -2.96767 
13989 1 -3.31229 3.92464 -5.34332 
13948 1 1.86246 -0.533195 5.29092 
9912 1 -0.140788 4.30261 3.25903 
17481 1 -0.0852994 2.17449 -1.06339 
17480 2 -1.71915 -0.0879775 1.75703 
17479 1 -2.12462 -3.57749 2.13086 
19942 1 -5.32216 -1.86434 3.58923 
19943 2 -1.13116 -1.52126 -2.85231 
19944 1 1.40088 2.84978 9.32743 
17685 1 1.02758 1.58796 -0.0523472 
17684 3 2.80267 -2.02419 0.396694 
17683 1 -6.21754 -2.67962 -3.48382 
6777 1 5.26777 -8.28074 1.99328 
6776 2 0.0702726 0.0771597 2.90056 
6775 1 6.39211 0.989396 2.95632 
10096 1 -4.22835 -1.86473 4.38189 
13629 1 2.86573 0.901823 -2.22921 
13628 3 2.71227 0.28075 -0.0710407 
4608 1 0.153578 1.59017 -3.84617 
13627 1 6.88447 -0.143526 3.96092 
10098 1 -6.35068 -3.03528 4.25425 
10097 2 -1.54899 -2.73449 0.932451 
4607 2 -0.289247 2.3678 -0.495817 
4606 1 1.94256 -2.42582 0.304417 
9629 2 -0.111309 1.09223 1.33539 
9630 1 2.71408 -1.63967 1.87963 
9628 1 4.58886 -1.07033 -0.42881 
14134 1 10.4241 2.10101 1.63705 
14135 2 -3.12134 0.690259 0.812467 
410 2 8.49503 0.754568 -5.64464 
409 1 1.05524 -0.687131 -7.3889 
411 1 -0.866455 -5.72889 -0.0764019 
6018 1 -0.98678 0.260151 -4.84413 
8223 1 3.20097 0.682189 5.04882 
20952 1 0.675312 7.95144 2.57729 
20951 3 2.00039 4.05576 2.1034 
8222 3 4.59573 3.46847 1.5051 
20950 1 8.24531 1.64604 -8.49458 
15299 2 -0.775671 -0.705278 0.88152 
12428 3 -2.20291 -0.623914 0.530231 
12427 1 -6.30601 -0.0522028 -3.08449 
12429 1 -0.732478 -6.85637 3.08346 
15300 1 -3.40005 -1.78343 1.84458 
15298 1 -1.38723 -1.73621 8.12381 
5972 3 -1.78543 -3.35101 1.74873 
5973 1 -2.7938 3.31195 0.720756 
5971 1 1.25876 0.93169 -2.44634 
9238 1 0.578166 -3.69393 4.59773 
6017 3 -2.89583 -1.94787 -0.632679 
6016 1 -2.02548 -0.899844 -2.39463 
9239 2 -3.09948 -1.49844 3.8148 
9240 1 -1.79055 -0.295226 4.73707 
21034 1 -2.49585 -1.30805 2.36905 
20690 3 -2.70478 0.786492 -1.98818 
20689 1 -0.901377 -0.395563 -0.85723 
1736 3 1.47818 1.80565 1.38955 
1735 1 -4.13101 5.454 -4.35788 
8221 1 1.77635 2.87298 10.8176 
1737 1 -7.09448 -4.94399 2.66354 
14003 2 1.85229 -3.48187 2.56625 
14002 1 0.0937825 -8.15951 3.80781 
2852 3 -2.4528 1.04038 -0.0925838 
2853 1 2.34983 6.34913 1.58574 
14004 1 -8.97791 -7.34651 -4.74025 
2851 1 -5.7968 -1.512 3.04969 
21036 1 -2.20363 3.85865 -2.95654 
21035 2 2.85913 1.1036 -1.08692 
20691 1 0.142062 -1.43933 0.839597 
16890 1 -7.54545 -7.06022 -2.92548 
16888 1 -3.49911 2.53526 -0.348203 
16889 3 1.09355 0.0104523 2.65626 
7982 3 0.106202 1.86074 2.68524 
7983 1 1.98486 -2.3428 1.48865 
7981 1 2.07559 -3.89144 2.0279 
16715 2 -0.450647 5.66736 -1.92048 
16716 1 -0.054692 0.280075 1.59765 
19605 1 -3.81787 1.41872 -1.91003 
14406 1 -2.49018 -3.198 6.20056 
14405 3 -0.536625 -0.0823145 -4.67391 
14404 1 -4.58397 3.38779 -3.83227 
16714 1 -5.19842 3.47124 -6.69335 
19604 2 -4.92592 2.85371 1.4041 
19603 1 0.293303 0.649945 0.691318 
19884 1 0.320691 -7.10909 5.07941 
19883 2 0.177558 0.450446 3.08472 
19882 1 0.979733 5.40266 -3.80972 
1850 3 -1.38565 -4.41774 -3.47318 
1849 1 -1.13781 -6.95435 2.5715 
1851 1 4.19876 2.10192 -0.494489 
17454 1 3.75624 -3.43092 -0.242273 
288 1 -0.653803 -2.54897 5.50176 
7656 1 0.611444 -0.33678 -4.19767 
8642 2 0.0491161 2.72165 0.279159 
13842 1 -1.739 -3.4759 -2.31608 
8641 1 1.50825 -4.84324 0.0399603 
13841 3 -0.633204 0.508572 -3.83658 
13840 1 -1.43994 5.70059 -3.90129 
8643 1 -0.657517 0.503864 1.71572 
13028 3 -0.63004 -0.702354 -6.50151 
13027 1 -8.62329 4.59275 2.66796 
13029 1 -5.19065 -1.26052 -3.47927 
8956 1 2.61385 -4.10347 0.696491 
8958 1 5.90037 0.925427 4.2911 
8957 2 5.60334 -4.66851 -4.65004 
1568 2 -1.40143 -0.69306 2.4055 
1567 1 1.86376 0.649983 -3.92223 
17463 1 -3.03146 -4.83382 -3.85345 
5933 3 -1.17581 -6.37155 -2.14316 
5934 1 -1.20563 4.3378 -3.06683 
14060 3 0.0778069 2.71121 3.42775 
14061 1 -0.959833 2.88287 -3.17499 
17462 2 0.197062 0.305811 -1.79915 
17461 1 3.59442 -2.13504 -0.886942 
14059 1 -1.65608 -1.97536 3.40619 
5932 1 -1.5893 0.225004 1.36017 
18111 1 2.57545 -5.09705 3.0013 
18110 3 1.67335 -3.622 -0.202336 
18109 1 -5.30293 -1.65972 -2.18471 
19420 1 0.725156 2.05542 -6.8496 
19422 1 1.503 0.0340963 2.79118 
19421 2 0.281003 -4.52087 3.4653 
12868 1 0.544305 3.55539 -2.13572 
12870 1 -2.62013 -0.574643 -2.90838 
12869 2 1.76871 0.439001 -0.594611 
9219 1 -0.147224 0.603042 -0.809281 
2946 1 -0.218517 -2.33306 3.53734 
2944 1 0.760404 -3.09931 0.180721 
2945 3 -0.91927 -1.02464 -1.29345 
17624 2 1.83024 -4.40681 2.38252 
17625 1 1.17801 2.0819 0.495297 
2774 3 1.37146 1.05805 -1.54387 
2773 1 -8.18991 5.68531 5.19435 
2775 1 4.74499 -1.26372 4.78892 
9218 2 -0.473179 3.43479 0.052677 
9217 1 2.09064 6.94928 3.53151 
10944 1 2.48556 1.27323 5.27175 
10943 2 -1.48712 -2.96347 1.55823 
10942 1 0.677831 -0.820856 0.672191 
17623 1 -2.96796 -0.752589 -5.83305 
11875 1 4.13467 -0.381971 -4.45523 
11876 3 -3.36014 -0.935564 -0.880775 
11877 1 -5.40397 -4.41614 -1.10804 
16411 1 4.1563 3.84117 -1.74964 
5120 2 5.40187 1.16777 3.68091 
5121 1 -0.55046 -3.09189 1.27265 
5119 1 -0.871179 0.506981 0.55448 
16413 1 0.0946848 -0.545283 -4.6875 
16412 2 -2.3183 -1.24624 2.39258 
10026 1 -0.26182 3.10564 -5.98952 
10025 3 -4.00716 -3.12086 2.39995 
12096 1 1.66083 -0.900296 3.1206 
10024 1 -6.9696 -1.91347 5.2283 
12095 2 -0.0425933 4.10483 -0.719288 
6782 2 1.33018 0.793229 4.30114 
6783 1 2.90773 -0.734604 1.3801 
6781 1 1.16303 -6.62907 -5.47616 
12094 1 3.51131 -0.213641 1.65579 
8397 1 -3.74857 4.12321 6.47247 
8396 2 -1.65043 1.71416 0.545816 
8395 1 -0.045121 -6.41145 -9.38678 
14647 1 6.97733 -4.81139 1.47917 
14648 2 -1.74758 0.558582 -2.90507 
303 1 1.08689 7.95884 5.32207 
14649 1 0.00460394 4.70914 -2.99605 
302 3 -0.81127 -2.64703 -1.01465 
301 1 0.218932 3.99857 1.98312 
13179 1 -4.46527 -0.800584 -1.74158 
13178 3 -0.324514 -0.91452 0.473995 
13177 1 -4.6881 6.79551 1.7673 
11209 1 1.67157 4.06669 -3.72622 
21187 1 8.75339 -1.18421 1.35435 
11210 3 -4.62389 -0.243235 1.12438 
11211 1 1.34342 1.39553 1.99336 
21189 1 3.43986 0.994748 0.733879 
21188 2 2.82578 0.999876 -1.91765 
17211 1 -2.79542 0.388577 1.71873 
17210 3 -0.1944 1.81254 2.41237 
14023 1 0.838843 -0.616702 -1.35751 
4876 1 -2.36223 2.68831 0.0253029 
17209 1 3.32046 -6.66892 3.71416 
15013 1 -2.63596 -2.42217 -5.04732 
15015 1 2.65514 -1.537 1.08762 
15014 3 2.78891 -0.158341 1.17057 
15809 2 -0.86092 3.98261 -0.273428 
15808 1 0.251595 -6.93157 -0.262275 
15810 1 -2.86119 0.227374 3.89842 
7789 1 2.86216 3.06962 3.7673 
7791 1 3.87806 -4.42156 -0.815782 
7790 2 -0.484543 0.208906 1.57344 
14025 1 1.62266 0.450482 -0.498143 
14024 3 0.846376 0.442027 1.52234 
532 1 -1.67734 -0.422962 -5.06989 
534 1 -0.447046 2.85441 -2.07496 
533 3 2.81946 -2.13783 -2.90781 
851 2 1.74061 -2.05305 -2.13651 
852 1 -1.84736 6.91354 -1.44521 
11295 1 -3.50391 3.16517 -2.09578 
14179 1 0.257674 -0.577099 0.417662 
14180 3 -2.53956 -1.987 -2.17477 
14181 1 -3.86398 -2.23454 -4.47362 
850 1 -0.451302 2.62997 6.06467 
2167 1 1.52632 -2.2096 -5.91387 
2168 2 -0.672226 -2.35748 -1.64707 
2169 1 4.35097 -1.26729 -0.248888 
4877 2 2.17788 -2.28053 -0.684479 
4878 1 9.22197 2.02674 6.86549 
17325 1 -0.154311 -0.390511 3.70409 
650 3 -2.94216 0.389588 0.741146 
649 1 -1.58894 2.96124 0.283069 
651 1 1.20644 2.03984 1.77681 
11293 1 -0.416456 -2.5163 0.894737 
11294 2 1.41959 -4.50519 1.77368 
17324 3 -0.188016 2.62183 -2.57355 
17323 1 -1.02134 -0.299999 -3.16781 
15573 1 0.375726 2.24937 -1.30225 
15571 1 -4.29831 -1.27639 -1.123 
15572 2 -0.561565 -3.99943 2.7828 
20429 2 -1.47377 1.84955 -0.631226 
20430 1 -3.3631 2.87012 -3.51087 
13092 1 -0.143787 0.473651 6.03659 
13091 3 -1.26666 -3.4776 0.971742 
13090 1 2.7466 2.19359 2.84147 
9981 1 2.1825 -0.386733 0.767835 
17204 2 2.78744 -2.44154 1.70526 
17203 1 3.32615 -4.43716 0.709725 
9277 1 -4.34108 -2.92972 3.49709 
9278 2 -4.33141 0.854473 -1.28073 
17205 1 -5.07182 4.21078 0.648749 
9979 1 0.130863 1.71947 4.09726 
9980 2 -0.037814 0.814499 -4.40746 
7491 1 4.04191 2.99777 -1.93949 
7490 3 0.573952 1.35106 -2.43062 
7489 1 1.9376 -0.967868 -5.7384 
9279 1 -0.580257 -2.05882 1.16418 
20428 1 4.62999 3.27182 -4.11154 
11546 3 2.94526 1.12578 -3.0725 
11547 1 0.423276 1.5828 -0.408073 
11545 1 -0.155232 1.84558 -1.54623 
4178 2 0.222792 1.68725 0.762881 
4177 1 -4.54521 3.55573 -1.49094 
4179 1 -2.94524 4.97357 2.18156 
5634 1 -1.5859 1.19446 4.80561 
5633 3 -1.18646 1.15723 -0.466648 
5799 1 6.83329 1.56698 0.876323 
5632 1 -2.10897 5.62344 1.38821 
5797 1 2.42535 2.91408 3.134 
5798 2 -2.93039 -0.697227 0.510026 
3815 2 -1.89542 3.41409 0.318581 
3816 1 1.27386 7.65297 0.791069 
3814 1 -3.72955 -1.61665 1.24043 
11069 3 -1.61932 1.85229 -0.376387 
11070 1 -4.60396 -1.27867 4.45826 
11068 1 -0.82026 6.26927 -2.34619 
9742 1 5.00891 6.38748 -1.15863 
9743 3 -0.807617 -3.89228 -0.0873016 
9744 1 -5.78711 2.35938 4.0702 
9588 1 1.44807 -1.03388 -3.00075 
9587 2 -5.34549 -2.13204 -2.32758 
13056 1 -4.14735 -4.621 2.68826 
13055 3 1.32961 1.36915 1.62383 
13054 1 5.88459 -1.04853 2.5268 
7214 3 -0.619838 0.0110687 -0.407911 
7213 1 -5.67175 -0.16542 0.364395 
9586 1 -2.11468 4.79791 -0.747138 
14176 1 3.52462 -0.170236 0.0933034 
14178 1 -3.41922 4.87808 -0.980878 
14177 3 4.4098 0.32607 1.6876 
7215 1 0.283953 -0.14295 -9.87282 
3557 3 1.23284 3.84732 0.55009 
3558 1 -1.06192 -4.52464 0.256752 
3556 1 0.0314913 3.89685 -2.48933 
17953 1 -6.84011 2.70384 1.75493 
17954 2 1.97106 3.12912 1.83504 
17955 1 5.92601 -1.85565 10.4718 
11383 1 -2.96888 -0.726301 5.9464 
8609 2 -1.76252 -0.416297 0.931665 
8610 1 3.38002 -2.89005 1.97932 
8608 1 -1.17868 -5.49638 -4.44882 
11384 3 1.55156 0.836039 1.28939 
11385 1 -3.26817 1.82885 -5.54692 
6685 1 3.09258 -4.82081 0.920749 
6686 2 2.22526 3.30411 0.770481 
16092 1 -4.87371 -2.25761 -2.46557 
16091 3 0.705755 -0.428285 -2.20119 
16090 1 3.9955 2.70157 5.72794 
11269 1 0.0389612 -6.42654 -0.627734 
11270 3 1.50273 3.82737 -0.913324 
8470 1 -3.62952 5.12548 -5.18736 
9723 1 1.51672 -8.58509 5.82084 
9721 1 4.42427 2.18111 -2.96538 
9722 3 1.14641 1.90207 -0.278403 
8472 1 -2.8777 4.56466 2.01869 
8471 3 -0.891422 1.29 -1.14652 
13243 1 3.12283 -1.4317 1.43404 
13244 2 -1.29193 -2.8255 0.368672 
14684 2 4.37325 1.01944 0.225282 
14683 1 0.724717 -2.84451 2.72672 
13245 1 -2.24949 4.4211 0.451851 
14685 1 0.833647 0.939404 -3.12149 
6687 1 -2.61154 -0.299184 1.62277 
286 1 -4.61079 0.278198 1.8532 
287 3 2.7702 -1.71342 8.59485 
17453 2 4.56167 -3.58844 -2.08183 
17452 1 -0.0905243 0.968706 2.63365 
11271 1 -4.49283 3.41549 3.73001 
7975 1 2.16897 -2.38606 4.9021 
18687 1 -2.08165 5.21476 2.48174 
18685 1 -5.20527 -3.97431 4.50618 
18686 3 -1.90083 2.82694 -1.84493 
7654 1 -2.96739 -1.49317 -0.831139 
7655 2 -2.73357 2.40469 -1.6355 
19747 1 0.0802253 -0.157894 3.00898 
19749 1 -3.26758 -2.8162 0.191694 
19748 3 0.0206798 0.422226 2.36113 
15641 2 1.56855 5.77814 -2.53619 
15642 1 -4.00123 2.18788 -2.10369 
15640 1 1.21349 0.708955 7.72851 
6204 1 -1.09804 1.71897 -2.3277 
13048 1 -1.33194 -0.863945 -7.25068 
13049 3 -1.36793 5.13185 -1.611 
13050 1 -4.41279 -7.85382 0.556284 
11800 1 -2.49886 0.672019 4.4041 
11801 3 -1.80572 0.107876 -0.177111 
11802 1 -2.99113 -6.65091 1.67183 
6202 1 -2.09858 -5.20836 6.19669 
6203 2 -1.95938 1.04891 0.456063 
18148 1 0.161439 6.86012 4.3475 
18149 3 0.0607992 0.535614 5.68217 
18150 1 -1.20599 4.36264 -1.00342 
19271 3 -3.1133 -3.06862 -0.0855911 
19270 1 -2.83853 -2.7862 2.21059 
4648 1 4.86321 -1.30575 -5.07218 
19272 1 -3.63666 -0.900511 0.911101 
1947 1 3.54994 4.48494 -1.27362 
1946 3 -2.49486 -1.60345 1.27371 
4650 1 -2.28847 4.59976 3.41229 
4649 2 -0.583229 3.32768 1.21516 
10667 2 -0.371472 0.682582 -1.99047 
10666 1 -5.95119 5.03132 -6.25866 
1945 1 -2.74499 0.845537 -3.24656 
10668 1 -3.78936 -3.82842 -3.00543 
3475 1 6.51292 -3.47443 -10.486 
3241 1 -0.93442 1.6011 -4.23893 
3242 2 -2.37888 3.99959 -2.43989 
3243 1 -0.183378 -1.72387 0.518176 
3477 1 -7.05209 2.15492 -0.170848 
3476 2 -0.266029 -2.30509 -0.76819 
8350 1 2.84119 -2.05932 -5.65902 
8352 1 -2.67164 -0.994362 -2.85753 
8351 3 -3.87047 3.9541 -1.08134 
2914 1 1.7277 8.15022 1.57943 
2915 2 4.96084 0.0527649 -1.36237 
2916 1 0.505695 -9.15114 0.871195 
18173 2 0.993462 5.17763 -2.3493 
18172 1 2.13734 -2.33054 -1.31599 
1960 1 3.89724 5.62241 0.940245 
18174 1 -0.0978488 -3.04849 2.21585 
1961 3 2.80123 -2.05184 -0.687944 
1962 1 -1.47603 5.63227 -0.439193 
18884 3 6.92057 2.14145 1.59609 
18883 1 -1.41666 3.02079 -0.0675817 
18885 1 6.29856 -0.383132 6.98294 
9715 1 1.09968 -1.91905 -3.78476 
9716 3 2.21732 0.366581 1.10399 
9717 1 7.00314 -1.42873 2.80882 
10252 1 -0.0163522 -0.0046534 -3.02486 
10253 3 -0.951617 -1.43738 1.05649 
10254 1 -1.97986 -4.3136 -9.63241 
630 1 -3.07094 7.80071 2.89143 
629 3 -0.089339 2.01771 3.31623 
628 1 -0.190787 -1.41928 1.6414 
8344 1 1.78857 1.92558 -1.04838 
8346 1 1.58238 -1.87213 0.438199 
8345 3 0.177848 -0.840379 -1.33954 
3731 2 1.66761 -2.04614 0.941348 
3732 1 1.81999 -1.30975 -0.585862 
3730 1 -1.97762 -6.26055 4.22702 
14611 1 1.02609 5.04338 -3.67888 
14752 1 -3.69808 -1.29427 -0.399555 
13542 1 6.35504 -1.99402 -3.55884 
14753 2 1.69771 3.69089 3.33869 
14754 1 4.03698 2.8121 -1.11632 
20195 2 -2.36142 -0.696067 0.198056 
20196 1 -0.73714 1.47783 -2.71071 
13541 2 1.41259 1.97263 0.736761 
13540 1 0.911631 -0.0678255 -0.542422 
20810 2 3.51227 -1.69089 -0.882864 
20811 1 2.12402 -3.14486 0.308408 
20809 1 -0.75261 -0.211849 0.555613 
3849 1 1.05268 2.03018 3.21036 
9517 1 1.07914 2.60607 5.4912 
9518 3 -0.126709 -0.734472 -0.160425 
3847 1 -0.708831 -0.361095 -4.49244 
3848 2 -0.339245 -0.170876 0.314277 
2227 1 1.1852 -1.99298 1.34062 
2228 2 -1.15187 1.12979 -1.37469 
2229 1 -4.94151 2.62659 -4.2058 
17005 1 4.45891 2.01243 4.58464 
9519 1 -7.38828 -1.24537 -2.6883 
17007 1 -3.97368 0.064822 0.765766 
17006 3 -3.02873 2.14743 -2.39262 
10992 1 3.53134 -1.05293 -4.06598 
20318 2 -0.64244 1.64148 2.09191 
20319 1 3.85779 1.9222 0.666438 
10990 1 -0.47375 -1.04817 -4.16739 
10991 3 -5.58545 -1.7034 -1.86579 
2995 1 3.05144 0.422829 -4.00643 
2997 1 -2.05043 -2.84798 0.882072 
2996 2 0.13673 -0.0924255 0.0317535 
4695 1 1.8103 4.094 -3.61162 
4694 3 0.593874 0.21279 -6.02043 
4693 1 -6.908 0.473143 -9.14001 
19999 1 0.486586 -7.21375 -0.51246 
20001 1 1.90672 -1.2968 -0.951981 
20000 3 4.6291 -0.743135 -0.155686 
14748 1 1.08597 -0.421042 2.18982 
14747 3 -0.944182 -0.685062 0.52075 
2637 1 -0.130434 -1.84335 0.842753 
2636 2 -2.66609 1.0223 -1.05604 
2635 1 -3.0913 5.53758 2.26876 
12324 1 3.30245 7.63092 3.93972 
12322 1 -0.107999 1.05832 7.26033 
12323 2 1.29978 -3.60655 -1.75165 
18454 1 4.4767 -0.575611 2.74749 
18455 3 -0.815015 1.24716 -0.469199 
652 1 -3.88569 -2.7971 0.498685 
653 2 1.80698 2.54146 -5.29291 
654 1 0.866379 -1.6036 4.55496 
6025 1 -5.36135 -4.13881 3.19966 
6026 3 -1.05267 0.487218 -0.776909 
2325 1 2.41802 2.1065 -2.49957 
2323 1 3.65899 -0.479757 -2.06698 
2324 3 -0.550336 -4.96857 1.37984 
21491 2 -2.48619 -0.930878 2.9612 
21490 1 -2.68883 1.82754 -5.11694 
21492 1 -1.06706 1.84771 5.38514 
13098 1 0.767846 -6.17691 1.69332 
13097 3 3.81789 -3.48268 -1.74554 
13096 1 2.67317 1.87592 4.03495 
7079 2 -0.858562 1.87645 -1.26528 
7078 1 -1.22814 -3.58811 -9.13174 
7080 1 -1.92134 -2.67502 2.02328 
15514 1 1.17659 0.120906 4.95285 
1994 3 5.18948 1.12826 -1.7819 
1993 1 1.0334 -4.9728 3.08698 
1995 1 -2.58975 2.53245 -4.86481 
759 1 4.96504 -6.80037 -0.489208 
758 2 -1.41929 2.82254 0.340874 
9763 1 3.2371 3.48803 -4.1727 
9764 3 -1.50698 4.23339 4.56987 
16945 1 3.03079 1.15891 -2.33142 
9765 1 1.23163 2.77536 1.56099 
16946 2 -3.90848 -0.23401 0.87813 
16947 1 -1.34648 2.0289 7.49601 
757 1 -6.22579 -1.99828 0.105892 
16932 1 -0.54113 -2.8507 -5.71151 
16930 1 -3.53164 -3.9349 2.78879 
16931 3 -4.64513 1.98684 0.454659 
16418 3 -0.848139 0.927449 1.89098 
16417 1 3.15055 -2.15564 9.03725 
2631 1 -5.45971 -1.29622 9.1031 
2630 2 -0.123232 -1.21098 2.06759 
2629 1 -2.30938 5.18653 -2.63013 
16419 1 -4.07791 0.40723 2.07777 
5184 1 1.37755 0.249958 -2.1304 
5183 3 2.73854 -2.96442 -0.469423 
9091 1 0.267815 3.07819 2.15556 
9093 1 -1.33273 3.68163 0.0817484 
5182 1 1.55225 -5.07753 5.31367 
9092 2 -1.52617 -0.151135 2.04641 
6789 1 -0.395017 0.752633 -2.89167 
6788 2 1.4233 -2.49795 2.91842 
6787 1 1.41206 -0.257593 -0.810802 
19967 3 0.515282 -0.205234 -0.845583 
19968 1 1.08283 -0.760585 -2.37289 
8595 1 2.24311 3.83916 -1.47987 
251 3 6.98885 -0.108522 -1.19071 
252 1 3.85753 -6.165 -1.00046 
250 1 -2.26242 -2.08148 1.64424 
19966 1 -3.70166 0.43076 -3.41973 
10464 1 4.38809 2.55872 1.41694 
8594 2 -1.93555 3.3421 -2.99843 
8593 1 -0.341457 3.39377 -6.1484 
19395 1 3.21683 -3.70374 -2.54776 
19394 3 -4.4401 -2.77826 -5.68546 
19393 1 5.68421 -1.28006 7.66733 
10463 2 -3.43603 3.58121 3.70754 
10462 1 -3.92111 3.82236 -1.29554 
20317 1 0.322588 2.47448 -0.196308 
19989 1 1.87157 4.68746 -2.4974 
11473 1 0.380706 -0.210786 2.53947 
11474 3 1.74386 0.472456 3.01965 
11475 1 -4.31793 5.85933 -2.82099 
14820 1 -0.27492 4.42273 1.34199 
14818 1 1.90209 -2.37638 -2.0002 
14819 2 2.01049 5.37315 -0.117302 
12700 1 -3.31511 9.47944 0.900798 