ITEM: TIMESTEP
100000000
ITEM: NUMBER OF ATOMS
8724
ITEM: BOX BOUNDS pp pp pp
0.0000000000000000e+00 5.0000000000000000e+01
0.0000000000000000e+00 5.0000000000000000e+01
0.0000000000000000e+00 5.0000000000000000e+01
ITEM: ATOMS id type vx vy vz 
9888 1 -2.67676 -1.3551 2.42161 
1289 2 0.360762 -2.02069 -2.39283 
9237 1 1.15014 5.66524 4.65117 
1290 1 -0.776273 -2.5964 -8.63319 
10222 1 2.48695 2.12425 -3.68059 
3327 1 -0.157485 0.324845 -0.146411 
3326 3 -2.64371 2.47106 1.22636 
13590 1 -1.39852 1.1653 4.28556 
10047 1 5.73875 -3.95491 -1.5746 
9235 1 -4.67273 5.68903 2.09614 
16869 1 -3.47368 -3.5832 1.52083 
9236 2 4.16905 3.35451 -4.91495 
18353 3 0.29016 -0.178167 2.81854 
4304 3 -3.16935 4.22183 -4.08697 
10066 1 6.41125 2.24706 -3.06909 
6825 1 -0.308116 5.49028 -0.868146 
10067 3 3.40533 0.869552 0.809192 
10068 1 6.83883 -0.107051 -4.01059 
4305 1 -5.92778 4.12922 -0.49835 
17691 1 -1.09348 5.71205 -0.300412 
17690 3 -0.427739 -0.729217 -2.83246 
17689 1 8.31715 -0.226438 -0.666895 
9805 1 -0.761378 5.49397 3.723 
18352 1 -3.4407 -1.36897 -1.06731 
6622 1 3.47977 -3.817 1.07149 
5012 3 -5.1182 -2.05842 -0.717538 
5013 1 3.37823 -1.09346 4.95917 
6824 3 -5.07423 0.0861787 1.60762 
6823 1 -7.54208 4.97617 3.33639 
10716 1 2.91489 4.53881 -1.65217 
10715 3 1.2595 2.59417 -1.73209 
5011 1 -3.64222 -1.8944 6.06304 
9806 3 1.63445 0.783802 -2.49018 
9807 1 2.48062 6.14071 2.48515 
7347 1 -1.44134 3.78081 0.304371 
6111 1 0.305774 6.00034 -2.42566 
7346 3 0.468543 0.130442 1.46163 
7345 1 -6.38537 -3.14561 1.83147 
17295 1 2.29616 4.06238 -1.65825 
4531 1 -3.14177 1.37451 1.29032 
4532 3 -4.35064 1.27037 -1.42078 
20953 1 -3.77441 -3.98423 -2.45282 
20954 3 2.47301 0.592106 0.276351 
1471 1 3.92403 -1.31271 0.74626 
20955 1 -0.805206 -0.0932863 0.853951 
10714 1 0.201452 1.27392 -6.77066 
4533 1 1.92539 -2.63182 -1.73349 
18379 1 7.79984 1.0997 1.75977 
1472 3 -0.512821 0.317694 2.05104 
18380 2 3.36692 0.440939 -0.141905 
8325 1 -5.72534 -2.03221 -0.919099 
8324 3 -0.254672 -3.78041 0.0292268 
8323 1 -1.41141 -2.46916 1.85046 
17293 1 4.78012 0.145103 2.60867 
20103 1 -0.93567 0.916927 3.43773 
2016 1 -1.26303 1.27609 2.42158 
20102 3 -0.0872678 3.9386 -3.34967 
2015 3 -1.7959 -4.84031 -2.46047 
17294 3 0.116029 2.44204 -1.46105 
19339 1 -5.43838 2.37581 -3.92408 
1473 1 4.35325 -4.4261 -1.88653 
19341 1 -0.154983 6.27042 -1.07822 
19340 3 -1.66341 1.31254 -0.232648 
1420 1 -1.50487 2.85732 -2.80339 
18381 1 -4.86055 -1.7264 0.184601 
10046 3 0.317011 0.678647 3.02482 
875 3 -1.29768 3.8458 -2.27285 
874 1 1.02901 -1.23341 -3.50976 
12462 1 0.149729 6.09764 -1.51025 
3406 1 0.405321 -1.94214 3.48069 
2014 1 -1.68248 0.568149 4.11596 
14081 3 4.26726 1.1315 2.2715 
20101 1 3.83942 4.24818 1.20002 
16012 1 -1.47524 -3.0138 1.87127 
12796 1 4.14086 7.15191 8.04797 
16014 1 2.20994 -0.569567 -4.72652 
16013 3 3.34017 -1.13049 -0.625483 
14082 1 -4.1126 3.98171 -2.98087 
14080 1 1.14534 0.294725 -1.40992 
19630 1 1.44394 8.8873 5.92895 
12797 3 1.55922 -5.3085 2.47995 
19631 3 -1.56809 -4.80149 -1.32235 
1421 3 0.271528 -2.95364 2.86314 
1422 1 -3.29374 -0.829683 -3.3872 
6223 1 2.63632 3.00704 -1.22849 
6224 2 2.9764 -1.29072 0.612367 
6225 1 2.44504 2.4409 1.8518 
4017 1 -3.24093 1.24768 5.30384 
10045 1 -4.3549 2.24075 2.7449 
9820 1 -0.27422 0.191707 -0.931916 
13915 1 3.75786 -1.74116 1.03001 
9821 3 0.882478 -0.357905 2.14085 
9822 1 2.39966 -3.59064 1.66962 
17961 1 0.78077 5.88615 -1.56545 
17960 3 -3.12062 -5.80735 -0.998321 
12460 1 1.19981 -4.81471 -5.19141 
18508 1 1.20679 4.49118 1.9682 
18509 3 -2.12314 -1.22956 -4.71215 
18510 1 -2.13604 -0.965477 -2.50354 
3532 1 5.18644 2.89197 -0.903297 
3533 3 -4.26905 1.40665 0.336169 
11360 3 -1.65031 2.16462 -3.82993 
12798 1 -4.1985 -1.02519 1.64633 
11361 1 1.3271 4.12356 -0.857038 
11359 1 -1.60858 0.272952 1.96291 
12970 1 -5.025 1.84714 -4.09049 
19632 1 -0.349236 1.44107 3.41246 
90 1 8.86543 -2.17676 1.44405 
88 1 4.80481 0.29705 -1.63276 
4016 2 1.86907 -1.29486 0.429546 
89 3 0.98037 5.0664 2.3787 
4015 1 11.0333 -2.34762 1.03677 
11415 1 1.1859 -3.89346 1.4881 
11414 3 -1.18037 2.36461 -3.4473 
1681 1 -0.435956 -3.62009 5.06559 
13917 1 3.6088 0.624136 1.04167 
18316 1 -2.3875 -2.53073 2.68324 
13916 3 -3.31009 -0.0107666 -1.54207 
18317 3 2.21759 -1.64415 -4.55545 
20761 1 -2.35281 -1.31656 5.17454 
20763 1 5.48816 -1.51196 -4.42207 
20762 3 -0.468273 -0.837722 0.0280161 
17959 1 -4.35153 1.99042 3.63912 
10702 1 0.463665 1.40405 3.45868 
21219 1 -0.703323 5.38885 7.38561 
6330 1 -0.439007 5.03502 -1.17767 
3534 1 -6.92028 -1.23279 12.0057 
7162 1 -4.16559 0.722044 4.26478 
21218 3 1.54268 1.75788 -1.14299 
7163 3 1.06815 -1.56699 -0.85659 
12971 3 -2.60611 2.86324 -4.00419 
7164 1 -5.24735 2.54561 -2.34962 
12972 1 1.74097 6.07383 1.50848 
21217 1 6.23085 -3.97082 -4.97243 
1683 1 3.16283 -6.18826 2.17051 
1682 3 -1.39111 8.30146 0.527274 
11413 1 0.539862 2.86199 -4.52545 
10704 1 -5.42847 4.0139 -7.44632 
710 3 -2.68307 0.265087 -0.32359 
709 1 -6.50389 1.81977 -3.11559 
10703 3 -0.183926 -0.0623823 -1.05839 
711 1 -2.46697 -3.88717 4.20715 
5899 1 2.42326 1.89347 -0.414444 
6329 3 -1.58199 -2.91705 -5.66156 
6328 1 4.01305 1.02643 -3.94963 
9906 1 3.10359 -3.40961 4.96346 
4022 2 5.06601 -1.6172 0.706018 
1826 3 2.30909 -2.30041 3.69557 
1827 1 1.48515 1.3264 1.63674 
4023 1 -2.06267 1.84796 -1.26994 
1825 1 2.59577 1.06902 -5.99462 
5039 2 3.24927 -2.78499 -2.23756 
9905 2 0.273194 -1.37298 2.98559 
5038 1 -1.88276 2.24421 2.59765 
9904 1 1.73275 3.69638 -2.06224 
5040 1 -8.10916 -9.05878 -2.33186 
2820 1 -1.6672 2.17981 -2.62773 
2819 2 2.60295 4.50093 -4.93026 
7775 2 -0.280209 0.434186 -2.61709 
2818 1 3.25922 -5.17433 4.57824 
7774 1 -2.09503 -0.979129 0.95195 
7776 1 -4.62652 -4.43648 0.139299 
11496 1 -0.500833 1.0206 2.99761 
16624 1 0.390918 -5.1399 1.6243 
11494 1 4.28933 -3.48522 -3.49905 
11495 2 -1.88012 -2.74076 -2.18763 
16625 2 0.27331 1.44123 -2.33581 
17729 2 -1.86752 -2.49398 0.166588 
17728 1 4.06058 -5.21561 -2.91422 
1647 1 -2.11647 0.207016 -2.2128 
16626 1 -0.638832 4.09487 1.65669 
1646 2 -1.99212 -1.09867 -1.4062 
1645 1 2.41702 -0.0533016 2.40753 
13326 1 -4.47769 -1.20975 -7.18892 
20566 1 -2.14627 2.84657 -2.20724 
20567 2 -4.22303 -4.01315 -0.775996 
20568 1 1.18729 5.55822 -3.95037 
17730 1 3.97353 -0.145572 4.68482 
6733 1 -6.00504 -1.37283 -4.53365 
6734 2 2.17008 3.23587 -5.09407 
13324 1 -3.71498 -0.23122 -6.40016 
13325 2 -1.58374 5.32362 1.95893 
19707 1 -3.55824 3.60807 -3.99785 
6522 1 0.316002 0.805448 -3.80832 
1572 1 1.70918 -2.26776 -0.437929 
6520 1 -2.05203 2.19853 -5.7712 
6521 2 -7.87634 -3.77395 -5.2107 
18770 2 2.05841 5.4782 -1.12766 
18771 1 -5.64681 -2.98559 -3.05903 
18769 1 -1.10899 -2.06128 -8.26235 
5492 2 5.48489 -3.99194 2.62189 
5493 1 -4.05738 -3.76712 -2.87617 
10092 1 -1.91307 2.45872 -5.10029 
10872 1 -3.64828 0.929696 2.79323 
10091 3 3.22737 0.436455 -0.38757 
10871 3 -0.702434 -3.34065 2.19221 
5491 1 1.41193 7.32282 3.5645 
19362 1 2.29518 0.0604857 1.17416 
19360 1 -1.82259 9.99525 3.591 
19361 2 2.12718 -0.0733829 0.468949 
1338 1 1.41436 -1.22269 3.5175 
19706 3 0.348079 1.21019 2.09893 
1762 1 -3.77053 5.41217 2.14172 
5167 1 1.16637 -2.19888 4.28355 
13297 1 2.98931 3.42345 -1.91722 
5168 2 0.0251485 -1.48071 -2.51748 
13298 2 3.66276 -0.140362 0.744098 
18849 1 -0.57503 0.889104 1.17044 
10870 1 -5.15016 -3.10263 -3.10121 
18848 2 5.05748 1.49211 3.76187 
18847 1 -7.50263 5.21147 -1.38397 
601 1 0.597058 1.02374 0.669332 
13230 1 2.88412 -1.78064 7.39766 
3570 1 1.9318 -0.887091 0.560653 
3569 2 -5.71411 0.250273 -1.47064 
19705 1 -1.52958 -3.50929 -7.04771 
511 1 -0.117095 -0.722063 2.60916 
512 2 1.3339 0.567697 -0.578774 
513 1 -1.73079 -5.27337 -2.08152 
20085 1 -2.29309 1.3069 -4.96792 
1337 2 -0.7239 0.296347 3.04236 
1336 1 1.33556 -1.90362 0.56428 
1917 1 2.47338 6.30831 -1.83934 
1916 2 1.50768 1.14962 2.36381 
1915 1 7.45374 -7.66528 -1.18797 
13299 1 1.54373 6.33876 -3.79884 
16695 1 -0.573198 3.8022 -0.925372 
7569 1 5.88307 1.6603 1.13589 
16694 2 -2.16755 -1.89575 -1.18737 
16693 1 0.746836 -6.011 0.146288 
1763 2 3.63141 -4.6272 0.256221 
1764 1 1.27076 5.28341 -0.900444 
8565 1 -1.07413 -0.922593 0.323519 
8564 2 2.00351 0.205274 2.1375 
8563 1 8.2082 -4.33337 -3.89041 
602 2 1.33444 0.591129 1.16752 
3568 1 -0.137538 -7.42759 -0.280353 
13229 2 -5.8592 -0.894176 2.19907 
13228 1 5.09045 0.734817 5.94409 
6342 1 -2.49913 1.6875 0.766197 
6341 2 -0.46357 -1.7169 -0.85234 
6340 1 -6.64479 0.650881 -3.87533 
9384 1 1.95365 -1.05453 -4.41265 
4051 1 -0.819228 -6.82934 0.876569 
4052 2 2.28376 1.22648 0.367144 
1571 2 0.333513 0.222788 2.62544 
4053 1 2.17003 1.01578 3.8455 
20084 2 0.616833 4.46736 0.332965 
20083 1 1.52845 -0.26965 -5.60906 
20404 1 -2.68446 5.23167 3.40636 
20405 2 4.74406 0.470995 0.547223 
4674 1 -0.686687 2.20482 2.27625 
4673 2 -2.01947 -1.55136 -0.299591 
14283 1 5.22709 -2.44298 0.687113 
4672 1 -4.56011 -4.19767 -1.4699 
20406 1 2.81384 0.190224 2.8588 
19470 1 1.68377 4.58346 -2.44875 
14282 2 -3.08682 -4.25242 -5.15107 
7568 2 0.123178 -0.746487 1.74683 
4882 1 1.05466 0.448809 0.0860693 
19469 2 -0.877345 1.75964 -4.534 
4883 2 3.65679 0.598298 -2.02025 
16422 1 -0.363109 -1.57352 0.967888 
4884 1 4.08856 3.93979 -1.45587 
19468 1 4.53744 0.94003 1.56257 
7567 1 2.15861 -2.45279 -1.3058 
16332 1 -1.22038 2.4992 -0.446651 
1497 1 -0.858901 -0.373194 -3.52195 
21324 1 -0.550617 -1.32012 5.20798 
1496 2 3.45276 -1.22031 -1.81763 
16331 2 1.8407 -1.97231 -4.14856 
10978 1 -2.79609 -1.36497 5.57736 
16330 1 0.230165 -1.77826 1.99932 
10979 2 1.20946 1.0747 -3.8018 
18059 2 2.28096 -2.34905 -0.742482 
9382 1 0.679713 3.86443 -2.61237 
9383 2 1.06176 0.259478 3.56683 
18058 1 -0.0417114 3.29795 4.10245 
1570 1 -0.0890284 -0.458206 1.8129 
1495 1 2.66504 -0.371463 0.661233 
21303 1 0.912191 -2.54892 0.071727 
18507 1 -2.90962 -4.00069 -4.03466 
10090 1 -0.284682 -1.95426 -6.28175 
18506 3 -1.18211 2.17213 2.63244 
18505 1 -3.60096 -0.338409 0.00141939 
16230 1 -6.73318 4.77057 7.18899 
17397 1 1.6113 -0.835865 1.97222 
6187 1 4.20758 4.86737 0.220345 
17396 3 -2.29315 -2.25326 1.52143 
17395 1 3.51618 1.89111 5.09503 
9344 2 1.59941 0.0579887 0.250747 
21302 3 0.552773 3.86522 -0.929815 
21301 1 -0.408632 1.84179 0.708005 
8227 1 1.6338 -5.5854 -0.0579859 
8228 3 0.816434 -2.6093 -3.33291 
8229 1 -0.471849 0.0848671 2.23648 
13012 1 2.72118 -4.08016 0.0316623 
21250 1 -1.08277 1.99392 0.656795 
13013 2 -1.14675 4.37964 -0.232764 
13014 1 4.90045 -4.60455 -5.38368 
10890 1 1.23789 -3.77615 3.04839 
10889 3 -0.615149 2.64908 -0.291045 
10888 1 1.84754 0.885819 -0.107126 
15297 1 -5.74367 3.82032 1.30935 
15296 2 4.55857 0.258532 -1.42007 
447 1 -1.01148 1.66453 -3.17762 
4635 1 -1.43477 -2.09784 0.0256566 
446 3 -0.430928 -2.441 1.85722 
6188 3 1.41858 -0.926712 5.82901 
19939 1 -3.08284 3.29446 3.62327 
10838 3 -3.93881 -4.16576 0.199553 
6189 1 -2.01559 1.46102 -3.63965 
10837 1 -3.53071 0.912212 0.527524 
10839 1 0.109887 -2.18941 5.34131 
19940 3 -0.221036 0.138795 -0.501298 
1382 2 -2.26369 -4.1624 -3.50618 
1381 1 -1.33234 2.45007 -3.65088 
18552 1 -2.68491 -2.47725 -4.38413 
1383 1 -1.15845 4.56483 8.22908 
9343 1 -7.19397 3.43114 -4.78567 
16162 1 -0.930132 0.964518 1.48023 
21252 1 0.56927 2.63809 -6.47361 
16163 2 1.29206 0.886433 0.911641 
325 1 0.438454 5.32485 -0.419173 
21251 2 3.52201 1.27281 1.97913 
6476 2 2.43284 1.58446 2.34799 
327 1 -1.83427 -7.52714 0.0304952 
6477 1 4.98917 -7.23773 -0.356304 
326 2 2.1779 -3.99152 0.984137 
10232 2 -0.217819 0.58601 -1.1978 
10233 1 4.62165 1.8041 2.3688 
10231 1 3.43607 -0.457482 0.449792 
11577 1 2.28103 2.18572 0.831361 
5169 1 2.53263 -9.08426 2.91485 
15295 1 0.101738 1.34681 1.41087 
17037 1 -3.85415 -0.684434 1.13874 
17036 2 3.21838 -3.42566 0.620023 
17035 1 -2.12833 2.5977 0.313182 
6855 1 5.18497 4.10541 -2.38731 
10794 1 -1.02173 3.52729 0.286312 
6207 1 0.60283 -4.80772 1.61803 
6206 2 5.07572 0.687495 -5.36663 
19941 1 4.57124 0.360956 -0.264364 
6205 1 -1.04518 -0.206262 -7.56357 
10146 1 2.69131 -3.37116 -1.00162 
10792 1 -1.21972 -2.42232 -5.18143 
10793 2 0.652144 1.41332 2.02575 
5939 2 1.84512 0.729108 -1.83746 
10145 2 5.16958 -2.73836 1.3869 
5938 1 -3.16734 1.59635 -3.27688 
4633 1 -0.0264921 -2.65091 -0.321327 
282 1 3.70168 -0.140436 7.26556 
5940 1 -5.15562 1.73723 8.04813 
4634 3 1.08787 4.14959 0.254482 
18550 1 -3.66297 6.57667 0.225511 
1317 1 -1.93033 -2.41837 5.00913 
18551 2 -1.08122 -0.277725 1.83572 
1316 2 -0.552326 1.25813 -0.126306 
19650 1 2.57334 -0.815831 -5.3211 
19649 2 -0.175447 -0.260295 0.19534 
19648 1 -4.54112 -0.332776 -0.207603 
885 1 6.50549 -1.82321 4.17458 
16164 1 -2.57496 2.37418 1.25828 
1315 1 5.34456 -7.39043 -6.129 
6475 1 -0.599555 1.04906 -8.37723 
12651 1 -5.79004 1.63186 0.79082 
12650 2 4.45129 -1.66081 1.71703 
12649 1 -1.49638 -2.8886 -5.4971 
1680 1 1.64796 2.30164 1.54605 
20826 1 -2.42922 5.84218 -2.68218 
20825 2 -4.29794 0.45504 2.09596 
11575 1 -3.0035 1.39191 0.306201 
11576 2 -0.0564257 4.37075 -6.41306 
15120 1 -3.92307 1.50359 0.251616 
603 1 -3.40993 -0.781086 1.98366 
15119 2 0.173097 -3.39322 -1.96225 
6854 2 -1.68953 -1.13025 -1.16163 
6853 1 1.58779 -1.86342 2.41953 
10050 1 -1.88807 -3.15439 6.08407 
10049 2 1.85401 -0.222176 1.44989 
9214 1 1.07983 -3.38976 -0.727015 
14385 1 -0.627185 5.38344 -0.393679 
14384 2 0.252334 0.54093 -2.84365 
14383 1 -3.18303 -7.16355 1.12637 
10144 1 0.880919 0.096541 -3.96954 
9994 1 -5.9795 3.94425 -1.05985 
281 2 0.974366 1.89114 -3.57002 
9995 2 -0.213614 4.06759 0.60257 
280 1 1.64431 -2.03264 -0.00778 
7515 1 -1.39545 4.09426 -1.99322 
7514 2 1.79517 3.77102 -2.08051 
9996 1 2.56144 -1.3035 -3.81004 
14119 1 -0.949989 -6.26988 -3.12051 
14120 2 -3.37472 -0.711981 2.47733 
4355 2 -0.066811 -3.44708 -0.625272 
873 1 1.26709 1.57967 -4.74443 
4354 1 -1.98834 2.52828 -2.83356 
9982 1 -0.986726 -2.13233 -2.78022 
9983 2 4.8856 0.764277 1.29184 
9984 1 1.22546 1.92621 2.21892 
478 1 -2.08422 -1.81036 1.08469 
2929 1 5.36806 4.82505 -2.30962 
884 2 -0.00630442 0.39382 1.05698 
12714 1 -4.33028 6.11695 -6.16531 
12713 2 0.700428 5.48498 -3.26585 
12712 1 2.26081 0.792724 2.89662 
1776 1 -1.41168 1.66988 -4.04773 
2930 2 0.981742 -0.101306 -1.33407 
883 1 -0.182407 -3.21214 -4.77737 
2931 1 -4.5683 0.209621 5.35087 
5818 1 2.91085 0.898581 0.505069 
16711 1 -1.24111 0.0497501 -3.32231 
1775 2 -4.47626 -1.04379 -3.63054 
1679 2 0.219149 0.43478 1.54056 
1678 1 -1.16907 5.44703 -5.7534 
19315 1 1.37723 6.11601 -1.78964 
19316 2 3.36276 -2.57688 1.78765 
5819 2 -0.829802 -1.82318 -1.09361 
5820 1 5.99848 -5.42172 -8.20342 
20824 1 -0.441602 -4.62598 -2.22286 
5708 2 -1.40409 0.284367 -0.734968 
19317 1 -3.40137 -1.8557 -1.16916 
1890 1 -4.54743 3.24814 -3.64897 
15118 1 0.25804 -1.31553 1.46748 
10048 1 1.97479 -1.52863 -0.576333 
1889 2 1.66587 -1.35642 0.135087 
1888 1 2.0484 -2.73253 1.47931 
9043 1 -0.411797 -1.18411 -1.91133 
9044 2 -3.22396 -1.70413 2.3516 
3516 1 -3.45825 3.68179 -4.96184 
9045 1 -0.0240475 1.0636 6.13064 
2006 2 -4.886 -2.17535 -0.15288 
2007 1 -4.0938 0.295206 1.97667 
9216 1 6.11199 -2.23268 -1.84539 
9215 2 -1.19856 1.50375 -2.18229 
12924 1 4.08597 2.51627 3.33462 
7513 1 0.503822 -0.0943803 8.00578 
10809 1 -0.774617 -1.27361 1.45471 
19795 1 -1.00742 1.02386 -0.461927 
16656 1 2.84463 2.1321 3.66879 
14121 1 -3.78764 -2.8398 7.11668 
10808 2 -0.488563 -0.151426 2.40459 
10807 1 3.4367 2.58348 5.97431 
16654 1 -0.925591 -4.29489 -4.18059 
16655 2 -3.54098 -2.64054 0.15119 
2550 1 -2.77472 -3.97651 -0.811426 
871 1 2.52735 0.44733 -0.647521 
16943 2 1.69967 3.15795 -1.89186 
16942 1 -0.80654 1.89075 -0.00387025 
872 2 -2.14567 -0.577453 2.30963 
12975 1 -2.34162 0.598206 -5.99598 
12974 3 1.02431 -4.00608 3.50737 
4044 1 5.06046 -4.56059 -0.183973 
4043 3 -0.416626 0.419321 2.43278 
5843 3 5.88638 -1.39252 1.5017 
5842 1 2.54906 -1.22221 8.58277 
218 3 -3.40043 -1.82359 -4.96 
19454 3 -1.31561 1.33722 -2.92296 
19455 1 1.54597 -3.05547 -3.8791 
12331 1 2.44084 -1.90289 7.02197 
19453 1 1.37998 -4.04746 -1.45355 
219 1 5.72764 -1.00145 -7.87245 
14562 1 7.98658 4.66764 2.24008 
12973 1 8.68225 3.7774 1.819 
12333 1 2.00397 -1.29502 -0.0608217 
12332 3 4.04467 -0.0353667 2.0022 
717 1 0.411704 1.06805 -0.320885 
4887 1 -3.08704 1.14664 -5.9717 
716 3 -3.96025 3.76038 3.91104 
12358 1 4.49293 -2.47644 7.87667 
4886 3 -1.4102 -4.25317 -0.0099639 
2955 1 -5.00808 0.56657 -2.35564 
4042 1 0.952933 7.15147 -1.31211 
8027 3 -1.74785 -0.541254 -0.801566 
8026 1 -0.249977 4.77596 -0.105715 
4885 1 0.903868 -2.88281 -2.28765 
8028 1 1.80018 -1.39971 -0.636548 
4315 1 1.1965 2.10363 -1.9654 
7303 1 3.81862 -6.66145 -1.81096 
9631 1 -3.00112 -3.5634 1.38642 
15668 3 0.555987 2.14904 0.399954 
5844 1 -1.84454 -4.95025 5.55311 
7305 1 2.0172 -0.70102 1.48326 
7304 3 0.189819 -2.49517 0.598868 
15570 1 -1.04192 -0.689564 -1.22088 
12471 1 0.620438 3.85516 2.63058 
15568 1 -2.96954 -4.92176 -1.96712 
15569 3 1.43133 0.277011 3.60167 
15667 1 -1.50673 -1.79452 3.17737 
4172 3 -0.363163 -1.78096 -0.773866 
4171 1 -0.814608 4.06847 2.36665 
4173 1 -0.0656118 3.21665 4.87295 
3099 1 -3.15626 -2.18828 -1.3271 
5679 1 4.72178 2.54791 -4.91764 
5678 3 -4.23148 0.215778 -3.10378 
9345 1 -4.7689 0.207731 3.14808 
11356 1 1.70638 -0.808974 -2.50899 
11357 3 0.852603 -2.77762 -2.70053 
14692 1 2.51838 -3.01534 -2.00049 
14561 3 -2.25058 0.202855 -1.42111 
14560 1 1.22062 0.823782 0.792195 
14693 3 -0.608517 -0.702676 -1.86691 
11358 1 4.86829 -2.16742 1.51245 
11243 3 -2.39074 3.47375 0.30132 
11242 1 -6.45887 -3.36902 -6.03605 
11244 1 -4.3601 1.73785 1.58461 
2953 1 -0.829574 -0.677029 0.345546 
9710 3 0.606269 -2.12458 2.47521 
9711 1 -1.31775 -2.63048 0.413521 
715 1 0.505573 -2.77269 -4.41909 
9709 1 6.00572 -3.87896 5.31634 
2954 3 -1.22385 5.00988 -2.06349 
20686 1 -4.08947 -0.00473491 -2.69307 
19851 1 -3.76545 7.61999 -3.84616 
456 1 0.341945 0.415203 -4.45385 
19850 2 -2.24568 -3.49017 0.566058 
20687 3 -1.61101 1.08458 6.48866 
20688 1 5.53375 -4.95529 -1.1149 
11837 3 -0.0463643 -3.47518 -6.20223 
11836 1 0.325049 5.7139 2.3791 
11838 1 0.238566 1.95138 -2.83714 
19618 1 -5.94644 -5.82658 -2.24879 
4316 3 -0.79651 -1.83882 2.79756 
8369 3 -1.15076 -1.97516 -2.65471 
8368 1 0.402394 -6.60142 1.16451 
4317 1 -2.67447 -1.62762 4.02469 
5762 3 -2.23574 3.35667 0.628696 
5761 1 7.3533 6.61098 -0.847624 
9632 3 -4.46813 2.18196 -0.496232 
9633 1 1.67579 4.20203 2.0885 
19619 2 -1.60409 -4.50145 -2.34833 
18306 1 4.55003 11.264 4.83647 
16306 1 -3.71828 -2.15028 -1.71112 
15669 1 0.128161 1.78971 1.4236 
12470 3 -3.25817 -0.333414 2.32658 
21469 1 -0.492195 1.94072 -5.11875 
18305 3 1.73642 -3.61107 1.12475 
18304 1 4.32851 2.58499 -3.38438 
12469 1 2.37898 5.88873 1.26328 
21470 3 -3.67795 -0.561159 2.07929 
3684 1 -4.48963 -1.28729 0.346532 
21471 1 3.53912 1.41974 -1.12658 
13599 1 -1.96112 -2.15188 6.01408 
13598 3 3.02284 1.95563 -4.1275 
18229 1 0.793337 -2.38736 0.307532 
18230 3 -0.112335 0.243676 -1.5691 
18231 1 -0.675387 2.35607 1.26744 
5677 1 -3.41053 3.40521 2.55821 
3097 1 1.43358 2.57806 1.09087 
3098 2 -1.88052 -1.35104 -1.13338 
3757 1 3.0818 -1.55698 1.2395 
10129 1 -3.15755 0.727398 -0.920465 
10130 2 -4.33394 1.48793 4.81421 
19441 1 1.50102 -3.05113 -5.96808 
15191 2 -3.3865 -4.96497 -2.34184 
14694 1 -2.6061 0.512091 -2.44456 
15190 1 -1.15516 0.285022 7.19223 
636 1 -2.29505 -0.915327 -0.469767 
15192 1 1.00444 1.44856 -2.43001 
635 2 0.121871 -0.266754 -4.23037 
634 1 0.931329 -6.50351 -0.141784 
21363 1 7.49255 -2.3454 -0.555686 
19442 2 1.8778 -1.41668 2.57049 
10131 1 2.12195 -1.7031 5.25604 
14887 1 -1.00037 1.97918 3.69248 
21362 2 -0.786993 2.85231 -0.595533 
1649 2 -0.18715 1.44838 1.18667 
454 1 -4.48331 -6.34088 -1.28217 
455 2 -0.236552 2.9114 2.16931 
19849 1 1.18998 2.49208 4.69113 
21282 1 -0.624713 -4.39546 -1.5339 
21281 2 -1.51941 5.20042 -0.188322 
21280 1 -6.41782 0.155594 -1.43954 
4849 1 -2.30516 2.92814 5.81489 
1926 1 -2.15003 -0.367224 -2.0461 
1925 2 -0.521631 -0.0151802 -0.261882 
20607 1 0.915577 -6.07943 -1.09896 
5763 1 2.94088 -1.5343 1.01402 
13854 1 1.58663 -1.25674 -0.790018 
8370 1 4.33099 7.09325 3.8988 
19620 1 10.8467 -2.19215 1.15417 
1924 1 -2.37243 -0.520277 -0.258658 
13853 2 -4.17283 -3.63603 -1.67614 
13852 1 2.59331 -4.75497 -2.45104 
5136 1 -2.08761 -0.150645 1.20216 
20394 1 0.0579991 3.65213 -3.7191 
20392 1 -8.33186 0.887898 -2.70844 
11923 1 1.84225 4.01073 -1.31709 
20393 2 1.14762 0.329324 -0.0272313 
5201 2 -3.52491 -2.10958 0.791527 
5202 1 -2.32995 0.239793 -3.19426 
16308 1 -4.19438 -0.737212 -0.713897 
16307 2 1.04436 0.521268 3.18974 
3683 3 1.36476 -0.807559 -0.58588 
3682 1 2.67786 1.56897 -3.91389 
8361 1 0.320486 2.68029 -3.18947 
8360 2 1.41198 -5.35545 0.187213 
13597 1 -5.64734 7.28721 2.42129 
17447 3 -3.51172 -0.761428 -3.67848 
17448 1 -0.661188 0.344491 -2.19933 
17446 1 -6.06394 0.0273559 -4.99396 
21049 1 1.4212 -2.60903 -1.73329 
8359 1 -1.33225 -5.84032 3.59779 
4146 1 3.76411 0.232205 6.29416 
14889 1 0.944038 -0.906489 0.976402 
4145 2 0.0645323 2.79922 -1.97086 
14888 2 1.24092 0.448379 3.2095 
19443 1 2.29782 -0.713368 -4.44844 
15868 1 -0.241869 -0.968899 -0.388656 
15869 2 -4.25823 3.21219 -6.60164 
5639 2 -1.2872 4.49934 -1.8171 
5638 1 1.62876 -4.28911 -0.0361571 
21361 1 -2.70731 1.17234 1.19773 
15870 1 -3.24565 2.68466 2.96097 
7923 1 -2.88132 2.08154 -0.40161 
17897 2 1.90712 -2.78252 -0.664 
16849 1 -0.917822 3.05211 -2.96219 
17898 1 5.37977 3.43809 -1.42712 
5640 1 0.450035 2.64392 1.10853 
18433 1 2.50556 -0.12383 -4.19269 
17896 1 1.4003 3.51659 -3.87248 
1650 1 0.0483223 -2.71236 -0.306011 
20423 2 5.58644 -0.528732 1.27153 
20422 1 -0.964084 1.40684 -0.806142 
4850 2 0.820844 -1.28488 -2.04153 
4851 1 -0.254869 -6.23429 7.16226 
17029 1 -0.983713 1.5815 1.97719 
17030 2 2.49354 -2.56479 -2.11947 
20605 1 2.08034 4.06599 -6.05336 
20606 2 -1.83553 -3.98146 -0.865622 
17031 1 -3.67055 1.24309 -3.33445 
11924 2 0.856104 2.18319 -3.83902 
5135 2 0.951404 -0.629092 -0.0548857 
5200 1 -0.345332 4.2689 1.61084 
1374 1 -6.72387 -1.04484 1.63977 
1373 2 -1.71732 -3.70448 -1.43233 
5134 1 -6.45843 -2.1306 7.7295 
1372 1 -1.68479 -5.39022 1.07492 
11925 1 5.14626 1.31171 -1.17699 
30 1 -1.31447 -3.65444 2.26738 
14454 1 5.22308 1.7054 -1.75451 
29 2 3.26082 -0.801518 0.874122 
14452 1 3.11494 5.69241 -2.90387 
20782 1 2.32545 -1.00555 -1.6501 
14453 2 2.17195 -0.98103 -0.679948 
28 1 -0.950671 1.39466 2.39472 
7935 1 2.53641 -3.30155 1.38628 
15391 1 -0.610282 1.52263 -6.69525 
21050 2 1.88489 -0.267623 3.95108 
15392 2 -1.35144 -2.99969 -1.4778 
3459 1 -2.76401 -6.66004 0.9467 
15393 1 -2.4002 6.16791 3.06023 
21051 1 -1.4729 1.19935 -1.18303 
3458 2 2.58005 -0.390022 -1.30417 
4551 1 5.33345 1.12527 -0.141312 
4550 2 0.0130747 -3.5193 0.735165 
15650 2 -2.39752 2.81121 1.04836 
15649 1 3.65619 -0.650715 0.647832 
15651 1 -3.1077 -0.646492 -1.40985 
19100 2 -0.569427 0.328754 2.56165 
4549 1 1.93169 -1.15782 2.14451 
19099 1 3.28375 -0.330583 0.970514 
20099 2 2.87467 -3.61683 1.06774 
4144 1 -3.12254 1.49695 0.966222 
8413 1 -2.3683 2.55865 -0.824304 
8414 2 2.88733 0.772238 -1.63977 
20571 1 -3.08007 -4.44093 1.8204 
1240 1 2.00077 -0.51972 -0.663725 
18434 2 1.76164 -2.24894 7.65912 
14237 2 1.54044 -0.212676 -0.875132 
20100 1 3.51575 2.02775 2.44148 
18435 1 0.139409 1.57556 0.961345 
1241 2 -2.76603 2.18779 1.88636 
7922 2 -0.234083 0.0990248 -1.07641 
7921 1 1.98344 1.90719 -4.61373 
14238 1 5.11674 2.60717 -2.25189 
1242 1 0.0639781 -1.99649 -4.231 
16851 1 -2.46125 -0.354817 2.73425 
16850 2 0.389223 1.06037 -4.44931 
14236 1 1.21969 -1.71669 -4.11165 
21072 1 2.08906 3.24664 0.93879 
19126 1 -0.081606 3.51476 -0.352572 
5707 1 -0.273137 -1.6375 -2.52496 
20424 1 1.13696 -1.95843 -4.0747 
5709 1 4.77045 2.18169 -2.4182 
3233 2 0.503304 1.07015 1.52625 
15163 1 -2.38545 4.46686 1.32831 
15164 2 -0.343264 0.839341 3.25626 
15165 1 0.425553 0.802668 -1.81153 
3234 1 -6.25194 -3.55383 -4.77745 
8043 1 2.43158 2.57175 2.43173 
21070 1 0.58408 -3.74114 9.70569 
21071 2 -4.7291 -4.92434 -0.598762 
8042 2 1.75709 1.17242 -1.6653 
4246 1 -0.266474 3.5133 1.91456 
17095 1 3.31619 2.11176 1.47742 
20783 2 -1.48737 0.195149 -2.24201 
7934 2 -1.30416 -1.85278 -1.5014 
7933 1 0.455858 -0.904854 -0.367953 
15112 1 2.36436 -7.0358 -0.0490186 
4248 1 -3.18908 0.474787 5.26929 
20784 1 -3.63365 6.30025 -1.16253 
4247 2 2.43252 1.99322 0.261322 
15113 2 -2.9653 -0.763586 -5.61315 
2847 1 -5.96388 2.08921 -6.44155 
2846 2 2.73376 -2.05983 -0.458678 
271 1 -1.58188 -3.78067 -2.48784 
3457 1 -3.84849 5.228 3.3271 
2845 1 1.36434 4.67111 0.0956579 
272 2 -2.97565 -2.1613 -0.3277 
273 1 -0.619212 2.80034 -1.83465 
10926 1 5.07482 0.711711 -3.36206 
10710 1 1.60288 0.879654 -2.21462 
8337 1 -2.33798 -5.73454 1.15188 
8335 1 -7.53852 2.54199 -3.98123 
8336 2 -3.04271 0.418637 2.19182 
10709 2 2.41908 -0.00793199 -1.67041 
10925 2 0.926192 -1.4199 2.8528 
11704 1 0.785626 0.2062 -4.99196 
6041 3 -3.47559 -5.17533 0.784443 
6040 1 -2.43102 1.48501 -6.37847 
6042 1 -8.20579 2.17778 -2.78089 
17834 2 0.16202 0.663045 1.92477 
17835 1 -2.19387 -4.06159 -0.51259 
3474 1 -1.3436 4.68749 -0.454269 
17833 1 4.11354 9.5051 -3.45061 
217 1 -1.99394 -3.98659 0.513445 
11706 1 0.113583 4.29542 -0.823186 
11705 3 3.13658 -0.182144 3.95807 
6546 1 -6.67391 -3.06703 -0.636695 
6545 3 2.48642 0.353632 0.00580097 
6544 1 1.8596 3.60932 -0.10275 
12655 1 -2.24607 -5.13076 2.09985 
12359 3 -0.783076 4.36918 -1.74722 
12360 1 0.0733807 0.347801 1.13 
6844 1 2.41914 -2.61459 6.38276 
6846 1 1.36548 0.501502 1.17626 
6845 3 -1.87264 0.368476 5.36554 
1983 1 5.45532 2.57459 5.16762 
1982 3 0.953825 -2.29039 1.48391 
6723 1 -3.70148 -9.03908 3.11011 
20978 3 3.78923 1.04937 1.87515 
20979 1 -1.97721 -4.8315 -5.53888 
6721 1 -0.708192 -2.25312 1.283 
6722 3 -0.170538 1.2486 3.01163 
9909 1 -8.14153 2.67119 -5.82213 
2422 1 0.329685 -0.608712 -3.8736 
19406 3 1.25665 5.52271 -3.29216 
9908 3 1.15583 -0.333692 1.15471 
19405 1 -4.27934 -1.12861 -0.481927 
9907 1 0.836162 3.04457 2.17621 
3473 3 0.989446 -0.0454458 -2.4162 
1106 3 -3.78941 1.85136 -1.23239 
3472 1 4.4705 1.97925 -2.3263 
1107 1 -0.797198 -0.373581 0.562301 
16614 1 1.598 -1.58496 -5.59716 
21090 1 3.21855 3.03769 -0.882867 
21089 3 5.15326 -2.22081 -1.2073 
10319 2 0.191791 2.73889 0.529447 
12657 1 7.78815 -0.707998 1.41925 
10320 1 4.26159 1.9714 4.79646 
12656 3 -0.335648 -2.60633 2.85436 
18511 1 -1.07761 -0.482178 -0.477538 
21088 1 4.0738 5.67794 -0.679919 
21333 1 -0.524385 2.41724 0.24865 
21332 3 -1.6826 -2.86114 -4.17886 
21331 1 -5.49282 6.36354 -0.0456478 
19011 1 -0.357016 4.03822 -1.45119 
19010 2 -2.02242 -0.895559 2.63334 
19009 1 1.02484 1.0167 3.97043 
18660 1 -0.435829 -2.21178 -0.634137 
2423 3 2.1963 -2.65457 -1.53627 
1818 1 2.78244 3.07121 4.87155 
20977 1 0.825296 -4.22514 2.71567 
1817 3 5.11787 0.601804 -0.865599 
2424 1 3.13112 6.23502 0.613438 
17695 1 -1.46956 3.55237 1.45627 
17696 2 -0.900641 2.37367 -0.200911 
17697 1 2.33835 4.57005 -1.00915 
1816 1 3.18131 -2.91578 -3.06283 
16101 1 -2.64821 6.81132 -6.15633 
13311 1 1.11907 -2.16941 -4.0574 
16100 2 -0.258581 4.21497 2.55183 
3400 1 -8.09285 -1.5293 0.203425 
2522 2 -0.644578 -1.75589 -0.929459 
2521 1 -2.95325 0.035339 1.06661 
1105 1 3.04581 3.84928 2.37094 
7336 1 -1.29706 4.38345 1.84258 
9969 1 5.71439 1.05438 -0.854171 
7337 3 -0.151907 3.84921 -0.474075 
7338 1 -1.94781 7.24869 7.98177 
3402 1 4.129 1.60896 -8.57025 
3401 3 -2.49137 1.69365 -1.05948 
3758 2 3.18788 0.35796 -4.44009 
3759 1 2.60705 1.10158 6.91464 
14638 1 4.48106 -4.19511 -2.92217 
6258 1 0.789481 -1.82654 -2.79452 
15040 1 -2.65302 -1.52857 -1.41785 
6257 2 -0.200441 0.205257 0.953727 
10318 1 -1.12912 5.0999 -1.63448 
18512 2 0.357045 0.694905 3.4435 
16272 1 1.68778 -1.24897 -0.907645 
16271 2 -2.19769 -1.24329 -1.72816 
16270 1 -2.33954 1.65884 7.16778 
747 1 2.63171 1.25102 0.89426 
18513 1 3.85622 -2.06485 8.43807 
6256 1 -1.46866 4.04381 0.349864 
746 2 -3.75038 1.9348 -3.83616 
1648 1 2.01202 3.61901 2.905 
18658 1 -5.79019 -1.61482 6.46344 
18659 2 3.65078 4.6712 0.404522 
12820 1 0.812389 -4.74356 -5.33294 
19147 1 -2.54576 -2.11841 -2.78962 
12821 3 -2.30231 -1.8885 -3.71104 
12822 1 -0.0562377 -6.23523 3.25393 
19148 2 -0.473868 -0.521933 -2.29719 
5992 1 -2.45912 -0.916359 -0.402092 
9900 1 -5.82375 2.8331 1.83643 
17362 1 1.36911 -1.47095 4.82567 
9899 2 2.26184 -4.10557 -4.42867 
9898 1 -3.25759 0.8905 3.24493 
16099 1 -10.7282 2.86052 6.73294 
13310 2 -0.739993 1.45264 -4.24001 
13309 1 4.75908 5.83587 4.15137 
1104 1 -0.690024 4.23486 2.69457 
1103 2 -3.23329 -0.873918 1.29247 
19684 1 4.39019 6.23354 -3.84757 
4495 1 -1.50805 -6.61585 0.622026 
19685 2 -1.64522 -0.935921 0.47675 
2523 1 2.33207 -3.46667 -1.62511 
19686 1 -2.72218 0.343497 -0.777596 
4208 3 -3.55155 0.564997 1.12145 
9968 2 3.36902 -0.365434 -2.58467 
21355 1 -2.46374 5.404 0.797863 
10188 1 1.51046 0.00288713 -0.0770824 
21356 2 -4.02699 0.948971 -0.0499891 
9967 1 -0.783339 8.88032 2.5248 
21357 1 0.538152 -5.87657 -2.09861 
4207 1 -4.12792 0.370528 5.024 
9526 1 0.925104 -1.90939 0.396108 
19725 1 -2.9637 0.548779 -1.0282 
4209 1 -3.64258 6.38691 -1.20561 
14639 3 2.28471 2.14784 -1.88843 
15345 1 -5.01058 2.5192 -0.280728 
14640 1 2.79217 -4.3892 -4.8817 
15344 2 -3.20812 -0.6674 -3.81907 
9402 1 0.625354 1.34503 -1.00586 
15042 1 -1.66279 -1.73189 -3.58751 
9401 2 1.11554 0.508168 2.60864 
15041 2 2.9177 -0.993927 1.32197 
745 1 -4.73015 1.65584 -7.53168 
10968 1 2.65769 -2.20687 -3.27091 
10967 2 2.42943 3.28557 -0.199016 
10966 1 -1.52517 4.17606 -0.498515 
1515 1 0.406968 -1.66387 1.59404 
21380 2 4.0172 1.47603 3.77126 
2599 1 -2.13555 0.193428 -8.93243 
17021 2 -1.61491 -0.633326 4.19633 
17020 1 -0.716696 -1.49397 -0.895976 
5994 1 4.39419 -3.04334 -0.350896 
21381 1 -2.27157 0.842552 2.74998 
19149 1 -1.8167 -4.72467 3.22788 
18325 1 -8.85598 -2.24053 -4.19217 
18326 2 0.996804 -1.959 -2.54542 