ITEM: TIMESTEP
100000000
ITEM: NUMBER OF ATOMS
1269
ITEM: BOX BOUNDS pp pp pp
0.0000000000000000e+00 5.0000000000000000e+01
0.0000000000000000e+00 5.0000000000000000e+01
0.0000000000000000e+00 5.0000000000000000e+01
ITEM: ATOMS id type xs ys zs
13068 1 0.180972 0.0776879 0.016382
6745 1 0.180791 0.0760832 0.0182322
6747 1 0.183134 0.0635646 0.0259848
6746 2 0.182814 0.0705157 0.0229699
13067 3 0.18136 0.0835937 0.00989368
14136 1 0.180345 0.0890603 0.000249821
13066 1 0.180393 0.0876832 0.00318966
8767 1 0.263689 0.178658 0.0057647
8768 2 0.270922 0.178461 0.00620965
8769 1 0.278525 0.17666 0.00501569
15720 1 0.226888 0.253607 0.0113285
15719 2 0.231764 0.25728 0.0163004
15718 1 0.237528 0.259658 0.0221391
7991 3 0.0729148 0.397718 0.0260771
7990 1 0.0679592 0.39897 0.0201705
6441 1 0.115934 0.121166 0.061217
3190 1 0.143666 0.209895 0.0574868
7992 1 0.0791236 0.397851 0.0313975
20194 1 0.00409784 0.428557 0.0470564
4756 1 0.344584 0.497481 0.0623518
13285 1 0.055965 0.602451 0.0359427
13287 1 0.071515 0.599449 0.0338807
13286 2 0.064494 0.601133 0.0357163
6439 1 0.107691 0.109988 0.0717004
6440 2 0.113191 0.114774 0.0665456
11688 1 0.303759 0.0999531 0.0641377
11686 1 0.317174 0.0988596 0.0744823
11687 3 0.310134 0.0989704 0.0699958
3192 1 0.14967 0.205936 0.072742
3191 2 0.146738 0.207925 0.065229
12239 3 0.244278 0.463577 0.090916
12238 1 0.243464 0.468282 0.085777
4758 1 0.352853 0.502684 0.0741918
4757 2 0.348892 0.499625 0.0688803
14712 1 0.0347243 0.549577 0.0794454
14710 1 0.0361068 0.535306 0.0725878
14711 3 0.0335566 0.541747 0.0766786
17714 3 0.106437 0.110059 0.124701
17713 1 0.103112 0.116992 0.123927
12240 1 0.247206 0.458084 0.0960991
13281 1 0.247872 0.455591 0.098244
13280 2 0.249345 0.451141 0.104391
13279 1 0.252586 0.447073 0.110798
3410 2 0.240297 0.470581 0.120055
3409 1 0.238849 0.476332 0.116246
5185 1 0.237208 0.672916 0.110591
5186 3 0.244635 0.673527 0.114437
5187 1 0.251901 0.673298 0.118969
4300 1 0.120148 0.0885763 0.133812
4301 2 0.115482 0.0944991 0.130693
4302 1 0.111363 0.101309 0.128219
17715 1 0.109915 0.104006 0.127204
3411 1 0.24204 0.464674 0.125267
2782 1 0.391187 0.54535 0.147217
2783 3 0.391007 0.546559 0.155882
1569 1 0.193203 0.672787 0.146109
13373 3 0.268007 0.0379744 0.183401
13372 1 0.263267 0.0394096 0.178773
5377 1 0.0641527 0.278961 0.186928
2240 3 0.368434 0.360371 0.177655
2239 1 0.365082 0.352803 0.179386
2241 1 0.371741 0.367239 0.176108
2784 1 0.390655 0.548414 0.164167
19167 1 0.355436 0.578204 0.160581
19166 3 0.360149 0.573322 0.165344
19165 1 0.364774 0.56893 0.169673
13374 1 0.274451 0.0350472 0.187183
14933 2 0.256905 0.198197 0.21508
14932 1 0.252485 0.195766 0.207743
5378 2 0.0609534 0.284723 0.191731
5379 1 0.0568088 0.290486 0.196559
20706 1 0.0559148 0.2919 0.198064
20704 1 0.0500431 0.301994 0.208611
20705 3 0.052806 0.296187 0.20298
12984 1 0.0111128 0.332614 0.204281
12257 2 0.00623822 0.35803 0.211096
12258 1 0.00484942 0.365841 0.212013
12256 1 0.00818143 0.350784 0.209017
12982 1 0.00869465 0.347764 0.207862
12983 3 0.00960664 0.340673 0.205711
20914 1 0.162162 0.366507 0.217751
8362 1 0.209472 0.389798 0.203764
8363 2 0.209463 0.389545 0.211689
2755 1 0.0777287 0.501366 0.203424
2756 3 0.0821752 0.503699 0.196471
2757 1 0.0842076 0.508254 0.191106
6294 1 0.366314 0.552672 0.193505
6293 2 0.368484 0.547204 0.199612
6292 1 0.371333 0.541634 0.205641
14149 1 0.171982 0.579048 0.190747
14151 1 0.166394 0.56521 0.197446
14150 3 0.168953 0.572831 0.194165
11178 1 0.319781 0.121223 0.236207
11177 2 0.32281 0.126035 0.230939
11176 1 0.324321 0.129475 0.223013
14934 1 0.260554 0.199554 0.222511
20915 2 0.169643 0.36928 0.220485
9960 1 0.289853 0.368841 0.224925
20916 1 0.176603 0.374224 0.224349
8364 1 0.21085 0.389453 0.219484
9959 3 0.293507 0.373521 0.227827
9958 1 0.297018 0.38067 0.23128
11257 1 0.39672 0.409271 0.224195
11259 1 0.397082 0.401742 0.239649
11258 3 0.3957 0.405086 0.231366
20944 1 0.367677 0.138327 0.278931
18602 3 0.364456 0.171509 0.27699
18603 1 0.361142 0.172742 0.269605
17077 1 0.375813 0.195659 0.267424
17078 2 0.372983 0.194392 0.273993
18578 2 0.258151 0.468168 0.264589
18579 1 0.266828 0.466556 0.266822
18577 1 0.250163 0.468738 0.263092
1072 1 0.34372 0.0612886 0.30105
1073 2 0.345768 0.0659595 0.294456
1074 1 0.349038 0.0701133 0.288942
20945 3 0.370381 0.137142 0.286742
20946 1 0.37182 0.137376 0.293685
18601 1 0.368892 0.170238 0.283536
17079 1 0.369787 0.192675 0.281286
18572 3 0.0655946 0.335347 0.300601
18573 1 0.0697435 0.333378 0.29351
18571 1 0.064251 0.336325 0.308798
20724 1 0.0641222 0.337001 0.311649
15211 1 0.0480351 0.337849 0.320875
15212 2 0.0416749 0.337717 0.326195
20723 2 0.0635391 0.33695 0.319276
20722 1 0.0620836 0.336471 0.327611
1760 3 0.143873 0.334503 0.319946
1761 1 0.144925 0.330264 0.326963
15213 1 0.033304 0.339849 0.329367
1759 1 0.142366 0.339615 0.31299
18474 1 0.22257 0.364085 0.341135
3277 1 0.254121 0.513305 0.328107
3279 1 0.262939 0.511081 0.314084
3278 2 0.258578 0.511719 0.321325
16404 1 0.393383 0.613305 0.330559
16402 1 0.396033 0.629061 0.331811
16403 3 0.394735 0.621219 0.330998
21106 1 0.241297 0.0625832 0.360604
21107 3 0.239526 0.0646173 0.353168
21108 1 0.237012 0.0677402 0.346094
10271 2 0.10433 0.143616 0.371825
10272 1 0.0977587 0.142702 0.366379
9027 1 0.0474764 0.174947 0.371388
9026 2 0.0517249 0.168421 0.374094
16505 2 0.352602 0.172492 0.373541
16506 1 0.346171 0.169826 0.36939
15878 3 0.357097 0.333187 0.35909
15879 1 0.364463 0.337479 0.357461
15877 1 0.349361 0.330691 0.360215
18472 1 0.218572 0.36244 0.357486
18473 3 0.221253 0.363244 0.349605
19181 2 0.300241 0.112817 0.404277
19180 1 0.30822 0.112773 0.400725
15329 3 0.0596329 0.152035 0.380683
15328 1 0.064179 0.145945 0.382742
19804 1 0.120675 0.144509 0.392105
19805 3 0.116624 0.14492 0.385503
10270 1 0.110699 0.145073 0.377554
19806 1 0.112913 0.145151 0.379566
4960 1 0.392 0.130373 0.390695
4961 2 0.385357 0.130275 0.395118
4962 1 0.380544 0.129575 0.402275
12531 1 0.379312 0.129334 0.405255
9025 1 0.0542024 0.161289 0.377044
15330 1 0.0555033 0.158992 0.377585
16504 1 0.357304 0.176414 0.378903
8750 3 0.364036 0.216813 0.404997
8749 1 0.366613 0.218448 0.396391
8309 2 0.181887 0.450884 0.393811
8310 1 0.173602 0.451083 0.395199
8308 1 0.189534 0.450522 0.393948
17475 1 0.297951 0.644485 0.375604
17474 2 0.295852 0.646838 0.383041
17473 1 0.295533 0.649787 0.390136
19182 1 0.294001 0.11325 0.409918
12530 3 0.375777 0.129612 0.412121
12529 1 0.373069 0.12959 0.41934
6595 1 0.359109 0.215574 0.415899
8751 1 0.360175 0.215263 0.413066
6597 1 0.351785 0.219775 0.430359
6596 2 0.356006 0.218035 0.423301
17791 1 0.0221012 0.469345 0.434982
17792 2 0.0204268 0.473176 0.428393
17793 1 0.0161026 0.475731 0.421873
20976 1 0.0462551 0.066066 0.447491
20975 3 0.049582 0.0713793 0.443517
20974 1 0.0534688 0.076813 0.438805
5043 1 0.399929 0.361862 0.466803
15865 1 0.0747283 0.0914086 0.49138
15866 3 0.0746145 0.0986591 0.488034
15867 1 0.0751308 0.105204 0.485041
3103 1 0.269008 0.0937957 0.48987
3104 2 0.265073 0.0970527 0.49538
6027 1 0.000192048 0.23021 0.495711
15558 1 0.30374 0.255273 0.497811
19860 1 0.308747 0.394299 0.470944
19859 2 0.315103 0.393557 0.475316
19858 1 0.321308 0.39154 0.478402
12938 2 0.000892129 0.536148 0.475143
12937 1 0.00226299 0.530877 0.4693
13371 1 0.210831 0.674509 0.492227
13370 3 0.214947 0.669164 0.496165
3105 1 0.261307 0.0985814 0.500981
15556 1 0.307422 0.242611 0.505439
15557 3 0.306274 0.249636 0.502435
14769 1 0.0843441 0.364648 0.52198
14767 1 0.0707687 0.367112 0.515815
14768 3 0.0767942 0.365156 0.519026
17824 1 0.230705 0.654986 0.512655
17825 2 0.226903 0.659871 0.506352
17826 1 0.222982 0.663857 0.501563
13369 1 0.220732 0.66561 0.499645
14665 1 0.386917 0.0130812 0.537651
14666 3 0.378984 0.0115563 0.538051
14667 1 0.371752 0.0100855 0.539753
1350 1 0.362822 0.424189 0.537162
1349 2 0.369025 0.421198 0.54069
15666 1 0.388398 0.408452 0.560168
16598 3 0.382319 0.413414 0.552126
16597 1 0.386439 0.40971 0.558045
1348 1 0.374063 0.419108 0.546528
16599 1 0.376388 0.417645 0.54846
4351 1 0.0408418 0.530305 0.5584
13987 1 0.400504 0.256856 0.588248
7003 1 0.276482 0.425626 0.592316
15665 2 0.393673 0.405061 0.565575
15664 1 0.400762 0.402687 0.5706
7004 2 0.277579 0.433991 0.591363
7005 1 0.279355 0.441024 0.592099
18122 3 0.090891 0.474392 0.582558
18123 1 0.0898657 0.476944 0.575881
18121 1 0.0936149 0.472614 0.589235
10165 1 0.0979335 0.493705 0.563637
10166 2 0.102759 0.500034 0.563628
10167 1 0.108152 0.506971 0.562647
20839 1 0.295335 0.510576 0.590721
20840 2 0.300713 0.506595 0.58621
20841 1 0.305627 0.501497 0.584165
4352 3 0.042131 0.530301 0.566521
4353 1 0.042235 0.530825 0.575089
5323 1 0.394342 0.551231 0.580831
5324 3 0.392517 0.546095 0.587672
11340 1 0.22954 0.62796 0.573957
11339 3 0.23312 0.622185 0.57093
20002 1 0.2279 0.63092 0.574542
20003 2 0.222647 0.637932 0.577395
20004 1 0.218274 0.644094 0.580561
11338 1 0.238526 0.616681 0.568385
8817 1 0.391575 0.534159 0.611502
8816 2 0.391779 0.538081 0.60435
8815 1 0.391657 0.541789 0.596712
5325 1 0.391815 0.543269 0.594468
11755 1 0.204435 0.57961 0.614813
11756 2 0.209446 0.579811 0.620168
8618 3 0.209681 0.56512 0.633422
8173 1 0.21573 0.582619 0.629632
8619 1 0.21401 0.570853 0.632049
11757 1 0.213855 0.581925 0.626929
8617 1 0.204219 0.559665 0.634892
8174 2 0.220634 0.583876 0.636212
8175 1 0.22704 0.587158 0.641525
6113 2 0.339502 0.183881 0.677827
6112 1 0.344011 0.180612 0.673322
7725 1 0.345587 0.179315 0.671186
19514 2 0.363491 0.180601 0.684924
19513 1 0.366348 0.18182 0.678311
7724 2 0.350477 0.175373 0.665791
7723 1 0.354767 0.173265 0.658332
6114 1 0.333769 0.189381 0.6818
18313 1 0.0613703 0.166143 0.705597
18314 2 0.0567243 0.163523 0.69936
18315 1 0.052985 0.161464 0.693472
19515 1 0.359568 0.180439 0.690593
9446 3 0.326436 0.212796 0.701299
9447 1 0.319501 0.210305 0.703601
13435 1 0.336107 0.215303 0.696262
9445 1 0.333704 0.21491 0.697456
13436 3 0.343055 0.214442 0.693384
13437 1 0.350636 0.213091 0.690192
18943 1 0.162053 0.42717 0.703719
18944 3 0.170346 0.427005 0.70345
18945 1 0.178147 0.425797 0.703124
13956 1 0.180719 0.425973 0.703262
6671 2 0.206793 0.421652 0.70297
6672 1 0.215104 0.420988 0.703842
13955 2 0.189027 0.425282 0.702869
13954 1 0.196064 0.423319 0.701848
6670 1 0.199247 0.422783 0.701786
19153 1 0.324118 0.237554 0.721726
19154 2 0.326358 0.242331 0.728107
15929 2 0.141168 0.274215 0.734486
15928 1 0.144024 0.273688 0.726618
15930 1 0.138752 0.274526 0.741568
16864 1 0.138188 0.274496 0.744266
19155 1 0.330731 0.24795 0.731926
5561 3 0.293939 0.204866 0.765979
5562 1 0.292367 0.198036 0.761757
5560 1 0.295341 0.210432 0.769702
16866 1 0.136015 0.283915 0.757202
16865 3 0.135801 0.278443 0.751393
10375 1 0.195797 0.162327 0.791877
10377 1 0.186001 0.16463 0.804037
10376 2 0.191645 0.163661 0.798516
13795 1 0.292379 0.437825 0.785045
13796 3 0.300889 0.436084 0.784742
13797 1 0.308346 0.434555 0.785952
12066 1 0.352242 0.621609 0.791657
12065 2 0.350158 0.620973 0.799464
12064 1 0.348853 0.619842 0.807399
19284 1 0.427609 0.327878 0.0125488
19282 1 0.443171 0.330611 0.015407
19283 2 0.434712 0.329962 0.0138527
10928 3 0.453299 0.376028 0.14247
10929 1 0.458906 0.380039 0.144444
10927 1 0.448013 0.372411 0.137632
12823 1 0.452555 0.0234539 0.260513
12824 3 0.447761 0.0297616 0.262125
12825 1 0.442563 0.0353912 0.262301
15433 1 0.461563 0.239331 0.265611
15435 1 0.459466 0.224814 0.259559
15434 3 0.459999 0.231734 0.262294
16160 3 0.476529 0.360487 0.262576
16161 1 0.472083 0.363376 0.266447
16159 1 0.484149 0.359158 0.258891
16294 1 0.407395 0.323538 0.357625
16295 2 0.413875 0.325327 0.353461
16296 1 0.419804 0.32731 0.348923
6368 3 0.454229 0.483796 0.358211
6367 1 0.459599 0.480334 0.353236
10275 1 0.469036 0.488513 0.346828
10274 2 0.469908 0.496359 0.346734
10273 1 0.470308 0.504706 0.347492
1711 1 0.468273 0.523319 0.351906
1713 1 0.470146 0.508001 0.347572
1712 3 0.469459 0.515762 0.348719
10373 2 0.428821 0.425898 0.381247
10372 1 0.423514 0.427634 0.377678
10374 1 0.435122 0.423039 0.385152
6369 1 0.44931 0.486155 0.364402
8379 1 0.447485 0.487422 0.366939
8378 2 0.443365 0.489545 0.372062
8377 1 0.439407 0.492958 0.378142
18456 1 0.490997 0.148024 0.430221
5365 1 0.418643 0.132532 0.47473
5366 3 0.416606 0.138652 0.479301
5367 1 0.415434 0.145654 0.482681
19653 1 0.477844 0.284719 0.457668
19652 3 0.486317 0.28321 0.457093
5041 1 0.40848 0.346766 0.466438
5042 3 0.403867 0.354039 0.466963
9135 1 0.40326 0.548334 0.499374
9133 1 0.414839 0.537405 0.50062
9134 3 0.409291 0.542724 0.500489
13950 1 0.42663 0.00638564 0.600295
16468 1 0.449958 0.0263636 0.579184
16469 3 0.448171 0.0307017 0.584858
13949 3 0.433767 0.00524243 0.603231
16470 1 0.447853 0.0354864 0.591611
9910 1 0.447719 0.0364724 0.594745
9911 2 0.446334 0.0392027 0.602398
13988 3 0.402507 0.259868 0.595453
13989 1 0.402919 0.264681 0.602059
13948 1 0.440115 0.00416324 0.606906
9912 1 0.445651 0.0395237 0.610632
17481 1 0.404785 0.274228 0.619953
17480 2 0.404195 0.270261 0.611832
17479 1 0.403174 0.266232 0.60448
19942 1 0.403845 0.226893 0.709231
19943 2 0.412463 0.229142 0.70797
19944 1 0.419404 0.231622 0.706238
17685 1 0.411285 0.364687 0.742207
17684 3 0.415041 0.36934 0.73851
17683 1 0.420548 0.373582 0.73392
6777 1 0.456739 0.542875 0.80427
6776 2 0.459063 0.535965 0.808688
6775 1 0.462454 0.53071 0.813739
10096 1 0.0661251 0.18287 0.905138
13629 1 0.356998 0.166113 0.927737
13628 3 0.352301 0.170943 0.92666
4608 1 0.345444 0.180819 0.926013
13627 1 0.346816 0.177778 0.926121
10098 1 0.0592631 0.19491 0.914143
10097 2 0.0626662 0.18938 0.909972
4607 2 0.342782 0.189171 0.92524
4606 1 0.340725 0.196233 0.920709
9629 2 0.03941 0.0420069 0.981156
9630 1 0.036006 0.0484047 0.98489
9628 1 0.0436765 0.0352279 0.978496
14134 1 0.181954 0.0951508 0.98482
14135 2 0.180935 0.092864 0.991899
410 2 0.0377184 0.198976 0.97723
409 1 0.0364366 0.206781 0.976838
411 1 0.0372889 0.189354 0.97622
6018 1 0.0496383 0.306681 0.837676
8223 1 0.238452 0.365665 0.839728
20952 1 0.0286679 0.395404 0.822612
20951 3 0.0364541 0.396406 0.824636
8222 3 0.242093 0.370762 0.845457
20950 1 0.0435786 0.399513 0.826256
15299 2 0.367072 0.424281 0.821639
12428 3 0.376176 0.407171 0.82567
12427 1 0.378981 0.399593 0.826268
12429 1 0.372631 0.414315 0.824338
15300 1 0.371557 0.41674 0.823531
15298 1 0.363788 0.430267 0.81979
5972 3 0.173801 0.513513 0.835803
5973 1 0.166506 0.514728 0.837478
5971 1 0.182093 0.51147 0.835827
9238 1 0.361181 0.303058 0.866826
6017 3 0.0489978 0.305158 0.84582
6016 1 0.0488407 0.305271 0.853196
9239 2 0.367224 0.307899 0.868839
9240 1 0.373631 0.311675 0.87088
21034 1 0.376746 0.314133 0.872402
20690 3 0.0864219 0.366752 0.874358
20689 1 0.0785889 0.366381 0.872132
1736 3 0.254254 0.374253 0.857248
1735 1 0.258295 0.371764 0.863711
8221 1 0.247084 0.373766 0.85
1737 1 0.249376 0.374604 0.851696
14003 2 0.303953 0.266681 0.886728
14002 1 0.296418 0.262792 0.886014
2852 3 0.314779 0.282971 0.888262
2853 1 0.318614 0.289142 0.888418
14004 1 0.30895 0.273422 0.888233
2851 1 0.310129 0.275772 0.888597
21036 1 0.386359 0.32719 0.878862
21035 2 0.382216 0.320186 0.876838
20691 1 0.0932356 0.368447 0.878699
16890 1 0.378423 0.553328 0.88513
16888 1 0.381783 0.569352 0.879098
16889 3 0.378924 0.562103 0.882955
7982 3 0.114129 0.343754 0.929408
7983 1 0.113044 0.337857 0.934266
7981 1 0.113815 0.350797 0.923793
16715 2 0.263372 0.350304 0.936526
16716 1 0.266636 0.350054 0.928553
19605 1 0.390992 0.418649 0.934174
14406 1 0.18205 0.263394 0.956352
14405 3 0.180493 0.271392 0.956116
14404 1 0.180544 0.279321 0.95527
16714 1 0.26172 0.350691 0.944066
19604 2 0.385309 0.416382 0.939327
19603 1 0.379492 0.413342 0.943461
19884 1 0.404708 0.584851 0.956226
19883 2 0.406948 0.591033 0.950049
19882 1 0.410176 0.596323 0.945748
1850 3 0.318844 0.442661 0.984799
1849 1 0.314874 0.435313 0.988015
1851 1 0.321193 0.449096 0.98179
17454 1 0.427163 0.677408 0.971101
288 1 0.424142 0.677285 0.971336
7656 1 0.353344 0.878931 0.00288488
8642 2 0.203368 0.932529 0.0212873
13842 1 0.207805 0.921563 0.0182049
8641 1 0.206407 0.924167 0.0189772
13841 3 0.212477 0.915934 0.0169112
13840 1 0.217916 0.909228 0.0166076
8643 1 0.199603 0.939328 0.0231284
13028 3 0.02348 0.866715 0.0618657
13027 1 0.0244962 0.858838 0.0621918
13029 1 0.0213633 0.875397 0.0608549
8956 1 0.0278101 0.91845 0.0782171
8958 1 0.0401196 0.915133 0.0896617
8957 2 0.0335689 0.916201 0.0841222
1568 2 0.194826 0.678308 0.151674
1567 1 0.198069 0.680975 0.15834
17463 1 0.324177 0.766181 0.178044
5933 3 0.349014 0.790755 0.178347
5934 1 0.351525 0.788817 0.171532
14060 3 0.337528 0.763151 0.199567
14061 1 0.334035 0.765603 0.192485
17462 2 0.328182 0.766736 0.183636
17461 1 0.33269 0.766246 0.190136
14059 1 0.340918 0.759929 0.205896
5932 1 0.343668 0.792099 0.18434
18111 1 0.489781 0.854191 0.187101
18110 3 0.489824 0.860952 0.19275
18109 1 0.488609 0.867876 0.196273
19420 1 0.460436 0.787492 0.215929
19422 1 0.474503 0.791349 0.224157
19421 2 0.468199 0.789851 0.219757
12868 1 0.286695 0.846537 0.216964
12870 1 0.278103 0.847931 0.230127
12869 2 0.2825 0.846527 0.223827
9219 1 0.087313 0.988232 0.237195
2946 1 0.482978 0.786387 0.275223
2944 1 0.474488 0.795459 0.267816
2945 3 0.479743 0.792092 0.272568
17624 2 0.427523 0.810118 0.273454
17625 1 0.431471 0.807762 0.267246
2774 3 0.0791863 0.973735 0.260141
2773 1 0.0808692 0.978233 0.252782
2775 1 0.0790621 0.971407 0.267514
9218 2 0.0831624 0.9847 0.244129
9217 1 0.081345 0.980104 0.250293
10944 1 0.305722 0.736582 0.296509
10943 2 0.308942 0.737893 0.290428
10942 1 0.312495 0.739973 0.282978
17623 1 0.423945 0.813551 0.280046
11875 1 0.368467 0.900997 0.310184
11876 3 0.366386 0.904323 0.317103
11877 1 0.365232 0.909712 0.323985
16411 1 0.406051 0.931763 0.350685
5120 2 0.0258639 0.96576 0.342318
5121 1 0.0276938 0.958613 0.339133
5119 1 0.0228314 0.973283 0.344933
16413 1 0.394415 0.942421 0.356991
16412 2 0.400314 0.93638 0.354588
10026 1 0.37415 0.772649 0.445277
10025 3 0.381553 0.776564 0.44279
12096 1 0.391071 0.780796 0.439039
10024 1 0.38814 0.779429 0.440277
12095 2 0.396834 0.783622 0.437081
6782 2 0.410796 0.796415 0.43841
6783 1 0.415794 0.801682 0.440835
6781 1 0.405365 0.790892 0.436277
12094 1 0.402469 0.788765 0.436235
8397 1 0.204279 0.899201 0.434048
8396 2 0.209745 0.898439 0.438617
8395 1 0.215864 0.896453 0.443984
14647 1 0.166582 0.903281 0.45515
14648 2 0.172028 0.898635 0.457025
303 1 0.18027 0.892628 0.461017
14649 1 0.177828 0.894503 0.459596
302 3 0.185788 0.887118 0.464826
301 1 0.190929 0.881779 0.468425
13179 1 0.0853197 0.792366 0.487395
13178 3 0.089601 0.799276 0.491205
13177 1 0.0943426 0.803733 0.494811
11209 1 0.0973164 0.805841 0.495872
21187 1 0.273507 0.801627 0.497777
11210 3 0.104237 0.810252 0.497075
11211 1 0.110319 0.815413 0.498626
21189 1 0.273134 0.817413 0.496411
21188 2 0.274571 0.809817 0.496354
17211 1 0.206599 0.90217 0.507531
17210 3 0.21173 0.901429 0.512349
14023 1 0.176634 0.738883 0.537227
4876 1 0.122794 0.863353 0.542238
17209 1 0.217303 0.900432 0.517744
15013 1 0.219233 0.899743 0.519237
15015 1 0.231856 0.895275 0.528467
15014 3 0.225397 0.897586 0.523321
15809 2 0.42179 0.923414 0.52793
15808 1 0.418513 0.922354 0.52047
15810 1 0.424565 0.924045 0.53557
7789 1 0.237779 0.989422 0.519864
7791 1 0.230325 0.975322 0.52177
7790 2 0.234871 0.981605 0.522005
14025 1 0.181717 0.734444 0.551821
14024 3 0.179039 0.736644 0.545295
532 1 0.306252 0.735937 0.558945
534 1 0.319897 0.742328 0.55361
533 3 0.312324 0.739923 0.5546
851 2 0.335277 0.772797 0.571762
852 1 0.342101 0.769423 0.575167
11295 1 0.388366 0.742619 0.573662
14179 1 0.311623 0.78293 0.557522
14180 3 0.318316 0.780724 0.560325
14181 1 0.32489 0.776861 0.565124
850 1 0.327758 0.775497 0.567093
2167 1 0.0602398 0.863996 0.555775
2168 2 0.0652711 0.858505 0.558824
2169 1 0.0696175 0.854615 0.564281
4877 2 0.11851 0.867405 0.547211
4878 1 0.113561 0.871288 0.551901
17325 1 0.111929 0.910488 0.574679
650 3 0.242606 0.992666 0.564454
649 1 0.237962 0.99914 0.563268
651 1 0.247142 0.98572 0.566127
11293 1 0.39547 0.747813 0.588212
11294 2 0.391788 0.745282 0.581063
17324 3 0.118671 0.912378 0.578286
17323 1 0.125755 0.912253 0.581399
15573 1 0.182753 0.982139 0.599142
15571 1 0.191388 0.994723 0.604835
15572 2 0.18628 0.989539 0.600697
20429 2 0.317374 0.796219 0.672938
20430 1 0.313542 0.79289 0.665955
13092 1 0.477589 0.865228 0.659547
13091 3 0.476709 0.870605 0.654351
13090 1 0.475389 0.873885 0.647249
9981 1 0.33231 0.933222 0.656883
17204 2 0.0594208 0.950679 0.669248
17203 1 0.0542111 0.956471 0.665432
9277 1 0.0526234 0.958439 0.664293
9278 2 0.0484494 0.963251 0.6597
17205 1 0.0663215 0.947327 0.673222
9979 1 0.321089 0.943606 0.653854
9980 2 0.327358 0.937204 0.654952
7491 1 0.0270569 0.97363 0.645324
7490 3 0.0337213 0.971849 0.648788
7489 1 0.0408411 0.969328 0.652856
9279 1 0.043565 0.968161 0.654552
20428 1 0.320435 0.798148 0.680591
11546 3 0.0814829 0.958908 0.695617
11547 1 0.0787814 0.953305 0.690529
11545 1 0.0840806 0.963561 0.701072
4178 2 0.349818 0.711607 0.714232
4177 1 0.343389 0.714279 0.709442
4179 1 0.356201 0.710413 0.718805
5634 1 0.35122 0.863315 0.748486
5633 3 0.358329 0.867113 0.7449
5799 1 0.364884 0.876863 0.743537
5632 1 0.362688 0.874233 0.743764
5797 1 0.372956 0.891545 0.745203
5798 2 0.369896 0.883917 0.744628
3815 2 0.422784 0.951691 0.749092
3816 1 0.429046 0.946315 0.750367
3814 1 0.418456 0.958746 0.747717
11069 3 0.477767 0.853302 0.793564
11070 1 0.481161 0.850117 0.786892
11068 1 0.475664 0.854325 0.801322
9742 1 0.170093 0.764309 0.833777
9743 3 0.16943 0.76086 0.8264
9744 1 0.168731 0.756633 0.819638
9588 1 0.484403 0.803114 0.830576
9587 2 0.48003 0.799557 0.836351
13056 1 0.395937 0.932254 0.819888
13055 3 0.392023 0.933218 0.825806
13054 1 0.389066 0.936801 0.832514
7214 3 0.441915 0.724599 0.87082
7213 1 0.445441 0.723856 0.86416
9586 1 0.478822 0.793819 0.842337
14176 1 0.212917 0.982621 0.852074
14178 1 0.219302 0.971917 0.862845
14177 3 0.21545 0.97649 0.857407
7215 1 0.438586 0.724953 0.877876
3557 3 0.336977 0.749387 0.872834
3558 1 0.330268 0.746083 0.871997
3556 1 0.3438 0.753018 0.87285
17953 1 0.0116533 0.94769 0.888561
17954 2 0.0162924 0.943993 0.893023
17955 1 0.0209973 0.940119 0.897857
11383 1 0.0224964 0.938715 0.899393
8609 2 0.148031 0.889424 0.924498
8610 1 0.142667 0.883944 0.92364
8608 1 0.153333 0.894777 0.923279
11384 3 0.0271284 0.935048 0.903433
11385 1 0.0328736 0.930176 0.907344
6685 1 0.388527 0.681945 0.964758
6686 2 0.395938 0.68093 0.96638
16092 1 0.385957 0.682636 0.964005
16091 3 0.377892 0.684502 0.961087
16090 1 0.370805 0.685783 0.957039
11269 1 0.269752 0.739611 0.966587
11270 3 0.265667 0.732719 0.967082
8470 1 0.373801 0.902083 0.942101
9723 1 0.479409 0.895395 0.957433
9721 1 0.469423 0.884656 0.964981
9722 3 0.474778 0.889248 0.960711
8472 1 0.359677 0.910779 0.942715
8471 3 0.367321 0.906234 0.942671
13243 1 0.33607 0.6902 0.984764
13244 2 0.344904 0.691225 0.984416
14684 2 0.363167 0.686744 0.983092
14683 1 0.355693 0.688786 0.983973
13245 1 0.352819 0.689352 0.98404
14685 1 0.369756 0.683725 0.984119
6687 1 0.404553 0.679399 0.968742
286 1 0.407765 0.678855 0.969238
287 3 0.416007 0.678356 0.970835
17453 2 0.435368 0.678728 0.97042
17452 1 0.442452 0.682822 0.969187
11271 1 0.262134 0.725283 0.968394
7975 1 0.00346596 0.76538 0.988158
18687 1 0.398948 0.830354 0.98501
18685 1 0.403389 0.816337 0.981577
18686 3 0.399875 0.823038 0.98313
7654 1 0.346546 0.88857 0.991565
7655 2 0.349351 0.884231 0.997727
19747 1 0.164251 0.959322 0.990334
19749 1 0.178644 0.961231 0.991674
19748 3 0.171582 0.960693 0.991825
15641 2 0.638542 0.0625763 0.0266326
15642 1 0.641533 0.0608984 0.0200176
15640 1 0.636114 0.0646869 0.032935
6204 1 0.755856 0.0770063 0.0304548
13048 1 0.756743 0.0747962 0.0289948
13049 3 0.758739 0.0671859 0.024812
13050 1 0.757551 0.0602847 0.0219685
11800 1 0.629772 0.0740542 0.0473642
11801 3 0.633265 0.0693265 0.0413914
11802 1 0.635818 0.065317 0.0356033
6202 1 0.747217 0.0884755 0.0381113
6203 2 0.752442 0.0826 0.0344364
18148 1 0.814572 0.205561 0.0426153
18149 3 0.80959 0.213112 0.0414966
18150 1 0.803572 0.218966 0.0398628
19271 3 0.64613 0.170207 0.0755507
19270 1 0.653314 0.165826 0.0765704
4648 1 0.639181 0.176877 0.0735227
19272 1 0.64068 0.174809 0.074226
1947 1 0.584499 0.207992 0.0924601
1946 3 0.579349 0.205118 0.0979354
4650 1 0.625951 0.190263 0.0702793
4649 2 0.632519 0.18391 0.0722848
10667 2 0.508194 0.239592 0.0980348
10666 1 0.504107 0.240655 0.0920703
1945 1 0.575441 0.201255 0.104306
10668 1 0.513972 0.238836 0.103418
3475 1 0.626238 0.254934 0.131651
3241 1 0.509254 0.0250738 0.151319
3242 2 0.503724 0.0296254 0.150353
3243 1 0.498147 0.0349433 0.147788
3477 1 0.636515 0.26585 0.136063
3476 2 0.631453 0.259402 0.133886
8350 1 0.496197 0.0284278 0.184121
8352 1 0.503857 0.0124399 0.183614
8351 3 0.499592 0.0200234 0.183563
2914 1 0.518189 0.0696255 0.194773
2915 2 0.522604 0.0723232 0.188566
2916 1 0.526717 0.073608 0.182048
18173 2 0.544653 0.23799 0.175651
18172 1 0.551319 0.234399 0.173144
1960 1 0.553617 0.232546 0.17275
18174 1 0.537716 0.240307 0.178124
1961 3 0.55963 0.22719 0.17064
1962 1 0.56459 0.222328 0.167226
18884 3 0.585973 0.467996 0.173084
18883 1 0.587759 0.463778 0.177858
18885 1 0.583842 0.472984 0.167443
9715 1 0.843213 0.11999 0.223359
9716 3 0.834452 0.121069 0.225801
9717 1 0.826238 0.122656 0.226494
10252 1 0.648096 0.194476 0.2241
10253 3 0.654671 0.192469 0.225825
10254 1 0.662527 0.191151 0.225543
630 1 0.749565 0.225499 0.219929
629 3 0.74602 0.220977 0.215749
628 1 0.74119 0.216539 0.212997
8344 1 0.65084 0.490094 0.0946122
8346 1 0.661151 0.486047 0.0834646
8345 3 0.655535 0.487874 0.0893452
3731 2 0.518612 0.48741 0.210233
3732 1 0.518902 0.4853 0.217941
3730 1 0.516852 0.491848 0.203573
14611 1 0.971171 0.499441 0.000435057
14752 1 0.93696 0.0784484 0.0613395
13542 1 0.935515 0.0779319 0.0642289
14753 2 0.940822 0.0792599 0.0547828
14754 1 0.942984 0.0795332 0.0470461
20195 2 0.997108 0.427489 0.0519841
20196 1 0.990991 0.428239 0.0559023
13541 2 0.932807 0.0763315 0.0722924
13540 1 0.928593 0.0747355 0.0789698
20810 2 0.927476 0.343568 0.118731
20811 1 0.924396 0.342486 0.111915
20809 1 0.930166 0.345477 0.127486
3849 1 0.994963 0.419172 0.130508
9517 1 0.969667 0.427703 0.122311
9518 3 0.971703 0.424243 0.128454
3847 1 0.993153 0.421026 0.115115
3848 2 0.993098 0.420746 0.122237
2227 1 0.966306 0.290352 0.1358
2228 2 0.964302 0.297603 0.136314
2229 1 0.965341 0.305101 0.13792
17005 1 0.983999 0.404857 0.14328
9519 1 0.974603 0.419009 0.133806
17007 1 0.976119 0.416844 0.135442
17006 3 0.97953 0.410825 0.139708
10992 1 0.963017 0.360057 0.226571
20318 2 0.986767 0.351124 0.231436
20319 1 0.980654 0.354614 0.230291
10990 1 0.977984 0.356079 0.229333
10991 3 0.970079 0.358123 0.226885
2995 1 0.89354 0.0539636 0.288982
2997 1 0.902194 0.058868 0.300978
2996 2 0.898975 0.0562611 0.29548
4695 1 0.563104 0.088356 0.311349
4694 3 0.56187 0.0959727 0.310773
4693 1 0.563323 0.103994 0.308897
19999 1 0.902706 0.149632 0.306502
20001 1 0.910245 0.140041 0.296198
20000 3 0.90701 0.145876 0.301324
14748 1 0.918558 0.232944 0.32432
14747 3 0.921624 0.240231 0.32112
2637 1 0.595421 0.0745151 0.339716
2636 2 0.593012 0.0754066 0.333136
2635 1 0.589609 0.0764817 0.325614
12324 1 0.910944 0.215591 0.329264
12322 1 0.917492 0.230352 0.325589
12323 2 0.914455 0.223465 0.328034
18454 1 0.494252 0.157776 0.441994
18455 3 0.492958 0.153592 0.435626
652 1 0.925469 0.206249 0.44422
653 2 0.927669 0.200706 0.440394
654 1 0.930147 0.195031 0.437261
6025 1 0.98889 0.238982 0.490049
6026 3 0.994152 0.23468 0.494021
2325 1 0.533674 0.0784584 0.548171
2323 1 0.549313 0.0815474 0.545774
2324 3 0.541391 0.079697 0.546525
21491 2 0.664607 0.104043 0.560652
21490 1 0.658742 0.0990411 0.560381
21492 1 0.671129 0.108736 0.562303
13098 1 0.52876 0.167575 0.623521
13097 3 0.530933 0.169304 0.630739
13096 1 0.535383 0.171202 0.636576
7079 2 0.905407 0.159277 0.640625
7078 1 0.905246 0.157852 0.648158
7080 1 0.905901 0.161535 0.633024
15514 1 0.991971 0.243111 0.639558
1994 3 0.720324 0.00932319 0.668888
1993 1 0.71665 0.0142334 0.663642
1995 1 0.723606 0.00440698 0.67378
759 1 0.92484 0.02026 0.684965
758 2 0.927714 0.0218488 0.692713
9763 1 0.84624 0.200693 0.688209
9764 3 0.853098 0.202728 0.683967
16945 1 0.862039 0.207221 0.67908
9765 1 0.859375 0.205598 0.680305
16946 2 0.869731 0.210969 0.677424
16947 1 0.87606 0.216101 0.673609
757 1 0.928638 0.0254613 0.69942
16932 1 0.696312 0.0597296 0.703562
16930 1 0.696343 0.0748733 0.703505
16931 3 0.695415 0.0672211 0.704648
16418 3 0.584179 0.241723 0.779686
16417 1 0.581912 0.239266 0.772306
2631 1 0.931169 0.196479 0.79751
2630 2 0.938809 0.198311 0.798431
2629 1 0.946631 0.199294 0.799266
16419 1 0.587871 0.243442 0.786831
5184 1 0.713863 0.022014 0.826117
5183 3 0.719727 0.0164538 0.827964
9091 1 0.741398 0.00421556 0.837446
9093 1 0.728861 0.0105321 0.832075
5182 1 0.726489 0.0118912 0.830885
9092 2 0.734766 0.00750525 0.834818
6789 1 0.777904 0.00615877 0.827186
6788 2 0.780041 0.0042069 0.833818
6787 1 0.780877 0.000853267 0.841621
19967 3 0.969504 0.227637 0.90462
19968 1 0.969268 0.225322 0.897914
8595 1 0.581897 0.13481 0.935609
251 3 0.669416 0.22609 0.933199
252 1 0.665416 0.219699 0.934428
250 1 0.675117 0.231682 0.930827
19966 1 0.968083 0.231119 0.911603
10464 1 0.889712 0.106236 0.969137
8594 2 0.5822 0.140666 0.941753
8593 1 0.580403 0.145568 0.948568
19395 1 0.72197 0.00465492 0.99818
19394 3 0.727007 0.0100932 0.996075
19393 1 0.73144 0.0168849 0.994707
10463 2 0.897211 0.104048 0.972309
10462 1 0.903742 0.103067 0.973222
20317 1 0.992516 0.347231 0.236245
19989 1 0.525643 0.486972 0.262451
11473 1 0.912228 0.368497 0.270295
11474 3 0.914019 0.375827 0.268389
11475 1 0.914553 0.383698 0.267466
14820 1 0.731148 0.418377 0.274228
14818 1 0.738029 0.418192 0.287689
14819 2 0.734912 0.419525 0.280442