ITEM: TIMESTEP
35000000
ITEM: NUMBER OF ATOMS
1347
ITEM: BOX BOUNDS pp pp pp
0.0000000000000000e+00 5.0000000000000000e+01
0.0000000000000000e+00 5.0000000000000000e+01
0.0000000000000000e+00 5.0000000000000000e+01
ITEM: ATOMS id type xs ys zs
19226 3 0.527548 0.189269 0.0283968
19225 1 0.524216 0.182784 0.0251211
17703 1 0.508692 0.223708 0.0314681
17702 3 0.516663 0.223933 0.0302058
11123 3 0.460764 0.271827 0.0294594
16232 3 0.511364 0.247463 0.00536122
16231 1 0.512361 0.246595 0.0132768
10152 1 0.511727 0.246681 0.0159454
10151 3 0.51038 0.247645 0.0236456
13916 3 0.523891 0.259879 0.0181381
13830 1 0.529496 0.256465 0.0102574
13915 1 0.528167 0.256766 0.0118705
1204 1 0.51673 0.26389 0.0243658
13917 1 0.518993 0.262742 0.0226714
5943 1 0.517601 0.244683 0.0313765
10150 1 0.515505 0.245099 0.0296905
1205 3 0.51027 0.268294 0.0283457
1206 1 0.502841 0.268383 0.0308683
16233 1 0.511563 0.25305 3.45065e-05
16784 2 0.464692 0.288231 0.0226275
16783 1 0.460688 0.294854 0.0231604
16785 1 0.463515 0.281678 0.0257173
11124 1 0.462415 0.278825 0.0270077
1059 1 0.495667 0.301895 0.0174159
14613 1 0.496506 0.302603 0.0200475
6240 1 0.493494 0.286575 0.0311968
8482 1 0.494296 0.285789 0.0282467
1058 3 0.491704 0.301091 0.00976693
8483 3 0.496304 0.282937 0.0208945
8484 1 0.499619 0.283799 0.0140951
5139 1 0.501293 0.28453 0.0112964
20142 1 0.518721 0.299907 0.0114062
20141 3 0.518 0.295536 0.0183954
20140 1 0.5157 0.29256 0.0263027
18969 1 0.514687 0.291594 0.0287588
5138 3 0.504913 0.285432 0.00450424
11902 1 0.518972 0.301505 0.00894415
5137 1 0.511721 0.281364 0.00227827
10386 1 0.513996 0.279517 0.00183749
13535 3 0.529953 0.280563 0.0302863
10385 3 0.520901 0.275074 0.000132551
14612 3 0.497696 0.303646 0.028488
1057 1 0.490287 0.303433 0.00180646
8049 1 0.525742 0.314189 0.0293462
5239 1 0.527984 0.313936 0.0274191
17889 1 0.522108 0.332033 0.0130007
17888 3 0.518134 0.332285 0.00550796
4149 1 0.523761 0.33226 0.0155256
11903 3 0.520567 0.30726 0.00296509
11216 3 0.456424 0.350753 0.0270743
11215 1 0.459753 0.348717 0.0203476
8732 3 0.490716 0.35135 0.0276498
8731 1 0.490999 0.344922 0.0316348
8733 1 0.492112 0.358851 0.0314163
15969 1 0.509833 0.355706 0.0138796
14046 1 0.508148 0.354884 0.0111049
15968 3 0.514031 0.359262 0.0200803
4148 3 0.52733 0.333824 0.023128
15967 1 0.519263 0.358748 0.0264953
4147 1 0.522196 0.336073 0.0288368
12391 1 0.520369 0.336602 0.0315088
13791 1 0.521689 0.357856 0.0290819
14045 3 0.504545 0.352022 0.00449486
14044 1 0.500054 0.346752 0.000856523
20592 1 0.497567 0.384751 0.00067251
20591 3 0.503569 0.384955 0.0057439
20590 1 0.504729 0.38551 0.014576
10435 1 0.504268 0.385381 0.0173733
10436 3 0.501263 0.384718 0.0250188
10437 1 0.50041 0.390565 0.0308911
576 1 0.527768 0.381575 0.0258704
9462 1 0.527504 0.383863 0.0283208
575 3 0.527024 0.376129 0.0204064
574 1 0.530807 0.370666 0.0165322
5284 1 0.52538 0.174038 0.0519423
21209 3 0.529487 0.193693 0.0526473
1634 3 0.518871 0.208984 0.0566063
1633 1 0.522831 0.202665 0.0543912
21210 1 0.524597 0.200349 0.0536169
1635 1 0.511687 0.208932 0.0595315
19227 1 0.529107 0.195041 0.0329804
11876 3 0.528845 0.211317 0.0366358
5218 1 0.496007 0.227324 0.0544324
5219 3 0.503927 0.227468 0.0560197
5220 1 0.511063 0.228589 0.0561069
16248 1 0.513952 0.229308 0.0558053
16247 3 0.521719 0.230603 0.0547874
17701 1 0.520748 0.218506 0.0339403
11877 1 0.522746 0.216493 0.0351575
5942 3 0.523409 0.24237 0.0376272
16246 1 0.529807 0.235019 0.0532289
11122 1 0.467134 0.271368 0.0346375
19510 1 0.469518 0.270846 0.0360986
19511 3 0.475811 0.26739 0.0386695
19512 1 0.48354 0.266996 0.036995
18888 1 0.486339 0.266994 0.0365753
18887 3 0.493871 0.266859 0.0363728
5941 1 0.522241 0.246014 0.0451474
10077 1 0.52056 0.247609 0.0478233
18886 1 0.500115 0.268078 0.0327227
10075 1 0.510806 0.251111 0.0598476
3058 1 0.508577 0.251077 0.0614236
10076 3 0.518165 0.251756 0.0550463
6239 3 0.48956 0.287445 0.0391703
20425 1 0.478186 0.289558 0.0606055
6238 1 0.484374 0.284884 0.045368
20427 1 0.482898 0.284432 0.0469716
20426 3 0.477824 0.28407 0.0534745
18052 1 0.478314 0.291498 0.0632324
6459 1 0.502884 0.2812 0.0619006
1303 1 0.500413 0.279642 0.0634699
18968 3 0.511537 0.289156 0.0362062
6458 3 0.507491 0.28725 0.0582845
6457 1 0.509902 0.294456 0.0584886
17262 1 0.510332 0.297299 0.0583173
18967 1 0.511385 0.283166 0.042292
21550 1 0.530916 0.273256 0.0443438
6453 1 0.528537 0.297122 0.0641675
6451 1 0.52988 0.283227 0.0573732
6452 3 0.528288 0.290755 0.0592709
20126 3 0.53104 0.297554 0.0384379
7177 1 0.456018 0.306469 0.0593211
18015 1 0.453341 0.306454 0.0606368
7178 3 0.464055 0.307389 0.0558395
7179 1 0.467807 0.314652 0.0533526
14611 1 0.493883 0.304394 0.0352372
7810 1 0.492406 0.305097 0.037877
2326 1 0.493486 0.330005 0.0376537
18291 1 0.495573 0.327789 0.0378879
7811 3 0.488979 0.307038 0.0451669
7812 1 0.490376 0.311031 0.0518391
1951 1 0.490525 0.312562 0.0542283
1952 3 0.492119 0.31578 0.060966
15606 1 0.469217 0.317325 0.0518809
15605 3 0.472616 0.323939 0.0485909
15604 1 0.470379 0.33159 0.047169
18290 3 0.501735 0.321579 0.0379312
17261 3 0.511297 0.305854 0.059084
18289 1 0.508857 0.319371 0.0368213
8047 1 0.511728 0.31766 0.0365213
8048 3 0.519321 0.313854 0.0352447
17260 1 0.516236 0.312538 0.0596854
17023 1 0.518502 0.314941 0.0596472
17024 3 0.523651 0.321113 0.0588536
20127 1 0.53009 0.30514 0.0374879
6197 3 0.437866 0.334693 0.0570409
1133 3 0.44959 0.345109 0.0446876
11217 1 0.453839 0.348437 0.0345071
1134 1 0.452351 0.346909 0.0374779
1132 1 0.444791 0.340581 0.0499086
6196 1 0.443088 0.339241 0.0518279
6946 1 0.449313 0.334021 0.0597651
6198 1 0.446137 0.333996 0.058597
2327 3 0.487824 0.335725 0.036862
2328 1 0.490641 0.342397 0.0329784
7443 1 0.492995 0.361362 0.0325633
1273 1 0.469696 0.33436 0.0461718
1274 3 0.469414 0.341969 0.0441851
1275 1 0.47407 0.347683 0.0459825
9352 1 0.475829 0.349741 0.0465274
9353 3 0.482062 0.354476 0.0488882
9354 1 0.488724 0.354816 0.0528039
21549 1 0.491441 0.354642 0.0544796
170 3 0.488465 0.335711 0.0618957
171 1 0.495772 0.336389 0.0590245
11805 1 0.498751 0.336504 0.0576769
21548 3 0.49856 0.355278 0.0574363
11804 3 0.505494 0.336679 0.0536458
11803 1 0.509719 0.33733 0.0478072
12393 1 0.511083 0.337551 0.0451368
12392 3 0.5147 0.337858 0.0382404
21547 1 0.506963 0.353722 0.0573115
4087 1 0.509931 0.353418 0.0575161
4088 3 0.518231 0.353719 0.0583672
4089 1 0.523164 0.350146 0.0551831
2161 1 0.524952 0.347715 0.0540909
13790 3 0.527855 0.35584 0.033687
2162 3 0.530365 0.341534 0.0508873
7442 3 0.495084 0.367307 0.035277
9461 3 0.526969 0.388082 0.0348411
5680 1 0.523218 0.375882 0.0554688
7441 1 0.502225 0.369274 0.038991
9744 1 0.504634 0.369395 0.0401646
9743 3 0.511217 0.368189 0.0435469
11830 1 0.500162 0.392254 0.0330487
9742 1 0.516432 0.363758 0.0394669
9460 1 0.529422 0.391119 0.0429763
16056 1 0.530606 0.392334 0.0452994
5681 3 0.518509 0.377094 0.0616205
11832 1 0.504749 0.396614 0.0472876
2103 1 0.506552 0.397102 0.0506209
11831 3 0.500243 0.396253 0.0398793
2102 3 0.508963 0.396591 0.0590389
16703 3 0.530478 0.21186 0.0734033
15124 1 0.505096 0.209113 0.0904213
5437 1 0.50327 0.209122 0.0932225
15125 3 0.508399 0.209693 0.0832739
21024 1 0.467576 0.230184 0.0916209
21023 3 0.473291 0.234297 0.0952635
15126 1 0.507249 0.217009 0.0788799
12251 3 0.510218 0.238822 0.0866483
12252 1 0.516705 0.241466 0.0838017
16702 1 0.530678 0.218913 0.0767922
6730 1 0.475779 0.250455 0.0703963
6732 1 0.491596 0.251165 0.0667816
3060 1 0.49493 0.251061 0.0659536
6731 3 0.484297 0.250251 0.0676894
18210 1 0.489643 0.259905 0.0874715
12969 1 0.491478 0.257681 0.0877382
18209 3 0.483928 0.266265 0.0877073
11125 1 0.474598 0.270272 0.0891265
18208 1 0.47707 0.269152 0.0883655
12968 3 0.497375 0.252196 0.0892832
1305 1 0.488996 0.27166 0.0687091
11513 3 0.524348 0.244999 0.0761833
3059 3 0.502996 0.251992 0.0655183
12967 1 0.503047 0.247228 0.0885368
12250 1 0.505078 0.245053 0.0886489
11514 1 0.518791 0.243052 0.0820381
11512 1 0.529784 0.24364 0.0698968
18024 1 0.46042 0.299598 0.0856676
18023 3 0.454159 0.294148 0.0879552
18022 1 0.447265 0.29158 0.0883479
11126 3 0.468626 0.274173 0.0924306
18053 3 0.477975 0.295186 0.0702134
1304 3 0.495039 0.275328 0.0673148
19954 1 0.478859 0.301654 0.0949536
19955 3 0.483629 0.296176 0.0936901
19980 1 0.498105 0.29667 0.0815836
20023 1 0.491638 0.288863 0.0954786
19956 1 0.489085 0.290774 0.0951501
20024 3 0.498176 0.285262 0.0953747
7449 1 0.515745 0.273732 0.0731434
7448 3 0.514453 0.280226 0.077234
7447 1 0.518249 0.285361 0.0821302
9378 1 0.519379 0.287117 0.0837538
19979 3 0.502777 0.302368 0.0822999
21217 1 0.528634 0.299862 0.0660865
9377 3 0.522577 0.292042 0.0891799
9376 1 0.527075 0.296419 0.0946576
18014 3 0.447125 0.306181 0.0665966
18013 1 0.442051 0.309576 0.0704687
15903 1 0.447984 0.317007 0.0959843
15902 3 0.456514 0.31684 0.0964204
1953 1 0.497901 0.318441 0.0649523
18304 1 0.476937 0.304003 0.0954328
18054 1 0.477308 0.303112 0.0733146
12512 3 0.475068 0.313587 0.0765221
12513 1 0.475245 0.322132 0.0760967
7066 1 0.475417 0.32513 0.0758803
12511 1 0.477296 0.307011 0.0742694
7067 3 0.47721 0.332884 0.0758886
6548 3 0.499279 0.328213 0.0909875
6549 1 0.498531 0.321787 0.095027
9361 1 0.498518 0.319292 0.0965026
21219 1 0.531 0.311683 0.0763257
19129 1 0.500099 0.319688 0.06624
19130 3 0.504845 0.323364 0.0699816
19131 1 0.510745 0.328282 0.073429
19534 1 0.512162 0.330594 0.0742408
19978 1 0.508531 0.305917 0.0846735
6580 1 0.510228 0.307857 0.0853162
6581 3 0.515358 0.313799 0.086764
6582 1 0.518045 0.319024 0.0904257
8076 1 0.51901 0.321735 0.0909526
8075 3 0.521976 0.328796 0.0947008
21218 3 0.528692 0.30638 0.0707952
12873 1 0.457339 0.352685 0.0653289
12202 1 0.460209 0.353127 0.0650009
12871 1 0.443945 0.350119 0.0728351
12872 3 0.449567 0.351329 0.0663543
6947 3 0.45714 0.333571 0.0647269
6948 1 0.456988 0.335351 0.073707
16461 1 0.457164 0.335785 0.0767093
12203 3 0.468132 0.354546 0.0650632
16460 3 0.45753 0.335681 0.0835273
7545 1 0.462704 0.33707 0.093549
16459 1 0.461218 0.336964 0.0911746
169 1 0.483428 0.334606 0.0681145
7068 1 0.481634 0.333692 0.0702695
6547 1 0.498293 0.334812 0.0894001
14580 1 0.49726 0.337452 0.088208
14579 3 0.493855 0.344521 0.0856004
15072 1 0.488811 0.350861 0.0787413
12204 1 0.476071 0.35593 0.0676471
15070 1 0.478773 0.356041 0.068641
15071 3 0.486702 0.355905 0.0734318
14578 1 0.490341 0.349315 0.0808499
8522 3 0.480994 0.360725 0.0936492
20601 1 0.491205 0.362359 0.0961009
8521 1 0.488251 0.362057 0.0958686
13000 1 0.525115 0.348581 0.0925406
19535 3 0.515815 0.337445 0.0762592
19536 1 0.514373 0.344987 0.0772238
5572 1 0.513565 0.347815 0.0777403
5573 3 0.509992 0.355505 0.0777771
5574 1 0.510899 0.362802 0.0801421
13001 3 0.530085 0.353891 0.0876181
16019 3 0.471282 0.374697 0.0833631
2079 1 0.472922 0.382544 0.0914926
16020 1 0.472628 0.381053 0.0893732
21284 3 0.499246 0.374119 0.0656409
21283 1 0.494672 0.37052 0.0702339
16018 1 0.476208 0.368817 0.0879333
8523 1 0.477504 0.366754 0.089454
5682 1 0.510496 0.375917 0.0644621
11244 1 0.511184 0.365884 0.0809197
11243 3 0.512269 0.373646 0.0831071
19895 3 0.506433 0.391742 0.0852935
11242 1 0.509496 0.380795 0.0853584
19896 1 0.508678 0.383787 0.0854537
21285 1 0.507677 0.37536 0.0647642
328 1 0.524168 0.376769 0.0875499
8942 3 0.496499 0.417178 0.0885487
15379 1 0.49031 0.412369 0.0956901
8941 1 0.491599 0.413637 0.0936397
2101 1 0.514046 0.396629 0.0647251
3084 1 0.516385 0.396998 0.0669211
19894 1 0.504665 0.399519 0.0839745
3083 3 0.522848 0.396758 0.0719603
8943 1 0.503912 0.417266 0.0857691
3082 1 0.530931 0.39554 0.0722005
3635 2 0.521192 0.168235 0.108638
16441 1 0.5178 0.175238 0.114835
16442 2 0.515133 0.18141 0.117715
3634 1 0.518834 0.173149 0.113386
3636 1 0.515928 0.167673 0.102574
5438 3 0.501487 0.210536 0.100969
9661 1 0.513582 0.192828 0.120365
16443 1 0.514367 0.189855 0.119487
9662 2 0.51191 0.200712 0.121846
9663 1 0.514749 0.208965 0.122714
7884 1 0.516584 0.211887 0.122908
21022 1 0.474867 0.241692 0.0995593
5024 3 0.493238 0.22573 0.121958
5025 1 0.493355 0.232558 0.119652
7779 1 0.492708 0.235933 0.118905
3141 1 0.497588 0.235645 0.101462
3139 1 0.498125 0.221479 0.10103
5439 1 0.498944 0.218443 0.100866
3140 3 0.496127 0.22906 0.101494
5023 1 0.490821 0.220128 0.127318
7882 1 0.522309 0.224644 0.128677
1850 3 0.518436 0.232098 0.104319
1849 1 0.51532 0.237371 0.10511
10051 1 0.514106 0.239443 0.105196
6047 3 0.529989 0.219928 0.0978068
7883 3 0.519868 0.218842 0.123213
1851 1 0.523433 0.22758 0.100518
6046 1 0.525336 0.225452 0.0992699
8983 1 0.449952 0.249758 0.110123
8984 3 0.456086 0.248298 0.115911
8985 1 0.460907 0.254742 0.118494
20389 1 0.462982 0.256931 0.119747
20390 3 0.466548 0.263383 0.123118
20391 1 0.466702 0.270304 0.120982
10407 1 0.475509 0.244283 0.10089
10406 3 0.477182 0.251274 0.104998
10405 1 0.483138 0.257367 0.105323
9397 1 0.48528 0.259268 0.105426
9398 3 0.489995 0.264617 0.10639
9399 1 0.489925 0.271733 0.110079
7778 3 0.491521 0.244081 0.118105
7777 1 0.491752 0.250645 0.12041
9114 1 0.491789 0.253137 0.121902
9113 3 0.492354 0.259496 0.126851
11996 3 0.525416 0.270623 0.102622
10052 3 0.508949 0.245967 0.106766
10053 1 0.510853 0.246862 0.113929
5061 1 0.51144 0.246203 0.116454
5060 3 0.513766 0.244852 0.125149
11997 1 0.518207 0.272716 0.106071
9523 1 0.508547 0.271033 0.123787
9524 3 0.512242 0.263561 0.124472
9525 1 0.511767 0.255405 0.125079
5059 1 0.512264 0.252496 0.125268
11127 1 0.466201 0.278492 0.0982356
1978 1 0.465125 0.280222 0.100573
14292 1 0.449716 0.293855 0.125138
14290 1 0.458963 0.287974 0.114994
14291 3 0.455993 0.291774 0.121814
1979 3 0.464096 0.284019 0.107001
1980 1 0.46012 0.286737 0.112733
20997 1 0.489376 0.274621 0.111642
20996 3 0.487486 0.282101 0.115191
3218 3 0.476764 0.298229 0.117271
20995 1 0.482363 0.289119 0.115625
3219 1 0.480833 0.291794 0.115918
8552 3 0.508484 0.276301 0.107717
20025 1 0.503251 0.281555 0.100409
8551 1 0.50501 0.280428 0.102548
8553 1 0.515323 0.27389 0.107215
7618 1 0.524732 0.289691 0.126215
3130 1 0.526738 0.287459 0.124979
14997 1 0.528804 0.297067 0.096674
18306 1 0.46546 0.311975 0.0976451
15901 1 0.462783 0.313244 0.0972026
18305 3 0.471182 0.308554 0.0981455
9362 3 0.496997 0.311141 0.100243
3217 1 0.473785 0.305366 0.118893
10746 1 0.472571 0.307548 0.119475
21224 3 0.497461 0.305413 0.119645
10745 3 0.469868 0.315666 0.118379
10744 1 0.476863 0.318895 0.117769
1066 1 0.479612 0.319964 0.117884
1067 3 0.486321 0.323266 0.117833
1068 1 0.494354 0.323425 0.115607
11274 1 0.497888 0.32404 0.114957
21223 1 0.497754 0.30504 0.127718
9363 1 0.497198 0.308063 0.107693
21225 1 0.497256 0.307086 0.110745
2656 1 0.529097 0.31525 0.109119
11273 3 0.506173 0.326219 0.114047
2657 3 0.520578 0.314388 0.108714
11272 1 0.512336 0.321157 0.112524
2658 1 0.515015 0.31924 0.111618
14646 1 0.440566 0.334897 0.10282
14645 2 0.445162 0.342351 0.101802
8413 1 0.450395 0.351353 0.106025
14644 1 0.449336 0.349232 0.104788
8414 2 0.452825 0.357485 0.109547
7544 3 0.466238 0.339955 0.100162
18688 1 0.475152 0.342306 0.106835
7543 1 0.47295 0.341339 0.10479
18689 3 0.480358 0.343398 0.112974
18690 1 0.487626 0.344285 0.110404
15576 1 0.490236 0.344033 0.109248
2679 1 0.499095 0.343696 0.119641
15575 3 0.497514 0.344495 0.1066
20600 3 0.49947 0.363444 0.0971199
2678 3 0.496887 0.342113 0.127177
3088 1 0.529744 0.35593 0.121237
8074 1 0.519976 0.336025 0.0979283
936 1 0.51897 0.33849 0.0985768
935 3 0.514853 0.344924 0.0991716
934 1 0.507624 0.34498 0.102308
15574 1 0.504536 0.344732 0.103333
5016 1 0.521954 0.363426 0.106966
3090 1 0.523891 0.36167 0.108732
3089 3 0.527745 0.359494 0.115219
8415 1 0.457011 0.364387 0.111326
14632 1 0.458038 0.36718 0.112246
14633 3 0.46067 0.373892 0.114947
14634 1 0.463571 0.379997 0.120579
19446 1 0.464722 0.38247 0.122869
19445 3 0.466621 0.387712 0.128204
2078 2 0.474183 0.387387 0.0972767
2077 1 0.473891 0.386934 0.106188
9792 1 0.492656 0.385876 0.118941
16186 1 0.491617 0.388396 0.117842
9791 3 0.496037 0.378959 0.120832
5015 3 0.516614 0.366541 0.102438
5014 1 0.509656 0.364724 0.0992111
15951 1 0.505978 0.376509 0.125899
9790 1 0.503602 0.37685 0.124693
20599 1 0.506681 0.364264 0.0984237
15380 2 0.485345 0.409244 0.102404
16187 3 0.489913 0.395255 0.114652
15381 1 0.487962 0.402972 0.107377
16188 1 0.488923 0.400295 0.109495
236 2 0.486246 0.212401 0.13478
235 1 0.489634 0.218021 0.128939
237 1 0.479242 0.212735 0.137236
11598 1 0.524051 0.227323 0.130347
11597 3 0.527709 0.232898 0.135111
9112 1 0.490429 0.264524 0.132145
3026 3 0.490534 0.270723 0.14076
3025 1 0.490241 0.265978 0.13437
9493 1 0.4512 0.294305 0.152102
9494 3 0.453049 0.291139 0.145156
9495 1 0.449561 0.286365 0.139406
3027 1 0.488776 0.278098 0.14208
18841 1 0.487696 0.280822 0.142359
18842 3 0.483876 0.287649 0.141575
18843 1 0.479456 0.295053 0.13937
14697 1 0.47754 0.297461 0.139004
16098 1 0.496048 0.28832 0.129316
16097 3 0.503107 0.285819 0.132505
7619 3 0.520679 0.294454 0.129433
7620 1 0.512883 0.290843 0.131298
16096 1 0.510128 0.289387 0.131395
18979 1 0.46236 0.324811 0.143657
18981 1 0.468527 0.311505 0.139042
18980 3 0.463611 0.318607 0.138622
2461 1 0.480108 0.3266 0.13785
2462 3 0.482802 0.332361 0.134211
21403 1 0.498276 0.30544 0.130443
21404 3 0.499015 0.307026 0.137396
14695 1 0.469874 0.309598 0.139286
14696 3 0.472802 0.303391 0.139432
21405 1 0.496378 0.311428 0.143099
19542 1 0.495595 0.313451 0.145254
19541 3 0.49482 0.318893 0.15189
19540 1 0.498108 0.324221 0.156153
2355 1 0.498916 0.326494 0.157619
2463 1 0.489291 0.336691 0.131964
2677 1 0.492039 0.337946 0.130614
2353 1 0.505313 0.340405 0.16062
1568 2 0.52174 0.362588 0.140368
1567 1 0.524298 0.355725 0.144501
19444 1 0.473053 0.39157 0.130224
19681 1 0.475125 0.393864 0.131564
15950 2 0.512647 0.374576 0.129624
1569 1 0.517674 0.367958 0.135776
15949 1 0.515717 0.3694 0.13422
19682 3 0.481366 0.398843 0.134673
19683 1 0.482367 0.406566 0.134046
2354 2 0.502147 0.333615 0.162529
19492 1 0.515936 0.353263 0.936801
8807 2 0.514205 0.362413 0.933364
8806 1 0.515713 0.356394 0.935385
8808 1 0.510698 0.369174 0.930677
18198 1 0.510813 0.255975 0.9495
18197 2 0.511656 0.257467 0.957119
18196 1 0.513595 0.259331 0.964025
15552 1 0.514233 0.260306 0.967425
21160 1 0.517069 0.314513 0.967621
5593 1 0.51874 0.315988 0.966158
5594 3 0.524041 0.31972 0.961173
1942 1 0.473136 0.348923 0.961692
1943 2 0.471002 0.346642 0.968975
11209 1 0.521077 0.344741 0.949522
633 1 0.530757 0.354999 0.960118
11211 1 0.530119 0.352005 0.958974
11210 3 0.526496 0.344795 0.955988
19493 2 0.515522 0.346798 0.940165
19494 1 0.519143 0.345207 0.947002
17258 3 0.527425 0.382306 0.96835
17259 1 0.526165 0.390336 0.969278
17257 1 0.529946 0.373094 0.967031
631 1 0.53075 0.370595 0.966349
12328 1 0.51128 0.255081 0.99733
12330 1 0.510806 0.260642 0.985007
15550 1 0.51192 0.26158 0.982263
15551 2 0.513917 0.262084 0.975794
12329 3 0.508448 0.259231 0.991226
16026 1 0.496069 0.296524 0.988656
18691 1 0.527375 0.276773 0.990965
18692 3 0.52956 0.278282 0.984029
16025 3 0.501765 0.302487 0.987647
10384 1 0.524929 0.276754 0.993595
21161 3 0.512456 0.310676 0.973543
16024 1 0.505505 0.3064 0.981235
21162 1 0.507532 0.307544 0.978893
7860 1 0.529419 0.319153 0.979226
1906 1 0.528146 0.321847 0.979269
1907 3 0.523731 0.329083 0.980934
11904 1 0.520743 0.315252 0.999456
16807 1 0.497819 0.345059 0.99925
16808 3 0.491684 0.340366 0.994779
1944 1 0.472248 0.346167 0.977119
8172 1 0.48164 0.344415 0.990138
16809 1 0.483967 0.343862 0.991033
8170 1 0.472433 0.345794 0.979459
8171 2 0.474092 0.344779 0.98718
1908 1 0.525942 0.336918 0.982236
12628 1 0.526531 0.339852 0.98246
12629 3 0.528696 0.347473 0.982377
17887 1 0.514368 0.33758 0.999581
5323 1 0.544969 0.206617 0.0188324
15128 3 0.571195 0.210239 0.00790814
15127 1 0.575403 0.203885 0.00692319
5324 3 0.544564 0.213059 0.022906
12958 1 0.546435 0.220098 0.00256921
12960 1 0.561046 0.214116 0.00410733
12959 3 0.555077 0.218532 0.00115068
5325 1 0.550494 0.218158 0.0252453
10212 1 0.552275 0.219371 0.0258697
10211 3 0.557665 0.223687 0.0284139
10210 1 0.559904 0.231393 0.0302028
11836 1 0.561578 0.240958 0.00485035
8029 1 0.547017 0.240264 0.0157786
7266 1 0.544873 0.239256 0.0175096
7368 1 0.560669 0.234186 0.0300481
7265 3 0.540915 0.236925 0.0237082
9058 1 0.59158 0.21206 0.0179114
15129 1 0.563518 0.212702 0.00507014
5944 1 0.578561 0.226905 0.0235269
5945 3 0.577781 0.229643 0.0157649
8196 1 0.578741 0.225666 0.0263786
5946 1 0.583136 0.23187 0.0101652
16297 1 0.585101 0.232675 0.00760281
16298 3 0.590053 0.233619 0.000588493
9060 1 0.602071 0.220812 0.0244933
9059 3 0.59703 0.217674 0.018918
820 1 0.603532 0.22196 0.0265114
59 3 0.623567 0.236747 0.0145736
60 1 0.621514 0.229265 0.0128651
6096 1 0.620813 0.226751 0.0123639
6095 3 0.619639 0.22045 0.00994114
6094 1 0.617372 0.217382 0.00275535
58 1 0.627686 0.239571 0.0206594
8031 1 0.559926 0.241229 0.0064812
8030 3 0.553369 0.24191 0.011952
3989 3 0.553145 0.262916 0.0147417
3990 1 0.561116 0.261641 0.0155925
3988 1 0.551076 0.269269 0.0177833
13829 3 0.534411 0.256344 0.00255239
11837 3 0.567569 0.241823 1.52293e-05
9639 1 0.5636 0.261185 0.016216
9638 3 0.571374 0.259889 0.0193316
9637 1 0.575568 0.256484 0.0256735
17325 1 0.577263 0.255005 0.028054
6562 1 0.599095 0.247579 0.0150864
6563 3 0.595571 0.241306 0.019925
18966 1 0.600928 0.250039 0.0131114
6564 1 0.597718 0.244344 0.0260377
8994 1 0.599198 0.245957 0.0281522
12995 3 0.615002 0.269787 0.0253671
12996 1 0.620025 0.263316 0.0254776
18004 1 0.62211 0.260958 0.0249572
18965 3 0.604866 0.254105 0.00976042
18964 1 0.612362 0.255536 0.00637208
11181 1 0.614734 0.255672 0.00527762
11180 3 0.620646 0.257656 0.00112725
18005 3 0.626758 0.25613 0.0219738
18006 1 0.628375 0.249836 0.0271483
6517 1 0.628235 0.247669 0.0294751
21354 1 0.550612 0.272527 0.01898
21352 1 0.543679 0.284993 0.0159472
21353 3 0.548254 0.280248 0.0208919
9655 1 0.542178 0.286785 0.0139516
4859 3 0.560614 0.297514 0.00674799
4858 1 0.552554 0.298711 0.00601786
9657 1 0.538106 0.29245 0.0020666
4526 3 0.562058 0.297852 0.0287181
9656 3 0.538052 0.291168 0.009382
8016 1 0.592869 0.272192 0.0252663
7488 1 0.593554 0.272601 0.0228606
10913 3 0.574674 0.285457 0.0288303
18584 3 0.571163 0.279158 0.0120076
18585 1 0.572568 0.280947 0.0191622
10914 1 0.573256 0.282097 0.0219989
9763 1 0.57142 0.296078 0.00500588
4860 1 0.568691 0.2962 0.005458
10912 1 0.569791 0.2904 0.0286437
4527 1 0.567862 0.292432 0.0285719
9764 3 0.579184 0.296419 0.00264904
9765 1 0.585936 0.296724 0.000163821
16038 1 0.572557 0.279894 0.00122833
18583 1 0.572533 0.279737 0.00402333
7487 3 0.594785 0.27547 0.0157405
7486 1 0.599602 0.271961 0.0101297
12994 1 0.612251 0.273753 0.019709
17850 1 0.601785 0.2966 0.0138148
17252 3 0.601563 0.29469 0.0255332
17253 1 0.602021 0.295596 0.0175213
19769 3 0.622515 0.295694 0.0238739
19770 1 0.62377 0.298173 0.0157013
17849 3 0.602177 0.299218 0.0068783
6301 1 0.595657 0.276464 0.000696152
15600 1 0.625029 0.299488 0.0129198
8410 1 0.650235 0.299037 0.0233025
19768 1 0.627384 0.289801 0.0264598
3955 1 0.628697 0.287331 0.027268
3956 3 0.633052 0.280345 0.0293001
391 1 0.5529 0.32095 0.0220058
392 3 0.556966 0.314721 0.0265195
4525 1 0.560675 0.305042 0.0288946
393 1 0.559839 0.307842 0.028123
2618 3 0.548628 0.330447 0.0164035
2617 1 0.551511 0.323834 0.0201624
11020 1 0.540667 0.309178 0.00601613
11021 3 0.544136 0.315953 0.00285524
5241 1 0.540318 0.309207 0.018787
5240 3 0.533811 0.312454 0.0218071
16762 1 0.562509 0.315858 0.000431822
18438 1 0.582551 0.312543 0.0227126
18437 3 0.578147 0.313291 0.0298691
15769 1 0.584264 0.312908 0.0206293
15770 3 0.589693 0.313343 0.0150549
4342 1 0.592915 0.330513 0.029257
16763 3 0.566057 0.318389 0.00702086
2974 1 0.56804 0.325556 0.0142089
16764 1 0.567646 0.323856 0.0126926
5003 3 0.583192 0.331015 0.00117765
11168 3 0.610192 0.316362 0.0294826
11167 1 0.610836 0.318636 0.0226362
16953 1 0.611406 0.319495 0.0195628
16952 3 0.612362 0.320567 0.0123819
16951 1 0.610316 0.324258 0.00644207
15771 1 0.59466 0.319681 0.0139136
15599 3 0.62798 0.302053 0.00689445
18466 1 0.633261 0.310214 0.00408006
15598 1 0.631383 0.307903 0.00463586
8412 1 0.646283 0.303541 0.00863919
8411 3 0.646916 0.301601 0.0159222
18467 2 0.637869 0.316419 0.00301742
7461 1 0.535833 0.354357 0.0110454
14742 1 0.536946 0.351483 0.0108952
14741 3 0.539611 0.34492 0.0104508
14740 1 0.543896 0.339033 0.0136703
2619 1 0.545482 0.336751 0.0144245
7460 3 0.533782 0.361207 0.011636
9644 3 0.590743 0.33375 0.0188568
9643 1 0.592354 0.331601 0.0264631
2975 3 0.570036 0.332128 0.0171353
2976 1 0.567262 0.339703 0.0184293
9645 1 0.587351 0.333596 0.0110342
5004 1 0.586006 0.33307 0.008077
19050 1 0.566141 0.342351 0.0189927
19049 3 0.5631 0.349159 0.0193577
19048 1 0.562767 0.355878 0.0239715
14194 1 0.562497 0.358877 0.0253487
2883 1 0.619348 0.338927 0.0204083
5974 1 0.617154 0.339064 0.0221979
5975 3 0.610903 0.337817 0.0277751
2882 3 0.625931 0.33821 0.0159756
19942 1 0.632439 0.33946 0.00730056
2881 1 0.631049 0.339006 0.00967744
19943 2 0.636237 0.342589 0.00191227
17246 3 0.546227 0.381427 0.0249435
17247 1 0.547942 0.373261 0.0213477
7459 1 0.531863 0.367993 0.015468
14195 3 0.562415 0.367033 0.0275153
5285 3 0.532699 0.176747 0.0520109
2138 3 0.545886 0.208282 0.0446651
5314 1 0.556742 0.208762 0.0424821
2139 1 0.554147 0.208122 0.0425082
5286 1 0.532024 0.183882 0.0520357
21208 1 0.531458 0.186648 0.0522237
5315 3 0.564849 0.209996 0.0422197
3573 1 0.577145 0.192305 0.0567373
2137 1 0.538958 0.211235 0.0410281
11875 1 0.536643 0.211807 0.0397185
21305 3 0.545208 0.22342 0.0590302
21304 1 0.544433 0.22602 0.051705
11385 1 0.544266 0.227243 0.0489038
11384 3 0.542412 0.232052 0.0413783
11383 1 0.542205 0.234324 0.0339479
7264 1 0.54179 0.23516 0.0310773
5316 1 0.570319 0.212484 0.0360569
8195 3 0.58016 0.222247 0.0339917
8194 1 0.584205 0.219953 0.0404698
6126 1 0.586134 0.219536 0.0429577
6125 3 0.590879 0.217459 0.0485172
2325 1 0.580564 0.233145 0.0571984
20953 1 0.581179 0.234913 0.0548735
20954 3 0.581659 0.238916 0.0490556
821 3 0.606935 0.226277 0.0334211
10460 3 0.606262 0.213829 0.0596425
13985 3 0.62346 0.222203 0.0434805
6124 1 0.59745 0.217718 0.0540156
822 1 0.613655 0.225616 0.0381459
13984 1 0.616266 0.224745 0.0396943
10459 1 0.599957 0.216768 0.0562097
11460 1 0.618336 0.23951 0.0578982
14683 1 0.620191 0.23954 0.0600798
11459 3 0.612012 0.240157 0.0521865
13986 1 0.632053 0.222786 0.0451503
2542 1 0.634541 0.223524 0.0459651
2543 3 0.641073 0.226864 0.0474584
2544 1 0.646117 0.230797 0.0470184
6519 1 0.626012 0.237752 0.0411914
19431 1 0.561895 0.251738 0.0363848
19430 3 0.560578 0.259228 0.0403223
19429 1 0.559375 0.266022 0.0407813
1585 1 0.558167 0.268607 0.0411864
6367 1 0.539489 0.248338 0.0531068
19117 1 0.538842 0.246595 0.0561688
18021 1 0.554747 0.245899 0.059044
19433 3 0.537328 0.263223 0.0329799
19432 1 0.533198 0.270095 0.0318556
19434 1 0.539188 0.258767 0.0386712
6369 1 0.53946 0.257198 0.0412982
6368 3 0.541258 0.252285 0.0472064
8015 3 0.592014 0.27077 0.0331757
7367 3 0.564006 0.242391 0.0303536
7366 1 0.562488 0.249556 0.0350232
17324 3 0.582328 0.251618 0.0343731
20955 1 0.581606 0.244516 0.04242
17323 1 0.582096 0.246326 0.0397458
21028 1 0.574 0.266923 0.0569354
20842 1 0.576406 0.267193 0.0545562
20843 3 0.582355 0.267522 0.0491775
8014 1 0.587202 0.269761 0.0399327
20844 1 0.586193 0.268895 0.0423735
8993 3 0.602989 0.249823 0.0330093
20324 3 0.599865 0.252879 0.0601413
20325 1 0.604315 0.246786 0.0570573
11458 1 0.606134 0.244172 0.0560912
8992 1 0.607118 0.254632 0.0369638
15123 1 0.60845 0.256315 0.0390837
15122 3 0.611786 0.260735 0.0446373
15121 1 0.619295 0.261217 0.0481393
13078 1 0.621946 0.26107 0.0493052
13079 3 0.628381 0.260223 0.0545159
13080 1 0.634334 0.255348 0.0527957
6518 3 0.628923 0.241566 0.034952
15223 1 0.636684 0.253167 0.0526427
15224 3 0.641874 0.247346 0.0520336
15225 1 0.645393 0.243803 0.0586413
1586 3 0.554636 0.275659 0.0422996
1587 1 0.552516 0.283436 0.0433658
20266 1 0.551974 0.286411 0.0443461
20268 1 0.545985 0.300988 0.0486144
20267 3 0.550662 0.294904 0.0465157
21551 3 0.532408 0.27383 0.0527924
13534 1 0.532064 0.27274 0.0313969
20125 1 0.532395 0.29114 0.0339148
13536 1 0.532228 0.288194 0.0328239
21552 1 0.531209 0.280792 0.0560043
20322 1 0.584725 0.296875 0.0459117
1006 1 0.586705 0.295397 0.0464044
1007 3 0.592952 0.289474 0.0474861
13379 3 0.568364 0.287872 0.0601084
17251 1 0.603086 0.300403 0.0306079
1008 1 0.600407 0.288116 0.0442382
6513 1 0.62323 0.294365 0.0379203
6512 3 0.618275 0.296418 0.0436537
6511 1 0.620961 0.299054 0.0507442
13611 1 0.621936 0.30046 0.0528374
3957 1 0.633213 0.281169 0.0377254
11056 1 0.633307 0.281348 0.0414575
11057 3 0.633445 0.281873 0.0496995
11058 1 0.633896 0.278812 0.0571406
12763 1 0.634122 0.278042 0.0604952
18598 1 0.544748 0.303745 0.0491426
18599 3 0.542814 0.310931 0.050348
18600 1 0.540947 0.318027 0.0467452
15154 1 0.540709 0.320923 0.0455443
9110 3 0.561276 0.327423 0.052297
15155 3 0.539734 0.328585 0.0432031
17025 1 0.531722 0.323369 0.0605536
18436 1 0.578711 0.308902 0.0365595
4343 3 0.59172 0.328952 0.0372281
20320 1 0.578744 0.307136 0.0393078
20321 3 0.578917 0.301815 0.0446622
9109 1 0.567739 0.32423 0.0574797
105 1 0.569494 0.322611 0.0587464
11169 1 0.605265 0.313168 0.0355015
5671 1 0.604011 0.312183 0.0385015
5672 3 0.600947 0.309535 0.0447168
5673 1 0.593915 0.312971 0.046427
13610 3 0.622669 0.305008 0.0595882
1511 3 0.648924 0.317252 0.0430015
1512 1 0.653119 0.324674 0.0446076
1510 1 0.647157 0.311457 0.0364537
17470 1 0.538299 0.35249 0.0340153
13789 1 0.535637 0.353432 0.0341642
2163 1 0.534166 0.335515 0.0482854
8703 1 0.55338 0.340284 0.0343981
17472 1 0.551101 0.342701 0.0343844
17471 3 0.545677 0.348441 0.0332603
8702 3 0.558835 0.335048 0.0347743
9111 1 0.559437 0.331475 0.0449536
8701 1 0.559229 0.332869 0.0420795
17810 3 0.544559 0.357428 0.053179
17811 1 0.539594 0.35461 0.0590217
15156 1 0.53569 0.333148 0.0471364