ITEM: TIMESTEP
35000000
ITEM: NUMBER OF ENTRIES
186
ITEM: BOX BOUNDS pp pp pp
0 50
0 50
0 50
ITEM: ENTRIES c_binfo[1] c_binfo[2] c_binfo[3] 
2 6362 6363 
1 6363 10968 
2 10967 10968 
2 11918 11919 
2 10966 10967 
1 10966 16527 
2 3202 3203 
1 3202 16737 
2 16736 16737 
2 3203 3204 
2 16735 16736 
2 1718 1719 
1 1719 20251 
2 1717 1718 
1 1717 3204 
2 20251 20252 
2 18382 18383 
2 16886 16887 
2 16885 16886 
1 16885 18382 
1 15090 18660 
2 18659 18660 
2 18658 18659 
2 15089 15090 
2 8570 8571 
2 8569 8570 
1 8569 15088 
2 15088 15089 
2 2140 2141 
1 2140 20725 
2 17318 17319 
2 17317 17318 
1 17317 19726 
2 19726 19727 
2 20725 20726 
2 2141 2142 
1 2142 14809 
2 14809 14810 
2 14810 14811 
1 7203 14811 
2 14915 14916 
2 14914 14915 
1 13119 14914 
2 7202 7203 
2 9839 9840 
2 7201 7202 
1 7201 9838 
2 9838 9839 
2 13118 13119 
2 4546 4547 
1 4546 13117 
2 13117 13118 
2 20075 20076 
2 20074 20075 
2 18241 18242 
1 18241 20074 
2 18242 18243 
2 9649 9650 
2 4117 4118 
1 4117 9649 
2 4118 4119 
1 4119 13327 
2 13327 13328 
2 2383 2384 
1 2383 13329 
2 13328 13329 
2 6361 6362 
2 2384 2385 
1 2385 6361 
2 20726 20727 
2 19727 19728 
3 13822 13823 
1 13822 14052 
3 13823 13824 
3 9814 9815 
1 9814 13824 
1 9816 20727 
3 9815 9816 
2 12815 12816 
2 12814 12815 
1 3486 12814 
1 12816 20394 
2 3485 3486 
2 14051 14052 
2 14050 14051 
2 2092 2093 
1 2092 14050 
2 2093 2094 
1 2094 14916 
2 3484 3485 
1 3484 4212 
2 4211 4212 
2 9650 9651 
2 3014 3015 
2 4210 4211 
1 4210 9651 
2 11917 11918 
2 3013 3014 
1 3013 11917 
2 3949 3950 
1 3949 18243 
2 3950 3951 
2 16525 16526 
1 16525 20919 
2 16526 16527 
2 2186 2187 
2 2185 2186 
1 2185 20392 
2 20392 20393 
2 20393 20394 
2 17336 17337 
2 14236 14237 
2 14237 14238 
2 8287 8288 
1 8287 14238 
2 905 906 
2 8288 8289 
2 18925 18926 
1 1341 18925 
1 906 18927 
2 18926 18927 
2 1339 1340 
2 1340 1341 
2 20918 20919 
1 20253 20917 
2 20252 20253 
2 20917 20918 
1 6012 15987 
2 15986 15987 
3 6011 6012 
2 15985 15986 
2 17335 17336 
3 6010 6011 
1 6010 17335 
3 14789 14790 
3 14788 14789 
1 5034 14788 
1 2187 5032 
3 5032 5033 
3 5033 5034 
3 1235 1236 
3 1234 1235 
1 1234 8289 
2 904 905 
1 904 16158 
3 16157 16158 
3 16156 16157 
2 20057 20058 
2 20056 20057 
1 11793 20058 
2 11792 11793 
2 11791 11792 
1 11791 18904 
3 5413 5414 
3 5414 5415 
1 5415 13224 
2 13223 13224 
2 13222 13223 
1 7338 13222 
3 7337 7338 
3 7336 7337 
1 7336 19074 
3 19073 19074 
3 12547 12548 
1 12547 19072 
3 19072 19073 
1 12549 18906 
3 12548 12549 
2 18905 18906 
2 18904 18905 
2 18383 18384 
1 2730 9840 
2 4547 4548 
2 14923 14924 
1 14923 18384 
2 14924 14925 
1 4548 14925 
2 2729 2730 
2 2728 2729 
1 2728 19000 
2 19000 19001 
1 11010 19002 
2 11008 11009 
1 8571 11008 
2 11009 11010 
2 19001 19002 
