ITEM: TIMESTEP
35000000
ITEM: NUMBER OF ATOMS
2862
ITEM: BOX BOUNDS pp pp pp
0.0000000000000000e+00 5.0000000000000000e+01
0.0000000000000000e+00 5.0000000000000000e+01
0.0000000000000000e+00 5.0000000000000000e+01
ITEM: ATOMS id type xs ys zs
6553 1 0.00808572 0.483504 0.830842
8837 2 0.72483 0.357647 0.0135808
8836 1 0.730898 0.357021 0.00733973
12489 1 0.733278 0.356973 0.00489266
15188 3 0.790822 0.358559 0.00868601
15189 1 0.797912 0.356104 0.00796794
4361 3 0.720206 0.37129 0.0264496
4362 1 0.722192 0.365129 0.0218369
8838 1 0.722915 0.362586 0.0198233
15147 1 0.749632 0.385893 0.0262088
13359 1 0.773134 0.379537 0.00100568
11550 1 0.774443 0.377913 0.00304444
11549 3 0.778551 0.373475 0.00907934
15018 1 0.749931 0.386934 0.023136
15017 3 0.751556 0.389674 0.0149766
15187 1 0.785421 0.364105 0.00964532
11548 1 0.783414 0.366408 0.00955631
13217 3 0.81122 0.388705 0.00489389
5105 3 0.790514 0.39075 0.00593302
5933 3 0.829749 0.377671 0.00606574
5932 1 0.830348 0.372902 0.0131245
11706 1 0.830345 0.37118 0.0157864
6371 3 0.842678 0.387864 0.0215249
17754 1 0.832028 0.391173 0.02424
6372 1 0.834965 0.390016 0.0233104
11705 3 0.831631 0.367017 0.0224424
6370 1 0.848844 0.391095 0.0206267
4136 2 0.890708 0.371872 0.0086266
4137 1 0.887001 0.377717 0.00413379
6577 1 0.885918 0.38051 0.00240461
4135 1 0.89569 0.369697 0.0152695
21065 3 0.717137 0.419839 0.00444879
15308 3 0.737578 0.415071 0.00617979
15307 1 0.734369 0.411727 0.0137295
4011 1 0.733243 0.41051 0.0160832
4010 3 0.729313 0.407506 0.0226583
4009 1 0.727261 0.40033 0.0277075
876 1 0.726687 0.397863 0.0288957
21089 3 0.763941 0.401391 0.00652657
21090 1 0.769627 0.402059 0.00112599
15016 1 0.756895 0.39564 0.0122619
21088 1 0.758623 0.397041 0.0106547
15304 1 0.779853 0.41075 0.0218238
19674 1 0.780722 0.408003 0.0207463
2216 3 0.758967 0.408493 0.0278335
15305 3 0.778707 0.417855 0.0236547
15306 1 0.775927 0.420671 0.0181948
2217 1 0.763366 0.402038 0.0302141
5106 1 0.786734 0.39533 0.0105121
19672 1 0.785035 0.396967 0.0123789
19673 3 0.782916 0.401827 0.0176311
172 1 0.798894 0.4161 0.0156746
173 3 0.80075 0.416296 0.0233911
838 1 0.79764 0.415639 0.0129651
839 3 0.794158 0.415152 0.00550741
174 1 0.796158 0.419824 0.029242
13218 1 0.816158 0.394632 0.00428414
4632 1 0.817796 0.39669 0.00379859
17753 3 0.82375 0.391596 0.0263755
4631 3 0.823222 0.401875 0.00145126
6825 1 0.842534 0.420177 0.0156012
6824 3 0.840355 0.41179 0.0140981
6823 1 0.843401 0.407686 0.00847634
17752 1 0.815899 0.392826 0.0294289
1657 1 0.813399 0.393541 0.0302034
13801 1 0.826051 0.421624 0.0253204
3829 1 0.827809 0.420857 0.0280119
20166 1 0.844 0.406145 0.00645926
14529 1 0.851746 0.392583 0.0202139
14528 3 0.857732 0.396228 0.0191023
14527 1 0.865124 0.397477 0.0172726
6120 1 0.867879 0.398041 0.0165921
14716 1 0.862714 0.418098 0.0212339
11608 1 0.863501 0.419273 0.0183319
20165 3 0.844654 0.400474 0.000693537
11609 3 0.86487 0.421226 0.0101144
14717 3 0.860125 0.414038 0.0279686
6119 3 0.87597 0.400095 0.0153719
6118 1 0.884257 0.400368 0.013931
19780 1 0.887257 0.400219 0.0134035
19781 3 0.894366 0.399847 0.0115228
19782 1 0.899871 0.403834 0.00994345
19788 1 0.902578 0.405367 0.00954806
19787 2 0.909412 0.409081 0.00842601
19786 1 0.914693 0.4161 0.00797525
11206 1 0.916356 0.418288 0.00809033
14944 1 0.686614 0.434087 0.0279821
5451 1 0.685457 0.437119 0.0274083
5450 3 0.6844 0.444915 0.0263933
5449 1 0.687227 0.451772 0.0287103
21066 1 0.713475 0.426418 0.00675183
6143 3 0.709865 0.435796 0.0101246
6144 1 0.712295 0.429214 0.00755782
6142 1 0.709729 0.443599 0.00985421
21480 1 0.709508 0.447053 0.00936583
14945 3 0.690921 0.427831 0.0290874
14946 1 0.693417 0.422836 0.0230708
20457 1 0.737077 0.446344 0.00807031
9222 1 0.734718 0.444797 0.00623365
17929 1 0.747805 0.43029 0.0188308
20119 1 0.748893 0.43061 0.0157535
20121 1 0.748482 0.433932 0.000412325
20456 3 0.741958 0.449166 0.0120863
9221 3 0.728431 0.442058 0.00183245
17930 3 0.745034 0.429784 0.0253016
20120 3 0.751487 0.432211 0.0076192
13759 1 0.774011 0.422188 0.0158385
6168 1 0.762071 0.44653 0.0259073
6167 3 0.763844 0.439026 0.0266412
13760 3 0.770128 0.426146 0.0109746
7520 3 0.776899 0.448047 0.0123873
7521 1 0.780906 0.442157 0.0160782
15045 1 0.760774 0.44949 0.0256136
8320 1 0.767085 0.424761 0.000981243
13761 1 0.767605 0.425107 0.00399058
7519 1 0.774189 0.449515 0.00571877
20299 1 0.772741 0.451066 0.00307008
12037 1 0.782676 0.440803 0.0180674
12038 3 0.787262 0.437113 0.0233543
12039 1 0.794187 0.439556 0.0259111
9 1 0.796706 0.440036 0.0267811
11315 3 0.800574 0.43897 0.00366829
11316 1 0.803615 0.435455 0.00979357
8 3 0.804136 0.441728 0.0295372
17552 3 0.813513 0.422416 0.00162697
13803 1 0.817458 0.424046 0.0115064
17551 1 0.816017 0.423363 0.00861273
13802 3 0.821527 0.423748 0.0187701
15461 3 0.832279 0.449036 0.0146932
15462 1 0.836936 0.445966 0.00911211
13041 1 0.829031 0.436549 3.78126e-05
10956 1 0.827045 0.438399 2.72037e-05
12754 1 0.84384 0.422927 0.0162196
12755 3 0.846518 0.43076 0.0166584
12756 1 0.850013 0.436382 0.0212794
7303 1 0.857765 0.425419 0.00287058
11610 1 0.860466 0.423864 0.00457949
18469 1 0.861537 0.450185 0.00588224
18470 3 0.868225 0.446292 0.00679204
18471 1 0.872235 0.441381 0.0117578
3588 1 0.858785 0.451521 0.00575777
112 1 0.850378 0.438492 0.0229748
113 3 0.850227 0.444281 0.0280957
15975 1 0.883134 0.433374 0.0249707
15973 1 0.881708 0.426468 0.00957205
15974 3 0.884078 0.429427 0.0177653
18371 3 0.904322 0.437526 0.0140678
18372 1 0.905375 0.438036 0.00686187
445 1 0.905662 0.438225 0.00403175
11207 3 0.922109 0.424259 0.00917947
5264 3 0.914588 0.441606 0.029426
11208 1 0.927303 0.429393 0.0119355
9606 1 0.929267 0.431207 0.0129917
18370 1 0.90857 0.439702 0.0200936
5265 1 0.910248 0.440562 0.0226806
9605 2 0.935557 0.435708 0.0165729
5205 1 0.939899 0.439661 0.0262556
9604 1 0.938811 0.438941 0.0238125
21479 3 0.709093 0.45479 0.00920684
16575 1 0.688395 0.454806 0.0292908
16574 3 0.691919 0.462567 0.0298549
21478 1 0.710998 0.463285 0.00936823
2091 1 0.711413 0.465149 0.00920023
16573 1 0.697084 0.468835 0.029735
2090 3 0.713518 0.472355 0.00861
205 1 0.698802 0.471028 0.0293519
206 3 0.704531 0.47693 0.0268905
207 1 0.710183 0.472556 0.0267315
11262 1 0.712706 0.470447 0.027162
2089 1 0.715351 0.479845 0.0116758
11261 3 0.717018 0.464421 0.0283273
20455 1 0.739744 0.45711 0.0126032
11409 1 0.738854 0.459826 0.0125528
11408 3 0.735502 0.467056 0.0112419
11407 1 0.737977 0.474042 0.0111517
10351 1 0.739233 0.476892 0.0113886
11260 1 0.72124 0.457664 0.0299775
15044 3 0.758049 0.457772 0.0240508
18092 3 0.772217 0.469367 0.0122853
18093 1 0.777597 0.473184 0.015221
13792 1 0.77961 0.474565 0.0158425
15315 1 0.762726 0.468439 0.00682402
18091 1 0.76495 0.468478 0.00790062
15043 1 0.758129 0.464768 0.0259793
9019 1 0.777115 0.453262 0.0285352
2407 1 0.758461 0.46764 0.0265637
2408 3 0.760061 0.475495 0.0282944
15314 3 0.755019 0.467731 0.00336336
13793 3 0.786535 0.478455 0.0169567
13794 1 0.793819 0.481699 0.0184099
5958 1 0.796941 0.459726 0.0211345
5957 3 0.794974 0.45694 0.0136015
5956 1 0.800791 0.457452 0.00812434
13042 1 0.802903 0.45814 0.00574715
12332 3 0.809245 0.477636 0.017786
13306 1 0.797392 0.461204 0.0237712
12333 1 0.811673 0.469455 0.0187173
13043 3 0.808219 0.459159 0.000199288
15460 1 0.825371 0.452705 0.0177476
6645 1 0.822414 0.45417 0.0187981
6643 1 0.812759 0.46653 0.0191938
6644 3 0.81529 0.458641 0.0200634
16284 1 0.836521 0.475703 0.0107728
3586 1 0.842551 0.454517 0.00478734
15528 1 0.835684 0.477128 0.0133269
15527 3 0.835094 0.478964 0.0203309
16283 3 0.837538 0.472824 0.00437204
439 1 0.87405 0.457553 0.0285308
3587 3 0.850946 0.454818 0.00405032
6111 1 0.84437 0.462592 0.0271771
9598 1 0.846729 0.462813 0.025394
9599 3 0.854599 0.463932 0.0224779
9600 1 0.862164 0.462946 0.0218615
441 1 0.865258 0.462918 0.0218124
440 3 0.872452 0.463909 0.0222876
16528 1 0.860982 0.477859 0.00214949
6523 1 0.861255 0.476406 0.000144754
8038 1 0.890924 0.455787 0.0114833
8039 3 0.888443 0.452519 0.00450921
11286 1 0.90449 0.455454 0.00759651
11285 3 0.908407 0.46179 0.0106973
11284 1 0.910882 0.469333 0.0117055
20644 1 0.7166 0.482423 0.0122882
7075 1 0.731485 0.511267 0.00952534
20645 3 0.720399 0.488354 0.01336
10352 3 0.742376 0.484905 0.0117391
20646 1 0.725207 0.494638 0.0125146
7077 1 0.725929 0.497484 0.0126633
7076 3 0.727568 0.505281 0.0113372
10353 1 0.743248 0.491759 0.0144513
11808 1 0.743496 0.494977 0.0158321
11807 3 0.745117 0.501643 0.0194712
11806 1 0.743387 0.49938 0.0267426
10750 1 0.742764 0.498331 0.0293423
10175 3 0.767387 0.504357 0.011726
10174 1 0.767781 0.497693 0.00930085
11425 1 0.767916 0.495092 0.00787671
6311 3 0.771703 0.491237 0.0265648
19192 1 0.77967 0.498301 0.0248933
6312 1 0.777372 0.496609 0.0251423
2409 1 0.765788 0.482102 0.0267026
6310 1 0.767679 0.484911 0.026534
11426 3 0.769211 0.488307 0.00381036
10176 1 0.764406 0.511997 0.0099609
4099 1 0.803757 0.486024 0.0135792
12331 1 0.805317 0.483793 0.0150121
4100 3 0.801101 0.492404 0.00977723
4800 1 0.786481 0.506556 0.0139161
19194 1 0.786307 0.505372 0.0164525
19193 3 0.786483 0.502695 0.0232845
4799 3 0.787442 0.510074 0.00730865
2046 1 0.812236 0.505347 0.0223528
8673 1 0.803532 0.498589 0.000963046
4101 1 0.802732 0.497003 0.00395785
2045 3 0.80573 0.510055 0.0244055
15526 1 0.832862 0.48244 0.0270504
6637 1 0.831895 0.483531 0.0292833
299 3 0.822021 0.49914 0.0194631
300 1 0.823772 0.496809 0.0123849
4745 3 0.822879 0.492632 0.00264977
4744 1 0.823755 0.495806 0.00921597
298 1 0.814773 0.503708 0.0214583
9438 1 0.860719 0.508034 0.0235001
1450 1 0.857048 0.504206 0.00190407
16529 3 0.858397 0.482867 0.00643317
16530 1 0.854476 0.489099 0.00624293
1452 1 0.853971 0.491518 0.00611117
1451 3 0.852851 0.499791 0.00608147
2240 3 0.868898 0.50058 0.0231134
2239 1 0.863239 0.505882 0.0232574
14710 1 0.883633 0.489152 0.00679676
14711 3 0.877956 0.495183 0.0035657
2241 1 0.875734 0.495888 0.0256943
18097 1 0.756874 0.351022 0.0412762
18098 3 0.756032 0.358417 0.0443958
4360 1 0.717744 0.370598 0.0336707
15146 3 0.748026 0.384842 0.0344592
15145 1 0.746691 0.382654 0.0418807
875 3 0.725418 0.391383 0.0337047
874 1 0.72522 0.38915 0.0416918
18099 1 0.760825 0.363138 0.0437969
3761 3 0.76824 0.370944 0.0440966
3760 1 0.763108 0.364841 0.0438733
3762 1 0.770702 0.376991 0.0492175
7086 1 0.771317 0.379386 0.0507799
12285 1 0.772808 0.38943 0.037127
7085 3 0.774045 0.38576 0.0549022
7084 1 0.78116 0.386157 0.0587954
5979 1 0.83527 0.366449 0.0332721
5978 3 0.837801 0.365466 0.0403272
5977 1 0.838553 0.372339 0.0429761
17907 1 0.838665 0.375441 0.0435267
11704 1 0.833869 0.36653 0.0307613
17906 2 0.837845 0.384151 0.0444703
4173 1 0.750043 0.420146 0.0480817
1987 1 0.750145 0.417177 0.0501714
13677 1 0.774008 0.416411 0.0527583
13676 3 0.776698 0.41021 0.0485776
1989 1 0.759063 0.406146 0.0582274
1988 2 0.752109 0.409792 0.0547673
2215 1 0.757474 0.415497 0.0322803
12283 1 0.764984 0.400019 0.0313094
12284 3 0.769403 0.394705 0.0334425
5391 1 0.795266 0.421049 0.0312511
13675 1 0.78259 0.405675 0.0439673
1659 1 0.799372 0.396711 0.0352718
1479 1 0.797324 0.397634 0.0364035
1477 1 0.784788 0.404231 0.0422038
1478 3 0.790171 0.40132 0.0370075
4304 3 0.81042 0.413225 0.0435225
4303 1 0.809732 0.4209 0.0467477
1658 3 0.805157 0.394715 0.0316843
4305 1 0.814371 0.414004 0.0357158
3830 3 0.832848 0.41968 0.0355516
3831 1 0.833418 0.412204 0.0386122
15418 1 0.834425 0.409302 0.0399721
15419 3 0.836498 0.401932 0.0417967
15420 1 0.836801 0.394759 0.0436082
17905 1 0.837451 0.391912 0.0437312
14718 1 0.855885 0.416831 0.0350768
6623 3 0.862212 0.415028 0.0560015
6622 1 0.856907 0.420497 0.0534771
4172 3 0.749127 0.426097 0.0442151
17931 1 0.746856 0.428856 0.0329005
4171 1 0.747018 0.428303 0.0358666
5186 3 0.727347 0.449298 0.0320345
5185 1 0.731638 0.442516 0.0340452
12059 2 0.74539 0.450148 0.0595868
20396 3 0.769251 0.431296 0.0431701
6166 1 0.767598 0.435127 0.0328695
20397 1 0.768294 0.434331 0.0354181
20395 1 0.768383 0.432698 0.0516199
4387 1 0.767256 0.432785 0.0547735
9679 1 0.809822 0.422994 0.048011
5390 3 0.791512 0.424221 0.0378834
20078 3 0.789961 0.442326 0.0460374
20077 1 0.786704 0.441423 0.0534442
11811 1 0.785547 0.44153 0.0565414
5389 1 0.791177 0.432403 0.0412708
20079 1 0.790801 0.434939 0.0425101
9680 3 0.80963 0.430053 0.0523071
9681 1 0.809561 0.434529 0.059203
7 1 0.812452 0.442567 0.0311892
19329 1 0.815167 0.442609 0.0320676
19328 3 0.822636 0.443184 0.0342729
13688 3 0.833441 0.441836 0.04868
13687 1 0.828575 0.44289 0.0426693
19327 1 0.826905 0.443221 0.0406602
13689 1 0.840803 0.437576 0.0498561
78 1 0.843509 0.435846 0.0502393
76 1 0.854946 0.4228 0.0525579
114 1 0.851145 0.447104 0.0347107
77 3 0.849785 0.429427 0.0502681
17002 1 0.851473 0.448176 0.038127
17003 3 0.852305 0.451461 0.0454336
17004 1 0.850496 0.449464 0.0532215
18943 1 0.893961 0.430436 0.0433522
18944 3 0.8895 0.435614 0.0397214
18945 1 0.883281 0.441122 0.0378633
487 1 0.881241 0.443221 0.0373119
488 2 0.877304 0.450437 0.035664
20160 1 0.930153 0.422225 0.0417432
5263 1 0.918921 0.435576 0.0333099
20158 1 0.920626 0.433622 0.0344175
20159 3 0.926219 0.427873 0.0370903
5203 1 0.948299 0.443423 0.0393048
5204 2 0.943378 0.441179 0.0336122
14602 1 0.749908 0.476548 0.0531378
5187 1 0.722588 0.455928 0.030728
12058 1 0.747093 0.458964 0.0568204
14604 1 0.747487 0.46149 0.0557206
14603 3 0.750394 0.468351 0.054057
5823 1 0.750116 0.479199 0.0523746
16643 3 0.770287 0.45609 0.0545387
16642 1 0.771144 0.455136 0.0457854
9021 1 0.771214 0.454871 0.043072
9020 3 0.773643 0.453945 0.0361281
2525 3 0.7745 0.477679 0.0475729
2524 1 0.775849 0.481487 0.0534818
13307 3 0.798137 0.464946 0.0308882
13308 1 0.795353 0.464101 0.0381483
18427 1 0.794196 0.464297 0.0415427
18428 3 0.792768 0.465511 0.0491752
18429 1 0.790488 0.464834 0.0564408
8350 1 0.78985 0.463967 0.0590968
1229 3 0.812222 0.453474 0.0541259
2526 1 0.782786 0.481167 0.0440367
6110 3 0.837916 0.461817 0.0324829
10718 3 0.81998 0.464165 0.0407954
1228 1 0.812873 0.458782 0.0605367
10717 1 0.816067 0.459565 0.0464546
1230 1 0.815003 0.457729 0.0488364
10719 1 0.826999 0.462626 0.0371925
6109 1 0.830252 0.462855 0.0358336
3827 3 0.822657 0.481463 0.0531141
3826 1 0.826358 0.476334 0.0580238
10019 3 0.843206 0.47592 0.0480574
10020 1 0.838003 0.47013 0.0488768
5157 1 0.827694 0.474512 0.0603351
489 1 0.874718 0.455537 0.0306823
5821 1 0.747213 0.490583 0.045091
10752 1 0.745582 0.491825 0.0431127
10751 3 0.741604 0.495377 0.0364081
13749 1 0.755478 0.507415 0.0513644
5822 3 0.75126 0.486818 0.0506192
8486 3 0.778541 0.5038 0.0434191
8485 1 0.770825 0.50567 0.0438688
13747 1 0.767961 0.506618 0.0445192
13748 3 0.760137 0.507117 0.0450758
562 1 0.776908 0.48303 0.0558086
21095 3 0.790682 0.485435 0.0383534
20370 1 0.803662 0.510106 0.0473339
8487 1 0.786134 0.505528 0.0435633
20368 1 0.789091 0.506358 0.0443916
4553 3 0.807772 0.49257 0.0358693
3982 1 0.798622 0.496321 0.0555726
21094 1 0.785142 0.48219 0.0424903
21096 1 0.798015 0.489124 0.0377376
4554 1 0.800626 0.490141 0.037004
20369 3 0.796526 0.508712 0.0451812
3983 3 0.802584 0.490403 0.0571492
563 3 0.782415 0.486246 0.0604931
3984 1 0.810039 0.489362 0.0576616
8790 1 0.806521 0.510831 0.0478087
3072 1 0.822031 0.507841 0.0501787
6639 1 0.825641 0.485756 0.0431304
6638 3 0.828708 0.487889 0.0353566
3828 1 0.82482 0.484815 0.0458484
4552 1 0.812444 0.485721 0.034107
966 1 0.843065 0.500727 0.0419698
3071 3 0.828596 0.504284 0.0489737
8788 1 0.820058 0.509246 0.0504512
3070 1 0.832513 0.50108 0.0430411
10018 1 0.845376 0.483246 0.045421
964 1 0.846015 0.485975 0.0452252
965 3 0.846435 0.494106 0.0449573
12024 1 0.775741 0.420948 0.0645184
12022 1 0.787572 0.414008 0.0727268
15384 1 0.789254 0.411769 0.0745904
15382 1 0.797092 0.399952 0.0768738
15383 3 0.793534 0.405712 0.0795473
12023 3 0.782984 0.419393 0.0679568
6624 1 0.866075 0.411277 0.0616509
6075 1 0.86782 0.40985 0.0641421
6074 2 0.872685 0.406247 0.070788
6073 1 0.877503 0.399808 0.0690225
12060 1 0.740868 0.444113 0.0643421
4389 1 0.757433 0.430863 0.0655343
4388 3 0.764868 0.431784 0.0622675
13150 1 0.774907 0.431867 0.0868668
13151 3 0.779435 0.435304 0.0810649
3259 1 0.773099 0.430956 0.0890766
11809 1 0.781167 0.439337 0.0718475
13152 1 0.780657 0.438281 0.0743391
6626 2 0.764371 0.451471 0.0737167
6625 1 0.757988 0.44881 0.0766081
11810 3 0.783387 0.441435 0.0641994
12259 1 0.795691 0.43727 0.0796059
10569 1 0.790086 0.450821 0.0825746
12261 1 0.792162 0.44886 0.0810895
12260 3 0.798515 0.445097 0.0787072
16644 1 0.768341 0.453524 0.0621926
6627 1 0.767201 0.453217 0.0651833
8351 3 0.787379 0.462437 0.0669828
8352 1 0.782838 0.460592 0.0740817
9479 3 0.811494 0.459378 0.0872
9478 1 0.811538 0.462187 0.0803673
16741 1 0.811624 0.46263 0.0772534
10567 1 0.781864 0.462137 0.090311
10568 2 0.785783 0.455966 0.0864239
16743 1 0.812817 0.460713 0.0629845
16742 3 0.81269 0.464711 0.0700766
5155 1 0.833355 0.467716 0.0719972
5156 3 0.832257 0.470655 0.0657873
11623 1 0.792737 0.487125 0.0848965
678 1 0.792814 0.487302 0.0820733
677 2 0.792832 0.488094 0.0747934
564 1 0.786816 0.487592 0.066589
676 1 0.788953 0.48777 0.0685762
16374 1 0.831569 0.508132 0.0686546
16373 3 0.824848 0.504533 0.0715142
2401 1 0.833908 0.509955 0.0673909
16372 1 0.817881 0.5039 0.0672481
3260 2 0.767575 0.428389 0.0951278
3261 1 0.761525 0.422547 0.0945576
15989 2 0.775004 0.470307 0.0941832
15990 1 0.780149 0.464409 0.0915261
15988 1 0.76802 0.472052 0.0957341
9480 1 0.811093 0.46337 0.0943049
9717 1 0.810617 0.465558 0.0970648
9716 3 0.811419 0.470641 0.102509
9715 1 0.813183 0.471271 0.109414
11624 2 0.791865 0.487465 0.0936093
11625 1 0.790175 0.488613 0.100856
20001 1 0.710447 0.449623 0.804784
15726 1 0.905265 0.446945 0.816633
8614 1 0.897902 0.424479 0.817014
15725 3 0.911823 0.446302 0.810912
15724 1 0.915569 0.450607 0.807111
8615 2 0.906277 0.423968 0.816879
20000 3 0.709601 0.4528 0.810497
16307 2 0.897935 0.467108 0.805392
16308 1 0.894113 0.466386 0.798407
16306 1 0.906861 0.468935 0.807429
8890 1 0.919325 0.469694 0.808293
19488 1 0.916547 0.453144 0.805519
19487 3 0.919734 0.46013 0.802674
19486 1 0.91934 0.467286 0.806511
8891 2 0.918529 0.476668 0.812998
20292 1 0.878671 0.510537 0.816971
19554 1 0.88133 0.509428 0.815972
19552 1 0.895085 0.504833 0.812152
9106 1 0.897792 0.503722 0.811616
9107 2 0.904768 0.500888 0.809542
19553 2 0.887821 0.507788 0.812408
9108 1 0.902093 0.493889 0.813702
15712 1 0.901047 0.492181 0.814741
20593 1 0.932552 0.507733 0.810439
14193 1 0.931601 0.506713 0.813395
9314 3 0.838278 0.389574 0.842717
9315 1 0.845764 0.384648 0.842617
13565 2 0.808918 0.410216 0.835794
13566 1 0.807409 0.411716 0.844543
20145 1 0.796355 0.416958 0.842601
921 1 0.807081 0.411896 0.84717
9313 1 0.831582 0.393023 0.839779
16890 1 0.833862 0.413091 0.840925
16888 1 0.819915 0.41089 0.837918
13564 1 0.817006 0.4105 0.837282
16889 3 0.826743 0.410475 0.839886
19204 1 0.894596 0.408841 0.84017
19205 3 0.895121 0.416394 0.842524
20235 1 0.744716 0.447455 0.846587
17215 1 0.768648 0.430559 0.838019
17216 2 0.773125 0.432992 0.844376
15796 1 0.801238 0.427845 0.833927
20144 2 0.793447 0.422903 0.841014
20143 1 0.798847 0.426305 0.835934
15797 2 0.807199 0.430881 0.829509
15798 1 0.812489 0.431493 0.837293
3970 1 0.8141 0.43159 0.839685
3971 3 0.817132 0.430562 0.84699
11069 3 0.839823 0.451366 0.831706
5887 1 0.838116 0.431144 0.846902
5888 3 0.839919 0.436985 0.841355
11070 1 0.839818 0.446261 0.836539
5889 1 0.840116 0.444022 0.837595
1269 1 0.890991 0.444882 0.832986
4642 1 0.89192 0.44534 0.830331
4644 1 0.902697 0.446962 0.818198
4643 2 0.895314 0.446235 0.822991
1268 2 0.888616 0.442916 0.841344
19206 1 0.895849 0.423559 0.839654
1267 1 0.892214 0.440468 0.847597
498 1 0.915881 0.440308 0.835547
13072 1 0.916721 0.442882 0.837044
497 2 0.912568 0.433738 0.831206
8616 1 0.908885 0.428426 0.822319
496 1 0.909623 0.429521 0.824561
13073 2 0.918962 0.448825 0.842313
19999 1 0.711343 0.453547 0.819303
9546 1 0.712122 0.454181 0.821972
14631 1 0.717438 0.455222 0.838436
9545 2 0.712385 0.456504 0.829749
9544 1 0.716143 0.455648 0.836107
14630 2 0.720007 0.453564 0.845922
11068 1 0.843478 0.455215 0.827079
13451 2 0.890219 0.481048 0.835127
13450 1 0.887531 0.476176 0.840692
2991 1 0.899241 0.467874 0.826605
21367 1 0.886787 0.474259 0.842869
21368 2 0.885563 0.468008 0.847793
2990 2 0.906617 0.467851 0.830345
13074 1 0.920515 0.456172 0.843584
6603 1 0.921411 0.459229 0.844525
6602 2 0.923953 0.465563 0.847505
2989 1 0.912665 0.463096 0.828532
8892 1 0.918055 0.480673 0.820026
15845 2 0.944164 0.455222 0.847717
13388 2 0.946221 0.471377 0.83272
15846 1 0.945604 0.461513 0.843625
20797 1 0.953082 0.461973 0.830725
13387 1 0.950818 0.464536 0.830558
13389 1 0.941173 0.475538 0.835967
20798 2 0.957595 0.456227 0.831562
5641 1 0.939667 0.477108 0.83679
10973 2 0.966475 0.462101 0.847192
10972 1 0.96241 0.459631 0.840193
20799 1 0.961043 0.458834 0.837721
13176 1 0.851283 0.496198 0.82633
13175 2 0.85345 0.501769 0.832683
13174 1 0.860964 0.50132 0.835593
11509 1 0.863547 0.501633 0.836401
11510 2 0.870769 0.501317 0.838165
13452 1 0.892446 0.483032 0.827991
15714 1 0.893678 0.483612 0.825604
15713 2 0.896895 0.486067 0.818577
11511 1 0.878105 0.502426 0.835823
8334 1 0.881208 0.502399 0.834606
8332 1 0.892513 0.510115 0.830695
8333 2 0.889419 0.503326 0.83226
4516 1 0.904809 0.488949 0.846992
19684 1 0.904978 0.491786 0.846405
19685 2 0.905421 0.498362 0.845881
6531 1 0.934254 0.508656 0.828871
5661 1 0.917511 0.482512 0.822397
14192 2 0.928461 0.504346 0.820636
14191 1 0.932502 0.507665 0.826547
3309 1 0.925946 0.504397 0.844213
5659 1 0.912531 0.494466 0.828234
5660 2 0.916521 0.487238 0.828653
3308 2 0.929845 0.498636 0.847662
5643 1 0.931657 0.489255 0.842919
3307 1 0.930704 0.491731 0.844326
5642 2 0.934764 0.482811 0.839745
12063 1 0.924688 0.506881 0.842508
15136 1 0.954927 0.494132 0.844573
12910 1 0.956116 0.491885 0.8459
15137 2 0.951886 0.49968 0.840172
15138 1 0.946832 0.504694 0.836547
6529 1 0.944865 0.506273 0.835785
6554 3 0.999557 0.485115 0.831362
20563 1 0.99074 0.487282 0.837357
6555 1 0.993425 0.486647 0.835634
5893 1 0.978557 0.498019 0.84378
20565 1 0.979869 0.495552 0.842487
20564 2 0.98302 0.489099 0.840648
5894 2 0.975082 0.503474 0.847375
6895 1 0.759146 0.32372 0.871567
5884 1 0.76056 0.323094 0.869335
5885 2 0.766465 0.321683 0.863042
5886 1 0.772333 0.316717 0.860423
6896 3 0.755412 0.325679 0.877448
10666 1 0.804892 0.382535 0.866839
10667 2 0.8096 0.380417 0.873056
10445 3 0.832149 0.370769 0.877482
10446 1 0.835362 0.37591 0.871325
15403 1 0.836421 0.378395 0.869816
15404 3 0.839013 0.384462 0.865206
18877 1 0.825267 0.390979 0.856933
18879 1 0.819574 0.390977 0.868758
10668 1 0.814104 0.384488 0.877594
2665 1 0.740086 0.420349 0.877478
129 1 0.776188 0.419223 0.87824
920 3 0.807699 0.411712 0.855593
919 1 0.80661 0.411442 0.863681
11752 1 0.806976 0.410508 0.866483
11753 3 0.805832 0.407898 0.873652
18878 3 0.821011 0.394337 0.861696
15405 1 0.839279 0.393156 0.863382
10867 1 0.839641 0.396213 0.862612
10869 1 0.838229 0.412602 0.85852
11481 1 0.837785 0.416059 0.857598
10149 1 0.825169 0.420598 0.872273
9249 1 0.826871 0.418693 0.873543
9248 3 0.832718 0.414037 0.877232
10868 3 0.840479 0.404151 0.860365
16178 3 0.857652 0.395385 0.872216
15668 3 0.8546 0.418537 0.874363
16177 1 0.864389 0.397583 0.866637
16179 1 0.852298 0.392602 0.878315
11041 1 0.922532 0.419886 0.858039
16779 1 0.735872 0.431504 0.850115
20342 3 0.731617 0.42827 0.876199
16778 2 0.736364 0.431194 0.858756
16777 1 0.734462 0.43141 0.866666
20343 1 0.733849 0.431201 0.869696
20341 1 0.737611 0.422465 0.877078
386 3 0.736 0.448376 0.87498
674 3 0.724187 0.445732 0.862145
675 1 0.728894 0.446806 0.867216
387 1 0.730857 0.447164 0.869589
14629 1 0.721827 0.451005 0.852632
673 1 0.722233 0.449559 0.855334
17217 1 0.770725 0.435926 0.850868
19678 1 0.769871 0.437178 0.853789
19679 3 0.767486 0.441016 0.860255
19680 1 0.768593 0.448758 0.863551
21489 1 0.7692 0.45154 0.864951
128 3 0.779518 0.426077 0.876467
2471 3 0.794466 0.426225 0.864975
2470 1 0.801586 0.426678 0.86174
17455 1 0.796025 0.44868 0.862638
17456 3 0.789596 0.446491 0.868348
7132 1 0.79797 0.449765 0.860707
17457 1 0.786227 0.446349 0.875342
7133 3 0.802781 0.451377 0.854677
2472 1 0.788074 0.426225 0.870003
127 1 0.785727 0.425938 0.872415
15841 1 0.785029 0.446191 0.877545
18263 3 0.807857 0.438912 0.876136
3972 1 0.81419 0.424996 0.852552
11480 3 0.835614 0.423971 0.85464
11479 1 0.837724 0.429355 0.848786
10148 3 0.819928 0.426985 0.868687
10147 1 0.815476 0.432089 0.871206
18262 1 0.813649 0.434181 0.872533
15667 1 0.85795 0.424169 0.868628
2868 1 0.859472 0.426582 0.866446
2867 3 0.86233 0.432351 0.862058
2866 1 0.863564 0.440429 0.861727
3195 1 0.864227 0.443291 0.862004
3194 2 0.865596 0.451346 0.8622
13313 3 0.847883 0.439369 0.876269
3786 1 0.848383 0.44937 0.870942
13314 1 0.848064 0.446012 0.872358
20229 1 0.888094 0.4252 0.873952
4730 2 0.879674 0.451452 0.8775
4989 1 0.900075 0.434732 0.862472
19732 1 0.902943 0.43606 0.862084
17235 1 0.884835 0.451831 0.869215
17234 2 0.888812 0.45166 0.863034
4731 1 0.883435 0.451795 0.871673
4987 1 0.8928 0.42249 0.86127
4988 2 0.89369 0.429823 0.862486
5180 2 0.937017 0.437374 0.850384
19733 2 0.909196 0.43998 0.86116
11042 2 0.925001 0.424928 0.852414
11043 1 0.929407 0.430963 0.851991
5179 1 0.931279 0.433134 0.851796
19734 1 0.914649 0.445207 0.862704
1663 1 0.916593 0.447204 0.863906
5181 1 0.939511 0.445702 0.848663
15844 1 0.940777 0.44853 0.848494
449 2 0.955793 0.436373 0.865057
448 1 0.961862 0.432646 0.862869
450 1 0.950669 0.441815 0.867068
4365 1 0.965505 0.423653 0.877239
273 1 0.967468 0.425376 0.875557
272 2 0.973366 0.430258 0.871341
271 1 0.97855 0.435976 0.870609
6841 1 0.980332 0.438197 0.870244
6842 2 0.985868 0.444743 0.870997
3125 3 0.689076 0.479889 0.864147
3124 1 0.69562 0.479873 0.866572
16234 1 0.69845 0.479739 0.868038
16235 3 0.705671 0.478193 0.873057
385 1 0.74265 0.453062 0.877372
3226 1 0.744475 0.454344 0.878134
15959 3 0.747122 0.467957 0.862587
15960 1 0.74561 0.472553 0.869583
15958 1 0.745212 0.461448 0.858197
8260 1 0.727321 0.474391 0.87435
13518 1 0.727639 0.475843 0.871756
13517 3 0.729685 0.480035 0.863997
5760 1 0.745572 0.474917 0.872166
20233 1 0.744632 0.458451 0.856426
20234 3 0.743052 0.452204 0.85268
5759 3 0.747157 0.479476 0.878646
21488 3 0.771264 0.458247 0.869254
21487 1 0.772481 0.463163 0.876152
17389 1 0.772283 0.46489 0.878607
3331 1 0.799134 0.480505 0.848629
9115 1 0.807415 0.461695 0.855261
7134 1 0.80566 0.458848 0.854907
9116 2 0.810811 0.469533 0.856984
18256 1 0.801946 0.469009 0.877822
18258 1 0.792353 0.463073 0.867599
18257 3 0.79431 0.468603 0.874809
9117 1 0.812958 0.476158 0.858634
11584 1 0.814363 0.479035 0.859601
11189 3 0.826413 0.455515 0.873095
11188 1 0.827635 0.46245 0.869859
18171 1 0.82837 0.464923 0.86837
18170 2 0.831754 0.471181 0.864725
21436 1 0.834329 0.481409 0.866995
18169 1 0.833563 0.478428 0.866476
2573 2 0.852568 0.475787 0.866244
2572 1 0.847278 0.480991 0.867302
3193 1 0.863025 0.459349 0.860126
2574 1 0.849485 0.468041 0.866607
3784 1 0.848732 0.465422 0.867074
3785 3 0.847105 0.457507 0.868984
4517 2 0.905006 0.480188 0.849247
21369 1 0.883703 0.468532 0.855981
19216 1 0.883006 0.468776 0.859217
19217 2 0.88107 0.470942 0.867115
17233 1 0.894655 0.455183 0.860957
19879 1 0.897445 0.457022 0.860022
14258 2 0.902806 0.47807 0.870289
19881 1 0.904285 0.469832 0.852586
19880 2 0.903916 0.461971 0.856895
4518 1 0.90461 0.472525 0.851782
19218 1 0.88208 0.470652 0.874592
14259 1 0.903956 0.470749 0.874102
18696 1 0.882542 0.470957 0.877402
1163 2 0.904415 0.460292 0.877792
1162 1 0.90414 0.468065 0.874956
6601 1 0.924578 0.468853 0.854619
13083 1 0.923942 0.46999 0.857949
13082 2 0.922735 0.472959 0.864119
1664 2 0.922731 0.452126 0.867647
1665 1 0.929633 0.456417 0.868237
9837 1 0.933064 0.457473 0.868908
13081 1 0.922756 0.480557 0.866991
9836 2 0.941535 0.458647 0.870611
9835 1 0.949187 0.460742 0.868915
7269 1 0.962671 0.463039 0.858394
10974 1 0.964183 0.462296 0.855032
7267 1 0.9517 0.461475 0.868247
7268 2 0.9586 0.464658 0.86536
4447 1 0.941771 0.475755 0.863071
6843 1 0.984622 0.452513 0.869184
1803 1 0.984532 0.45567 0.86822
1801 1 0.985505 0.471782 0.865634
1802 2 0.984057 0.463193 0.864942
20437 1 0.66614 0.48719 0.852305
20438 2 0.673347 0.488971 0.856366
20439 1 0.679528 0.484264 0.859921
3126 1 0.682236 0.483235 0.861283
13516 1 0.729837 0.483063 0.85669
13208 3 0.747525 0.501395 0.870875
13209 1 0.742923 0.501993 0.877404
20687 3 0.776241 0.507911 0.868708
20688 1 0.770983 0.506684 0.863244
13207 1 0.753846 0.502794 0.864978
7536 1 0.755883 0.503183 0.863097
7535 2 0.761973 0.505593 0.85853
11336 3 0.777794 0.489051 0.862526
11335 1 0.76973 0.488571 0.863058
7534 1 0.768875 0.506367 0.861492
15706 1 0.786248 0.512017 0.868151
3333 1 0.786432 0.485867 0.857517
3332 3 0.793791 0.484572 0.852995
11337 1 0.783851 0.486757 0.858674
9309 1 0.802963 0.51067 0.872071
9308 3 0.811158 0.507137 0.875352
15708 1 0.800262 0.511626 0.870668
20686 1 0.783325 0.510964 0.868275
21437 3 0.834889 0.488311 0.86867
11586 1 0.823926 0.488031 0.864923
21438 1 0.826967 0.488196 0.865915
11585 2 0.816558 0.487012 0.861464
12223 1 0.844881 0.509398 0.85567
52 1 0.847171 0.507733 0.855825
53 2 0.853513 0.502851 0.855255
54 1 0.859612 0.497588 0.855102
2346 1 0.861941 0.495649 0.85536
2345 2 0.868011 0.490881 0.855923
19277 2 0.875718 0.49376 0.875354
18423 1 0.892937 0.495509 0.855107
2344 1 0.875321 0.493997 0.854339
18421 1 0.87826 0.49513 0.854045
18422 2 0.886011 0.497267 0.853199
14257 1 0.901724 0.485091 0.871401
4942 1 0.901178 0.487745 0.872343
19278 1 0.881207 0.488952 0.872553
4944 1 0.897023 0.501729 0.877361
4943 2 0.898809 0.495583 0.873281
773 2 0.916209 0.507605 0.858352
774 1 0.922151 0.509846 0.863784
772 1 0.912248 0.504393 0.851681
19686 1 0.910167 0.502989 0.849928
7893 1 0.922839 0.482965 0.86814