ITEM: TIMESTEP
35000000
ITEM: NUMBER OF ATOMS
507
ITEM: BOX BOUNDS pp pp pp
0.0000000000000000e+00 5.0000000000000000e+01
0.0000000000000000e+00 5.0000000000000000e+01
0.0000000000000000e+00 5.0000000000000000e+01
ITEM: ATOMS id type vx vy vz 
2372 3 -1.38619 0.488965 -2.61205 
2373 1 1.44542 1.29084 -0.402586 
14457 1 -5.45641 -1.77786 2.31017 
14456 2 -2.77336 1.88433 4.19541 
18889 1 0.962756 -3.86114 -8.00117 
2371 1 -3.09322 -4.4395 3.543 
12808 1 0.745764 1.98284 2.44367 
12683 2 -1.91561 0.476458 -1.96361 
5085 1 1.89904 -2.15701 -2.82436 
5084 2 -0.841699 -4.02923 0.0961856 
12809 2 -2.73898 1.05396 1.44813 
12810 1 2.51275 0.0012346 1.92976 
4133 2 -0.23139 1.79423 -0.650208 
4134 1 -1.77549 2.01042 4.67829 
12684 1 0.182481 -2.59116 -3.2922 
14355 1 -0.918485 -2.03807 7.09123 
4132 1 -2.85917 2.4333 3.90284 
14354 2 -4.30303 -0.478082 0.710341 
14455 1 2.89728 4.04676 3.51932 
941 2 5.27063 -2.67679 2.40171 
942 1 2.83876 1.6968 0.921496 
4096 1 -3.43263 -0.138756 -0.603602 
19423 1 0.089015 4.8781 1.5504 
4098 1 -0.677157 4.35961 4.35194 
4097 2 -0.530615 -0.280066 1.91155 
19424 2 -5.83278 0.666824 -0.518549 
17522 2 2.12982 3.34963 -4.4145 
12279 1 0.525569 4.9969 2.40159 
17521 1 1.22068 2.83898 0.922224 
17523 1 -2.89768 4.92017 -8.17257 
5169 1 2.17586 -3.21227 2.32005 
7890 1 2.06101 -1.28388 -0.111228 
7121 2 -2.22654 -1.41212 -1.56851 
7122 1 -0.831695 -3.7989 -5.19627 
12682 1 0.385252 2.01075 2.78127 
7120 1 -7.41818 6.08258 -4.08819 
13804 1 5.80624 0.211777 -2.13218 
951 1 -1.7908 -3.21069 -1.43072 
17629 1 3.12427 -3.14618 -3.24867 
8584 1 -0.679311 0.580114 1.39597 
11352 1 -1.12401 2.24206 -7.37375 
17631 1 -4.98467 -4.42551 -0.624527 
11355 1 3.3474 -0.934647 -0.815442 
15464 2 2.2672 -0.121996 0.390562 
17630 2 1.58461 -2.39657 -2.29547 
950 2 1.69273 -4.18644 4.015 
949 1 0.237899 -0.12714 0.467207 
11799 1 7.59585 3.9536 -1.03034 
11798 2 -1.0987 3.57477 0.239031 
11797 1 -2.69168 8.74835 -3.47732 
7206 1 0.945014 3.45364 3.12597 
7205 2 -2.49898 3.21179 -0.68713 
12647 2 -1.64279 -1.27924 -1.30319 
18445 1 -1.04799 -1.93672 -5.11896 
18446 2 2.49347 -1.22755 0.284233 
7888 1 -0.859069 4.42174 3.15577 
7738 1 4.5179 0.218062 3.42698 
7740 1 -0.615522 -1.08736 2.78487 
7739 2 3.00746 -1.40685 -3.24994 
7889 2 -2.6362 -0.482134 1.09179 
8586 1 -1.62007 -0.266524 0.151141 
12903 1 0.94483 3.6268 -0.631639 
8585 2 0.117377 0.772348 -0.988156 
1624 1 -0.650388 -0.13955 -0.582835 
1625 2 -0.598394 1.10313 -1.39142 
1626 1 -4.91021 1.9947 3.18983 
3943 1 -0.57326 -7.24414 5.822 
3944 2 1.8381 -3.54936 -3.37844 
12648 1 1.71668 -4.71053 -8.63778 
2880 1 -1.23617 2.34701 -0.0071129 
2879 2 -2.23099 4.16766 -3.58972 
2878 1 -4.30262 7.84772 1.20319 
15721 1 2.49461 1.7428 -0.207756 
15722 2 0.845557 -4.94963 4.33908 
18265 1 1.83406 -2.42717 -2.85001 
20061 1 -0.709042 -0.167369 -2.0036 
20060 2 3.71233 1.91105 -4.76117 
20059 1 -0.926389 -4.43962 1.40445 
8263 1 2.94325 -6.33555 -2.23623 
6431 2 0.175634 0.388811 -3.19546 
13911 1 2.94935 -4.23948 -5.09734 
13910 2 -4.33318 4.25471 2.30661 
13909 1 2.73985 -6.38464 3.46598 
1338 1 -7.52295 0.794376 1.15373 
1337 2 -2.87357 0.989825 -2.90974 
19232 2 1.69238 -1.97794 -1.17527 
19231 1 -0.671587 -3.83608 3.7787 
17095 1 -0.40226 -4.42782 0.400772 
17096 2 -2.66706 2.00893 -0.0027858 
19233 1 2.20572 3.47602 -1.94724 
18266 2 1.05335 0.723609 0.293091 
18267 1 -0.267087 -1.23295 4.0265 
6421 1 -7.58657 2.27849 -5.93121 
6422 2 -2.29809 0.37068 -3.06216 
6423 1 2.62243 6.30217 0.603515 
5675 2 -2.66437 1.60878 -3.04558 
5674 1 0.310534 2.38903 -0.731846 
4657 1 -2.98332 -0.852874 -3.82753 
14783 2 0.948661 2.10427 -2.0433 
5676 1 -2.21996 3.81351 -2.7121 
19071 1 -1.40652 3.62123 3.48384 
10754 2 -1.59319 3.01244 1.68797 
19069 1 -1.14498 0.763038 4.81225 
10753 1 -1.85231 -3.6973 0.91925 
19070 2 -1.59317 -0.327354 1.24354 
14344 1 -7.59109 -1.19082 8.11215 
21280 1 1.9422 3.38649 1.72089 
14345 2 0.913604 0.90301 -1.22517 
14782 1 -4.35349 -5.97359 0.336809 
14346 1 8.42882 -1.25031 1.67117 
4658 2 -4.38078 -0.481091 1.0848 
4659 1 2.99102 -8.3451 2.44002 
12802 1 -3.18569 -2.44321 0.584012 
18891 1 2.92476 -1.31248 -1.77472 
12804 1 6.17274 4.41146 -6.63486 
1257 1 0.181585 7.20702 -2.60789 
1256 2 2.10884 1.50441 -0.328651 
12803 3 -2.48369 -0.200605 3.25128 
18890 3 2.99408 0.934262 2.51496 
3584 3 0.827246 1.03603 -1.21359 
3583 1 -2.95159 -1.07929 -0.214003 
3585 1 -1.36265 3.76218 -6.04466 
21169 1 3.14452 2.2075 -3.51129 
8925 1 1.33669 -4.90306 -2.90157 
8924 2 1.68223 -4.04044 2.41196 
8923 1 8.97907 2.67663 -2.77715 
1255 1 -0.531017 -2.85495 1.54643 
21170 2 -4.40944 -0.400851 0.307966 
21171 1 0.723574 -0.35387 2.99656 
17525 2 -1.11796 -1.28424 -4.26714 
17526 1 -1.78252 -4.04122 -0.0755598 
7326 1 1.27662 2.62543 0.754724 
7325 2 2.34327 1.13501 0.696926 
940 1 -1.12569 -0.293024 -0.276418 
7324 1 -2.31498 -0.088561 6.54098 
18530 2 0.427229 -0.765617 1.46111 
18529 1 -4.06699 0.951052 -2.83972 
18531 1 -1.87402 -4.95852 -3.40413 
12277 1 -1.20494 2.53235 -2.29969 
12278 2 3.06738 1.93302 3.7305 
11545 1 -1.8728 1.22678 -0.13975 
20685 1 -3.13116 0.537596 5.52815 
13134 1 4.18947 -3.40061 -1.60609 
13132 1 0.580286 -3.03918 -1.50269 
18312 1 -5.57399 -6.12782 1.11319 
18310 1 -4.49441 -2.39259 4.20983 
18311 2 -1.07024 -2.0808 0.650646 
13133 2 1.23803 -4.00649 -3.07308 
13805 2 -1.65301 -3.52057 0.651406 
3317 2 4.07183 0.764848 -2.85076 
17524 1 2.38865 2.25451 -3.95352 
3318 1 4.10774 1.76741 4.78027 
3316 1 -2.43904 6.16379 -1.74149 
15463 1 -0.154416 -1.76035 1.31599 
16608 1 4.70494 4.30766 0.24097 
11351 2 0.399838 -4.34195 1.48843 
16607 2 -0.721126 1.52497 -1.68689 
11350 1 1.83777 4.55333 0.528264 
16606 1 -2.86233 -1.95228 -4.05897 
8088 1 -4.33748 -5.75369 -0.733892 
21120 1 2.85123 -5.80919 2.13867 
14500 1 5.35912 1.93548 -1.42259 
15465 1 -1.8291 -0.731885 7.0043 
14502 1 -1.71653 -1.30773 6.82846 
14501 2 -0.363545 1.27913 -5.33389 
21118 1 11.9905 0.735399 2.15339 
21119 2 3.37439 2.09966 -4.22662 
10665 1 -2.98109 -0.683231 0.65971 
7204 1 -3.85458 -1.60191 7.65897 
5493 1 1.14289 -2.13645 -1.46107 
5492 2 -0.745491 -2.23357 -1.07374 
10664 2 3.88915 2.00138 -4.46461 
9199 1 1.89492 2.87575 -1.26041 
9200 2 0.847452 -1.43475 1.12668 
1812 1 4.47694 -1.59633 -3.37285 
1811 2 -1.05749 -0.977853 4.18875 
5491 1 -5.87757 -1.93529 1.22744 
18090 1 0.966672 -3.76988 -0.10277 
1810 1 7.96495 8.61247 0.444325 
18089 2 3.15716 4.62112 1.01093 
8265 1 1.26213 -2.02599 3.51927 
11546 3 -1.11267 -6.30733 2.44136 
10419 1 8.37311 -2.99336 -2.16341 
20683 1 4.13392 5.59912 4.65718 
10418 2 0.264166 1.55664 2.22566 
11547 1 1.33367 -2.18782 2.22992 
10417 1 -2.67704 -3.95354 4.26807 
20684 3 -1.03531 1.09612 2.23514 
758 2 -1.02455 -0.030132 -0.425646 
759 1 4.6171 -4.45244 -2.84185 
16792 1 -5.47326 1.10293 7.29452 
16793 2 -0.783761 -3.51208 -4.81117 
16794 1 -6.16797 0.125238 3.58551 
13806 1 -1.52337 3.83674 1.89133 
21178 1 -7.57187 1.70302 3.75614 
2631 1 3.96167 -4.65625 0.283904 
21179 2 -2.53325 -0.624685 -1.81555 
21180 1 1.75099 1.35131 -0.0470657 
4497 1 3.49791 2.36372 2.38176 
2630 2 7.48359 -0.812479 -2.1155 
3945 1 -3.66702 0.0511424 -4.23842 
1867 1 -3.61834 3.1423 -0.920121 
10560 1 -0.365144 -0.078534 -7.40257 
1868 2 -2.08383 3.17181 -2.4352 
15982 1 -3.30526 -0.130644 -4.73299 
15983 2 -4.15602 -0.557632 -2.58118 
2629 1 0.908595 -1.01223 2.78805 
15984 1 -3.9004 -0.743681 4.56254 
9756 1 -3.67135 -2.49647 -4.58701 
15723 1 3.42598 6.62444 -2.93909 
10559 2 -0.978871 -6.60329 -3.77759 
15674 2 1.08657 -0.070589 -3.69676 
15673 1 1.11218 -1.20271 3.05997 
15675 1 -3.93777 4.79619 -5.49625 
10558 1 -6.98325 3.03418 -1.75329 
15801 1 -2.13503 -1.9672 0.688334 
10663 1 -1.31306 -2.31613 4.92017 
8264 2 4.20512 -1.34286 -0.229258 
18088 1 1.19271 0.509346 2.63979 
15799 1 -4.67694 -1.59782 0.258117 
15800 2 0.231837 3.83528 2.51697 
11776 1 -1.75934 0.735976 2.64069 
3016 1 0.00468941 2.66144 2.21877 
3017 2 2.57047 -1.40384 1.85308 
4496 2 0.84437 -5.3418 -2.00857 
11778 1 -2.28404 0.691366 -3.09355 
1336 1 1.10966 0.671247 -5.72144 
18822 1 -1.35967 -1.00639 1.99106 
17658 1 -1.07658 0.254619 -4.95632 
17657 2 -2.39776 -1.96234 -0.80109 
4495 1 4.58051 -0.138567 -1.26229 
12856 1 4.82298 2.00479 1.158 
12857 2 2.63675 2.73707 6.16107 
12858 1 -2.73259 -0.105953 1.32289 
11777 2 5.09205 2.45615 1.88161 
1869 1 -1.90847 2.24458 7.38027 
2005 1 2.08768 3.24667 5.03902 
2006 2 2.21427 -3.71226 -0.389765 
2007 1 -0.0632547 0.0969044 -2.03238 
13189 1 7.58466 1.64492 3.40775 
9755 2 3.47603 2.79613 3.27711 
20784 1 3.23019 3.44016 -0.867243 
20783 2 1.2298 -2.44763 1.61735 
17097 1 9.18162 -4.03555 -4.57987 
20782 1 1.39169 -2.44238 4.90011 
13970 2 2.31577 -4.57464 -0.405965 
18821 2 3.43154 -2.78035 -0.317694 
18820 1 0.31566 3.09613 -2.90513 
17656 1 1.17811 2.69803 2.93798 
5190 1 -0.993347 1.32879 -0.845797 
5189 2 2.02546 2.75733 1.49443 
5655 1 -4.95937 0.842341 -1.00217 
14784 1 4.84738 -0.527781 2.58627 
5654 2 -2.97499 5.29336 -3.45378 
5653 1 -1.87017 -0.848784 -0.951879 
13190 2 -2.38939 0.0611911 -3.99828 
10755 1 1.75249 4.14661 -5.13913 
13191 1 2.1768 1.29225 0.196186 
17877 1 -6.90696 3.62806 9.85397 
17876 2 -2.63135 0.125322 -0.839312 
8316 1 -2.15155 -2.31718 -3.33597 
8314 1 -0.0559074 2.2236 0.487495 
8315 2 -3.34189 0.732084 0.476514 
21033 1 -0.864656 3.00084 6.17171 
21032 2 -1.26031 2.47827 3.22781 
15833 2 0.135699 3.83724 -5.4361 
15834 1 1.24292 1.42507 0.359739 
17529 1 7.54465 -0.663611 4.85736 
8086 1 1.94595 2.90538 -0.858262 
15832 1 2.95811 1.61126 -0.21087 
17528 3 3.16185 0.893804 -0.0848802 
17527 1 -4.40881 -1.67556 -0.114914 
21031 1 2.32926 -1.42677 2.34835 
6813 1 -1.2987 0.842024 0.158106 
6812 3 2.17467 -5.95189 3.40111 
6811 1 1.97751 3.96344 3.26967 
4174 1 -3.67838 1.27229 0.741297 
4175 2 -2.79243 1.84834 1.4146 
8087 2 -0.296589 -2.19918 -1.86089 
2847 1 7.30977 -3.1836 -0.349946 
4563 1 -4.37992 -5.14876 1.96572 
2846 2 -4.40022 -2.95744 1.32513 
2845 1 1.47273 4.54117 -2.11019 
11254 1 2.0085 -1.49814 -2.09879 
11255 2 2.50167 -2.04988 -0.670988 
9201 1 -3.46272 0.141405 -2.73078 
11256 1 6.1352 2.6552 -3.45849 
19290 1 0.702689 2.10533 -8.14601 
15333 1 1.73642 -1.08618 2.14822 
4176 1 1.72231 2.39566 -4.42503 
19289 2 -1.6251 -0.25077 -1.71233 
19288 1 -8.44023 -3.02781 -0.828636 
15332 2 0.521413 -0.466917 1.74102 
11563 1 -0.343327 2.61186 -0.0501084 
4562 2 -1.07082 0.936667 -4.83984 
4561 1 -4.20612 3.68906 5.1666 
7756 1 1.67145 -2.71377 -0.044385 
7757 2 3.27026 2.02539 -1.11609 
7758 1 2.78083 -1.10855 2.38515 
19824 1 -0.475636 2.88507 4.26775 
9754 1 -9.3459 -1.11126 -3.01344 
19823 2 -1.05456 -0.247385 -2.26434 
19822 1 -2.35306 1.78568 4.65134 
20083 1 4.21262 -6.7391 7.81217 
19629 1 -2.0776 -6.2348 0.221445 
19628 2 2.1887 0.704701 -0.0835245 
19452 1 2.76482 -1.90884 -1.99642 
19627 1 -4.72828 0.423607 -1.66361 
19451 3 1.59057 1.04098 0.5025 
19450 1 -3.87977 2.24758 1.75361 
13836 1 1.4987 0.905093 -0.232384 
17419 1 -5.21794 1.15425 -2.35254 
17421 1 2.08591 -1.44434 4.23209 
17420 2 -4.83287 -2.55577 1.69205 
13835 2 0.893811 -4.05337 -2.04942 
13834 1 2.06805 -2.95495 0.995478 
15331 1 1.73045 -4.52451 3.52092 
13969 1 -6.34388 -4.25805 -1.93258 
20084 2 -0.104049 -1.12917 -1.32061 
20085 1 1.25936 -0.851395 -4.53607 
11926 1 -5.68356 3.67913 4.2935 
11927 2 1.26982 5.42436 -2.45578 
13971 1 2.63415 1.01765 -3.10399 
20428 1 -1.2929 0.142987 0.0953886 
11928 1 -0.374545 5.04428 3.2043 
12114 1 -2.00185 -11.6959 -2.00494 
12113 3 2.70086 3.10658 1.35811 
12112 1 -4.07039 0.207419 -5.91065 
5188 1 1.02528 2.50947 2.87666 
17875 1 -5.24375 1.07471 -1.12657 
21521 2 4.42454 1.85314 -0.815053 
21520 1 1.40427 -7.46677 -4.75707 
20430 1 1.18276 -4.68401 -1.81969 
20429 2 0.783396 0.842732 1.59972 
21522 1 -1.01017 -4.72573 -3.2142 
1926 1 3.71176 -8.74275 -3.55653 
1924 1 0.748507 8.74535 -7.2356 
1925 2 -0.0573338 -2.09815 -0.343771 
12976 1 -7.74213 3.06896 8.25832 
1632 1 -1.48453 7.44359 0.144101 
12977 2 0.739104 0.0333589 1.92435 
1631 2 -1.388 -0.649008 3.01783 
1630 1 6.02306 -3.07554 7.81471 
12533 2 -0.532558 -2.33811 -1.3382 
12532 1 3.68084 0.324279 -1.85592 
20488 1 -3.354 7.05813 -2.01374 
20489 2 -3.59676 1.43865 1.79036 
20490 1 4.62035 -2.83121 -4.19699 
10659 1 1.54467 -0.132534 -2.52662 
10658 2 3.61796 -4.4829 0.61667 
10657 1 0.0422543 0.307174 -3.22601 
2197 1 -5.56019 0.121012 -0.80787 
2198 2 6.83065 -0.440327 2.63248 
20358 1 -1.13463 5.64187 -3.23197 
5691 1 -1.60456 1.74308 -3.90312 
9317 2 -0.12341 2.39389 -0.36434 
9316 1 -2.49145 3.43148 4.79001 
12534 1 -3.59815 2.71764 -5.44352 
16835 2 -1.27929 1.26018 1.93615 
12978 1 1.11016 5.31862 -2.24357 
16836 1 1.32416 3.80139 0.273552 
12472 1 -3.76554 2.96225 -3.17444 
12474 1 -4.907 -3.36914 1.90553 
11353 1 0.404293 0.235212 6.23575 
12473 2 3.76213 -0.806569 -0.520083 
14353 1 5.28464 2.76004 -1.76984 
16141 1 3.43942 -4.02417 4.80222 
16142 2 -0.878773 0.548381 -0.163153 
2199 1 -10.2255 0.929398 4.14961 
16143 1 -2.39491 -2.36258 -0.143454 
13164 1 3.38146 -3.58457 -4.53816 
13163 2 1.85495 3.10406 1.96663 
19425 1 5.13873 -2.05142 2.76259 
11354 2 -1.74797 -0.615189 -1.46197 
12902 2 0.219094 -2.52129 -3.90417 
11762 2 -2.00175 -1.99538 -0.709978 
11763 1 3.87945 2.55449 -0.246414 
12646 1 3.42685 0.478908 2.38513 
13162 1 1.27925 -2.70633 0.38882 
20357 2 0.519652 0.92514 -0.676532 
20356 1 -0.701005 3.72529 0.542445 
11761 1 1.46522 9.45453 5.7858 
18447 1 -0.96594 0.975676 -0.0254984 
9536 2 0.0812654 1.50324 0.109754 
12901 1 2.97292 -4.28578 -0.392159 
9537 1 1.1673 -6.35832 0.269263 
4910 2 -7.06923 3.00716 0.948441 
5690 2 -2.52644 2.67242 -1.42703 
5689 1 -1.99454 2.01361 -3.26427 
9535 1 6.4911 -0.888022 -1.70954 
19291 1 4.00049 0.682827 0.299749 
4911 1 0.173061 0.572299 0.098818 
4909 1 0.966905 -4.54898 -1.42775 
10473 1 4.18357 -2.66703 5.40192 
10749 1 3.13411 1.18435 0.664944 
10472 2 -0.221453 -6.26441 0.589404 
10748 2 -2.40929 1.2588 -1.6005 
10471 1 -3.21703 -2.79413 -1.28225 
6430 1 -0.881495 -2.75712 -2.2705 
9318 1 -1.35103 -5.70403 3.06493 
8217 1 0.17661 0.841687 10.4181 
19292 2 2.53758 -4.12817 0.00838442 
10747 1 2.16434 0.755627 -0.0571017 
19293 1 -2.48302 0.879958 6.24388 
1833 1 1.08648 3.17094 -1.47914 
8216 2 1.92926 3.47109 -0.606456 
8215 1 -2.89795 -4.37642 0.369803 
21281 2 1.39589 -0.799843 -2.77012 
1832 2 -1.64785 -0.172504 0.177356 
1831 1 0.517181 1.21883 0.792467 
21282 1 0.2765 2.84992 -1.48738 
6049 1 -5.39677 5.4322 10.0324 
6505 1 -4.4272 -2.27483 0.645666 
6760 1 -2.46955 -6.48927 2.28466 
6506 2 2.96333 4.1587 1.21497 
6516 1 -1.75394 -3.3464 3.1121 
6515 2 -2.04282 3.65518 -3.78425 
6514 1 1.72761 -5.45837 3.02048 
6507 1 -1.41792 -0.250544 1.63892 
6050 2 -1.94882 -4.8392 3.55217 
20135 2 -0.761975 -1.06489 -0.645667 
20134 1 0.729481 -1.91163 -1.61556 
6762 1 -0.456025 -0.237617 3.02233 
6761 2 0.702522 -0.144765 1.04376 
20136 1 -3.66821 4.65551 1.3662 
11920 1 -3.47432 4.26201 2.18615 
5083 1 -1.20706 -5.58449 -0.0262429 
9382 1 5.66663 4.70351 5.78075 
9384 1 -1.26825 -5.36913 2.13892 
10381 1 -3.8764 0.13175 0.369073 
9383 2 -1.56414 -3.26636 5.11992 
6928 1 -3.41161 4.41183 1.68125 
11921 2 -1.23667 0.353361 3.04914 
10098 1 1.76752 -0.726413 -8.25984 
5167 1 -4.18386 -0.908222 1.90461 
11922 1 -1.75266 1.78456 4.60494 
5168 2 -0.382733 -1.05096 1.76725 
10097 2 0.183555 1.85969 0.320886 
10096 1 5.27509 -7.2168 -1.27964 
7594 1 -1.10139 0.179637 -0.574189 
7595 2 -1.61458 -0.351145 -3.84036 
7596 1 -1.5961 0.9482 -1.89597 
3018 1 0.500776 -4.34458 3.54678 
12554 2 -0.495947 -1.55825 -1.83067 
6432 1 -10.2475 0.87373 4.0402 
12555 1 5.26619 -4.40808 4.58978 
12553 1 0.171559 -2.57389 -0.668681 
15703 1 0.600656 3.92175 -0.546435 
18765 1 3.30458 2.98707 6.82507 
18764 2 -0.588435 -1.67877 -0.147202 
6929 2 2.71845 1.9065 -0.713484 
6930 1 -4.7779 1.90916 4.28765 
5485 1 1.86633 0.217876 -5.84173 
15704 2 0.132548 -4.84315 -2.22939 
15705 1 -0.361436 0.614826 -3.8921 
5486 2 -2.68253 1.75996 1.69274 
5487 1 -2.47754 -1.81534 -1.58169 
16531 1 1.50532 3.51245 -3.04642 
16532 2 2.51111 -1.76077 -2.39315 
18763 1 -2.44668 -3.96382 -2.04009 
4311 1 2.47204 -0.157486 -2.46333 
4310 2 1.44343 0.125019 -2.0216 
6871 1 0.26262 -5.67105 -1.2598 
757 1 -1.16335 -4.99683 -1.13437 
6872 2 0.35037 2.40176 2.48693 
6873 1 -3.79087 1.61715 -2.36221 
17148 1 -4.44658 5.20827 -2.16275 
17146 1 -6.98915 -1.97075 3.80172 
17147 2 0.368762 1.10355 6.00103 
21358 1 -4.81383 0.29834 2.14792 
21359 2 -2.12284 1.41527 -4.77025 
21360 1 2.40705 -7.46584 3.42425 
19179 1 0.709609 -1.84828 7.19785 
16533 1 -2.76069 3.25377 1.80222 
15059 2 -1.71033 0.342884 -2.5559 
15060 1 -6.18907 5.66109 -0.389871 
19178 2 -2.99838 -2.29923 1.0799 
19177 1 -4.04475 1.44015 -4.84138 
4309 1 3.9057 0.951794 3.82763 
18064 1 -9.43332 3.34256 3.09865 
11564 2 4.19034 -0.455366 -3.2472 
15058 1 -1.95698 -0.997263 5.35249 
18065 2 -2.08292 -2.31977 2.33767 
1621 1 1.48205 2.19741 -3.85831 
11565 1 2.03793 5.92034 1.94215 
1622 2 -1.83555 -0.9109 -3.24292 
18066 1 6.94928 -3.55532 2.58694 
1623 1 3.93414 -1.95338 -1.81775 
877 1 -4.66887 -1.34404 -0.387699 
5916 1 -3.02465 -0.627033 -0.45115 
5915 2 0.459693 2.38085 2.72793 
879 1 -0.755487 -2.55759 -3.18139 
878 2 -1.12043 0.223786 2.73173 
5914 1 -7.60618 0.385778 1.72226 
13250 2 1.17125 -1.57417 3.04606 
13249 1 2.50329 -2.25062 1.99459 
17299 1 -3.71609 -6.32208 3.32315 
16834 1 -5.57347 -5.87604 5.45852 
17300 2 -4.3884 -0.170695 -0.866221 
6051 1 -1.08117 3.39991 -0.907604 
17301 1 3.88523 4.05829 3.39142 
13251 1 -4.76617 1.54369 3.33569 
10382 2 -0.490518 -1.67201 0.408982 
5222 2 -1.38474 2.22172 -1.3312 
10383 1 -1.09062 -0.218643 -1.90623 
5223 1 3.6006 -1.01122 -0.659759 
5221 1 -1.03593 1.15086 2.40838 
