ITEM: TIMESTEP
0
ITEM: NUMBER OF ATOMS
1347
ITEM: BOX BOUNDS pp pp pp
0.0000000000000000e+00 5.0000000000000000e+01
0.0000000000000000e+00 5.0000000000000000e+01
0.0000000000000000e+00 5.0000000000000000e+01
ITEM: ATOMS id type 
4 1 
5 3 
6 1 
19 1 
20 3 
21 1 
25 1 
26 2 
27 1 
328 1 
329 3 
330 1 
1204 1 
1205 3 
1206 1 
1273 1 
1274 3 
1275 1 
1384 1 
1385 3 
1386 1 
1501 1 
1502 3 
1503 1 
1510 1 
1511 3 
1512 1 
1567 1 
1568 2 
1569 1 
1576 1 
1577 3 
1578 1 
1585 1 
1586 3 
1587 1 
1633 1 
1634 3 
1635 1 
2353 1 
2354 2 
2355 1 
2461 1 
2462 3 
2463 1 
2542 1 
2543 3 
2544 1 
3184 1 
3185 3 
3186 1 
3502 1 
3503 3 
3504 1 
3508 1 
3509 3 
3510 1 
4321 1 
4322 3 
4323 1 
4342 1 
4343 3 
4344 1 
4441 1 
4442 3 
4443 1 
4450 1 
4451 3 
4452 1 
4525 1 
4526 3 
4527 1 
4876 1 
4877 2 
4878 1 
5593 1 
5594 3 
5595 1 
5785 1 
5786 3 
5787 1 
5941 1 
5942 3 
5943 1 
5944 1 
5945 3 
5946 1 
5947 1 
5948 2 
5949 1 
6730 1 
6731 3 
6732 1 
6799 1 
6800 3 
6801 1 
7810 1 
7811 3 
7812 1 
7882 1 
7883 3 
7884 1 
7996 1 
7997 3 
7998 1 
8047 1 
8048 3 
8049 1 
8170 1 
8171 2 
8172 1 
8941 1 
8942 3 
8943 1 
10150 1 
10151 3 
10152 1 
10210 1 
10211 3 
10212 1 
10384 1 
10385 3 
10386 1 
10405 1 
10406 3 
10407 1 
10459 1 
10460 3 
10461 1 
11122 1 
11123 3 
11124 1 
11125 1 
11126 3 
11127 1 
11167 1 
11168 3 
11169 1 
11179 1 
11180 3 
11181 1 
11242 1 
11243 3 
11244 1 
11356 1 
11357 3 
11358 1 
12202 1 
12203 3 
12204 1 
12250 1 
12251 3 
12252 1 
12328 1 
12329 3 
12330 1 
12541 1 
12542 3 
12543 1 
12622 1 
12623 3 
12624 1 
12628 1 
12629 3 
12630 1 
13201 1 
13202 3 
13203 1 
13339 1 
13340 3 
13341 1 
13459 1 
13460 3 
13461 1 
14290 1 
14291 3 
14292 1 
14530 1 
14531 3 
14532 1 
14605 1 
14606 3 
14607 1 
14644 1 
14645 2 
14646 1 
15316 1 
15317 2 
15318 1 
15379 1 
15380 2 
15381 1 
15550 1 
15551 2 
15552 1 
15604 1 
15605 3 
15606 1 
15610 1 
15611 2 
15612 1 
16345 1 
16346 3 
16347 1 
16441 1 
16442 2 
16443 1 
16459 1 
16460 3 
16461 1 
16702 1 
16703 3 
16704 1 
17470 1 
17471 3 
17472 1 
17587 1 
17588 3 
17589 1 
17701 1 
17702 3 
17703 1 
18373 1 
18374 3 
18375 1 
18436 1 
18437 3 
18438 1 
18673 1 
18674 3 
18675 1 
18688 1 
18689 3 
18690 1 
18841 1 
18842 3 
18843 1 
19444 1 
19445 3 
19446 1 
19510 1 
19511 3 
19512 1 
19681 1 
19682 3 
19683 1 
19696 1 
19697 3 
19698 1 
19768 1 
19769 3 
19770 1 
20590 1 
20591 3 
20592 1 
20599 1 
20600 3 
20601 1 
20842 1 
20843 3 
20844 1 
20953 1 
20954 3 
20955 1 
21004 1 
21005 3 
21006 1 
21022 1 
21023 3 
21024 1 
21028 1 
21029 3 
21030 1 
58 1 
59 3 
60 1 
103 1 
104 3 
105 1 
169 1 
170 3 
171 1 
235 1 
236 2 
237 1 
391 1 
392 3 
393 1 
1195 1 
1196 3 
1197 1 
1294 1 
1295 3 
1296 1 
1303 1 
1304 3 
1305 1 
2323 1 
2324 3 
2325 1 
2326 1 
2327 3 
2328 1 
2617 1 
2618 3 
2619 1 
2632 1 
2633 3 
2634 1 
3217 1 
3218 3 
3219 1 
3397 1 
3398 3 
3399 1 
3571 1 
3572 3 
3573 1 
3634 1 
3635 2 
3636 1 
4423 1 
4424 3 
4425 1 
4615 1 
4616 3 
4617 1 
4852 1 
4853 2 
4854 1 
4855 1 
4856 3 
4857 1 
4858 1 
4859 3 
4860 1 
5512 1 
5513 3 
5514 1 
5572 1 
5573 3 
5574 1 
5671 1 
5672 3 
5673 1 
5680 1 
5681 3 
5682 1 
5737 1 
5738 3 
5739 1 
5866 1 
5867 3 
5868 1 
5974 1 
5975 3 
5976 1 
5992 1 
5993 2 
5994 1 
6046 1 
6047 3 
6048 1 
6832 1 
6833 3 
6834 1 
6874 1 
6875 3 
6876 1 
6883 1 
6884 3 
6885 1 
6946 1 
6947 3 
6948 1 
7066 1 
7067 3 
7068 1 
7177 1 
7178 3 
7179 1 
7777 1 
7778 3 
7779 1 
7858 1 
7859 3 
7860 1 
8014 1 
8015 3 
8016 1 
8029 1 
8030 3 
8031 1 
8032 1 
8033 3 
8034 1 
8074 1 
8075 3 
8076 1 
8194 1 
8195 3 
8196 1 
8983 1 
8984 3 
8985 1 
8992 1 
8993 3 
8994 1 
9058 1 
9059 3 
9060 1 
9109 1 
9110 3 
9111 1 
9112 1 
9113 3 
9114 1 
9352 1 
9353 3 
9354 1 
10051 1 
10052 3 
10053 1 
10075 1 
10076 3 
10077 1 
10171 1 
10172 3 
10173 1 
10180 1 
10181 3 
10182 1 
10435 1 
10436 3 
10437 1 
10489 1 
10490 3 
10491 1 
10534 1 
10535 3 
10536 1 
11209 1 
11210 3 
11211 1 
11215 1 
11216 3 
11217 1 
11272 1 
11273 3 
11274 1 
11383 1 
11384 3 
11385 1 
11386 1 
11387 3 
11388 1 
11458 1 
11459 3 
11460 1 
11512 1 
11513 3 
11514 1 
12157 1 
12158 3 
12159 1 
12391 1 
12392 3 
12393 1 
12511 1 
12512 3 
12513 1 
13378 1 
13379 3 
13380 1 
13534 1 
13535 3 
13536 1 
13609 1 
13610 3 
13611 1 
14503 1 
14504 3 
14505 1 
14578 1 
14579 3 
14580 1 
14611 1 
14612 3 
14613 1 
14632 1 
14633 3 
14634 1 
14677 1 
14678 3 
14679 1 
14683 1 
14684 2 
14685 1 
14695 1 
14696 3 
14697 1 
15574 1 
15575 3 
15576 1 
15598 1 
15599 3 
15600 1 
15766 1 
15767 3 
15768 1 
15769 1 
15770 3 
15771 1 
16615 1 
16616 3 
16617 1 
17323 1 
17324 3 
17325 1 
17518 1 
17519 3 
17520 1 
17566 1 
17567 3 
17568 1 
17674 1 
17675 3 
17676 1 
17797 1 
17798 3 
17799 1 
17809 1 
17810 3 
17811 1 
18466 1 
18467 2 
18468 1 
18520 1 
18521 3 
18522 1 
18583 1 
18584 3 
18585 1 
18598 1 
18599 3 
18600 1 
18691 1 
18692 3 
18693 1 
18751 1 
18752 3 
18753 1 
18826 1 
18827 3 
18828 1 
18886 1 
18887 3 
18888 1 
19480 1 
19481 3 
19482 1 
19492 1 
19493 2 
19494 1 
19534 1 
19535 3 
19536 1 
19540 1 
19541 3 
19542 1 
19555 1 
19556 3 
19557 1 
19837 1 
19838 3 
19839 1 
19849 1 
19850 2 
19851 1 
19894 1 
19895 3 
19896 1 
20632 1 
20633 3 
20634 1 
20995 1 
20996 3 
20997 1 
628 1 
629 3 
630 1 
982 1 
983 3 
984 1 
1681 1 
1682 3 
1683 1 
1930 1 
1931 3 
1932 1 
1942 1 
1943 2 
1944 1 
2101 1 
2102 3 
2103 1 
2161 1 
2162 3 
2163 1 
2164 1 
2165 3 
2166 1 
2176 1 
2177 3 
2178 1 
2641 1 
2642 3 
2643 1 
2656 1 
2657 3 
2658 1 
2881 1 
2882 3 
2883 1 
3025 1 
3026 3 
3027 1 
3082 1 
3083 3 
3084 1 
3088 1 
3089 3 
3090 1 
3130 1 
3131 3 
3132 1 
3139 1 
3140 3 
3141 1 
3967 1 
3968 3 
3969 1 
3988 1 
3989 3 
3990 1 
4042 1 
4043 3 
4044 1 
4087 1 
4088 3 
4089 1 
4090 1 
4091 3 
4092 1 
4147 1 
4148 3 
4149 1 
4150 1 
4151 3 
4152 1 
4984 1 
4985 3 
4986 1 
5002 1 
5003 3 
5004 1 
5059 1 
5060 3 
5061 1 
5161 1 
5162 2 
5163 1 
5239 1 
5240 3 
5241 1 
5248 1 
5249 3 
5250 1 
5284 1 
5285 3 
5286 1 
5344 1 
5345 2 
5346 1 
6124 1 
6125 3 
6126 1 
6196 1 
6197 3 
6198 1 
6301 1 
6302 3 
6303 1 
6367 1 
6368 3 
6369 1 
6373 1 
6374 2 
6375 1 
6547 1 
6548 3 
6549 1 
6562 1 
6563 3 
6564 1 
7264 1 
7265 3 
7266 1 
7345 1 
7346 3 
7347 1 
7441 1 
7442 3 
7443 1 
7447 1 
7448 3 
7449 1 
7459 1 
7460 3 
7461 1 
7501 1 
7502 3 
7503 1 
7693 1 
7694 3 
7695 1 
8410 1 
8411 3 
8412 1 
8413 1 
8414 2 
8415 1 
8482 1 
8483 3 
8484 1 
8521 1 
8522 3 
8523 1 
8536 1 
8537 3 
8538 1 
8701 1 
8702 3 
8703 1 
8845 1 
8846 3 
8847 1 
9361 1 
9362 3 
9363 1 
9370 1 
9371 3 
9372 1 
9376 1 
9377 3 
9378 1 
9493 1 
9494 3 
9495 1 
9661 1 
9662 2 
9663 1 
9742 1 
9743 3 
9744 1 
9790 1 
9791 3 
9792 1 
9808 1 
9809 3 
9810 1 
9847 1 
9848 2 
9849 1 
10582 1 
10583 3 
10584 1 
10687 1 
10688 3 
10689 1 
10744 1 
10745 3 
10746 1 
10819 1 
10820 3 
10821 1 
10930 1 
10931 2 
10932 1 
10999 1 
11000 3 
11001 1 
11056 1 
11057 3 
11058 1 
11596 1 
11597 3 
11598 1 
11656 1 
11657 3 
11658 1 
11830 1 
11831 3 
11832 1 
11836 1 
11837 3 
11838 1 
11902 1 
11903 3 
11904 1 
12025 1 
12026 3 
12027 1 
12928 1 
12929 3 
12930 1 
12967 1 
12968 3 
12969 1 
13708 1 
13709 3 
13710 1 
13828 1 
13829 3 
13830 1 
13864 1 
13865 3 
13866 1 
13945 1 
13946 3 
13947 1 
13984 1 
13985 3 
13986 1 
14044 1 
14045 3 
14046 1 
14830 1 
14831 3 
14832 1 
14845 1 
14846 3 
14847 1 
15007 1 
15008 3 
15009 1 
15070 1 
15071 3 
15072 1 
15121 1 
15122 3 
15123 1 
15124 1 
15125 3 
15126 1 
15127 1 
15128 3 
15129 1 
15901 1 
15902 3 
15903 1 
15910 1 
15911 3 
15912 1 
15967 1 
15968 3 
15969 1 
16024 1 
16025 3 
16026 1 
16036 1 
16037 3 
16038 1 
16096 1 
16097 3 
16098 1 
16762 1 
16763 3 
16764 1 
16807 1 
16808 3 
16809 1 
17065 1 
17066 3 
17067 1 
17176 1 
17177 3 
17178 1 
17245 1 
17246 3 
17247 1 
17836 1 
17837 3 
17838 1 
17848 1 
17849 3 
17850 1 
17887 1 
17888 3 
17889 1 
17899 1 
17900 3 
17901 1 
18004 1 
18005 3 
18006 1 
18013 1 
18014 3 
18015 1 
18019 1 
18020 3 
18021 1 
18022 1 
18023 3 
18024 1 
18196 1 
18197 2 
18198 1 
18208 1 
18209 3 
18210 1 
18304 1 
18305 3 
18306 1 
18910 1 
18911 3 
18912 1 
18964 1 
18965 3 
18966 1 
18967 1 
18968 3 
18969 1 
18979 1 
18980 3 
18981 1 
19042 1 
19043 3 
19044 1 
19048 1 
19049 3 
19050 1 
19225 1 
19226 3 
19227 1 
19942 1 
19943 2 
19944 1 
20101 1 
20102 3 
20103 1 
20125 1 
20126 3 
20127 1 
20425 1 
20426 3 
20427 1 
21208 1 
21209 3 
21210 1 
21304 1 
21305 3 
21306 1 
21319 1 
21320 2 
21321 1 
21541 1 
21542 3 
21543 1 
21547 1 
21548 3 
21549 1 
21550 1 
21551 3 
21552 1 
574 1 
575 3 
576 1 
631 1 
632 3 
633 1 
820 1 
821 3 
822 1 
934 1 
935 3 
936 1 
1006 1 
1007 3 
1008 1 
1057 1 
1058 3 
1059 1 
1066 1 
1067 3 
1068 1 
1132 1 
1133 3 
1134 1 
1849 1 
1850 3 
1851 1 
1906 1 
1907 3 
1908 1 
1951 1 
1952 3 
1953 1 
1978 1 
1979 3 
1980 1 
2077 1 
2078 2 
2079 1 
2137 1 
2138 3 
2139 1 
2677 1 
2678 3 
2679 1 
2974 1 
2975 3 
2976 1 
3058 1 
3059 3 
3060 1 
3955 1 
3956 3 
3957 1 
5014 1 
5015 3 
5016 1 
5023 1 
5024 3 
5025 1 
5137 1 
5138 3 
5139 1 
5218 1 
5219 3 
5220 1 
5272 1 
5273 3 
5274 1 
5314 1 
5315 3 
5316 1 
5317 1 
5318 3 
5319 1 
5323 1 
5324 3 
5325 1 
5437 1 
5438 3 
5439 1 
6094 1 
6095 3 
6096 1 
6238 1 
6239 3 
6240 1 
6451 1 
6452 3 
6453 1 
6457 1 
6458 3 
6459 1 
6511 1 
6512 3 
6513 1 
6517 1 
6518 3 
6519 1 
6580 1 
6581 3 
6582 1 
7366 1 
7367 3 
7368 1 
7420 1 
7421 3 
7422 1 
7486 1 
7487 3 
7488 1 
7543 1 
7544 3 
7545 1 
7618 1 
7619 3 
7620 1 
8392 1 
8393 3 
8394 1 
8551 1 
8552 3 
8553 1 
8632 1 
8633 3 
8634 1 
8635 1 
8636 3 
8637 1 
8638 1 
8639 3 
8640 1 
8731 1 
8732 3 
8733 1 
8806 1 
8807 2 
8808 1 
8818 1 
8819 3 
8820 1 
8866 1 
8867 3 
8868 1 
9397 1 
9398 3 
9399 1 
9460 1 
9461 3 
9462 1 
9523 1 
9524 3 
9525 1 
9637 1 
9638 3 
9639 1 
9643 1 
9644 3 
9645 1 
9655 1 
9656 3 
9657 1 
9712 1 
9713 3 
9714 1 
9757 1 
9758 3 
9759 1 
9763 1 
9764 3 
9765 1 
10606 1 
10607 3 
10608 1 
10837 1 
10838 3 
10839 1 
10912 1 
10913 3 
10914 1 
11020 1 
11021 3 
11022 1 
11074 1 
11075 3 
11076 1 
11551 1 
11552 3 
11553 1 
11803 1 
11804 3 
11805 1 
11875 1 
11876 3 
11877 1 
11995 1 
11996 3 
11997 1 
12031 1 
12032 3 
12033 1 
12763 1 
12764 3 
12765 1 
12871 1 
12872 3 
12873 1 
12958 1 
12959 3 
12960 1 
12994 1 
12995 3 
12996 1 
13000 1 
13001 3 
13002 1 
13078 1 
13079 3 
13080 1 
13789 1 
13790 3 
13791 1 
13843 1 
13844 3 
13845 1 
13915 1 
13916 3 
13917 1 
14137 1 
14138 3 
14139 1 
14194 1 
14195 3 
14196 1 
14740 1 
14741 3 
14742 1 
14995 1 
14996 3 
14997 1 
15154 1 
15155 3 
15156 1 
15217 1 
15218 3 
15219 1 
15223 1 
15224 3 
15225 1 
15277 1 
15278 2 
15279 1 
15286 1 
15287 3 
15288 1 
15949 1 
15950 2 
15951 1 
16018 1 
16019 3 
16020 1 
16054 1 
16055 3 
16056 1 
16186 1 
16187 3 
16188 1 
16231 1 
16232 3 
16233 1 
16246 1 
16247 3 
16248 1 
16297 1 
16298 3 
16299 1 
16783 1 
16784 2 
16785 1 
16951 1 
16952 3 
16953 1 
17011 1 
17012 3 
17013 1 
17023 1 
17024 3 
17025 1 
17194 1 
17195 3 
17196 1 
17251 1 
17252 3 
17253 1 
17257 1 
17258 3 
17259 1 
17260 1 
17261 3 
17262 1 
18052 1 
18053 3 
18054 1 
18289 1 
18290 3 
18291 1 
18955 1 
18956 3 
18957 1 
19117 1 
19118 3 
19119 1 
19129 1 
19130 3 
19131 1 
19195 1 
19196 2 
19197 1 
19300 1 
19301 3 
19302 1 
19429 1 
19430 3 
19431 1 
19432 1 
19433 3 
19434 1 
19954 1 
19955 3 
19956 1 
19978 1 
19979 3 
19980 1 
20023 1 
20024 3 
20025 1 
20140 1 
20141 3 
20142 1 
20266 1 
20267 3 
20268 1 
20320 1 
20321 3 
20322 1 
20323 1 
20324 3 
20325 1 
20389 1 
20390 3 
20391 1 
21160 1 
21161 3 
21162 1 
21217 1 
21218 3 
21219 1 
21223 1 
21224 3 
21225 1 
21274 1 
21275 3 
21276 1 
21283 1 
21284 3 
21285 1 
21352 1 
21353 3 
21354 1 
21403 1 
21404 3 
21405 1 
