ITEM: TIMESTEP
35000000
ITEM: NUMBER OF ATOMS
1461
ITEM: BOX BOUNDS pp pp pp
0.0000000000000000e+00 5.0000000000000000e+01
0.0000000000000000e+00 5.0000000000000000e+01
0.0000000000000000e+00 5.0000000000000000e+01
ITEM: ATOMS id type xs ys zs
1004 3 0.0120599 0.118078 0.221433
7152 1 0.0135774 0.148791 0.224855
1005 1 0.0129906 0.121407 0.214557
15804 1 0.0536418 0.13065 0.209485
15802 1 0.0442957 0.134601 0.222881
15803 2 0.0503551 0.132683 0.217237
14979 1 0.0427439 0.135529 0.224775
7150 1 0.0146587 0.160321 0.214951
7151 2 0.0142339 0.155516 0.22006
9078 1 0.0146694 0.162191 0.212791
9077 2 0.0131454 0.167781 0.207287
17254 1 0.0100475 0.177735 0.209872
9076 1 0.0112012 0.175364 0.209257
17255 3 0.00702993 0.184565 0.213308
17256 1 0.00170597 0.190426 0.216243
13714 1 0.0524082 0.0602113 0.24744
13715 2 0.0585074 0.0565614 0.249957
1686 1 0.0682444 0.0531619 0.255588
13716 1 0.0657506 0.0541369 0.254514
15514 1 0.0208656 0.0744104 0.233931
15515 3 0.0286384 0.0745948 0.235583
9591 1 0.0128916 0.08417 0.255113
4929 1 0.0131978 0.0815094 0.256635
9920 2 0.0442683 0.0670168 0.243981
9919 1 0.0499341 0.0621978 0.246486
9921 1 0.0374999 0.0711309 0.23928
15516 1 0.0351966 0.0723053 0.238175
1129 1 0.0838117 0.084048 0.248088
1130 3 0.090552 0.078794 0.249005
17443 1 0.0817348 0.0860425 0.247486
1131 1 0.0968873 0.0757243 0.25042
14326 1 0.0997247 0.074212 0.251273
14327 3 0.106307 0.0703003 0.252513
9589 1 0.0141285 0.0993584 0.251055
1003 1 0.0124656 0.11403 0.227613
13410 1 0.0128223 0.112344 0.230081
13409 2 0.0138906 0.107171 0.236611
13408 1 0.0210235 0.101624 0.239202
241 1 0.0232008 0.100296 0.240158
9499 1 0.0201745 0.120605 0.252344
9590 2 0.0119865 0.0921515 0.252035
11906 2 0.0370864 0.115854 0.232124
242 2 0.031268 0.0977636 0.242003
243 1 0.037753 0.100255 0.245913
13885 1 0.0397486 0.102251 0.24813
13886 2 0.044327 0.1072 0.251798
13887 1 0.0518997 0.106492 0.250915
9025 1 0.0551419 0.106181 0.251118
11907 1 0.0422054 0.11065 0.232756
17444 2 0.0760059 0.0918182 0.246671
9026 2 0.064102 0.10536 0.252822
17445 1 0.0705064 0.0979627 0.249645
9027 1 0.0684168 0.0998133 0.250773
12916 1 0.077232 0.117961 0.257193
12917 2 0.0811491 0.119568 0.251598
193 1 0.0198076 0.122644 0.250317
194 2 0.0174802 0.128557 0.245725
9214 1 0.0155551 0.136137 0.23809
195 1 0.0163495 0.134372 0.240278
9216 1 0.0131902 0.146007 0.226634
9215 2 0.0128001 0.140793 0.231516
5850 1 0.0236577 0.134374 0.257468
11905 1 0.0373685 0.123754 0.229968
14977 1 0.0342556 0.142901 0.236181
14978 2 0.0375509 0.137349 0.231537
9052 1 0.0497877 0.145231 0.246767
5870 2 0.0510664 0.135393 0.251683
5871 1 0.049866 0.142692 0.247939
12918 1 0.0775632 0.126273 0.249017
7050 1 0.0770637 0.129077 0.24842
7048 1 0.0706556 0.142832 0.250707
7049 2 0.0755083 0.137019 0.246482
2076 1 0.0696129 0.144783 0.252446
4939 1 0.00466532 0.166576 0.250303
6708 1 0.0184666 0.152675 0.252859
9595 1 0.0199432 0.153674 0.250488
9597 1 0.0253924 0.161953 0.238127
9596 2 0.0239436 0.157521 0.244601
8020 1 0.00440611 0.166022 0.247439
8021 2 0.00261342 0.164345 0.239516
9287 2 0.0427915 0.166885 0.23419
9054 1 0.0463207 0.158116 0.240326
9053 2 0.049767 0.152377 0.243009
9288 1 0.0451391 0.160522 0.238615
9286 1 0.0342904 0.1671 0.233941
15241 1 0.00421255 0.024543 0.289116
13557 1 0.046588 0.0199653 0.283436
14976 1 0.0459272 0.0205676 0.280643
14975 3 0.0460177 0.0227073 0.2732
14974 1 0.0430352 0.0279989 0.268593
2971 1 0.0707444 0.0168761 0.287151
1417 1 0.0700528 0.0144156 0.288939
2973 1 0.0752797 0.0294258 0.278577
2972 2 0.0728495 0.0229615 0.283056
3623 2 0.0946347 0.0285302 0.282828
20281 1 0.0421622 0.0303168 0.267539
20282 3 0.0397417 0.0381356 0.265223
20283 1 0.0368662 0.0448456 0.265352
10178 2 0.0430994 0.056293 0.285793
19533 1 0.0356665 0.0481516 0.265705
19532 2 0.0330898 0.0555501 0.266619
10177 1 0.0426655 0.0466838 0.283783
1685 2 0.074443 0.0502717 0.258874
2668 1 0.076101 0.0324018 0.277197
1684 1 0.0775906 0.0459141 0.264647
2669 2 0.0794568 0.0390016 0.27291
2670 1 0.0783738 0.0440285 0.267405
13422 1 0.074581 0.0552422 0.283047
15006 1 0.0767329 0.0567464 0.282161
3624 1 0.091096 0.033223 0.288409
13420 1 0.0661892 0.0431895 0.285138
13421 2 0.0689288 0.0510713 0.285968
16967 2 0.10569 0.0559682 0.265827
16968 1 0.105042 0.0472376 0.266819
15096 1 0.104043 0.044384 0.267242
3622 1 0.0975442 0.0313109 0.275682
15094 1 0.0983067 0.0325911 0.273216
15095 3 0.101774 0.037679 0.267715
654 1 0.120631 0.0467575 0.289215
652 1 0.113713 0.0499386 0.276891
653 2 0.114328 0.0470526 0.283435
18876 1 0.152827 0.0604119 0.288072
20718 1 0.154089 0.0580527 0.286502
20716 1 0.156768 0.045202 0.277569
20717 2 0.157362 0.051081 0.282108
15743 2 0.0034153 0.0804822 0.28192
4927 1 0.0134661 0.0664509 0.262965
15744 1 0.00573982 0.0740683 0.286076
9274 1 0.00771667 0.0722446 0.288207
19592 2 0.0289436 0.0704813 0.27983
4928 2 0.0135259 0.0740208 0.260794
5670 1 0.0282859 0.0797394 0.284813
19591 1 0.0286964 0.0768166 0.283793
19593 1 0.0306332 0.0644032 0.274072
8810 2 0.0290128 0.0904178 0.265074
5669 2 0.0244117 0.0865809 0.287366
15742 1 0.000115702 0.0863075 0.278802
9802 1 0.0503037 0.0638826 0.278961
10179 1 0.0485415 0.0618525 0.281106
9803 2 0.0541114 0.0689223 0.273407
9804 1 0.0560523 0.0744176 0.268062
19531 1 0.0312964 0.0618967 0.272012
14233 1 0.0472257 0.0817048 0.260953
14234 2 0.0468042 0.0895214 0.261866
8811 1 0.036362 0.0898863 0.264815
14235 1 0.0398722 0.0895812 0.264228
15005 2 0.0842304 0.0606445 0.279732
18042 1 0.0912284 0.0689109 0.275817
15004 1 0.0897752 0.0671072 0.276912
16767 1 0.0833294 0.0871204 0.26433
16966 1 0.106114 0.0619984 0.260424
14328 1 0.106582 0.0642312 0.258359
18041 2 0.0963698 0.0750739 0.272499
18040 1 0.0998823 0.0816177 0.269003
19090 1 0.101235 0.084362 0.267243
19091 3 0.104686 0.0902542 0.263912
19092 1 0.113233 0.0891605 0.26605
14123 2 0.14152 0.088446 0.274031
14124 1 0.140508 0.0820683 0.278935
8809 1 0.0232857 0.0919676 0.269878
20791 1 0.0165493 0.117067 0.280474
9500 2 0.0204196 0.116028 0.258511
1152 1 0.0279309 0.115708 0.265461
9501 1 0.0262945 0.115759 0.263633
4035 1 0.0160975 0.11431 0.281722
4034 2 0.0151167 0.107605 0.285346
10589 2 0.0458182 0.0946955 0.285322
10590 1 0.0392616 0.0988338 0.288713
10588 1 0.0538304 0.0939707 0.284127
7585 1 0.0567121 0.0939674 0.28383
1151 2 0.0351597 0.114629 0.270081
1150 1 0.0428135 0.112614 0.271247
9187 1 0.045975 0.112138 0.271599
9188 2 0.0534793 0.111211 0.272523
9189 1 0.0592063 0.116614 0.270831
15402 1 0.0614538 0.118584 0.269921
16766 2 0.0835415 0.0953515 0.266439
16765 1 0.0839973 0.102765 0.268715
18285 1 0.0838401 0.105702 0.269746
18284 2 0.0834998 0.113217 0.271798
18283 1 0.0883553 0.118606 0.274826
9184 1 0.0903492 0.120481 0.275517
7586 2 0.0651839 0.0939114 0.283629
7587 1 0.0717468 0.0950127 0.279564
19610 2 0.084771 0.0946453 0.288723
19609 1 0.0922201 0.0989011 0.286834
21035 2 0.0677109 0.116316 0.288949
16698 1 0.114314 0.111537 0.260188
16697 3 0.118681 0.104098 0.257924
1575 1 0.112616 0.113789 0.260929
1574 2 0.107561 0.119747 0.263009
16696 1 0.119419 0.0956988 0.259451
15651 1 0.095153 0.10047 0.286983
15650 2 0.101745 0.105901 0.287711
3834 1 0.133124 0.11411 0.265333
6448 1 0.134158 0.111357 0.265103
6449 3 0.138288 0.103365 0.264668
6450 1 0.138891 0.0963912 0.268653
14122 1 0.139439 0.094298 0.270135
16509 1 0.157482 0.11535 0.289345
6707 2 0.0150805 0.148673 0.258108
5261 2 0.014515 0.143096 0.275403
20792 2 0.0175253 0.124567 0.278873
6706 1 0.0146813 0.145686 0.265464
5260 1 0.0149368 0.144437 0.268063
20793 1 0.0155613 0.132781 0.278148
5262 1 0.0151711 0.13574 0.277751
13125 1 0.0302821 0.140166 0.288462
5869 1 0.048354 0.135147 0.259779
5848 1 0.0364986 0.141985 0.260432
4654 1 0.0370397 0.143971 0.260883
4655 2 0.0393259 0.151085 0.262708
6321 1 0.0325548 0.14017 0.28688
5849 2 0.0319663 0.136448 0.258117
6320 2 0.0392445 0.139699 0.283556
6319 1 0.0432882 0.136594 0.277523
1753 1 0.0447121 0.135167 0.274929
1755 1 0.0481008 0.134629 0.262096
1754 2 0.0479066 0.132366 0.269465
15401 2 0.066709 0.123736 0.268334
15400 1 0.0706028 0.128132 0.274496
2075 2 0.0676635 0.148817 0.258433
13302 1 0.071484 0.129134 0.276359
13301 2 0.0753108 0.133187 0.282061
21357 1 0.0722872 0.140352 0.287712
13300 1 0.0729111 0.138357 0.286305
9877 1 0.0920968 0.15148 0.266939
1573 1 0.102572 0.123092 0.26985
9186 1 0.100977 0.124063 0.272445
9185 2 0.0961405 0.125429 0.277521
4122 1 0.123943 0.125622 0.274374
4121 2 0.120376 0.127718 0.281214
2283 1 0.0938978 0.147626 0.284338
4120 1 0.115067 0.126503 0.288247
3832 1 0.125326 0.124449 0.271824
3833 2 0.13043 0.121781 0.266265
4940 2 0.00491666 0.168568 0.257824
2616 1 0.0114202 0.170346 0.266892
4941 1 0.00976535 0.169819 0.264386
2615 2 0.0145841 0.174146 0.273868
2614 1 0.0199442 0.168652 0.27438
1699 1 0.0224794 0.167045 0.274496
1700 2 0.0295768 0.163344 0.274521
1701 1 0.0341765 0.158205 0.269276
4656 1 0.0355871 0.156295 0.267663
17091 1 0.0521853 0.159817 0.282158
17090 2 0.0482948 0.162336 0.287871
10377 1 0.0538753 0.159309 0.280019
10376 2 0.0603494 0.156433 0.273925
2074 1 0.0645873 0.152603 0.264024
10375 1 0.0633742 0.153712 0.267392
9879 1 0.0880638 0.165262 0.272865
9878 2 0.0892878 0.158481 0.268748
12526 1 0.0738206 0.182098 0.266823
12527 2 0.0817615 0.182158 0.265286
5193 1 0.0921308 0.182538 0.270201
12528 1 0.0892465 0.183171 0.268982
15623 3 0.0728188 0.192291 0.284685
15622 1 0.0680411 0.194882 0.279333
5192 2 0.09963 0.182031 0.272148
5191 1 0.106349 0.182676 0.275919
3370 1 0.109042 0.182883 0.277308
3371 3 0.116306 0.184201 0.279897
3372 1 0.116855 0.186823 0.287927
20316 1 0.00133308 0.0163986 0.308212
17417 2 0.0234409 0.0279489 0.296722
17416 1 0.0195263 0.0232299 0.301382
5913 1 0.00326263 0.0186012 0.309687
3477 1 0.0142971 0.0285828 0.32089
5911 1 0.0125681 0.0275603 0.319074
5912 3 0.00721684 0.0243792 0.314635
13555 1 0.0425619 0.0196547 0.295968
13556 2 0.0489368 0.0180873 0.290444
182 2 0.0422413 0.0226722 0.319532
181 1 0.038049 0.022478 0.31419
17855 2 0.0654031 0.00429672 0.311968
17856 1 0.0659711 0.00715114 0.319299
3793 1 0.0664013 0.00845561 0.321416
17854 1 0.0674432 0.00490504 0.303456
1419 1 0.0679474 0.00602471 0.300415
1418 3 0.0681916 0.0095356 0.293244
7915 1 0.0709384 0.0299401 0.305209
7916 2 0.0772504 0.0290386 0.308659
7917 1 0.0842631 0.0261388 0.311537
21361 1 0.10849 0.00244846 0.314999
21362 2 0.110955 0.00981308 0.312331
21363 1 0.105367 0.0152212 0.310088
11434 1 0.103079 0.0174701 0.309085
11435 2 0.0985266 0.0240414 0.307226
11436 1 0.103235 0.0293053 0.305588
17418 1 0.0303102 0.0317477 0.296323
14057 2 0.024712 0.0512992 0.29843
14058 1 0.0191122 0.0573402 0.295743
9276 1 0.0174772 0.0600144 0.294937
14056 1 0.0297395 0.0469146 0.301559
15242 2 0.00304876 0.0319466 0.290009
13799 2 0.0385554 0.042791 0.30698
13798 1 0.0322253 0.045125 0.302991
13800 1 0.0451714 0.0445722 0.311635
13012 1 0.0477928 0.0451039 0.313923
13013 2 0.0535762 0.0457646 0.31894
6655 1 0.0903102 0.0351103 0.290379
6543 1 0.0626252 0.0412243 0.294732
6542 2 0.0629552 0.0357608 0.299261
6541 1 0.0687104 0.0308916 0.303554
6657 1 0.0906573 0.0426554 0.303981
8395 1 0.0915145 0.0423903 0.30681
6656 2 0.0888452 0.0407898 0.296054
15199 1 0.113194 0.0411527 0.301437
15200 2 0.111053 0.0341183 0.300511
16182 1 0.123026 0.0466237 0.291501
15201 1 0.104977 0.0307364 0.304389
8396 2 0.0945676 0.0431871 0.314499
19845 1 0.123956 0.0592211 0.316176
16181 3 0.128645 0.0456261 0.296431
19844 3 0.130714 0.0584 0.311514
19843 1 0.129962 0.0530704 0.305355
16180 1 0.129832 0.0512036 0.302857
9275 2 0.0126234 0.0668228 0.292435
6878 2 0.0206718 0.0684741 0.31478
6879 1 0.0256053 0.0703772 0.308833
3295 1 0.0272669 0.0706126 0.306241
16253 2 0.0017549 0.0794591 0.305031
12115 1 0.00723908 0.0816258 0.314684
16252 1 0.00561312 0.0806882 0.311742
12116 2 0.0110536 0.0851922 0.320691
5847 1 0.013347 0.0621969 0.32052
6877 1 0.015387 0.0635656 0.319429
11268 1 0.0573551 0.0699941 0.295754
11267 2 0.0570193 0.0777252 0.297866
3296 2 0.0332399 0.0716798 0.301083
12619 1 0.0566467 0.0637654 0.310552
2236 1 0.0538661 0.0642045 0.310412
2237 2 0.0468579 0.0658816 0.310734
2238 1 0.0412062 0.0684779 0.306493
3297 1 0.0394621 0.0692021 0.305239
6683 2 0.0353595 0.0853921 0.317814
7100 2 0.0589575 0.0845437 0.321343
7099 1 0.0600136 0.077346 0.31984
11266 1 0.061237 0.0836801 0.299523
12951 1 0.0923909 0.0620737 0.294085
12620 2 0.0653629 0.0627664 0.312031
12621 1 0.0709233 0.0664662 0.310304
8427 1 0.0867212 0.0752944 0.307303
8426 2 0.0786454 0.0740327 0.307659
8425 1 0.0733415 0.0687314 0.309305
705 1 0.0922387 0.0659354 0.32042
4500 1 0.0989654 0.0698095 0.30503
12949 1 0.0992162 0.0700351 0.301943
4499 2 0.0988605 0.0698686 0.313844
4498 1 0.0943824 0.0669505 0.318793
12950 2 0.0977049 0.0685603 0.295021
4023 1 0.105756 0.0882714 0.299498
7419 1 0.10827 0.0871083 0.298626
7418 2 0.114477 0.0834237 0.294829
7417 1 0.12261 0.0813261 0.293929
3859 1 0.118643 0.0745142 0.321316
15555 1 0.119696 0.076414 0.319259
15554 2 0.121617 0.0828837 0.314933
18875 3 0.149251 0.0669225 0.291914
18874 1 0.142127 0.0700875 0.293246
17992 1 0.125128 0.0805035 0.294151
17993 2 0.132577 0.0762005 0.294356
17994 1 0.139158 0.0715549 0.293367
19116 1 0.155771 0.0654253 0.305756
4455 1 0.15439 0.0743579 0.314352
4454 2 0.154021 0.0826167 0.314528
8463 1 0.166275 0.0769547 0.292255
8462 2 0.165243 0.0859563 0.293317
8461 1 0.157799 0.0903602 0.293996
19115 2 0.164513 0.0638174 0.305391
19114 1 0.171726 0.0635001 0.301219
4453 1 0.156527 0.0893632 0.317596
18026 2 0.00621106 0.100042 0.299179
5668 1 0.0237736 0.0917326 0.294022
20440 1 0.0238243 0.0938022 0.296019
20441 2 0.0254234 0.0994715 0.302123
21398 2 0.0104508 0.111943 0.317183
4033 1 0.011782 0.10362 0.291159
4816 1 0.0106018 0.117804 0.309066
21399 1 0.010591 0.116088 0.311247
18027 1 0.0106553 0.102414 0.293504
20442 1 0.0273493 0.104023 0.308654
18774 1 0.0283405 0.106174 0.311073
4019 2 0.0307986 0.119499 0.298233
10264 1 0.0524088 0.106047 0.298067
7101 1 0.0559516 0.0919002 0.321123
6684 1 0.0325835 0.0919105 0.313135
18773 2 0.0321058 0.109521 0.316546
18772 1 0.0399164 0.106841 0.319676
9918 1 0.0423591 0.10539 0.32058
9916 1 0.054568 0.0942745 0.321775
13771 1 0.0587056 0.118667 0.316896
10265 2 0.0462645 0.111757 0.298022
2065 1 0.0604488 0.116925 0.315089
10266 1 0.039315 0.114703 0.298923
4018 1 0.0368448 0.115749 0.299118
2066 2 0.0652859 0.111528 0.310371
4093 1 0.0773425 0.0959198 0.296308
4094 2 0.0734171 0.0964475 0.303409
19611 1 0.0793398 0.0956623 0.294101
4095 1 0.0711675 0.10267 0.307396
2067 1 0.0695954 0.105253 0.308429
21272 2 0.085045 0.114821 0.293706
21273 1 0.0897789 0.113685 0.300116
20764 1 0.0918758 0.113144 0.302089
21271 1 0.0775646 0.115314 0.290699
21036 1 0.0751612 0.11558 0.290009
155 2 0.0831569 0.114045 0.321831
4022 2 0.0995127 0.0911642 0.303605
4021 1 0.0988271 0.0989757 0.305067
20766 1 0.0986529 0.101755 0.305821
15649 1 0.109347 0.10704 0.290071
20765 2 0.0980291 0.109754 0.307567
3492 1 0.112627 0.107288 0.29061
3491 2 0.120336 0.106619 0.289981
12920 2 0.117641 0.10541 0.310595
14533 1 0.111323 0.100562 0.318024
12919 1 0.112676 0.10217 0.315632
19811 2 0.147693 0.0956736 0.294646
19810 1 0.143946 0.0975615 0.300659
3490 1 0.125054 0.112606 0.293935
19998 1 0.126844 0.114876 0.295081
19615 1 0.127844 0.101994 0.309421
19616 2 0.136048 0.0994863 0.30908
12921 1 0.125316 0.102834 0.309474
19617 1 0.141862 0.0980873 0.303256
19812 1 0.155606 0.0915864 0.293899
19997 2 0.131248 0.12037 0.297253
6940 1 0.157003 0.0920978 0.31896
13124 2 0.0237968 0.139306 0.293591
13123 1 0.0176079 0.14395 0.296944
8273 2 0.0107568 0.13884 0.316646
8274 1 0.00602085 0.139028 0.310672
4020 1 0.0251019 0.125176 0.298042
11670 1 0.00383751 0.139326 0.308162
11669 2 0.00012468 0.139768 0.300757
4817 2 0.00948622 0.122546 0.302672
4818 1 0.00503615 0.128352 0.301574
11668 1 0.00351363 0.131046 0.300959
7513 1 0.05243 0.133525 0.300896
7514 2 0.0564118 0.131544 0.294156
7515 1 0.0613165 0.125241 0.291091
13772 2 0.0526509 0.123123 0.319809
8680 1 0.0481311 0.150472 0.30894
8999 2 0.0600742 0.151041 0.308558
8998 1 0.0514257 0.150342 0.309119
8681 2 0.0405569 0.149504 0.3092
21034 1 0.0628343 0.123104 0.290112
21355 1 0.0655322 0.149364 0.298969
9000 1 0.0640739 0.150256 0.302007
21356 2 0.0688173 0.14726 0.291162
17076 1 0.07341 0.121309 0.307628
17074 1 0.0789223 0.135556 0.311196
17075 2 0.075594 0.12912 0.308301
11970 1 0.0802326 0.13801 0.311819
11969 2 0.0848069 0.144667 0.312819
2282 2 0.0960723 0.150694 0.292236
8297 2 0.10926 0.127191 0.297504
8296 1 0.11344 0.126456 0.290738
8298 1 0.109571 0.125939 0.30516
2281 1 0.101733 0.149966 0.298283
9421 1 0.103796 0.149275 0.300704
9422 2 0.108762 0.146779 0.306153
9423 1 0.112201 0.147505 0.313049
18630 1 0.113145 0.147818 0.315888
2788 1 0.109862 0.125671 0.308165
2789 2 0.110137 0.124275 0.316192
19996 1 0.13118 0.127374 0.300674
14397 1 0.130859 0.12992 0.301831
14396 2 0.130345 0.13718 0.307081
14395 1 0.130982 0.141442 0.314169
13297 1 0.154714 0.128408 0.318493
18033 1 0.153263 0.128471 0.320667
16508 2 0.158728 0.122535 0.291986
13299 1 0.158231 0.12572 0.303064
16507 1 0.158008 0.125208 0.299672
13298 2 0.15737 0.127553 0.310966
20476 1 0.0108451 0.161258 0.307415
20477 2 0.00398283 0.165351 0.306905
307 1 0.0137019 0.159808 0.30744
308 2 0.0217551 0.155476 0.306734
309 1 0.0294756 0.152628 0.306637
8682 1 0.0325469 0.151837 0.30685
17089 1 0.0442888 0.168236 0.292399
20195 2 0.0318941 0.175995 0.315459
6715 1 0.0430462 0.170594 0.294028
6716 2 0.03931 0.176279 0.298652
6717 1 0.0354335 0.175889 0.305299
20196 1 0.034453 0.175689 0.307846
3905 2 0.0578183 0.168595 0.320601
3906 1 0.0604903 0.161477 0.319813
9365 2 0.0611316 0.178205 0.298516
9366 1 0.0628291 0.173177 0.304809
11968 1 0.0824404 0.152125 0.309091
13507 1 0.0815177 0.154854 0.30759
13508 2 0.0809567 0.161277 0.304011
13509 1 0.0767222 0.167251 0.304442
10597 1 0.0972611 0.166986 0.296474
10598 2 0.10217 0.169021 0.302644
10599 1 0.101666 0.170337 0.311381
1349 2 0.121896 0.169568 0.3163
1348 1 0.115527 0.168063 0.320969
1350 1 0.126236 0.174161 0.311166
10295 3 0.13713 0.178433 0.300282
10296 1 0.139586 0.171158 0.302641
12517 1 0.0609348 0.189738 0.316242
2863 1 0.0779784 0.187939 0.293534
15624 1 0.0766868 0.189772 0.29107
9364 1 0.0657311 0.183122 0.295589
2864 2 0.0817445 0.182339 0.299173
13411 1 0.0727323 0.191869 0.307197
13413 1 0.0730125 0.206223 0.302151
13412 2 0.0736951 0.199503 0.306695
2865 1 0.0852718 0.183545 0.306305
4302 1 0.0729169 0.208171 0.300251
8036 2 0.0860235 0.182465 0.316833
8035 1 0.0858532 0.183569 0.309325
4189 1 0.0923825 0.204503 0.300167
2835 1 0.0846355 0.199724 0.315933
20990 2 0.116106 0.188254 0.298808
20991 1 0.117123 0.187789 0.291138
4190 2 0.0942759 0.197012 0.304811
4191 1 0.0945913 0.191719 0.312394
20989 1 0.112571 0.188379 0.306862
6031 1 0.111812 0.188027 0.309617
6032 2 0.109494 0.189076 0.318185
10294 1 0.137561 0.182616 0.293616
18817 1 0.056837 0.233524 0.29121
18818 2 0.0606159 0.227345 0.293973
4300 1 0.0683184 0.218877 0.295041
18819 1 0.06598 0.221167 0.294972
4301 2 0.0738069 0.214713 0.295711
10140 1 0.107417 0.999872 0.316599
10139 2 0.103682 0.995038 0.321143
3183 1 0.0308584 0.0279923 0.344252
183 1 0.0444782 0.0275723 0.325586
3182 2 0.0324083 0.0207851 0.342117
1531 1 0.0344928 0.0120094 0.336325
3181 1 0.0341284 0.0147097 0.337736
1532 2 0.0359421 0.00517761 0.332642
3795 1 0.0623926 0.0135013 0.332096
2445 1 0.0601966 0.0129683 0.334752
2444 2 0.0535254 0.0125383 0.340369
2443 1 0.0491944 0.0105325 0.348243
10219 1 0.047836 0.00924542 0.350695
2532 1 0.045679 0.029463 0.328406
3794 2 0.0675543 0.0134815 0.326766
2098 1 0.0719126 0.0273056 0.352968
4638 1 0.0738093 0.0280066 0.351665
3475 1 0.0177853 0.0352857 0.332013
3476 2 0.0191142 0.0318737 0.325265
13962 1 0.0301635 0.0309129 0.344657
13961 2 0.0271797 0.0376204 0.345892
2651 2 0.019942 0.0549555 0.344298
2650 1 0.0227282 0.0473171 0.344762
13960 1 0.0237132 0.0445372 0.345271
5846 2 0.00700807 0.0573188 0.323875
1077 1 0.0271792 0.0493087 0.324527
14026 1 0.00374921 0.0450463 0.345821
14027 2 0.00462405 0.0452776 0.353634
13014 1 0.0593607 0.0420789 0.322151
16462 1 0.0614125 0.0411524 0.323738
2531 2 0.0459006 0.0339963 0.334888
2530 1 0.0523032 0.0367469 0.340251
21423 1 0.0542892 0.0380202 0.342378
21422 2 0.0593804 0.0413501 0.347673
21421 1 0.0616535 0.0479121 0.352052
7200 1 0.0616405 0.0503629 0.354002
1076 2 0.0349035 0.0527796 0.325137
1075 1 0.038381 0.0537122 0.332377
5883 1 0.0396863 0.0538591 0.335806
5882 2 0.0417212 0.0523683 0.34292
5881 1 0.0440735 0.0544286 0.351117
17805 1 0.0438653 0.0553937 0.35354
16463 2 0.0676493 0.0396143 0.328948
16464 1 0.0711944 0.0328849 0.33232
4637 2 0.080531 0.0319057 0.346707
15914 2 0.0901715 0.0432122 0.33312
15915 1 0.0860606 0.038384 0.338466
4636 1 0.0846756 0.0365569 0.340808
5778 1 0.0834217 0.0578063 0.345315
19675 1 0.0865432 0.0589205 0.34692
5777 2 0.0756494 0.0564851 0.342796
259 1 0.0669546 0.0594904 0.336201
5776 1 0.0694252 0.0589007 0.337975
19676 2 0.0933241 0.0604559 0.351431
8397 1 0.0944718 0.0429952 0.322535
15913 1 0.093921 0.042992 0.32596
8385 1 0.123899 0.0470272 0.348745
8384 2 0.11678 0.0416093 0.35043
8383 1 0.108891 0.0401321 0.352962
17670 1 0.105813 0.040003 0.354095
15630 1 0.125979 0.048162 0.348186
15629 2 0.132191 0.0527977 0.346703
15628 1 0.134903 0.060543 0.34405
11235 1 0.0020492 0.0644111 0.331027
2652 1 0.0200244 0.0628345 0.341022
11664 1 0.0197326 0.0657492 0.340224
11663 2 0.0199093 0.0746151 0.33859
11662 1 0.0161678 0.0812144 0.343412
15907 1 0.0150269 0.0833734 0.344692
15908 2 0.0115031 0.0892935 0.349618
5845 1 0.00317153 0.062576 0.329324
12117 1 0.0171444 0.0898962 0.323839
6682 1 0.0368146 0.0849992 0.325863
6663 1 0.0401768 0.0709132 0.328777
260 2 0.0617603 0.0622898 0.332768
6662 2 0.0425392 0.0754361 0.334316
6661 1 0.042207 0.080858 0.33985
3591 1 0.0423666 0.0823444 0.342182
3590 2 0.0419966 0.0877468 0.348168
3589 1 0.0438959 0.0830446 0.353843
1023 1 0.0790777 0.084608 0.329055
14008 1 0.0796642 0.0871556 0.328369
261 1 0.0626788 0.0689272 0.337858
1156 1 0.0631269 0.070929 0.33997
1157 2 0.0647604 0.0767901 0.34505
1021 1 0.0818293 0.0713365 0.326207
703 1 0.0834061 0.0688326 0.324966
1022 2 0.0781692 0.0766129 0.329618
8816 2 0.0859003 0.0829119 0.347643
8817 1 0.0919989 0.0834996 0.342281
704 2 0.0864823 0.0622544 0.323074
1158 1 0.0664892 0.0850501 0.343881
14901 1 0.0668554 0.0881423 0.343155
8815 1 0.0827695 0.0795018 0.353613
2447 2 0.10888 0.0620114 0.34193
6271 1 0.0939133 0.0835178 0.34022
19677 1 0.0994663 0.060844 0.347052
2446 1 0.101803 0.0612381 0.345773
2448 1 0.111642 0.0662543 0.336153
3861 1 0.112873 0.0675145 0.333498
6272 2 0.0980457 0.0838339 0.334486
3860 2 0.117241 0.0692134 0.326345
6273 1 0.102205 0.0883309 0.329487
14535 1 0.103506 0.0908319 0.327697
15553 1 0.123842 0.0879313 0.322263
8496 1 0.124712 0.0894056 0.324419
12468 1 0.114267 0.0795518 0.352934
12467 2 0.122005 0.0794479 0.350113
18159 1 0.135821 0.063137 0.343299
18157 1 0.145613 0.0719156 0.342257
18158 2 0.138526 0.0697258 0.341144
20779 1 0.148474 0.072466 0.342678
12466 1 0.127862 0.0846186 0.348014
3628 1 0.130576 0.0867214 0.347596
20780 3 0.156344 0.0742598 0.344623
20781 1 0.164162 0.0755212 0.346413
7003 1 0.167272 0.0759659 0.347481
7004 2 0.175707 0.0772387 0.349923
7005 1 0.179641 0.0843996 0.350677
5584 1 0.181065 0.0866486 0.350656
21397 1 0.00609886 0.109102 0.323323
11110 1 0.00432116 0.107632 0.32598
8519 2 0.00286098 0.107126 0.35328
8878 1 0.01918 0.0918043 0.325368
15909 1 0.00763567 0.0963652 0.350819
8518 1 0.00642416 0.0994485 0.352016
8879 2 0.0226479 0.0974024 0.329454
17212 1 0.0216521 0.107283 0.335132
8880 1 0.0218116 0.104923 0.333584
17213 2 0.0211429 0.113294 0.340756
17214 1 0.0187156 0.120236 0.336616
9917 2 0.0492825 0.100826 0.323398
20841 1 0.0363162 0.120237 0.342715
20840 2 0.0405883 0.120121 0.335552
14009 2 0.08233 0.0951087 0.325172
14010 1 0.0824564 0.10298 0.323436
156 1 0.0826284 0.105851 0.322791
14900 2 0.0672676 0.0961272 0.34016
14899 1 0.067502 0.103765 0.337662
12209 2 0.084179 0.113788 0.345105
7402 1 0.067269 0.106417 0.33645
12210 1 0.0915554 0.109257 0.34431
7403 2 0.0668278 0.113233 0.333116
154 1 0.084467 0.120786 0.325685
946 1 0.0941666 0.107274 0.344223
14534 2 0.107168 0.0971649 0.324041
947 2 0.100774 0.102413 0.344773
948 1 0.108212 0.101745 0.344428
1118 2 0.11884 0.101801 0.349042
1117 1 0.111052 0.101748 0.344934
13862 2 0.105919 0.120079 0.352771
3630 1 0.134612 0.0934867 0.338135
8495 2 0.128194 0.0926376 0.329853
15488 2 0.138138 0.110678 0.327745
15489 1 0.137533 0.104044 0.332325
8494 1 0.133087 0.0935698 0.335692
15487 1 0.134661 0.113592 0.334079
1461 1 0.132816 0.114981 0.33634
1460 2 0.129474 0.119939 0.340575
3629 2 0.137902 0.0913154 0.345759
5585 3 0.184958 0.0926746 0.349344
15827 3 0.171465 0.101613 0.337015
6941 2 0.15756 0.0989735 0.323753
6942 1 0.164116 0.100447 0.329144
15826 1 0.165875 0.100904 0.331266
15828 1 0.177937 0.0993566 0.341785
5586 1 0.179955 0.0979062 0.343325
8272 1 0.0130138 0.133564 0.322086
5362 1 0.0133617 0.131776 0.324419
5363 2 0.0160417 0.12854 0.33164
5364 1 0.0179492 0.122766 0.33552
4160 2 0.0304168 0.143306 0.33051
4161 1 0.025869 0.150013 0.330041
17537 2 0.0306642 0.134112 0.34846
17538 1 0.0241788 0.132108 0.352138
6405 1 0.0208344 0.13178 0.353316
13773 1 0.0470483 0.122379 0.326753
20839 1 0.0453348 0.121886 0.329235
4159 1 0.0387614 0.141414 0.331932
9687 1 0.0606504 0.137605 0.331618
17482 1 0.0575992 0.139406 0.331969
17484 1 0.0420798 0.14125 0.332127
17483 2 0.0492635 0.141556 0.332878
17536 1 0.0371789 0.134768 0.349192
13 1 0.0398803 0.135053 0.349935
15 1 0.055587 0.140396 0.34903
14 2 0.0484984 0.136865 0.351888
14557 1 0.0579515 0.141805 0.348252
12208 1 0.0811636 0.121487 0.347778
17151 1 0.079703 0.123849 0.348846
9686 2 0.067902 0.132827 0.331158
9685 1 0.0679446 0.124367 0.332239
17150 2 0.0775372 0.129419 0.352283
7404 1 0.0676955 0.121422 0.332286
14558 2 0.0640931 0.147189 0.347565
14559 1 0.0718188 0.148258 0.344954
3516 1 0.0862006 0.136814 0.33349
6619 1 0.085264 0.139327 0.33539
6621 1 0.0751271 0.147909 0.343788
6620 2 0.0825423 0.145216 0.339932
3514 1 0.0854566 0.123288 0.326744
3515 2 0.0883817 0.130276 0.329487
3657 1 0.110122 0.123994 0.327728
2790 1 0.110329 0.124368 0.324626
3656 2 0.109395 0.123513 0.335359
3655 1 0.10758 0.122874 0.342779
13861 1 0.106542 0.122225 0.34561
10135 1 0.113795 0.139372 0.347342
4108 1 0.116665 0.137735 0.348469
4109 2 0.122492 0.134187 0.349939
10136 2 0.10706 0.144537 0.347232
10137 1 0.101809 0.150849 0.347575
18629 2 0.115838 0.147997 0.323761
18032 3 0.149056 0.127574 0.32812
18031 1 0.144701 0.127327 0.33511
4110 1 0.125719 0.127936 0.345881
1459 1 0.127064 0.125504 0.344387
16050 1 0.014049 0.160489 0.33427
5657 3 0.00753869 0.166216 0.3408
16048 1 0.0237135 0.152202 0.329581
16049 2 0.0183072 0.156777 0.329152
5656 1 0.0121426 0.162136 0.336093
5658 1 0.0050702 0.164658 0.34921
3904 1 0.0571142 0.175488 0.326075
20194 1 0.0342255 0.171789 0.322117
19401 1 0.0350547 0.170019 0.324363
19399 1 0.045713 0.165519 0.33613
601 1 0.0481098 0.164915 0.338067
602 2 0.0549186 0.163388 0.341575
19400 2 0.0385793 0.165425 0.331275
3106 1 0.0390823 0.162582 0.353884
603 1 0.062623 0.164077 0.339401
13663 1 0.0652663 0.164198 0.338896
13665 1 0.0808614 0.164113 0.335296
2635 1 0.0833456 0.163866 0.333203
2636 2 0.0890779 0.162524 0.327853
13664 2 0.073673 0.164539 0.338814
6342 1 0.0733431 0.176663 0.352852
11232 1 0.0738611 0.174047 0.354262
8572 1 0.0930628 0.167419 0.351251
138 1 0.0932303 0.170014 0.35208
137 2 0.0934587 0.176648 0.354119
6108 1 0.113331 0.168142 0.322803
18628 1 0.117145 0.151755 0.330448
18880 1 0.11788 0.15303 0.332827
8574 1 0.099616 0.152967 0.347614
18881 2 0.120634 0.156616 0.339186
18882 1 0.121982 0.164592 0.339117
3928 1 0.122935 0.167221 0.338969
2637 1 0.096253 0.164767 0.327685
6107 2 0.107481 0.167139 0.327558
6106 1 0.0993131 0.165611 0.327416
8573 2 0.0942597 0.158784 0.348674
3929 2 0.125737 0.174343 0.338126
12518 2 0.0590789 0.194262 0.323455
12519 1 0.0572735 0.194926 0.330008
4535 2 0.0507678 0.186177 0.352949
4534 1 0.0538175 0.192713 0.350918
14316 1 0.0553566 0.195762 0.350054
14315 2 0.0596834 0.203122 0.348482
8037 1 0.082804 0.183072 0.323388
14104 1 0.0815734 0.183022 0.326062
14106 1 0.074838 0.18461 0.339369
6340 1 0.0738732 0.184498 0.341897
6341 2 0.0708461 0.182449 0.348679
14105 2 0.0776013 0.185264 0.332102
14314 1 0.067293 0.205437 0.348022
2833 1 0.0831393 0.21161 0.323957
16382 2 0.0773559 0.209341 0.346835
16383 1 0.0699962 0.206314 0.347843
16381 1 0.0844441 0.209993 0.343996
9250 1 0.0878128 0.210855 0.342699
2834 2 0.0862484 0.204243 0.322851
6804 1 0.10418 0.19624 0.337962
6803 2 0.103042 0.188439 0.335929
6802 1 0.10438 0.189161 0.328736
6033 1 0.105974 0.188969 0.325948
9252 1 0.102713 0.207121 0.340197
9251 2 0.0949234 0.210863 0.341059
10305 1 0.105922 0.206348 0.340093
10304 2 0.114514 0.205156 0.33906
28 1 0.121676 0.19718 0.340605
10303 1 0.119611 0.199328 0.339841
29 2 0.126904 0.192497 0.34352
3930 1 0.12723 0.181991 0.340139
30 1 0.127504 0.18545 0.341115
10512 1 0.081685 0.214217 0.324009
10510 1 0.0725859 0.228011 0.325927
10511 2 0.0770795 0.22167 0.325107
20469 1 0.0274287 0.998464 0.335687
1533 1 0.0298322 0.999996 0.334853
20468 3 0.0200289 0.99458 0.336711
20467 1 0.0149647 0.998231 0.34263
9688 1 0.0803633 0.992455 0.328821
9689 3 0.0874215 0.993922 0.330903
10138 1 0.0979757 0.994709 0.325998
9690 1 0.0951009 0.994466 0.327594
13264 1 0.0165465 0.00847193 0.37096
13265 2 0.0199304 0.0142283 0.366724
13266 1 0.0248375 0.0193778 0.364201
15010 1 0.0272235 0.0212778 0.363729
10220 2 0.0437903 0.00467076 0.355829
15011 2 0.0328706 0.0252379 0.362978
2099 2 0.0656252 0.0245433 0.358075
2100 1 0.0629498 0.0288036 0.36439
9404 2 0.0065993 0.0581759 0.382824
18779 2 0.0190369 0.0448522 0.36575
18780 1 0.0122288 0.0452217 0.361123