ITEM: TIMESTEP
35000000
ITEM: NUMBER OF ENTRIES
6570
ITEM: BOX BOUNDS pp pp pp
0 50
0 50
0 50
ITEM: ENTRIES c_binfo[1] c_binfo[2] c_binfo[3] 
3 3136 3137 
1 15270 17481 
3 15268 15269 
3 15269 15270 
2 17480 17481 
2 5896 5897 
2 5897 5898 
2 14246 14247 
2 14245 14246 
1 14245 15268 
2 16570 16571 
2 16571 16572 
2 1786 1787 
2 131 132 
2 130 131 
1 130 18328 
2 14708 14709 
2 14707 14708 
2 6455 6456 
2 6454 6455 
2 4420 4421 
3 13375 13376 
1 6456 13375 
3 13376 13377 
1 4422 9091 
2 4421 4422 
2 9092 9093 
2 9091 9092 
3 11462 11463 
3 3022 3023 
1 3022 21174 
3 3023 3024 
1 13590 15807 
3 13589 13590 
3 13588 13589 
3 11461 11462 
1 11461 12273 
3 21172 21173 
1 11463 21172 
3 21173 21174 
2 21514 21515 
2 21515 21516 
3 18217 18218 
1 18217 21514 
3 18218 18219 
2 11290 11291 
2 6058 6059 
2 6059 6060 
1 6060 17487 
3 17476 17477 
2 3161 3162 
1 3162 17476 
2 3160 3161 
2 4967 4968 
2 4966 4967 
1 4966 9951 
3 11236 11237 
2 9290 9291 
2 9289 9290 
3 17477 17478 
2 9949 9950 
2 9950 9951 
3 19034 19035 
2 3869 3870 
2 3868 3869 
3 2318 2319 
3 10102 10103 
3 10103 10104 
1 10104 18124 
2 18124 18125 
2 18125 18126 
2 14266 14267 
1 6234 14266 
2 6232 6233 
2 6233 6234 
3 5066 5067 
1 5067 6232 
3 5065 5066 
3 16258 16259 
1 6165 16258 
2 6164 6165 
2 6163 6164 
2 1012 1013 
1 1012 17625 
2 17624 17625 
2 13964 13965 
2 988 989 
1 988 18678 
2 989 990 
2 18677 18678 
2 18715 18716 
2 18716 18717 
3 7600 7601 
3 7601 7602 
2 11767 11768 
2 11381 11382 
2 11380 11381 
3 19820 19821 
3 19819 19820 
3 3137 3138 
2 17479 17480 
3 3823 3824 
3 3824 3825 
2 4486 4487 
2 4487 4488 
3 5981 5982 
3 4748 4749 
3 4747 4748 
1 4747 15372 
1 4749 21201 
3 21199 21200 
3 21200 21201 
2 14651 14652 
2 14650 14651 
3 8561 8562 
3 8560 8561 
2 1928 1929 
3 5098 5099 
2 1927 1928 
1 1927 5098 
2 11638 11639 
1 11638 15169 
3 15170 15171 
3 15169 15170 
2 11639 11640 
1 1788 15171 
2 1787 1788 
2 3592 3593 
2 3593 3594 
3 6608 6609 
3 6607 6608 
3 8311 8312 
1 63 8313 
3 8312 8313 
2 14095 14096 
2 14096 14097 
2 14183 14184 
2 14182 14183 
3 2320 2321 
3 2321 2322 
2 19108 19109 
2 19109 19110 
2 17885 17886 
2 17884 17885 
2 11291 11292 
3 16219 16220 
1 16221 18535 
2 18535 18536 
2 18536 18537 
2 15274 15275 
1 15274 17485 
3 17486 17487 
3 17485 17486 
2 15275 15276 
3 7331 7332 
3 7330 7331 
3 17168 17169 
3 16220 16221 
3 9067 9068 
1 9067 9291 
3 9068 9069 
3 2317 2318 
3 3326 3327 
3 5534 5535 
3 5533 5534 
3 3325 3326 
3 16259 16260 
1 15813 20863 
2 17623 17624 
1 17623 20865 
2 20864 20865 
2 20863 20864 
3 7273 7274 
2 15820 15821 
1 7275 15820 
3 7274 7275 
2 15812 15813 
2 15821 15822 
3 1954 1955 
1 1954 15822 
3 1955 1956 
1 1956 6729 
2 6728 6729 
3 149 150 
2 6727 6728 
2 11768 11769 
3 11257 11258 
3 11258 11259 
2 2233 2234 
2 2234 2235 
3 18649 18650 
3 18650 18651 
3 2711 2712 
3 14626 14627 
3 2710 2711 
1 2710 14626 
3 14627 14628 
2 613 614 
2 614 615 
1 18873 19836 
3 18872 18873 
3 18871 18872 
2 2048 2049 
2 2047 2048 
3 11138 11139 
3 11137 11138 
2 15370 15371 
2 15371 15372 
3 5099 5100 
3 12805 12806 
2 12212 12213 
2 12211 12212 
3 19934 19935 
3 12806 12807 
3 19933 19934 
2 7262 7263 
2 7261 7262 
2 1331 1332 
3 998 999 
3 997 998 
3 62 63 
3 61 62 
1 61 15343 
2 15343 15344 
2 15344 15345 
2 11897 11898 
3 12779 12780 
3 12778 12779 
1 12778 17884 
3 12365 12366 
3 12364 12365 
3 14738 14739 
3 14737 14738 
1 12366 14737 
3 17167 17168 
3 8962 8963 
3 8963 8964 
3 8969 8970 
3 8968 8969 
2 14513 14514 
2 14512 14513 
3 8665 8666 
3 8666 8667 
2 19600 19601 
1 2337 14512 
3 343 344 
3 5158 5159 
3 5159 5160 
2 19601 19602 
3 5251 5252 
3 5252 5253 
2 10073 10074 
2 10072 10073 
1 10072 17949 
3 3430 3431 
3 17948 17949 
3 17947 17948 
3 10600 10601 
3 10601 10602 
3 3431 3432 
2 17021 17022 
2 17020 17021 
3 148 149 
2 20302 20303 
2 20303 20304 
1 9297 20304 
3 1559 1560 
3 1558 1559 
3 21341 21342 
3 21340 21341 
3 20734 20735 
3 13172 13173 
3 13171 13172 
3 20735 20736 
2 19255 19256 
2 19256 19257 
2 19834 19835 
2 19835 19836 
2 9277 9278 
2 9278 9279 
1 2688 9279 
3 2687 2688 
3 2686 2687 
2 9559 9560 
2 7588 7589 
1 7588 9559 
2 9560 9561 
2 7589 7590 
1 2214 9561 
3 374 375 
2 19363 19364 
1 375 19363 
2 21512 21513 
2 21511 21512 
3 2213 2214 
2 21068 21069 
1 20874 21067 
2 21067 21068 
2 15614 15615 
2 15613 15614 
1 6891 15613 
3 6890 6891 
3 6889 6890 
3 8467 8468 
3 4058 4059 
3 20872 20873 
3 4057 4058 
1 4057 20872 
3 20873 20874 
3 8468 8469 
1 4086 8403 
3 4085 4086 
3 4084 4085 
1 4084 8469 
2 17815 17816 
2 17816 17817 
3 15758 15759 
3 15757 15758 
1 12303 15757 
2 12302 12303 
2 12301 12302 
1 12301 13578 
3 2696 2697 
3 2695 2696 
2 5833 5834 
2 1330 1331 
1 1330 16833 
2 16831 16832 
2 16832 16833 
3 1799 1800 
2 5834 5835 
2 4589 4590 
3 17174 17175 
3 17173 17174 
3 1798 1799 
1 1798 17173 
2 883 884 
1 883 16651 
2 884 885 
2 11896 11897 
1 11896 16653 
3 16652 16653 
3 16651 16652 
1 885 13015 
2 13015 13016 
2 13016 13017 
3 16154 16155 
3 16153 16154 
3 6299 6300 
3 6298 6299 
2 13198 13199 
1 6300 10411 
2 10411 10412 
2 10412 10413 
2 13199 13200 
2 10775 10776 
2 17131 17132 
2 10774 10775 
1 10774 17131 
2 17132 17133 
3 9226 9227 
1 9226 17133 
3 18359 18360 
3 18358 18359 
2 9074 9075 
2 9073 9074 
3 9227 9228 
2 11071 11072 
2 11072 11073 
3 2335 2336 
3 2336 2337 
2 7706 7707 
2 7705 7706 
2 17069 17070 
2 9166 9167 
2 9167 9168 
2 682 683 
1 684 17070 
2 683 684 
3 1903 1904 
2 19604 19605 
2 19603 19604 
2 17068 17069 
2 19126 19127 
2 19127 19128 
1 19128 19597 
3 19597 19598 
3 19598 19599 
2 19366 19367 
2 19367 19368 
2 17315 17316 
2 17314 17315 
2 592 593 
1 592 17314 
2 593 594 
3 12373 12374 
2 13271 13272 
2 13270 13271 
3 2659 2660 
3 6130 6131 
3 6131 6132 
3 373 374 
3 5332 5333 
3 5333 5334 
3 2212 2213 
2 4006 4007 
2 21347 21348 
2 21346 21347 
2 9979 9980 
1 9979 15615 
2 9980 9981 
2 8402 8403 
2 4007 4008 
2 8401 8402 
1 4008 8401 
3 4738 4739 
3 4739 4740 
3 13414 13415 
2 15182 15183 
2 12085 12086 
2 12086 12087 
2 13576 13577 
2 13577 13578 
3 3472 3473 
3 3473 3474 
2 15181 15182 
1 3474 15181 
3 12131 12132 
3 12130 12131 
1 12130 14158 
2 14158 14159 
2 14159 14160 
2 4588 4589 
3 11582 11583 
2 5860 5861 
2 5861 5862 
2 15499 15500 
2 15500 15501 
2 10169 10170 
1 10170 16950 
3 16949 16950 
3 16948 16949 
2 3763 3764 
2 3764 3765 
3 17713 17714 
1 17713 20092 
2 20093 20094 
2 20092 20093 
3 17714 17715 
3 20510 20511 
3 15548 15549 
3 15547 15548 
3 14768 14769 
3 14767 14768 
3 20509 20510 
2 5237 5238 
2 5236 5237 
3 6743 6744 
3 6742 6743 
3 2096 2097 
2 13906 13907 
2 13907 13908 
1 1905 3846 
3 1904 1905 
3 6880 6881 
3 6881 6882 
2 3844 3845 
2 3845 3846 
2 1433 1434 
2 1432 1433 
3 18431 18432 
3 5902 5903 
1 5902 18432 
3 18430 18431 
3 14371 14372 
2 4280 4281 
3 21040 21041 
3 21041 21042 
3 14372 14373 
2 4279 4280 
3 12710 12711 
3 12709 12710 
2 244 245 
2 245 246 
2 4298 4299 
3 18442 18443 
1 4299 18442 
2 4297 4298 
3 1826 1827 
3 1825 1826 
3 14333 14334 
3 14332 14333 
2 8093 8094 
2 8092 8093 
2 8905 8906 
1 8905 13185 
2 8906 8907 
3 5341 5342 
1 5341 8092 
3 5342 5343 
1 5343 18703 
2 13184 13185 
2 13183 13184 
2 8545 8546 
2 8546 8547 
2 2528 2529 
3 10016 10017 
1 10017 16569 
3 10015 10016 
1 10015 18573 
3 18572 18573 
3 18571 18572 
2 2527 2528 
1 3 2527 
3 2 3 
3 1 2 
1 1 9508 
3 9508 9509 
3 9509 9510 
3 12374 12375 
2 13285 13286 
2 13286 13287 
2 8824 8825 
2 1258 1259 
2 1259 1260 
1 1260 2661 
3 2660 2661 
3 6809 6810 
3 6808 6809 
1 594 6810 
2 6739 6740 
2 6740 6741 
3 10120 10121 
3 10121 10122 
2 2339 2340 
2 2338 2339 
3 21508 21509 
3 21509 21510 
3 21415 21416 
1 21415 21510 
3 21416 21417 
2 2923 2924 
1 2923 21417 
3 18754 18755 
3 18755 18756 
2 4999 5000 
2 5000 5001 
2 1010 1011 
2 1009 1010 
1 1009 2718 
2 17882 17883 
2 8693 8694 
1 8694 11346 
2 8692 8693 
1 8692 13416 
3 13415 13416 
2 18458 18459 
2 18457 18458 
2 4646 4647 
2 6830 6831 
2 6829 6830 
1 4647 6829 
2 19574 19575 
2 4645 4646 
1 4645 14160 
2 19573 19574 
3 19309 19310 
3 19310 19311 
2 18862 18863 
1 18862 19311 
2 18863 18864 
1 11583 18864 
1 10335 11581 
3 11581 11582 
3 10334 10335 
3 10333 10334 
2 10513 10514 
2 16750 16751 
2 16751 16752 
2 13397 13398 
2 13396 13397 
2 10168 10169 
3 20693 20694 
3 20692 20693 
2 5396 5397 
2 5395 5396 
1 5395 5421 
3 5419 5420 
1 5419 6691 
3 5420 5421 
3 9793 9794 
1 5397 9793 
3 9794 9795 
2 20096 20097 
2 20984 20985 
2 20095 20096 
1 20095 20983 
2 20983 20984 
2 16546 16547 
2 16547 16548 
3 2095 2096 
3 9766 9767 
3 9767 9768 
3 5903 5904 
3 21277 21278 
3 21278 21279 
3 18443 18444 
3 13315 13316 
1 13315 13723 
3 13724 13725 
3 13723 13724 
2 14599 14600 
2 14600 14601 
2 18704 18705 
2 18703 18704 
2 15250 15251 
2 15251 15252 
2 1864 1865 
2 16568 16569 
2 15644 15645 
2 15643 15644 
2 16567 16568 
1 13287 16567 
2 8825 8826 
2 15143 15144 
2 15142 15143 
2 2924 2925 
3 11693 11694 
3 11692 11693 
2 11146 11147 
2 11147 11148 
2 11729 11730 
2 11728 11729 
3 15046 15047 
3 15047 15048 
3 18803 18804 
3 18802 18803 
3 12952 12953 
1 12952 18804 
1 11331 18802 
3 11329 11330 
1 11329 16390 
3 16390 16391 
3 11330 11331 
3 16391 16392 
2 2717 2718 
2 2716 2717 
1 2716 16821 
3 16820 16821 
2 7180 7181 
2 7181 7182 
3 14380 14381 
3 14425 14426 
3 14381 14382 
1 14382 14425 
2 17881 17882 
2 11345 11346 
3 8653 8654 
1 8653 11344 
2 11344 11345 
3 8654 8655 
3 17755 17756 
3 17756 17757 
3 19751 19752 
3 19750 19751 
2 19147 19148 
1 4335 19149 
2 19148 19149 
2 2549 2550 
2 2548 2549 
2 1784 1785 
2 1783 1784 
2 15298 15299 
2 15299 15300 
2 10514 10515 
3 2221 2222 
3 2222 2223 
3 9428 9429 
3 9427 9428 
1 9427 9696 
2 9695 9696 
2 20071 20072 
2 9868 9869 
1 9868 20071 
2 9869 9870 
2 8540 8541 
2 8539 8540 
2 6692 6693 
2 6691 6692 
2 20411 20412 
2 20410 20411 
3 15692 15693 
3 15691 15692 
2 11317 11318 
2 11318 11319 
1 10290 11319 
2 7462 7463 
1 7464 17871 
3 17870 17871 
2 7463 7464 
3 4142 4143 
3 6758 6759 
3 6757 6758 
3 4141 4142 
1 4141 6757 
3 11675 11676 
3 11674 11675 
1 11674 19474 
3 19474 19475 
3 19475 19476 
3 17869 17870 
2 14980 14981 
2 14981 14982 
2 11521 11522 
2 11522 11523 
2 4288 4289 
2 4289 4290 
2 18362 18363 
2 10828 10829 
1 10828 18361 
2 18361 18362 
2 10829 10830 
3 1481 1482 
3 1480 1481 
1 1480 11002 
3 11002 11003 
2 4480 4481 
1 4480 11004 
3 11003 11004 
2 4481 4482 
2 7643 7644 
3 21316 21317 
2 7642 7643 
1 7642 21316 
3 1099 1100 
3 18667 18668 
3 18668 18669 
1 7644 10342 
2 10342 10343 
2 10343 10344 
1 10344 17241 
2 1865 1866 
2 17240 17241 
1 10572 13900 
3 13900 13901 
2 17239 17240 
2 18541 18542 
1 13902 18541 
3 13901 13902 
2 18542 18543 
2 10571 10572 
2 10570 10571 
2 1769 1770 
2 1768 1769 
3 12655 12656 
2 17540 17541 
2 17539 17540 
3 1847 1848 
2 2411 2412 
2 2410 2411 
2 8041 8042 
1 8041 17859 
2 8042 8043 
2 17857 17858 
2 17858 17859 
3 32 33 
3 4735 4736 
1 4735 8043 
3 4736 4737 
3 31 32 
1 31 4737 
3 12953 12954 
3 1579 1580 
3 1580 1581 
3 16819 16820 
2 10372 10373 
1 10372 16819 
2 10373 10374 
1 10374 11628 
3 11627 11628 
3 11474 11475 
3 11473 11474 
2 19739 19740 
2 19738 19739 
3 14426 14427 
2 21308 21309 
3 4333 4334 
3 10498 10499 
3 10499 10500 
3 4334 4335 
3 21412 21413 
2 21532 21533 
3 15709 15710 
3 15710 15711 
3 21413 21414 
3 11821 11822 
3 11822 11823 
3 15556 15557 
3 15557 15558 
3 12424 12425 
3 12425 12426 
3 6494 6495 
3 16013 16014 
3 20129 20130 
3 20128 20129 
3 6493 6494 
2 13336 13337 
2 13337 13338 
2 5567 5568 
2 5566 5567 
2 3028 3029 
1 3028 5566 
2 3029 3030 
3 19456 19457 
1 3030 19456 
3 19457 19458 
3 3851 3852 
3 3850 3851 
2 9694 9695 
3 12892 12893 
3 12893 12894 
2 13384 13385 
2 13385 13386 
1 4509 17236 
3 4507 4508 
3 4508 4509 
2 13750 13751 
1 13750 17238 
3 17237 17238 
3 17236 17237 
2 13751 13752 
2 20072 20073 
2 5384 5385 
3 2624 2625 
1 2625 8157 
3 8156 8157 
3 3973 3974 
3 3974 3975 
3 8155 8156 
3 10288 10289 
3 10289 10290 
3 21205 21206 
3 21206 21207 
2 16727 16728 
2 16726 16727 
2 20669 20670 
2 20668 20669 
2 19900 19901 
2 19901 19902 
3 20741 20742 
3 20740 20741 
2 8246 8247 
2 8245 8246 
1 8245 10830 
2 5818 5819 
2 5819 5820 
1 1482 17781 
3 17780 17781 
3 17779 17780 
3 18154 18155 
1 5820 18154 
3 18155 18156 
2 8464 8465 
2 8465 8466 
3 21317 21318 
3 1100 1101 
1 1101 10917 
2 10915 10916 
3 6325 6326 
1 6325 10915 
2 10916 10917 
3 14150 14151 
3 14149 14150 
2 5716 5717 
2 5717 5718 
3 17761 17762 
3 17762 17763 
3 16486 16487 
3 16487 16488 
2 6355 6356 
2 14120 14121 
3 3608 3609 
1 3609 17541 
3 3607 3608 
3 12656 12657 
3 14968 14969 
3 1846 1847 
3 19868 19869 
3 19867 19868 
2 2332 2333 
1 2332 19867 
2 2333 2334 
2 18730 18731 
1 1581 18732 
2 18731 18732 
3 11626 11627 
1 11487 11626 
2 11486 11487 
2 11485 11486 
3 7082 7083 
3 7081 7082 
1 7081 11475 
2 20665 20666 
2 20666 20667 
2 21307 21308 
3 4613 4614 
3 4612 4613 
1 4612 12351 
3 7040 7041 
3 7039 7040 
2 3103 3104 
1 3103 7039 
2 3104 3105 
2 14453 14454 
2 14452 14453 
2 14992 14993 
2 1108 1109 
2 1109 1110 
2 21533 21534 
2 7357 7358 
2 7358 7359 
1 7359 11823 
3 21245 21246 
3 21244 21245 
2 7030 7031 
1 7030 16012 
3 16012 16013 
2 7031 7032 
3 6413 6414 
3 6412 6413 
3 3562 3563 
3 3563 3564 
1 3564 5460 
3 6689 6690 
2 5458 5459 
1 5458 6690 
3 6688 6689 
2 5459 5460 
3 14858 14859 
3 17143 17144 
2 19846 19847 
2 19847 19848 
3 5107 5108 
3 17144 17145 
3 10855 10856 
1 357 10855 
2 356 357 
2 355 356 
1 355 10485 
3 10484 10485 
3 5108 5109 
1 5109 5757 
3 5755 5756 
3 5756 5757 
2 17180 17181 
2 17179 17180 
2 5383 5384 
3 10483 10484 
1 10483 12637 
2 12637 12638 
3 19244 19245 
3 19243 19244 
2 12007 12008 
2 12008 12009 
2 7934 7935 
2 7933 7934 
3 14228 14229 
3 14227 14228 
3 2623 2624 
1 2623 14227 
2 166 167 
2 167 168 
2 20711 20712 
3 415 416 
3 416 417 
3 21472 21473 
3 21473 21474 
2 12908 12909 
3 5986 5987 
1 5986 12909 
3 5987 5988 
3 10025 10026 
3 10024 10025 
3 16706 16707 
3 16705 16706 
2 15665 15666 
2 15664 15665 
1 15664 16707 
3 19357 19358 
3 10990 10991 
1 10990 11872 
2 11872 11873 
2 11873 11874 
3 6326 6327 
3 15653 15654 
1 6861 15652 
3 6860 6861 
3 15652 15653 
1 10992 15654 
3 10991 10992 
3 20461 20462 
3 20462 20463 
3 19816 19817 
3 6859 6860 
2 6356 6357 
2 14119 14120 
3 14969 14970 
2 7774 7775 
1 1155 7774 
2 7775 7776 
3 1154 1155 
3 1153 1154 
2 18308 18309 
2 18307 18308 
3 20714 20715 
3 20713 20714 
3 16169 16170 
3 16168 16169 
2 12350 12351 
2 12349 12350 
1 12349 19650 
2 19649 19650 
2 19648 19649 
3 21388 21389 
3 21389 21390 
1 12135 21390 
1 12417 19965 
2 12416 12417 
2 12415 12416 
3 14921 14922 
2 7073 7074 
2 7072 7073 
1 7074 14920 
3 14920 14921 
2 3842 3843 
2 3841 3842 
2 14993 14994 
2 8209 8210 
1 8209 18075 
2 8210 8211 
2 9235 9236 
3 18074 18075 
2 9236 9237 
1 9237 18073 
3 18073 18074 
2 7876 7877 
1 7876 9235 
3 10843 10844 
3 10844 10845 
3 2822 2823 
1 2823 8211 
3 2821 2822 
3 11828 11829 
1 3684 11829 
3 3683 3684 
3 3682 3683 
1 3682 14857 
3 14857 14858 
3 9658 9659 
2 7654 7655 
1 7654 9658 
2 7655 7656 
3 9659 9660 
1 9660 13998 
2 13997 13998 
2 13996 13997 
2 1901 1902 
3 1474 1475 
3 1475 1476 
3 19912 19913 
3 19913 19914 
3 10856 10857 
3 5126 5127 
3 5125 5126 
1 5125 19914 
1 5127 9130 
3 9130 9131 
3 20498 20499 
3 4231 4232 
1 4231 20497 
3 4232 4233 
3 20497 20498 
3 19951 19952 
3 19952 19953 
3 9131 9132 
2 12638 12639 
3 3919 3920 
1 3919 12639 
3 3920 3921 
1 3921 16087 
3 16087 16088 
3 16088 16089 
1 6498 16089 
2 6497 6498 
2 6496 6497 
3 14863 14864 
3 14864 14865 
2 20710 20711 
2 13579 13580 
2 13580 13581 
2 13219 13220 
2 13220 13221 
2 12907 12908 
2 11620 11621 
2 11621 11622 
2 7666 7667 
2 7667 7668 
3 17288 17289 
3 17287 17288 
2 1343 1344 
2 1342 1343 
1 1342 14676 
3 2105 2106 
1 2106 5523 
2 5522 5523 
2 5521 5522 
1 5521 5683 
3 14674 14675 
3 14675 14676 
3 19358 19359 
3 65 66 
1 66 19359 
3 64 65 
3 2104 2105 
3 20753 20754 
3 2513 2514 
1 2514 20752 
3 20752 20753 
2 7846 7847 
2 7847 7848 
2 11135 11136 
2 11134 11135 
1 11136 18741 
2 6538 6539 
2 6539 6540 
3 18740 18741 
3 19817 19818 
3 2512 2513 
1 2512 19818 
3 3487 3488 
3 6434 6435 
3 6433 6434 
1 6433 12589 
3 12589 12590 
3 12590 12591 
3 18739 18740 
3 3488 3489 
3 17512 17513 
1 2364 17514 
3 17513 17514 
3 2362 2363 
3 2363 2364 
2 457 458 
2 458 459 
3 832 833 
3 833 834 
1 834 10615 
3 10615 10616 
3 11570 11571 
3 11569 11570 
3 10616 10617 
1 795 10617 
2 794 795 
2 793 794 
1 793 5355 
3 10300 10301 
3 10301 10302 
3 10027 10028 
1 10027 10302 
3 10028 10029 
1 6918 10300 
2 5354 5355 
2 5353 5354 
2 6917 6918 
2 17462 17463 
2 17461 17462 
3 12133 12134 
3 12134 12135 
2 19964 19965 
2 19963 19964 
2 7877 7878 
3 18235 18236 
3 18236 18237 
2 14588 14589 
2 14587 14588 
3 19159 19160 
3 19160 19161 
2 3616 3617 
2 3617 3618 
3 175 176 
1 175 3618 
2 20915 20916 
2 20914 20915 
2 10190 10191 
2 10189 10190 
3 11827 11828 
2 5416 5417 
2 5417 5418 
2 1900 1901 
1 5418 16798 
2 16798 16799 
2 16799 16800 
3 5542 5543 
2 19249 19250 
2 1487 1488 
2 1486 1487 
2 2428 2429 
1 1488 2428 
3 5543 5544 
3 17126 17127 
3 20900 20901 
3 20899 20900 
3 110 111 
3 109 110 
3 10742 10743 
3 10741 10742 
2 4069 4070 
2 4070 4071 
2 14486 14487 
1 14487 15871 
3 15872 15873 
3 15871 15872 
2 14485 14486 
3 17047 17048 
3 17048 17049 
2 2936 2937 
2 2935 2936 
3 2773 2774 
3 2774 2775 
2 15067 15068 
2 15068 15069 
2 4463 4464 
2 4462 4463 
1 4462 13086 
3 13084 13085 
3 13085 13086 
3 20615 20616 
3 20614 20615 
3 2117 2118 
3 2116 2117 
1 2116 5685 
2 7280 7281 
3 3817 3818 
3 3818 3819 
3 5683 5684 
3 5684 5685 
2 10553 10554 
2 10552 10553 
3 18352 18353 
1 10554 18354 
3 18353 18354 
3 4522 4523 
3 4523 4524 
3 1910 1911 
2 2285 2286 
2 14840 14841 
1 14841 17007 
2 14839 14840 
3 17005 17006 
3 17006 17007 
2 21491 21492 
3 13096 13097 
3 13097 13098 
3 1909 1910 
2 21490 21491 
3 1654 1655 
3 1655 1656 
2 18010 18011 
2 18011 18012 
3 4411 4412 
2 6293 6294 
3 21518 21519 
3 21517 21518 
2 20788 20789 
1 20788 20850 
2 20789 20790 
3 20848 20849 
3 20849 20850 
2 13732 13733 
2 13733 13734 
2 220 221 
2 221 222 
1 9915 20986 
2 9914 9915 
2 9913 9914 
1 807 9913 
2 20986 20987 
2 3946 3947 
2 3947 3948 
3 17576 17577 
3 17575 17576 
2 9322 9323 
2 9323 9324 
2 9626 9627 
3 12634 12635 
1 12634 17940 
3 12635 12636 
2 5410 5411 
2 5411 5412 
2 6916 6917 
3 19342 19343 
3 19343 19344 
2 11422 11423 
2 11423 11424 
3 505 506 
3 12688 12689 
3 12689 12690 
3 176 177 
2 10538 10539 
1 177 10537 
2 10537 10538 
3 10700 10701 
3 10699 10700 
2 11371 11372 
2 19250 19251 
1 2430 5544 
2 2429 2430 
3 17125 17126 
2 4169 4170 
2 4168 4169 
2 4337 4338 
2 4336 4337 
2 3250 3251 
2 3251 3252 
2 11213 11214 
3 5224 5225 
1 5224 15873 
3 5225 5226 
1 2040 5226 
3 2039 2040 
3 2038 2039 
1 2038 17379 
2 4145 4146 
2 2839 2840 
2 4144 4145 
2 2840 2841 
2 18055 18056 
3 19460 19461 
3 19459 19460 
2 18056 18057 
1 18057 19461 
3 8791 8792 
3 8792 8793 
2 4960 4961 
2 7279 7280 
2 6202 6203 
2 4961 4962 
3 539 540 
3 13784 13785 
3 13783 13784 
1 540 13783 
3 538 539 
3 15580 15581 
3 15581 15582 
2 2284 2285 
1 2284 20943 
2 20941 20942 
2 20942 20943 
2 6203 6204 
1 3273 21492 
2 3272 3273 
3 13393 13394 
2 3271 3272 
1 3271 13393 
3 13394 13395 
3 9976 9977 
3 11536 11537 
3 11537 11538 
3 9977 9978 
2 20065 20066 
2 20066 20067 
3 4412 4413 
2 6292 6293 
3 16795 16796 
1 10059 16795 
3 16796 16797 
3 12640 12641 
3 5299 5300 
1 5299 20988 
2 20987 20988 
3 12641 12642 
3 5300 5301 
2 12790 12791 
2 12791 12792 
1 8934 12792 
3 8932 8933 
3 8933 8934 
2 21265 21266 
2 21266 21267 
3 1147 1148 
2 9625 9626 
1 9625 17938 
3 17938 17939 
3 17939 17940 
2 335 336 
1 336 1149 
3 1148 1149 
3 701 702 
3 18805 18806 
3 18806 18807 
3 712 713 
3 713 714 
3 17609 17610 
3 17608 17609 
3 506 507 
3 9002 9003 
3 10928 10929 
3 10927 10928 
3 9001 9002 
1 9001 10929 
1 9003 14017 
2 9356 9357 
2 9355 9356 
2 7745 7746 
2 7744 7745 
1 7744 9634 
3 9634 9635 
3 9635 9636 
3 13052 13053 
1 7863 13051 
3 7862 7863 
3 13051 13052 
3 7861 7862 
2 17642 17643 
1 12438 17643 
2 10894 10895 
2 10895 10896 
2 12436 12437 
2 12437 12438 
1 11373 14466 
2 11372 11373 
3 14465 14466 
3 14464 14465 
3 5878 5879 
3 5879 5880 
3 7622 7623 
3 7621 7622 
2 15032 15033 
2 2870 2871 
2 2869 2870 
2 15031 15032 
3 14432 14433 
3 18709 18710 
3 18710 18711 
3 16009 16010 
1 16009 18709 
3 19279 19280 
2 17206 17207 
2 17207 17208 
3 4036 4037 
1 4036 17208 
3 19280 19281 
3 4037 4038 
2 11212 11213 
2 19024 19025 
2 2083 2084 
2 2084 2085 
2 6280 6281 
1 6280 18181 
2 6281 6282 
3 18182 18183 
3 18181 18182 
2 17378 17379 
2 17377 17378 
1 11589 17377 
2 16420 16421 
1 16420 19026 
2 19025 19026 
2 11588 11589 
2 11587 11588 
2 7451 7452 
3 8695 8696 
2 7450 7451 
1 7450 8695 
3 10810 10811 
2 2276 2277 
1 2277 10810 
3 10811 10812 
2 2275 2276 
1 2275 8697 
3 8696 8697 
2 3454 3455 
2 3455 3456 
2 1208 1209 
1 1209 12054 
2 1207 1208 
1 1207 3456 
3 12053 12054 
3 12052 12053 
1 12052 12627 
3 9448 9449 
3 9449 9450 
3 4600 4601 
1 4600 9450 
3 4601 4602 
3 12625 12626 
3 12626 12627 
3 2672 2673 
3 2671 2672 
1 2671 2841 
3 7697 7698 
3 18460 18461 
1 7698 18462 
3 18461 18462 
3 1792 1793 
3 1793 1794 
3 16045 16046 
2 12190 12191 
1 12190 16045 
3 16046 16047 
2 12191 12192 
3 8149 8150 
3 8150 8151 
3 19861 19862 
3 19862 19863 
3 15680 15681 
2 19316 19317 
3 15679 15680 
2 19315 19316 
3 7288 7289 
3 7289 7290 
2 10058 10059 
2 10057 10058 
2 805 806 
1 805 4225 
3 4225 4226 
3 4226 4227 
2 806 807 
3 16333 16334 
3 16334 16335 
2 21560 21561 
2 18556 18557 
2 18557 18558 
1 5664 6807 
3 6806 6807 
3 5662 5663 
3 5663 5664 
2 7016 7017 
2 7015 7016 
2 19525 19526 
2 19526 19527 
2 14804 14805 
2 14803 14804 
2 334 335 
3 902 903 
3 901 902 
3 700 701 
2 10780 10781 
2 10781 10782 
2 14017 14018 
2 14018 14019 
2 11948 11949 
2 11947 11948 
3 10286 10287 
3 2966 2967 
3 2965 2966 
1 2965 10287 
3 10285 10286 
3 10328 10329 
3 15886 15887 
3 15887 15888 
3 10327 10328 
1 10327 17641 
2 17641 17642 
3 14882 14883 
2 256 257 
1 256 14883 
2 257 258 
3 14881 14882 
3 19285 19286 
3 7184 7185 
3 7183 7184 
3 17321 17322 
1 708 10632 
3 1499 1500 
3 1498 1499 
1 1498 17322 
3 17320 17321 
2 706 707 
2 707 708 
3 10631 10632 
3 10630 10631 
3 14431 14432 
3 7579 7580 
3 7580 7581 
3 7949 7950 
3 7948 7949 
3 16010 16011 
1 9831 18700 
2 18700 18701 
2 18701 18702 
3 9830 9831 
3 9829 9830 
2 2122 2123 
1 2122 9829 
2 2123 2124 
2 15326 15327 
2 15325 15326 
3 2537 2538 
3 2536 2537 
1 2536 5875 
2 5875 5876 
2 7565 7566 
2 7564 7565 
3 17966 17967 
3 17965 17966 
2 17491 17492 
1 15327 17491 
2 17492 17493 
2 5876 5877 
1 5877 14157 
3 14156 14157 
3 14155 14156 
2 16421 16422 
3 12611 12612 
3 10277 10278 
3 12610 12611 
1 10278 12610 
3 15755 15756 
3 15754 15755 
2 12001 12002 
2 512 513 
2 9310 9311 
2 9311 9312 
2 511 512 
1 511 9310 
2 11699 11700 
3 6482 6483 
3 6481 6482 
2 12002 12003 
2 1669 1670 
2 11590 11591 
3 5308 5309 
1 5308 11592 
3 5309 5310 
1 5310 16041 
2 11591 11592 
3 16040 16041 
3 16039 16040 
2 10267 10268 
2 10268 10269 
3 7696 7697 
2 18787 18788 
2 17000 17001 
2 2002 2003 
1 2002 6595 
2 6595 6596 
2 2003 2004 
2 7499 7500 
3 14545 14546 
3 14546 14547 
2 18788 18789 
2 16999 17000 
2 21260 21261 
2 21259 21260 
2 16691 16692 
2 16690 16691 
1 12192 21259 
1 18318 21261 
2 18907 18908 
2 18908 18909 
3 20453 20454 
3 20452 20453 
2 3613 3614 
1 3613 17592 
2 3614 3615 
2 5200 5201 
2 5201 5202 
1 4791 18909 
2 4790 4791 
2 4789 4790 
1 4789 16360 
3 16360 16361 
3 16361 16362 
1 16362 20896 
3 20896 20897 
2 10154 10155 
3 1894 1895 
1 1894 10153 
2 10153 10154 
1 14448 19861 
3 14447 14448 
3 14446 14447 
3 17591 17592 
3 21113 21114 
3 21112 21113 
2 21559 21560 
1 17844 21559 
3 2714 2715 
3 2713 2714 
2 12367 12368 
2 12368 12369 
3 10093 10094 
3 10094 10095 
3 6805 6806 
2 6556 6557 
2 6557 6558 
2 46 47 
2 47 48 
2 7825 7826 
2 7826 7827 
2 18988 18989 
2 18989 18990 
1 7827 18990 
2 10078 10079 
1 10078 15360 
2 10079 10080 
2 7414 7415 
2 7415 7416 
3 16769 16770 
3 16768 16769 
2 15358 15359 
1 11406 15358 
3 11405 11406 
3 11404 11405 
2 15359 15360 
3 8132 8133 
3 8131 8132 
3 20384 20385 
3 20383 20384 
1 8556 20383 
3 13465 13466 
1 13465 20661 
3 13466 13467 
2 8555 8556 
2 8554 8555 
2 6424 6425 
2 6425 6426 
3 1351 1352 
1 1351 6424 
3 1352 1353 
3 13256 13257 
3 18364 18365 
1 15888 18364 
3 18365 18366 
2 20921 20922 
2 20920 20921 
2 8168 8169 
2 8167 8168 
3 12269 12270 
3 12268 12269 
2 20768 20769 
2 20767 20768 
3 274 275 
3 275 276 
3 19286 19287 
3 7006 7007 
3 7007 7008 
2 4981 4982 
2 4264 4265 
1 4264 4983 
2 4982 4983 
2 4265 4266 
2 19421 19422 
1 4266 19420 
2 19420 19421 
3 17908 17909 
3 17909 17910 
3 18800 18801 
3 19529 19530 
3 19528 19529 
2 3728 3729 
3 4886 4887 
2 3727 3728 
1 3727 4887 
3 4885 4886 
3 3703 3704 
1 3703 4885 
3 10276 10277 
3 12524 12525 
3 12523 12524 
3 3704 3705 
2 4268 4269 
2 4267 4268 
1 4267 16210 
3 16210 16211 
3 16211 16212 
2 11698 11699 
1 11698 12372 
2 1670 1671 
3 12370 12371 
3 12371 12372 
1 7647 16437 
3 7646 7647 
3 7645 7646 
3 16435 16436 
3 16436 16437 
1 6597 7645 
2 6596 6597 
3 12982 12983 
3 12983 12984 
3 17569 17570 
1 12984 17569 
3 17570 17571 
3 3662 3663 
3 17774 17775 
2 4648 4649 
1 4648 17775 
2 4649 4650 
3 3661 3662 
3 17590 17591 
3 20897 20898 
1 10209 20898 
3 10208 10209 
3 10207 10208 
3 1895 1896 
1 1896 4578 
2 4577 4578 
1 9798 17842 
2 17842 17843 
2 9797 9798 
2 17843 17844 
2 9796 9797 
2 16226 16227 
2 16225 16226 
2 12734 12735 
3 21587 21588 
2 1973 1974 
3 21586 21587 
1 1974 21586 
2 1972 1973 
2 6778 6779 
1 6778 16225 
2 6779 6780 
2 12733 12734 
1 12733 19668 
3 19666 19667 
3 730 731 
1 730 19666 
3 19667 19668 
3 731 732 
2 4370 4371 
2 4369 4370 
1 4371 7080 
2 7078 7079 
2 7079 7080 
3 19985 19986 
3 15853 15854 
3 15854 15855 
2 17113 17114 
2 17114 17115 
2 10721 10722 
2 10720 10721 
3 499 500 
1 499 15855 
3 500 501 
3 12752 12753 
3 9883 9884 
1 9883 19443 
3 9884 9885 
2 10735 10736 
2 19442 19443 
2 19441 19442 
1 13467 19441 
2 21185 21186 
3 20659 20660 
3 20660 20661 
3 13255 13256 
2 5276 5277 
2 5275 5276 
2 12680 12681 
2 12679 12680 
3 4922 4923 
3 4921 4922 
3 421 422 
1 6084 7780 
3 7780 7781 
3 7781 7782 
2 3776 3777 
2 3775 3776 
3 6083 6084 
3 10765 10766 
3 10766 10767 
3 6097 6098 
3 6098 6099 
3 3452 3453 
3 3451 3452 
1 3451 8290 
3 8290 8291 
3 8291 8292 
3 18799 18800 
3 20374 20375 
3 20375 20376 
3 17396 17397 
3 15077 15078 
3 15076 15077 
2 11600 11601 
2 11599 11600 
3 10004 10005 
3 10003 10004 
3 6080 6081 
3 6079 6080 
3 21430 21431 
3 21431 21432 
3 21530 21531 
3 21529 21530 
1 20889 21529 
1 390 20887 
2 389 390 
2 388 389 
2 20888 20889 
2 20887 20888 
3 17773 17774 
3 1456 1457 
3 9556 9557 
3 9557 9558 
2 14951 14952 
2 14950 14951 
3 1457 1458 
2 17009 17010 
1 9558 17008 
2 17008 17009 
2 4576 4577 
2 11054 11055 
2 11053 11054 
2 15694 15695 
3 8479 8480 
1 8479 15694 
2 15695 15696 
3 12205 12206 
3 11083 11084 
1 11083 20286 
3 11084 11085 
3 15880 15881 
1 15880 20284 
3 20284 20285 
3 20285 20286 
3 15881 15882 
2 4871 4872 
2 4870 4871 
2 21500 21501 
3 790 791 
3 791 792 
3 14813 14814 
3 14812 14813 
2 17434 17435 
3 10487 10488 
3 10486 10487 
3 19984 19985 
2 17435 17436 
3 12751 12752 
1 8919 13434 
3 8918 8919 
3 8917 8918 
1 8917 9885 
2 13433 13434 
2 13432 13433 
2 10736 10737 
3 2467 2468 
3 2468 2469 
2 21184 21185 
3 1598 1599 
2 7724 7725 
2 7723 7724 
3 1597 1598 
2 2545 2546 
2 2546 2547 
2 6914 6915 
2 6913 6914 
2 13873 13874 
2 13874 13875 
3 19891 19892 
3 19892 19893 
3 422 423 
3 6082 6083 
2 2146 2147 
2 9892 9893 
2 9893 9894 
2 16840 16841 
2 14092 14093 
2 11887 11888 
2 11888 11889 
3 929 930 
3 928 929 
2 4049 4050 
2 4048 4049 
3 16973 16974 
3 16972 16973 
3 7147 7148 
3 16738 16739 
1 16738 18916 
3 18916 18917 
3 18917 18918 
3 15263 15264 
1 8331 15264 
2 8330 8331 
3 15262 15263 
3 4765 4766 
3 2011 2012 
1 2011 4767 
3 4766 4767 
3 2012 2013 
1 2013 12090 
2 12089 12090 
2 12088 12089 
1 12088 18918 
3 18853 18854 
3 18854 18855 
3 12206 12207 
2 12745 12746 
1 12207 12745 
2 12746 12747 
2 7471 7472 
2 7472 7473 
2 21115 21116 
2 4456 4457 
1 4456 21115 
2 4457 4458 
3 15829 15830 
3 17863 17864 
3 17864 17865 
2 16172 16173 
2 16171 16172 
3 20203 20204 
3 20204 20205 
2 5147 5148 
2 21499 21500 
3 14153 14154 
3 14152 14153 
2 3998 3999 
2 3997 3998 
3 4186 4187 
3 4187 4188 
1 4188 8061 
2 8059 8060 
2 8060 8061 
3 19825 19826 
3 19826 19827 
3 18229 18230 
3 18230 18231 
1 8595 15916 
3 15917 15918 
3 15916 15917 
2 8593 8594 
2 8594 8595 
2 18797 18798 
2 18796 18797 
1 8739 19893 
3 8737 8738 
3 8738 8739 
3 12925 12926 
1 12925 20961 
3 2020 2021 
3 2021 2022 
3 6346 6347 
3 6347 6348 
3 20959 20960 
3 20960 20961 
3 13814 13815 
3 8720 8721 
3 8719 8720 
3 11636 11637 
3 11635 11636 
1 11635 13899 
3 16301 16302 
3 16300 16301 
2 18626 18627 
2 18625 18626 
2 13897 13898 
1 13897 18627 
2 13898 13899 
2 3550 3551 
1 3552 3927 
2 3551 3552 
3 3925 3926 
3 3926 3927 
2 21562 21563 
2 21563 21564 
2 2147 2148 
3 13481 13482 
3 13480 13481 
2 16841 16842 
2 7123 7124 
2 7124 7125 
2 14093 14094 
1 11889 14094 
3 9928 9929 
3 13741 13742 
3 13742 13743 
3 4471 4472 
3 4472 4473 
1 930 4473 
3 9929 9930 
3 4949 4950 
3 4948 4949 
3 9431 9432 
2 12661 12662 
2 12662 12663 
2 2273 2274 
2 2272 2273 
3 6791 6792 
3 6790 6791 
1 6790 20091 
1 12663 20089 
3 20089 20090 
3 20090 20091 
2 19235 19236 
2 19234 19235 
1 7149 19234 
3 7148 7149 
3 16739 16740 
3 12769 12770 
1 12769 16740 
3 12770 12771 
2 8329 8330 
1 8329 19236 
3 16681 16682 
3 16682 16683 
3 12973 12974 
1 12973 16683 
3 18901 18902 
3 18902 18903 
1 4140 21117 
2 21116 21117 
3 4139 4140 
3 18976 18977 
3 18977 18978 
3 17725 17726 
1 17725 18978 
2 20360 20361 
3 15830 15831 
2 20359 20360 
3 3460 3461 
2 20833 20834 
2 20834 20835 
2 5605 5606 
2 5146 5147 
1 5146 5605 
2 5606 5607 
3 7987 7988 
3 7988 7989 
3 4780 4781 