ITEM: TIMESTEP
35000000
ITEM: NUMBER OF ATOMS
8400
ITEM: BOX BOUNDS pp pp pp
0.0000000000000000e+00 5.0000000000000000e+01
0.0000000000000000e+00 5.0000000000000000e+01
0.0000000000000000e+00 5.0000000000000000e+01
ITEM: ATOMS id type vx vy vz 
3138 1 -4.38834 -8.48042 -1.47246 
3136 1 -0.316554 -1.46752 6.22931 
15270 1 7.06522 -4.33177 0.283139 
17481 1 2.69946 -1.74026 0.518445 
15268 1 -4.15089 -0.330724 3.62947 
15269 3 -1.47744 1.62396 -1.40897 
17480 2 -2.7153 0.5321 1.12561 
5896 1 -4.11032 -2.79395 -5.10585 
5897 2 0.736342 -0.811459 1.17646 
5898 1 -0.138377 0.406279 2.38389 
14246 2 3.12546 0.116138 -0.0343378 
14245 1 2.20158 -5.24727 4.43983 
14247 1 -2.79808 -0.320006 -2.10926 
16570 1 1.4762 -0.876005 0.229238 
16571 2 -2.26129 -1.05581 2.59792 
4488 1 0.494587 0.117165 0.135193 
21075 1 1.3926 -3.08885 2.87505 
1786 1 5.60969 -1.96937 3.16008 
132 1 1.95278 2.35172 0.743341 
131 2 -4.64621 1.71476 -2.47187 
130 1 -1.18908 0.586615 -1.13794 
14708 2 1.56729 0.338864 -0.581004 
14709 1 -4.9198 1.30746 2.23145 
14707 1 -1.64078 2.68359 -0.312947 
6455 2 -2.24941 1.3113 -0.274389 
6454 1 -5.0339 1.19594 -1.39708 
4420 1 3.41651 5.19677 -3.77557 
13375 1 -4.80682 3.4572 -1.72568 
6456 1 -2.00976 8.96618 -0.241292 
13376 3 -3.06415 -1.74929 -0.410061 
4422 1 -6.72276 3.22382 1.92608 
4421 2 1.8671 -0.936238 -0.996216 
9092 2 3.11658 -1.18682 -1.0702 
9091 1 0.125567 0.435919 1.33465 
11462 3 -3.44467 -0.0486623 -1.51735 
3022 1 -0.709098 -2.50428 1.61442 
3023 3 -2.06085 -0.254264 4.11666 
21174 1 2.28733 -1.26967 5.08189 
3024 1 -0.087025 0.0418268 -3.19599 
13590 1 -1.30074 3.10352 -3.21582 
13589 3 -1.10733 0.284955 0.0521001 
13588 1 -0.662347 8.56039 -2.79516 
12273 1 3.45821 -0.118616 0.458554 
11461 1 9.67985 -1.70095 -3.03627 
21172 1 6.45818 -5.91056 2.90611 
11463 1 5.87439 1.55879 0.104692 
21173 3 0.484791 -0.898865 -2.61859 
21514 1 -1.86992 4.87592 1.12308 
21515 2 0.780518 5.05331 -0.957099 
21516 1 5.33429 -1.94283 6.54115 
18217 1 0.245363 4.74376 -0.599827 
18218 3 -2.79652 1.18259 -3.97618 
18219 1 7.00426 3.31164 -1.50325 
11290 1 -5.58489 -2.91403 -0.108889 
6058 1 8.67491 -1.20146 -1.48401 
6059 2 -0.89522 -4.61957 -0.373414 
17487 1 -6.19902 -0.718211 6.06393 
6060 1 0.339424 -4.34007 -1.14977 
17476 1 -6.40667 3.30125 -0.85953 
3161 2 0.422249 -2.74385 -1.66331 
3162 1 -3.41093 -1.88684 1.97239 
3160 1 1.59103 1.54151 -2.26496 
4967 2 -4.94515 -4.57252 4.09874 
4966 1 4.7933 0.668723 -1.62795 
4968 1 6.87641 -0.77288 -2.94887 
9951 1 0.0567681 0.180677 -7.54883 
11236 1 0.647578 9.56946 5.24772 
9290 2 -3.06034 -2.84001 -0.837943 
9289 1 -1.1882 -5.80223 4.3174 
17478 1 2.09399 8.84924 2.38305 
17477 3 -2.04104 0.860694 -2.49929 
9949 1 1.90557 3.00448 -8.67654 
9950 2 -0.02873 -2.32177 -4.25111 
19034 3 -4.24907 0.23406 1.55752 
19035 1 5.1222 4.0991 2.04794 
3869 2 -2.99726 -1.3015 5.77125 
3868 1 -0.0831293 1.60071 -3.74417 
3870 1 3.1744 -1.06347 3.32581 
2319 1 0.670337 1.57787 -1.17094 
2318 3 0.110062 -0.123192 -3.10844 
10102 1 2.87894 1.51862 5.61656 
10103 3 -2.77429 2.06688 -0.419295 
10104 1 4.17567 -1.31313 2.90508 
18124 1 8.83797 -0.524556 -0.744828 
18125 2 0.40722 -0.999285 0.541777 
18126 1 -1.62495 0.0667554 -7.98737 
14266 1 0.258966 5.26834 5.46758 
6234 1 -3.99566 -5.39298 2.32216 
6232 1 1.71791 -2.89391 -0.700615 
6233 2 0.129316 0.440493 -0.0563194 
5066 3 -1.98277 1.15054 -1.00747 
5067 1 1.29347 6.07879 5.0946 
5065 1 -0.14437 -1.43851 0.141606 
16258 1 -0.953002 6.39315 0.0109307 
6165 1 0.930983 1.23919 -2.60083 
6164 2 0.109712 -2.271 2.01268 
6163 1 4.53682 -3.9686 -2.2634 
17625 1 0.273197 -3.91044 -0.944764 
1012 1 -3.24212 -2.09685 -1.12209 
17624 2 1.53519 2.89997 3.61858 
13964 2 1.9248 1.10865 -1.30205 
13965 1 1.98842 3.84792 -1.98704 
988 1 -6.95777 -0.209535 -5.10976 
18678 1 -0.562704 -0.443292 2.55452 
989 2 -0.528268 0.786504 2.07651 
990 1 -3.68087 -3.18464 0.247105 
18677 2 0.188548 2.11941 3.35397 
18715 1 3.05298 7.3142 0.781301 
18716 2 0.164723 2.53747 2.68837 
18717 1 -3.59219 2.14557 -0.940802 
7600 1 -5.03809 -1.61902 0.97348 
7601 3 4.48067 -1.87681 -2.97631 
11767 1 -1.03844 0.754567 0.691864 
7602 1 7.75627 -0.441238 -0.582638 
11381 2 -0.835114 0.133947 2.49776 
11380 1 -1.52616 -0.397039 0.183342 
19820 3 2.31927 -0.46221 6.38464 
19821 1 -0.442804 4.22112 0.377932 
19819 1 -1.57764 2.06057 -3.70373 
3441 1 2.03008 -0.685864 -2.71816 
3137 3 3.09082 -0.677459 0.564816 
17479 1 -2.68312 4.66855 -0.149637 
3823 1 -2.421 -0.0290265 -2.65672 
3824 3 -0.172946 -0.945395 0.029956 
3825 1 -2.1456 4.13421 3.96872 
4486 1 -9.24108 -4.24689 -0.253147 
4487 2 -5.2413 2.95076 0.519777 
5982 1 -0.45745 4.08717 1.62571 
5981 3 0.923712 -1.36038 2.58753 
4748 3 -0.644365 0.615838 -0.846515 
4747 1 -2.84586 0.952448 -2.57806 
4749 1 3.45825 3.73633 1.19976 
21199 1 -6.75855 -2.67334 -4.57495 
21200 3 -0.0307673 -4.15231 1.11961 
21201 1 0.969216 -3.79715 0.0885196 
14652 1 -2.31379 -2.68294 -2.79029 
14651 2 1.92795 -4.26189 1.17444 
14650 1 -0.0409879 -4.81285 -3.87032 
8561 3 -2.37216 4.29449 0.864981 
8560 1 -1.82603 7.28996 -2.14718 
1928 2 3.50093 -2.72525 -0.725281 
1929 1 -0.883619 -0.164803 -5.37959 
5098 1 -1.80009 0.392784 -2.0802 
1927 1 3.67535 3.06647 -2.76072 
11638 1 -5.63802 0.703007 -2.05287 
15170 3 -0.350008 0.791906 0.0152588 
15171 1 -6.8573 4.87055 2.61245 
15169 1 3.23936 1.88384 -0.514991 
11639 2 1.47786 -2.28241 -1.23702 
11640 1 1.81963 -1.36147 -1.48887 
1788 1 -2.52092 2.52236 -0.509807 
1787 2 3.38811 -5.81667 3.23009 
3592 1 -1.16884 -4.6549 5.35096 
3593 2 2.08564 2.7551 1.14461 
3594 1 2.64633 -0.708769 0.792661 
6609 1 -4.05347 -2.34821 -5.09026 
6608 3 1.46447 -0.534397 -1.24013 
6607 1 -1.61019 2.62198 -2.60874 
8311 1 3.91871 5.66662 -6.37256 
63 1 -1.39525 5.15235 2.16629 
8313 1 0.44489 6.53439 0.65074 
8312 3 2.37785 -5.01149 0.691231 
14095 1 2.00174 2.68794 1.01554 
14097 1 -1.13348 -1.02716 1.57512 
14096 2 0.417298 -0.640052 4.2832 
9093 1 -5.77226 3.06573 2.37693 
19110 1 -0.33245 2.87932 -1.63177 
14183 2 3.36126 1.58213 1.12269 
14184 1 1.03141 -1.14729 -5.54328 
14182 1 7.79887 -4.56557 4.11342 
2322 1 7.15093 -8.34738 5.52852 
2320 1 0.0945809 -1.0446 3.6288 
2321 3 -0.137074 -0.825891 -0.245018 
19108 1 7.42056 3.15432 4.62647 
19109 2 2.26123 -6.7365 -0.669823 
17885 2 -1.10115 -0.00265947 1.8 
17886 1 1.6741 -0.40262 0.0660721 
17884 1 1.91207 5.83444 1.89947 
11292 1 -1.70715 2.0908 10.234 
11291 2 1.72733 0.798518 -1.44973 
16219 1 -0.89675 0.854923 2.41186 
16221 1 -7.21759 -0.286859 -1.2932 
18535 1 5.13063 0.598891 -5.96084 
18536 2 -2.55801 -1.61981 2.59989 
15274 1 3.46175 1.04861 2.57491 
17486 3 0.72624 1.25942 -3.09447 
17485 1 -1.25331 0.17323 -2.22914 
15275 2 3.37986 -3.29994 0.504095 
7332 1 -8.90175 -3.93087 -1.09695 
7331 3 -0.918042 1.0105 -4.50449 
7330 1 1.74418 0.892415 5.02283 
17168 3 2.60131 0.277775 2.57395 
17169 1 3.60572 1.86919 0.84503 
16220 3 -3.34369 -0.287027 0.888347 
15276 1 -7.66646 -3.75073 -1.47607 
9291 1 -0.844795 1.19754 0.476913 
9069 1 -3.61978 -1.24296 2.24827 
9067 1 -0.392968 4.38058 -7.40312 
9068 3 -1.72458 -2.67205 1.07272 
2317 1 5.91159 -3.67709 2.94951 
3327 1 3.47651 7.67392 0.75889 
3326 3 3.09487 0.144745 1.10373 
5534 3 0.310644 -1.21428 0.481979 
5533 1 -6.05507 -1.84468 -1.70787 
5535 1 -2.16176 2.43739 0.200151 
3325 1 -2.24821 -0.539644 1.25282 
16260 1 0.709769 -0.022115 -2.78822 
16259 3 -0.0870626 -3.90246 0.376321 
15813 1 -5.2789 0.307577 -1.58678 
20865 1 -2.60631 -7.17553 3.61868 
17623 1 5.08324 -0.628597 4.33957 
20864 2 1.26446 1.6 2.67597 
20863 1 1.52865 -3.00447 -5.69664 
7273 1 -2.17331 5.33509 4.60793 
15820 1 -3.3876 2.19272 2.06509 
7275 1 -1.88452 7.48917 1.30471 
7274 3 -0.552132 -3.03206 -0.568696 
15812 2 0.43 1.67168 3.21062 
15821 2 -0.445973 -0.83702 -1.54832 
15822 1 2.06398 3.03197 -3.30378 
1954 1 5.47668 2.34464 -5.02992 
1955 3 4.03886 -0.454313 2.40501 
1956 1 4.06841 2.5962 0.865469 
6729 1 -2.82627 1.80031 -5.80499 
6728 2 -0.49067 1.36431 1.39212 
150 1 -1.69497 -0.43974 5.68544 
149 3 3.353 0.409754 1.92721 
6727 1 2.39784 3.76109 -0.420645 
11769 1 6.7055 0.804573 1.80326 
11768 2 2.18184 -1.24575 0.771877 
11257 1 1.7753 2.94298 -7.01886 
11259 1 0.30951 -3.58217 1.65298 
11258 3 -0.614815 -0.128863 2.67186 
2233 1 -0.73428 -5.76735 -1.32065 
2234 2 3.36709 -1.63838 -0.66996 
2235 1 -2.69284 0.819427 -0.554586 
13173 1 0.372388 1.92642 -0.209111 
18649 1 -1.34508 1.41676 0.0395973 
18650 3 -1.17283 -2.60244 0.14795 
18651 1 -0.382593 5.38663 5.47276 
2711 3 4.38542 2.57749 -2.47325 
14626 1 4.62911 5.20011 1.39125 
2710 1 -3.26206 -6.07584 -3.68889 
14627 3 -1.87996 3.00033 3.10094 
14628 1 -2.60637 2.49388 0.437597 
2712 1 -2.7355 2.11299 -5.52657 
613 1 -9.58672 -4.82732 -5.28026 
614 2 3.19065 2.69019 0.144452 
615 1 -0.99895 1.69097 2.42384 
19836 1 -1.31758 -0.478933 -4.25039 
18873 1 -0.0621378 -5.62782 -1.09258 
18872 3 0.739227 1.00512 -0.0943501 
18871 1 4.04357 2.00834 2.54657 
2049 1 -3.18512 2.87259 1.46714 
2048 2 3.77761 0.633483 -0.132781 
2047 1 -0.641919 -0.368733 1.49227 
11138 3 -1.97424 -2.06617 -0.45551 
11137 1 4.2368 0.16353 -6.36246 
11139 1 -1.57177 0.256324 1.23083 
15370 1 5.3457 3.5991 -0.942531 
15372 1 3.917 -4.74949 -0.395958 
15371 2 0.261734 2.74589 -1.11689 
5100 1 1.68327 0.256295 -8.09955 
5099 3 -0.0582978 -1.7872 1.11546 
8562 1 2.02574 2.59089 -4.46405 
12805 1 1.58419 -1.10126 -6.54016 
12212 2 -0.893575 1.94748 2.21841 
12213 1 8.08524 7.21609 2.32392 
12211 1 -1.37109 1.90909 6.43861 
19934 3 7.28164 0.681252 0.962065 
19935 1 2.44233 -1.41223 -1.78336 
12806 3 -1.31052 2.63167 -0.127205 
12807 1 -5.61698 -4.61178 0.561765 
19933 1 0.568582 0.0680643 1.063 
7262 2 0.42115 -2.61293 2.4714 
7263 1 -3.11873 -9.14182 -0.0893032 
7261 1 6.53786 -5.15544 -1.65053 
2697 1 -0.525309 1.76167 1.58128 
1331 2 -2.79982 1.42248 -2.98893 
1332 1 -0.336462 2.29977 1.25452 
999 1 3.91666 -5.03717 -1.58915 
998 3 3.39397 -2.12286 -2.23285 
997 1 0.705408 -9.99891 2.46253 
62 3 0.43855 -1.35144 0.185105 
61 1 1.56548 7.36559 -0.648278 
15343 1 -5.87884 3.88925 -3.15284 
15345 1 -1.40163 2.99371 -5.87323 
15344 2 2.74929 0.335462 -0.290782 
11897 2 -1.0879 2.13958 2.98222 
12779 3 -1.47975 0.571729 -3.24115 
12778 1 5.55663 1.37085 -1.55674 
12780 1 1.06361 5.26424 1.95265 
14739 1 2.36404 5.49549 -2.95578 
12365 3 -1.6994 -0.728169 1.56143 
12364 1 -2.14077 0.424246 1.5751 
14738 3 -1.2955 4.96774 -0.41702 
14737 1 1.94706 -4.9581 -5.47648 
12366 1 -0.910632 0.613415 -2.17221 
18537 1 -2.08389 1.27734 -0.969724 
17167 1 -2.22422 -1.93007 -1.58732 
10776 1 -1.31044 -0.769768 3.10464 
8962 1 4.57853 -0.917624 -3.51604 
8963 3 2.43585 -1.12823 -1.65534 
8964 1 0.537426 1.04366 -3.06883 
9075 1 0.290241 2.9996 1.17062 
8970 1 2.99141 -4.71319 -0.335968 
8969 3 -4.72261 -3.15817 2.30489 
8968 1 4.75482 -2.76371 -1.53198 
14514 1 2.00321 -6.018 -0.599262 
14513 2 2.24448 -0.321895 -1.73376 
14512 1 -1.69858 0.236001 -6.575 
8665 1 0.944627 -7.88979 -0.899578 
8667 1 0.884741 -8.83366 -4.69127 
8666 3 -1.79585 1.41836 0.183057 
19600 1 2.91019 -4.39845 0.434432 
2337 1 -2.98085 1.27177 -0.169324 
343 1 -2.64757 -0.945018 -3.39951 
5158 1 4.00841 2.87979 3.0329 
5159 3 3.41336 2.18315 -0.760755 
5160 1 -0.067262 -0.60676 2.80298 
19601 2 -1.27847 2.65862 -0.167351 
19602 1 -0.04622 2.1863 -4.9713 
5251 1 2.37668 -1.18412 7.0448 
5252 3 1.26444 -2.22575 1.53276 
5253 1 -3.80636 -0.169619 1.28817 
10073 2 7.09679 1.08164 2.57493 
10074 1 -1.56898 -2.49169 1.13636 
10072 1 -5.80343 -1.72632 -1.60927 
17949 1 -2.37116 -1.10808 -2.1151 
3430 1 -3.60305 2.61213 -0.904281 
17948 3 4.90147 0.835667 0.685485 
17947 1 0.796671 -4.30203 4.15148 
17022 1 0.294396 -0.669477 3.6723 
10600 1 7.52171 2.84851 -0.586585 
10601 3 1.77727 0.666433 -2.79022 
10602 1 1.61768 -2.83055 -2.01068 
3431 3 -2.06621 -1.95779 4.60206 
3432 1 -1.37935 -3.15429 -1.56103 
17021 2 1.04255 2.54163 5.26048 
17020 1 -3.69604 -0.600685 -6.40324 
148 1 4.804 -1.10364 2.43459 
20302 1 -0.109779 -1.77692 4.74027 
20303 2 1.13807 -0.346847 2.36163 
9297 1 2.72358 6.25112 6.65104 
20304 1 3.21468 -1.16156 -4.81962 
1560 1 -5.43916 -2.19545 0.930442 
1559 3 -1.72354 -1.57158 1.7779 
1558 1 0.200697 -0.440529 0.0487313 
21342 1 -4.20979 -1.54807 -0.760685 
21341 3 0.302707 3.08806 0.463463 
21340 1 -2.08819 -2.66068 -4.87402 
20734 1 1.1917 0.583695 -1.8723 
13172 3 2.4784 5.4102 -2.00354 
13171 1 3.60655 -0.289142 2.02578 
20735 3 -0.737766 -2.55873 -3.38921 
20736 1 1.03956 2.27609 -1.40557 
19257 1 3.48883 -5.01227 -4.81119 
19255 1 -0.884164 -3.39865 6.95348 
19256 2 -2.0631 4.2715 0.454754 
19834 1 3.69403 -2.20592 2.88804 
19835 2 0.0147792 -2.74438 -1.30822 
9277 1 2.37297 2.40652 -1.56722 
9278 2 2.21599 -2.48908 1.37343 
9279 1 1.97781 -0.686673 -2.00601 
2688 1 1.8791 -4.31472 3.03709 
2687 3 -0.909256 -3.68226 -0.848728 
2686 1 0.463569 1.045 -4.93532 
9559 1 -3.24571 0.892607 3.08598 
7588 1 0.073849 1.99386 0.706571 
9560 2 1.92442 -2.36834 2.00638 
7590 1 -4.23011 -2.3246 6.35632 
7589 2 -0.571339 -1.16979 3.82203 
2214 1 0.547911 -4.76533 0.557175 
9561 1 -0.559864 0.2231 0.0704836 
374 3 -2.40952 3.55838 -0.253826 
19363 1 8.64508 -5.04662 1.65921 
375 1 1.52324 -1.10473 -0.166485 
21513 1 -2.194 0.680814 5.02201 
21512 2 0.0256075 0.804663 7.75465 
21511 1 -1.11151 -2.25005 -2.43341 
5334 1 4.44395 -5.2604 0.949811 
2213 3 -0.0897296 -0.22287 0.892867 
21068 2 1.36407 0.530228 -2.57143 
20874 1 6.28873 -1.37368 4.61869 
21069 1 2.16451 1.82174 4.99789 
21067 1 4.45325 2.99611 -7.80682 
15614 2 -2.87164 -2.21077 2.75463 
15615 1 -3.59609 0.780772 5.63417 
15613 1 -1.97244 0.922372 2.13606 
6891 1 1.0663 -2.62496 -1.72561 
6890 3 1.50747 0.312452 -1.04227 
6889 1 2.13933 3.53301 -3.56203 
8467 1 3.91999 -0.0592736 -5.12456 
4058 3 1.43032 2.66997 3.25527 
4059 1 -2.01661 -4.88999 -4.25352 
20872 1 -1.39617 -2.26542 0.0633416 
4057 1 -3.5916 -0.183604 0.0327618 
20873 3 2.29439 2.49194 -1.9398 
8468 3 -2.3535 -2.71746 3.43951 
8469 1 -0.88092 1.88667 -2.83753 
8403 1 4.92231 -0.695485 0.33186 
4086 1 -0.195675 0.846559 2.8269 
4085 3 1.73845 4.35888 4.09258 
4084 1 3.17488 2.18215 -2.0397 
17815 1 3.93847 -1.66762 3.77694 
17816 2 -2.10158 1.25564 -3.61368 
15758 3 -0.654108 -4.24555 2.41541 
15759 1 -2.09689 -2.41043 1.72277 
15757 1 -4.71596 1.03111 -0.515875 
12303 1 3.20909 -1.46011 6.20784 
12302 2 1.01039 -5.97005 -5.27886 
13578 1 2.04268 3.44097 -5.64099 
12301 1 4.24114 -1.37694 -6.33457 
2696 3 -4.40149 -0.26072 -2.5154 
2695 1 -4.68808 -0.218423 -5.6832 
5833 1 -3.835 0.62379 0.307287 
16833 1 1.56905 -1.13349 0.385924 
1330 1 -1.16115 3.66707 -1.79527 
16831 1 -5.40188 0.495967 -6.24683 
16832 2 -1.63304 -2.8601 4.09887 
1799 3 2.61846 -2.37158 3.12718 
1800 1 3.28995 3.80475 2.97879 
5834 2 -2.25056 2.22925 4.10973 
4589 2 2.24766 2.96758 0.251027 
17175 1 1.34533 -1.58149 2.87636 
17174 3 1.53784 -0.21721 2.17213 
17173 1 -2.13762 4.82628 0.469087 
1798 1 2.5371 -3.41944 1.68055 
883 1 -0.902748 1.12168 1.64605 
884 2 -2.9253 2.7533 1.45758 
11898 1 1.88795 -3.19606 -6.94259 
16653 1 1.13663 -2.94049 4.90563 
11896 1 6.72709 3.03195 5.78405 
16652 3 2.68402 -2.3349 -2.71075 
16651 1 3.78424 -6.72281 -4.49533 
885 1 1.87744 -1.97631 1.11083 
13015 1 -6.76734 3.68093 5.38608 
13017 1 2.80817 -0.675379 -6.44886 
13016 2 1.73533 -0.951566 2.29365 
16154 3 0.789095 -4.08408 -0.13733 
16155 1 2.7347 -1.71672 2.51177 
16153 1 -2.55193 -2.0585 5.22084 
6299 3 -0.0669433 0.196395 0.887794 
6298 1 -3.42963 -0.711289 -2.37285 
13198 1 1.25081 2.91739 -5.72978 
6300 1 2.69783 1.15265 1.36967 
10411 1 5.03842 3.39503 -0.430386 
10412 2 -0.679587 -0.870452 -0.324018 
10413 1 1.41243 -2.62377 -1.53518 
13199 2 0.85103 -4.46438 -0.369291 
13200 1 -3.18188 1.34251 0.645076 
10775 2 7.92818 2.65035 -0.525376 
17131 1 -1.64704 -1.95329 4.91977 
10774 1 -5.21883 3.23825 -0.811977 
17132 2 -0.0821804 1.14669 3.2517 
17133 1 -1.97003 0.319161 -2.056 
9226 1 1.53222 0.585783 4.67451 
20094 1 -0.10349 -5.86308 -0.11816 
18360 1 0.265418 -3.07374 -9.103 
18359 3 -0.0563995 4.72272 0.858715 
18358 1 8.46577 3.707 -2.32348 
9074 2 -1.00511 2.23304 -1.11409 
9073 1 0.946205 -1.13038 1.08186 
9227 3 1.0741 0.816817 -0.983521 
9228 1 5.47981 0.655395 2.17856 
11071 1 -2.37355 1.08204 -1.12443 
11072 2 -2.21113 1.44094 -0.572339 
11073 1 1.63583 -4.79331 0.669362 
2335 1 -1.15914 -0.931949 -4.88125 
2336 3 -1.50223 2.03204 7.96615 
9168 1 6.98974 4.2357 1.92498 
7706 2 2.79617 -0.0759387 1.40319 
7705 1 -2.93509 1.33129 -0.905918 
7707 1 1.14968 1.94935 -3.8055 
17069 2 1.04208 0.079057 -0.575512 
9166 1 -2.24646 -0.674395 5.14903 
9167 2 0.612963 1.5437 -2.03309 
682 1 -5.48462 2.21691 -0.493983 
17070 1 3.14512 -2.65523 0.286789 
684 1 1.18349 -3.95259 -5.60695 
683 2 0.76942 1.61795 -0.16354 
13908 1 2.34778 3.0432 -4.94689 
19599 1 4.2603 -9.09713 -1.51921 
1903 1 4.85354 7.32384 -9.50784 
19604 2 -1.99923 -2.12581 1.30038 
19605 1 -1.07141 0.550087 1.38371 
19603 1 0.0746599 -3.44208 1.63445 
17068 1 -0.526133 5.16238 -4.35654 
19126 1 5.09532 5.07483 4.11997 
19127 2 -3.905 1.96487 -3.80657 
19128 1 -4.03358 -6.33541 -1.34514 
19597 1 7.11435 1.76639 2.34649 
19598 3 -0.66078 3.91106 -1.13928 
19366 1 7.53025 -2.79109 2.25696 
19367 2 2.32033 0.721512 -3.43949 
19368 1 1.58825 3.4381 -5.28766 
17316 1 0.55382 4.15124 8.1638 
17315 2 0.19422 4.95753 -2.37652 
17314 1 -5.82605 0.333621 -0.675854 
592 1 1.02507 -3.56163 -1.23383 
593 2 -1.97328 -1.38125 -3.46948 
12373 1 -2.09199 2.41691 5.65752 
13272 1 -2.5606 -2.94911 8.36234 
13271 2 -4.03696 1.24137 -0.402069 
13270 1 0.984446 -6.63131 -5.93054 
2659 1 -0.994981 4.51073 -2.55641 
6132 1 1.82123 -2.70947 -0.124819 
6130 1 4.19563 -1.06521 -4.98889 
6131 3 1.88979 -2.55542 -0.483189 
373 1 -0.515843 1.11098 -2.23346 
5332 1 0.715347 -3.98112 0.831951 
5333 3 7.68028 -0.672486 -0.0146978 
2212 1 0.445466 1.12213 3.30198 
4006 1 2.47182 5.40777 5.87601 
17817 1 -2.64024 4.41879 3.30056 
21347 2 -1.56028 -0.918258 -2.11375 
21348 1 2.88937 0.89927 -0.0277183 
21346 1 -4.59508 0.941318 -1.17238 
9981 1 1.50607 -2.49416 1.51101 
9979 1 4.70217 -2.20562 0.470933 
9980 2 -2.91563 -0.268119 0.121477 
8402 2 -3.25052 1.82557 -0.692682 
4007 2 0.887051 0.0360722 1.38343 
8401 1 1.8269 0.198106 7.48291 
4008 1 4.35769 -2.44109 2.44349 
4738 1 1.02104 -0.268017 -4.72427 
4740 1 -0.132986 1.07902 -0.86275 
4739 3 -0.783973 4.80606 1.95333 
13414 1 -5.08787 -2.67496 -0.42699 
15183 1 -1.72536 0.278636 -2.45287 
15182 2 0.556446 2.00624 -0.000874795 
12085 1 -5.85779 0.527165 8.31564 
12086 2 -0.911048 1.3121 0.503412 
12087 1 3.15702 -0.662617 -0.487525 
13576 1 -5.27549 -6.37637 0.54227 
13577 2 -3.65751 2.92184 -4.55169 
3472 1 -0.262952 -4.73797 -0.463998 
3473 3 2.52596 -1.47226 -2.29033 
15181 1 -1.90673 -3.10817 1.74547 
3474 1 -3.72317 -4.29531 -0.668265 
12131 3 0.22944 -2.75784 2.29564 
12130 1 0.474951 -2.43226 6.06936 
14158 1 -1.19928 1.13023 -4.42079 
14159 2 -1.39071 -1.61322 -0.672413 
12132 1 -1.07217 -4.74804 -6.23084 
5835 1 1.83212 0.863711 0.170388 
4590 1 -0.943443 -3.64179 3.45556 
4588 1 0.541157 3.4138 3.37986 
11582 3 3.26108 -0.858221 -2.52871 
16752 1 1.96158 -1.1986 2.09489 
5860 1 -2.51009 -0.7757 -0.789611 
5861 2 0.424834 -0.0439165 0.825145 
5862 1 -4.7468 5.14841 2.07617 
15501 1 -1.40524 -2.17028 1.45408 
15499 1 6.30694 1.12908 -6.32182 
15500 2 0.952491 -2.30659 -1.30124 
10169 2 1.09804 3.36242 0.778368 
16950 1 -2.5502 -7.40611 -9.52005 
10170 1 -2.34775 -1.59888 1.05918 
16949 3 -4.16726 5.21177 2.54574 
16948 1 0.829287 0.346196 -2.62528 
3765 1 5.38286 -2.63818 -0.488234 
3763 1 -6.09222 -2.45284 3.56009 
3764 2 0.976045 3.88217 0.368881 
17713 1 -4.55063 -0.350012 -1.30712 
20093 2 3.54836 0.184982 -0.637456 
20092 1 5.1832 -3.68662 -3.19556 
17714 3 2.30236 2.40739 1.67648 
17715 1 -0.515521 1.09819 2.40171 
14769 1 -7.01515 6.79147 -5.43824 
20511 1 3.20936 1.13742 2.83246 
20510 3 -4.38595 -4.16571 2.07588 
15548 3 3.42494 2.37712 0.443758 
15547 1 -0.72029 -1.38472 1.21544 
14768 3 1.90737 -4.91968 1.06816 
14767 1 -2.34719 -4.81178 4.07181 
20509 1 1.4387 -2.07504 0.215172 
15549 1 -5.30964 -2.01653 -1.46119 
5238 1 -1.57581 -1.54946 -2.65101 
5237 2 -2.14295 -0.282203 2.16292 
5236 1 -1.17013 5.26093 3.72182 
6743 3 1.55297 -1.10902 1.24822 
6742 1 2.3382 2.53958 0.741731 
6744 1 -2.38163 -6.53709 -0.878678 
2097 1 6.10854 5.48085 -3.70586 
2096 3 -2.57647 3.16877 -4.35312 
13906 1 -0.825243 3.09059 -1.03709 
13907 2 0.105995 -2.02949 1.47392 
1905 1 1.18023 -0.839869 2.92687 
1904 3 -2.12663 3.71025 -1.32374 
6880 1 4.1837 -0.514939 -0.919773 
6881 3 -6.27241 1.56781 1.49628 
6882 1 3.00446 2.7577 2.86663 
3846 1 0.492971 0.89349 -5.101 
3844 1 -7.01524 -0.798314 3.78298 
3845 2 -0.918767 4.88895 -2.29322 
1434 1 6.62657 2.29173 3.15067 
1433 2 0.652924 2.45719 2.8687 
1432 1 6.54492 3.00554 -2.56433 
18431 3 0.0294602 3.29418 4.4006 
5902 1 6.65382 -3.43491 0.640621 
18432 1 -4.57415 -2.69569 -6.78326 
18430 1 5.48378 -0.545909 -1.55698 
14371 1 2.21064 -3.89157 -0.192372 
4281 1 4.18893 -2.63797 -0.538558 
4280 2 1.57163 2.19461 0.0339703 
21040 1 -3.13748 -0.177237 1.20442 
21041 3 4.35461 3.00769 5.99735 
21042 1 6.72385 0.524415 -1.11028 
14372 3 3.65903 0.421098 0.396512 
4279 1 4.2974 0.0237007 6.2595 
12710 3 -1.03211 -0.216237 -0.435383 
12709 1 -1.86834 -3.08934 -1.1586 
12711 1 -4.00475 -4.07364 -1.11951 
246 1 -2.85822 1.59532 0.48001 
244 1 3.385 2.379 0.268845 
245 2 -1.97111 5.87084 -0.00462096 
4298 2 3.08423 5.23772 0.536776 
18442 1 2.11008 1.318 -4.5629 
4299 1 -1.52463 1.57699 -4.14389 
4297 1 1.77643 -1.05297 2.85634 
1826 3 -2.45763 -4.01925 2.7153 
1827 1 -2.65514 0.791218 4.36603 
1825 1 -1.55198 -3.57218 -3.02165 
14333 3 2.5743 2.54325 -2.68042 
14332 1 5.63217 -4.9921 0.0987393 
8093 2 -2.15436 1.31171 3.83196 
8094 1 0.462356 2.5183 -3.68992 
8092 1 3.72707 -2.80713 1.48652 
8907 1 -1.49993 -5.47389 -2.58744 
13185 1 -3.99077 6.66806 0.316747 
8905 1 2.53478 2.21963 -8.02138 
8906 2 5.98719 -0.887616 -2.38061 
5341 1 1.92611 -2.13336 6.71176 
5342 3 0.813725 1.38181 -0.574347 
5343 1 3.38093 7.01341 -0.114468 
13184 2 2.73688 2.88783 -0.343691 
13183 1 2.56297 2.73589 3.59205 
8547 1 0.540137 -1.31244 -4.62382 
8545 1 -0.456485 0.247462 2.47939 
8546 2 -2.26117 1.23551 -0.21261 
2528 2 -0.259458 1.95058 1.98937 
2529 1 -2.55162 2.53421 -2.23152 
10016 3 0.197725 -1.59026 0.413692 
10017 1 1.5502 6.11111 -1.92046 
16569 1 -2.28816 0.663145 -5.38981 
10015 1 0.327489 5.57026 3.18734 
18572 3 -0.834982 -2.95812 -1.89087 
18573 1 3.17599 3.02168 -2.2832 
18571 1 -4.19768 -0.533046 -0.0811371 
2527 1 -1.18643 0.522603 2.40154 
3 1 0.766391 2.59344 -2.24599 
2 3 -1.80626 -0.575382 -1.02197 
1 1 3.62539 -1.87608 0.1694 
9508 1 3.77783 -4.26769 0.942684 
9509 3 -0.448476 1.63905 0.196144 
12375 1 5.73021 0.994029 -0.404832 
12374 3 4.27913 -1.82582 3.20559 
13285 1 -1.88666 2.92224 -1.57092 
13286 2 0.287393 3.6564 -1.70152 
8824 1 -3.76336 -2.90352 -7.62009 
1258 1 5.43957 1.46963 5.54011 
1259 2 0.324526 0.106769 2.68276 
2661 1 -3.98972 -3.94831 1.24573 
1260 1 1.94678 3.86615 -2.30896 
2660 3 1.65441 2.05417 -0.187284 
6809 3 -3.7392 -3.26867 -0.150361 
6808 1 -2.2827 6.54006 2.76581 
594 1 7.61645 4.21512 1.54062 
6810 1 -0.696393 -2.1012 4.23719 
9510 1 -2.90652 -3.42454 0.528394 
6739 1 -6.71728 -0.204041 0.290381 
6740 2 0.5554 4.58658 1.86596 
10120 1 -3.44766 3.96905 -0.962167 
10121 3 -2.10835 1.19981 1.51166 
2340 1 -5.45009 -1.58905 2.91202 
2339 2 0.646538 -3.39477 0.503125 
2338 1 0.520795 -4.49375 1.08396 
21508 1 6.68781 -0.491576 5.62449 
21509 3 -1.60675 -1.62123 -0.480704 
21415 1 7.30454 -2.82804 3.47636 
21510 1 -1.45219 -1.14353 0.209332 
21416 3 -2.81422 0.334216 0.354152 
2923 1 1.22893 1.89054 0.792453 
21417 1 0.0236453 3.41355 0.36497 
18754 1 -3.69124 3.88397 -2.71928 
18755 3 -2.09318 -2.72986 -2.44466 
5001 1 -0.334287 6.60092 2.4626 
4999 1 4.1262 -3.88116 1.16338 
5000 2 5.71667 1.64166 -0.498086 
1011 1 4.05605 6.70501 2.5559 
1010 2 -0.0680115 0.466941 -0.0382204 
1009 1 4.33689 -3.05739 2.49897 
2718 1 -4.62077 1.97585 1.47678 
18756 1 6.15573 -1.31103 -1.0005 
7182 1 -1.7834 4.01404 -1.38986 
17883 1 -0.793124 -1.76944 -1.47022 
17882 2 2.50392 0.315157 3.02973 
8693 2 -0.83901 1.24693 -1.4873 
8694 1 1.12617 2.60585 1.55763 
13416 1 -1.1607 -2.17642 -1.708 
8692 1 -1.5512 2.6332 1.46485 
13415 3 5.24963 -3.50036 -1.00926 
18458 2 -0.24168 3.15905 2.04825 
18459 1 -2.45761 -6.00242 -4.58342 
18457 1 3.43823 2.53858 2.78434 
4646 2 0.696108 3.22444 -4.78241 
6831 1 0.215476 1.78044 -1.29052 
6830 2 -3.04932 0.618636 -4.76606 
6829 1 -1.28473 3.19853 -3.94525 
4647 1 -3.78858 4.10229 5.38089 
19574 2 -3.33067 3.14928 -0.247667 
14160 1 5.40329 -0.409126 3.37148 
4645 1 -1.81359 -6.71861 -3.13079 
19575 1 1.53618 3.49101 0.839781 
19573 1 -3.42723 -1.46979 -2.16318 
19309 1 -0.506957 -0.444438 1.3427 
19310 3 2.45521 -5.46901 -1.10171 
19311 1 -3.01882 2.18208 1.93393 
18862 1 -4.15459 2.02979 -0.348002 
18863 2 1.90703 -1.66706 1.32891 
11583 1 0.594732 4.18687 2.86863 
18864 1 1.69485 1.79043 4.96586 
10335 1 -3.82772 1.4636 2.17567 
11581 1 1.53691 -2.15574 -1.46643 
10334 3 -1.62494 -2.11172 2.09004 
10333 1 -1.53145 8.60534 -7.0169 
10513 1 -0.680764 4.5544 -0.0479717 
16750 1 3.86846 -6.16166 -3.77658 
16751 2 0.644256 1.10577 -0.155387 
18225 1 -1.64094 0.406991 0.122927 
13397 2 -1.2545 -5.40271 -0.9867 
13396 1 -3.82476 1.76342 -1.45313 
13398 1 -2.86615 2.8781 2.20578 
10168 1 -1.8837 -4.19297 -0.484567 
20694 1 -2.40548 -2.51503 3.14635 
20693 3 0.805399 -3.81328 -0.869218 
20692 1 -3.08897 4.32286 -1.84585 
5396 2 -4.26687 -0.56322 -0.752484 
5395 1 1.84885 -0.0612958 2.04092 
5421 1 -1.93402 6.12871 -4.24009 
5419 1 -1.90262 0.820708 2.58601 
5420 3 -5.62403 -2.30743 -1.15933 
9793 1 1.81657 3.25996 -6.35388 
5397 1 -3.92953 -3.99576 4.13845 
9794 3 0.184953 0.438784 -2.34222 
9795 1 5.42856 -0.13499 1.61655 
20097 1 -4.03062 3.92068 -3.48251 
20096 2 2.95363 0.161493 -0.582249 
20985 1 -3.8642 -2.95987 6.30982 
20984 2 -0.337043 -1.24499 -1.54364 
20095 1 1.83214 2.74252 -0.330392 
20983 1 -0.70977 5.22253 -2.13269 
16546 1 1.06297 -2.98209 1.44209 
16547 2 4.17049 -3.41147 3.85556 
16548 1 -0.148217 3.92843 -1.92031 
2095 1 -1.43915 3.12504 0.743114 
9768 1 0.234893 -0.646544 -1.16082 
19476 1 1.40495 -3.44916 -1.21935 
9766 1 4.47498 -2.06155 2.62167 
9767 3 2.1429 -0.51498 2.40994 
5903 3 -1.47337 -0.520858 3.56311 
5904 1 -6.15403 4.63863 -2.44673 
14373 1 0.294971 6.14877 -3.21852 
21277 1 -2.61484 -0.485722 -3.40593 
21278 3 0.115816 -0.669983 -1.70633 
21279 1 -3.93823 3.39268 -2.30612 
18443 3 -1.51102 -2.48934 3.15363 
18444 1 -0.28181 4.52157 5.7569 
14334 1 6.22767 -0.276417 -2.54662 
13315 1 6.04017 -1.42995 1.94387 
13724 3 -1.38929 3.28135 0.0154502 
13725 1 -3.25208 -6.22621 4.69104 
13723 1 -0.778322 1.97434 4.92557 
14599 1 1.95109 2.57432 2.36669 
14601 1 0.883909 3.07214 8.80968 
14600 2 0.0798215 -2.16659 1.0979 
18704 2 -3.02239 1.98828 -0.27571 
18703 1 2.54642 1.15237 3.95268 
18705 1 -2.45733 -4.84062 3.12377 
15252 1 1.27072 -6.85622 -0.984282 
15250 1 4.52655 -0.534194 -8.45606 
15251 2 3.17439 4.03902 -0.0407087 
1864 1 4.64553 -0.307173 -2.52045 
15645 1 -0.980318 6.09652 3.59197 
16568 2 -0.573923 3.94617 4.6111 
18543 1 0.460825 -1.105 -5.88149 
6741 1 0.292396 -2.62069 -0.783271 
15644 2 1.09411 -1.3512 2.46826 
15643 1 -2.80642 -2.33235 2.67535 
16567 1 -5.49119 -1.39539 -2.74933 
13287 1 2.39699 -1.77352 3.80579 
8826 1 8.09192 -0.814863 3.1342 
8825 2 -0.0964227 0.59549 0.526009 
15143 2 4.10106 1.35186 1.87808 
15142 1 -2.07983 -0.20194 -2.46863 
10122 1 2.1302 2.36482 2.20613 
2924 2 -1.04004 -2.81232 -0.690235 
11694 1 9.8319 3.50905 -5.15868 
11693 3 3.16864 5.36425 0.465345 
11692 1 3.77894 -0.176577 1.15633 
11146 1 6.0625 -0.677259 -3.90452 
11147 2 -1.79691 -1.21497 -1.14335 
11730 1 -3.24479 2.96287 1.97668 
11729 2 0.96252 -0.414326 0.928716 
11728 1 5.06689 2.2799 -5.62031 
11148 1 -5.02264 4.33056 -2.65992 
15046 1 -2.43767 1.92267 3.32527 
15047 3 2.35286 2.72566 4.03385 
15048 1 -0.688639 -3.48517 -6.06355 
18804 1 -0.780421 -0.04926 -1.81792 
18803 3 -1.47791 4.70131 -2.96351 
18802 1 3.73202 5.80545 7.84751 
12952 1 2.10897 -0.427544 1.47617 
11331 1 4.28708 -3.44796 -3.41264 
11329 1 1.26404 4.69031 -4.75149 
16390 1 -0.904506 2.59939 1.72462 
11330 3 -0.195967 -1.77596 3.50662 
16391 3 -0.679557 -4.62927 -4.57141 
2717 2 2.91954 2.34815 4.64575 
16821 1 4.3591 -10.1545 0.86991 
2716 1 4.02994 -2.02287 3.64991 
16820 3 -0.735902 1.4432 -5.66686 
7180 1 -1.45449 -3.57022 -1.04864 
7181 2 -1.18315 -0.600578 -2.18275 
16392 1 0.76822 1.15672 -1.97791 
14380 1 1.82123 -1.57352 -0.152394 
14425 1 -5.10777 -1.68361 0.566399 
14381 3 -3.52007 -3.80245 -2.12659 
14382 1 -2.75508 -5.42717 0.273396 
17881 1 -2.23644 -4.29144 1.36764 
11346 1 0.266148 1.79011 -4.03532 
11345 2 2.47279 -1.5165 1.18828 
8653 1 5.5518 -5.72396 -0.745863 
11344 1 -0.255283 3.6929 -1.6753 
8654 3 0.67067 -0.412107 0.390192 
8655 1 0.16511 -2.76891 -2.28679 
17755 1 2.9362 3.62888 5.18254 
17756 3 -2.56884 -0.921998 -2.68638 
17757 1 4.12907 0.377503 0.88607 
19751 3 -4.67999 -1.58332 -0.204401 
19752 1 -0.253798 4.14205 -6.06989 
19750 1 -0.166921 -3.13965 0.666277 
19147 1 -3.03894 2.41186 2.90857 
19149 1 7.22384 2.65604 2.50374 
4335 1 2.01898 -1.04419 -2.14668 
19148 2 3.82381 -0.666097 -2.77066 
2550 1 -1.80631 6.57839 2.73275 
2549 2 -3.76596 -3.55118 0.891787 
15300 1 6.24598 -1.61844 1.1363 
21414 1 -4.74514 -2.75329 0.145599 
2548 1 -5.06421 6.40839 -0.486346 
1784 2 -3.53552 -1.27337 1.12739 
1785 1 -0.400262 -3.40711 7.24189 
1783 1 1.17405 -0.322101 -4.46843 
15298 1 -3.76345 1.06986 4.20688 
15299 2 1.89269 0.809837 -1.4806 
10514 2 -1.87932 -2.62323 1.89101 
10515 1 -0.84711 -0.276302 -3.76531 
2223 1 2.27128 2.63727 -0.341078 
2221 1 4.33611 -7.60202 3.91809 
2222 3 1.8641 -1.20859 -2.25545 
19458 1 0.218793 3.18466 -3.00796 