ITEM: TIMESTEP
35000000
ITEM: NUMBER OF ATOMS
2202
ITEM: BOX BOUNDS pp pp pp
0.0000000000000000e+00 5.0000000000000000e+01
0.0000000000000000e+00 5.0000000000000000e+01
0.0000000000000000e+00 5.0000000000000000e+01
ITEM: ATOMS id type vx vy vz 
13669 1 -0.86526 0.641747 -1.41537 
13670 2 2.00068 1.82053 1.79745 
6170 2 -2.0568 3.39013 0.460449 
5232 1 2.4807 -4.46833 4.14649 
6171 1 -6.70497 1.43993 2.71423 
5231 2 -5.60921 -4.17814 -3.57294 
14983 1 3.27373 -2.99074 -0.279901 
14984 2 -1.97108 -2.95655 0.210101 
17770 1 -4.14612 -5.09134 8.29026 
13671 1 0.26355 0.162597 -2.2116 
17771 2 -2.29406 -3.4637 -1.1975 
17772 1 1.28157 -3.27973 -3.54074 
15054 1 -0.915653 1.63867 -0.98016 
7631 2 1.89826 -0.879184 0.770053 
15052 1 1.23152 1.00679 1.36625 
7630 1 0.835197 -2.82713 0.126874 
15053 2 4.70783 -3.76418 -1.23984 
5230 1 -1.68391 -0.714633 0.647472 
9983 2 -2.38582 -1.57704 -1.94664 
9982 1 1.14069 6.15956 -2.64228 
18272 3 -0.037871 1.01979 4.35209 
18273 1 -2.65288 -1.40739 -1.04137 
5908 1 2.85116 3.55539 0.783102 
5909 2 3.27791 -2.00431 2.34584 
3157 1 4.92502 0.304294 2.33685 
16878 1 0.344035 -2.99465 4.96018 
6394 1 -3.086 8.85767 -2.78467 
18939 1 3.51844 0.430938 0.337671 
18049 1 -1.69452 -3.32318 1.04248 
324 1 -1.75647 2.55882 -1.2731 
18050 2 0.42915 -1.33082 -1.56055 
5910 1 5.28072 1.72208 3.07127 
18051 1 7.33418 4.48587 -1.33686 
16876 1 7.29561 2.12631 2.77037 
16877 2 -1.49274 0.0515544 -0.168612 
323 2 -1.52982 -0.163126 -0.52662 
12483 1 0.785922 -1.55473 0.912354 
11787 1 2.18613 -1.18716 -3.83038 
11786 3 -2.57498 -1.20668 -0.811068 
11784 1 -1.8416 -1.78015 0.329028 
12482 3 -3.80586 -1.12082 2.12346 
15231 1 5.8495 2.54374 1.92769 
15230 3 1.15242 -1.68811 -0.827102 
11785 1 -0.889646 1.69636 -2.64649 
11782 1 0.197059 -1.99164 -0.656706 
133 1 5.51898 -4.01917 1.50503 
134 3 1.32202 2.39518 0.30474 
135 1 -4.22777 4.04942 5.11515 
16132 1 -12.8732 4.10343 -0.0025223 
18 1 -3.69606 -0.945245 0.57014 
1054 1 -5.52622 0.844829 -4.6689 
1055 2 1.61067 -2.77962 -1.70288 
16133 3 -3.47004 6.19254 1.3848 
16134 1 -4.55573 2.74274 -0.490854 
17823 1 -1.63069 0.273034 1.19448 
17822 2 4.60203 -0.361681 -5.70319 
1056 1 -5.67633 4.73147 -7.64062 
15229 1 -2.20614 9.29663 -0.5117 
17821 1 7.96149 -0.742879 -5.83678 
13362 1 -6.2474 -1.53274 -2.13138 
17 2 -0.38104 1.4169 2.47106 
18295 1 0.064729 4.32098 5.80007 
18296 2 2.60397 -2.60021 -0.759646 
18297 1 -8.4669 -0.0905776 2.67826 
13712 2 1.54254 -7.4837 0.190991 
13713 1 -0.993747 -1.23195 -4.62487 
13711 1 0.0383929 -5.18737 -1.75938 
270 1 -0.340861 5.24253 0.810044 
6181 1 4.09952 -1.41465 0.0881429 
6183 1 -2.65262 3.31086 -0.649653 
6182 2 -0.603723 -1.01635 -0.273299 
268 1 0.337132 -1.51877 -5.52509 
269 2 3.11564 6.25667 2.02325 
13230 1 -2.54012 4.5191 0.17722 
2996 2 3.7719 -1.02691 2.23115 
2995 1 1.3318 -6.78466 -1.80472 
11092 1 2.72204 8.18094 -2.59911 
7361 2 3.28685 -2.57458 0.0073309 
11094 1 -1.22516 1.62417 -2.85639 
7362 1 -2.91284 -3.54416 -0.827963 
11093 2 -5.22749 -1.40115 -1.15805 
13925 3 4.83719 4.18471 0.405412 
13924 1 -0.55962 4.60435 -1.63176 
3158 2 -2.03293 -2.41826 -1.1515 
13926 1 -2.16895 10.8499 -0.177803 
3159 1 -2.59655 -1.97041 -4.65782 
19188 1 -4.97052 -5.48393 1.86243 
18937 1 -0.211525 -4.36089 -5.60367 
19186 1 3.05343 3.41662 -8.35755 
19187 2 0.0461936 -0.882216 1.41379 
18938 2 -2.74829 0.762649 -2.60795 
7360 1 5.32599 -3.16829 5.25863 
9156 1 -0.603017 -4.75239 6.3423 
9154 1 2.14407 -3.16754 0.729101 
9155 3 -2.29583 1.69351 0.106507 
21470 3 -0.872064 2.87071 -1.85867 
21469 1 -2.95761 -3.97008 -2.17933 
21471 1 3.01337 0.568815 -1.55149 
11239 1 -4.30239 -5.66449 -1.09551 
5789 3 -0.38502 3.73598 4.20333 
5788 1 0.696667 -5.35934 2.99355 
16027 1 -3.62742 -2.43825 -1.62858 
5790 1 6.26305 -4.11888 0.353889 
16028 3 -0.563405 1.3395 1.2733 
11311 1 3.93071 -4.63842 1.19905 
16029 1 -1.69582 1.9616 -1.23183 
4651 1 4.56958 -2.9971 6.06875 
11312 3 -1.65255 -1.14246 -5.08478 
16149 1 2.76036 -0.449835 -1.19305 
11313 1 -2.04264 -6.11483 -0.463287 
16148 3 2.06651 0.44204 1.09935 
16147 1 -2.09841 1.61991 2.33583 
13627 1 4.03307 -0.775184 3.7959 
11783 3 2.61997 -0.953203 0.277858 
9640 1 3.10268 3.21679 4.03025 
9641 2 3.41941 -1.88323 -2.92922 
9642 1 -5.59141 1.90049 -0.94516 
16404 1 5.64426 0.213688 1.36652 
585 1 -1.15737 -0.219477 5.78015 
16402 1 -1.4597 -3.88234 4.7438 
16403 3 0.182104 -0.602734 -4.38162 
584 2 -0.0283856 -4.41505 -4.25362 
5213 2 -8.21791 0.887659 -4.25614 
13360 1 -1.38342 -5.44569 -2.67302 
13361 2 2.44878 -2.63572 -6.33327 
5214 1 2.81079 6.34471 -1.02803 
19661 2 1.79448 1.62825 -2.52184 
19662 1 2.82672 5.03564 6.54837 
14961 1 0.0648665 4.7383 3.17285 
9891 1 -0.0890161 0.503663 0.989071 
19660 1 0.147067 -1.56373 -7.119 
583 1 2.40473 6.27975 2.24538 
9890 2 -1.78784 3.45629 1.72832 
11519 2 -0.82253 5.25087 0.842663 
11518 1 -4.86477 -5.42947 1.58346 
2997 1 -4.15405 -3.15762 3.03845 
8794 1 0.0364761 -2.37709 -1.68081 
8796 1 -3.28842 1.90067 -2.0984 
8795 2 1.83216 -0.844962 0.579982 
7093 1 -3.49885 3.82708 -1.10401 
5302 1 -2.17518 1.81137 -3.88876 
5010 1 -0.857667 1.29383 -8.83875 
5009 3 -1.60312 4.12716 1.05024 
7095 1 3.1974 0.353361 -2.75075 
18399 1 3.79623 0.344997 -1.83925 
7094 2 0.5745 -0.905699 -5.17025 
18398 2 2.41204 -7.40016 1.2342 
18397 1 4.80459 1.92422 -2.40472 
12195 1 -4.30691 -2.25312 -2.03092 
12194 3 3.92762 -2.22554 -2.02342 
12193 1 -1.26838 2.46807 0.571152 
8283 1 -2.60236 1.28817 2.75642 
8282 3 -1.08116 2.00966 4.72157 
9872 3 -5.79451 -0.411049 -0.310344 
18922 1 0.0273583 -3.72041 1.45318 
18924 1 0.930423 3.23464 1.44121 
8281 1 -1.13999 4.16302 -3.63422 
18923 3 4.38637 0.709651 0.685415 
17605 1 1.04093 0.103559 4.73076 
17606 3 -3.24192 -0.148798 2.64104 
9169 1 -5.76568 4.14318 1.77404 
6488 3 3.29447 0.706492 -2.33254 
6489 1 2.12077 1.13033 -1.5944 
18999 1 -0.194337 -2.20699 1.07267 
9873 1 1.74885 -3.76971 -3.10027 
17607 1 -2.80379 -4.17395 1.80896 
18998 3 -5.11723 2.07647 0.609439 
18997 1 1.93319 4.75983 7.51401 
7669 1 -4.02509 -0.392762 0.85201 
14484 1 1.48582 -1.58873 3.37855 
14959 1 4.3351 4.34662 -0.405785 
14960 3 2.74374 -1.48908 -1.92664 
3002 2 -3.10709 -2.03412 -3.16687 
3001 1 -4.54608 4.24714 -1.87473 
3003 1 0.469038 -3.3454 3.6919 
11520 1 5.5026 0.718277 -1.26496 
19798 1 -2.22968 3.74448 -2.07596 
19800 1 0.733389 1.85396 3.81654 
19799 3 2.2643 2.69171 -1.60176 
5303 3 0.0229471 3.2839 4.71167 
14271 1 1.31038 -10.9855 -3.87141 
5304 1 -0.52123 -2.54398 -2.24349 
3580 1 -0.572278 -0.880928 6.55469 
3581 2 -4.68501 1.44661 1.88084 
3582 1 -1.1894 3.93187 -4.79537 
9871 1 -6.197 -1.40784 2.32871 
7938 1 4.34441 -3.64049 -0.150336 
7937 3 2.06097 0.644138 -3.59628 
15337 1 8.26804 4.16067 -2.19932 
15338 3 4.51919 0.971487 -1.5865 
15339 1 5.72259 1.18581 -2.34245 
12469 1 -3.26166 -1.83052 -8.31969 
9174 1 3.65653 -6.99117 -0.309979 
15537 1 -1.49246 -1.0343 -0.873316 
14483 3 -0.900443 1.66166 1.76171 
14482 1 -6.1672 -6.01709 3.7597 
9172 1 -4.58629 1.58382 -4.3075 
9173 3 3.45 1.12281 2.7597 
12471 1 -1.15082 -1.20959 1.99599 
12470 3 -1.7486 0.442512 1.36724 
14270 2 -2.44377 1.04849 -2.6763 
14172 1 0.289643 5.05194 2.4767 
14269 1 1.09534 -6.72354 3.39293 
14171 2 0.137242 -1.2065 3.35237 
14170 1 2.81119 2.71908 -2.20058 
15283 1 1.14708 2.21696 -1.81867 
15285 1 2.90405 -1.01916 0.608023 
15284 3 -0.264763 2.46587 -2.18855 
15535 1 -5.29155 0.17761 5.94302 
7936 1 3.37384 1.51856 1.96379 
15536 3 -0.430234 3.43093 -1.52389 
6868 1 -0.0700468 -0.533658 -2.88697 
894 1 7.55566 -0.385099 -2.49365 
6869 2 -0.394601 1.85351 -1.56078 
6870 1 -8.65977 -0.826545 -1.15955 
8843 3 1.20624 -1.82371 1.50585 
8842 1 -1.63795 -1.82744 -2.56969 
893 3 0.00987229 -0.351028 0.022513 
892 1 -0.682842 2.41748 2.44304 
14324 2 -1.06216 -1.17476 -3.08642 
14323 1 -6.38088 1.52097 -1.00493 
14325 1 5.76435 -5.77114 0.854865 
4912 1 1.76433 1.92446 3.06997 
4914 1 3.63238 -2.8105 -1.55825 
1552 1 0.444273 -0.290881 0.975902 
1553 3 -0.408205 1.6038 -2.41061 
1554 1 5.07561 4.02999 -0.112739 
10526 3 0.438683 0.42206 1.48557 
10525 1 -1.58431 -5.5601 3.44743 
17902 1 -3.18403 0.907072 -3.22199 
17903 3 -4.05968 2.02501 1.89459 
17904 1 -3.11552 3.93045 -0.392733 
10527 1 -3.9493 2.42302 0.97001 
18202 1 2.49476 -5.13603 -2.63353 
18203 3 0.353531 1.13337 -1.63168 
18204 1 0.372146 2.6381 -1.22568 
11097 1 1.23692 -4.859 1.05199 
11096 3 -1.76591 1.46123 -2.04728 
2706 1 1.80349 -2.55639 0.027007 
2704 1 -0.542619 0.792346 1.31138 
2705 3 -0.262286 -1.37639 -4.2184 
21452 3 1.40554 -1.83499 -3.10463 
13560 1 -1.94153 -1.73692 -1.30333 
21453 1 -3.77507 -1.40658 -0.998286 
13559 3 -3.1516 -2.3942 3.35946 
8844 1 -1.85887 -0.151917 -0.353944 
21451 1 2.02987 7.18248 4.55787 
11555 3 0.0530264 -0.203411 1.08877 
11554 1 -8.78426 0.147023 -4.99177 
11556 1 3.16693 0.636656 2.09158 
12287 3 -1.38032 0.651258 -2.4974 
12286 1 -3.74841 -3.99 2.59022 
2206 1 0.427618 0.599878 0.658455 
2207 3 -2.82673 2.83805 -0.572231 
9518 3 -1.31803 -5.36734 3.51573 
9517 1 4.14272 -4.60372 -2.22975 
9519 1 -0.813785 4.80458 -1.7665 
12288 1 -0.250585 6.46011 2.03057 
15702 1 -1.79642 0.747682 0.409413 
15700 1 -2.5387 -1.39178 4.17688 
15701 3 -0.36591 0.703066 -0.498183 
18094 1 1.91124 2.69617 3.39663 
3821 3 -3.82182 -1.77446 2.36 
3820 1 -0.929465 -3.09341 1.57303 
1689 1 3.34896 -1.03898 -1.34234 
3822 1 -4.75507 1.41899 -2.1653 
1687 1 -6.08613 0.184672 -8.27153 
1688 3 0.334076 2.38428 0.71835 
2208 1 -2.44192 0.316367 -0.62379 
4293 1 -2.61048 -4.46441 -6.72004 
18247 1 -0.485965 0.0105464 5.37692 
18248 3 2.0903 -0.907636 -0.0908563 
18249 1 -4.08549 -1.6789 2.8089 
12481 1 -0.585934 5.60411 -4.46792 
4653 1 1.26573 0.0224483 -2.0629 
4652 3 1.61575 0.435807 3.81175 
4292 3 2.15058 3.77402 0.7563 
1945 1 2.83275 1.82282 -1.34077 
4291 1 -6.05429 -7.14216 6.49657 
1946 3 -0.00429834 -4.73519 0.0721099 
1947 1 -1.34655 3.28879 2.17366 
11095 1 0.339671 0.927079 -5.42321 
2502 1 -4.27299 1.14162 -6.30606 
6997 1 2.34724 -3.17407 -5.90797 
6998 3 3.98211 -5.57203 -0.577876 
6999 1 3.27498 0.97904 -0.630108 
755 2 -3.24774 -1.47996 -0.600829 
756 1 0.854588 -4.79033 -2.18901 
14480 3 -4.86875 -1.19426 -1.74573 
15422 3 2.50901 1.1649 3.16664 
15423 1 2.42115 0.256395 -1.76885 
14479 1 -0.690399 -3.4448 -0.833517 
15421 1 -0.249008 0.492577 6.26296 
7819 1 2.76757 -2.72571 -5.74076 
291 1 -1.92013 3.60247 5.81046 
290 3 1.30897 -3.98667 0.912081 
20254 1 -1.06855 -3.77014 -0.978871 
404 3 2.03499 -0.169699 4.90743 
2501 3 -1.31053 -1.38162 2.61381 
2500 1 6.37987 -3.40399 2.08992 
20255 3 -3.04965 0.626358 0.520531 
20256 1 2.68128 4.18355 2.37816 
6847 1 3.72172 1.57531 4.73725 
11152 1 2.23676 1.78235 0.600777 
405 1 -1.35911 -6.17999 -3.36781 
11048 3 -1.66373 1.01893 3.74313 
19228 1 4.84811 -2.36127 3.19832 
11049 1 -3.43435 3.80659 -1.35998 
19230 1 -4.04848 1.06591 2.09563 
13650 1 0.904795 0.157535 -3.51059 
11153 3 0.964358 1.48439 1.95485 
11047 1 1.12377 -1.30972 2.67136 
19229 2 -3.23975 -0.440254 2.37102 
2169 1 1.35464 -2.34615 2.2908 
11241 1 2.29726 -0.560864 1.96851 
20175 1 2.57501 3.77514 -1.49364 
13059 1 6.04332 1.5371 5.68248 
20550 1 1.22908 -2.93403 0.825238 
11240 3 4.91514 1.28858 0.743498 
20548 1 1.26216 3.60021 0.0571969 
20549 3 -5.15369 1.40813 0.132799 
18095 3 1.61504 -1.0847 -0.920791 
18096 1 7.02189 3.34422 6.86086 
13753 1 -0.977461 1.52141 -3.70537 
13755 1 -3.54778 -4.61618 1.59392 
7168 1 1.092 5.98558 4.03813 
13754 3 -0.228942 1.27759 -2.31084 
7169 3 -0.147442 2.41765 -1.21846 
3222 1 2.23962 1.34691 -0.541986 
7170 1 1.10137 1.6327 -4.77621 
9380 3 0.475867 0.267031 1.33333 
9381 1 1.85578 -3.18482 -2.01237 
9379 1 -0.930912 3.47609 3.94608 
427 1 -2.44149 0.297364 -5.30685 
13058 3 0.432729 0.543462 -3.14356 
13057 1 -2.91456 2.61091 -1.90136 
6487 1 -4.39643 -0.400833 -6.40507 
429 1 4.18207 -3.34204 2.47423 
428 3 -0.310917 -4.4467 2.07524 
1704 1 0.991935 2.26112 -1.17109 
1702 1 5.02573 6.01997 -0.660453 
1703 3 1.99405 0.942708 1.05824 
3978 1 -0.541105 2.66521 -0.918358 
10522 1 0.744147 5.31072 -4.48124 
3976 1 -4.12653 0.950033 -3.8521 
5504 3 2.80433 3.03162 2.53885 
5503 1 2.71045 3.73649 0.734957 
6100 1 -2.03262 -4.63209 4.72979 
5505 1 -1.36975 -0.743153 -1.27263 
2891 3 3.9192 2.48295 -2.13684 
2892 1 -7.07627 4.53135 3.89802 
6848 3 -1.45752 -1.58929 -3.81678 
6849 1 -3.10871 -2.77743 0.363947 
3977 3 -3.6553 0.220901 2.8263 
13923 1 -3.53918 4.69341 -1.32384 
5926 1 1.35306 -1.03494 -5.41293 
6101 3 0.163936 -1.1841 2.15794 
6102 1 0.593158 -4.05769 -3.32554 
754 1 5.78669 -1.96045 5.38062 
13921 1 5.67607 -0.475032 0.542593 
13993 1 -4.13537 -0.373162 -1.86606 
13994 3 0.180053 0.00665366 2.43236 
13922 3 -1.00961 2.28629 -2.02811 
7363 1 -5.40612 2.05777 0.572985 
13629 1 1.67377 -3.28166 2.52023 
14481 1 -7.14181 6.53257 3.00015 
13628 3 6.45856 3.65651 2.26481 
6936 1 -10.0992 -4.37653 2.28491 
6935 3 0.642479 -1.4332 -3.22501 
4761 1 2.46172 -3.5739 -1.41054 
2890 1 1.72335 -3.96116 0.637118 
6934 1 1.3654 0.591882 -2.07029 
8602 1 -1.32261 3.20203 0.715423 
8604 1 -1.05199 2.58124 0.97703 
8603 3 -1.64497 -2.94055 -2.22756 
3187 1 -1.01646 0.433268 1.53257 
1081 1 -6.41806 2.77284 0.0247008 
3188 3 -0.854326 1.79126 0.388553 
403 1 6.29921 -0.153115 2.70456 
5927 3 -0.219571 -0.596571 0.262582 
3189 1 2.40538 5.35996 6.30239 
3293 3 4.9243 -1.82192 -1.39799 
3292 1 -4.46038 0.116382 0.854713 
5928 1 1.28348 -4.34579 1.1676 
3294 1 0.447093 2.94469 -2.38243 
13649 3 -2.8057 1.17843 1.24741 
13648 1 -4.58281 -3.06302 -3.02787 
11154 1 3.45271 8.1366 2.69051 
7365 1 -1.66608 -3.76636 -1.3844 
8077 1 -0.590056 -5.96915 -3.04548 
8078 3 -3.53107 -4.97251 -0.887691 
7364 3 -1.92319 2.30557 -0.893835 
20174 3 -2.20387 3.75818 -0.120672 
20173 1 -1.83463 -3.23647 0.182305 
5008 1 -6.67327 0.616192 3.07746 
3221 3 4.53301 -3.74267 0.074813 
3220 1 -3.91785 1.15172 5.15219 
14082 1 7.56493 0.21373 -0.562512 
9171 1 2.08368 3.32604 -2.79532 
14508 1 1.32076 -3.47677 3.94979 
18238 1 -1.61734 -0.887436 -4.38842 
10523 3 0.0120303 -3.37885 -3.04723 
10524 1 -0.459828 -0.110454 -4.45734 
18239 3 -2.99671 -1.77252 -3.41537 
18240 1 -1.09767 5.6553 4.27482 
20053 1 5.27866 6.79698 -0.888994 
9170 3 0.451693 -2.75313 3.14881 
14081 3 0.979775 -2.99893 1.49983 
6304 1 -1.11902 1.32232 -1.769 
14080 1 -1.43442 -1.34127 0.171427 
6306 1 0.975597 2.09734 2.69035 
6305 3 -4.34873 3.03139 -4.98998 
9723 1 -3.18574 2.09226 -2.61657 
18424 1 -1.48397 -1.80809 -1.25349 
13995 1 -2.87928 -0.196287 -0.193897 
7670 3 3.07115 3.08135 -0.422636 
1410 1 0.8026 -0.387023 2.82359 
4760 3 -4.73385 2.77269 -0.877972 
1408 1 4.15689 1.24371 4.13427 
1409 3 -2.18128 1.4559 0.367307 
4759 1 -0.775398 -8.04777 0.381581 
10047 1 0.882194 -0.213399 -1.70857 
12847 1 -1.57169 -1.00115 -3.18166 
12849 1 -1.03787 -2.24016 -5.96152 
12848 3 0.207585 1.6746 0.740204 
7671 1 -4.102 1.88261 2.81852 
12414 1 1.82966 -2.30932 1.33864 
495 1 -1.19675 5.8658 -0.0630531 
1082 3 2.05661 -5.36169 -0.607386 
18425 3 2.9514 -0.0391231 2.81877 
1083 1 4.05869 6.95978 4.33738 
4285 1 0.306933 5.4696 5.4808 
4286 3 0.987286 -1.30055 2.77132 
17135 3 -0.692836 0.033047 -2.34776 
17136 1 0.0477398 -4.23245 6.5829 
16759 1 3.60522 -3.12241 2.99986 
4287 1 -1.96684 -1.76665 0.248549 
5824 1 -0.173839 0.244303 -2.75323 
5825 3 0.969122 -1.02519 -3.4871 
18426 1 -1.18029 -2.92631 0.944859 
10612 1 -8.71113 4.67171 -4.27591 
10613 3 3.44354 1.74667 2.87895 
17134 1 3.10977 -6.85944 0.719005 
10614 1 -1.31482 -8.17093 -1.44598 
8079 1 0.753335 -0.193249 -1.48233 
6977 3 -0.675111 -2.34847 -0.964581 
6976 1 -1.1538 -2.24601 2.63167 
14506 1 2.72082 -2.77598 0.755476 
16144 1 2.22637 1.95581 -4.11404 
16145 3 -1.84703 4.5966 -0.5313 
16146 1 4.25353 0.809857 0.372333 
14507 3 0.590498 2.89112 -3.27534 
9722 3 0.88036 -3.29732 -0.0781003 
20055 1 -5.72079 -9.64411 2.4205 
20054 3 0.516741 1.70439 2.1808 
9721 1 0.179844 4.26417 -1.75874 
6978 1 4.01812 -0.641001 -3.7487 
13950 1 -7.04527 -1.82384 -2.02501 
13949 3 -2.84544 -0.00992594 -4.52972 
18663 1 1.39426 3.81725 3.16955 
13948 1 -2.29511 2.71507 2.08588 
18662 2 -1.01273 1.24114 -2.0392 
16760 3 -0.0044758 2.05878 -1.71155 
16761 1 -2.25504 -4.10232 -2.45453 
15294 1 0.0664951 6.48044 6.01675 
15293 3 1.37332 0.537861 -0.159824 
5826 1 -1.13183 5.6016 2.57608 
18661 1 -1.43797 1.52887 0.472285 
19411 1 -7.64485 -3.03018 -2.09686 
19351 1 2.49675 -2.70666 0.155188 
19412 2 4.03239 1.35445 -0.608025 
19413 1 -2.14061 -2.87233 -0.497058 
19352 2 2.35565 -2.96228 1.02824 
15292 1 -1.11637 -3.13927 0.387317 
19353 1 -7.68342 -3.21941 2.08505 
10677 1 -0.700319 -4.15091 -1.79479 
4205 2 1.73422 5.3799 4.52733 
21019 1 0.602262 -3.29031 0.817389 
10235 3 0.809695 0.238332 -4.76043 
15737 3 4.28217 0.717574 0.88791 
15736 1 0.960218 2.99363 -0.902015 
10236 1 -0.91634 -5.96497 -7.09315 
15738 1 2.9429 -5.46336 0.0251139 
10234 1 1.06429 -1.59932 -2.99982 
19378 1 1.12952 1.32584 -0.598732 
12019 1 -2.59968 7.72164 -1.25592 
4204 1 3.45666 6.22346 3.45873 
10676 3 -2.05461 1.14273 -2.34338 
10675 1 10.1904 -0.0858871 1.16694 
11143 1 0.579061 2.16665 -3.06919 
13430 2 -0.672748 -2.07888 2.28954 
13431 1 4.42316 4.01874 -1.84294 
13429 1 -0.586534 -2.7096 -2.65679 
3639 1 -1.01742 -1.64047 1.02495 
3638 2 1.20175 0.52021 4.44136 
6441 1 -6.97968 -1.61595 -3.72874 
14563 1 4.72031 -2.11956 1.54989 
6439 1 -7.45252 -7.15757 1.72561 
14564 2 -1.23149 -2.60277 1.0868 
5149 1 -4.54992 1.52173 -0.982256 
20099 2 4.66943 -0.736171 -1.07565 
20098 1 -3.49877 0.828091 -4.622 
14565 1 3.87407 -0.858856 5.93742 
1363 1 1.76774 -0.474531 6.22528 
1364 2 -4.56871 1.28884 0.87615 
5150 2 3.03264 2.16632 -2.46183 
1365 1 -4.23639 -2.90423 3.86288 
5151 1 1.94816 0.485765 -7.92277 
20100 1 -5.07559 1.40099 -5.47571 
17860 1 1.68823 2.17982 -5.95679 
5940 1 -3.84855 -0.600655 2.15502 
5939 2 -1.19956 0.248488 -1.91712 
5938 1 1.9646 -4.44224 -3.50289 
13479 1 2.97914 6.23448 2.27067 
13478 2 1.93104 -1.35507 -0.551714 
13477 1 -0.479794 -0.174209 1.39199 
12042 1 -1.25019 5.30516 -1.55703 
12041 2 -0.802689 1.67263 3.04075 
12040 1 0.350531 0.156673 4.84679 
14062 1 -10.5289 -0.230908 5.45989 
14063 2 2.29919 1.74826 0.736902 
4206 1 -2.55782 -1.36536 -0.690037 
14064 1 -0.840881 0.777318 2.29276 
21020 2 6.7465 -0.100295 -0.931506 
21021 1 2.6479 1.84688 -5.5773 
2804 2 2.99202 0.171825 -1.58458 
2805 1 5.04219 -2.91056 -2.24145 
20673 1 -0.2492 -2.96808 6.33462 
20672 3 1.8855 -0.586364 -2.69261 
20671 1 4.45202 4.88598 -7.59698 
21462 1 -3.61653 -0.442241 1.48529 
19379 2 1.69611 0.483724 2.21637 
19380 1 2.9713 4.75849 -1.25654 
14657 2 -1.00538 0.29819 1.33452 
14658 1 -2.15475 1.21596 -2.36529 
14656 1 1.84724 1.15576 -0.64353 
12020 2 1.15079 -0.00599036 -0.81425 
19180 1 3.03461 -0.742692 -5.63264 
12021 1 -0.963917 -2.51892 9.68513 
19182 1 3.2302 -0.247238 0.760704 
19181 2 0.940242 -1.23908 0.058724 
953 2 2.05881 1.74549 3.79933 
952 1 2.45344 -2.52701 4.20108 
662 2 -0.0186009 7.44008 -3.09738 
661 1 3.95414 -1.32132 4.05564 
4474 1 2.61038 3.96768 4.55258 
663 1 0.424113 2.92437 2.96003 
18814 1 0.677856 -2.07898 6.50412 
18815 2 2.69108 3.52701 -0.344931 
7480 1 2.6913 4.98767 -2.87392 
8407 1 0.357473 3.96204 -1.4559 
7481 3 3.51877 0.826847 -1.26144 
3685 1 0.206129 1.86555 -4.37531 
3686 3 3.28378 -2.30404 -2.97751 
3687 1 -1.73194 4.225 2.39291 
3163 1 -5.03333 1.38378 -4.05409 
3164 2 -0.213497 -0.991807 3.35034 
3165 1 -2.69246 5.34131 0.515486 
6571 1 -5.78111 1.33802 -5.91319 
3362 2 -4.29767 2.70097 0.35963 
3361 1 -9.56204 3.36348 0.528731 
7097 2 2.18904 2.36465 -3.64091 
7098 1 5.96442 -0.198354 -4.28465 
3363 1 -4.59558 -0.938379 -2.7719 
7096 1 0.3161 0.173736 4.46757 
7103 2 0.26852 -0.284331 3.3861 
4957 1 -6.76846 2.84398 -2.76607 
15150 1 -3.14748 0.0233799 6.41498 
15149 2 0.022561 -0.671298 0.250814 
7104 1 -1.53692 -3.27603 0.929738 
15148 1 -5.43085 1.20279 -0.52106 
11857 1 3.28696 -0.998723 1.86041 
11858 2 -0.590826 1.36907 0.421638 
4958 2 2.061 3.44109 -0.0867342 
16228 1 0.522005 -3.64306 1.23864 
16229 2 3.29658 -4.4857 -1.09349 
16230 1 0.76037 -1.21594 0.150123 
14517 1 5.40101 -3.43579 -6.22097 
14516 2 3.20702 2.11009 0.283456 
14515 1 3.12911 -1.45918 -7.6889 
1027 1 2.08823 2.68942 -3.34541 
10708 1 -1.80289 5.112 1.89498 
14896 1 4.747 -1.78578 5.27224 
11145 1 -3.54766 1.46154 4.50174 
11307 1 4.99383 0.945354 0.215941 
11306 2 0.238008 -0.850942 0.0369964 
13786 1 2.38596 -2.4769 -0.519991 
1789 1 1.57245 3.49722 0.498749 
11305 1 -2.45374 1.68314 -5.20051 
19711 1 1.88618 -2.53043 2.01348 
17926 1 6.07518 5.42247 4.71604 
11144 2 0.311178 1.8384 1.61354 
13787 2 4.68831 -0.287851 2.86873 
12136 1 2.8224 -0.650576 -2.67417 
13788 1 1.61623 3.35472 1.57028 
12137 2 1.38053 1.76996 -2.26996 
12138 1 -2.66767 2.55352 1.86418 
7102 1 0.915995 1.05025 0.974225 
3637 1 -0.710746 1.55876 2.36131 
13596 1 2.2339 7.26988 2.74761 
13595 2 2.06645 -1.68231 -0.465644 
4757 2 1.16726 1.02785 3.93741 
4756 1 -5.4923 1.28011 1.89196 
6440 2 -1.91038 -0.394652 0.807972 
11973 1 5.01796 2.47594 0.826618 
15240 1 -5.05458 0.773152 -2.25923 
15239 2 1.99362 -0.459274 2.77006 
15238 1 3.02757 -1.36291 2.09531 
11972 2 -3.92528 -0.799167 -1.62568 
13194 1 -0.597473 7.06004 -1.37155 
13193 2 -3.55407 1.4932 1.56822 
13192 1 6.80313 5.29581 -0.671874 
11971 1 1.67958 2.15175 0.517187 
16924 1 3.00625 -1.89359 4.82126 
16925 2 -1.08698 3.54983 2.2953 
10709 2 -3.36021 -2.49779 4.3388 
13391 2 -1.75881 1.21187 2.63834 
13392 1 -4.17241 3.58437 2.28372 
13390 1 -0.0880293 -8.4403 2.34386 
10710 1 -7.17624 1.10056 -2.20317 
7832 2 -2.98885 0.665212 -0.0477245 
7833 1 -8.37097 -0.464362 -2.3368 
7831 1 -1.19723 -0.184497 -0.0533011 
7971 1 -0.0219284 0.215962 6.18327 
19712 2 0.895123 4.41954 -0.733657 
17862 1 -1.7881 -5.11716 -0.0746891 
17861 2 2.19888 1.94949 -2.5854 
4510 1 4.56893 1.5006 4.8099 
11709 1 -1.76501 -3.43086 1.66552 
11708 2 0.821188 1.82899 -0.263845 
11707 1 0.628301 -0.579728 4.53952 
19713 1 0.445994 -2.94182 -5.82244 
4512 1 -1.27365 -0.181571 -1.40625 
954 1 0.180678 -1.0665 -4.49668 
4511 2 2.52839 -2.96458 1.09199 
13594 1 -3.91819 4.11931 2.04434 
2913 1 3.76875 -2.15309 2.46432 
2912 2 0.983802 -2.08078 -1.19645 
2911 1 -2.57862 -0.551672 -2.41123 
7702 1 -1.75603 4.7221 1.30972 
12509 2 0.653821 -1.67311 -1.80537 
7945 1 -4.4856 0.854327 0.441711 
12508 1 -4.3718 1.34277 2.77935 
20199 1 1.04221 -2.45963 1.50037 
7946 2 -0.00514146 0.580444 -3.30125 
7947 1 0.510442 2.02246 -0.747499 
9612 1 3.23501 1.31575 -7.08154 
20198 2 -0.491055 -4.52897 0.485975 
9611 2 -0.233531 -1.82661 -1.50345 
9610 1 -0.631588 2.66776 -1.51894 
17040 1 -0.140487 5.89663 -5.32608 
17039 2 -1.20111 2.22511 1.26632 
17038 1 0.154131 2.0045 9.81028 
17616 1 4.27344 2.4016 -2.65257 
6576 1 -1.92062 5.3778 0.515857 
17615 2 0.723281 2.94282 -0.976539 
17614 1 -1.7107 3.51252 0.202179 
2803 1 0.702335 2.52613 0.0760231 
21461 2 1.47325 2.40832 -0.361501 
10249 1 -2.71319 4.8371 5.05251 
4253 2 -1.84294 -1.29209 1.63376 
10251 1 5.16535 0.926652 0.168799 
4254 1 -0.903189 -0.0547964 3.72138 
10250 2 -2.67646 -1.2781 -2.25322 
14518 1 -3.05555 -4.70037 -0.807417 
14519 2 -2.26902 0.507327 -0.433451 
3894 1 4.99137 0.76494 -3.34668 
12963 1 -3.86132 3.14951 -2.84009 
3893 2 -0.429288 -0.253224 -4.72206 
14520 1 0.50688 -1.89954 -0.924934 
3892 1 -1.09161 4.02939 -2.51828 
5006 2 -2.13464 1.81094 -2.60086 
12962 2 4.85614 1.16094 -2.86948 
12961 1 -1.38018 0.473623 -3.52479 
19185 1 -1.9426 2.02213 -1.1773 
19184 2 -1.28849 2.21619 2.44813 
5005 1 3.09898 1.0185 -1.77905 
20907 1 -3.21985 -3.55804 -4.64474 
20906 2 -1.0327 1.90261 0.486755 
2229 1 3.98022 5.97756 -4.34558 
20905 1 5.74832 -0.919996 -3.60187 
2228 2 -1.86569 -1.44133 3.2836 
12510 1 0.25365 -0.288228 -1.52093 
5007 1 0.28155 3.51921 0.852345 
19360 1 -3.47253 3.0631 1.9582 
4475 2 -2.06028 -0.582208 3.22526 
2227 1 5.08955 3.85508 -0.0838295 
1357 1 -3.67497 0.234573 0.554939 
4476 1 6.94483 2.49864 -0.596332 
1359 1 2.82448 -2.02221 1.63367 
1358 2 0.168182 -2.22903 -0.183528 
16959 1 -3.51072 -0.189359 -2.88681 
16957 1 -3.82089 4.82814 2.98846 
19699 1 0.485241 3.58371 7.35089 
17380 1 -1.23246 3.92826 -2.50238 
19700 2 -1.74331 3.97787 -2.2118 
16958 2 -3.14385 -1.04523 0.560441 
21460 1 -2.04411 -2.21348 2.97983 
17382 1 -0.426891 5.92952 4.92337 
827 2 -2.09897 3.65864 -9.0809 
826 1 -0.323305 -0.846344 -2.83253 
17381 2 1.93112 -1.53656 -0.563893 
9676 1 -1.03702 -4.95156 0.680387 
9677 2 4.59809 4.76733 -2.4611 
20677 1 3.07176 -0.228146 4.51097 
12654 1 0.1607 -4.61205 1.38187 
13738 1 -3.50459 0.0395513 1.8479 
12652 1 -1.28536 3.60297 -1.78166 
12653 3 2.53585 -2.66129 2.2543 
19183 1 0.558721 3.85519 6.18558 
19361 2 1.60845 -6.06878 -0.023751 
19362 1 1.79069 2.70084 0.770225 
8649 1 -0.719867 -0.115184 2.20507 
9390 1 1.10529 -1.06036 -1.3951 
9389 2 -0.520302 -5.12089 -0.259222 
12881 2 -5.60029 -2.8616 -1.06867 
9388 1 1.38151 3.19159 3.62996 
12880 1 2.20062 5.12904 -0.822884 
12882 1 -0.177752 -5.38817 -0.479217 
20678 2 -0.600465 1.18807 2.08295 
3497 2 2.1573 0.836569 -2.95983 
3498 1 -0.535527 -1.9881 0.861684 
3178 1 4.16954 -0.127278 -3.74752 
3496 1 1.63469 -1.08635 -3.51207 
9298 1 -6.80803 -6.72727 2.82768 
9299 2 -0.454463 0.954149 -3.57661 
17244 1 -3.37693 4.09843 0.961099 
9325 1 0.87361 5.94698 3.91612 
17243 2 -0.89928 -2.28685 -3.17863 
6984 1 3.95682 2.86274 -0.20075 
6983 2 2.32055 1.61604 0.626742 
6982 1 -0.418057 -1.0355 -6.58945 
17242 1 -1.90757 0.3038 -0.120275 
17403 1 1.80759 4.07815 0.0378977 
17402 3 1.50653 -1.98898 1.7728 
17401 1 -2.59301 0.46601 1.79719 
8310 1 -1.99663 -4.76584 -0.177506 
4391 2 1.14144 1.63213 1.7352 
4392 1 0.764363 -1.77148 2.10142 
4390 1 -2.22209 3.30632 -1.63753 
13954 1 -3.08805 2.42855 0.91628 
382 1 -2.51661 -1.91862 2.66704 
13955 2 1.27484 -4.94248 -0.860001 
4913 2 0.582345 1.03072 -2.06483 
13586 2 -1.00291 -2.30534 0.0499432 
18816 1 2.57693 -0.902641 -0.593504 
13587 1 -3.02962 -2.68691 1.74435 
13585 1 -2.13062 0.0912848 2.499 
13956 1 3.02337 -0.998734 0.0902577 
9326 2 2.35853 -1.82139 -4.61507 
9327 1 3.05639 2.91084 1.20969 
15112 1 -1.81369 -0.832435 -1.94936 
8244 1 -2.85922 -0.796104 -3.09447 
11652 1 1.09608 3.96071 -0.954106 
11651 2 0.387477 1.54891 4.68853 
15113 2 3.09193 -0.497539 -0.136964 
8243 2 0.535606 1.75501 2.5157 
15114 1 -1.60241 4.07509 0.998274 
8409 1 1.74465 -0.336282 -7.38927 
8408 2 2.49607 -0.888387 -5.44958 
11650 1 -1.22904 0.934189 1.72852 
7482 1 -3.72779 2.06845 3.73539 
3285 1 -3.80254 -3.12707 -1.19014 
12705 1 -1.87555 -5.54769 -5.30521 
14218 1 -0.895443 -0.513815 2.11344 
14219 2 2.84515 4.90475 -4.06468 
3284 2 2.75276 3.08084 4.87453 
12703 1 -3.41831 -4.19111 -1.63064 
7974 1 -3.12694 4.04379 2.78458 
12704 2 -0.227835 1.4717 -1.96733 
16280 2 -1.65241 -5.10104 3.13536 
16279 1 -2.16543 4.81416 -2.00576 
12322 1 -5.51305 -1.27252 -3.34615 
12324 1 0.465157 -6.35002 6.9338 
6573 1 -5.65068 -0.81498 3.41946 
12323 2 1.45302 0.678752 -1.34405 
18303 1 -5.97436 -4.56599 -5.17873 
18302 2 -2.3948 1.67499 0.41074 
18301 1 -3.82012 -0.696549 -2.11407 
6572 3 1.38194 -4.03053 -1.68998 
2489 2 -0.562639 2.56872 4.54939 
6169 1 -2.23722 6.94937 1.35426 
15385 1 -0.608375 2.41863 -3.02498 
15386 2 -2.7413 -0.338672 -0.717654 
13888 1 -0.939098 -3.09508 -2.56272 
15387 1 -2.87517 4.70725 1.68835 
20176 1 0.856087 -1.30881 -1.56928 
18260 2 -1.27189 -1.17336 1.50801 
18259 1 8.79235 2.00528 8.75107 
20177 2 -0.590964 -2.96638 0.259079 
20178 1 -6.3415 -0.331889 0.930283 
5583 1 0.290803 2.3039 -4.75411 
14220 1 0.609084 -1.16695 0.576145 
13890 1 -7.24289 -5.33321 -2.32775 
18261 1 -1.35381 -0.681455 -2.70124 
13889 2 1.7449 -1.58753 1.32153 
12397 1 5.8864 -5.68566 -1.0452 
1518 1 -8.13975 -4.70798 1.70921 
5582 2 -0.82015 -3.02018 -2.70898 
5581 1 -1.04272 2.16467 -1.77818 
7973 2 1.43222 -0.199607 0.589944 
7972 1 0.189488 -1.84949 -5.95057 
11859 1 5.29185 0.441986 -0.316462 
12399 1 -3.2687 -2.29934 3.80168 
12398 2 -0.262756 -4.05284 3.15685 
7993 1 1.60504 -6.72814 -8.00677 
14340 1 3.62799 -2.23458 1.79065 
14339 2 0.802468 0.522011 -2.75768 
19385 2 -3.76123 -4.71516 1.36796 
4959 1 4.20027 5.16213 -1.78361 
19384 1 -3.88501 -0.90046 -9.07066 
19386 1 3.21115 1.98225 1.54453 
19485 1 -0.965983 -0.0997917 0.761417 
19484 2 1.39098 1.55168 -1.13666 
2488 1 -0.75113 -0.903134 2.66918 
7994 2 -0.328322 -1.43485 -1.57522 
7995 1 -0.494898 -4.7089 -0.960862 
16368 1 -4.58223 -0.727696 1.81466 
16367 2 -2.4848 -0.689405 -0.429428 
12378 1 0.769803 1.32774 -1.59109 
12377 2 1.91848 2.78939 -2.44055 
12376 1 5.70362 3.67485 2.97862 
19483 1 -0.0494779 -0.533132 -3.73072 
14898 1 -0.71682 1.9753 -0.495505 
14897 2 2.7567 -3.39236 0.651041 
4915 1 -2.699 -5.2545 -5.15342 
19797 1 -0.701137 -4.40071 -0.484414 
19796 2 3.44855 -0.670034 -4.84027 
19795 1 1.71912 -1.17848 0.813667 
4916 2 0.937003 -1.17717 -1.20253 
1028 2 4.60179 1.0117 -1.44392 
18465 1 0.199854 -1.86659 -4.15132 
18464 2 1.43744 -1.47986 2.77998 
1029 1 5.38646 -3.15084 -1.07925 
13977 1 1.09185 -1.69012 0.645422 
13976 2 -1.00055 0.782962 2.03243 
13975 1 2.67829 0.0539092 2.38246 
17927 2 -0.613675 0.804613 -0.878527 
17928 1 -3.92254 -0.313707 6.21486 
5726 2 -2.24183 -1.5344 2.0383 
5725 1 -3.31812 -1.79314 3.99317 
14985 1 -1.0896 0.00590702 -2.0742 
5727 1 -0.354008 2.98584 -0.984659 
12845 2 0.274152 3.63884 2.65642 
1516 1 1.74426 -1.7737 3.77845 
12844 1 4.40482 1.96929 3.19163 
1517 2 -0.130737 -0.0611295 3.04426 
12846 1 -6.78055 0.194722 -0.931819 
4758 1 -3.43152 -7.33436 1.83227 
15207 1 3.56397 -6.76234 -2.54282 
15135 1 -2.88025 -5.80185 6.56885 
15133 1 1.10825 -7.63638 -0.482303 
15134 2 -0.374481 2.53574 1.26883 
9089 2 -0.204412 2.02727 4.0191 
16476 1 -2.84636 0.331539 0.536866 
9088 1 -0.527627 -6.29791 -6.24184 
16475 2 -3.47048 -0.938214 0.945054 
9419 2 -0.153247 2.29839 3.74463 
16926 1 -8.54196 -3.87302 -0.901446 
16366 1 0.534044 1.10337 -1.49561 
16645 1 -4.24271 -1.55496 4.3001 