ITEM: TIMESTEP
35000000
ITEM: NUMBER OF ATOMS
507
ITEM: BOX BOUNDS pp pp pp
0.0000000000000000e+00 5.0000000000000000e+01
0.0000000000000000e+00 5.0000000000000000e+01
0.0000000000000000e+00 5.0000000000000000e+01
ITEM: ATOMS id type xs ys zs
2372 3 0.07196 0.714225 0.0216734
2373 1 0.077652 0.719183 0.0171375
14457 1 0.0796886 0.720785 0.0156537
14456 2 0.085229 0.725343 0.0120298
18889 1 0.0678837 0.706325 0.0307139
2371 1 0.0686106 0.708831 0.0286014
12808 1 0.0107383 0.731907 0.00613771
12683 2 0.0295972 0.755894 0.0190478
5085 1 0.00869291 0.731454 0.00812054
5084 2 0.00181797 0.730988 0.0122036
12809 2 0.0170716 0.733153 0.00256274
12810 1 0.0219039 0.739174 0.000103447
4133 2 0.043589 0.746936 0.0105906
4134 1 0.0377449 0.751027 0.014117
12684 1 0.0354034 0.752264 0.0156216
14355 1 0.0500402 0.740628 0.00597098
4132 1 0.0479336 0.742583 0.00730314
14354 2 0.0555192 0.735303 0.00391627
14455 1 0.0881941 0.729848 0.00682518
941 2 0.0737505 0.736565 0.0297716
942 1 0.075116 0.740261 0.022589
4096 1 0.0758543 0.741191 0.0201794
19423 1 0.0895125 0.732259 0.00484228
4098 1 0.0792012 0.749532 0.00650312
4097 2 0.0789977 0.745301 0.0129106
19424 2 0.0930746 0.737705 0.000562203
17522 2 0.103244 0.739761 0.0210596
12279 1 0.0999673 0.737051 0.0314841
17521 1 0.101088 0.737935 0.0284925
17523 1 0.103784 0.739731 0.0129483
5169 1 0.00130327 0.783546 0.0239058
7890 1 0.00254048 0.786387 0.0231725
7121 2 0.0197268 0.769675 0.0275697
7122 1 0.0229527 0.763309 0.0249942
12682 1 0.0243585 0.761208 0.0236667
7120 1 0.0191751 0.776763 0.0294571
13804 1 0.019497 0.779562 0.0305589
951 1 0.0550711 0.766532 0.0109785
17629 1 0.0522843 0.766711 0.0104625
8584 1 0.0516331 0.786676 0.0225981
11352 1 0.0526052 0.784861 0.0252638
17631 1 0.0385793 0.765176 0.00536689
11355 1 0.0371183 0.764498 0.00316952
15464 2 0.0568934 0.761002 0.0303791
17630 2 0.0444684 0.768064 0.0112472
950 2 0.0629149 0.76732 0.012008
949 1 0.0663942 0.772506 0.0143127
11799 1 0.0678864 0.775328 0.0156912
11798 2 0.0722509 0.77985 0.0201115
11797 1 0.0772121 0.782966 0.0252166
7206 1 0.0792226 0.783656 0.0270113
7205 2 0.0838314 0.786039 0.0321881
12647 2 0.0835195 0.784507 0.00300375
18445 1 0.119746 0.761621 0.00331224
18446 2 0.112483 0.76573 0.00364265
7888 1 0.00724279 0.799315 0.0167602
7738 1 0.00786144 0.801644 0.0151703
7740 1 0.0113021 0.816216 0.0139788
7739 2 0.0101252 0.808384 0.0119597
7889 2 0.00667621 0.793847 0.0220762
8586 1 0.0471327 0.788344 0.00806594
12903 1 0.0474657 0.787911 0.00480869
8585 2 0.0469387 0.789288 0.0162502
1624 1 0.0523437 0.809734 0.00200242
1625 2 0.0492432 0.810884 0.00857708
1626 1 0.0493606 0.809821 0.0161954
3943 1 0.0497254 0.809529 0.0190708
3944 2 0.0504112 0.810276 0.026157
12648 1 0.0778954 0.789701 0.00484181
2880 1 0.0758318 0.791699 0.0058579
2879 2 0.0703164 0.797436 0.00851314
2878 1 0.0696805 0.800732 0.0150219
15721 1 0.0702945 0.801741 0.0177407
15722 2 0.0715119 0.803738 0.025508
18265 1 0.0641334 0.815963 0.0179823
20061 1 0.095956 0.795156 0.0119041
20060 2 0.0981246 0.796454 0.0190278
20059 1 0.101688 0.795971 0.0264764
8263 1 0.102461 0.795564 0.0290006
6431 2 0.00199607 0.835837 0.00214012
13911 1 0.0119012 0.819135 0.015266
13910 2 0.013486 0.82644 0.0183875
13909 1 0.0147679 0.831607 0.0250181
1338 1 0.0154256 0.833082 0.0263297
1337 2 0.019281 0.838461 0.0293769
19232 2 0.0417129 0.835867 0.0250701
19231 1 0.0498765 0.83776 0.0270001
17095 1 0.0531626 0.837684 0.0272648
17096 2 0.0606951 0.838116 0.0282834
19233 1 0.0383415 0.842989 0.0222382
18266 2 0.0694835 0.82177 0.0163836
18267 1 0.0746865 0.826085 0.0209438
6421 1 0.0769035 0.827469 0.0225471
6422 2 0.0832242 0.83022 0.026644
6423 1 0.0884109 0.834371 0.0281649
5675 2 0.0235068 0.862495 0.0155596
5674 1 0.0202542 0.869749 0.0164301
4657 1 0.0186289 0.872919 0.016528
14783 2 0.0311423 0.875169 0.0303555
5676 1 0.0312578 0.858344 0.0148563
19071 1 0.0338994 0.857119 0.0145746
10754 2 0.049961 0.857858 0.0281541
19069 1 0.0455703 0.855686 0.0197416
10753 1 0.0466622 0.856364 0.022237
19070 2 0.0411307 0.854366 0.0129874
14344 1 0.0398629 0.872565 0.00540438
21280 1 0.0396726 0.87122 0.00252404
14345 2 0.0395311 0.876304 0.01375
14782 1 0.0344912 0.875563 0.0233972
14346 1 0.0355198 0.875663 0.0210707
4658 2 0.0147895 0.880252 0.0164182
4659 1 0.0153991 0.887994 0.0143116
12802 1 0.0558816 0.701225 0.0417309
18891 1 0.0584931 0.70078 0.0398669
12804 1 0.0472321 0.711049 0.0479132
1257 1 0.0464327 0.71388 0.0487204
1256 2 0.0434364 0.721688 0.0500082
12803 3 0.0500207 0.703687 0.0468828
18890 3 0.0652034 0.700632 0.035716
3584 3 0.0803825 0.713563 0.0435745
3583 1 0.0823278 0.712319 0.0361804
3585 1 0.0800808 0.715526 0.051019
21169 1 0.0252198 0.739934 0.0538103
8925 1 0.0229385 0.741107 0.0552846
8924 2 0.0158279 0.744095 0.0592195
8923 1 0.0170448 0.749676 0.0643282
1255 1 0.0380835 0.728269 0.0504301
21170 2 0.0314024 0.737747 0.0487418
21171 1 0.0359473 0.730621 0.0500185
17525 2 0.0592991 0.756835 0.0528259
17526 1 0.0601394 0.750847 0.0483519
7326 1 0.0599652 0.748186 0.0463145
7325 2 0.0592061 0.740981 0.0408055
940 1 0.0672096 0.738701 0.0348516
7324 1 0.064883 0.739038 0.0364142
18530 2 0.083481 0.74618 0.0547827
18529 1 0.0766632 0.743807 0.0582343
18531 1 0.0904107 0.750462 0.0552779
12277 1 0.0997477 0.729322 0.0465142
12278 2 0.0994624 0.733036 0.0390234
11545 1 0.117979 0.755629 0.0543214
20685 1 0.161309 0.753897 0.0490187
13134 1 0.000186219 0.758215 0.0495388
13132 1 0.0140882 0.763807 0.0494539
18312 1 0.0168304 0.763697 0.0485635
18310 1 0.0304069 0.762818 0.0438029
18311 2 0.0238647 0.765549 0.0471115
13133 2 0.0063305 0.762761 0.0521577
13805 2 0.0213415 0.78654 0.0339975
3317 2 0.0395703 0.761229 0.0379694
17524 1 0.0621795 0.763941 0.0543627
3318 1 0.0473556 0.762059 0.0359499
3316 1 0.0326424 0.762181 0.0424357
15463 1 0.0501028 0.762048 0.0348179
16608 1 0.0511409 0.781047 0.0582678
11351 2 0.0543407 0.780648 0.0325195
16607 2 0.0476837 0.774042 0.0596688
11350 1 0.0599173 0.779107 0.0376532
16606 1 0.043218 0.766926 0.0615002
8088 1 0.0418666 0.76462 0.0621855
21120 1 0.0618373 0.778427 0.0396478
14500 1 0.0836011 0.762236 0.0339416
15465 1 0.0652371 0.759289 0.0326144
14502 1 0.0686663 0.759079 0.0337058
14501 2 0.0756435 0.758804 0.0369438
21118 1 0.0730962 0.781353 0.0482187
21119 2 0.0686579 0.777376 0.0446783
10665 1 0.0745889 0.783534 0.0502078
7204 1 0.0865032 0.780686 0.0362041
5493 1 0.0875739 0.778022 0.0377358
5492 2 0.0907294 0.771606 0.0413577
10664 2 0.0787022 0.787814 0.0554734
9199 1 0.0860301 0.761618 0.0602098
9200 2 0.0814471 0.767812 0.0623344
1812 1 0.106265 0.760079 0.0582405
1811 2 0.105447 0.768147 0.0598356
5491 1 0.0959224 0.768581 0.0459058
18090 1 0.102313 0.778947 0.0585737
1810 1 0.103256 0.775716 0.0590577
18089 2 0.0996732 0.78679 0.0577084
8265 1 0.107944 0.786001 0.0395146
11546 3 0.123188 0.759952 0.0517218
10419 1 0.147918 0.762734 0.0473477
20683 1 0.150346 0.76203 0.0466445
10418 2 0.140939 0.766094 0.0485285
11547 1 0.130203 0.762755 0.0494472
10417 1 0.132905 0.763516 0.0489663
20684 3 0.157954 0.759747 0.0448732
758 2 0.00316531 0.808332 0.0552993
759 1 0.00976366 0.802744 0.054782
16792 1 0.0122541 0.800925 0.0542585
16793 2 0.0186614 0.795562 0.0525206
16794 1 0.0254596 0.793109 0.0507613
13806 1 0.0256611 0.793459 0.0336288
21178 1 0.0264673 0.795997 0.0338838
2631 1 0.0282766 0.792129 0.0498022
21179 2 0.0278078 0.802933 0.03338
21180 1 0.026657 0.811002 0.0350436
4497 1 0.0263062 0.813753 0.0360083
2630 2 0.035356 0.788402 0.0480199
3945 1 0.0484915 0.813385 0.0342535
1867 1 0.0476781 0.814183 0.0364541
10560 1 0.0599935 0.803391 0.0493779
1868 2 0.0442455 0.814464 0.043413
15982 1 0.058012 0.801139 0.0493628
15983 2 0.0525061 0.794264 0.0495006
2629 1 0.0426926 0.790936 0.048684
15984 1 0.045286 0.791973 0.0494108
9756 1 0.0461136 0.813599 0.0583498
15723 1 0.0763069 0.806193 0.0323195
10559 2 0.0638581 0.810018 0.04839
15674 2 0.0843079 0.809577 0.0405798
15673 1 0.0888678 0.809413 0.0478202
15675 1 0.0780482 0.807419 0.0347472
10558 1 0.0655734 0.816544 0.0442891
15801 1 0.0906004 0.808372 0.0502406
10663 1 0.0810522 0.787966 0.063337
8264 2 0.105518 0.793816 0.0359494
18088 1 0.0975075 0.793424 0.0569638
15799 1 0.0966547 0.79604 0.0564588
15800 2 0.0950782 0.803875 0.0556091
11776 1 0.00173126 0.824387 0.0437927
3016 1 0.0013144 0.822923 0.0412189
3017 2 0.000472135 0.81969 0.0342157
4496 2 0.0241932 0.821035 0.0387843
11778 1 0.00639413 0.837069 0.0527198
1336 1 0.0231746 0.843253 0.0322954
18822 1 0.0245219 0.84547 0.0337145
17658 1 0.00765335 0.839564 0.0538836
17657 2 0.011479 0.845718 0.0558285
4495 1 0.0253184 0.824792 0.0455827
12856 1 0.0251855 0.826257 0.0483245
12857 2 0.0244454 0.82964 0.0555325
12858 1 0.0269017 0.830865 0.0623668
11777 2 0.00284943 0.829596 0.0503409
1869 1 0.0448529 0.822757 0.0465396
2005 1 0.0448246 0.825559 0.0469186
2006 2 0.0458738 0.833571 0.0487725
2007 1 0.0490868 0.840808 0.048559
13189 1 0.0507019 0.843504 0.0479372
9755 2 0.0437321 0.819302 0.0638491
20784 1 0.0663936 0.818805 0.043023
20783 2 0.0672837 0.824729 0.0388415
17097 1 0.0640644 0.833654 0.0329129
20782 1 0.065224 0.83135 0.0346639
13970 2 0.063225 0.826937 0.06399
18821 2 0.0291378 0.849968 0.0385517
18820 1 0.0310708 0.850671 0.0465546
17656 1 0.0134449 0.852874 0.0594705
5190 1 0.0143126 0.8558 0.0615198
5189 2 0.0167263 0.863219 0.0639689
5655 1 0.0235305 0.87256 0.0361428
14784 1 0.0256071 0.873328 0.033807
5654 2 0.0192479 0.871121 0.0435577
5653 1 0.0141718 0.868062 0.0487556
13190 2 0.0539584 0.850025 0.0459028
10755 1 0.0518562 0.854615 0.0355502
13191 1 0.0524316 0.853221 0.0380949
17877 1 0.0314819 0.850935 0.0496509
17876 2 0.0331666 0.852311 0.0573256
8316 1 0.0428183 0.861185 0.0469526
8314 1 0.0504041 0.875494 0.0440866
8315 2 0.0458866 0.868982 0.0475828
21033 1 0.01709 0.751786 0.0667649
21032 2 0.0186308 0.75673 0.0719793
15833 2 0.0481687 0.744816 0.07254
15834 1 0.0556124 0.74595 0.0737606
17529 1 0.0586512 0.746686 0.0743639
8086 1 0.0410464 0.753115 0.0694848
15832 1 0.0428545 0.751206 0.0705972
17528 3 0.0656088 0.750221 0.0761714
17527 1 0.0721913 0.755713 0.0772171
21031 1 0.0201987 0.761467 0.0786275
6813 1 0.020565 0.762923 0.0808383
6812 3 0.0207877 0.766963 0.0887465
6811 1 0.0185052 0.77401 0.0858158
4174 1 0.0171553 0.776603 0.0849608
4175 2 0.0144431 0.782949 0.0815638
8087 2 0.0378153 0.758531 0.0657417
2847 1 0.0396421 0.782255 0.0894721
4563 1 0.0621226 0.781726 0.0706086
2846 2 0.04098 0.782205 0.0810812
2845 1 0.03714 0.779718 0.0749266
11254 1 0.0634395 0.779218 0.0706983
11255 2 0.0674937 0.773109 0.0720055
9201 1 0.075648 0.769954 0.0659966
11256 1 0.0730051 0.771285 0.0674914
19290 1 0.00307271 0.806072 0.0765958
15333 1 0.00154595 0.811503 0.094829
4176 1 0.0108685 0.790052 0.0798216
19289 2 0.00716603 0.799443 0.0763279
19288 1 0.0102693 0.792776 0.0791609
15332 2 0.00970896 0.813905 0.0943889
11563 1 0.00138968 0.808452 0.0764978
4562 2 0.0586587 0.788588 0.0692029
4561 1 0.0597943 0.796487 0.0701769
7756 1 0.0601291 0.799647 0.0704214
7757 2 0.0607868 0.807853 0.0694768
7758 1 0.0610892 0.815837 0.0679168
19824 1 0.0422385 0.817544 0.0749393
9754 1 0.0422152 0.817968 0.0718565
19823 2 0.0405619 0.814633 0.0828473
19822 1 0.0451753 0.817225 0.0891513
20083 1 0.0469663 0.817864 0.0910915
19629 1 0.0816994 0.788517 0.0660371
19628 2 0.0835936 0.79086 0.0730522
19452 1 0.0851196 0.799861 0.0776118
19627 1 0.0843179 0.797001 0.0757296
19451 3 0.0870294 0.806333 0.0813672
19450 1 0.0942428 0.811369 0.0810297
13836 1 0.0274362 0.829633 0.0848161
17419 1 0.028584 0.830608 0.0810479
17421 1 0.0279787 0.831124 0.0650841
17420 2 0.0298855 0.833325 0.0723601
13835 2 0.0249719 0.826389 0.0917936
13834 1 0.0188417 0.821976 0.0932084
15331 1 0.0170558 0.820415 0.0937651
13969 1 0.0615582 0.818694 0.0666924
20084 2 0.0527183 0.820905 0.0957099
20085 1 0.0601113 0.823355 0.0943721
11926 1 0.0619543 0.835653 0.0702152
11927 2 0.0596044 0.842671 0.0741569
13971 1 0.0623595 0.833141 0.068618
20428 1 0.0498235 0.848132 0.0753932
11928 1 0.0524424 0.846571 0.0753831
12114 1 0.0631355 0.824323 0.0940025
12113 3 0.0714507 0.827307 0.0938091
12112 1 0.0761456 0.831294 0.0898164
5188 1 0.0149941 0.868798 0.0698761
17875 1 0.0370247 0.852277 0.0644487
21521 2 0.0618837 0.867723 0.0647977
21520 1 0.0530095 0.869711 0.0657249
20430 1 0.0387463 0.852256 0.0672994
20429 2 0.0430435 0.851289 0.0745105
21522 1 0.0695737 0.87012 0.0698541
1926 1 0.0246577 0.779954 0.104739
1924 1 0.0390076 0.777932 0.106193
1925 2 0.0318805 0.780847 0.105561
12976 1 0.0236472 0.692144 0.964305
1632 1 0.0264836 0.691833 0.962831
12977 2 0.0161897 0.693803 0.966528
1631 2 0.0338352 0.69074 0.96076
1630 1 0.0398102 0.686735 0.963198
12533 2 0.0482038 0.679502 0.967481
12532 1 0.042448 0.684735 0.964195
20488 1 0.0308746 0.709624 0.939066
20489 2 0.0371723 0.708021 0.944201
20490 1 0.0425363 0.713314 0.94719
10659 1 0.0444558 0.715266 0.948321
10658 2 0.0495818 0.720469 0.951373
10657 1 0.0524555 0.723335 0.958613
2197 1 0.0538179 0.723978 0.961585
2198 2 0.0584792 0.728266 0.967685
20358 1 0.103863 0.768433 0.966899
5691 1 0.0392083 0.816026 0.968228
9317 2 0.0418211 0.826185 0.966024
9316 1 0.0397282 0.818836 0.967675
12534 1 0.0542561 0.68014 0.971894
16835 2 0.00228287 0.703636 0.974031
12978 1 0.0106776 0.698073 0.970694
16836 1 0.00871278 0.699498 0.971634
12472 1 0.028625 0.753783 0.996556
12474 1 0.0234696 0.741307 0.998961
11353 1 0.0298232 0.756214 0.996712
12473 2 0.0264899 0.746816 0.995544
14353 1 0.0582728 0.73338 0.99634
16141 1 0.0590218 0.732734 0.993467
16142 2 0.0601272 0.73016 0.985777
2199 1 0.0596 0.729078 0.975472
16143 1 0.0600272 0.729068 0.978224
13164 1 0.0949406 0.746082 0.994695
13163 2 0.0957978 0.75395 0.991384
19425 1 0.0949304 0.743802 0.996032
11354 2 0.0322193 0.762225 0.997702
12902 2 0.0484942 0.78732 0.99779
11762 2 0.0926277 0.775524 0.987591
11763 1 0.0892899 0.77823 0.994119
12646 1 0.0877144 0.779655 0.996819
13162 1 0.0992587 0.760529 0.988428
20357 2 0.097724 0.765716 0.97187
20356 1 0.0976796 0.769249 0.978939
11761 1 0.0967891 0.770787 0.981223
18447 1 0.113201 0.770741 0.99713
9536 2 0.0444561 0.792246 0.981056
12901 1 0.0476297 0.789231 0.990121
9537 1 0.046826 0.789938 0.987385
4910 2 0.0560991 0.807555 0.991771
5690 2 0.0374965 0.807435 0.971655
5689 1 0.0401745 0.801017 0.975907
9535 1 0.0411349 0.798554 0.977002
19291 1 0.049603 0.81533 0.987738
4911 1 0.0518399 0.813257 0.988589
4909 1 0.0536237 0.809375 0.999316
10473 1 0.0179221 0.823258 0.987146
10749 1 0.0206698 0.822819 0.985053
10472 2 0.0117113 0.823862 0.992233
10748 2 0.0263546 0.823718 0.98029
10471 1 0.00710885 0.829694 0.994496
6430 1 0.00553154 0.831895 0.996395
9318 1 0.0426727 0.832525 0.969846
8217 1 0.0426497 0.834977 0.971171
19292 2 0.0445494 0.820583 0.985401
10747 1 0.0331979 0.822711 0.982019
19293 1 0.0364768 0.822516 0.982678
1833 1 0.0417312 0.846444 0.985134
8216 2 0.043399 0.840322 0.976524
8215 1 0.0421204 0.84476 0.982708
21281 2 0.0389671 0.868944 0.994366
1832 2 0.0418985 0.850952 0.991427
1831 1 0.0392837 0.858173 0.992977
21282 1 0.0388382 0.861523 0.993387
6049 1 0.984166 0.722058 0.00557032
6505 1 0.996966 0.723718 0.017609
6760 1 0.982785 0.724228 0.00647193
6506 2 0.994692 0.718854 0.0223399
6516 1 0.979334 0.698483 0.0220751
6515 2 0.979876 0.705773 0.0238118
6514 1 0.985619 0.711297 0.0227555
6507 1 0.988364 0.713317 0.0227485
6050 2 0.986858 0.715491 0.00288082
20135 2 0.979459 0.745586 0.0207686
20134 1 0.978888 0.738895 0.0164091
6762 1 0.979027 0.736458 0.0140747
6761 2 0.979204 0.730475 0.00872693
20136 1 0.982584 0.752919 0.0208477
11920 1 0.983617 0.755609 0.0206306
5083 1 0.998231 0.725575 0.0158338
9382 1 0.962926 0.768366 0.0242969
9384 1 0.965198 0.769462 0.00866376
10381 1 0.965452 0.770581 0.00576747
9383 2 0.964443 0.766682 0.015695
6928 1 0.962635 0.768962 0.0271443
11921 2 0.98498 0.761733 0.0194775
10098 1 0.981342 0.78353 0.0288495
5167 1 0.991771 0.770714 0.0231008
11922 1 0.989965 0.768217 0.0223328
5168 2 0.996567 0.776371 0.0253599
10097 2 0.980157 0.788496 0.0223558
10096 1 0.983914 0.795683 0.0193268
7594 1 0.985938 0.797783 0.0183411
7595 2 0.990236 0.802897 0.0152991
7596 1 0.994879 0.808147 0.015818
3018 1 0.995466 0.815609 0.0295913
12554 2 0.994427 0.835764 0.0195913
6432 1 0.999491 0.834804 0.00919511
12555 1 0.997832 0.834298 0.011919
12553 1 0.995491 0.829573 0.0262078
15703 1 0.981716 0.753973 0.0438739
18765 1 0.984739 0.752421 0.0444598
18764 2 0.992089 0.750669 0.0461608
6929 2 0.962465 0.771013 0.0355628
6930 1 0.966723 0.764779 0.0388279
5485 1 0.982066 0.782167 0.0315527
15704 2 0.974302 0.757437 0.0415626
15705 1 0.969035 0.76288 0.0401851
5486 2 0.982364 0.778268 0.0393184
5487 1 0.982926 0.775586 0.0454836
16531 1 0.983199 0.774522 0.0481533
16532 2 0.985494 0.771399 0.0555439
18763 1 0.998456 0.756384 0.0484378
4311 1 0.957852 0.801432 0.0572185
4310 2 0.96277 0.807158 0.0569784
6871 1 0.992425 0.813743 0.0556719
757 1 0.995404 0.812247 0.0560639
6872 2 0.984919 0.817086 0.0551115
6873 1 0.982299 0.823893 0.0512102
17148 1 0.98122 0.82615 0.0500423
17146 1 0.983637 0.837204 0.0430513
17147 2 0.977786 0.832832 0.046991
21358 1 0.985593 0.838944 0.0415392
21359 2 0.991447 0.842026 0.0376801
21360 1 0.998306 0.841714 0.0353848
19179 1 0.991373 0.77514 0.0643213
16533 1 0.989872 0.774113 0.0626165
15059 2 0.986078 0.784908 0.084324
15060 1 0.989711 0.782014 0.0781023
19178 2 0.995958 0.779552 0.069995
19177 1 0.99091 0.781398 0.0758942
4309 1 0.963457 0.814497 0.0606607
18064 1 0.964231 0.816902 0.0617479
11564 2 0.995869 0.814614 0.0769496
15058 1 0.983137 0.788311 0.0907337
18065 2 0.966794 0.824608 0.0640266
1621 1 0.990181 0.822902 0.0752639
11565 1 0.992207 0.820879 0.0754708
1622 2 0.985122 0.829089 0.074124
18066 1 0.973988 0.82574 0.0675767
1623 1 0.97695 0.826438 0.0691286
877 1 0.981867 0.789512 0.0932285
5916 1 0.986277 0.802215 0.0981565
5915 2 0.99015 0.808745 0.0975957
879 1 0.985204 0.800242 0.0989047
878 2 0.980736 0.793183 0.0999437
5914 1 0.99848 0.810981 0.0953371
13250 2 0.954427 0.784008 0.968955
13249 1 0.951842 0.785111 0.961008
17299 1 0.99539 0.703125 0.982766
16834 1 0.997027 0.702873 0.980528
17300 2 0.991022 0.703278 0.988884
6051 1 0.988231 0.710329 0.997348
17301 1 0.988937 0.708531 0.994859
13251 1 0.958544 0.781691 0.974962
10382 2 0.965089 0.772233 0.998499
5222 2 0.96438 0.775547 0.982171
10383 1 0.965365 0.77321 0.991427
5223 1 0.965196 0.774021 0.988985
5221 1 0.960292 0.780228 0.977186
