ITEM: TIMESTEP
35000000
ITEM: NUMBER OF ENTRIES
1951
ITEM: BOX BOUNDS pp pp pp
0 50
0 50
0 50
ITEM: ENTRIES c_binfo[1] c_binfo[2] c_binfo[3] 
3 358 359 
3 20417 20418 
2 21148 21149 
2 19106 19107 
2 7510 7511 
2 7511 7512 
1 7512 21150 
3 20416 20417 
1 249 20416 
2 247 248 
1 247 19105 
2 19105 19106 
2 248 249 
2 1888 1889 
2 1889 1890 
1 1890 20133 
3 11612 11613 
1 3756 11613 
3 3755 3756 
3 3965 3966 
3 11611 11612 
1 3966 11611 
3 16550 16551 
3 16549 16550 
2 12587 12588 
2 12586 12587 
1 12586 20722 
2 20722 20723 
2 20723 20724 
1 20724 20931 
2 686 687 
1 360 687 
3 359 360 
2 685 686 
1 685 9465 
2 15571 15572 
2 15572 15573 
3 3754 3755 
1 3754 15573 
2 6127 6128 
1 6127 15571 
2 11264 11265 
1 11265 17958 
2 11263 11264 
2 21149 21150 
1 2031 16551 
3 17959 17960 
1 17959 19107 
3 17960 17961 
3 9563 9564 
1 9564 17961 
3 9562 9563 
1 2271 9562 
3 16136 16137 
3 20414 20415 
3 20413 20414 
1 16137 20413 
2 6128 6129 
1 6129 19714 
2 17305 17306 
2 10187 10188 
2 19714 19715 
2 17306 17307 
2 10186 10187 
1 10186 18136 
3 18136 18137 
3 11647 11648 
1 11647 18138 
3 11648 11649 
3 5393 5394 
3 5392 5393 
3 17687 17688 
3 9673 9674 
1 9673 17686 
3 17686 17687 
1 9066 17688 
3 9674 9675 
3 9065 9066 
2 20132 20133 
2 20131 20132 
1 17955 20131 
2 17954 17955 
2 17953 17954 
1 12783 17953 
2 16163 16164 
3 12724 12725 
1 12724 16164 
3 12725 12726 
2 16162 16163 
3 12980 12981 
3 544 545 
1 544 12981 
3 17617 17618 
3 17618 17619 
3 9190 9191 
1 9190 17619 
3 9191 9192 
2 6650 6651 
2 6649 6650 
3 8258 8259 
3 8687 8688 
3 8686 8687 
1 8686 12691 
3 12691 12692 
3 10354 10355 
3 10355 10356 
3 20930 20931 
3 12011 12012 
3 1756 1757 
1 1756 10356 
3 12010 12011 
2 9463 9464 
1 9463 12010 
2 9464 9465 
2 3979 3980 
1 3979 8259 
3 6001 6002 
1 6001 12012 
2 3980 3981 
2 2249 2250 
2 2248 2249 
1 2248 16377 
2 16376 16377 
2 16375 16376 
1 13107 16375 
3 13106 13107 
3 13105 13106 
3 12229 12230 
1 12229 13105 
3 17957 17958 
3 17956 17957 
3 3964 3965 
3 2030 2031 
3 2029 2030 
3 9857 9858 
3 9856 9857 
1 9856 17956 
3 3530 3531 
1 3531 8226 
3 1757 1758 
1 1758 3909 
3 3529 3530 
1 9858 15934 
3 20929 20930 
1 13419 20929 
3 12668 12669 
3 12667 12668 
3 10684 10685 
1 10684 12667 
3 10685 10686 
3 13418 13419 
3 2246 2247 
1 2247 16135 
3 16135 16136 
3 13417 13418 
3 2245 2246 
1 2016 2245 
3 15073 15074 
3 15074 15075 
3 590 591 
3 589 590 
1 589 2958 
3 2957 2958 
3 20785 20786 
3 20786 20787 
3 2956 2957 
1 2956 20787 
2 19715 19716 
1 19716 20674 
3 20674 20675 
3 20675 20676 
1 5058 20676 
1 19815 20043 
2 19814 19815 
3 20042 20043 
3 8225 8226 
3 18137 18138 
3 5057 5058 
3 8224 8225 
1 8224 21106 
3 4622 4623 
1 10686 11742 
3 21106 21107 
3 21107 21108 
3 15253 15254 
1 15253 21108 
3 15254 15255 
3 2270 2271 
3 2269 2270 
3 2182 2183 
1 2182 2269 
3 8783 8784 
1 3339 5394 
3 3338 3339 
3 3337 3338 
3 2183 2184 
1 2184 7615 
3 7615 7616 
3 7616 7617 
1 7617 11490 
3 10070 10071 
3 10069 10070 
1 10069 19707 
3 10853 10854 
3 10852 10853 
3 9064 9065 
1 9064 10854 
3 19706 19707 
3 7624 7625 
1 7624 10852 
3 7625 7626 
3 19705 19706 
1 16512 19705 
3 4325 4326 
3 16511 16512 
3 4324 4325 
1 4324 8236 
2 4754 4755 
2 4753 4754 
3 2849 2850 
1 2850 18970 
3 18970 18971 
3 10733 10734 
3 12782 12783 
3 18971 18972 
3 12781 12782 
3 4513 4514 
1 4513 4623 
3 4514 4515 
1 4515 12726 
3 5068 5069 
1 5068 18972 
1 15255 16384 
3 16384 16385 
3 3329 3330 
3 3328 3329 
1 3328 8782 
3 6269 6270 
1 3330 6952 
3 6952 6953 
3 5479 5480 
1 5479 6268 
3 6268 6269 
3 8782 8783 
3 2584 2585 
3 2585 2586 
3 12979 12980 
1 2586 12979 
3 16385 16386 
3 3067 3068 
1 3067 8343 
3 19754 19755 
1 3069 19753 
3 3068 3069 
3 19753 19754 
3 16510 16511 
1 4755 16510 
2 8236 8237 
3 4867 4868 
1 4867 10732 
3 10732 10733 
3 4868 4869 
3 18635 18636 
1 4185 10734 
3 11734 11735 
1 11734 12781 
3 11735 11736 
1 11736 13486 
3 13486 13487 
3 18634 18635 
3 13487 13488 
3 4229 4230 
3 545 546 
1 546 9105 
3 9104 9105 
3 9103 9104 
1 9103 13488 
3 9622 9623 
3 9623 9624 
1 4230 9624 
3 6953 6954 
2 17383 17384 
1 17383 17743 
3 17743 17744 
1 6954 17745 
3 17744 17745 
3 7772 7773 
3 5575 5576 
1 5575 7771 
3 7771 7772 
2 6259 6260 
2 6260 6261 
1 6261 20934 
3 20933 20934 
3 20932 20933 
3 4228 4229 
1 4228 20932 
3 1393 1394 
1 1393 18634 
2 17384 17385 
3 1697 1698 
2 8689 8690 
3 8512 8513 
1 8512 17722 
3 17722 17723 
3 17723 17724 
3 8513 8514 
3 5677 5678 
3 12044 12045 
3 17270 17271 
3 17269 17270 
3 8257 8258 
3 12043 12044 
1 13077 17269 
2 2947 2948 
3 1048 1049 
1 1048 13371 
1 6651 9553 
3 9553 9554 
1 1050 9555 
3 9554 9555 
3 1049 1050 
3 10196 10197 
3 12692 12693 
1 12693 17724 
3 464 465 
3 463 464 
1 463 7042 
3 7042 7043 
3 14638 14639 
3 17734 17735 
3 12614 12615 
1 12615 17736 
3 5678 5679 
1 5679 10354 
3 7043 7044 
3 9443 9444 
1 6003 17271 
3 6002 6003 
3 2830 2831 
1 2830 9444 
3 2831 2832 
2 2948 2949 
3 15055 15056 
3 15056 15057 
3 8089 8090 
3 8090 8091 
3 13231 13232 
1 13231 13404 
3 13403 13404 
3 13402 13403 
1 10197 13402 
3 16267 16268 
3 13232 13233 
1 12231 16269 
3 12230 12231 
1 13233 20041 
3 7717 7718 
1 7717 17734 
3 15934 15935 
3 15935 15936 
3 3908 3909 
3 16268 16269 
3 7718 7719 
1 7719 15936 
3 3907 3908 
1 3907 14637 
3 9442 9443 
1 9442 21249 
3 21248 21249 
3 21247 21248 
3 2998 2999 
1 2998 21247 
3 2999 3000 
1 3000 15081 
3 2015 2016 
1 2406 20491 
3 20491 20492 
3 2405 2406 
3 2404 2405 
3 2014 2015 
1 2014 2404 
3 7013 7014 
3 18737 18738 
1 591 19503 
3 19501 19502 
1 7014 19501 
3 19502 19503 
3 18586 18587 
1 4215 18586 
3 18587 18588 
3 5935 5936 
2 1999 2000 
1 1999 7626 
3 4214 4215 
3 4213 4214 
2 2000 2001 
2 19813 19814 
3 11191 11192 
1 11191 19813 
3 2848 2849 
1 2848 11619 
3 20041 20042 
3 11617 11618 
3 11618 11619 
3 9547 9548 
1 9547 11617 
3 9548 9549 
3 5056 5057 
1 5056 15564 
3 18143 18144 
3 15562 15563 
1 15562 18144 
3 15563 15564 
3 8830 8831 
1 8830 21237 
1 14025 21553 
3 21553 21554 
3 21554 21555 
3 4621 4622 
1 4621 21555 
3 14636 14637 
3 8831 8832 
3 14635 14636 
1 6504 14635 
3 6503 6504 
3 6502 6503 
3 2191 2192 
1 2191 6502 
3 11741 11742 
1 18738 20967 
3 20966 20967 
3 20965 20966 
3 11740 11741 
1 11740 20965 
3 11489 11490 
1 6765 13626 
3 3797 3798 
1 5937 15075 
3 5936 5937 
3 6764 6765 
3 11488 11489 
1 3798 11488 
3 3796 3797 
1 3796 14364 
3 6763 6764 
1 6763 10039 
1 7629 10071 
3 7628 7629 
3 7627 7628 
1 7627 16075 
3 16075 16076 
3 16076 16077 
3 14363 14364 
3 15607 15608 
3 14362 14363 
1 14362 15607 
3 15608 15609 
2 6937 6938 
2 6938 6939 
3 11192 11193 
3 617 618 
3 9256 9257 
1 9256 11193 
3 9257 9258 
3 14690 14691 
3 14689 14690 
1 13521 14689 
3 21235 21236 
1 14691 21235 
3 5069 5070 
3 21236 21237 
3 6550 6551 
1 6552 19645 
3 6551 6552 
3 2597 2598 
3 2596 2597 
3 541 542 
1 541 2596 
3 3874 3875 
1 2598 3874 
3 16676 16677 
3 542 543 
3 5480 5481 
3 13625 13626 
3 13624 13625 
3 8342 8343 
3 8341 8342 
1 147 8341 
3 146 147 
1 543 13624 
3 145 146 
1 145 8455 
3 896 897 
3 895 896 
1 895 3646 
1 9081 16434 
3 9080 9081 
3 9079 9080 
2 8237 8238 
3 616 617 
3 20333 20334 
3 15226 15227 
3 20332 20333 
3 15227 15228 
3 13520 13521 
3 18109 18110 
3 13519 13520 
1 13519 18109 
3 4184 4185 
3 18334 18335 
3 18335 18336 
3 4183 4184 
1 4183 18336 
2 15808 15809 
1 15808 20703 
2 15809 15810 
1 18111 20701 
3 18110 18111 
3 20701 20702 
3 20702 20703 
1 5481 19449 
3 21229 21230 
3 19448 19449 
3 19447 19448 
1 9285 19447 
3 21230 21231 
1 8370 21231 
3 19271 19272 
3 8369 8370 
3 8368 8369 
1 8368 19272 
3 19270 19271 
3 5576 5577 
1 5577 7803 
3 7802 7803 
3 7801 7802 
1 7801 10507 
3 14143 14144 
3 13102 13103 
1 13102 15228 
3 13103 13104 
3 1394 1395 
3 881 882 
3 880 881 
1 880 7857 
1 882 1395 
3 13918 13919 
1 13918 15810 
3 13919 13920 
3 1948 1949 
1 1948 13920 
3 1949 1950 
3 6007 6008 
1 6007 17341 
3 6008 6009 
3 19268 19269 
3 19267 19268 
1 14145 19269 
3 14144 14145 
1 1638 2367 
3 1696 1697 
1 1696 20232 
2 8690 8691 
1 8691 21481 
3 21481 21482 
3 21482 21483 
1 20400 21483 
3 20399 20400 
3 7138 7139 
3 7139 7140 
3 20398 20399 
1 18777 20398 
2 17681 17682 
2 17680 17681 
3 8531 8532 
3 13213 13214 
3 13214 13215 
1 1713 13215 
3 12613 12614 
1 12613 16120 
3 16120 16121 
3 16121 16122 
3 19219 19220 
3 19220 19221 
1 4794 8799 
3 4793 4794 
3 4792 4793 
1 4792 10504 
3 10504 10505 
3 4352 4353 
3 13075 13076 
3 13076 13077 
3 4351 4352 
1 4351 13075 
1 4353 4890 
1 10395 17682 
3 10394 10395 
3 10393 10394 
3 5113 5114 
1 5113 10393 
3 5114 5115 
3 13370 13371 
3 13369 13370 
1 11196 13369 
3 11195 11196 
3 3376 3377 
3 3377 3378 
1 3378 10000 
3 1712 1713 
3 1711 1712 
3 19907 19908 
3 13498 13499 
1 13498 19908 
3 13499 13500 
3 10000 10001 
3 17735 17736 
1 14640 19906 
3 14639 14640 
3 19906 19907 
3 15631 15632 
3 12343 12344 
1 12343 15631 
3 15632 15633 
1 15633 21568 
3 21568 21569 
3 8798 8799 
3 12344 12345 
3 21226 21227 
3 21227 21228 
1 12345 21228 
3 8797 8798 
1 2832 8797 
3 18682 18683 
1 18682 21226 
1 15024 18414 
3 18413 18414 
3 2684 2685 
1 2685 12420 
3 18412 18413 
1 18412 18684 
3 2683 2684 
1 2683 11412 
3 18683 18684 
3 15023 15024 
3 15022 15023 
1 2949 15022 
3 14873 14874 
1 11574 14872 
3 14872 14873 
3 11573 11574 
3 12823 12824 
1 12823 14874 
3 11194 11195 
3 3812 3813 
3 4445 4446 
1 4446 20034 
3 4444 4445 
1 3813 4444 
1 2202 8091 
3 20033 20034 
1 2070 11194 
3 10195 10196 
1 10195 12793 
1 11100 16267 
3 2201 2202 
3 2200 2201 
1 2200 13500 
3 11099 11100 
3 12793 12794 
3 6526 6527 
1 6526 18897 
3 12794 12795 
1 6528 14664 
3 14663 14664 
3 14662 14663 
3 6527 6528 
3 2419 2420 
1 2419 14662 
3 7648 7649 
1 7648 11410 
3 7649 7650 
3 2420 2421 
1 2421 7650 
3 12014 12015 
3 18487 18488 
3 2593 2594 
1 2593 12015 
3 2594 2595 
3 11410 11411 
3 7012 7013 
3 11411 11412 
3 18736 18737 
3 4835 4836 
1 4836 5457 
3 5456 5457 
3 5455 5456 
1 5455 18736 
3 11732 11733 
3 4834 4835 
3 1747 1748 
1 1747 11572 
3 11572 11573 
3 21077 21078 
1 1749 11731 
3 1748 1749 
3 11731 11732 
3 21076 21077 
3 5554 5555 
1 5554 21076 
1 10860 17061 
3 10859 10860 
3 10858 10859 
3 2944 2945 
3 2945 2946 
3 9301 9302 
3 3811 3812 
3 9302 9303 
3 20213 20214 
3 11098 11099 
3 18896 18897 
3 20212 20213 
1 13227 20212 
3 1918 1919 
1 1918 16066 
3 1919 1920 
1 1920 9549 
3 13225 13226 
1 13225 18895 
3 18895 18896 
3 13226 13227 
1 3534 5368 
3 18142 18143 
1 18142 21336 
3 21334 21335 
1 8832 21334 
3 21335 21336 
1 12891 14023 
3 12890 12891 
3 14024 14025 
3 14023 14024 
3 6769 6770 
3 12889 12890 
3 15080 15081 
3 20492 20493 
1 13770 18487 
3 13769 13770 
1 7929 12013 
3 12013 12014 
3 13768 13769 
1 13768 15079 
3 15079 15080 
3 7928 7929 
3 2192 2193 
1 2193 17448 
3 13334 13335 
1 13335 20493 
3 13333 13334 
1 13333 16129 
3 16129 16130 
3 16130 16131 
1 11733 15436 
3 15436 15437 
3 15437 15438 
3 16432 16433 
3 14620 14621 
3 14621 14622 
3 10039 10040 
1 14622 19356 
1 10041 17059 
3 17059 17060 
3 10040 10041 
3 13372 13373 
1 13372 16077 
3 13373 13374 
3 17060 17061 
1 10263 10470 
3 10262 10263 
3 3808 3809 
1 3808 13374 
1 2742 10261 
3 10261 10262 
3 3809 3810 
3 10712 10713 
3 10711 10712 
3 10907 10908 
3 10906 10907 
1 10906 20280 
3 20278 20279 
3 20279 20280 
3 16066 16067 
3 350 351 
3 16067 16068 
3 5804 5805 
1 351 16068 
3 5803 5804 
3 20155 20156 
1 5805 20157 
3 20156 20157 
3 19645 19646 
3 19646 19647 
1 3288 19647 
3 11867 11868 
3 3287 3288 
3 17447 17448 
3 17446 17447 
3 3875 3876 
1 3876 4419 
1 14415 17446 
1 2649 16677 
3 2648 2649 
3 4418 4419 
3 4417 4418 
3 3865 3866 
1 3865 4417 
3 2698 2699 
1 16131 18507 
3 3985 3986 
1 3985 14284 
3 14284 14285 
3 18506 18507 
3 2647 2648 
3 18505 18506 
3 3646 3647 
3 16433 16434 
3 3647 3648 
3 3986 3987 
1 3648 3987 
3 12170 12171 
1 12171 14641 
3 14641 14642 
3 12169 12170 
3 349 350 
1 349 17094 
3 17093 17094 
3 17092 17093 
1 17092 20968 
3 20968 20969 
3 20969 20970 
3 17296 17297 
1 17296 20970 
3 17297 17298 
1 5076 17298 
3 5074 5075 
3 5075 5076 
3 16675 16676 
3 9284 9285 
3 9283 9284 
1 9283 16731 
3 16730 16731 
1 693 2907 
3 16729 16730 
3 7603 7604 
3 17341 17342 
3 8455 8456 
3 8456 8457 
1 8457 14554 
3 14554 14555 
3 14555 14556 
3 21238 21239 
3 21239 21240 
3 10783 10784 
1 10783 21238 
3 2906 2907 
3 17342 17343 
3 10507 10508 
3 10508 10509 
1 10509 17293 
3 17293 17294 
3 17294 17295 
3 19246 19247 
3 19247 19248 
1 5967 13104 
3 5966 5967 
1 10368 11653 
3 11653 11654 
3 11654 11655 
1 11655 16110 
3 7855 7856 
3 1636 1637 
1 1636 7855 
3 1637 1638 
3 7856 7857 
3 5965 5966 
1 5965 19792 
3 19792 19793 
1 7605 19794 
3 19793 19794 
3 3749 3750 
3 20231 20232 
3 7604 7605 
3 20230 20231 
3 3748 3749 
1 3748 20230 
3 691 692 
3 692 693 
3 19330 19331 
3 19331 19332 
3 7232 7233 
3 16108 16109 
3 16109 16110 
3 7231 7232 
1 7231 16108 
3 2366 2367 
3 14312 14313 
3 2365 2366 
1 2109 2365 
3 2108 2109 
3 10703 10704 
3 14311 14312 
1 14311 15774 
3 15773 15774 
3 15772 15773 
3 6478 6479 
1 6478 15772 
3 6479 6480 
1 6480 13927 
3 13927 13928 
1 8166 13090 
3 8164 8165 
1 8164 16987 
3 16987 16988 
3 8165 8166 
3 16988 16989 
1 16989 19959 
3 19957 19958 
2 6113 6114 
2 6112 6113 
1 6112 19957 
3 19958 19959 
3 8530 8531 
1 1536 5484 
3 5483 5484 
3 17690 17691 
3 13090 13091 
1 10506 17691 
3 10505 10506 
3 17689 17690 
3 2131 2132 
1 13056 13092 
3 13091 13092 
3 18776 18777 
3 18775 18776 
1 12522 18775 
3 12521 12522 
3 12520 12521 
1 12520 19381 
3 19381 19382 
3 14987 14988 
3 19382 19383 
3 14986 14987 
3 4888 4889 
1 4888 14986 
3 4889 4890 
3 5071 5072 
1 5071 7056 
3 5072 5073 
3 3799 3800 
1 3799 5073 
3 3800 3801 
3 4075 4076 
1 4075 12811 
3 4076 4077 
1 4077 17424 
3 12811 12812 
3 11992 11993 
3 2068 2069 
1 2068 11992 
3 11993 11994 
1 11994 13425 
3 15481 15482 
3 5482 5483 
1 5482 15481 
3 15482 15483 
3 10001 10002 
1 7902 13543 
3 13543 13544 
3 13544 13545 
3 7901 7902 
1 15483 17689 
1 13545 21570 
3 19021 19022 
3 19022 19023 
1 8121 19023 
3 21569 21570 
1 4572 19339 
3 19339 19340 
3 4571 4572 
3 4570 4571 
1 4570 15109 
3 19340 19341 
3 7055 7056 
3 15109 15110 
3 7054 7055 
1 7054 15111 
3 15110 15111 
3 12418 12419 
1 12418 12759 
3 12419 12420 
3 12758 12759 
3 12757 12758 
1 12757 13894 
3 13894 13895 
3 13895 13896 
3 6500 6501 
3 12824 12825 
2 7372 7373 
1 7372 12825 
2 7373 7374 
1 4074 7374 
2 3554 3555 
2 3553 3554 
3 2069 2070 
3 1982 1983 
3 1981 1982 
1 1981 6723 
3 3884 3885 
3 6722 6723 
3 17423 17424 
3 20032 20033 
3 11221 11222 
1 11221 20032 
3 11222 11223 
3 1963 1964 
1 1963 11223 
3 1964 1965 
1 1965 20883 
3 6674 6675 
3 8935 8936 
1 8935 9729 
3 8936 8937 
3 9728 9729 
3 18488 18489 
3 9727 9728 
1 9727 15621 
1 2595 8937 
3 6613 6614 
1 6613 19341 
3 6614 6615 
1 6615 9223 
3 9223 9224 
3 10639 10640 
3 4192 4193 
1 4192 10639 
3 9224 9225 
1 2895 9225 
3 2894 2895 
1 10641 18079 
3 10640 10641 
3 4193 4194 
1 4194 4834 
3 19853 19854 
3 19852 19853 
3 2893 2894 
1 2893 19852 
3 7523 7524 
3 7522 7523 
1 7522 17268 
1 15672 19854 
3 15671 15672 
2 15860 15861 
3 5555 5556 
3 1403 1404 
2 15859 15860 
3 1402 1403 
1 1402 15859 
3 15670 15671 
3 6736 6737 
1 6736 15670 
2 2591 2592 
1 2592 14494 
2 14494 14495 
2 14495 14496 
2 2590 2591 
1 2590 6501 
3 15311 15312 
3 3128 3129 
3 3127 3128 
1 3127 3883 
3 3883 3884 
3 16613 16614 
3 16612 16613 
3 6721 6722 
1 6721 16612 
3 3532 3533 
3 12161 12162 
3 3418 3419 
1 3418 12162 
3 12160 12161 
1 3885 7383 
3 7382 7383 
3 7381 7382 
1 7381 11037 
3 11036 11037 
3 3533 3534 
3 16394 16395 
3 16393 16394 
3 6770 6771 
1 10683 10777 
3 10777 10778 
3 11035 11036 
1 11035 14772 
3 10682 10683 
3 7927 7928 
1 7927 19405 
3 19405 19406 
3 19406 19407 
3 10681 10682 
1 10681 19407 
3 18523 18524 
3 18524 18525 
3 8774 8775 
3 14249 14250 
3 14248 14249 
1 14248 15438 
1 6222 8775 
3 6221 6222 
3 19355 19356 
3 19354 19355 
3 3442 3443 
1 3442 19354 
3 3443 3444 
3 6220 6221 
1 3444 18697 
3 11981 11982 
3 11980 11981 
3 10468 10469 
1 10468 11980 
3 6737 6738 
3 2740 2741 
1 2740 6738 
1 9534 12496 
3 12496 12497 
3 2741 2742 
3 9532 9533 
3 9533 9534 
3 15565 15566 
3 15566 15567 
3 20975 20976 
3 20974 20975 
3 15310 15311 
1 15310 20974 
3 3560 3561 
1 3561 19725 
3 5368 5369 
3 5369 5370 
1 5370 6567 
3 15850 15851 
1 15850 20008 
3 20008 20009 
3 20009 20010 
1 16395 20010 
3 19724 19725 
3 6566 6567 
3 3559 3560 
3 11866 11867 
1 11866 18538 
3 15851 15852 
3 18539 18540 
3 18538 18539 
3 3286 3287 
1 3286 15852 
3 18824 18825 
3 8773 8774 
3 2699 2700 
1 2700 18823 
3 18823 18824 
3 14414 14415 
3 14413 14414 
1 5559 14413 
3 5558 5559 
1 18525 18825 
3 5557 5558 
1 5557 14524 
3 9805 9806 
1 3546 18505 
3 3545 3546 
3 3544 3545 
1 3544 18112 
3 18112 18113 
3 18113 18114 
3 14288 14289 
3 10469 10470 
1 11982 18114 
1 9126 14643 
3 9125 9126 
3 9124 9125 
1 9124 17079 
3 14642 14643 
2 17078 17079 
3 7978 7979 
3 6839 6840 
3 6838 6839 
1 6838 7978 
3 12797 12798 
3 7979 7980 
3 12796 12797 
1 7980 12796 
3 19723 19724 
3 6565 6566 
3 3142 3143 
1 3142 6565 
3 3143 3144 
1 7722 19723 
3 4438 4439 
3 7720 7721 
3 17683 17684 
3 9806 9807 
1 8778 9807 
3 8777 8778 
3 8776 8777 
1 8776 17683 
1 3405 21523 
3 21523 21524 
3 3404 3405 
3 12644 12645 
1 3867 9805 
3 16481 16482 
3 3866 3867 
3 16480 16481 
1 16480 16729 
3 9206 9207 
1 9207 9583 
3 9583 9584 
3 9584 9585 
3 9205 9206 
1 9205 12643 
3 12643 12644 
3 13606 13607 
1 13606 16482 
3 3403 3404 
1 3403 3603 
3 14285 14286 
3 2905 2906 
3 13607 13608 
1 7509 14286 
3 7508 7509 
3 7507 7508 
1 7507 9585 
3 10106 10107 
3 10784 10785 
3 8110 8111 
1 8110 17295 
3 8111 8112 
1 8112 20377 
3 20377 20378 
3 20378 20379 
1 6840 11892 
3 11890 11891 
1 3078 11890 
2 3077 3078 
3 11891 11892 
2 3076 3077 
1 3076 11943 
3 4439 4440 
3 3400 3401 
1 3400 4440 
3 3401 3402 
1 3402 6669 
3 10702 10703 
1 10702 15595 
3 10367 10368 
3 21524 21525 
3 10366 10367 
1 10366 21525 
3 2107 2108 
1 3750 15597 
3 15596 15597 
3 15595 15596 
3 313 314 
1 313 2107 
3 314 315 
3 3602 3603 
3 3601 3602 
1 3601 7254 
3 7253 7254 
3 7252 7253 
1 6093 7252 
3 10105 10106 
1 10105 10123 
3 10123 10124 
3 10124 10125 
3 13928 13929 
2 11942 11943 
2 11941 11942 
2 3631 3632 
1 3631 11941 
2 3632 3633 
2 10528 10529 
2 7243 7244 
1 7243 10528 
2 7244 7245 
1 7245 13054 
1 909 19671 
2 19670 19671 
3 1535 1536 
3 2132 2133 
3 13054 13055 
1 2133 12325 
3 12325 12326 
3 13055 13056 
3 12326 12327 
1 12327 19041 
1 12120 14988 
3 12119 12120 
3 12118 12119 
3 1136 1137 
1 1137 12616 
3 1135 1136 
1 1135 15787 
3 10874 10875 
3 10873 10874 
1 10873 11493 
3 15539 15540 
1 9540 15540 
3 3334 3335 
3 3335 3336 
3 908 909 
3 907 908 
1 907 12813 
3 12812 12813 
3 14744 14745 
3 13424 13425 
3 13423 13424 
1 13423 14745 
3 1534 1535 
1 1534 12336 
3 12335 12336 
3 287 288 
3 286 287 
1 286 20881 
3 8119 8120 
3 8120 8121 
2 19040 19041 
2 19039 19040 
1 288 19039 
3 10651 10652 
1 10651 19383 
3 10652 10653 
3 6025 6026 
1 6025 10653 
3 6026 6027 
3 163 164 
1 163 6027 
3 17266 17267 
3 12616 12617 
3 11492 11493 
3 12617 12618 
3 11629 11630 
1 11629 12618 
3 11630 11631 
3 6814 6815 
1 6814 11491 
3 6815 6816 
3 11491 11492 
1 6816 17266 
3 15538 15539 
3 7240 7241 
1 7240 15538 
3 7241 7242 
1 3258 7242 
3 13343 13344 
3 6499 6500 
1 6499 13344 
3 13342 13343 
3 11203 11204 
1 11203 13342 
2 4073 4074 
2 4072 4073 
1 4072 21387 
2 21386 21387 
2 21385 21386 
2 9538 9539 
1 9538 21385 
2 9539 9540 
1 3336 12315 
3 12314 12315 
3 17561 17562 
3 17560 17561 
1 483 17560 
3 482 483 
3 12313 12314 
3 17422 17423 
1 10362 17422 
3 10360 10361 
1 10360 12313 
3 10361 10362 
3 17284 17285 
3 13531 13532 
1 13531 17284 
3 14743 14744 
3 7900 7901 
1 1983 13533 
3 13532 13533 
3 15814 15815 
1 5352 15814 
3 5351 5352 
3 15815 15816 
3 11642 11643 
1 11643 19132 
3 20881 20882 
3 20882 20883 
3 15620 15621 
3 15619 15620 
3 11332 11333 
1 11332 15619 
3 11333 11334 
1 8949 11334 
3 8948 8949 
3 3053 3054 
3 3052 3053 
1 3052 4980 
3 18080 18081 
3 18079 18080 
3 4979 4980 
3 4978 4979 
1 4978 18081 
3 20108 20109 
3 20107 20108 
1 699 20107 
3 17267 17268 
1 11631 16497 
3 16496 16497 
3 16495 16496 
1 16495 21063 
3 21062 21063 
1 1404 20805 
3 20804 20805 
1 11205 18621 
3 20803 20804 
3 11204 11205 
3 481 482 
3 14404 14405 
1 14404 16614 
3 10423 10424 
3 3419 3420 
3 10424 10425 
1 10425 13491 
3 13490 13491 
3 14405 14406 
3 5350 5351 
3 11813 11814 
1 3420 11814 
3 11812 11813 
3 4271 4272 
3 4270 4271 
1 4270 14076 
3 6673 6674 
3 4207 4208 
1 4207 6673 
3 10778 10779 
3 4208 4209 
1 4272 10440 
3 14771 14772 
3 10439 10440 
3 10438 10439 
3 4489 4490 
1 4489 10438 
1 3054 10779 
3 8947 8948 
1 8947 10161 
3 10160 10161 
3 10159 10160 
3 532 533 
1 532 10159 
3 533 534 
1 534 1863 
3 1862 1863 
3 1861 1862 
3 21061 21062 
3 18385 18386 
3 15373 15374 
1 15373 18385 
3 4709 4710 
3 12497 12498 
1 11715 12498 
3 11713 11714 
1 11713 21061 
3 11714 11715 
3 3388 3389 
1 3388 20950 
3 20950 20951 
3 18697 18698 
3 18698 18699 
3 3389 3390 
3 14147 14148 
3 20951 20952 
3 14146 14147 
1 14406 15198 
3 15197 15198 
3 15196 15197 
1 12798 15196 
3 13489 13490 
1 5793 13489 
3 5792 5793 
3 5791 5792 
1 5791 13821 
3 14075 14076 
3 14074 14075 
3 7682 7683 
3 7681 7682 
1 7681 16734 
3 16733 16734 
3 14821 14822 
3 14822 14823 
3 14770 14771 
3 10715 10716 
1 10716 14770 
3 10714 10715 
1 10714 20460 
3 14524 14525 
3 18406 18407 
3 10729 10730 
1 10729 18406 
3 14525 14526 
1 10731 14526 
3 10730 10731 
3 19808 19809 
3 9445 9446 
1 9445 13608 
3 9446 9447 
1 9447 18387 
3 18386 18387 
3 4685 4686 
3 4684 4685 
1 4684 15328 
3 15328 15329 
1 15330 18699 
3 15329 15330 
2 17077 17078 
3 13820 13821 
3 13819 13820 
1 13819 15904 
3 15904 15905 
3 15905 15906 
1 15906 16059 
3 11470 11471 
3 11471 11472 
3 7721 7722 
3 14000 14001 
1 7314 13999 
1 14001 17685 
3 17684 17685 
3 841 842 
1 841 7720 
3 13999 14000 
3 7313 7314 
3 16732 16733 
1 4896 16732 
3 4895 4896 
3 3122 3123 
3 4894 4895 
3 13363 13364 
1 12645 13363 
1 3123 13048 
1 12093 18748 
3 18748 18749 
3 13048 13049 
3 11149 11150 
1 11149 12091 
3 12091 12092 
3 12092 12093 
3 2441 2442 
3 12122 12123 
3 12121 12122 
1 12121 12888 
3 2440 2441 
3 9394 9395 
1 9394 10107 
3 10723 10724 
3 4711 4712 
1 4711 10723 
3 10724 10725 
1 9396 10725 
3 9395 9396 
3 3253 3254 
1 3253 21301 
3 21301 21302 
3 4712 4713 
3 3254 3255 
1 3255 4686 
3 14287 14288 
3 7687 7688 
1 7687 14287 
3 7688 7689 
1 723 20379 
2 722 723 
2 721 722 
3 6667 6668 
3 842 843 
1 843 16513 
1 2190 3633 
3 6668 6669 
3 16513 16514 
3 16514 16515 
3 2188 2189 
1 2188 16515 
3 16058 16059 
3 2189 2190 
3 13364 13365 
1 315 13365 
3 13049 13050 
3 18749 18750 
3 6092 6093 
3 6091 6092 
1 6091 18750 
3 12887 12888 
3 6088 6089 
1 6088 13929 
3 6089 6090 
1 6090 21303 
3 21302 21303 
2 19571 19572 
2 21337 21338 
1 19572 21337 
2 21338 21339 
2 10529 10530 
2 19669 19670 
2 15787 15788 
2 15788 15789 
3 7951 7952 
3 7952 7953 
3 12334 12335 
1 12334 17988 
3 17987 17988 
3 17986 17987 
3 11641 11642 
1 11641 17986 
3 19307 19308 
1 10890 19308 
3 19306 19307 
3 3256 3257 
1 3256 13474 
3 13474 13475 
3 3257 3258 
3 17285 17286 
3 5612 5613 
1 7953 20755 
3 20756 20757 
3 20755 20756 
2 10579 10580 
3 6700 6701 
1 6700 10579 
3 6701 6702 
1 6702 17286 
3 5611 5612 
3 14132 14133 
1 4167 14131 
3 4166 4167 
3 14131 14132 
3 4165 4166 
3 19132 19133 
1 15480 15816 
3 15479 15480 
3 19133 19134 
3 15478 15479 
1 15478 17637 
3 16585 16586 
1 16585 19134 
3 16586 16587 
1 16587 20761 
3 20761 20762 
3 17636 17637 
3 164 165 
3 20762 20763 
1 19038 20763 
3 19037 19038 
1 165 11988 
3 11987 11988 
3 11986 11987 
1 11986 19516 
3 19517 19518 
3 19516 19517 
1 5037 13476 
3 13475 13476 
1 19518 21292 
3 18619 18620 
3 18620 18621 
3 13766 13767 
1 144 13765 
3 13765 13766 
2 3268 3269 
3 2155 2156 
1 2155 3268 
2 3269 3270 
3 2156 2157 
1 11349 11812 
3 11348 11349 
3 11347 11348 
1 11347 18030 
3 9470 9471 
3 18029 18030 
3 18028 18029 
3 4490 4491 
3 9469 9470 
1 4491 9469 
3 4504 4505 
1 4504 18028 
3 4505 4506 
3 18407 18408 
3 19036 19037 
3 4181 4182 
3 16321 16322 
1 16321 19036 
3 16322 16323 
1 16323 18408 
3 4180 4181 
3 15374 15375 
3 698 699 
3 697 698 
1 697 19260 
3 21292 21293 
3 19259 19260 
3 19258 19259 
3 14713 14714 
1 14713 19258 
1 4710 16665 
3 21293 21294 
3 4708 4709 
1 4708 21294 
3 143 144 
3 5597 5598 
3 5596 5597 
1 11322 20697 
3 20696 20697 
1 2157 14074 
3 20695 20696 
3 9511 9512 
1 9511 20695 
3 9512 9513 
1 9513 11848 
3 6827 6828 
3 11848 11849 
3 20459 20460 
3 3523 3524 
1 4506 17326 
3 17326 17327 
3 20458 20459 
1 6756 17328 
3 17327 17328 
3 3524 3525 
3 20944 20945 
1 11151 20944 
3 6755 6756 
3 20945 20946 
1 19809 20946 
3 19807 19808 
1 5769 11679 
3 5767 5768 
3 5768 5769 
1 741 5767 
3 16664 16665 
3 18451 18452 
1 18451 19807 
3 18452 18453 
3 16663 16664 
1 16663 18453 
3 14035 14036 
1 14004 14037 
3 14036 14037 
3 11321 11322 
3 7660 7661 
1 7660 11320 
3 11320 11321 
3 7661 7662 
3 7312 7313 
1 1617 7312 
3 1616 1617 
3 1615 1616 
1 1615 17308 
3 17308 17309 
3 10850 10851 
3 10849 10850 
3 17309 17310 
3 11849 11850 
3 3121 3122 
1 3121 11850 
3 11150 11151 
1 11895 19779 
3 19777 19778 
1 19777 20184 
3 19778 19779 
3 11893 11894 
1 11893 17310 
3 11894 11895 
1 4713 17911 
3 17911 17912 
3 17912 17913 
1 17913 20182 
3 20182 20183 
3 12886 12887 
1 12886 17764 
3 20183 20184 
2 14003 14004 
2 14002 14003 
3 16057 16058 
1 3912 10851 
2 19570 19571 
3 13156 13157 
1 13156 19570 
3 13157 13158 
3 3911 3912 
3 3910 3911 
1 3910 13158 
3 17764 17765 
3 17765 17766 
1 1242 17766 
1 3753 14133 
3 3752 3753 
3 3751 3752 
3 10889 10890 
3 1984 1985 
3 1985 1986 
1 1986 3094 
3 3094 3095 
3 10888 10889 
1 10923 14826 
3 10922 10923 
3 10921 10922 
2 10580 10581 
3 8996 8997 
3 3095 3096 
1 3096 8995 
3 8995 8996 
3 7474 7475 
3 7475 7476 
3 17635 17636 
1 17635 17694 
3 11725 11726 
1 7476 11725 
3 11726 11727 
3 19397 19398 
3 2477 2478 
3 2476 2477 
1 2476 10279 
3 19396 19397 
1 8268 19396 
3 6287 6288 
3 6286 6287 
1 6286 7635 
3 7634 7635 
3 7633 7634 
3 5036 5037 
3 5035 5036 
1 5035 15172 
3 15172 15173 
3 15173 15174 
2 4823 4824 
2 4822 4823 
1 3270 4822 
2 7709 7710 
2 7708 7709 
1 4824 7708 
1 3714 8997 
3 3713 3714 
3 3712 3713 
1 3712 21595 
3 21595 21596 
3 17692 17693 
3 17693 17694 
3 21596 21597 
1 20472 21597 
3 10279 10280 
1 4182 10281 
3 11614 11615 
1 11614 11677 
3 11677 11678 
1 2151 7633 
3 10280 10281 
3 2150 2151 
3 2149 2150 
1 2149 14377 
3 11615 11616 
1 11616 15174 
3 14714 14715 
3 11678 11679 
3 14377 14378 
3 14378 14379 
3 16358 16359 
3 142 143 
1 142 16357 
3 16357 16358 
3 6826 6827 
1 3525 6924 
3 20471 20472 
3 20470 20471 
1 20470 21376 
3 21376 21377 
3 6922 6923 
3 21377 21378 
1 4635 21378 
3 4634 4635 
3 4633 4634 
1 4633 20680 
3 20680 20681 
3 740 741 
3 20681 20682 
3 21127 21128 
3 21128 21129 
3 6923 6924 
3 6754 6755 
1 2535 6754 
3 2534 2535 
3 2533 2534 
1 2533 5995 
3 5995 5996 
3 5996 5997 
3 739 740 
1 739 16596 
2 16595 16596 
2 16594 16595 
1 2505 16594 
2 2504 2505 
2 2503 2504 
1 2503 12222 
3 12221 12222 
3 12220 12221 
1 8010 12220 
3 8009 8010 
2 10415 10416 
2 10414 10415 
1 10416 21129 
2 1240 1241 
2 1241 1242 
1 2523 14824 
2 2522 2523 
3 13592 13593 
3 13591 13592 
2 2521 2522 
1 2521 13591 
3 14824 14825 
3 14825 14826 
3 8266 8267 
3 8267 8268 
2 9617 9618 
3 12941 12942 
2 9616 9617 
1 9616 12942 
3 12940 12941 
3 1807 1808 
1 1807 14379 
3 1808 1809 
1 1809 7171 
2 7171 7172 
2 7172 7173 
2 5092 5093 
1 5092 7173 
3 1874 1875 
3 1873 1874 
3 8008 8009 
2 5093 5094 
