ITEM: TIMESTEP
35000000
ITEM: NUMBER OF ENTRIES
1370
ITEM: BOX BOUNDS pp pp pp
0 50
0 50
0 50
ITEM: ENTRIES c_binfo[1] c_binfo[2] c_binfo[3] 
3 1004 1005 
1 7152 9216 
2 15802 15803 
2 15803 15804 
1 14979 15802 
2 7150 7151 
1 7150 9078 
2 7151 7152 
2 9077 9078 
3 17254 17255 
2 9076 9077 
1 9076 17254 
3 17255 17256 
2 13714 13715 
2 13715 13716 
1 1686 13716 
3 15514 15515 
3 15515 15516 
1 4929 9591 
2 9920 9921 
2 9919 9920 
1 9919 13714 
1 9921 15516 
3 1129 1130 
1 1129 17443 
3 1130 1131 
2 17443 17444 
1 1131 14326 
3 14326 14327 
3 14327 14328 
2 9589 9590 
3 1003 1004 
1 1003 13410 
2 13409 13410 
2 13408 13409 
2 241 242 
1 241 13408 
2 9499 9500 
2 9590 9591 
2 11906 11907 
2 242 243 
1 243 13885 
2 13885 13886 
2 13886 13887 
2 9025 9026 
1 9025 13887 
2 17444 17445 
2 9026 9027 
1 9027 17445 
2 12916 12917 
2 12917 12918 
2 193 194 
1 193 9499 
2 194 195 
2 9214 9215 
1 195 9214 
2 9215 9216 
2 11905 11906 
2 14977 14978 
2 14978 14979 
2 9052 9053 
2 5870 5871 
1 5871 9052 
1 7050 12918 
2 7048 7049 
2 7049 7050 
1 2076 7048 
2 4939 4940 
1 4939 8020 
1 6708 9595 
2 9595 9596 
2 9596 9597 
2 8020 8021 
2 8021 8022 
2 9287 9288 
1 9054 9288 
2 9053 9054 
2 9286 9287 
2 15241 15242 
1 13557 14976 
3 14975 14976 
3 14974 14975 
1 14974 20281 
2 2971 2972 
3 1417 1418 
1 1417 2971 
2 2972 2973 
2 3623 3624 
3 20281 20282 
3 20282 20283 
2 10178 10179 
1 19533 20283 
2 19532 19533 
2 10177 10178 
2 1685 1686 
2 2668 2669 
1 2668 2973 
2 1684 1685 
1 1684 2670 
2 2669 2670 
1 13422 15006 
1 3624 6655 
2 13420 13421 
2 13421 13422 
2 16967 16968 
1 15096 16968 
2 3622 3623 
1 3622 15094 
3 15094 15095 
3 15095 15096 
1 654 16182 
2 652 653 
2 653 654 
1 18876 20718 
2 20716 20717 
2 20717 20718 
2 15743 15744 
2 4927 4928 
2 9274 9275 
1 9274 15744 
2 19592 19593 
2 4928 4929 
1 5670 19591 
2 19591 19592 
2 8810 8811 
2 5669 5670 
2 15742 15743 
2 9802 9803 
1 9802 10179 
2 9803 9804 
2 19531 19532 
1 19531 19593 
2 14233 14234 
2 14234 14235 
1 8811 14235 
2 15005 15006 
2 15004 15005 
1 15004 18042 
2 16966 16967 
1 14328 16966 
2 18041 18042 
2 18040 18041 
1 18040 19090 
3 19090 19091 
3 19091 19092 
2 14123 14124 
2 8809 8810 
2 20791 20792 
2 9500 9501 
1 1152 9501 
1 4035 20791 
2 4034 4035 
2 10589 10590 
2 10588 10589 
2 7585 7586 
1 7585 10588 
2 1151 1152 
2 1150 1151 
1 1150 9187 
2 9187 9188 
2 9188 9189 
1 9189 15402 
2 16766 16767 
2 16765 16766 
1 16765 18285 
2 18284 18285 
2 18283 18284 
2 9184 9185 
1 9184 18283 
2 7586 7587 
2 19610 19611 
2 19609 19610 
2 21035 21036 
3 16697 16698 
1 1575 16698 
2 1574 1575 
3 16696 16697 
1 15651 19609 
2 15650 15651 
1 3834 6448 
3 6448 6449 
3 6449 6450 
1 6450 14122 
2 14122 14123 
2 6707 6708 
2 5261 5262 
2 20792 20793 
2 6706 6707 
2 5260 5261 
1 5260 6706 
1 5262 20793 
2 5869 5870 
2 5848 5849 
2 4654 4655 
1 4654 5848 
2 4655 4656 
1 6321 13125 
2 5849 5850 
2 6320 6321 
2 6319 6320 
2 1753 1754 
1 1753 6319 
1 1755 5869 
2 1754 1755 
2 15401 15402 
2 15400 15401 
2 2075 2076 
1 13302 15400 
2 13301 13302 
2 13300 13301 
1 13300 21357 
2 9877 9878 
2 1573 1574 
1 1573 9186 
2 9185 9186 
2 4121 4122 
2 4120 4121 
1 4120 8296 
2 3832 3833 
1 3832 4122 
2 3833 3834 
2 4940 4941 
1 2616 4941 
2 2615 2616 
2 2614 2615 
2 1699 1700 
1 1699 2614 
2 1700 1701 
1 1701 4656 
2 17090 17091 
1 10377 17091 
2 10376 10377 
2 2074 2075 
1 2074 10375 
2 10375 10376 
2 9878 9879 
2 12526 12527 
2 12527 12528 
1 5193 12528 
3 15623 15624 
3 15622 15623 
2 5192 5193 
2 5191 5192 
3 3370 3371 
1 3370 5191 
3 3371 3372 
1 3372 20991 
2 17417 17418 
2 17416 17417 
1 5913 20316 
1 3477 5911 
3 5911 5912 
3 5912 5913 
2 13555 13556 
2 13556 13557 
2 182 183 
2 181 182 
2 17855 17856 
2 3793 3794 
1 3793 17856 
2 17854 17855 
1 1419 17854 
3 1418 1419 
2 7915 7916 
2 7916 7917 
2 21361 21362 
2 21362 21363 
2 11434 11435 
1 11434 21363 
2 11435 11436 
1 11436 15201 
2 14057 14058 
1 9276 14058 
2 14056 14057 
2 15242 15243 
2 13799 13800 
2 13798 13799 
1 13798 14056 
2 13012 13013 
1 13012 13800 
2 13013 13014 
2 6655 6656 
2 6542 6543 
2 6541 6542 
1 6541 7915 
1 6657 8395 
2 8395 8396 
2 6656 6657 
2 15199 15200 
2 15200 15201 
2 8396 8397 
3 16181 16182 
3 19844 19845 
3 19843 19844 
3 16180 16181 
1 16180 19843 
2 9275 9276 
2 6878 6879 
2 3295 3296 
1 3295 6879 
2 16253 16254 
2 12115 12116 
1 12115 16252 
2 16252 16253 
2 12116 12117 
1 5847 6877 
2 6877 6878 
2 11267 11268 
2 3296 3297 
2 12619 12620 
2 2236 2237 
1 2236 12619 
2 2237 2238 
1 2238 3297 
2 6683 6684 
2 7100 7101 
2 7099 7100 
2 11266 11267 
2 12620 12621 
2 8426 8427 
2 8425 8426 
1 8425 12621 
1 705 4498 
1 4500 12949 
2 12949 12950 
2 4499 4500 
2 4498 4499 
2 12950 12951 
1 4023 7419 
2 7418 7419 
2 7417 7418 
1 7417 17992 
2 3859 3860 
1 3859 15555 
2 15554 15555 
3 18875 18876 
3 18874 18875 
2 17992 17993 
2 17993 17994 
1 17994 18874 
2 4454 4455 
2 8462 8463 
2 8461 8462 
1 8461 19812 
2 19115 19116 
2 19114 19115 
2 4453 4454 
1 4453 6940 
2 18026 18027 
2 5668 5669 
1 5668 20440 
2 20440 20441 
2 20441 20442 
2 21398 21399 
2 4033 4034 
1 4033 18027 
2 4816 4817 
1 4816 21399 
1 18774 20442 
2 4019 4020 
2 10264 10265 
1 7101 9916 
2 18773 18774 
2 18772 18773 
1 9918 18772 
2 9916 9917 
2 13771 13772 
2 10265 10266 
2 2065 2066 
1 2065 13771 
2 4018 4019 
1 4018 10266 
2 2066 2067 
2 4093 4094 
1 4093 19611 
2 4094 4095 
1 2067 4095 
2 21272 21273 
2 20764 20765 
1 20764 21273 
2 21271 21272 
1 21036 21271 
2 155 156 
2 4022 4023 
2 4021 4022 
1 4021 20766 
2 15649 15650 
2 20765 20766 
1 3492 15649 
2 3491 3492 
2 12920 12921 
2 14533 14534 
2 12919 12920 
1 12919 14533 
2 19811 19812 
2 19810 19811 
2 3490 3491 
1 3490 19998 
2 19615 19616 
2 19616 19617 
1 12921 19615 
1 19617 19810 
2 19997 19998 
2 6940 6941 
2 13124 13125 
2 13123 13124 
2 8273 8274 
1 8274 11670 
2 11669 11670 
2 4817 4818 
1 4818 11668 
2 11668 11669 
2 7513 7514 
2 7514 7515 
1 7515 21034 
2 13772 13773 
2 8680 8681 
1 8680 8998 
2 8999 9000 
2 8998 8999 
2 8681 8682 
2 21034 21035 
2 21355 21356 
1 9000 21355 
2 21356 21357 
2 17074 17075 
2 17075 17076 
1 11970 17074 
2 11969 11970 
2 2282 2283 
2 8297 8298 
2 8296 8297 
2 2281 2282 
1 2281 9421 
2 9421 9422 
2 9422 9423 
1 9423 18630 
2 2788 2789 
1 2788 8298 
2 2789 2790 
2 19996 19997 
1 14397 19996 
2 14396 14397 
2 14395 14396 
2 13297 13298 
1 13297 18033 
2 16508 16509 
1 13299 16507 
2 16507 16508 
2 13298 13299 
2 20476 20477 
2 20477 20478 
2 307 308 
1 307 20476 
2 308 309 
1 309 8682 
2 17089 17090 
2 20195 20196 
2 6715 6716 
1 6715 17089 
2 6716 6717 
1 6717 20196 
2 3905 3906 
2 9365 9366 
2 11968 11969 
1 11968 13507 
2 13507 13508 
2 13508 13509 
2 10597 10598 
2 10598 10599 
2 1349 1350 
2 1348 1349 
1 1348 6108 
3 10295 10296 
2 12517 12518 
2 2863 2864 
1 2863 15624 
2 9364 9365 
2 2864 2865 
2 13411 13412 
2 13412 13413 
1 2865 8035 
1 4302 13413 
2 8036 8037 
2 8035 8036 
2 4189 4190 
2 20990 20991 
2 4190 4191 
2 20989 20990 
2 6031 6032 
1 6031 20989 
2 6032 6033 
3 10294 10295 
2 18817 18818 
2 18818 18819 
2 4300 4301 
1 4300 18819 
2 4301 4302 
1 10140 21361 
2 10139 10140 
1 3183 13962 
1 183 2532 
2 3182 3183 
2 1531 1532 
1 1531 3181 
2 3181 3182 
2 1532 1533 
1 2445 3795 
2 2444 2445 
2 2443 2444 
1 2443 10219 
2 10219 10220 
2 3794 3795 
2 2098 2099 
1 2098 4638 
2 3475 3476 
2 3476 3477 
2 13961 13962 
2 2651 2652 
2 2650 2651 
1 2650 13960 
2 13960 13961 
2 5846 5847 
2 14026 14027 
2 14027 14028 
1 13014 16462 
2 16462 16463 
2 2531 2532 
2 2530 2531 
1 2530 21423 
2 21422 21423 
2 21421 21422 
1 7200 21421 
2 1076 1077 
2 1075 1076 
1 1075 5883 
2 5882 5883 
2 5881 5882 
1 5881 17805 
2 16463 16464 
2 4637 4638 
2 15914 15915 
2 4636 4637 
1 4636 15915 
1 5778 19675 
2 19675 19676 
2 5777 5778 
2 259 260 
1 259 5776 
2 5776 5777 
2 19676 19677 
1 8397 15913 
2 15913 15914 
1 8385 15630 
2 8384 8385 
2 8383 8384 
1 8383 17670 
2 15629 15630 
2 15628 15629 
1 15628 18159 
1 2652 11664 
2 11663 11664 
2 11662 11663 
1 11662 15907 
2 15907 15908 
2 15908 15909 
2 5845 5846 
1 5845 11235 
2 6682 6683 
2 260 261 
2 6662 6663 
2 6661 6662 
1 3591 6661 
2 3590 3591 
2 3589 3590 
1 1023 14008 
2 14008 14009 
1 261 1156 
2 1156 1157 
2 1157 1158 
2 1021 1022 
2 703 704 
1 703 1021 
2 1022 1023 
2 8816 8817 
2 704 705 
1 1158 14901 
2 8815 8816 
2 2447 2448 
2 6271 6272 
1 6271 8817 
2 2446 2447 
1 2446 19677 
1 2448 3861 
2 6272 6273 
2 3860 3861 
1 6273 14535 
2 15553 15554 
1 8496 15553 
1 12468 15348 
2 12467 12468 
2 18157 18158 
1 18157 20779 
2 18158 18159 
3 20779 20780 
2 12466 12467 
2 3628 3629 
1 3628 12466 
3 20780 20781 
2 7003 7004 
1 7003 20781 
2 7004 7005 
3 5584 5585 
1 5584 7005 
2 21397 21398 
2 11110 11111 
1 11110 21397 
2 8519 8520 
2 8878 8879 
1 8878 12117 
2 8518 8519 
1 8518 15909 
2 8879 8880 
2 17212 17213 
1 8880 17212 
2 17213 17214 
2 9917 9918 
2 20840 20841 
2 14009 14010 
1 156 14010 
2 14900 14901 
2 14899 14900 
2 12209 12210 
2 7402 7403 
1 7402 14899 
2 7403 7404 
2 154 155 
1 154 3514 
2 946 947 
1 946 12210 
2 14534 14535 
2 947 948 
1 948 1117 
2 1118 1119 
2 1117 1118 
2 13862 13863 
1 3630 8494 
2 8495 8496 
2 15488 15489 
2 8494 8495 
2 15487 15488 
1 1461 15487 
2 1460 1461 
2 3629 3630 
3 5585 5586 
3 15827 15828 
2 6941 6942 
1 6942 15826 
3 15826 15827 
1 5586 15828 
2 8272 8273 
2 5362 5363 
1 5362 8272 
2 5363 5364 
1 5364 17214 
2 4160 4161 
1 4161 16048 
2 17537 17538 
1 6405 17538 
1 13773 20839 
2 20839 20840 
2 4159 4160 
1 4159 17484 
1 9687 17482 
2 17482 17483 
2 17483 17484 
2 17536 17537 
2 13 14 
1 13 17536 
1 15 14557 
2 14 15 
2 14557 14558 
2 12208 12209 
1 12208 17151 
2 9686 9687 
2 9685 9686 
2 17150 17151 
1 7404 9685 
2 14558 14559 
1 3516 6619 
2 6619 6620 
1 6621 14559 
2 6620 6621 
2 3514 3515 
2 3515 3516 
1 2790 3657 
2 3656 3657 
2 3655 3656 
1 3655 13861 
2 13861 13862 
2 10135 10136 
2 4108 4109 
1 4108 10135 
2 4109 4110 
2 10136 10137 
2 18629 18630 
3 18032 18033 
3 18031 18032 
2 1459 1460 
1 1459 4110 
3 5657 5658 
2 16048 16049 
2 16049 16050 
3 5656 5657 
1 5656 16050 
2 3904 3905 
2 20194 20195 
1 19401 20194 
2 19399 19400 
2 601 602 
1 601 19399 
2 602 603 
2 19400 19401 
2 3106 3107 
1 603 13663 
2 13663 13664 
2 2635 2636 
1 2635 13665 
2 2636 2637 
2 13664 13665 
1 6342 11232 
2 8572 8573 
1 138 8572 
2 137 138 
2 18628 18629 
1 18628 18880 
2 18880 18881 
1 8574 10137 
2 18881 18882 
2 3928 3929 
1 3928 18882 
1 2637 6106 
2 6107 6108 
2 6106 6107 
2 8573 8574 
2 3929 3930 
2 12518 12519 
2 4535 4536 
2 4534 4535 
1 4534 14316 
2 14315 14316 
1 8037 14104 
2 14104 14105 
2 6340 6341 
1 6340 14106 
2 6341 6342 
2 14105 14106 
2 14314 14315 
1 14314 16383 
2 2833 2834 
1 2833 10512 
2 16382 16383 
2 16381 16382 
2 9250 9251 
1 9250 16381 
2 2834 2835 
2 6803 6804 
2 6802 6803 
1 6033 6802 
1 9252 10305 
2 9251 9252 
2 10304 10305 
2 28 29 
1 28 10303 
2 10303 10304 
2 29 30 
1 30 3930 
2 10510 10511 
2 10511 10512 
1 1533 20469 
3 20468 20469 
3 20467 20468 
3 9688 9689 
3 9689 9690 
2 10138 10139 
1 9690 10138 
2 13264 13265 
2 13265 13266 
1 13266 15010 
2 15010 15011 
2 10220 10221 
2 15011 15012 
2 2099 2100 
1 2100 13510 
2 9404 9405 
2 18779 18780 
2 18778 18779 
1 462 18778 
2 461 462 
1 14028 18780 
2 5054 5055 
2 17803 17804 
2 7199 7200 
1 3711 15012 
2 3710 3711 
2 17804 17805 
2 5053 5054 
1 5053 17803 
2 3709 3710 
1 3709 5080 
2 5080 5081 
2 5081 5082 
2 13511 13512 
2 13510 13511 
2 7198 7199 
1 7198 18411 
1 13512 17442 
2 17441 17442 
2 18409 18410 
2 17440 17441 
1 17440 18409 
2 18410 18411 
2 3278 3279 
1 3279 11295 
2 17669 17670 
2 17668 17669 
2 3277 3278 
1 3277 17668 
2 21505 21506 
2 9403 9404 
1 9403 16879 
2 5705 5706 
1 5706 7116 
2 5704 5705 
1 5704 19242 
2 4162 4163 
2 7115 7116 
2 19241 19242 
2 4556 4557 
2 7940 7941 
1 7941 15786 
2 15785 15786 
2 15784 15785 
2 7114 7115 
2 4774 4775 
1 4774 7114 
2 7939 7940 
1 7806 8815 
2 7805 7806 
2 2644 2645 
1 2644 7804 
2 7804 7805 
2 2645 2646 
2 11294 11295 
2 11087 11088 
2 11293 11294 
2 21506 21507 
2 9940 9941 
1 9940 21507 
2 9941 9942 
2 15347 15348 
2 15346 15347 
1 11088 15346 
1 8736 11293 
2 12080 12081 
1 12081 16620 
2 4555 4556 
1 4555 12079 
2 12079 12080 
2 16619 16620 
2 2209 2210 
1 2209 4776 
2 2210 2211 
1 1506 2211 
2 1289 1290 
2 6064 6065 
1 4236 6064 
2 4234 4235 
1 4234 7939 
2 16618 16619 
1 14091 16618 
1 6066 14089 
2 14089 14090 
2 4775 4776 
2 9923 9924 
1 9924 13180 
2 13180 13181 
2 14090 14091 
2 4235 4236 
2 6065 6066 
2 9922 9923 
1 9922 14829 
2 13181 13182 
1 2646 13182 
2 16744 16745 
2 16745 16746 
2 11086 11087 
1 11086 16746 
2 13615 13616 
1 13615 16744 
2 11506 11507 
2 11507 11508 
2 10232 10233 
2 10231 10232 
2 20482 20483 
2 14938 14939 
1 13863 14938 
2 14939 14940 
1 14940 20484 
2 20483 20484 
1 1119 11245 
2 11245 11246 
2 17275 17276 
1 11247 17275 
2 16499 16500 
2 11246 11247 
2 16498 16499 
2 6404 6405 
2 18439 18440 
2 6403 6404 
1 6403 18439 
2 1504 1505 
1 1504 1620 
2 1505 1506 
2 1619 1620 
2 1618 1619 
1 1618 3108 
2 14828 14829 
2 19321 19322 
1 19321 20512 
2 20512 20513 
2 20513 20514 
2 17149 17150 
2 8716 8717 
1 8716 17149 
1 1176 11508 
2 13616 13617 
1 5985 13617 
2 5984 5985 
2 5983 5984 
1 5121 5983 
2 8717 8718 
1 372 8718 
2 19322 19323 
2 371 372 
2 17276 17277 
2 9178 9179 
1 9178 17277 
2 9179 9180 
2 19877 19878 
2 19876 19877 
1 14868 19335 
2 13780 13781 
2 13781 13782 
2 3107 3108 
2 3347 3348 
1 3348 16627 
2 16627 16628 
2 3346 3347 
1 3346 4536 
2 4703 4704 
2 4702 4703 
2 16628 16629 
1 7023 11230 
2 11230 11231 
2 8335 8336 
1 8335 16629 
2 11231 11232 
2 7022 7023 
2 7021 7022 
1 7021 12877 
2 370 371 
1 370 20179 
2 20179 20180 
2 20180 20181 
2 12877 12878 
2 12878 12879 
2 136 137 
1 136 21156 
2 21155 21156 
2 21154 21155 
2 19864 19865 
1 19866 20856 
2 19865 19866 
3 20854 20855 
3 20855 20856 
2 460 461 
1 460 1366 
2 1366 1367 
2 5386 5387 
1 5386 21046 
2 5387 5388 
1 5082 8971 
2 8971 8972 
2 21047 21048 
2 21046 21047 
2 1367 1368 
1 1368 19864 
3 7853 7854 
1 7854 15486 
2 15485 15486 
3 7852 7853 
1 7852 15378 
1 2280 15484 
2 15484 15485 
3 13730 13731 
2 15376 15377 
1 15376 21505 
2 15377 15378 
2 4163 4164 
1 4164 9213 
2 11882 11883 
2 11881 11882 
2 2938 2939 
1 2938 15784 
2 8972 8973 
2 2278 2279 
1 2278 11883 
2 2939 2940 
2 2279 2280 
2 7678 7679 
1 7678 11881 
2 7679 7680 
2 7432 7433 
1 7432 8973 
2 7433 7434 
1 9195 20482 
2 9194 9195 
3 13729 13730 
1 13729 20337 
2 20336 20337 
2 8735 8736 
2 8734 8735 
1 8734 13641 
2 9193 9194 
2 1288 1289 
1 1288 7557 
2 9212 9213 
2 9211 9212 
1 9211 9271 
2 9272 9273 
2 9271 9272 
2 21098 21099 
2 6532 6533 
1 6532 21099 
2 8492 8493 
1 7680 21097 
2 21097 21098 
2 3206 3207 
2 3205 3206 
2 10378 10379 
1 3207 10378 
2 10379 10380 
2 8491 8492 
1 8491 9753 
2 9751 9752 
2 9752 9753 
2 1886 1887 
2 1885 1886 
1 1885 10233 
1 9138 19336 
2 19336 19337 
2 9137 9138 
2 19337 19338 
2 13640 13641 
2 13639 13640 
2 9136 9137 
1 9136 13639 
2 7711 7712 
1 7711 17547 
2 7712 7713 
2 2297 2298 
2 2296 2297 
1 2296 6534 
2 6533 6534 
2 21100 21101 
2 8729 8730 
2 7234 7235 
1 7234 11031 
2 11029 11030 
2 11030 11031 
2 14827 14828 
1 14827 21102 
2 21101 21102 
1 10380 11029 
2 4619 4620 
2 1175 1176 
2 1174 1175 
1 1174 17664 
2 17663 17664 
2 17662 17663 
1 11796 17662 
2 21466 21467 
1 9180 21466 
2 21467 21468 
2 19333 19334 
2 607 608 
1 607 19333 
1 609 8730 
2 608 609 
2 19334 19335 
2 12362 12363 
2 15661 15662 
1 15661 20514 
2 12361 12362 
1 12361 15663 
2 15662 15663 
2 12124 12125 
2 12125 12126 
1 8160 12126 
2 5119 5120 
2 5120 5121 
2 11795 11796 
1 10533 11794 
2 11794 11795 
2 10532 10533 
2 8336 8337 
2 10531 10532 
1 8337 10531 
2 12500 12501 
2 12499 12500 
1 12499 21468 
2 4936 4937 
1 4936 12879 
2 4937 4938 
2 14459 14460 
2 12280 12281 
1 12280 14460 
2 12281 12282 
2 3619 3620 
1 3619 12282 
2 3620 3621 
1 3621 8805 
2 8804 8805 
2 8803 8804 
2 6226 6227 
1 6226 20335 
2 20335 20336 
2 6227 6228 
2 1691 1692 
2 43 44 
1 43 1692 
2 14458 14459 
2 44 45 
3 18991 18992 
2 1690 1691 
1 45 9273 
1 7665 14067 
3 18992 18993 
2 8435 8436 
2 14066 14067 
2 14065 14066 
3 10960 10961 
2 8434 8435 
1 8434 10960 
3 10961 10962 
1 6228 8436 
2 16396 16397 
2 16397 16398 
1 7713 16396 
3 14902 14903 
1 14902 16398 
3 14903 14904 
2 11824 11825 
2 7664 7665 
2 7663 7664 
1 7236 12985 
2 4618 4619 
2 7235 7236 
2 11825 11826 
2 12985 12986 
2 12986 12987 
2 8728 8729 
1 8728 12987 
2 8159 8160 
2 8158 8159 
3 5954 5955 
2 18590 18591 
1 5955 18591 
2 18589 18590 
3 7483 7484 
1 7483 7908 
3 7906 7907 
3 7907 7908 
3 5953 5954 
1 5953 17506 
3 17506 17507 
1 17508 20035 
3 20035 20036 
3 17507 17508 
3 7484 7485 
3 1193 1194 
3 1192 1193 
3 19546 19547 
3 20036 20037 
3 19547 19548 
2 17941 17942 
1 17941 20037 
2 17942 17943 
3 8516 8517 
3 3778 3779 
1 3778 8515 
3 8515 8516 
3 3779 3780 
3 650 651 
3 649 650 
1 649 8022 
3 14878 14879 
1 14878 17256 
3 14879 14880 
3 15202 15203 
3 15203 15204 
1 8589 15204 
2 8588 8589 
3 8135 8136 
1 8136 15243 
3 8134 8135 
1 8134 18133 
1 14727 15742 
2 6671 6672 
2 18025 18026 
2 14725 14726 
1 14725 17467 
2 17467 17468 
2 17468 17469 
2 8587 8588 
1 8587 15391 
2 15391 15392 
2 14726 14727 
2 11023 11024 
2 11024 11025 
1 10671 17469 
2 10670 10671 
2 16994 16995 
2 10669 10670 
1 10669 16995 
2 15392 15393 
1 4848 15393 
2 16993 16994 
3 688 689 
1 688 14179 
3 14179 14180 
3 689 690 
3 14180 14181 
3 20315 20316 
3 20314 20315 
2 18134 18135 
2 18133 18134 
2 122 123 
2 121 122 
1 121 18135 
2 6670 6671 
1 6670 14419 
2 14419 14420 
2 14420 14421 
2 5815 5816 
1 5815 18025 
2 5816 5817 
2 8417 8418 
1 5817 8416 
2 8416 8417 
2 11111 11112 
2 8488 8489 
2 8489 8490 
1 8490 10306 
2 10306 10307 
2 10307 10308 
2 4847 4848 
2 4846 4847 
1 4846 14307 
2 14306 14307 
2 21010 21011 
2 21011 21012 
2 14305 14306 
2 9458 9459 
2 9457 9458 
1 9457 21012 
1 690 20478 
2 2981 2982 
1 2982 14368 
2 2980 2981 
1 2980 13614 
2 11233 11234 
2 14368 14369 
2 14369 14370 
2 5462 5463 
1 5463 11233 
2 11234 11235 
2 13613 13614 
1 6753 13612 
2 13612 13613 
2 6752 6753 
2 12319 12320 
2 6751 6752 
1 6751 12319 
1 8418 16978 
2 16978 16979 
2 16979 16980 
2 7516 7517 
1 7516 16980 
2 7517 7518 
2 11156 11157 
2 5461 5462 
1 5461 11112 
2 898 899 
1 898 8520 
2 5044 5045 
1 5044 10308 
2 18485 18486 
1 12264 18484 
2 18484 18485 
2 5045 5046 
1 5046 11157 
2 899 900 
2 911 912 
1 912 19240 
3 17579 17580 
3 17578 17579 
2 910 911 
1 910 17578 
2 16879 16880 
1 6279 14370 
2 19240 19241 
1 4557 6277 
2 6278 6279 
2 6277 6278 
2 16880 16881 
1 7518 12321 
2 12320 12321 
2 2926 2927 
1 2926 12108 
2 2927 2928 
2 9142 9143 
2 12106 12107 
2 12107 12108 
2 11155 11156 
2 8506 8507 
1 8506 11155 
2 8507 8508 
1 8508 19579 
2 19579 19580 
2 19580 19581 
2 9143 9144 
3 12262 12263 
1 12262 14361 
3 12263 12264 
2 14360 14361 
2 14359 14360 
2 2041 2042 
2 2042 2043 
1 2043 18441 
2 18440 18441 
2 11174 11175 
2 11173 11174 
3 14867 14868 
3 14866 14867 
2 13684 13685 
2 7924 7925 
1 7924 13686 
2 11468 11469 
2 11467 11468 
1 11467 16881 
2 13685 13686 
2 7925 7926 
2 7555 7556 
1 7555 7926 
2 7556 7557 
2 17545 17546 
1 17545 19581 
2 17546 17547 
