ITEM: TIMESTEP
35000000
ITEM: NUMBER OF ATOMS
531
ITEM: BOX BOUNDS pp pp pp
0.0000000000000000e+00 5.0000000000000000e+01
0.0000000000000000e+00 5.0000000000000000e+01
0.0000000000000000e+00 5.0000000000000000e+01
ITEM: ATOMS id type xs ys zs
10620 1 0.0214769 0.726751 0.0310203
19587 1 0.0215992 0.705171 0.0117262
19586 2 0.0258764 0.713138 0.0107377
4705 1 0.043151 0.714953 0.021925
13940 2 0.047191 0.708341 0.0148447
13941 1 0.0440078 0.713039 0.0206897
4706 2 0.0407426 0.721263 0.0245607
13939 1 0.0475902 0.703729 0.00899769
10216 1 0.0473081 0.702699 0.00573491
10846 1 0.0345155 0.716191 0.00355975
19585 1 0.0322584 0.715103 0.00584288
1060 1 0.0214284 0.729927 0.0295543
13453 1 0.0135711 0.745321 0.0255109
13454 2 0.00935011 0.751375 0.0262186
13455 1 0.0077779 0.754005 0.0186066
1062 1 0.0153546 0.74323 0.0251423
1061 2 0.0200894 0.737157 0.0256226
17062 1 0.00745162 0.755857 0.0156764
6535 1 0.0412064 0.733001 0.0274473
4707 1 0.0410445 0.730008 0.0264065
6536 2 0.0408689 0.740453 0.0305328
6537 1 0.0381826 0.745679 0.023658
17063 2 0.00672936 0.760443 0.00829607
11983 1 0.0109645 0.781737 0.00493724
14731 1 0.0145291 0.782103 0.00495399
14732 2 0.0224239 0.782406 0.00605367
17064 1 0.00877143 0.765171 0.00264002
11984 2 0.00290469 0.781911 0.00563748
13304 2 0.0830559 0.764649 0.00514187
3437 2 0.0918308 0.762365 0.0186564
3436 1 0.0885842 0.764277 0.013224
13305 1 0.0873359 0.764585 0.0106982
13303 1 0.0770369 0.75961 0.00101614
3438 1 0.0975904 0.761374 0.0225627
4594 1 0.100313 0.761411 0.0242219
4595 2 0.107731 0.762292 0.0267297
4596 1 0.113975 0.763192 0.032081
6933 1 0.0263839 0.791855 0.0112908
14733 1 0.0252217 0.788535 0.0101654
3512 2 0.0278312 0.816793 0.00496023
6932 2 0.0283885 0.798648 0.0141443
6931 1 0.0303845 0.798316 0.0226971
3513 1 0.0277337 0.82472 0.00417295
17414 2 0.0264709 0.835363 0.00547922
17415 1 0.0273808 0.828168 0.00378529
13142 2 0.0474924 0.832875 0.00470624
13143 1 0.0409665 0.831142 0.00846805
8929 1 0.061185 0.84509 0.0183263
13141 1 0.0533811 0.831793 0.000552499
8931 1 0.0650051 0.848475 0.00380082
19692 1 0.0658876 0.848278 0.00083246
8930 2 0.0612192 0.848812 0.0106387
1428 1 0.0242955 0.674908 0.0334751
1427 3 0.0287185 0.681049 0.0331926
1426 1 0.0278938 0.689079 0.0326489
15687 1 0.0272835 0.692285 0.033121
10619 2 0.022805 0.719855 0.0350497
10618 1 0.0251201 0.712068 0.0349005
15686 2 0.0252782 0.700561 0.0340114
15685 1 0.0256502 0.708628 0.03514
16204 1 0.0597076 0.719646 0.899652
18187 1 0.0570465 0.721035 0.900016
18188 3 0.049672 0.725312 0.900711
16206 1 0.0699599 0.708433 0.89614
16205 3 0.0647992 0.715166 0.897663
18189 1 0.0469003 0.732725 0.900595
331 1 0.0461431 0.735859 0.901191
332 2 0.0464117 0.743343 0.902403
3244 1 0.0251643 0.783458 0.906137
16748 2 0.0287964 0.773394 0.907292
16747 1 0.0261471 0.780487 0.906314
3245 2 0.0242657 0.791832 0.905942
6586 1 0.0185607 0.714621 0.935749
6587 2 0.0217508 0.722459 0.934049
6588 1 0.0278112 0.726983 0.934812
16781 2 0.0576068 0.705364 0.928544
16780 1 0.0522364 0.700314 0.933325
16782 1 0.0633153 0.70683 0.922346
19860 1 0.0303698 0.729068 0.935399
7930 1 0.0173526 0.757094 0.924075
9579 1 0.0166783 0.755306 0.926409
9578 2 0.0172487 0.751559 0.9338
19859 2 0.0377111 0.731366 0.93735
18593 2 0.0416657 0.748562 0.919747
333 1 0.0447806 0.744872 0.910094
18592 1 0.0434814 0.745636 0.913159
19858 1 0.0432053 0.731185 0.932888
18931 1 0.0456896 0.731201 0.93075
18932 2 0.0531178 0.730066 0.926179
18933 1 0.0612522 0.733319 0.926242
18594 1 0.0391723 0.751297 0.926707
3520 1 0.0380311 0.752644 0.928991
2061 1 0.0540412 0.757274 0.93727
3521 2 0.0355922 0.757018 0.935345
588 1 0.0639741 0.734461 0.926186
587 2 0.0714162 0.73803 0.927334
586 1 0.0785025 0.741879 0.928623
9176 3 0.115153 0.737077 0.921711
9175 1 0.111555 0.732426 0.916634
9177 1 0.11528 0.744433 0.926526
13165 1 0.115209 0.747475 0.92787
13166 2 0.11393 0.754764 0.931474
7931 2 0.0206456 0.761111 0.918395
16749 1 0.0273709 0.768309 0.912998
7932 1 0.0263278 0.7668 0.914919
11781 1 0.0164393 0.779356 0.934976
11780 2 0.0105955 0.773411 0.935551
4608 1 0.0189403 0.780938 0.933909
4607 2 0.025234 0.784703 0.931849
9911 2 0.0424292 0.778066 0.926149
9912 1 0.0469919 0.772419 0.927134
18180 1 0.0489587 0.769865 0.92758
18179 2 0.053877 0.764647 0.92984
18178 1 0.0537942 0.759528 0.935113
4606 1 0.0322339 0.782721 0.929373
9910 1 0.0349657 0.781944 0.928297
16592 2 0.0889291 0.760364 0.937497
16593 1 0.0973284 0.761429 0.93628
13167 1 0.108885 0.76231 0.930989
8271 1 0.111318 0.781581 0.935539
7027 1 0.109787 0.7794 0.934009
7029 1 0.108217 0.764968 0.931153
7028 2 0.1058 0.773459 0.93112
3246 1 0.021957 0.797796 0.911425
11542 1 0.0211181 0.799604 0.913307
11544 1 0.0185705 0.809344 0.923503
11543 2 0.0174759 0.803998 0.91814
20575 1 0.0185288 0.811285 0.925741
20576 2 0.0195862 0.816663 0.932253
16006 1 0.0690598 0.797978 0.932983
16007 2 0.0721568 0.790578 0.932535
1276 1 0.0282414 0.838759 0.933822
11115 1 0.0257918 0.840002 0.93433
11114 2 0.0187301 0.843683 0.936064
12632 2 0.0539442 0.832137 0.925439
12631 1 0.046901 0.833233 0.929136
1278 1 0.0440218 0.833748 0.930758
1277 2 0.0364714 0.835351 0.933163
12633 1 0.0605697 0.83333 0.920688
18479 2 0.0169076 0.697609 0.939225
18478 1 0.0108588 0.701508 0.939665
19085 2 0.0284311 0.7248 0.954188
18480 1 0.0244481 0.697398 0.940999
19084 1 0.0326949 0.719485 0.959043
9781 1 0.0341697 0.717686 0.960698
1524 1 0.0537827 0.698376 0.955518
1523 2 0.0586712 0.699173 0.950459
9782 2 0.0380842 0.712806 0.966631
1609 1 0.0660922 0.70777 0.949526
1522 1 0.0643116 0.705034 0.949674
1610 2 0.0694665 0.715262 0.948205
7407 1 0.0681959 0.7268 0.946
1611 1 0.0685949 0.72371 0.946342
9577 1 0.0204451 0.748099 0.939119
13966 1 0.0220085 0.746069 0.941154
13967 2 0.0246666 0.742057 0.946603
13968 1 0.0265719 0.735352 0.948845
19086 1 0.0273244 0.732632 0.950271
1015 1 0.00750305 0.755456 0.959619
1513 1 0.0205496 0.757325 0.960703
1514 2 0.0256518 0.752779 0.964761
1016 2 0.00256893 0.748352 0.961405
2060 2 0.0543967 0.750591 0.941933
19721 2 0.0383321 0.734215 0.969248
19720 1 0.0410916 0.738421 0.963253
9896 2 0.0423429 0.745473 0.95545
9897 1 0.0415213 0.739917 0.961293
9895 1 0.0472789 0.746601 0.950234
2059 1 0.0496158 0.747799 0.947949
931 1 0.0812 0.753664 0.942197
16591 1 0.0830484 0.755809 0.941107
7406 2 0.0655843 0.73431 0.945766
7405 1 0.0708277 0.740142 0.94606
933 1 0.0727223 0.742021 0.945815
932 2 0.0761557 0.748618 0.945252
14101 1 0.0832458 0.747597 0.964012
14103 1 0.0752755 0.734716 0.961645
14102 2 0.0820504 0.739893 0.963492
11779 1 0.00363454 0.772636 0.939686
4410 1 0.000987918 0.771779 0.941348
1374 1 0.00929035 0.758331 0.958731
1373 2 0.013503 0.764428 0.955153
1372 1 0.0186007 0.759869 0.958666
4838 2 0.00795037 0.785998 0.957705
4839 1 0.000165795 0.786724 0.955488
2416 1 0.0505892 0.759816 0.959573
2417 2 0.0584006 0.75959 0.960336
12300 1 0.0335969 0.764237 0.942935
12299 2 0.0326842 0.769767 0.947201
3522 1 0.034262 0.762354 0.940968
12298 1 0.0353518 0.769643 0.954829
18727 1 0.0363878 0.769484 0.957257
18728 2 0.0417488 0.772056 0.963855
10357 1 0.0518846 0.786999 0.955081
7869 1 0.0546977 0.785585 0.954556
7868 2 0.0614593 0.783075 0.952426
18729 1 0.049396 0.773905 0.966747
15639 1 0.0524235 0.77468 0.968364
16008 1 0.0691747 0.787142 0.939207
2418 1 0.0652953 0.757802 0.963728
17652 1 0.0680164 0.757756 0.964666
17651 2 0.0749517 0.759296 0.967893
2435 2 0.0921575 0.78052 0.949609
2436 1 0.0847735 0.776579 0.949888
4250 2 0.0750193 0.772932 0.947886
4251 1 0.0823603 0.775588 0.949223
7867 1 0.0672887 0.779027 0.950899
4249 1 0.0694111 0.777564 0.950141
17650 1 0.0772959 0.766611 0.969051
5431 1 0.077958 0.769143 0.969016
5432 2 0.0797603 0.775379 0.968121
5433 1 0.0783766 0.782569 0.965609
18528 1 0.0776438 0.785871 0.964485
2434 1 0.094645 0.783713 0.957125
10467 1 0.0951087 0.785113 0.959558
10466 2 0.0965141 0.787031 0.967647
4837 1 0.0156458 0.787956 0.955324
12572 2 0.0261741 0.789715 0.952684
3311 2 0.0305552 0.808168 0.949441
3310 1 0.026388 0.808047 0.955498
12571 1 0.0180797 0.788706 0.954463
3349 1 0.0240575 0.807767 0.957984
3350 2 0.0176788 0.805982 0.963363
3351 1 0.0182885 0.800923 0.96897
19097 2 0.0474458 0.797847 0.940168
19096 1 0.0556154 0.80127 0.93905
19098 1 0.0400131 0.793582 0.94177
12573 1 0.0343156 0.79133 0.954298
3312 1 0.0353826 0.813335 0.946919
21130 1 0.0373333 0.815211 0.946351
10359 1 0.0372631 0.791259 0.955367
10358 2 0.0445316 0.79125 0.958862
6665 2 0.0618411 0.805373 0.968276
9197 2 0.0711335 0.809413 0.949027
9196 1 0.065708 0.812125 0.954625
9198 1 0.0787374 0.807998 0.948076
18527 2 0.0759786 0.794146 0.961708
17187 1 0.0817158 0.806962 0.947785
17186 2 0.0890262 0.803039 0.945701
6664 1 0.0669549 0.799318 0.965643
18526 1 0.0693307 0.797259 0.964543
8270 2 0.114226 0.788484 0.940516
17185 1 0.0963232 0.80192 0.94067
7676 3 0.114003 0.798677 0.956964
7677 1 0.114465 0.794735 0.950283
8269 1 0.114444 0.793309 0.946953
7675 1 0.117179 0.805071 0.960154
5855 2 0.00809334 0.82323 0.965163
5856 1 0.0135875 0.825115 0.95844
20577 1 0.0196691 0.819466 0.939899
9733 1 0.0195111 0.820874 0.941939
9734 2 0.0197333 0.826333 0.949524
8500 1 0.0125348 0.844187 0.946844
11113 1 0.0141638 0.843923 0.944225
8501 2 0.00798776 0.845585 0.953639
9735 1 0.0153207 0.82575 0.956058
21131 2 0.0429451 0.81922 0.943876
21132 1 0.0503789 0.822304 0.944851
14851 1 0.0530288 0.823594 0.944834
14852 2 0.0598337 0.827516 0.94609
14853 1 0.0648292 0.832216 0.949938
12744 1 0.0666106 0.834203 0.95134
12743 2 0.0713669 0.838533 0.955819
12742 1 0.071478 0.839953 0.963777
14592 1 0.0709849 0.840639 0.966832
17852 2 0.0160068 0.878228 0.962233
17851 1 0.0178666 0.873021 0.956894
6901 1 0.000979166 0.851243 0.960261
17853 1 0.0109104 0.876958 0.968529
8502 1 0.00316579 0.849416 0.958791
14972 2 0.0204654 0.865164 0.949555
14971 1 0.0230217 0.863691 0.942901
14973 1 0.0187988 0.870733 0.95414
4223 2 0.0350459 0.860593 0.967843
2898 1 0.0433699 0.856886 0.96446
4222 1 0.0412753 0.857823 0.965221
2897 2 0.0497981 0.853668 0.960512
2896 1 0.0557725 0.859021 0.962119
1968 1 0.0210133 0.692933 0.994068
13878 1 0.0603297 0.692261 0.971055
1966 1 0.0209937 0.700337 0.982329
1967 2 0.0194144 0.69867 0.990242
18565 1 0.00242307 0.71698 0.992547
18566 2 0.00987754 0.716735 0.989636
18567 1 0.0167473 0.720142 0.990147
431 2 0.0409905 0.698537 0.979146
432 1 0.0402014 0.705239 0.973985
9783 1 0.0394776 0.707293 0.972319
10847 2 0.0385687 0.719351 0.996451
430 1 0.0428974 0.699596 0.987223
10848 1 0.0436082 0.718 0.990266
10218 1 0.0437248 0.699769 0.990119
10217 3 0.0463523 0.699882 0.99797
13877 2 0.0637998 0.698798 0.97359
13876 1 0.0673511 0.701986 0.980102
12599 2 0.00619804 0.740223 0.984703
15513 1 0.0271214 0.733742 0.971831
19722 1 0.0303454 0.734011 0.971513
15512 2 0.0198779 0.734829 0.974025
12600 1 0.0122053 0.737657 0.980995
15511 1 0.0144422 0.736888 0.979463
1515 1 0.0295588 0.753141 0.972098
1093 1 0.0313046 0.753877 0.973978
1094 2 0.0374343 0.756517 0.978825
6023 2 0.0543566 0.75374 0.986166
6022 1 0.0466023 0.753913 0.983157
1095 1 0.0438009 0.7547 0.981966
6024 1 0.0609521 0.752964 0.990378
20372 2 0.0686641 0.75281 0.996488
20371 1 0.0627985 0.752857 0.991916
7189 1 0.00606289 0.784783 0.980206
12563 2 0.00621331 0.76526 0.975771
20162 2 0.0121695 0.76948 0.992421
12562 1 0.00970347 0.767185 0.982104
20161 1 0.0104152 0.767686 0.984451
1224 1 0.0217656 0.784774 0.978126
20163 1 0.0100498 0.767271 0.999444
11103 1 0.0612642 0.775205 0.982554
15637 1 0.0606869 0.775991 0.979692
15638 2 0.0583008 0.776912 0.972078
11101 1 0.0604916 0.76882 0.997119
20373 1 0.0745161 0.757657 0.999605
11102 2 0.0627874 0.77267 0.990894
3511 1 0.0260193 0.811233 0.999272
16884 1 0.0256839 0.809222 0.996491
16883 2 0.023841 0.804756 0.990091
16882 1 0.0205459 0.80173 0.984362
1223 2 0.019972 0.792409 0.973958
1222 1 0.0183771 0.798815 0.970594
6713 2 0.0770493 0.816949 0.991903
6666 1 0.0625528 0.811769 0.969649
1750 1 0.0745679 0.796769 0.992333
970 1 0.0628555 0.814988 0.970492
20104 1 0.0846427 0.809044 0.992852
1752 1 0.0681159 0.794211 0.978996
1751 2 0.0728431 0.793128 0.985405
20105 2 0.0896955 0.803886 0.995368
6714 1 0.0826868 0.81162 0.992292
10465 1 0.0998626 0.79224 0.973034
14296 1 0.101301 0.79333 0.97576
14297 2 0.105088 0.795955 0.982945
20106 1 0.0974654 0.800402 0.990058
14298 1 0.0994945 0.799298 0.988292
5854 1 0.00424949 0.820515 0.972073
21580 1 0.023112 0.844358 0.997738
17413 1 0.024241 0.841896 0.999917
3079 1 0.0559236 0.831314 0.99834
6712 1 0.0721772 0.822939 0.993746
3081 1 0.0698396 0.824881 0.993903
3080 2 0.0630284 0.82872 0.994413
971 2 0.0648451 0.820974 0.971025
972 1 0.0672913 0.826796 0.974594
14591 2 0.0696602 0.843427 0.974657
14590 1 0.068329 0.84547 0.982795
19690 1 0.0680262 0.846384 0.985692
21581 2 0.02149 0.850897 0.993194
6019 1 0.0087989 0.87712 0.970791
6020 2 0.00260767 0.877502 0.975753
21582 1 0.0214084 0.856976 0.994397
17973 1 0.0210367 0.859631 0.994636
17971 1 0.0154933 0.87391 0.994797
17972 2 0.018208 0.866852 0.994603
6783 1 0.0146021 0.876517 0.994703
1797 1 0.0175324 0.862898 0.980426
4224 1 0.02881 0.861258 0.970789
1795 1 0.0261818 0.861187 0.971498
1796 2 0.0189691 0.85993 0.973271
19691 2 0.0687515 0.849087 0.993301
975 1 0.00346345 0.890602 0.999716
6782 2 0.0122774 0.884179 0.995371
6781 1 0.00599768 0.888578 0.998222
3725 2 0.974194 0.751913 0.00126746
11985 1 0.997678 0.778876 0.00273716
20613 1 0.99542 0.778144 0.0014399
5591 2 0.932467 0.799398 0.0199253
11775 1 0.918121 0.808766 0.00590698
11773 1 0.926408 0.79999 0.0110036
11774 3 0.921453 0.801824 0.00575846
5590 1 0.928151 0.799548 0.0137734
14174 2 0.946427 0.790051 0.0271841
5592 1 0.938688 0.795399 0.0228166
14175 1 0.94085 0.793773 0.0236909
14384 2 0.959084 0.790594 0.0129527
14385 1 0.953647 0.789355 0.019207
14173 1 0.951771 0.789275 0.0212218
14383 1 0.96062 0.791836 0.0056427
16249 1 0.961873 0.792673 0.0024916
974 3 0.998333 0.89564 0.00304007
973 1 0.993187 0.894993 0.00862784
16822 1 0.964936 0.709935 0.900975
16823 2 0.964645 0.715202 0.906863
16824 1 0.968395 0.71883 0.91272
9615 1 0.970139 0.720367 0.914125
9614 3 0.973751 0.72617 0.920263
9613 1 0.976697 0.728655 0.926685
14161 1 0.978203 0.730039 0.929571
14162 2 0.98171 0.733195 0.935806
20579 2 0.987042 0.812661 0.938084
13100 3 0.997306 0.846526 0.932346
13099 1 0.997222 0.83906 0.934816
13018 1 0.997632 0.836121 0.935637
20578 1 0.991296 0.819777 0.936488
13019 2 0.997715 0.828508 0.937417
13020 1 0.99292 0.82229 0.936532
13101 1 0.99663 0.854301 0.933853
5078 3 0.924653 0.885463 0.938645
13439 3 0.924256 0.892014 0.921177
13438 1 0.924276 0.888787 0.927842
5077 1 0.92471 0.88772 0.930371
13440 1 0.922249 0.889841 0.913997
1177 1 0.935496 0.881277 0.938355
5079 1 0.932495 0.882301 0.937861
12243 1 0.991416 0.72548 0.958059
14836 1 0.972967 0.718016 0.949974
14837 2 0.970845 0.723756 0.954091
12242 2 0.989854 0.723292 0.966133
16208 2 0.963914 0.742026 0.950193
16209 1 0.968315 0.74726 0.952341
16207 1 0.958045 0.736724 0.953823
1299 1 0.991922 0.72655 0.955535
1298 2 0.993051 0.730452 0.949154
14163 1 0.987721 0.732476 0.941402
1297 1 0.989557 0.732112 0.943498
14838 1 0.972576 0.726817 0.961296
1017 1 0.994564 0.745594 0.961488
12924 1 0.976484 0.743609 0.967748
15102 1 0.973993 0.743553 0.968746
12922 1 0.991458 0.745142 0.961878
12923 2 0.982524 0.744034 0.964779
13009 1 0.946858 0.769318 0.963768
13011 1 0.9392 0.756129 0.960894
13010 2 0.942517 0.762387 0.964844
14888 2 0.966925 0.766368 0.949513
14889 1 0.968533 0.773075 0.950765
4409 2 0.994629 0.768983 0.945058
5496 1 0.997519 0.765745 0.968977
14887 1 0.969826 0.765248 0.957851
11751 1 0.970705 0.764452 0.960793
11719 1 0.969233 0.775686 0.951561
11720 2 0.971743 0.782621 0.953867
4408 1 0.99346 0.768254 0.952753
5495 2 0.992487 0.767398 0.96231
5494 1 0.993306 0.767946 0.955172
11721 1 0.978829 0.785726 0.954287
11750 2 0.972932 0.763187 0.967669
13094 3 0.941938 0.801345 0.964145
13093 1 0.949288 0.801835 0.960699
2983 1 0.951993 0.80199 0.959815
2984 2 0.959001 0.801361 0.957587
2985 1 0.966459 0.801337 0.955332
625 1 0.981592 0.786765 0.954054
6229 1 0.969067 0.801854 0.954181
626 2 0.990291 0.789221 0.952443
627 1 0.997719 0.787174 0.954605
6230 2 0.976511 0.80388 0.950868
20580 1 0.98295 0.809058 0.94341
6231 1 0.981349 0.807814 0.945128
13006 1 0.946761 0.820349 0.969125
13008 1 0.948347 0.835861 0.969234
10623 1 0.966258 0.841149 0.957439
18657 1 0.964519 0.842843 0.955906
18656 3 0.960394 0.846361 0.951847
14522 2 0.970323 0.819187 0.968856
10622 2 0.971837 0.836549 0.959867
10621 1 0.970463 0.828885 0.962918
14521 1 0.970025 0.826249 0.96415
1179 1 0.947395 0.872126 0.942531
11128 1 0.949768 0.869124 0.943269
18655 1 0.956311 0.852827 0.948388
11129 3 0.95375 0.86262 0.94327
11130 1 0.955179 0.855866 0.946674
6902 2 0.99538 0.855986 0.965508
6903 1 0.988662 0.855645 0.968925
1178 3 0.94295 0.879069 0.940637
14099 3 0.927912 0.74679 0.990675
14100 1 0.923631 0.750634 0.984334
14098 1 0.933868 0.741023 0.990894
9702 1 0.936267 0.739049 0.991084
15101 2 0.966352 0.743229 0.972077
15100 1 0.961109 0.746624 0.977796
9701 2 0.942245 0.733138 0.991002
11952 1 0.954237 0.731186 0.992226
9700 1 0.951006 0.731842 0.992096
19370 2 0.957059 0.751344 0.986505
19371 1 0.959816 0.747628 0.979916
11951 2 0.962557 0.730098 0.993802
3726 1 0.969198 0.755528 0.997228
12598 1 0.998992 0.741558 0.987952
12241 1 0.984331 0.725553 0.972803
4550 2 0.978078 0.726191 0.982748
4549 1 0.982849 0.725832 0.975481
3724 1 0.980853 0.749978 0.998412
14967 1 0.983585 0.749213 0.996964
11950 1 0.970284 0.728555 0.989938
4551 1 0.972644 0.727875 0.988175
14965 1 0.996123 0.742822 0.989663
14966 2 0.989999 0.746343 0.994377
5330 2 0.943218 0.765048 0.986681
5329 1 0.949864 0.759874 0.987382
19369 1 0.951546 0.757536 0.987276
5331 1 0.946564 0.769282 0.981436
11749 1 0.97653 0.76251 0.975402
20612 2 0.989123 0.775359 0.996914
8509 1 0.984606 0.768906 0.989703
2356 1 0.989111 0.786194 0.978776
2357 2 0.981967 0.785846 0.980234
2358 1 0.974545 0.78573 0.978422
8510 2 0.982271 0.763137 0.984659
8511 1 0.978374 0.762683 0.977743
20611 1 0.986007 0.770711 0.992152
12564 1 0.999586 0.764968 0.971049
1019 2 0.936664 0.799991 0.982458
1018 1 0.933002 0.804263 0.98776
747 1 0.967483 0.809322 0.973249
14523 1 0.968414 0.811932 0.971784
1020 1 0.939185 0.800508 0.974724
13095 1 0.940061 0.801042 0.971953
745 1 0.965021 0.800483 0.985857
16251 1 0.964846 0.799128 0.988551
746 2 0.965328 0.803284 0.978929
16250 2 0.963817 0.795809 0.99587
7190 2 0.999336 0.789208 0.978627
7191 1 0.992165 0.786807 0.97858
13007 2 0.948579 0.827433 0.970213
6510 1 0.959135 0.866113 0.987873
6509 3 0.965766 0.8643 0.985605
281 2 0.979716 0.853846 0.975247
280 1 0.973712 0.858705 0.978735
6508 1 0.971785 0.860083 0.980058
282 1 0.986012 0.855424 0.97075
6021 1 0.995631 0.881578 0.978408
