ITEM: TIMESTEP
35000000
ITEM: NUMBER OF ENTRIES
1883
ITEM: BOX BOUNDS pp pp pp
0 50
0 50
0 50
ITEM: ENTRIES c_binfo[1] c_binfo[2] c_binfo[3] 
1 2952 9244 
3 2951 2952 
3 11374 11375 
3 11375 11376 
2 8566 8567 
2 8567 8568 
2 4883 4884 
2 16610 16611 
2 16609 16610 
1 16609 17031 
2 9245 9246 
2 9244 9245 
1 4884 9246 
2 13127 13128 
2 13126 13127 
2 9217 9218 
2 9218 9219 
1 3855 11376 
2 3854 3855 
2 12670 12671 
1 12670 16083 
2 12671 12672 
1 8085 12672 
2 9160 9161 
2 17030 17031 
1 14136 17029 
2 17029 17030 
1 2565 9162 
2 2564 2565 
2 9161 9162 
2 14135 14136 
2 2018 2019 
1 2019 20868 
2 5837 5838 
2 20867 20868 
2 1126 1127 
1 1126 5838 
2 1127 1128 
2 20866 20867 
2 5836 5837 
2 18928 18929 
1 13128 18928 
2 14701 14702 
2 14702 14703 
2 18929 18930 
1 13290 18930 
2 18637 18638 
2 18638 18639 
2 13289 13290 
1 9219 21379 
2 2449 2450 
1 2449 18637 
2 5753 5754 
2 2450 2451 
1 2451 5754 
2 5752 5753 
1 5752 7977 
2 21379 21380 
2 8869 8870 
1 8869 17944 
2 17944 17945 
2 17945 17946 
2 8084 8085 
2 11038 11039 
1 11038 17946 
2 8083 8084 
2 8870 8871 
2 2563 2564 
2 16580 16581 
2 16579 16580 
2 11696 11697 
2 16868 16869 
2 7024 7025 
1 7024 9319 
2 9319 9320 
2 9320 9321 
1 9321 11697 
2 718 719 
2 719 720 
2 3248 3249 
2 3247 3248 
2 3787 3788 
1 3787 14703 
2 2260 2261 
1 2260 3789 
2 5122 5123 
2 5123 5124 
1 2886 5124 
2 2885 2886 
1 15099 17121 
2 9620 9621 
1 9621 15097 
2 15098 15099 
2 15097 15098 
2 17119 17120 
1 17119 17878 
2 17878 17879 
2 17120 17121 
2 11039 11040 
2 16802 16803 
2 16801 16802 
1 16801 17406 
1 11040 14463 
2 14462 14463 
2 14461 14462 
2 4199 4200 
1 4200 19926 
2 4198 4199 
1 4198 10926 
2 16111 16112 
1 16111 16600 
2 16600 16601 
1 16113 16869 
2 10925 10926 
2 16112 16113 
2 10924 10925 
1 10924 21454 
2 21454 21455 
1 2370 18708 
2 18707 18708 
2 8894 8895 
2 18232 18233 
1 8895 18232 
2 8893 8894 
1 8893 18706 
2 18706 18707 
2 283 284 
1 283 16684 
2 16684 16685 
2 21455 21456 
2 13045 13046 
1 6417 13045 
2 6416 6417 
1 2262 13047 
2 13046 13047 
2 6415 6416 
1 2484 6415 
2 2369 2370 
2 2368 2369 
1 1047 2368 
1 285 19920 
2 284 285 
2 2884 2885 
2 13537 13538 
1 13539 14274 
2 13538 13539 
2 18575 18576 
2 18574 18575 
1 3231 18574 
2 3230 3231 
2 3229 3230 
1 3229 3393 
1 11841 13537 
2 7795 7796 
2 7796 7797 
1 7797 20146 
2 10481 10482 
1 10482 14461 
2 10480 10481 
2 5134 5135 
1 5134 10056 
2 10055 10056 
2 19922 19923 
2 5135 5136 
2 851 852 
2 18233 18234 
1 10275 18234 
2 10273 10274 
1 852 18346 
2 10054 10055 
2 10274 10275 
2 7816 7817 
1 7816 10054 
2 7817 7818 
2 83 84 
1 7818 9255 
2 850 851 
2 18346 18347 
2 18347 18348 
1 312 16353 
2 3065 3066 
2 3064 3065 
2 2483 2484 
2 2482 2483 
1 2482 3064 
1 3066 3768 
2 82 83 
1 82 20188 
2 20188 20189 
2 10165 10166 
1 10165 18631 
1 4542 18633 
2 18632 18633 
2 18631 18632 
2 9863 9864 
2 4541 4542 
2 14467 14468 
1 891 14467 
2 14468 14469 
2 13169 13170 
2 3448 3449 
1 3448 18576 
1 3450 9864 
2 3449 3450 
1 13170 14469 
2 20147 20148 
2 20146 20147 
2 8152 8153 
2 7751 7752 
1 7053 8152 
2 8153 8154 
2 7051 7052 
1 7051 19923 
2 7052 7053 
1 19173 20479 
2 20479 20480 
2 20480 20481 
1 19155 20481 
2 19154 19155 
2 7271 7272 
2 5401 5402 
1 5401 7272 
2 19172 19173 
2 20519 20520 
2 20518 20519 
2 5402 5403 
1 12237 21057 
2 3766 3767 
2 16352 16353 
2 9157 9158 
1 9157 16351 
2 16351 16352 
2 9158 9159 
2 985 986 
1 985 9159 
2 3767 3768 
2 4540 4541 
1 4540 14437 
2 9862 9863 
1 9862 11398 
2 11399 11400 
2 11398 11399 
2 5165 5166 
2 14437 14438 
2 5164 5165 
2 18338 18339 
2 4930 4931 
1 4930 21157 
1 4932 13146 
2 4931 4932 
3 21157 21158 
3 21158 21159 
2 18337 18338 
2 7750 7751 
2 21055 21056 
3 568 569 
1 568 21055 
2 21056 21057 
3 569 570 
1 570 17163 
2 986 987 
2 18173 18174 
2 18172 18173 
2 1489 1490 
1 1489 18172 
2 2120 2121 
2 2119 2120 
2 1490 1491 
1 1491 10518 
2 4255 4256 
1 4255 17835 
1 4257 5166 
2 18742 18743 
2 4256 4257 
1 1776 18742 
2 1775 1776 
2 10880 10881 
1 2760 7437 
3 7436 7437 
3 2759 2760 
3 2758 2759 
1 2758 13503 
3 7435 7436 
1 2427 7435 
2 2425 2426 
1 2425 17311 
2 2426 2427 
2 14429 14430 
2 17311 17312 
2 17312 17313 
2 15335 15336 
1 17313 19566 
2 10517 10518 
2 11717 11718 
2 11716 11717 
2 10516 10517 
1 10516 11716 
1 4485 11718 
3 6857 6858 
2 4484 4485 
2 4483 4484 
1 4483 6858 
2 9845 9846 
2 4882 4883 
2 1321 1322 
1 1321 9846 
2 1322 1323 
2 10315 10316 
1 8946 10315 
2 10316 10317 
2 15208 15209 
2 15209 15210 
3 16304 16305 
3 16303 16304 
2 3853 3854 
1 3853 20149 
2 16081 16082 
1 16081 16305 
2 14596 14597 
2 14597 14598 
1 7137 14596 
2 7136 7137 
2 16082 16083 
2 20149 20150 
2 20150 20151 
2 2017 2018 
2 325 326 
1 325 2017 
1 4584 20151 
2 326 327 
2 11176 11177 
1 327 11176 
2 11177 11178 
2 4583 4584 
2 4582 4583 
1 4582 17071 
2 17071 17072 
2 17072 17073 
1 1128 19414 
2 19415 19416 
2 19414 19415 
2 8128 8129 
1 8128 14860 
2 14860 14861 
1 13368 19416 
2 8129 8130 
1 19578 21381 
2 13367 13368 
2 13366 13367 
1 13366 19576 
2 19576 19577 
1 17895 18639 
2 17894 17895 
2 18812 18813 
2 17893 17894 
1 17893 18811 
2 18811 18812 
2 19577 19578 
2 21220 21221 
2 21380 21381 
1 14127 21220 
2 14126 14127 
2 14125 14126 
1 14125 15454 
2 15454 15455 
2 21221 21222 
2 7135 7136 
2 6013 6014 
2 6014 6015 
2 14300 14301 
1 42 7135 
1 6207 14301 
2 6206 6207 
2 41 42 
2 9466 9467 
1 9466 16581 
2 20263 20264 
2 13381 13382 
1 13381 20263 
1 13383 16602 
2 13382 13383 
2 14861 14862 
1 1938 14862 
2 11695 11696 
1 1857 11695 
2 1856 1857 
2 1937 1938 
2 1855 1856 
1 1855 17695 
2 17695 17696 
2 17696 17697 
2 3788 3789 
2 1936 1937 
1 1936 15930 
2 6470 6471 
2 17879 17880 
2 9619 9620 
1 5373 9619 
2 15455 15456 
2 5372 5373 
2 5371 5372 
1 5371 15456 
2 5500 5501 
2 3391 3392 
1 3391 5500 
2 3392 3393 
2 5501 5502 
1 5502 16411 
2 16411 16412 
2 2738 2739 
2 6205 6206 
2 637 638 
1 637 19924 
2 638 639 
1 639 2737 
2 2737 2738 
2 19924 19925 
2 19925 19926 
2 16601 16602 
2 9467 9468 
2 3574 3575 
1 3574 9996 
2 3575 3576 
2 15928 15929 
2 9995 9996 
2 9994 9995 
1 14283 15928 
2 14281 14282 
2 14282 14283 
2 6634 6635 
1 6634 14281 
2 6635 6636 
2 2261 2262 
2 15929 15930 
2 19919 19920 
2 11108 11109 
1 9411 11107 
2 11107 11108 
2 19918 19919 
2 2414 2415 
2 2413 2414 
1 2413 11580 
2 11579 11580 
2 11578 11579 
1 11578 13914 
2 760 761 
1 760 21027 
2 21026 21027 
2 21025 21026 
1 2739 21025 
2 761 762 
2 9454 9455 
1 5136 9454 
1 9456 21408 
2 9455 9456 
2 21407 21408 
2 4640 4641 
1 3576 5991 
1 4641 5989 
2 5989 5990 
2 5990 5991 
2 11842 11843 
1 11842 20328 
2 6388 6389 
1 2559 6388 
2 20327 20328 
2 6389 6390 
2 311 312 
2 310 311 
1 310 16686 
2 16685 16686 
1 6636 20494 
2 20494 20495 
2 20326 20327 
1 20326 20496 
2 20495 20496 
2 8185 8186 
2 8186 8187 
1 8187 9409 
2 21475 21476 
2 9409 9410 
2 9410 9411 
1 8859 21475 
2 8858 8859 
2 3959 3960 
2 890 891 
2 17117 17118 
2 3958 3959 
1 3958 6195 
2 6193 6194 
1 6193 8857 
2 8857 8858 
2 6194 6195 
2 21251 21252 
2 4891 4892 
1 4891 21252 
2 889 890 
1 889 17118 
3 3653 3654 
3 3652 3653 
2 623 624 
2 622 623 
1 622 3652 
1 762 4609 
2 4609 4610 
1 8064 8154 
2 8063 8064 
1 624 8062 
2 8062 8063 
2 16679 16680 
2 16678 16679 
2 1396 1397 
2 1397 1398 
2 7270 7271 
1 1398 7270 
2 11309 11310 
1 11310 16167 
2 12235 12236 
2 4639 4640 
2 4610 4611 
1 4611 11560 
2 11560 11561 
2 11308 11309 
1 11308 16908 
2 11843 11844 
1 5403 11844 
1 5499 13281 
2 13280 13281 
2 12236 12237 
2 5498 5499 
2 5497 5498 
1 5497 12046 
2 12046 12047 
2 13279 13280 
2 1723 1724 
1 1723 13279 
1 8178 8185 
2 14438 14439 
1 1725 14439 
2 1724 1725 
2 8176 8177 
2 8177 8178 
2 5723 5724 
2 2557 2558 
1 2557 19014 
2 19012 19013 
2 19013 19014 
2 21476 21477 
2 12898 12899 
1 12898 21477 
2 12899 12900 
2 4892 4893 
2 2899 2900 
1 2899 12900 
1 16506 17116 
2 17116 17117 
2 13145 13146 
2 13144 13145 
1 13144 21250 
2 21250 21251 
2 5621 5622 
2 9139 9140 
1 9139 16678 
2 9140 9141 
3 5744 5745 
1 9141 19153 
2 19153 19154 
2 16166 16167 
2 16165 16166 
2 14308 14309 
1 14308 16165 
2 14309 14310 
1 2127 14428 
2 2126 2127 
2 8761 8762 
2 3673 3674 
1 3673 8761 
2 3674 3675 
2 2125 2126 
1 2125 3675 
2 14569 14570 
2 14570 14571 
1 2121 16578 
1 5724 16576 
2 16577 16578 
2 16576 16577 
1 2778 10863 
2 10862 10863 
2 10861 10862 
2 18743 18744 
2 2777 2778 
2 1774 1775 
1 1774 2776 
2 2776 2777 
2 2900 2901 
2 11090 11091 
2 11089 11090 
1 2901 11089 
2 3916 3917 
1 3916 11091 
2 3917 3918 
3 17503 17504 
2 10879 10880 
1 10879 17503 
1 3567 5622 
2 3566 3567 
2 5620 5621 
1 5620 18744 
2 3281 3282 
2 3280 3281 
1 1557 3280 
3 17504 17505 
3 1556 1557 
3 10213 10214 
1 10213 14310 
3 10214 10215 
2 14428 14429 
2 11366 11367 
3 1672 1673 
1 1672 11367 
2 11501 11502 
2 11500 11501 
2 12698 12699 
2 12697 12698 
2 1252 1253 
1 1252 12699 
2 3035 3036 
2 8108 8109 
2 8107 8108 
2 3034 3035 
1 3034 8109 
1 1584 17505 
3 1583 1584 
3 1582 1583 
1 1582 9412 
3 9412 9413 
3 1673 1674 
2 1453 1454 
1 1453 1674 
2 15334 15335 
3 9413 9414 
3 7408 7409 
3 7409 7410 
2 9844 9845 
2 13651 13652 
2 13652 13653 
2 8944 8945 
1 8944 20574 
2 8945 8946 
2 20573 20574 
2 20572 20573 
2 11498 11499 
2 1324 1325 
1 1324 11497 
2 11497 11498 
2 1325 1326 
2 18101 18102 
2 18100 18101 
1 1326 14568 
1 7575 15210 
2 7574 7575 
2 9400 9401 
2 9401 9402 
2 5812 5813 
1 5812 9402 
1 5814 7410 
2 5813 5814 
1 12717 15919 
2 15919 15920 
2 12715 12716 
1 12715 21270 
2 12716 12717 
2 3847 3848 
1 3847 11178 
2 3848 3849 
1 3849 11593 
2 11593 11594 
1 9099 17073 
2 11594 11595 
2 8503 8504 
1 8503 11595 
2 8504 8505 
1 8505 14322 
2 14567 14568 
2 5359 5360 
1 5359 18100 
2 14321 14322 
1 5361 18813 
2 5360 5361 
2 19903 19904 
2 19904 19905 
1 16902 19905 
2 7297 7298 
1 7297 19903 
2 14566 14567 
2 7573 7574 
1 4356 7573 
1 5781 14566 
2 5780 5781 
2 4355 4356 
2 4354 4355 
1 4354 19143 
2 19142 19143 
2 21269 21270 
1 1530 14299 
2 40 41 
1 40 3783 
1 10611 15390 
2 14299 14300 
2 15389 15390 
2 15388 15389 
1 15388 19741 
2 19741 19742 
1 15000 20265 
2 14999 15000 
2 20264 20265 
2 21268 21269 
2 14998 14999 
1 14998 21268 
2 20116 20117 
2 19009 19010 
1 19009 20116 
2 19010 19011 
2 20117 20118 
2 1529 1530 
2 1528 1529 
1 1528 14890 
2 14890 14891 
2 14891 14892 
2 9098 9099 
2 9097 9098 
1 9097 17155 
2 17155 17156 
2 17156 17157 
2 14668 14669 
1 14668 19011 
2 1870 1871 
1 1870 10519 
2 10519 10520 
1 5379 17157 
2 1871 1872 
1 4716 6471 
2 14320 14321 
2 10520 10521 
2 5863 5864 
1 5863 14320 
2 5864 5865 
1 7299 10521 
1 5865 6469 
2 6469 6470 
1 15546 16719 
2 5378 5379 
2 15545 15546 
2 5377 5378 
1 5377 14854 
2 7298 7299 
2 5779 5780 
1 5779 16717 
2 16717 16718 
2 16718 16719 
2 4715 4716 
2 16412 16413 
2 16904 16905 
2 16903 16904 
3 610 611 
3 611 612 
1 612 10563 
2 10934 10935 
2 10933 10934 
3 10562 10563 
2 7790 7791 
1 7791 10561 
3 10561 10562 
2 3782 3783 
2 3781 3782 
1 3781 10935 
2 7789 7790 
2 19742 19743 
2 9628 9629 
1 9628 19743 
2 3044 3045 
2 3043 3044 
1 3043 15186 
2 232 233 
2 233 234 
2 9629 9630 
2 12544 12545 
1 9630 12544 
2 12545 12546 
2 14935 14936 
1 14935 20118 
2 14936 14937 
2 10678 10679 
1 10678 12546 
1 6972 14937 
2 6971 6972 
1 1872 10680 
2 8440 8441 
1 8440 17697 
2 8441 8442 
1 8442 13149 
2 13148 13149 
2 10679 10680 
2 13147 13148 
2 15544 15545 
2 9571 9572 
1 9571 15544 
2 14854 14855 
2 14855 14856 
1 14856 16338 
2 16337 16338 
2 9572 9573 
2 16336 16337 
1 16336 21373 
2 10792 10793 
2 15001 15002 
1 15001 15349 
1 1065 10792 
2 3412 3413 
1 3412 16905 
2 3413 3414 
2 4714 4715 
1 4714 10794 
2 10793 10794 
1 3414 13912 
2 13912 13913 
2 13913 13914 
2 15350 15351 
2 15349 15350 
1 10773 10933 
2 10772 10773 
2 10771 10772 
1 10771 13807 
2 14204 14205 
2 14203 14204 
2 13808 13809 
2 13807 13808 
2 21406 21407 
2 10037 10038 
2 9304 9305 
1 9304 10038 
2 2582 2583 
2 15185 15186 
2 15184 15185 
1 6390 15184 
1 2583 18483 
1 15963 16710 
2 2581 2582 
2 15962 15963 
2 6970 6971 
1 6970 21394 
2 21394 21395 
2 21395 21396 
2 16828 16829 
1 16828 21396 
2 16829 16830 
1 16830 21121 
2 2558 2559 
1 3792 13147 
2 21121 21122 
2 21122 21123 
2 21373 21374 
2 6862 6863 
1 6862 21123 
2 21374 21375 
2 6863 6864 
2 16504 16505 
1 6981 13131 
1 2268 12850 
2 2267 2268 
2 13130 13131 
1 6864 13129 
2 13129 13130 
2 12851 12852 
2 12850 12851 
2 2266 2267 
2 6979 6980 
1 6979 9330 
2 6980 6981 
1 10800 13809 
2 10036 10037 
1 10036 16906 
2 16906 16907 
2 16907 16908 
2 11561 11562 
2 10799 10800 
2 10798 10799 
1 2568 10798 
2 2567 2568 
2 20807 20808 
2 18724 18725 
1 18724 20808 
2 18482 18483 
2 20806 20807 
2 18481 18482 
1 12048 18481 
2 12047 12048 
2 10958 10959 
1 8181 16708 
2 16709 16710 
2 16708 16709 
2 8179 8180 
2 8180 8181 
2 20624 20625 
2 7063 7064 
1 7063 20625 
2 7064 7065 
1 486 7065 
2 14990 14991 
2 8590 8591 
2 8591 8592 
3 17704 17705 
3 17705 17706 
2 9032 9033 
1 8577 14991 
2 16505 16506 
2 7387 7388 
1 7387 17704 
2 11723 11724 
3 5743 5744 
1 5743 6105 
2 11722 11723 
2 6104 6105 
2 4102 4103 
1 4102 6103 
2 6103 6104 
2 16565 16566 
2 4103 4104 
2 16564 16565 
2 8762 8763 
2 2566 2567 
1 2566 9120 
2 9119 9120 
2 9118 9119 
2 18725 18726 
1 8763 18726 
2 21167 21168 
1 8067 16857 
2 10957 10958 
1 10957 21166 
2 21166 21167 
2 8066 8067 
2 8065 8066 
1 1041 8065 
2 9541 9542 
1 9541 14571 
2 10109 10110 
2 5722 5723 
2 9542 9543 
2 1828 1829 
1 1828 5722 
2 1829 1830 
1 1830 2599 
2 2599 2600 
1 4221 9543 
2 10108 10109 
1 10108 11712 
2 11711 11712 
2 2600 2601 
2 10543 10544 
2 20623 20624 
2 14989 14990 
2 10544 10545 
1 10545 14989 
2 11710 11711 
2 11431 11432 
1 11431 11710 
2 11432 11433 
2 9031 9032 
3 1555 1556 
1 1555 19638 
1 17706 19872 
3 19871 19872 
3 19870 19871 
1 19870 21426 
3 21425 21426 
3 21424 21425 
2 11365 11366 
2 1039 1040 
1 1039 11365 
2 1040 1041 
2 4219 4220 
1 4219 8191 
2 8191 8192 
2 8192 8193 
2 4220 4221 
2 1253 1254 
1 8355 12943 
3 8354 8355 
1 2181 8353 
3 12943 12944 
3 16969 16970 
3 8353 8354 
2 1454 1455 
1 8118 8193 
1 1455 1537 
3 1537 1538 
2 8117 8118 
2 8116 8117 
2 12658 12659 
2 12659 12660 
3 16970 16971 
3 1538 1539 
3 13562 13563 
3 13561 13562 
3 12461 12462 
1 7578 12462 
3 7577 7578 
3 7576 7577 
1 7576 18564 
1 1527 12460 
3 12460 12461 
3 12566 12567 
3 12565 12566 
1 12565 16896 
2 16895 16896 
2 11303 11304 
2 11302 11303 
2 16894 16895 
1 16894 17647 
2 17647 17648 
2 17648 17649 
2 16900 16901 
2 15920 15921 
2 18563 18564 
2 18562 18563 
1 15921 18562 
2 13330 13331 
1 11304 13330 
2 13331 13332 
2 14669 14670 
1 14670 19746 
1 17649 19464 
2 19462 19463 
2 19463 19464 
2 19745 19746 
2 2654 2655 
1 2655 4053 
2 2653 2654 
1 2653 11680 
2 11681 11682 
2 11680 11681 
2 4052 4053 
2 4051 4052 
1 4051 18102 
2 19744 19745 
1 19275 19744 
2 19274 19275 
2 19273 19274 
3 2114 2115 
2 16901 16902 
2 10610 10611 
2 10609 10610 
1 10609 15369 
2 6290 6291 
2 15368 15369 
2 15367 15368 
2 6289 6290 
1 6289 15367 
1 3411 14892 
2 3410 3411 
2 13136 13137 
2 13135 13136 
2 14816 14817 
2 7187 7188 
2 10805 10806 
2 10804 10805 
2 16325 16326 
2 16324 16325 
1 3936 7188 
2 3935 3936 
2 19141 19142 
2 3934 3935 
1 3934 19141 
2 8305 8306 
1 8305 16903 
2 8306 8307 
1 8307 16324 
2 12244 12245 
2 12245 12246 
2 4340 4341 
2 4339 4340 
2 3409 3410 
1 3409 18045 
2 18043 18044 
1 5172 18043 
2 5171 5172 
2 18044 18045 
1 2517 14815 
2 14815 14816 
2 2516 2517 
2 18152 18153 
2 2515 2516 
2 21313 21314 
2 18151 18152 
1 18151 21313 
2 7228 7229 
1 7228 9573 
2 15361 15362 
1 15361 18153 
2 15362 15363 
2 7186 7187 
1 7186 15363 
2 7229 7230 
1 7230 7984 
2 7984 7985 
2 7985 7986 
1 7986 9568 
2 9568 9569 
2 9569 9570 
1 9336 9570 
1 4341 14205 
2 18848 18849 
2 9305 9306 
2 5170 5171 
1 5170 6408 
2 6407 6408 
2 6406 6407 
1 6406 15961 
2 18847 18848 
2 12775 12776 
1 12775 18847 
2 15961 15962 
2 12776 12777 
2 18680 18681 
2 3790 3791 
1 3790 18681 
2 3791 3792 
1 4671 18679 
2 18679 18680 
2 6005 6006 
2 12868 12869 
1 12868 21375 
2 12869 12870 
1 12870 19665 
2 6004 6005 
1 6004 11016 
2 11015 11016 
2 484 485 
1 484 11014 
2 11014 11015 
2 15038 15039 
2 15037 15038 
2 19663 19664 
2 19664 19665 
2 5506 5507 
2 5507 5508 
1 10959 20052 
2 21263 21264 
2 17827 17828 
1 12777 17829 
2 17828 17829 
2 3341 3342 
2 16855 16856 
1 16855 21262 
2 21262 21263 
2 20051 20052 
2 3340 3341 
1 3340 6822 
2 6821 6822 
2 20050 20051 
2 3050 3051 
2 3049 3050 
1 3049 20050 
2 6820 6821 
1 3051 10110 
2 21295 21296 
2 14765 14766 
2 14764 14765 
2 485 486 
2 21296 21297 
3 6253 6254 
2 8576 8577 
2 8575 8576 
1 8575 14409 
3 14408 14409 
1 5508 20649 
2 20648 20649 
2 20647 20648 
1 5859 20647 
2 367 368 
1 367 14730 
2 16856 16857 
2 368 369 
2 1214 1215 
1 369 1215 
1 2601 2827 
2 2827 2828 
2 2828 2829 
1 2829 13062 
3 13061 13062 
1 11433 16866 
3 16865 16866 
1 20019 21297 
2 20018 20019 
2 20017 20018 
1 20017 21163 
3 9875 9876 
3 14407 14408 
3 2815 2816 
1 2815 14407 
3 19175 19176 
1 348 19176 
3 347 348 
3 16864 16865 
3 19174 19175 
3 346 347 
2 8609 8610 
2 8608 8609 
2 1213 1214 
1 1213 13005 
2 13004 13005 
2 13003 13004 
2 12028 12029 
3 8612 8613 
2 12029 12030 
3 8611 8612 
1 8611 12030 
3 21527 21528 
3 21526 21527 
3 17303 17304 
1 6927 10431 
3 17302 17303 
3 10993 10994 
1 10993 17302 
1 9720 10995 
2 9719 9720 
2 9718 9719 
3 6926 6927 
3 6925 6926 
1 6925 9718 
3 10994 10995 
3 14680 14681 
3 14681 14682 
2 5695 5696 
1 5695 14682 
2 5696 5697 
2 11944 11945 
1 5697 11944 
2 11945 11946 
1 11946 19080 
3 19078 19079 
3 19079 19080 
3 4315 4316 
1 4315 13563 
3 4316 4317 
1 4317 12567 
3 1526 1527 
3 1525 1526 
1 3837 16326 
2 13568 13569 
2 13567 13568 
2 21314 21315 
3 10021 10022 
1 10021 18849 
3 10022 10023 
2 4669 4670 
2 4670 4671 
2 14729 14730 
1 3816 14728 
2 14728 14729 
2 3814 3815 
1 3814 14766 
2 3815 3816 
3 15583 15584 
3 21299 21300 
3 15584 15585 
3 21298 21299 
1 15585 21298 
2 5858 5859 
2 5857 5858 
2 1441 1442 
1 1441 5857 
2 1442 1443 
3 13060 13061 
3 21163 21164 
3 21164 21165 
1 12387 21165 
3 12386 12387 
3 9484 9485 
3 12385 12386 
2 3116 3117 
2 3115 3116 
1 3115 21382 
2 21382 21383 
2 21383 21384 
2 14755 14756 
2 12853 12854 
1 12853 14755 
2 12854 12855 
2 14756 14757 
1 14757 15976 
2 1307 1308 
2 1306 1307 
1 1306 11967 
2 11966 11967 
2 8095 8096 
2 5381 5382 
2 5380 5381 
1 5380 8097 
2 8096 8097 
2 17366 17367 
2 17365 17366 
2 17918 17919 
2 17917 17918 
2 13351 13352 
1 13351 17917 
2 13352 13353 
1 13353 17352 
2 17351 17352 
2 19211 19212 
1 582 19210 
2 19210 19211 
2 581 582 
2 580 581 
1 580 19005 
2 17671 17672 
1 17671 19212 
2 17672 17673 
2 7879 7880 
2 7880 7881 
2 11281 11282 
1 11281 14341 
2 14341 14342 
2 11282 11283 
2 18434 18435 
2 18433 18434 
2 9440 9441 
2 9439 9440 
1 9439 18433 
1 6192 17919 
2 19004 19005 
2 20080 20081 
2 20081 20082 
3 13846 13847 
1 13846 14343 
2 14342 14343 
2 6386 6387 
1 6387 9441 
3 12218 12219 
3 2950 2951 
3 21241 21242 
3 21242 21243 
1 522 21243 
2 14134 14135 
2 520 521 
1 520 14134 
2 521 522 
2 748 749 
1 748 5836 
2 7394 7395 
2 17183 17184 
2 17182 17183 
1 7395 17182 
2 7393 7394 
1 7393 20866 
2 749 750 
2 13777 13778 
2 13778 13779 
1 13779 19282 
2 16850 16851 
2 19282 19283 
2 16849 16850 
2 13288 13289 
1 13288 16849 
3 8623 8624 
1 8625 15978 
2 15977 15978 
2 15976 15977 
3 8624 8625 
3 3478 3479 
1 3478 8083 
2 922 923 
1 922 1308 
1 8871 12064 
2 12064 12065 
2 923 924 
3 3479 3480 
1 924 3480 
2 12065 12066 
2 16867 16868 
1 16867 17839 
2 17840 17841 
2 11965 11966 
1 11965 17841 
2 17839 17840 
1 5382 17184 
1 7026 18846 
2 18845 18846 
2 18844 18845 
1 14721 18844 
2 7025 7026 
1 720 19284 
2 14719 14720 
1 14719 17673 
2 14720 14721 
2 20743 20744 
2 1045 1046 
1 1045 20743 
2 19283 19284 
2 20744 20745 
2 13210 13211 
2 11840 11841 
2 4201 4202 
2 11839 11840 
1 11839 13212 
2 11077 11078 
1 11077 16851 
2 11078 11079 
2 4261 4262 
1 4261 13210 
2 4262 4263 
1 4263 11079 
3 12674 12675 
2 17405 17406 
2 16349 16350 
2 16348 16349 
2 13525 13526 
1 13525 16348 
2 13526 13527 
2 17404 17405 
2 13138 13139 
1 13138 13527 
2 13139 13140 
2 2479 2480 
1 2479 13140 
2 2480 2481 
1 2481 18640 
2 17350 17351 
1 2487 17350 
2 18640 18641 
2 2486 2487 
2 2485 2486 
1 2485 3445 
2 3445 3446 
2 3446 3447 
2 12173 12174 
2 12172 12173 
1 12172 14272 
2 1046 1047 
2 6035 6036 
2 6034 6035 
1 6034 12174 
1 6036 6178 
2 14273 14274 
2 4202 4203 
1 4203 7881 
2 14272 14273 
2 976 977 
1 976 7113 
2 7112 7113 
2 17597 17598 
3 12673 12674 
1 12673 17598 
2 17596 17597 
1 17596 17628 
2 17626 17627 
1 16350 17626 
2 19921 19922 
2 17627 17628 
2 11059 11060 
1 11059 19921 
2 11060 11061 
2 19003 19004 
2 12400 12401 
1 12400 19003 
2 781 782 
1 781 850 
2 6191 6192 
2 6190 6191 
1 783 6190 
2 12401 12402 
2 9253 9254 
1 9253 12402 
2 782 783 
2 9254 9255 
2 18641 18642 
1 18642 20190 
2 20189 20190 
2 6179 6180 
2 10166 10167 
3 1201 1202 
1 1201 10167 
2 6178 6179 
2 6224 6225 
1 1203 20082 
2 13168 13169 
2 7111 7112 
1 7111 13168 
3 1202 1203 
2 19171 19172 
2 18953 18954 
2 12784 12785 
1 12784 18952 
2 18952 18953 
2 6385 6386 
1 6385 19191 
2 12785 12786 
2 19190 19191 
2 19189 19190 
2 6223 6224 
3 784 785 
1 786 21159 
3 785 786 
3 13501 13502 
3 13502 13503 
3 17162 17163 
3 17161 17162 
1 17161 18174 
1 12786 14434 
3 14434 14435 
2 577 578 
1 577 14436 
3 14435 14436 
2 578 579 
2 17834 17835 
2 17833 17834 
3 12217 12218 
1 579 12217 
2 12988 12989 
1 12988 17833 
2 12989 12990 
2 19564 19565 
1 12990 19564 
2 19565 19566 
2 4082 4083 
2 4081 4082 
2 13745 13746 
2 13744 13745 
1 4083 13744 
1 11685 13746 
2 4529 4530 
2 7976 7977 
2 14792 14793 
1 11910 14793 
2 11909 11910 
2 11908 11909 
2 8452 8453 
1 8452 15429 
2 8453 8454 
2 15428 15429 
2 11684 11685 
2 11683 11684 
2 16558 16559 
2 14791 14792 
1 14791 16558 
2 9239 9240 
2 3991 3992 
1 3991 9240 
2 1495 1496 
1 1495 9238 
2 9238 9239 
2 16559 16560 
2 376 377 
1 376 15427 
2 15427 15428 
2 377 378 
2 2785 2786 
1 2785 5469 
2 2786 2787 
2 5468 5469 
1 378 16789 
2 16789 16790 
2 6589 6590 
2 6590 6591 
2 10246 10247 
1 10246 15748 
2 10247 10248 
2 3992 3993 
2 19495 19496 
1 10248 19497 
2 19496 19497 
2 19427 19428 
2 19426 19427 
1 2520 19426 
2 15748 15749 
2 15749 15750 
3 2519 2520 
3 2518 2519 
1 2518 6040 
3 6040 6041 
1 18339 19428 
2 4385 4386 
2 4384 4385 
1 4384 8787 
3 15925 15926 
3 9602 9603 
3 6856 6857 
1 996 6856 
1 9603 15925 
2 10624 10625 
2 4528 4529 
1 4528 21222 
2 845 846 
1 846 19029 
2 19028 19029 
2 844 845 
1 10626 20062 
2 10625 10626 
2 20063 20064 
2 20062 20063 
2 5890 5891 
1 5890 11683 
2 5891 5892 
1 5892 16843 
2 16843 16844 
2 19027 19028 
1 19027 19075 
2 19075 19076 
2 19076 19077 
2 19477 19478 
2 19478 19479 
1 12723 19479 
2 12722 12723 
2 12721 12722 
1 12721 18561 
2 16844 16845 
2 12767 12768 
2 1063 1064 
1 1063 16845 
2 16790 16791 
1 3993 6676 
2 6676 6677 
2 6677 6678 
2 2824 2825 
1 2824 6678 
2 9664 9665 
2 9665 9666 
2 3730 3731 
1 3730 9666 
1 3960 12768 
2 3731 3732 
2 3952 3953 
2 3953 3954 
1 5208 5709 
3 5207 5208 
2 5708 5709 
3 5206 5207 
3 8786 8787 
3 8785 8786 
3 3235 3236 
1 3235 8785 
3 3236 3237 
2 3565 3566 
1 3565 4773 
3 4772 4773 
3 15926 15927 
1 11448 15927 
3 11447 11448 
3 11446 11447 
2 5707 5708 
1 5707 11446 
3 9601 9602 
3 994 995 
1 994 9601 
3 995 996 
3 8659 8660 
3 8660 8661 
1 8448 14358 
3 2179 2180 
1 2179 8661 
3 8447 8448 
3 3557 3558 
3 3556 3557 
3 14356 14357 
3 14357 14358 
2 13973 13974 
2 13972 13973 
2 21202 21203 
2 13114 13115 
1 13114 21202 
2 13115 13116 
2 21203 21204 
1 6054 21204 
3 6446 6447 
1 6447 19006 
2 19006 19007 
2 6053 6054 
2 6052 6053 
1 6052 19008 
2 19007 19008 
3 6445 6446 
1 6445 8961 
3 8959 8960 
3 8960 8961 
1 1446 19077 
2 1445 1446 
2 10834 10835 
2 10835 10836 
2 1444 1445 
1 1444 13032 
2 11186 11187 
2 18559 18560 
2 18560 18561 
2 3170 3171 
2 3169 3170 
1 3169 3547 
2 3547 3548 
2 13666 13667 
1 3171 13666 
2 12800 12801 
2 3548 3549 
3 19640 19641 
1 3549 19641 
2 12799 12800 
1 12799 19639 
3 19639 19640 
3 10796 10797 
3 10795 10796 
1 10797 12801 
2 1064 1065 
2 12766 12767 
1 5142 12766 
2 14753 14754 
1 14754 15003 
2 15002 15003 
2 14752 14753 
2 5141 5142 
2 2825 2826 
1 2826 3097 
2 3097 3098 
1 3099 8293 
2 8293 8294 
2 3098 3099 
2 20542 20543 
1 12714 20542 
2 12713 12714 
2 20543 20544 
2 5140 5141 
2 9328 9329 
2 9329 9330 
2 12712 12713 
1 7389 9328 
2 7388 7389 
1 10827 19636 
3 19636 19637 
3 10825 10826 
3 4771 4772 
3 10826 10827 
3 19637 19638 
3 19103 19104 
3 8446 8447 
3 4156 4157 
1 4156 8446 
3 4157 4158 
3 2180 2181 
3 12944 12945 
3 19102 19103 
1 4158 10494 
3 10429 10430 
1 10429 16467 
3 16466 16467 
3 16465 16466 
3 2113 2114 
1 2113 20973 
2 13031 13032 
2 20971 20972 
2 340 341 
1 340 20971 
2 20972 20973 
2 11185 11186 
2 12451 12452 
1 11253 12451 
2 11251 11252 
1 11251 13668 
2 11252 11253 
2 9334 9335 
1 9334 13030 
2 13030 13031 
2 9335 9336 
2 8294 8295 
2 13667 13668 
2 12452 12453 
2 6994 6995 
1 6994 20448 
2 6995 6996 
1 6255 11160 
3 20447 20448 
3 20446 20447 
3 6254 6255 
3 11158 11159 
1 11158 20172 
3 11159 11160 
1 2817 13027 
3 8975 8976 
1 8976 12945 
3 9874 9875 
3 2816 2817 
3 8974 8975 
1 8974 9874 
1 4902 19104 
3 20171 20172 
3 5831 5832 
3 5830 5831 
1 5830 20170 
3 20170 20171 
3 4901 4902 
3 4900 4901 
1 4900 17122 
3 16658 16659 
3 10313 10314 
1 10314 17304 
3 10312 10313 
1 10312 16657 
3 16657 16658 
3 20270 20271 
3 10492 10493 
1 10492 16659 
3 10493 10494 
3 17122 17123 
3 17123 17124 
3 11818 11819 
1 11818 17124 
1 11820 20271 
3 11819 11820 
3 10430 10431 
3 20269 20270 
2 341 342 
2 13849 13850 
1 342 13849 
2 13850 13851 
1 5019 12502 
2 12502 12503 
2 12503 12504 
3 3835 3836 
1 3835 12504 
3 3836 3837 
2 5018 5019 
2 5017 5018 
1 5017 6996 
3 13028 13029 
3 13027 13028 
3 18077 18078 
3 9485 9486 
3 18076 18077 
3 20585 20586 
3 20584 20585 
3 7991 7992 
3 21196 21197 
3 21197 21198 
1 7212 21198 
3 7211 7212 
3 7210 7211 
1 7210 11226 
2 11225 11226 
2 7316 7317 
2 5153 5154 
1 621 5152 
2 5152 5153 
3 13847 13848 
3 619 620 
1 619 20586 
3 620 621 
1 2922 20352 
2 2921 2922 
2 2920 2921 
1 2920 7990 
3 7990 7991 
3 20351 20352 
2 7975 7976 
1 8454 17290 
2 6211 6212 
2 6212 6213 
1 6213 7315 
2 17290 17291 
2 13211 13212 
2 7315 7316 
2 11224 11225 
1 11224 17292 
2 17291 17292 
2 1496 1497 
1 1497 6354 
2 6352 6353 
2 6353 6354 
1 978 6591 
2 977 978 
2 5467 5468 
3 6041 6042 
1 6042 10549 
3 10549 10550 
3 20350 20351 
1 10551 20350 
3 10550 10551 
