ITEM: TIMESTEP
35000000
ITEM: NUMBER OF ENTRIES
2709
ITEM: BOX BOUNDS pp pp pp
0 50
0 50
0 50
ITEM: ENTRIES c_binfo[1] c_binfo[2] c_binfo[3] 
3 6553 6554 
2 8837 8838 
2 8836 8837 
1 8836 12489 
3 15188 15189 
3 4361 4362 
1 4362 8838 
1 11550 13359 
3 11549 11550 
1 15018 15147 
3 15017 15018 
3 15187 15188 
3 11548 11549 
1 11548 15187 
3 13217 13218 
3 5105 5106 
3 5933 5934 
3 5932 5933 
1 5932 11706 
3 6371 6372 
1 6372 17754 
3 11705 11706 
3 6370 6371 
1 6370 14529 
2 4136 4137 
1 4137 6577 
3 6577 6578 
2 4135 4136 
3 21065 21066 
3 15308 15309 
3 15307 15308 
1 4011 15307 
3 4010 4011 
3 4009 4010 
1 876 4009 
3 21089 21090 
3 15016 15017 
1 15016 21088 
3 21088 21089 
3 15304 15305 
1 15304 19674 
3 2216 2217 
3 15305 15306 
1 2217 12283 
1 5106 19672 
3 19672 19673 
3 19673 19674 
3 172 173 
1 172 838 
3 173 174 
3 838 839 
3 839 840 
1 174 5391 
1 4632 13218 
3 17753 17754 
3 4631 4632 
1 6825 12754 
3 6824 6825 
3 6823 6824 
1 6823 20166 
3 17752 17753 
3 1657 1658 
1 1657 17752 
3 13801 13802 
3 3829 3830 
1 3829 13801 
3 14528 14529 
3 14527 14528 
1 6120 14527 
3 14716 14717 
3 11608 11609 
1 11608 14716 
3 20165 20166 
3 11609 11610 
3 14717 14718 
3 6119 6120 
3 6118 6119 
1 6118 19780 
3 19780 19781 
3 19781 19782 
1 19782 19788 
2 19787 19788 
2 19786 19787 
3 11206 11207 
1 11206 19786 
3 14944 14945 
1 5451 14944 
3 5450 5451 
3 5449 5450 
1 5449 16575 
3 6143 6144 
1 6144 21066 
3 6142 6143 
1 6142 21480 
3 14945 14946 
1 9222 20457 
3 17929 17930 
1 17929 20119 
3 20119 20120 
3 20456 20457 
3 9221 9222 
3 17930 17931 
3 20120 20121 
3 13759 13760 
1 13759 15306 
1 6168 15045 
3 6167 6168 
3 13760 13761 
3 7520 7521 
1 7521 12037 
3 8320 8321 
1 8320 13761 
3 7519 7520 
1 7519 20299 
3 20299 20300 
3 12037 12038 
3 12038 12039 
1 9 12039 
3 11315 11316 
3 8 9 
3 17552 17553 
1 13803 17551 
3 17551 17552 
3 13802 13803 
3 15461 15462 
1 10956 13041 
3 12754 12755 
3 12755 12756 
3 7303 7304 
1 7303 11610 
3 18469 18470 
3 18470 18471 
1 3588 18469 
3 112 113 
1 112 12756 
3 113 114 
3 15973 15974 
3 15974 15975 
3 18371 18372 
3 445 446 
1 445 18372 
3 11207 11208 
3 5264 5265 
1 9606 11208 
3 18370 18371 
1 5265 18370 
2 9605 9606 
1 5205 9604 
2 9604 9605 
3 21479 21480 
3 16574 16575 
3 21478 21479 
1 2091 21478 
3 16573 16574 
3 2090 2091 
3 205 206 
1 205 16573 
3 206 207 
1 207 11262 
3 2089 2090 
1 2089 20644 
3 11261 11262 
3 20455 20456 
1 11409 20455 
3 11408 11409 
3 11407 11408 
3 10351 10352 
1 10351 11407 
3 11260 11261 
3 15044 15045 
3 18092 18093 
3 13792 13793 
1 13792 18093 
1 15315 18091 
3 18091 18092 
3 15043 15044 
3 9019 9020 
3 2407 2408 
1 2407 15043 
3 2408 2409 
3 15314 15315 
3 13793 13794 
1 5958 13306 
3 5957 5958 
3 5956 5957 
1 5956 13042 
3 13042 13043 
3 12332 12333 
3 13306 13307 
3 13043 13044 
3 15460 15461 
1 6645 15460 
3 6643 6644 
1 6643 12333 
3 6644 6645 
3 3586 3587 
1 15528 16284 
3 15527 15528 
3 16283 16284 
3 439 440 
1 439 489 
3 3587 3588 
1 6111 9598 
3 9598 9599 
3 9599 9600 
1 441 9600 
3 440 441 
3 16528 16529 
3 6523 6524 
1 6523 16528 
3 8038 8039 
3 8039 8040 
3 11285 11286 
3 11284 11285 
3 20644 20645 
3 7075 7076 
3 20645 20646 
3 10352 10353 
1 7077 20646 
3 7076 7077 
1 10353 11808 
3 11807 11808 
3 11806 11807 
3 10750 10751 
1 10750 11806 
3 10175 10176 
3 10174 10175 
1 10174 11425 
3 11425 11426 
3 6311 6312 
3 19192 19193 
1 6312 19192 
1 2409 6310 
3 6310 6311 
3 11426 11427 
3 4099 4100 
1 4099 12331 
3 12331 12332 
3 4100 4101 
1 4800 19194 
3 19193 19194 
3 4799 4800 
1 4101 8673 
3 2045 2046 
3 15526 15527 
3 6637 6638 
1 6637 15526 
3 299 300 
1 300 4744 
3 4745 4746 
3 4744 4745 
3 298 299 
1 298 2046 
3 1450 1451 
1 1450 14548 
3 16529 16530 
1 1452 16530 
3 1451 1452 
3 2240 2241 
3 2239 2240 
1 2239 9438 
3 14710 14711 
3 14711 14712 
3 18097 18098 
3 18098 18099 
3 4360 4361 
3 15146 15147 
3 15145 15146 
3 875 876 
3 874 875 
3 3761 3762 
3 3760 3761 
1 3760 18099 
1 3762 7086 
3 7085 7086 
3 7084 7085 
1 5979 11704 
3 5978 5979 
3 5977 5978 
1 5977 17907 
3 11704 11705 
2 17906 17907 
2 1987 1988 
1 1987 4173 
3 13676 13677 
2 1988 1989 
3 2215 2216 
3 12283 12284 
3 12284 12285 
3 13675 13676 
1 1479 1659 
3 1477 1478 
1 1477 13675 
3 1478 1479 
3 4304 4305 
3 4303 4304 
1 4303 9679 
3 1658 1659 
3 3830 3831 
1 3831 15418 
3 15418 15419 
3 15419 15420 
1 15420 17905 
2 17905 17906 
3 6623 6624 
3 6622 6623 
3 4172 4173 
3 4171 4172 
1 4171 17931 
3 5186 5187 
3 5185 5186 
2 12059 12060 
3 20396 20397 
3 6166 6167 
1 6166 20397 
3 20395 20396 
3 4387 4388 
1 4387 20395 
3 9679 9680 
3 5390 5391 
3 20078 20079 
3 20077 20078 
1 11811 20077 
3 5389 5390 
1 5389 20079 
3 9680 9681 
3 7 8 
1 7 19329 
3 19328 19329 
3 13688 13689 
3 13687 13688 
1 13687 19327 
3 19327 19328 
1 78 13689 
3 76 77 
1 76 6622 
1 114 17002 
3 77 78 
3 17002 17003 
3 17003 17004 
3 18943 18944 
3 18944 18945 
2 487 488 
1 487 18945 
2 488 489 
3 5263 5264 
1 5263 20158 
3 20158 20159 
3 20159 20160 
2 5203 5204 
2 5204 5205 
3 14602 14603 
1 5187 11260 
2 12058 12059 
1 12058 14604 
3 14603 14604 
1 5823 14602 
3 16643 16644 
3 16642 16643 
1 9021 16642 
3 9020 9021 
3 2525 2526 
3 2524 2525 
3 13307 13308 
1 13308 18427 
3 18427 18428 
3 18428 18429 
3 8350 8351 
1 8350 18429 
3 1229 1230 
1 2526 21094 
3 6110 6111 
3 10718 10719 
3 1228 1229 
1 1228 16743 
3 10717 10718 
1 1230 10717 
3 6109 6110 
1 6109 10719 
3 3827 3828 
3 3826 3827 
1 3826 5157 
3 10019 10020 
3 5821 5822 
1 5821 10752 
3 10751 10752 
3 5822 5823 
3 8486 8487 
3 8485 8486 
1 8485 13747 
3 13747 13748 
3 13748 13749 
3 562 563 
1 562 2524 
3 21095 21096 
1 8487 20368 
3 20368 20369 
3 4553 4554 
3 3982 3983 
3 21094 21095 
1 4554 21096 
3 20369 20370 
3 3983 3984 
3 563 564 
1 8790 20370 
1 3072 8788 
3 6638 6639 
1 3828 6639 
3 4552 4553 
3 3071 3072 
3 8788 8789 
3 3070 3071 
3 10018 10019 
3 964 965 
1 964 10018 
3 965 966 
3 12022 12023 
1 12022 15384 
3 15382 15383 
3 15383 15384 
3 12023 12024 
1 6075 6624 
2 6074 6075 
2 6073 6074 
3 4388 4389 
3 13150 13151 
3 13151 13152 
2 3259 3260 
1 3259 13150 
3 11809 11810 
1 11809 13152 
2 6626 6627 
2 6625 6626 
3 11810 11811 
3 12259 12260 
1 10569 12261 
3 12260 12261 
1 6627 16644 
3 8351 8352 
3 9479 9480 
3 9478 9479 
1 9478 16741 
3 16741 16742 
2 10567 10568 
1 10567 15990 
2 10568 10569 
3 16742 16743 
3 5155 5156 
3 5156 5157 
2 11623 11624 
1 678 11623 
2 677 678 
1 564 676 
2 676 677 
3 16373 16374 
3 2401 2402 
1 2401 16374 
3 16372 16373 
2 3260 3261 
2 15989 15990 
2 15988 15989 
1 9480 9717 
3 9716 9717 
3 9715 9716 
2 11624 11625 
2 8614 8615 
3 15725 15726 
3 15724 15725 
1 15724 19488 
2 8615 8616 
3 20000 20001 
2 16307 16308 
2 16306 16307 
2 8890 8891 
1 8890 19486 
3 19487 19488 
3 19486 19487 
2 8891 8892 
1 19554 20292 
2 19552 19553 
2 9106 9107 
1 9106 19552 
2 9107 9108 
2 19553 19554 
1 9108 15712 
2 15712 15713 
2 20593 20594 
1 14193 20593 
3 9314 9315 
2 13565 13566 
1 921 13566 
3 9313 9314 
3 16888 16889 
2 13564 13565 
1 13564 16888 
3 16889 16890 
3 19204 19205 
3 19205 19206 
2 17215 17216 
2 17216 17217 
2 15796 15797 
1 15796 20143 
2 20144 20145 
2 20143 20144 
2 15797 15798 
3 3970 3971 
1 3970 15798 
3 3971 3972 
3 11069 11070 
3 5887 5888 
1 5887 11479 
3 5888 5889 
1 5889 11070 
1 1269 4642 
2 4642 4643 
1 4644 15726 
2 4643 4644 
2 1268 1269 
2 1267 1268 
1 498 13072 
2 13072 13073 
2 497 498 
2 496 497 
1 496 8616 
2 13073 13074 
3 19999 20000 
1 9546 19999 
2 9545 9546 
2 9544 9545 
1 9544 14631 
2 14630 14631 
3 11068 11069 
2 13451 13452 
2 13450 13451 
1 13450 21367 
2 21367 21368 
2 21368 21369 
2 2990 2991 
1 6603 13074 
2 6602 6603 
2 2989 2990 
2 15845 15846 
2 13388 13389 
2 20797 20798 
2 13387 13388 
1 13387 20797 
2 20798 20799 
2 5641 5642 
1 5641 13389 
2 10973 10974 
2 10972 10973 
1 10972 20799 
2 13175 13176 
2 13174 13175 
2 11509 11510 
1 11509 13174 
2 11510 11511 
1 13452 15714 
2 15713 15714 
1 8334 11511 
2 8332 8333 
2 8333 8334 
2 4516 4517 
1 4516 19684 
2 19684 19685 
2 19685 19686 
1 6531 14191 
1 5661 8892 
2 14192 14193 
2 14191 14192 
1 3309 12063 
2 5659 5660 
2 5660 5661 
2 3308 3309 
2 3307 3308 
1 3307 5643 
2 5642 5643 
2 15136 15137 
2 12910 12911 
1 12910 15136 
2 15137 15138 
2 6529 6530 
1 6529 15138 
3 6554 6555 
2 20563 20564 
1 6555 20563 
2 5893 5894 
1 5893 20565 
2 20564 20565 
2 5894 5895 
3 6895 6896 
2 5884 5885 
1 5884 6895 
2 5885 5886 
3 6896 6897 
2 10666 10667 
2 10667 10668 
3 10445 10446 
1 10446 15403 
3 15403 15404 
3 15404 15405 
3 18877 18878 
1 10668 14667 
3 2665 2666 
1 2665 20341 
3 920 921 
3 919 920 
1 919 11752 
3 11752 11753 
3 11753 11754 
3 18878 18879 
3 10867 10868 
1 10867 15405 
1 10869 11481 
1 9249 10149 
3 9248 9249 
3 10868 10869 
3 16178 16179 
3 15668 15669 
3 16177 16178 
2 11041 11042 
3 20342 20343 
2 16778 16779 
2 16777 16778 
1 16777 20343 
3 20341 20342 
3 386 387 
3 674 675 
1 387 675 
2 14629 14630 
3 673 674 
1 673 14629 
1 17217 19678 
3 19678 19679 
3 19679 19680 
1 19680 21489 
3 128 129 
3 2471 2472 
3 2470 2471 
3 17455 17456 
3 17456 17457 
3 7132 7133 
1 7132 17455 
3 7133 7134 
3 127 128 
1 127 2472 
3 15841 15842 
1 15841 17457 
3 18263 18264 
3 11480 11481 
3 11479 11480 
3 10148 10149 
3 10147 10148 
1 10147 18262 
3 18262 18263 
3 15667 15668 
1 2868 15667 
3 2867 2868 
3 2866 2867 
1 2866 3195 
2 3194 3195 
3 13313 13314 
1 3786 13314 
2 4730 4731 
1 4989 19732 
2 19732 19733 
2 17234 17235 
1 4731 17235 
2 4987 4988 
2 4988 4989 
2 5180 5181 
2 19733 19734 
2 11042 11043 
2 5179 5180 
1 5179 11043 
2 1663 1664 
1 1663 19734 
1 5181 15844 
2 15844 15845 
2 449 450 
2 448 449 
1 273 4365 
2 272 273 
2 271 272 
1 271 6841 
2 6841 6842 
2 6842 6843 
3 3125 3126 
3 3124 3125 
1 3124 16234 
3 16234 16235 
3 16235 16236 
3 385 386 
1 385 3226 
3 3226 3227 
3 15959 15960 
3 15958 15959 
1 15958 20233 
3 8260 8261 
1 8260 13518 
3 13517 13518 
1 5760 15960 
3 20233 20234 
3 20234 20235 
3 5759 5760 
3 21488 21489 
3 21487 21488 
3 17389 17390 
1 17389 21487 
3 3331 3332 
2 9115 9116 
1 7134 9115 
2 9116 9117 
3 18256 18257 
1 18256 18733 
3 18257 18258 
1 9117 11584 
2 11584 11585 
3 11189 11190 
3 11188 11189 
1 11188 18171 
2 18170 18171 
3 21436 21437 
2 18169 18170 
1 18169 21436 
2 2573 2574 
2 2572 2573 
2 3193 3194 
1 2574 3784 
3 3784 3785 
3 3785 3786 
2 4517 4518 
2 19216 19217 
1 19216 21369 
2 19217 19218 
2 17233 17234 
1 17233 19879 
2 19879 19880 
2 14258 14259 
2 19880 19881 
1 4518 19881 
1 18696 19218 
2 1163 1164 
2 1162 1163 
1 1162 14259 
2 6601 6602 
1 6601 13083 
2 13082 13083 
2 1664 1665 
1 1665 9837 
2 13081 13082 
2 9836 9837 
2 9835 9836 
1 7269 10974 
2 7267 7268 
1 7267 9835 
2 7268 7269 
2 4447 4448 
1 1803 6843 
2 1801 1802 
2 1802 1803 
2 20437 20438 
2 20438 20439 
1 3126 20439 
3 13516 13517 
3 13208 13209 
1 13209 18343 
3 20687 20688 
3 13207 13208 
1 7536 13207 
2 7535 7536 
3 11336 11337 
3 11335 11336 
2 7534 7535 
1 7534 20688 
2 15706 15707 
1 15706 20686 
1 3333 11337 
3 3332 3333 
1 9309 15708 
3 9308 9309 
3 20686 20687 
3 21437 21438 
1 11586 21438 
2 11585 11586 
3 12223 12224 
2 52 53 
1 52 12223 
2 53 54 
1 54 2346 
2 2345 2346 
2 19277 19278 
2 2344 2345 
1 2344 18421 
2 18421 18422 
2 18422 18423 
2 14257 14258 
2 4942 4943 
1 4942 14257 
1 4944 15244 
2 4943 4944 
2 773 774 
1 774 4060 
2 772 773 
1 772 19686 
1 7893 13081 
2 7892 7893 
2 7891 7892 
1 7891 15415 
2 4060 4061 
2 19931 19932 
2 19930 19931 
2 4448 4449 
1 4449 19930 
2 12911 12912 
1 12912 12936 
2 12935 12936 
2 12934 12935 
1 12934 20962 
2 20962 20963 
2 20963 20964 
1 6897 18646 
3 12104 12105 
1 519 7011 
3 7010 7011 
3 7009 7010 
3 18646 18647 
3 18839 18840 
3 18647 18648 
1 18648 18840 
3 10396 10397 
1 4881 10396 
3 4879 4880 
3 4880 4881 
1 2130 10542 
3 2129 2130 
3 10541 10542 
3 13550 13551 
3 13549 13550 
1 13549 13693 
3 13693 13694 
3 13694 13695 
3 20287 20288 
3 19409 19410 
3 19408 19409 
1 216 19408 
3 15034 15035 
3 2701 2702 
1 2701 15034 
3 15035 15036 
3 18494 18495 
3 18493 18494 
3 10444 10445 
3 2128 2129 
1 2128 10444 
3 21419 21420 
3 12592 12593 
1 12592 21420 
3 21418 21419 
3 14666 14667 
1 12594 16179 
3 12593 12594 
3 362 363 
3 361 362 
1 361 13695 
3 17611 17612 
3 215 216 
3 214 215 
1 214 775 
2 18106 18107 
2 15718 15719 
2 15719 15720 
1 15720 15780 
3 15779 15780 
3 17632 17633 
3 15778 15779 
1 15778 17632 
3 2666 2667 
3 11045 11046 
3 3734 3735 
3 3733 3734 
1 2667 3733 
1 3735 11046 
3 2579 2580 
1 2580 6474 
1 11754 20340 
1 6189 18495 
3 6188 6189 
3 20339 20340 
3 2578 2579 
1 2578 20338 
3 20338 20339 
3 9247 9248 
3 14665 14666 
1 14665 19695 
3 19694 19695 
3 19693 19694 
1 16023 19693 
3 16022 16023 
3 17612 17613 
1 15669 16042 
3 16042 16043 
3 16043 16044 
1 16044 17613 
1 11955 20925 
3 20924 20925 
3 16021 16022 
3 11953 11954 
1 11953 16021 
2 20228 20229 
3 9551 9552 
2 20227 20228 
1 20227 20923 
3 20923 20924 
3 7037 7038 
3 7036 7037 
2 18107 18108 
1 9552 18108 
2 16378 16379 
2 13108 13109 
1 13108 16378 
2 16379 16380 
1 16380 17358 
2 13109 13110 
2 4364 4365 
2 4363 4364 
1 4363 13110 
3 2732 2733 
3 3938 3939 
3 9841 9842 
1 9841 18885 
3 9842 9843 
3 18884 18885 
1 9843 18039 
3 18883 18884 
1 8652 18883 
3 8651 8652 
3 8650 8651 
1 8650 15843 
3 15842 15843 
3 6149 6150 
1 18264 19314 
3 19313 19314 
3 6148 6149 
1 6148 9867 
3 9866 9867 
3 5518 5519 
1 5518 6150 
3 5519 5520 
3 11416 11417 
1 5520 11416 
3 11417 11418 
3 3746 3747 
3 13312 13313 
1 192 10638 
3 10637 10638 
3 10636 10637 
1 10636 11418 
2 191 192 
2 190 191 
1 190 4729 
2 4729 4730 
1 10920 17356 
2 10918 10919 
2 10919 10920 
2 86 87 
1 87 7542 
2 85 86 
3 17356 17357 
3 17357 17358 
2 11977 11978 
2 11978 11979 
2 17914 17915 
2 17915 17916 
1 13857 17916 
2 13856 13857 
3 4217 4218 
1 474 4218 
3 4216 4217 
1 4216 16236 
3 8261 8262 
1 8262 16453 
3 16453 16454 
3 16454 16455 
1 16455 19806 
3 3424 3425 
3 3227 3228 
1 3228 20307 
3 20306 20307 
3 20305 20306 
3 19375 19376 
1 19375 20305 
3 17390 17391 
1 5427 17391 
3 18733 18734 
3 18734 18735 
3 5426 5427 
3 5425 5426 
1 5425 5719 
3 19312 19313 
3 19166 19167 
1 19167 19312 
3 5719 5720 
3 19165 19166 
3 2693 2694 
3 14336 14337 
1 3747 14337 
1 11190 14335 
3 14335 14336 
3 8542 8543 
3 2692 2693 
1 2692 8542 
3 8543 8544 
3 3745 3746 
3 763 764 
1 763 3745 
1 8544 15432 
1 2694 14551 
2 14551 14552 
2 856 857 
1 856 8275 
2 14552 14553 
1 858 14553 
2 857 858 
3 764 765 
1 765 20169 
3 20167 20168 
1 15636 20167 
2 18695 18696 
2 18694 18695 
1 4377 18694 
1 1164 10918 
2 3695 3696 
2 15635 15636 
1 3696 15634 
2 15634 15635 
2 7541 7542 
1 4470 7540 
2 7540 7541 
2 4469 4470 
1 5328 16405 
2 16405 16406 
2 4468 4469 
2 5326 5327 
1 5326 11979 
2 5327 5328 
2 13855 13856 
2 16406 16407 
2 5305 5306 
1 5305 16407 
2 8873 8874 
2 17051 17052 
2 17050 17051 
3 18343 18344 
3 3425 3426 
3 5758 5759 
1 5758 20845 
1 3426 15394 
3 18344 18345 
3 15394 15395 
3 15395 15396 
3 20531 20532 
1 19710 20532 
3 19709 19710 
3 18268 18269 
3 20845 20846 
3 5228 5229 
3 12128 12129 
3 20846 20847 
3 5227 5228 
1 5227 20847 
3 12127 12128 
1 12127 18270 
3 18269 18270 
3 17428 17429 
3 21134 21135 
3 21133 21134 
3 17429 17430 
1 17430 21133 
1 7983 15430 
1 1842 21135 
3 2252 2253 
3 9307 9308 
3 9016 9017 
1 9016 9307 
3 15431 15432 
3 9017 9018 
1 9018 9682 
3 9682 9683 
3 9683 9684 
3 15430 15431 
3 2251 2252 
1 2251 17361 
3 2747 2748 
1 2748 19276 
2 19276 19277 
3 2746 2747 
1 2746 9684 
2 15245 15246 
2 14014 14015 
2 4376 4377 
2 15244 15245 
2 4375 4376 
2 865 866 
1 865 4375 
2 866 867 
1 7563 14016 
2 14015 14016 
2 15415 15416 
2 15416 15417 
2 11756 11757 
2 1957 1958 
1 1957 4468 
2 1958 1959 
1 867 11757 
1 1959 9957 
1 1038 8398 
2 8399 8400 
2 9952 9953 
2 5306 5307 
1 5307 9952 
2 9955 9956 
1 4539 9955 
2 9956 9957 
2 9953 9954 
2 8045 8046 
2 8398 8399 
2 18118 18119 
1 18118 20964 
1 8046 18120 
2 18119 18120 
2 5728 5729 
1 5728 10885 
3 10885 10886 
3 10886 10887 
3 12103 12104 
1 10695 10887 
3 518 519 
3 14962 14963 
3 517 518 
1 517 14962 
3 14963 14964 
1 6153 12396 
2 12394 12395 
2 12395 12396 
3 2347 2348 
1 2347 18838 
3 6944 6945 
3 6943 6944 
3 18838 18839 
2 5729 5730 
3 4810 4811 
1 4810 20704 
3 20704 20705 
3 20705 20706 
3 4811 4812 
3 10694 10695 
3 10693 10694 
3 7822 7823 
1 7822 10693 
3 7823 7824 
3 11120 11121 
3 10540 10541 
1 10540 11121 
3 2722 2723 
3 20288 20289 
1 7824 18504 
3 18503 18504 
3 18502 18503 
1 18502 19539 
3 6152 6153 
3 6151 6152 
1 6151 10833 
1 14850 20289 
3 14849 14850 
3 14848 14849 
1 14848 18472 
3 18472 18473 
3 18473 18474 
2 11605 11606 
2 4246 4247 
1 4246 11605 
2 4247 4248 
3 2348 2349 
1 2349 8662 
3 8662 8663 
3 8663 8664 
1 8664 12514 
3 12514 12515 
1 12516 15603 
3 12515 12516 
3 11044 11045 
3 2702 2703 
3 18287 18288 
3 19829 19830 
3 10397 10398 
1 2499 10398 
3 2498 2499 
3 2497 2498 
3 17716 17717 
1 13698 17716 
3 17717 17718 
3 18286 18287 
3 13697 13698 
3 11119 11120 
1 11119 16963 
3 16963 16964 
3 2992 2993 
1 2992 7071 
3 7069 7070 
1 7069 13696 
3 13696 13697 
3 7070 7071 
3 2723 2724 
3 16964 16965 
3 2993 2994 
3 19538 19539 
3 19537 19538 
3 17767 17768 
3 7843 7844 
1 7843 17767 
3 7844 7845 
1 2994 17611 
3 775 776 
3 17768 17769 
3 776 777 
1 777 17769 
2 3871 3872 
1 3871 15364 
3 15364 15365 
3 15365 15366 
2 11606 11607 
1 1995 11607 
3 1993 1994 
1 1993 15366 
3 1994 1995 
2 3644 3645 
2 3643 3644 
1 3643 4282 
3 4282 4283 
3 15602 15603 
3 8206 8207 
3 2755 2756 
1 2755 8206 
3 2756 2757 
3 17633 17634 
3 18038 18039 
3 18037 18038 
3 7060 7061 
1 7060 18037 
3 7061 7062 
1 7062 16668 
3 7558 7559 
1 7558 17634 
3 6473 6474 
3 11428 11429 
1 11428 19830 
3 11429 11430 
3 7559 7560 
1 11430 19606 
3 19606 19607 
3 1225 1226 
1 1225 7560 
3 1226 1227 
1 1227 2856 
3 6187 6188 
3 9202 9203 
1 9202 19608 
3 19607 19608 
3 7208 7209 
3 9203 9204 
1 3942 9204 
3 12440 12441 
3 12439 12440 
1 12439 19060 
3 19060 19061 
3 19061 19062 
3 3199 3200 
1 3199 19062 
3 11954 11955 
3 8909 8910 
3 3383 3384 
3 3382 3383 
1 3382 8908 
3 8908 8909 
3 15161 15162 
3 15160 15161 
3 9550 9551 
1 9550 15160 
1 3384 15162 
3 4276 4277 
1 4276 7714 
3 7714 7715 
3 7715 7716 
2 3719 3720 
2 3718 3719 
1 3873 7716 
2 3872 3873 
3 2731 2732 
1 2731 3720 
2 15626 15627 
2 15625 15626 
1 8700 15625 
3 8699 8700 
3 8698 8699 
1 8698 9153 
3 9152 9153 
3 9151 9152 
1 3693 9151 
1 2757 3519 
3 7105 7106 
1 7105 13485 
3 7106 7107 
3 3518 3519 
1 7107 14842 
3 14842 14843 
3 3517 3518 
1 3517 19804 
3 19804 19805 
3 19805 19806 
3 8707 8708 
3 8708 8709 
1 6969 8709 
3 14843 14844 
3 6968 6969 
3 6472 6473 
1 6472 13443 
3 13441 13442 
3 13442 13443 
3 11338 11339 
3 1744 1745 
1 1744 11338 
3 9865 9866 
3 7207 7208 
1 7207 9822 
3 9821 9822 
3 9820 9821 
1 9820 11340 
3 11339 11340 
3 5366 5367 
1 5367 15319 
3 15319 15320 
3 15320 15321 
3 11198 11199 
1 14958 21345 
3 11197 11198 
1 11197 14956 
3 14956 14957 
3 14957 14958 
3 13618 13619 
1 13618 15321 
3 13619 13620 
1 13620 14905 
3 14905 14906 
3 14906 14907 
1 13326 14907 
3 8276 8277 
3 21344 21345 
3 21343 21344 
1 8277 21343 
3 5843 5844 
3 5842 5843 
1 5842 7038 
2 92 93 
2 91 92 
1 91 5844 
2 4016 4017 
2 4015 4016 
1 4015 5197 
1 5199 9906 
2 5198 5199 
2 5197 5198 
3 3937 3938 
3 1291 1292 
1 1291 9705 
3 16621 16622 
3 3692 3693 
3 16622 16623 
3 9704 9705 
3 13484 13485 
3 13483 13484 
3 9703 9704 
1 9703 13483 
3 472 473 
1 472 20640 
3 473 474 
3 20639 20640 
3 2054 2055 
3 2053 2054 
1 2053 10578 
3 20638 20639 
1 1371 20638 
3 1745 1746 
3 10577 10578 
1 1746 19377 
3 19376 19377 
3 10576 10577 
1 10576 18150 
3 2960 2961 
3 3668 3669 
3 5720 5721 
1 3669 14230 
3 14230 14231 
1 5721 7684 
3 7684 7685 
3 7685 7686 
1 7686 10242 
3 10241 10242 
1 16470 19165 
3 5365 5366 
1 5365 16468 
3 16469 16470 
3 16468 16469 
3 21125 21126 
3 21124 21125 
3 11392 11393 
1 11392 21126 
3 11393 11394 
3 8275 8276 
3 20168 20169 
3 10192 10193 
1 10192 19222 
3 10193 10194 
3 19222 19223 
3 19223 19224 
2 3694 3695 
1 93 3694 
2 3149 3150 
2 1180 1181 
1 1180 3150 
2 1181 1182 
2 3148 3149 
1 3148 12145 
2 12145 12146 
2 12146 12147 
1 3759 12147 
2 7798 7799 
1 7798 15504 
2 7799 7800 
1 7800 18087 
2 9905 9906 
2 3758 3759 
2 9904 9905 
1 9904 18420 
2 18419 18420 
2 18418 18419 
2 8872 8873 
1 8872 18418 
3 1292 1293 
1 1293 20211 
3 1607 1608 
1 4752 12837 
3 20210 20211 
1 8220 20209 
3 20209 20210 
3 4751 4752 
3 4750 4751 
1 4750 19140 
3 19139 19140 
3 19138 19139 
3 4693 4694 
1 4693 19642 
3 4694 4695 
3 19642 19643 
3 14543 14544 
1 12789 14544 
1 4695 15396 
3 14542 14543 
1 14542 19138 
3 12787 12788 
1 12787 20530 
3 20530 20531 
3 19643 19644 
3 12788 12789 
3 2959 2960 
1 2959 5229 
3 239 240 
3 238 239 
1 238 426 
3 18121 18122 
3 425 426 
3 424 425 
1 424 8631 
3 11956 11957 
1 11956 18121 
3 8630 8631 
3 14231 14232 
3 11957 11958 
1 11958 14232 
1 3075 7981 
3 7981 7982 
3 7982 7983 
3 20068 20069 
3 3074 3075 
3 3073 3074 
1 3073 20068 
3 13981 13982 
1 13981 16161 
3 6991 6992 
1 6991 21124 
3 16160 16161 
1 657 20709 
3 16159 16160 
1 16159 20707 
3 20707 20708 
3 20708 20709 
3 6992 6993 
3 20524 20525 
3 19238 19239 
3 19237 19238 
1 6993 19239 
3 655 656 
1 655 6247 
3 656 657 
1 6249 16812 
3 7597 7598 
2 21593 21594 
2 7562 7563 
2 21592 21593 
2 16811 16812 
2 16810 16811 
1 16810 21592 
2 14110 14111 
2 7561 7562 
2 14111 14112 
2 3757 3758 
1 3757 15502 
2 15502 15503 
1 14112 14197 
2 14197 14198 
2 15503 15504 
1 6687 21187 
2 21187 21188 
2 6686 6687 
2 6685 6686 
1 6685 8044 
2 8044 8045 
3 9961 9962 
1 9961 15175 
2 15175 15176 
2 15176 15177 
3 14021 14022 
3 20272 20273 
3 17053 17054 
1 17053 20706 
3 2387 2388 
3 2386 2387 
1 2386 10006 
3 16193 16194 
3 17054 17055 
1 9963 17055 
3 9962 9963 
3 5960 5961 
2 10832 10833 
1 5961 10831 
2 10831 10832 
3 8822 8823 
3 19828 19829 
3 4001 4002 
1 4002 8050 
3 4000 4001 
1 4000 19828 
3 14020 14021 
3 17665 17666 
3 10006 10007 
3 8950 8951 
1 8950 14020 
3 8951 8952 
1 8952 19563 
3 19562 19563 
3 185 186 
3 6070 6071 
1 2724 6072 
3 6071 6072 
1 10116 16929 
1 186 16965 
3 184 185 
1 184 18070 
3 18070 18071 
3 10115 10116 
3 18071 18072 
3 6157 6158 
1 6157 18072 
3 10114 10115 
3 3940 3941 
1 3940 10114 
3 18007 18008 
1 18007 18474 
1 7845 13660 
3 16928 16929 
3 5959 5960 
1 5959 16927 
3 13660 13661 
3 16927 16928 
3 18008 18009 
1 14538 18009 
3 14537 14538 
3 14188 14189 
1 14188 20728 
3 20728 20729 
3 20729 20730 
3 1729 1730 
1 1729 9282 
3 8821 8822 
1 8821 9280 
3 9281 9282 
3 9280 9281 
3 4283 4284 
1 4284 15924 
3 8207 8208 
3 15601 15602 
1 15601 16669 
3 16669 16670 
3 16670 16671 
1 15258 16671 
3 18104 18105 
3 8050 8051 
3 17666 17667 
3 2854 2855 
1 2854 17667 
3 2855 2856 
3 16666 16667 
3 12316 12317 
1 12316 16666 
3 12317 12318 
3 16667 16668 
3 19561 19562 
3 19123 19124 
1 19123 19561 
3 19124 19125 
3 20912 20913 
1 7341 20913 
3 7340 7341 
3 20911 20912 
3 3961 3962 
1 3961 20911 
3 21085 21086 
3 7339 7340 
3 6158 6159 
3 3941 3942 
3 3962 3963 
1 11604 15825 
3 15823 15824 
1 13662 15823 
3 15824 15825 
3 11603 11604 
2 13324 13325 
1 8910 13324 
2 13325 13326 
3 3200 3201 
3 14189 14190 
3 13661 13662 
1 14190 15132 
3 15131 15132 
3 15130 15131 
1 15130 19519 
3 19519 19520 
3 4277 4278 
1 4278 20730 
3 17081 17082 
3 17080 17081 
3 3536 3537 
3 2050 2051 
3 2051 2052 
1 2052 2509 
3 2510 2511 
3 2509 2510 
3 3691 3692 
1 3691 17593 
3 17594 17595 
3 15923 15924 
3 15922 15923 
1 15922 17595 
3 17593 17594 
1 8208 13159 
3 13160 13161 
3 13159 13160 
3 8323 8324 
1 8323 13161 
3 13178 13179 
3 13177 13178 
3 12578 12579 
3 12577 12578 
1 12577 13177 
3 8881 8882 
1 8881 18105 
3 8882 8883 
1 14844 16183 
3 16183 16184 
3 16184 16185 
3 17221 17222 
3 8324 8325 
3 18103 18104 
3 17222 17223 
3 6967 6968 
1 6967 18597 
3 18596 18597 
3 18595 18596 
3 9061 9062 
1 9061 18595 
1 789 2838 
3 2081 2082 
3 788 789 
3 13720 13721 
1 2589 11199 
3 9062 9063 
3 2588 2589 
3 2587 2588 
1 2587 9063 
1 17100 19158 
3 2837 2838 
3 2836 2837 
1 2836 17098 
3 17098 17099 
3 17099 17100 
1 2172 3963 
3 2170 2171 
1 2170 11739 
3 2171 2172 
3 11738 11739 
3 19520 19521 
1 3201 11275 
3 11275 11276 
3 11276 11277 
1 8280 11277 
3 8279 8280 
3 5539 5540 
1 5539 17080 
3 10592 10593 
3 5540 5541 
3 10591 10592 
1 10591 20445 
3 20444 20445 
1 4017 5541 
3 11525 11526 
1 2256 11526 
3 2255 2256 
3 2254 2255 
1 2254 9711 
3 11524 11525 
1 11524 20656 
3 20656 20657 
1 6351 7527 
3 8251 8252 
3 6350 6351 
3 6349 6350 
1 6349 8251 
1 15972 20658 
3 7526 7527 
3 20657 20658 
3 15971 15972 
3 7525 7526 
3 1921 1922 
1 1921 7525 
3 8252 8253 
1 8253 20364 
3 15970 15971 
1 9738 15970 
3 1370 1371 
3 1369 1370 
1 1369 2058 
3 2057 2058 
3 2056 2057 
1 2056 2082 
3 9737 9738 
3 9736 9737 
1 9736 15996 
3 3667 3668 
1 3667 17700 
1 1668 17698 
3 17698 17699 
3 17699 17700 
1 9087 20242 
3 13721 13722 
3 11449 11450 
1 11449 13722 
3 11450 11451 
3 10240 10241 
1 141 10240 
3 7213 7214 
3 7214 7215 
3 19157 19158 
3 19156 19157 
3 11737 11738 
1 11737 15492 
1 11394 19156 
3 1736 1737 
3 1735 1736 
1 1735 13837 
1 3900 7215 
3 15491 15492 
3 13837 13838 
3 8278 8279 
1 11064 17808 
3 13838 13839 
3 11063 11064 
3 17807 17808 
1 1182 17806 
3 17806 17807 
3 12701 12702 
3 12700 12701 
3 1606 1607 
1 1606 12835 
3 12835 12836 
3 12836 12837 
3 9710 9711 
2 13237 13238 
3 9709 9710 
1 9709 13237 
3 5465 5466 
3 1922 1923 
1 1923 6267 
3 6266 6267 
3 6265 6266 
3 5464 5465 
1 5464 6265 
3 3626 3627 
3 3625 3626 
1 10662 15994 
3 15994 15995 
3 15995 15996 
3 10660 10661 
3 10697 10698 
3 18149 18150 
3 10661 10662 
3 18148 18149 
3 9085 9086 
1 9085 18148 
3 9086 9087 
3 8629 8630 
1 8629 18357 
3 18356 18357 
3 18355 18356 
1 18355 18492 
3 10696 10697 
1 444 10696 
3 9148 9149 
1 9148 14349 
3 140 141 
3 9149 9150 
3 139 140 
1 139 5686 
3 5686 5687 
3 5687 5688 
1 5688 12828 
3 12434 12435 
1 8979 12435 
3 8978 8979 
1 963 11413 
3 11413 11414 
3 962 963 
3 6247 6248 
3 6248 6249 
3 12433 12434 
1 6330 12433 
3 961 962 
3 6329 6330 
2 18086 18087 
3 17510 17511 
3 17509 17510 
1 17509 18085 
2 18085 18086 
3 11998 11999 
1 11998 17511 
3 11999 12000 
2 14198 14199 
2 21188 21189 
2 18859 18860 
3 9037 9038 
3 20558 20559 
3 12488 12489 
3 20557 20558 
3 12487 12488 
1 12487 20557 
3 20273 20274 
1 20274 20559 
3 17759 17760 
3 17758 17759 
3 16192 16193 
3 10555 10556 
1 10555 16192 
2 18860 18861 
3 251 252 
3 250 251 
1 250 18861 
3 9038 9039 
1 9039 11989 
1 4947 11991 
3 11989 11990 
3 11990 11991 
3 4946 4947 
1 13260 17665 
3 13259 13260 
3 13357 13358 
3 13258 13259 
1 13258 13357 
3 13358 13359 
3 4945 4946 
3 5104 5105 
3 10007 10008 
3 10556 10557 
1 10008 10963 
3 10963 10964 
3 10964 10965 
3 3416 3417 
3 3379 3380 
1 3379 3417 
3 3380 3381 
1 3381 10557 
1 10965 13216 
3 13216 13217 
3 3415 3416 
1 3415 5104 
3 5269 5270 
1 5269 5934 
3 5270 5271 
1 5271 20521 
3 20521 20522 
3 14536 14537 
1 14536 20523 
3 20522 20523 
3 18622 18623 
3 18623 18624 
3 7960 7961 
1 7960 18622 
3 7961 7962 
3 1730 1731 
1 1731 18624 
3 6578 6579 
3 21064 21065 
3 16408 16409 
1 16408 21064 
3 8051 8052 
3 16409 16410 
3 15256 15257 
1 15256 16410 
3 15257 15258 
3 7220 7221 
3 7219 7220 
1 7219 16918 
3 16918 16919 
1 8052 12154 
3 3031 3032 
1 3031 21090 
3 3032 3033 
3 12154 12155 
3 12155 12156 
1 8322 12156 
1 12492 17553 
1 3033 3505 
3 3505 3506 
3 3506 3507 
1 19125 20433 
3 20432 20433 
1 3507 7339 
3 20431 20432 
3 12490 12491 
1 12490 20431 
3 12491 12492 
1 840 4995 
1 6159 11760 
3 4630 4631 
3 808 809 
1 808 4630 
3 809 810 
1 810 16861 
1 7962 20164 
3 20164 20165 
3 11759 11760 
3 11758 11759 
3 1042 1043 
1 1042 11758 
3 1043 1044 
1 1044 2554 
3 2554 2555 
3 8723 8724 
3 3535 3536 
1 6579 8722 
3 8722 8723 
1 2511 8221 
3 8221 8222 
3 12536 12537 
3 12535 12536 
3 17263 17264 
3 20837 20838 
3 20836 20837 
3 9482 9483 
3 9481 9482 
1 9481 17263 
1 9483 20836 
1 16920 20838 
3 3599 3600 
1 2265 20121 
3 16919 16920 
3 3598 3599 
1 3598 9220 
3 9220 9221 
1 8325 19294 
3 19294 19295 
3 2263 2264 
1 2263 19296 
3 19295 19296 
3 2264 2265 
1 3597 7221 
3 2080 2081 
1 2080 4105 
3 8321 8322 
3 3595 3596 
3 787 788 
1 787 3595 
3 3596 3597 
1 4107 20301 
3 4105 4106 
3 4106 4107 
3 15776 15777 
3 11314 11315 
3 4994 4995 
1 9393 11314 
3 4993 4994 
1 4993 15775 
3 15775 15776 
1 15777 17845 
3 17845 17846 
3 9392 9393 
3 21086 21087 
3 9391 9392 
1 9391 21087 
3 13040 13041 
3 13039 13040 
3 10954 10955 
3 16861 16862 
3 16862 16863 
1 7371 16863 
3 7370 7371 
3 10955 10956 
3 11602 11603 
1 11602 14875 
3 14875 14876 
1 7305 13039 
3 7304 7305 
3 14876 14877 
3 2555 2556 
3 11182 11183 
1 11182 14877 
3 11183 11184 
3 3913 3914 
1 3913 11184 
3 17935 17936 
1 8040 17935 
1 3366 19521 
1 2556 17937 
3 17936 17937 
3 20443 20444 
3 3364 3365 
1 3364 8223 
3 3365 3366 
3 14593 14594 
1 14593 20443 
3 14594 14595 
1 447 14595 
3 446 447 
3 8222 8223 
3 17264 17265 
3 6307 6308 
1 6307 17265 
3 6308 6309 
1 3600 13632 
3 13631 13632 
1 6309 19735 
3 20363 20364 
3 13630 13631 
1 9888 13630 
3 20362 20363 
3 8902 8903 
1 8902 20362 
3 8903 8904 
1 8904 20244 
1 7143 15313 
3 7142 7143 
3 20300 20301 
3 4717 4718 
3 15313 15314 
3 1667 1668 
3 20242 20243 
3 1666 1667 
1 1666 4719 
3 4718 4719 
3 20243 20244 
3 17846 17847 
3 16223 16224 
1 16224 17847 
1 13044 16213 
1 3864 16222 
3 16222 16223 
3 16213 16214 
3 7369 7370 
3 3898 3899 
1 3898 7369 
3 16282 16283 
3 3899 3900 
3 12820 12821 
1 12820 16282 
3 16214 16215 
3 12821 12822 
3 15490 15491 
1 12822 15490 
1 3903 16215 
3 4991 4992 
3 6524 6525 
3 3914 3915 
1 3915 6525 
3 11062 11063 
1 4992 11062 
3 11929 11930 
1 11929 12700 
3 11771 11772 
3 11770 11771 
3 9973 9974 
1 9975 17200 
3 17200 17201 
3 17201 17202 
3 9974 9975 
2 13238 13239 
3 451 452 
1 451 10455 
3 8840 8841 
3 452 453 
1 453 19737 
3 19735 19736 
3 19736 19737 
3 9887 9888 
3 9886 9887 
3 8839 8840 
1 8839 15352 
3 3113 3114 
3 15352 15353 
1 3114 13066 
1 8439 15354 
3 3112 3113 
1 3112 7141 
3 13066 13067 
3 15353 15354 
3 7141 7142 