ITEM: TIMESTEP
35000000
ITEM: NUMBER OF ATOMS
2016
ITEM: BOX BOUNDS pp pp pp
0.0000000000000000e+00 5.0000000000000000e+01
0.0000000000000000e+00 5.0000000000000000e+01
0.0000000000000000e+00 5.0000000000000000e+01
ITEM: ATOMS id type vx vy vz 
2952 1 -2.27808 3.21901 -2.0099 
2951 3 -1.0675 -1.70473 -1.20028 
11374 1 4.30546 3.1577 2.06048 
11375 3 -1.37227 -0.583311 3.24559 
11376 1 1.86518 -4.81772 2.01144 
8566 1 1.72148 0.807406 3.73175 
8567 2 -2.70511 4.31641 1.6317 
8568 1 3.79832 -1.32884 1.28122 
4883 2 -0.319711 -0.904084 -1.43108 
16610 2 3.04942 2.72032 1.39185 
17031 1 4.96541 -8.23837 -0.934936 
16609 1 -1.78644 -1.27072 -3.458 
9245 2 4.66174 1.50642 -1.07714 
9246 1 0.704578 0.408207 0.343175 
9244 1 3.62341 7.29085 1.66032 
4884 1 -6.03899 -0.507285 0.439292 
16611 1 -3.30916 -2.60743 7.02867 
13127 2 -1.68146 -0.257221 -1.79183 
13126 1 -2.64507 -5.45202 5.50494 
9217 1 2.28209 0.746247 0.377883 
9218 2 4.30509 2.24805 -0.557685 
3855 1 -9.0913 -3.38535 4.9806 
3854 2 4.56167 -1.45065 1.77127 
12670 1 -10.9955 -7.00017 4.89973 
12671 2 -1.02184 0.506656 -0.876582 
12672 1 -2.16782 3.18556 -2.28573 
8085 1 -1.74706 3.21598 -4.14309 
9160 1 -5.42106 6.40889 0.37934 
17030 2 1.2864 2.78979 -0.173082 
14136 1 -0.639471 -12.3113 5.56742 
17029 1 -7.09911 0.0789669 2.1019 
9162 1 0.840562 1.88967 3.73854 
2565 1 5.99162 -7.50618 -4.38458 
2564 2 -5.74695 1.63686 -1.35204 
9161 2 -2.27468 -0.598181 -1.98353 
14135 2 2.03618 3.86388 1.98856 
2018 2 -2.36379 3.21709 -3.06754 
2019 1 0.773299 0.483169 -4.18554 
20868 1 1.47692 0.331446 -2.33365 
5837 2 -0.486486 3.92251 1.78955 
20867 2 -1.49742 1.28607 2.73748 
5838 1 -0.356441 0.173629 1.22975 
1126 1 -3.62025 -2.49864 5.81167 
1127 2 -3.61196 0.779477 -1.53224 
3249 1 -2.65289 1.54254 2.15963 
20866 1 -5.89855 -0.563019 0.789583 
5836 1 1.94554 -2.60914 -0.482478 
18928 1 -3.43792 -7.78315 -2.82655 
13128 1 3.14654 -1.5341 2.17027 
14701 1 -1.07211 5.46779 -0.723672 
14702 2 0.278507 1.80468 4.18441 
18929 2 -1.10243 -3.59617 3.29275 
18930 1 1.8947 0.543322 -1.19718 
13290 1 0.524776 4.3686 0.608097 
18637 1 -4.41525 1.17103 -0.254519 
18638 2 2.28055 0.775576 0.802316 
13289 2 -1.92769 -0.152196 -0.534341 
9219 1 1.47344 3.50733 1.23334 
2449 1 1.48983 1.07956 0.890169 
5753 2 -1.27121 -0.926249 -2.46623 
2450 2 -0.176773 -1.5858 -2.0576 
2451 1 -0.739448 0.221202 0.642011 
5754 1 -5.36541 -5.05908 -4.79605 
5752 1 -2.33815 0.955626 0.987771 
21379 1 4.65849 1.56839 1.08969 
7977 1 -2.6925 2.69034 5.39877 
8869 1 -3.95861 -4.25118 7.31689 
17944 1 2.73596 -0.121688 0.505538 
17945 2 0.464325 3.26224 1.93379 
8084 2 2.54711 -0.241003 0.594398 
17946 1 0.168042 1.06933 -6.90102 
11038 1 -1.37259 -0.968215 -3.5618 
8083 1 -2.30858 -3.81342 -8.85664 
8870 2 -0.351359 -2.12312 4.67569 
2563 1 9.26815 -0.533883 -0.635436 
16580 2 1.98442 0.855286 -4.12782 
16579 1 -1.18671 2.00786 -4.31092 
16581 1 -2.55701 -6.38692 8.23157 
11696 2 1.19069 2.15308 -1.07404 
16868 2 2.33998 1.03484 -0.647943 
7024 1 2.79946 -1.16973 2.35984 
9319 1 -3.52818 6.84658 -0.87167 
9320 2 0.62384 0.945566 7.26711 
9321 1 -4.36423 -0.399087 -0.77786 
11697 1 -5.13254 -4.67975 0.698615 
718 1 -0.920213 3.49583 -0.489918 
719 2 -1.63753 1.12692 -2.90934 
3248 2 -2.34521 3.11463 4.99321 
3247 1 -0.141776 2.4367 -0.651416 
14703 1 0.438947 4.16883 1.33341 
3787 1 0.867137 0.0153269 0.209423 
2260 1 1.45612 6.22718 -3.67567 
3789 1 4.37556 1.94901 -1.96366 
5122 1 -1.58719 4.24859 -3.03011 
5123 2 -0.0258591 -2.68214 0.444453 
5124 1 2.16673 1.35431 -5.17382 
2886 1 0.735954 -1.591 3.18079 
2885 2 0.97099 -0.0462141 -0.482161 
15099 1 -4.19679 2.70136 -3.45427 
9620 2 1.56018 0.95654 0.40124 
9621 1 4.5019 -2.44275 2.18274 
15098 2 -0.259702 -2.45119 2.80891 
15097 1 -4.2245 -3.17556 -0.525 
17119 1 3.63409 3.13863 4.49108 
17121 1 0.452157 -1.78212 -0.0971 
17878 1 -7.44546 -1.14921 -3.64312 
17120 2 -0.868454 0.315299 -0.383296 
11039 2 -4.68967 -3.29704 -2.99492 
16802 2 1.90166 0.0788559 -0.889734 
16801 1 -0.545431 -2.13485 3.03995 
17406 1 1.02071 -7.1291 -4.40509 
11040 1 0.157783 2.20269 -0.514533 
14463 1 6.96392 -0.805932 2.65404 
14462 2 -1.21691 -1.16581 -1.89622 
14461 1 9.2521 -2.1465 -4.59083 
16869 1 4.87412 0.762657 -0.551104 
16803 1 -2.64632 4.26579 -4.35395 
4199 2 -0.705133 -2.34111 -2.6867 
4200 1 2.2608 5.05731 -6.15471 
4198 1 -2.71 -2.8783 4.01368 
10926 1 -8.99849 -4.49693 7.48594 
16111 1 -5.20223 3.80815 -3.95473 
16600 1 -0.675919 5.35985 -2.89618 
16113 1 -4.30106 -1.99921 4.22047 
10925 2 1.68566 -1.5833 -5.02475 
16112 2 1.32677 -1.38037 0.672944 
10924 1 -0.438824 1.83311 4.54617 
3447 1 -6.65336 1.77445 7.6181 
21454 1 -2.05791 -6.14375 2.31969 
2370 1 5.29822 0.426971 4.03815 
18707 2 -3.09465 0.120557 -2.69757 
8894 2 0.263138 0.214792 -2.7799 
18232 1 6.06421 4.60714 -5.24881 
8895 1 -3.06845 2.07358 1.83043 
8893 1 -1.8619 3.30119 5.5841 
18706 1 -1.57659 3.62992 6.7138 
18708 1 -5.22343 5.14809 1.46727 
18348 1 6.8502 -1.70389 -0.78894 
283 1 0.0818874 -3.80056 -3.01328 
16684 1 0.224721 -2.33569 -3.62852 
21456 1 6.03133 -3.54054 2.1282 
21455 2 1.32954 1.53707 -3.17289 
13045 1 -0.838845 -1.7925 -2.12436 
6417 1 0.435347 2.49415 -5.97181 
6416 2 -1.70325 2.17653 3.42649 
2262 1 1.01786 1.14973 -0.701376 
13047 1 -1.23725 -3.81619 3.79913 
13046 2 -1.33097 -0.988615 -2.57685 
6415 1 2.09412 -1.27997 -3.34787 
2484 1 6.76269 -4.03913 -2.62009 
2369 2 -1.1017 -3.39956 -1.74229 
2368 1 1.7073 0.537849 1.45955 
1047 1 1.9682 4.93217 3.11575 
19920 1 -0.67938 -0.0571581 -0.258651 
285 1 -2.3674 -4.87675 6.86044 
284 2 -0.225986 -2.33003 -0.834067 
2884 1 -1.73233 -1.5525 0.362131 
13537 1 -4.82712 -0.539803 -1.94262 
13539 1 5.40115 3.76447 -5.26592 
13538 2 -4.28054 0.0143199 -0.565582 
18575 2 5.82009 -0.945636 -0.540084 
18574 1 4.71959 -4.49185 -4.03707 
3231 1 -1.95802 -1.73313 5.72728 
3230 2 1.97126 -3.36714 -2.10449 
3229 1 -7.02894 -1.4232 0.278656 
11841 1 -1.71817 7.37203 -1.68342 
7795 1 -1.62289 -5.93344 4.96377 
7796 2 0.0485509 -2.86279 0.684038 
7797 1 5.59576 -3.56915 -3.61426 
10481 2 -2.44177 -1.39727 1.33705 
10482 1 -3.69542 -0.294498 4.47808 
10480 1 5.59329 -0.245803 -1.49138 
5134 1 0.0591802 0.196957 0.547297 
10056 1 2.71875 1.59612 -0.262514 
10055 2 1.45244 -2.34646 -0.639977 
19923 1 -5.12881 4.65138 -5.01913 
19922 2 -0.469975 0.0471455 2.32611 
5135 2 -2.30831 1.38547 0.662401 
84 1 1.1602 1.63426 2.61262 
851 2 1.16269 -1.10812 0.00692728 
18233 2 1.8771 1.84446 -5.09248 
10275 1 -3.40987 -1.8897 -0.550858 
18234 1 2.70803 -0.806926 -5.38852 
10273 1 3.76187 1.51175 -3.32681 
852 1 0.275649 -1.77237 2.82388 
10054 1 -4.65619 2.80945 3.85418 
10274 2 1.22054 -0.721207 -1.24523 
7816 1 -1.6018 -0.612949 -5.11082 
7817 2 4.25316 -2.9933 2.77806 
83 2 -2.32081 0.837561 1.58617 
7818 1 1.31321 -1.66255 3.10006 
850 1 2.53118 2.39159 0.579795 
18346 1 -5.9939 5.90221 8.02979 
18347 2 3.90082 -0.854301 1.16111 
312 1 7.48305 -1.2489 3.78793 
3065 2 -0.643677 -0.78901 1.03422 
16353 1 -1.51667 -2.15363 -0.857869 
3064 1 -0.897117 -3.48183 1.65274 
2483 2 2.59644 -1.90188 -3.50899 
2482 1 -0.843434 -1.16217 1.79737 
3066 1 3.45371 4.98456 -2.95803 
3768 1 -0.76692 2.08286 -1.13391 
82 1 -1.69656 6.6909 -0.271235 
20188 1 -2.55826 0.187237 0.56729 
10165 1 3.3773 1.34937 2.62774 
4542 1 -2.62735 6.47906 -5.02802 
18633 1 2.11019 -2.0468 -4.60504 
18632 2 -3.86056 -4.95633 -1.65379 
18631 1 3.73306 0.189393 2.20976 
9863 2 1.84411 2.75534 0.794999 
9864 1 1.84456 0.841474 0.181886 
4541 2 5.85924 -1.90129 0.999526 
14467 1 0.181376 4.74934 -2.8814 
891 1 5.38935 1.30627 -7.50941 
14468 2 -1.63435 2.92645 1.31561 
13169 2 0.460437 -0.159187 1.52018 
14469 1 -3.00262 -2.40782 1.13569 
3448 1 -3.06337 -4.07567 0.880672 
18576 1 2.17317 -3.56721 1.13653 
3450 1 3.34975 -3.27337 1.56929 
3449 2 -4.30773 -2.48556 0.778911 
13170 1 -5.82311 6.31729 0.378271 
20147 2 0.146979 -0.716854 2.8761 
20148 1 -6.18494 3.34708 1.7151 
7752 1 0.23779 3.49937 -0.363254 
20146 1 -2.19027 -6.29551 1.86554 
8152 1 4.41171 -0.0969648 -1.00752 
7751 2 1.3523 -1.85243 1.33344 
7053 1 -0.132101 -4.74932 -5.16394 
8153 2 1.27713 -2.32355 2.23979 
8154 1 -0.844442 -6.6919 -1.82763 
7051 1 -0.622611 -2.94796 -2.53148 
7052 2 1.54154 -3.61093 0.15185 
19173 1 -2.76887 -1.01731 3.39601 
20479 1 1.18072 4.88476 -5.75613 
20480 2 2.33563 2.04453 -4.21169 
20481 1 0.711906 9.36812 4.06929 
19155 1 -1.59956 -0.949254 3.74295 
19154 2 -0.48598 1.66815 -1.00885 
7271 2 2.76904 1.14538 -3.99691 
7272 1 1.94613 -0.845747 2.01835 
5401 1 4.28016 -6.5975 -0.673187 
19172 2 -3.43534 0.373279 3.57105 
20520 1 -2.49713 3.44706 -3.19473 
20519 2 -6.15326 -0.613065 -1.99239 
20518 1 0.86544 -4.23081 4.80086 
5402 2 0.791941 -4.21684 -2.79419 
12237 1 0.137139 1.86048 1.3828 
3766 1 0.890584 -5.61563 -1.71405 
9159 1 -2.83101 -4.48284 1.45782 
16352 2 -4.98943 -2.50809 1.48913 
9157 1 3.88827 1.13637 3.77424 
16351 1 2.0062 3.46073 1.31364 
9158 2 2.08427 -0.812517 1.34219 
985 1 -3.5324 0.49401 1.48269 
3767 2 0.833516 3.87107 -0.20235 
4540 1 -3.87052 -0.263969 1.2168 
9862 1 3.24664 3.01774 6.59944 
11399 2 1.06334 4.7673 0.108481 
11398 1 -3.29459 6.47168 2.2154 
11400 1 3.73877 0.793747 -4.23292 
5165 2 -2.02073 3.41149 2.16009 
5166 1 3.8443 0.645147 1.80483 
14437 1 5.23987 -0.232462 -1.67154 
5164 1 -2.484 1.44971 -3.16576 
18338 2 1.15284 0.434906 -1.53763 
4930 1 -0.837012 1.40024 5.73214 
4932 1 2.12751 -2.25053 -0.693387 
13146 1 -0.727586 -5.60353 -2.64093 
4931 2 1.64541 0.352959 -1.37263 
21157 1 2.5926 1.91038 -0.317825 
21158 3 -1.86115 1.64474 1.53723 
18337 1 -3.51414 -1.46871 2.71817 
7750 1 -3.21166 -0.0564066 4.55171 
21055 1 -0.380494 1.4852 1.10959 
568 1 -0.0634863 -1.7148 4.14127 
21056 2 -2.17102 -2.38757 -6.27033 
987 1 0.811974 0.166968 -3.47131 
569 3 0.680628 -4.59013 -0.401474 
570 1 -5.2215 -1.1245 -3.391 
17163 1 -0.241854 5.382 2.01246 
21057 1 -0.0383031 9.223 0.47528 
986 2 1.60852 2.98669 2.84726 
18173 2 0.056523 0.612567 3.1872 
18172 1 -6.6287 2.65207 5.2779 
1489 1 -1.03662 -4.84563 -1.59348 
2120 2 2.62809 -1.60184 -3.0481 
2119 1 -3.62508 -3.36221 -6.39628 
1490 2 -2.12304 -0.993396 -3.39467 
1491 1 -7.11262 2.54576 5.32616 
4255 1 -3.3691 0.142743 5.40107 
17835 1 1.95834 -2.75752 -2.29962 
4257 1 1.23271 4.06409 -4.28441 
18742 1 2.98474 -2.74066 2.88421 
4256 2 1.94211 -0.67192 5.96354 
1776 1 -3.44484 2.86976 2.52122 
1775 2 -4.62485 -1.30373 -0.421362 
10880 2 -3.26567 3.14746 -2.91217 
10881 1 8.81796 1.99856 3.43008 
2760 1 3.08587 7.28268 -3.33036 
7436 3 0.90662 1.9588 1.31944 
7437 1 0.334397 -0.0498321 -1.13739 
2759 3 -1.83376 -0.870545 -2.19202 
2758 1 -3.42991 6.92176 7.60448 
7435 1 -1.97446 -2.17231 -5.31869 
2427 1 -1.64893 6.41543 3.01133 
2425 1 -2.11262 0.342973 0.280621 
2426 2 0.528062 -2.8429 1.25136 
14429 2 0.913368 0.576736 1.10119 
17311 1 -0.531486 0.698641 -1.82012 
17312 2 1.86917 -7.3209 -5.30758 
10518 1 -4.87757 0.641955 3.62561 
14430 1 4.0106 2.65864 -1.29438 
15335 2 -1.11807 2.45937 -4.37296 
17313 1 0.170405 -1.74698 -0.283934 
10517 2 0.411135 0.265118 1.54628 
11717 2 0.116996 3.40995 0.47565 
11718 1 2.48157 -1.95446 5.79747 
11716 1 -7.54413 1.67463 -2.50024 
10516 1 1.66923 -1.5762 0.886803 
15336 1 3.92449 10.9244 -0.699989 
4485 1 -1.07936 2.5027 0.177911 
6857 3 4.56945 0.439747 -1.4546 
4484 2 -2.61992 -1.38262 -1.52427 
4483 1 2.42091 1.78192 -2.50148 
6858 1 0.312237 3.24214 3.3472 
9845 2 1.79164 2.44237 0.45447 
4882 1 -0.217768 -0.12855 0.818517 
9846 1 -1.11968 -0.119865 -0.591097 
1321 1 -0.786267 -5.46106 5.0669 
1322 2 1.5865 0.669137 -3.31116 
10315 1 -4.05405 5.63298 -2.9343 
8946 1 0.558015 0.493146 -9.74665 
10317 1 -3.01309 1.87598 -5.40085 
10316 2 2.14265 2.13945 -1.68664 
15208 1 4.2339 0.688394 1.56534 
15209 2 1.82702 -0.616035 -0.481689 
16305 1 4.86974 -3.48378 2.63701 
16304 3 -0.491576 1.4115 2.22221 
16303 1 2.66506 -4.98153 1.84435 
3853 1 1.58062 1.38064 -2.67827 
16083 1 -1.09981 2.83778 -0.981626 
16081 1 1.36325 2.23481 1.20119 
14596 1 3.03656 4.02139 -3.11939 
14597 2 0.430149 0.938026 -0.391324 
14598 1 -5.06719 0.183827 -3.4872 
7137 1 -1.8371 -0.209376 -1.54704 
7136 2 0.128125 -1.72649 -1.35529 
16082 2 -2.91435 -3.4211 -0.908901 
20149 1 5.75084 -2.5321 -2.27791 
20150 2 -2.76961 -2.94715 -2.7624 
2017 1 -2.3982 3.46339 -1.90952 
325 1 -1.87146 -5.43561 -3.89139 
20151 1 -2.52557 -0.161063 -2.95952 
4584 1 2.598 0.400282 0.661539 
326 2 -2.43413 1.88801 -0.665157 
11176 1 -0.817267 -2.21815 -3.0007 
327 1 -0.31277 -4.18186 3.11584 
11177 2 0.414369 3.96876 -3.89965 
4583 2 0.816259 1.96285 3.09725 
4582 1 4.11848 -3.92828 0.83056 
17071 1 -2.27615 -2.84748 -1.64538 
17072 2 0.25826 1.69212 -4.5426 
11178 1 6.60494 2.14659 4.20184 
1128 1 7.06595 -1.35855 -0.938065 
19415 2 -4.6535 -4.75087 -0.429657 
19414 1 -6.1349 -5.03698 1.74721 
8130 1 6.63961 1.98202 3.75573 
8128 1 -1.6322 7.26689 1.77849 
14860 1 4.40471 3.87019 -3.32622 
1323 1 -3.20673 4.48591 -5.49734 
19416 1 -0.0656868 -5.02986 2.37711 
13368 1 1.60776 4.21728 7.27966 
8129 2 -2.8549 -0.868745 3.22328 
19578 1 -1.00285 3.73715 -2.58249 
21381 1 0.312908 -0.663773 2.53479 
18639 1 1.19164 -1.33633 5.5395 
13367 2 4.05101 1.30908 -0.286652 
13366 1 -5.08807 1.04401 0.481498 
19576 1 -1.28355 0.564789 -0.0799508 
17895 1 1.68787 3.9361 -3.81459 
17894 2 1.90071 2.03212 -4.33171 
18812 2 -1.91579 2.0682 -0.629556 
17893 1 2.9754 -0.433419 -0.0204017 
18811 1 -3.27974 2.58 -1.32781 
19577 2 0.936468 6.2782 1.68262 
17880 1 0.764437 -1.40289 -3.81483 
21220 1 -3.26308 5.2797 5.04387 
21380 2 -0.037489 -1.34396 3.89429 
14127 1 -4.09182 -3.52136 0.892747 
14126 2 0.432794 4.05067 -2.83957 
14125 1 7.53223 0.928956 -2.3782 
15454 1 -3.81415 -7.74485 -1.10746 
21221 2 -0.142312 2.82037 -2.75704 
7135 1 6.26537 -3.83441 0.68434 
6015 1 6.26578 2.68865 -2.70094 
6013 1 2.68515 -2.11131 2.51232 
6014 2 -1.14442 2.94091 -1.30996 
14300 2 2.51975 -2.7043 -4.99402 
42 1 -1.21509 3.71259 -0.480838 
6207 1 -4.45135 3.32786 -1.80997 
14301 1 -2.06931 6.46861 5.25472 
6206 2 -1.70174 -0.324748 0.245115 
41 2 2.64558 -1.24886 0.507798 
9466 1 -1.81823 5.16774 0.548256 
20263 1 -0.0624075 1.79171 -3.96032 
13381 1 -0.936662 2.52632 -2.61691 
16602 1 -0.738843 -0.45368 -1.19694 
13383 1 3.86977 -3.81031 -0.771724 
13382 2 3.20801 0.183122 -5.16421 
14861 2 -0.527424 1.87653 0.198654 
14862 1 0.0582724 7.92013 7.20766 
1938 1 5.54167 3.1893 -5.32053 
11695 1 0.496758 -0.745554 -0.473307 
1857 1 -0.911269 4.17772 3.37943 
1856 2 -6.03015 -0.414858 -1.23171 
1937 2 -2.54623 0.862579 -0.351227 
1855 1 -5.71779 -1.93896 -0.0522964 
17695 1 -2.70422 3.79993 -1.36682 
17696 2 0.14196 -5.45328 -3.13321 
3788 2 -0.363383 4.7747 -2.25161 
1936 1 -1.39443 -2.89386 -3.99619 
15930 1 8.52189 6.7103 -5.47842 
6470 2 -0.112553 -1.25816 -4.03498 
6471 1 -7.36002 -1.55918 -5.04427 
17879 2 1.1629 4.64276 -0.632981 
9619 1 -0.800076 -1.57981 0.491351 
5373 1 2.20145 -1.57205 -1.59838 
15455 2 0.0910124 -0.0451768 0.329292 
5372 2 -5.53857 -1.88803 3.78678 
5371 1 -0.857759 -2.46693 -0.863096 
15456 1 5.42717 -4.17761 6.26954 
5500 1 -0.610615 3.24902 5.31953 
3391 1 -2.09759 -0.006773 0.322013 
3392 2 -0.289963 -0.719091 6.39681 
5501 2 -3.06283 0.944841 2.15184 
5502 1 0.263067 -5.84036 1.41019 
2415 1 4.04718 5.70435 1.38942 
16411 1 -0.453515 -4.1652 -5.66924 
2738 2 0.118208 -3.48962 -4.04383 
6205 1 -4.59859 -1.06217 7.74859 
637 1 3.6583 4.77718 2.52619 
638 2 -0.925203 4.42199 -0.531013 
639 1 -9.65776 2.52141 -1.82576 
2737 1 4.89022 2.04853 1.03422 
19924 1 -1.704 -0.0693648 -3.08247 
19925 2 0.206142 2.95307 -0.0959208 
3045 1 -2.74947 1.16491 0.119926 
19926 1 1.60285 0.195841 7.67838 
16601 2 2.72244 1.74279 -0.0164203 
9468 1 2.68178 -0.361749 0.510722 
9467 2 2.27902 3.44736 -2.82243 
3574 1 1.70249 -4.26558 -2.03184 
9996 1 0.24255 5.0011 0.967461 
3575 2 0.171221 -0.817589 -1.63196 
15928 1 0.920177 0.273438 -3.96586 
9995 2 -1.06345 4.91058 -1.55525 
9994 1 -1.16356 -0.743194 -2.47269 
14283 1 0.0701871 -1.29877 0.800485 
14281 1 -5.78725 -4.03774 4.15808 
14282 2 -1.84526 0.456579 -1.20075 
6634 1 -1.02793 1.87347 -1.00811 
6635 2 2.6811 -0.0652817 -3.4167 
2261 2 2.58466 0.159082 -2.66797 
15929 2 6.21812 0.0931452 1.81336 
19919 2 -5.37967 2.09314 3.4106 
11108 2 -0.394492 -2.0197 2.61308 
11109 1 -3.42025 -4.6246 2.69351 
9411 1 2.81919 0.466903 5.055 
11107 1 -0.966771 0.0332735 -7.5245 
19918 1 -3.57822 -5.58739 2.03678 
16791 1 4.60735 3.41915 0.581327 
2414 2 0.360174 0.748352 -2.34955 
2413 1 1.86237 -3.3058 -1.80875 
11580 1 -0.151491 -7.41279 -0.269295 
3393 1 5.23132 1.07848 8.16046 
11579 2 4.77856 2.6038 1.59567 
11578 1 -0.490106 -1.21901 -3.02971 
3654 1 -1.43415 -0.529248 6.62244 
21027 1 -5.13835 -1.92671 2.50608 
760 1 3.73595 -1.14481 1.03998 
21026 2 -0.409013 -1.98223 1.22388 
21025 1 6.55791 2.95294 0.0346241 
2739 1 -5.02348 -1.01946 5.70668 
761 2 -3.15242 -4.41531 -0.645218 
9454 1 -1.41757 5.48369 -7.28235 
5136 1 -1.41712 4.10264 -3.60572 
21408 1 -3.70375 2.39067 -1.51901 
9456 1 -1.36717 2.85957 -3.0164 
9455 2 -0.0602848 -1.15016 -2.09575 
21407 2 0.482615 -0.738234 -1.30645 
4640 2 -0.506626 -2.07069 2.35043 
3576 1 1.63378 -4.21444 -2.12758 
5991 1 1.72939 2.43961 0.82981 
4641 1 0.0636277 -4.21749 3.32293 
5989 1 5.85463 -1.96187 2.54156 
5990 2 -1.95132 3.7114 -1.7948 
11842 1 2.24173 -1.37508 -4.9747 
20328 1 6.11597 -0.180317 5.93334 
6388 1 -2.9467 -2.84531 -9.39785 
2559 1 -0.116056 -0.628352 -5.6048 
20327 2 -0.52365 1.17614 0.585435 
6389 2 -0.816373 0.0168559 1.81971 
311 2 1.54141 -3.23963 -0.522984 
310 1 6.56599 2.31842 0.161593 
16686 1 4.72614 -8.2892 1.23441 
16685 2 0.195892 -3.45646 -0.762301 
6636 1 -4.92674 -2.75515 3.35744 
20494 1 -7.68225 -4.2535 -0.879234 
20496 1 -1.91779 4.2176 0.160897 
20326 1 -5.42531 -0.0553716 -1.78584 
20495 2 0.0430722 -2.25014 -1.24414 
8185 1 -0.07227 -4.30487 -1.01169 
8186 2 2.91798 1.92226 -2.13127 
8187 1 0.884252 0.322245 2.97774 
21475 1 -0.916353 0.34438 0.0681345 
9409 1 2.78741 -2.94014 0.207944 
9410 2 -3.536 0.745972 5.5069 
8859 1 -5.43515 1.17097 4.55166 
8858 2 -4.98306 1.92588 -0.101258 
4893 1 3.76012 0.982336 1.61656 
17118 1 -0.776806 -1.09288 1.54669 
3959 2 1.34286 -1.97592 -1.1896 
890 2 2.02202 -0.869183 0.120874 
17117 2 0.747848 -0.298352 -0.312613 
3958 1 -3.67838 3.71647 -1.72043 
6195 1 0.768287 -2.10539 -4.70878 
6193 1 -3.75748 4.66372 3.29255 
8857 1 -4.22677 -1.42729 -0.105914 
6194 2 1.47384 5.02412 -1.87243 
21251 2 -2.37425 0.146046 -0.725577 
4891 1 -1.28155 -6.0859 1.64638 
21252 1 0.499062 0.827879 -2.40759 
889 1 1.28934 0.727991 -0.164228 
3653 3 -0.00763032 -0.392263 -0.239949 
3652 1 1.13317 -2.67365 -1.46568 
623 2 -3.67712 -3.39611 -0.825456 
622 1 1.46907 -2.67527 -0.077728 
762 1 -2.54844 0.20771 -2.44762 
4609 1 -1.02136 -6.51203 5.16942 
8064 1 0.904578 6.1658 0.318609 
8063 2 1.94409 1.39795 -2.54741 
624 1 0.698386 -0.323623 1.108 
8062 1 -0.194881 0.348848 2.62049 
16679 2 0.821895 -2.05315 1.73395 
16678 1 -3.67187 0.9428 2.93703 
1396 1 -1.49163 -0.804595 1.8381 
1397 2 -2.81559 -2.17971 0.378055 
7270 1 2.95637 5.3305 2.7935 
1398 1 3.57853 -1.87409 5.58386 
16167 1 -0.80689 1.19698 5.0438 
11309 2 -0.226057 0.334288 -4.03508 
11310 1 -3.00377 0.470624 2.8961 
12235 1 2.72052 1.34556 1.36483 
4639 1 -3.74568 -3.32317 -2.37332 
4610 2 3.69026 0.432536 0.271315 
4611 1 4.61308 -1.33053 -1.30741 
11560 1 4.40349 -4.74723 -3.27718 
11308 1 5.18415 12.4775 -2.55056 
16908 1 0.478282 2.88866 -2.14327 
11843 2 3.85249 0.0832934 -0.258725 
5403 1 -1.85553 -10.3359 5.85712 
11844 1 -2.19632 2.80165 4.7511 
5499 1 3.2258 7.01794 2.464 
13281 1 -2.21969 -3.23078 -2.18521 
13280 2 1.36512 -1.89252 -2.5073 
12236 2 0.891941 3.47224 -0.228969 
5498 2 -0.40837 5.29359 -0.122782 
5497 1 -4.37972 -0.599225 -2.35171 
12046 1 -3.47084 2.14887 4.99757 
13279 1 3.16459 -4.69016 2.31677 
1723 1 1.86897 1.614 -1.26514 
8178 1 -1.78879 -1.84043 -5.78383 
14438 2 -3.5772 -3.72797 4.37809 
14439 1 -2.06098 0.0974002 0.322174 
1725 1 4.31421 1.57185 -1.16726 
1724 2 -0.471033 2.09345 1.69584 
8176 1 -0.0492752 -4.75307 -1.66042 
8177 2 -3.03088 -0.0455841 1.39784 
5723 2 0.556032 2.58691 -0.550709 
2557 1 -2.02499 -1.34605 -4.28185 
19014 1 2.13041 -2.23557 -2.36347 
19012 1 0.365076 0.858302 -1.76834 
19013 2 1.2216 -1.96233 -3.25297 
21476 2 -0.33089 1.40411 3.64699 
21477 1 0.167451 -3.20514 -3.04683 
12898 1 -1.49708 2.82681 -3.94724 
12899 2 -1.37713 2.27204 -3.96958 
12900 1 1.983 3.66172 -0.925355 
4892 2 -0.488956 0.282072 4.19458 
2899 1 4.24418 0.475117 -5.41614 
16506 1 -4.00104 1.33851 -3.25863 
17116 1 5.59224 -1.31781 1.15974 
13145 2 -2.96568 -5.21358 -0.472129 
13144 1 0.158197 3.29487 2.09733 
21250 1 -5.44081 -3.4739 -0.0193439 
5621 2 -0.910418 2.9728 -1.65955 
9139 1 -5.20746 1.4992 0.349154 
9140 2 -0.482679 0.990781 1.17582 
5744 3 -0.645417 1.0806 3.27631 
9141 1 -9.08868 -0.544906 -11.6114 
19153 1 0.948732 -2.19056 0.722505 
16166 2 0.615647 1.31985 -0.757199 
16165 1 -4.06864 -4.96077 3.08843 
14308 1 4.53456 6.00209 -6.46644 
14309 2 0.826079 -1.19304 3.85309 
2127 1 -0.47423 -4.14039 1.0443 
2126 2 3.71639 1.8147 -0.488758 
8761 1 -0.460946 1.60016 0.971404 
3673 1 0.825472 -3.97143 0.519897 
3674 2 5.13409 2.62476 0.838224 
3675 1 1.43033 1.82725 -2.50897 
2125 1 4.0479 2.83112 3.74213 
14569 1 0.161311 2.84507 7.29155 
14570 2 -2.49231 4.13004 0.156077 
2121 1 -0.243061 2.29246 3.99533 
16578 1 -5.26706 1.22264 1.749 
5724 1 1.7145 1.37776 0.480423 
16577 2 1.37492 -3.49135 1.98236 
16576 1 -4.26231 2.96246 -5.06445 
10863 1 2.46787 6.23184 1.61747 
2778 1 -2.29038 -2.24517 -6.44415 
10862 2 3.7328 -1.23806 -1.18839 
10861 1 -1.09477 -0.238849 0.214367 
18743 2 3.99284 2.92361 2.2691 
3282 1 -1.50207 3.72343 -6.73607 
2777 2 1.03931 0.463849 -1.31437 
1774 1 0.097291 0.19318 2.31247 
2776 1 -4.49049 5.58139 2.44466 
2900 2 5.54242 0.327446 3.20642 
11090 2 0.141197 4.31623 -2.97118 
11089 1 4.57805 2.10507 -4.80506 
2901 1 3.74564 -0.467802 1.44316 
11091 1 -2.47345 1.50234 1.94747 
3916 1 7.4466 3.12358 0.346187 
3918 1 0.438118 -1.92016 3.15653 
3917 2 -0.883644 -2.50326 2.66562 
17503 1 -3.84377 -1.02876 6.39454 
10879 1 2.10197 -6.70104 3.80755 
18744 1 -1.69221 2.45323 5.22745 
5622 1 -8.43674 -1.10127 15.4296 
3567 1 -2.61444 11.111 2.17256 
3566 2 -0.359022 -5.65445 0.065142 
5620 1 1.90215 1.21906 1.93887 
3281 2 -0.40839 1.11937 1.9895 
3280 1 -1.81743 -2.56785 3.61196 
1557 1 -0.619624 -3.55427 5.31112 
17504 3 -0.376251 1.16162 2.82449 
1556 3 5.99838 -1.13579 -5.63516 
5745 1 4.41722 -2.34381 4.14612 
10213 1 0.393647 2.04176 2.65426 
14310 1 1.87088 -2.57726 -3.00947 
10214 3 1.07466 -4.81824 -1.02296 
10215 1 -3.53642 -1.06374 10.5846 
14428 1 4.45607 -1.22252 3.72435 
11366 2 -0.158998 -3.68645 -0.547068 
11367 1 -4.34854 -0.992124 -9.02706 
1672 1 1.74262 -4.95179 -1.65097 
11501 2 -2.30787 -3.79111 -3.42437 
11500 1 -3.29534 -1.26203 0.0464101 
11502 1 -0.0352945 1.73326 1.71635 
12698 2 -2.47871 0.069931 2.23064 
12697 1 -1.7415 -3.25688 5.93598 
1252 1 0.477742 -0.265945 3.73319 
12699 1 -1.97111 -1.62416 -4.04284 
3036 1 2.32532 -3.34222 -3.32955 
3035 2 3.82017 1.18536 -4.45351 
8108 2 4.75997 -2.89564 1.02764 
8107 1 1.54419 0.172859 3.43995 
8109 1 1.44416 2.03949 -5.03225 
3034 1 -4.06622 -3.0311 -2.46607 
1584 1 3.21049 -1.42533 6.33095 
1583 3 -0.971475 2.56614 2.35359 
1582 1 0.2502 8.27723 -1.74449 
9412 1 1.63903 -4.21563 2.74081 
17505 1 -3.97372 3.98855 3.92357 
1673 3 1.03913 2.83945 1.9995 
1453 1 -1.12835 2.0258 -1.4079 
1674 1 -1.4689 -4.24742 1.21845 
15334 1 -1.63633 -1.75191 -2.15054 
9413 3 -0.665573 -2.51409 -0.253021 
9414 1 -1.69202 1.5192 -1.15083 
7410 1 4.96066 -3.09234 -1.12173 
7408 1 -7.26028 1.34654 4.88287 
7409 3 -5.36019 -3.99194 1.51869 
9844 1 1.04114 -2.09721 -6.92136 
13651 1 0.0266884 -1.30547 8.46601 
13653 1 0.166182 -3.82982 -0.343836 
13652 2 5.09373 -2.49738 -0.586611 
20574 1 4.71516 -4.28262 5.12601 
8944 1 -0.00909715 8.10358 1.90597 
8945 2 2.3462 1.9365 -3.30798 
20573 2 -2.23492 -4.29289 -3.22723 
20572 1 -1.40308 -0.11303 0.504511 
11499 1 -1.87364 2.39076 -4.75825 
11498 2 -2.71233 -1.54795 -3.01574 
1324 1 -2.20729 1.49623 -7.73797 
11497 1 3.18261 -0.358731 -4.90527 
1325 2 3.493 3.81276 -0.642077 
18101 2 1.91754 2.0951 5.36043 
18100 1 2.54339 -2.12735 -2.85407 
1326 1 2.16754 -0.977114 7.79184 
7575 1 5.18457 0.379933 1.45515 
15210 1 -4.34528 1.52235 1.43085 
7574 2 1.48014 -1.43951 1.89967 
9400 1 2.02005 1.41396 -2.05591 
9401 2 1.3597 -3.54761 -1.07967 
5812 1 -0.883238 3.855 -2.96874 
9402 1 -0.55393 1.53581 -1.85601 
5814 1 -1.60957 -3.04273 -6.38578 
5813 2 0.854968 -1.87867 1.84919 
12717 1 -3.8633 -2.02442 -0.939296 
15919 1 -8.55677 3.92491 -0.00449395 
21270 1 -0.245222 3.63071 1.39328 
12715 1 -2.76596 0.91493 -0.825581 
12716 2 -1.45693 0.172952 1.57736 
3847 1 -1.03336 -4.34943 -1.78734 
3848 2 1.67306 1.48895 -4.06231 
3849 1 -3.00452 2.46527 0.95361 
11593 1 1.83874 5.56183 -2.11828 
17073 1 -4.13767 0.544992 0.790561 
9099 1 3.79003 -3.45346 0.135281 
11594 2 1.81541 1.03919 -1.14281 
11595 1 4.49108 2.95517 -0.910079 
8503 1 -6.02356 7.93004 1.59316 
8504 2 -1.73986 2.90956 2.71147 
8505 1 0.880495 5.12938 -5.80901 
14322 1 2.08779 0.631932 -0.104629 
14567 2 4.6301e-05 -4.2483 0.403089 
5359 1 1.21591 6.78315 6.52087 
14568 1 -2.61683 -3.10064 -1.14562 
14321 2 -1.78229 0.625806 -1.36636 
18813 1 3.84932 0.601424 -0.420721 
5361 1 -0.481301 -3.08629 -3.55243 
5360 2 -1.49417 1.64777 -1.6696 
19903 1 -0.8477 1.72404 0.189163 
19904 2 -3.68526 -2.8599 0.179088 
19905 1 1.58981 5.44674 -2.16139 
16902 1 3.51545 2.00879 -1.56466 
7297 1 -6.13424 3.22862 -3.30105 
13116 1 -0.932846 3.34475 -4.27025 
14566 1 0.0458265 3.45048 -5.62874 
7573 1 -3.83097 -0.819183 -5.37855 
4356 1 -1.8669 -3.29969 -3.01403 
5781 1 0.205054 2.42107 1.5495 
5780 2 0.273008 7.51622 0.671328 
4355 2 -1.90357 2.32453 4.86031 
4354 1 1.45728 -2.23703 1.1679 
19143 1 2.9561 -3.82569 2.98733 
19142 2 3.1794 -1.41997 -1.85539 
3783 1 8.73086 -1.23963 -3.65362 
21269 2 -4.86391 -2.80818 -1.16099 
1530 1 -1.3508 -2.87871 -0.484294 
40 1 -1.5654 2.39745 -1.62293 
10611 1 2.41641 3.22555 -0.0137339 
14299 1 2.83447 3.21936 2.51254 
15389 2 -0.200975 -0.339721 -1.84724 
15390 1 -0.823022 -2.4129 -7.61892 
15388 1 -2.09311 -2.41773 1.44473 
19741 1 -4.20257 -1.60449 3.34356 
15000 1 3.44015 -2.11693 -10.4006 
14999 2 0.843244 -0.504554 1.06843 
20265 1 -5.20304 -0.0807614 2.31127 
20264 2 0.58455 -2.20139 1.27745 
21268 1 5.44114 0.844408 2.76519 
14998 1 -1.50844 1.98748 -4.46418 
20116 1 -3.53156 -2.29371 4.601 
19009 1 6.17956 -2.41329 0.369876 
19010 2 -0.367272 -1.13719 -3.15764 
20117 2 1.6222 -0.49201 3.55764 
1529 2 0.237727 -0.533442 -0.750969 
1528 1 3.41991 3.43721 4.28102 
14890 1 8.29114 -6.14585 5.85342 
14891 2 3.61379 -0.206075 2.47433 
9098 2 -0.245309 3.3063 -0.501155 
9097 1 1.04761 2.67411 0.0940627 
17155 1 0.857332 -5.13995 -2.27308 
17156 2 3.07498 -1.28629 -0.0900126 
14668 1 -2.95113 -1.0886 3.17047 
19011 1 3.56396 -1.71321 -0.487214 
1870 1 -6.23939 1.00827 6.70672 
10519 1 -4.2807 -4.31143 -0.528672 
17157 1 -2.05644 2.67407 3.89491 
5379 1 -1.28256 -2.70137 -4.08564 
1871 2 3.21183 -3.22104 -1.5015 
4716 1 -0.522461 -1.09161 1.20714 
14320 1 -2.45258 2.32048 4.97531 
10520 2 -3.05229 -2.32762 -5.09653 
5863 1 4.00302 -1.23818 -1.40054 
5864 2 -0.593666 0.27529 -0.659531 
10521 1 -3.47947 -1.74084 -1.73684 
7299 1 -1.45446 -6.69649 -2.27323 
5865 1 -4.19377 -5.01502 1.92908 
6469 1 -1.97384 0.840261 0.124855 
16719 1 1.81471 -0.41794 -6.60397 
15546 1 1.58047 1.33037 -3.36875 
5378 2 0.406432 3.58299 0.905708 
15545 2 -1.5297 2.16041 1.71814 
5377 1 1.2425 -4.12788 -2.78276 
7298 2 -0.249319 2.30333 -2.64907 
5779 1 0.971343 -1.88162 2.88719 
16717 1 4.41369 0.33806 1.85913 
16718 2 1.81262 -3.9819 -4.28855 
16413 1 -0.0893151 -0.863406 2.02309 
4715 2 -1.21818 -3.88555 1.33719 
16412 2 0.511973 5.4954 2.13892 
16904 2 -2.71962 -1.18318 1.33455 
16903 1 -4.48972 -0.286573 4.35206 
610 1 0.550298 -2.08643 8.31482 
611 3 0.390049 -0.417368 -2.56402 
612 1 -1.46072 -7.79504 -4.95121 
10563 1 -1.86596 1.78176 -0.76256 
10934 2 -4.43777 -0.340059 1.63119 
10933 1 2.27575 -0.37893 -0.344451 
10562 3 6.55708 3.28733 3.69487 
7790 2 -0.511197 -2.6592 2.6961 
7791 1 -8.46292 0.126019 -7.93708 
10561 1 -7.42803 0.971527 5.68103 
3782 2 0.916728 2.60002 -1.75261 
10935 1 9.29512 0.929105 3.73319 
3781 1 -1.36639 1.28114 1.74667 
7789 1 0.402957 -2.96589 -4.14559 
19742 2 -0.158653 -1.92925 1.96698 
19743 1 0.922104 -6.81927 -1.53583 
9628 1 -2.30228 -1.10321 -4.39086 
3044 2 2.63949 -0.378917 1.22281 
3043 1 -0.713954 1.54004 -2.69875 
232 1 4.4579 1.38224 3.2155 
233 2 1.63525 4.34839 2.19426 
234 1 1.0915 2.96595 -3.22072 
9629 2 0.199073 -0.3596 0.461934 
20118 1 -2.047 -0.748463 0.424978 
12544 1 -0.0295856 -3.51699 -1.05879 
9630 1 -4.87682 -4.04745 4.55836 
12545 2 -1.03521 -1.69413 -4.66347 
14935 1 -8.21157 4.71224 -0.304021 
14936 2 -1.47546 -2.74574 0.243011 
12546 1 -8.07712 4.22891 -4.08239 
10678 1 2.80144 0.278618 2.89186 
14937 1 -0.924066 5.07567 -0.75973 
6972 1 3.02195 0.0206007 -0.856905 
15186 1 -2.17171 -1.00541 -4.85793 
6971 2 3.88918 0.929511 1.86505 
1872 1 1.51716 -0.371589 5.21636 
10680 1 -5.75908 0.992551 0.310854 
17697 1 1.38382 5.12528 2.21929 
8440 1 5.29776 -0.685299 0.997623 
8441 2 -1.37889 0.782385 -1.29602 
8442 1 -0.823778 -1.16672 -3.67641 
13149 1 1.04398 3.46081 4.97349 
13148 2 -0.120604 0.189318 2.44179 
10679 2 -2.29578 1.2747 2.51367 
13147 1 1.73927 -0.196595 -1.91298 
15544 1 -3.27526 -0.94006 -3.8988 
9571 1 0.701834 -0.423752 -3.70688 
14854 1 2.41373 -0.311005 2.04297 
14855 2 -1.24723 1.32709 0.557967 
14856 1 -5.79295 -5.51199 2.74555 
16338 1 3.65097 0.0132694 3.23156 
16337 2 2.95309 1.14966 -1.42469 
9572 2 -5.36948 0.811874 -5.17548 
16336 1 -0.691761 3.28967 2.18295 
10792 1 7.33961 -1.45616 0.819256 
15001 1 -2.61021 -6.07295 2.42641 