ITEM: TIMESTEP
35000000
ITEM: NUMBER OF ENTRIES
1267
ITEM: BOX BOUNDS pp pp pp
0 50
0 50
0 50
ITEM: ENTRIES c_binfo[1] c_binfo[2] c_binfo[3] 
3 19226 19227 
3 19225 19226 
3 17702 17703 
3 11123 11124 
3 16232 16233 
3 16231 16232 
1 10152 16231 
3 10151 10152 
3 13916 13917 
1 13830 13915 
3 13915 13916 
3 1204 1205 
1 1204 13917 
1 5943 10150 
3 10150 10151 
3 1205 1206 
1 1206 18886 
2 16784 16785 
2 16783 16784 
1 11124 16785 
1 1059 14613 
1 6240 8482 
3 8482 8483 
3 1058 1059 
3 8483 8484 
1 5139 8484 
3 20141 20142 
3 20140 20141 
1 18969 20140 
3 5138 5139 
3 11902 11903 
1 11902 20142 
3 5137 5138 
1 5137 10386 
3 13535 13536 
3 10385 10386 
3 14612 14613 
3 1057 1058 
3 5239 5240 
1 5239 8049 
3 17888 17889 
1 4149 17889 
3 11903 11904 
3 11216 11217 
3 11215 11216 
3 8732 8733 
3 8731 8732 
1 14046 15969 
3 15968 15969 
3 4148 4149 
3 15967 15968 
3 4147 4148 
1 4147 12391 
3 12391 12392 
1 13791 15967 
3 14045 14046 
3 14044 14045 
1 14044 16807 
3 20591 20592 
3 20590 20591 
3 10435 10436 
1 10435 20590 
3 10436 10437 
1 10437 11830 
1 576 9462 
3 575 576 
3 574 575 
1 574 7459 
3 5284 5285 
3 21209 21210 
3 1634 1635 
3 1633 1634 
1 1633 21210 
3 11876 11877 
3 5218 5219 
3 5219 5220 
1 5220 16248 
3 16247 16248 
3 17701 17702 
1 11877 17701 
3 5942 5943 
3 16246 16247 
3 11122 11123 
1 11122 19510 
3 19510 19511 
3 19511 19512 
1 18888 19512 
3 18887 18888 
3 5941 5942 
1 5941 10077 
3 18886 18887 
3 10075 10076 
3 3058 3059 
1 3058 10075 
3 10076 10077 
3 6239 6240 
3 20425 20426 
3 6238 6239 
1 6238 20427 
3 20426 20427 
3 18052 18053 
1 18052 20425 
3 1303 1304 
1 1303 6459 
3 18968 18969 
3 6458 6459 
3 6457 6458 
1 6457 17262 
3 18967 18968 
3 21550 21551 
1 6453 21217 
3 6451 6452 
1 6451 21552 
3 6452 6453 
3 20126 20127 
3 7177 7178 
1 7177 18015 
3 7178 7179 
1 7179 15606 
3 14611 14612 
3 7810 7811 
1 7810 14611 
3 2326 2327 
1 2326 18291 
3 7811 7812 
3 1951 1952 
1 1951 7812 
3 1952 1953 
3 15605 15606 
3 15604 15605 
3 18290 18291 
3 17261 17262 
3 18289 18290 
3 8047 8048 
1 8047 18289 
3 8048 8049 
3 17260 17261 
3 17023 17024 
1 17023 17260 
3 17024 17025 
3 6197 6198 
3 1133 1134 
1 1134 11217 
3 1132 1133 
1 1132 6196 
3 6196 6197 
3 6946 6947 
1 6198 6946 
3 2327 2328 
1 2328 8731 
1 7443 8733 
3 1273 1274 
1 1273 15604 
3 1274 1275 
1 1275 9352 
3 9352 9353 
3 9353 9354 
1 9354 21549 
3 170 171 
1 171 11805 
3 21548 21549 
3 11804 11805 
3 11803 11804 
1 11803 12393 
3 12392 12393 
3 21547 21548 
3 4087 4088 
1 4087 21547 
3 4088 4089 
3 2161 2162 
1 2161 4089 
3 13790 13791 
3 2162 2163 
3 7442 7443 
3 9461 9462 
3 5680 5681 
3 7441 7442 
1 7441 9744 
3 9743 9744 
3 11830 11831 
3 9742 9743 
3 9460 9461 
1 9460 16056 
3 5681 5682 
1 2103 11832 
3 11831 11832 
3 2102 2103 
3 16703 16704 
3 15124 15125 
3 5437 5438 
1 5437 15124 
3 15125 15126 
3 21023 21024 
3 12251 12252 
3 16702 16703 
3 6730 6731 
1 3060 6732 
3 6731 6732 
1 12969 18210 
3 18209 18210 
3 11125 11126 
1 11125 18208 
3 18208 18209 
3 12968 12969 
3 11513 11514 
3 3059 3060 
3 12967 12968 
3 12250 12251 
1 12250 12967 
1 11514 12252 
3 11512 11513 
1 11512 19119 
3 18023 18024 
3 18022 18023 
3 11126 11127 
3 18053 18054 
3 1304 1305 
3 19954 19955 
3 19955 19956 
3 20023 20024 
1 19956 20023 
3 20024 20025 
3 7448 7449 
3 7447 7448 
1 7447 9378 
3 19979 19980 
3 21217 21218 
3 9377 9378 
3 9376 9377 
1 9376 14997 
3 18014 18015 
3 18013 18014 
3 15902 15903 
1 1953 19129 
3 18304 18305 
1 18304 19954 
3 12512 12513 
3 7066 7067 
1 7066 12513 
3 12511 12512 
1 12511 18054 
3 7067 7068 
3 6548 6549 
1 6549 9361 
3 9361 9362 
3 19129 19130 
3 19130 19131 
1 19131 19534 
3 19534 19535 
3 19978 19979 
3 6580 6581 
1 6580 19978 
3 6581 6582 
1 6582 8076 
3 8075 8076 
3 21218 21219 
3 12202 12203 
1 12202 12873 
3 12871 12872 
3 12872 12873 
3 6947 6948 
1 6948 16461 
3 12203 12204 
3 16460 16461 
1 7545 16459 
3 16459 16460 
3 169 170 
1 169 7068 
3 6547 6548 
1 6547 14580 
3 14579 14580 
1 12204 15070 
3 15070 15071 
3 15071 15072 
3 14578 14579 
1 14578 15072 
3 8522 8523 
3 8521 8522 
1 8521 20601 
3 13000 13001 
3 19535 19536 
3 5572 5573 
1 5572 19536 
3 5573 5574 
1 5574 11244 
3 13001 13002 
3 16019 16020 
1 2079 16020 
3 21284 21285 
3 21283 21284 
3 16018 16019 
1 8523 16018 
1 5682 21285 
3 11243 11244 
3 19895 19896 
3 11242 11243 
1 11242 19896 
3 328 329 
3 8942 8943 
2 15379 15380 
3 8941 8942 
1 8941 15379 
3 2101 2102 
1 2101 3084 
3 19894 19895 
3 3083 3084 
3 3082 3083 
1 3082 5250 
2 3635 3636 
2 16441 16442 
2 16442 16443 
2 3634 3635 
1 3634 16441 
3 5438 5439 
2 9661 9662 
1 9661 16443 
2 9662 9663 
1 7884 9663 
3 21022 21023 
3 5024 5025 
1 5025 7779 
3 3139 3140 
1 3139 5439 
3 3140 3141 
3 5023 5024 
3 7882 7883 
1 7882 11598 
3 1850 1851 
3 1849 1850 
1 1849 10051 
3 10051 10052 
3 6047 6048 
3 7883 7884 
1 1851 6046 
3 6046 6047 
3 8983 8984 
3 8984 8985 
1 8985 20389 
3 20389 20390 
3 20390 20391 
1 10407 21022 
3 10406 10407 
3 10405 10406 
3 9397 9398 
1 9397 10405 
3 9398 9399 
1 9399 20997 
3 7778 7779 
3 7777 7778 
1 7777 9114 
3 9113 9114 
3 11996 11997 
3 10052 10053 
1 5061 10053 
3 5060 5061 
3 9523 9524 
3 9524 9525 
3 5059 5060 
1 5059 9525 
3 1978 1979 
1 1978 11127 
3 14290 14291 
3 14291 14292 
3 1979 1980 
1 1980 14290 
3 20996 20997 
3 3218 3219 
3 20995 20996 
1 3219 20995 
3 8552 8553 
3 8551 8552 
1 8551 20025 
1 8553 11997 
3 7618 7619 
3 3130 3131 
1 3130 7618 
3 15901 15902 
1 15901 18306 
3 18305 18306 
3 9362 9363 
3 3217 3218 
1 3217 10746 
3 21224 21225 
3 10745 10746 
3 10744 10745 
3 1066 1067 
1 1066 10744 
3 1067 1068 
1 1068 11274 
3 21223 21224 
1 21223 21403 
1 9363 21225 
3 2656 2657 
3 11273 11274 
3 2657 2658 
3 11272 11273 
1 2658 11272 
2 14645 14646 
2 8413 8414 
1 8413 14644 
2 14644 14645 
2 8414 8415 
3 7544 7545 
3 18688 18689 
3 7543 7544 
1 7543 18688 
3 18689 18690 
1 15576 18690 
3 15575 15576 
3 20600 20601 
3 2678 2679 
3 3088 3089 
3 8074 8075 
1 936 8074 
3 935 936 
3 934 935 
1 934 15574 
3 15574 15575 
1 3090 5016 
3 3089 3090 
1 8415 14632 
3 14632 14633 
3 14633 14634 
1 14634 19446 
3 19445 19446 
2 2078 2079 
2 2077 2078 
1 9792 16186 
3 16186 16187 
3 9791 9792 
3 5015 5016 
3 5014 5015 
1 5014 20599 
3 9790 9791 
1 9790 15951 
3 20599 20600 
2 15380 15381 
3 16187 16188 
1 15381 16188 
2 236 237 
2 235 236 
1 235 5023 
3 11597 11598 
3 9112 9113 
3 3026 3027 
3 3025 3026 
1 3025 9112 
3 9493 9494 
3 9494 9495 
1 3027 18841 
3 18841 18842 
3 18842 18843 
1 14697 18843 
3 16097 16098 
3 7619 7620 
1 7620 16096 
3 16096 16097 
3 18979 18980 
3 18980 18981 
3 2461 2462 
3 2462 2463 
3 21403 21404 
3 21404 21405 
3 14695 14696 
1 14695 18981 
3 14696 14697 
1 19542 21405 
3 19541 19542 
3 19540 19541 
1 2355 19540 
1 2463 2677 
3 2677 2678 
2 2353 2354 
2 1568 1569 
2 1567 1568 
3 19444 19445 
1 19444 19681 
3 19681 19682 
2 15950 15951 
1 1569 15949 
2 15949 15950 
3 19682 19683 
2 2354 2355 
2 19492 19493 
2 8807 8808 
2 8806 8807 
1 8806 19492 
2 18197 18198 
2 18196 18197 
1 15552 18196 
3 21160 21161 
3 5593 5594 
1 5593 21160 
3 5594 5595 
2 1942 1943 
2 1943 1944 
3 11209 11210 
1 11209 19494 
1 633 11211 
3 11210 11211 
2 19493 19494 
3 17258 17259 
3 17257 17258 
3 631 632 
1 631 17257 
3 12328 12329 
1 12328 16233 
1 12330 15550 
2 15550 15551 
2 15551 15552 
3 12329 12330 
3 18691 18692 
3 18692 18693 
3 16025 16026 
3 10384 10385 
1 10384 18691 
3 21161 21162 
3 16024 16025 
1 16024 21162 
3 1906 1907 
1 1906 7860 
3 1907 1908 
3 16807 16808 
3 16808 16809 
1 1944 8170 
1 8172 16809 
2 8170 8171 
2 8171 8172 
1 1908 12628 
3 12628 12629 
3 12629 12630 
3 17887 17888 
3 5323 5324 
3 15128 15129 
3 15127 15128 
3 5324 5325 
3 12958 12959 
1 12960 15129 
3 12959 12960 
1 5325 10212 
3 10211 10212 
3 10210 10211 
3 11836 11837 
3 8029 8030 
1 7266 8029 
1 7368 10210 
3 7265 7266 
3 9058 9059 
3 5944 5945 
1 5944 8196 
3 5945 5946 
1 5946 16297 
3 16297 16298 
3 16298 16299 
3 9059 9060 
3 820 821 
1 820 9060 
3 59 60 
1 60 6096 
3 6095 6096 
3 6094 6095 
3 58 59 
1 8031 11836 
3 8030 8031 
3 3989 3990 
1 3990 9639 
3 3988 3989 
1 3988 21354 
3 13829 13830 
3 11837 11838 
3 9638 9639 
3 9637 9638 
1 9637 17325 
3 6562 6563 
1 6562 18966 
3 6563 6564 
1 6564 8994 
3 12995 12996 
1 12996 18004 
3 18004 18005 
3 18965 18966 
3 18964 18965 
1 11181 18964 
3 11180 11181 
3 18005 18006 
3 6517 6518 
1 6517 18006 
3 21352 21353 
3 21353 21354 
3 9655 9656 
1 9655 21352 
3 4859 4860 
3 4858 4859 
3 4526 4527 
3 9656 9657 
1 7488 8016 
3 10913 10914 
3 18584 18585 
1 10914 18585 
3 9763 9764 
1 4860 9763 
3 10912 10913 
1 4527 10912 
3 9764 9765 
1 16038 18583 
3 18583 18584 
3 7487 7488 
3 7486 7487 
3 12994 12995 
3 17252 17253 
1 17253 17850 
3 19769 19770 
3 17849 17850 
3 6301 6302 
1 15600 19770 
3 8410 8411 
3 19768 19769 
3 3955 3956 
1 3955 19768 
3 3956 3957 
3 391 392 
1 391 2617 
3 392 393 
3 4525 4526 
1 393 4525 
3 2618 2619 
3 2617 2618 
3 11020 11021 
3 11021 11022 
3 5240 5241 
3 16762 16763 
1 16762 17176 
3 18437 18438 
3 15769 15770 
1 15769 18438 
3 15770 15771 
3 4342 4343 
1 4342 9643 
3 16763 16764 
3 2974 2975 
1 2974 16764 
3 5003 5004 
3 11168 11169 
3 11167 11168 
1 11167 16953 
3 16952 16953 
3 16951 16952 
3 15599 15600 
2 18466 18467 
3 15598 15599 
1 15598 18466 
3 8411 8412 
2 18467 18468 
1 7461 14742 
3 14741 14742 
3 14740 14741 
1 2619 14740 
3 7460 7461 
3 9644 9645 
3 9643 9644 
3 2975 2976 
1 2976 19050 
1 5004 9645 
3 19049 19050 
3 19048 19049 
3 14194 14195 
1 14194 19048 
1 2883 5974 
3 5974 5975 
3 5975 5976 
3 2882 2883 
2 19942 19943 
3 2881 2882 
1 2881 19942 
2 19943 19944 
3 17246 17247 
3 7459 7460 
3 14195 14196 
3 5285 5286 
3 2138 2139 
3 5314 5315 
1 2139 5314 
1 5286 21208 
3 21208 21209 
3 5315 5316 
3 2137 2138 
1 2137 11875 
3 11875 11876 
3 21305 21306 
3 21304 21305 
1 11385 21304 
3 11384 11385 
3 11383 11384 
3 7264 7265 
1 7264 11383 
3 8195 8196 
3 8194 8195 
1 6126 8194 
3 6125 6126 
1 2325 20953 
3 20953 20954 
3 20954 20955 
3 821 822 
3 10460 10461 
3 13985 13986 
3 6124 6125 
1 6124 10459 
1 822 13984 
3 13984 13985 
3 10459 10460 
1 11460 14683 
2 14683 14684 
3 11459 11460 
3 2542 2543 
1 2542 13986 
3 2543 2544 
3 19430 19431 
3 19429 19430 
3 1585 1586 
1 1585 19429 
3 6367 6368 
1 6367 19117 
3 19117 19118 
3 19433 19434 
3 19432 19433 
1 6369 19434 
3 6368 6369 
3 8015 8016 
3 7367 7368 
3 7366 7367 
1 7366 19431 
3 17324 17325 
3 17323 17324 
1 17323 20955 
3 21028 21029 
3 20842 20843 
1 20842 21028 
3 20843 20844 
3 8014 8015 
1 8014 20844 
3 8993 8994 
3 20324 20325 
3 11458 11459 
1 11458 20325 
3 8992 8993 
1 8992 15123 
3 15122 15123 
3 15121 15122 
3 13078 13079 
1 13078 15121 
3 13079 13080 
1 13080 15223 
3 6518 6519 
3 15223 15224 
3 15224 15225 
1 15225 15610 
3 1586 1587 
1 1587 20266 
3 20266 20267 
3 20267 20268 
3 21551 21552 
3 13534 13535 
1 13534 19432 
3 20125 20126 
1 13536 20125 
3 1006 1007 
1 1006 20322 
3 1007 1008 
3 13379 13380 
3 17251 17252 
3 6512 6513 
3 6511 6512 
1 6511 13611 
1 3957 11056 
3 11056 11057 
3 11057 11058 
1 11058 12763 
3 12763 12764 
3 18598 18599 
1 18598 20268 
3 18599 18600 
3 15154 15155 
1 15154 18600 
3 9110 9111 
3 15155 15156 
3 18436 18437 
1 18436 20320 
3 4343 4344 
3 20320 20321 
3 20321 20322 
3 9109 9110 
1 105 9109 
3 5671 5672 
1 5671 11169 
3 5672 5673 
3 13610 13611 
3 1511 1512 
3 1510 1511 
3 17470 17471 
3 13789 13790 
1 13789 17470 
1 2163 15156 
1 8703 17472 
3 17471 17472 
3 8702 8703 
3 8701 8702 
1 8701 9111 
3 17810 17811 
3 1196 1197 
1 1197 4344 
3 1195 1196 
1 1195 11076 
3 11075 11076 
1 7695 11074 
3 11074 11075 
3 17245 17246 
1 1296 17809 
3 17809 17810 
3 1295 1296 
3 1294 1295 
1 1294 17245 
3 20 21 
3 7694 7695 
3 7693 7694 
3 19 20 
1 19 7693 
1 14196 14503 
3 14504 14505 
3 14503 14504 
3 14606 14607 
1 6 14607 
3 4 5 
3 5 6 
3 16055 16056 
3 16054 16055 
1 10608 14505 
3 10607 10608 
1 4854 10606 
3 10606 10607 
3 9712 9713 
3 3184 3185 
1 3184 9712 
3 9713 9714 
3 3185 3186 
3 14138 14139 
1 14139 16704 
3 3571 3572 
3 3572 3573 
3 17837 17838 
1 3186 21306 
3 15286 15287 
1 15286 18955 
3 15287 15288 
3 18955 18956 
3 18956 18957 
3 2324 2325 
3 17011 17012 
1 17011 18957 
3 17012 17013 
3 2323 2324 
1 2323 17013 
1 10461 17838 
1 8868 10491 
3 8867 8868 
3 8866 8867 
3 17836 17837 
2 15611 15612 
3 19118 19119 
3 3503 3504 
3 3502 3503 
1 3502 21030 
3 18020 18021 
1 3504 10171 
3 19481 19482 
3 19480 19481 
3 10171 10172 
3 10172 10173 
3 21029 21030 
3 18019 18020 
1 17901 18019 
3 17900 17901 
3 20633 20634 
3 20632 20633 
3 10819 10820 
1 10819 20634 
3 10820 10821 
3 17899 17900 
1 17899 18675 
3 20323 20324 
1 20323 20632 
3 4442 4443 
3 4441 4442 
2 14684 14685 
2 15610 15611 
3 5866 5867 
1 5866 19480 
3 6832 6833 
1 6832 10173 
3 6833 6834 
1 5739 6834 
3 5738 5739 
3 5867 5868 
3 5737 5738 
3 4984 4985 
1 4984 5737 
3 13378 13379 
1 13378 21004 
3 21004 21005 
1 13380 18828 
3 21005 21006 
1 6801 17518 
3 4985 4986 
3 17519 17520 
3 17518 17519 
1 4986 17520 
1 4443 11551 
3 11551 11552 
3 11552 11553 
1 11553 21006 
3 6800 6801 
3 3509 3510 
3 20101 20102 
3 20102 20103 
1 3510 20101 
3 3508 3509 
3 14677 14678 
3 15911 15912 
3 12764 12765 
1 12765 15912 
3 15910 15911 
3 1681 1682 
1 1681 17025 
3 18827 18828 
3 1682 1683 
3 4616 4617 
1 12624 15219 
3 15218 15219 
3 4615 4616 
1 4615 18826 
3 18826 18827 
3 4042 4043 
1 4042 4617 
3 15217 15218 
1 15217 21219 
3 103 104 
1 103 630 
3 104 105 
3 629 630 
3 628 629 
1 628 3508 
3 10582 10583 
1 10582 13864 
3 13864 13865 
3 13865 13866 
3 11386 11387 
3 13609 13610 
1 4425 13609 
3 4424 4425 
3 4423 4424 
1 13866 14679 
3 14678 14679 
3 13339 13340 
3 13340 13341 
1 1683 13339 
3 1930 1931 
1 1930 13341 
3 12623 12624 
3 12622 12623 
1 12543 13002 
3 12541 12542 
1 12541 17811 
3 12542 12543 
3 1931 1932 
3 11387 11388 
1 1932 5161 
3 3967 3968 
1 3967 11388 
3 3968 3969 
3 11657 11658 
3 5248 5249 
1 21 5248 
3 329 330 
3 14605 14606 
1 14605 14832 
2 5161 5162 
2 5162 5163 
3 14831 14832 
3 5249 5250 
2 4877 4878 
2 4876 4877 
1 4876 17589 
3 14830 14831 
2 9848 9849 
2 9847 9848 
1 9847 14830 
3 17588 17589 
2 4852 4853 
1 4852 17587 
2 4853 4854 
3 17587 17588 
3 14137 14138 
3 10999 11000 
3 11000 11001 
1 6048 11001 
3 6884 6885 
3 6883 6884 
1 6883 17067 
3 17066 17067 
3 9758 9759 
3 9757 9758 
1 8394 9757 
3 8392 8393 
3 8393 8394 
1 10182 15288 
3 10181 10182 
3 10180 10181 
1 8637 10180 
3 8636 8637 
1 6876 7501 
3 7501 7502 
3 17065 17066 
3 6874 6875 
1 6874 17065 
3 6875 6876 
3 18674 18675 
1 10821 19698 
3 18673 18674 
3 2176 2177 
1 2176 18673 
3 2177 2178 
3 19697 19698 
1 2178 15768 
1 8538 10489 
3 10489 10490 
3 10490 10491 
3 8537 8538 
3 14846 14847 
3 15767 15768 
3 14845 14846 
3 7996 7997 
1 7996 14845 
3 7502 7503 
1 7503 11995 
3 11995 11996 
3 4855 4856 
1 4855 14995 
3 14995 14996 
3 4856 4857 
1 4857 18912 
3 14996 14997 
3 5317 5318 
3 19696 19697 
3 18910 18911 
1 18910 19696 
3 18911 18912 
1 8640 13710 
3 5318 5319 
3 8536 8537 
3 6799 6800 
1 6799 8536 
3 13708 13709 
3 13709 13710 
3 2633 2634 
3 2632 2633 
1 2632 14847 
1 2634 5514 
3 5513 5514 
3 8819 8820 
3 5512 5513 
1 5512 8818 
3 8818 8819 
3 4043 4044 
1 4044 17797 
3 17797 17798 
3 17195 17196 
3 17194 17195 
3 10583 10584 
3 8638 8639 
3 8639 8640 
3 11656 11657 
1 10584 11656 
3 17674 17675 
3 15007 15008 
1 15007 17674 
3 17675 17676 
3 17798 17799 
3 12928 12929 
1 12928 17799 
3 8846 8847 
1 2643 8847 
3 8845 8846 
1 8845 17676 
3 2642 2643 
3 8033 8034 
3 8032 8033 
1 8032 9810 
1 8820 21319 
3 2641 2642 
1 27 2641 
2 21319 21320 
2 21320 21321 
3 8633 8634 
3 9371 9372 
3 8632 8633 
1 8632 9372 
3 9370 9371 
1 9370 10689 
3 11356 11357 
3 11357 11358 
3 15008 15009 
2 25 26 
2 26 27 
3 10688 10689 
3 10687 10688 
1 10687 10930 
2 10930 10931 
2 10931 10932 
2 19850 19851 
2 19849 19850 
1 4878 10932 
1 5949 9849 
2 5948 5949 
2 5947 5948 
3 10534 10535 
1 10534 11596 
3 11596 11597 
3 18520 18521 
3 8635 8636 
1 8635 18751 
3 18751 18752 
1 10536 19044 
3 10535 10536 
3 19043 19044 
3 10837 10838 
1 10837 18753 
3 18752 18753 
3 19042 19043 
3 14531 14532 
3 12025 12026 
1 12025 19042 
3 12026 12027 
3 1384 1385 
1 1384 1503 
3 1385 1386 
3 18521 18522 
3 15766 15767 
1 1386 18522 
3 7997 7998 
1 10839 13947 
3 10838 10839 
3 3131 3132 
3 13946 13947 
3 13945 13946 
3 1502 1503 
1 12930 13945 
3 1501 1502 
1 1501 5274 
3 5273 5274 
3 21275 21276 
3 21274 21275 
3 5272 5273 
1 5272 8034 
3 12929 12930 
3 9809 9810 
3 9808 9809 
3 12158 12159 
2 6374 6375 
2 6373 6374 
3 12157 12158 
3 14530 14531 
2 19195 19196 
2 5992 5993 
1 5992 13843 
3 13843 13844 
2 5993 5994 
1 984 5595 
3 983 984 
2 15317 15318 
2 15316 15317 
3 4151 4152 
3 4091 4092 
1 4152 19300 
3 19300 19301 
3 19301 19302 
1 4092 19302 
3 4090 4091 
3 632 633 
3 1576 1577 
1 1576 7422 
3 7420 7421 
3 7421 7422 
1 1578 11838 
3 1577 1578 
3 13828 13829 
1 13828 18373 
3 18373 18374 
3 18374 18375 
3 13459 13460 
3 13460 13461 
3 7346 7347 
1 7347 16299 
3 7345 7346 
2 19196 19197 
1 19197 19555 
3 19555 19556 
3 19556 19557 
1 6303 19557 
3 11179 11180 
1 11179 15277 
2 15277 15278 
3 4322 4323 
3 5786 5787 
1 5787 9657 
3 4321 4322 
1 4321 13459 
1 3399 18693 
3 3398 3399 
3 3397 3398 
3 2164 2165 
1 2164 3397 
3 2165 2166 
3 16036 16037 
1 13845 16036 
3 16037 16038 
3 13844 13845 
3 17848 17849 
3 17566 17567 
3 12031 12032 
1 12031 17566 
3 6302 6303 
1 15279 17568 
3 17567 17568 
3 12032 12033 
2 15278 15279 
3 17176 17177 
3 7858 7859 
3 7859 7860 
3 5785 5786 
1 5785 7858 
3 4451 4452 
3 17177 17178 
1 4452 11022 
1 2166 17178 
3 21542 21543 
3 982 983 
1 982 21543 
3 21541 21542 
3 13202 13203 
3 13201 13202 
1 13201 15318 
3 19837 19838 
1 12630 19837 
3 19838 19839 
3 4450 4451 
3 16346 16347 
1 16347 19839 
3 16345 16346 
3 16615 16616 
1 16615 21541 
3 16616 16617 
3 5002 5003 
1 5002 16617 
1 5346 19944 
2 5345 5346 
3 4150 4151 
1 4150 5344 
2 5344 5345 
