ITEM: TIMESTEP
0
ITEM: NUMBER OF ATOMS
531
ITEM: BOX BOUNDS pp pp pp
0.0000000000000000e+00 5.0000000000000000e+01
0.0000000000000000e+00 5.0000000000000000e+01
0.0000000000000000e+00 5.0000000000000000e+01
ITEM: ATOMS id type 
430 1 
431 2 
432 1 
1222 1 
1223 2 
1224 1 
1276 1 
1277 2 
1278 1 
1513 1 
1514 2 
1515 1 
1522 1 
1523 2 
1524 1 
2356 1 
2357 2 
2358 1 
2416 1 
2417 2 
2418 1 
3244 1 
3245 2 
3246 1 
3310 1 
3311 2 
3312 1 
3436 1 
3437 2 
3438 1 
3724 1 
3725 2 
3726 1 
4408 1 
4409 2 
4410 1 
4705 1 
4706 2 
4707 1 
5590 1 
5591 2 
5592 1 
6019 1 
6020 2 
6021 1 
6022 1 
6023 2 
6024 1 
6664 1 
6665 2 
6666 1 
6781 1 
6782 2 
6783 1 
6901 1 
6902 2 
6903 1 
7027 1 
7028 2 
7029 1 
7867 1 
7868 2 
7869 1 
7930 1 
7931 2 
7932 1 
9196 1 
9197 2 
9198 1 
10216 1 
10217 3 
10218 1 
10465 1 
10466 2 
10467 1 
11101 1 
11102 2 
11103 1 
11113 1 
11114 2 
11115 1 
11128 1 
11129 3 
11130 1 
12241 1 
12242 2 
12243 1 
12562 1 
12563 2 
12564 1 
13141 1 
13142 2 
13143 1 
13165 1 
13166 2 
13167 1 
13453 1 
13454 2 
13455 1 
14296 1 
14297 2 
14298 1 
14521 1 
14522 2 
14523 1 
14590 1 
14591 2 
14592 1 
15685 1 
15686 2 
15687 1 
17413 1 
17414 2 
17415 1 
17650 1 
17651 2 
17652 1 
18565 1 
18566 2 
18567 1 
18727 1 
18728 2 
18729 1 
19585 1 
19586 2 
19587 1 
19690 1 
19691 2 
19692 1 
280 1 
281 2 
282 1 
331 1 
332 2 
333 1 
1177 1 
1178 3 
1179 1 
1297 1 
1298 2 
1299 1 
1372 1 
1373 2 
1374 1 
1426 1 
1427 3 
1428 1 
1609 1 
1610 2 
1611 1 
2434 1 
2435 2 
2436 1 
3349 1 
3350 2 
3351 1 
3511 1 
3512 2 
3513 1 
3520 1 
3521 2 
3522 1 
4549 1 
4550 2 
4551 1 
4594 1 
4595 2 
4596 1 
4606 1 
4607 2 
4608 1 
4837 1 
4838 2 
4839 1 
5494 1 
5495 2 
5496 1 
5854 1 
5855 2 
5856 1 
6712 1 
6713 2 
6714 1 
6931 1 
6932 2 
6933 1 
7189 1 
7190 2 
7191 1 
8269 1 
8270 2 
8271 1 
8929 1 
8930 2 
8931 1 
9175 1 
9176 3 
9177 1 
10357 1 
10358 2 
10359 1 
12298 1 
12299 2 
12300 1 
12571 1 
12572 2 
12573 1 
12598 1 
12599 2 
12600 1 
12631 1 
12632 2 
12633 1 
13303 1 
13304 2 
13305 1 
13438 1 
13439 3 
13440 1 
14383 1 
14384 2 
14385 1 
15511 1 
15512 2 
15513 1 
15637 1 
15638 2 
15639 1 
16591 1 
16592 2 
16593 1 
18478 1 
18479 2 
18480 1 
18526 1 
18527 2 
18528 1 
18592 1 
18593 2 
18594 1 
18655 1 
18656 3 
18657 1 
19720 1 
19721 2 
19722 1 
19858 1 
19859 2 
19860 1 
20575 1 
20576 2 
20577 1 
20578 1 
20579 2 
20580 1 
20611 1 
20612 2 
20613 1 
625 1 
626 2 
627 1 
745 1 
746 2 
747 1 
970 1 
971 2 
972 1 
973 1 
974 3 
975 1 
1093 1 
1094 2 
1095 1 
1750 1 
1751 2 
1752 1 
2059 1 
2060 2 
2061 1 
2896 1 
2897 2 
2898 1 
3079 1 
3080 2 
3081 1 
4222 1 
4223 2 
4224 1 
6508 1 
6509 3 
6510 1 
7405 1 
7406 2 
7407 1 
9613 1 
9614 3 
9615 1 
9733 1 
9734 2 
9735 1 
9781 1 
9782 2 
9783 1 
9910 1 
9911 2 
9912 1 
10621 1 
10622 2 
10623 1 
11542 1 
11543 2 
11544 1 
11719 1 
11720 2 
11721 1 
11773 1 
11774 3 
11775 1 
11779 1 
11780 2 
11781 1 
11950 1 
11951 2 
11952 1 
12742 1 
12743 2 
12744 1 
12922 1 
12923 2 
12924 1 
13093 1 
13094 3 
13095 1 
13099 1 
13100 3 
13101 1 
13876 1 
13877 2 
13878 1 
13939 1 
13940 2 
13941 1 
14101 1 
14102 2 
14103 1 
14161 1 
14162 2 
14163 1 
14173 1 
14174 2 
14175 1 
14836 1 
14837 2 
14838 1 
14887 1 
14888 2 
14889 1 
14965 1 
14966 2 
14967 1 
16204 1 
16205 3 
16206 1 
16207 1 
16208 2 
16209 1 
16747 1 
16748 2 
16749 1 
16822 1 
16823 2 
16824 1 
16882 1 
16883 2 
16884 1 
17062 1 
17063 2 
17064 1 
17185 1 
17186 2 
17187 1 
18187 1 
18188 3 
18189 1 
19084 1 
19085 2 
19086 1 
19096 1 
19097 2 
19098 1 
20104 1 
20105 2 
20106 1 
20161 1 
20162 2 
20163 1 
21130 1 
21131 2 
21132 1 
586 1 
587 2 
588 1 
931 1 
932 2 
933 1 
1015 1 
1016 2 
1017 1 
1018 1 
1019 2 
1020 1 
1060 1 
1061 2 
1062 1 
1795 1 
1796 2 
1797 1 
1966 1 
1967 2 
1968 1 
2983 1 
2984 2 
2985 1 
4249 1 
4250 2 
4251 1 
5077 1 
5078 3 
5079 1 
5329 1 
5330 2 
5331 1 
5431 1 
5432 2 
5433 1 
6229 1 
6230 2 
6231 1 
6535 1 
6536 2 
6537 1 
6586 1 
6587 2 
6588 1 
7675 1 
7676 3 
7677 1 
8500 1 
8501 2 
8502 1 
8509 1 
8510 2 
8511 1 
9577 1 
9578 2 
9579 1 
9700 1 
9701 2 
9702 1 
9895 1 
9896 2 
9897 1 
10618 1 
10619 2 
10620 1 
10846 1 
10847 2 
10848 1 
11749 1 
11750 2 
11751 1 
11983 1 
11984 2 
11985 1 
13006 1 
13007 2 
13008 1 
13009 1 
13010 2 
13011 1 
13018 1 
13019 2 
13020 1 
13966 1 
13967 2 
13968 1 
14098 1 
14099 3 
14100 1 
14731 1 
14732 2 
14733 1 
14851 1 
14852 2 
14853 1 
14971 1 
14972 2 
14973 1 
15100 1 
15101 2 
15102 1 
16006 1 
16007 2 
16008 1 
16249 1 
16250 2 
16251 1 
16780 1 
16781 2 
16782 1 
17851 1 
17852 2 
17853 1 
17971 1 
17972 2 
17973 1 
18178 1 
18179 2 
18180 1 
18931 1 
18932 2 
18933 1 
19369 1 
19370 2 
19371 1 
20371 1 
20372 2 
20373 1 
21580 1 
21581 2 
21582 1 
