ITEM: TIMESTEP
0
ITEM: NUMBER OF ATOMS
195
ITEM: BOX BOUNDS pp pp pp
0.0000000000000000e+00 5.0000000000000000e+01
0.0000000000000000e+00 5.0000000000000000e+01
0.0000000000000000e+00 5.0000000000000000e+01
ITEM: ATOMS id type 
1339 1 
1340 2 
1341 1 
3202 1 
3203 2 
3204 1 
3484 1 
3485 2 
3486 1 
6010 1 
6011 3 
6012 1 
7201 1 
7202 2 
7203 1 
8287 1 
8288 2 
8289 1 
12547 1 
12548 3 
12549 1 
13222 1 
13223 2 
13224 1 
13327 1 
13328 2 
13329 1 
14236 1 
14237 2 
14238 1 
16525 1 
16526 2 
16527 1 
18382 1 
18383 2 
18384 1 
20725 1 
20726 2 
20727 1 
1234 1 
1235 3 
1236 1 
2383 1 
2384 2 
2385 1 
4546 1 
4547 2 
4548 1 
16735 1 
16736 2 
16737 1 
17317 1 
17318 2 
17319 1 
17335 1 
17336 2 
17337 1 
18658 1 
18659 2 
18660 1 
19726 1 
19727 2 
19728 1 
20917 1 
20918 2 
20919 1 
904 1 
905 2 
906 1 
2185 1 
2186 2 
2187 1 
2728 1 
2729 2 
2730 1 
3013 1 
3014 2 
3015 1 
4210 1 
4211 2 
4212 1 
5413 1 
5414 3 
5415 1 
6361 1 
6362 2 
6363 1 
7336 1 
7337 3 
7338 1 
11008 1 
11009 2 
11010 1 
13822 1 
13823 3 
13824 1 
14050 1 
14051 2 
14052 1 
14788 1 
14789 3 
14790 1 
15088 1 
15089 2 
15090 1 
15985 1 
15986 2 
15987 1 
16156 1 
16157 3 
16158 1 
16885 1 
16886 2 
16887 1 
18241 1 
18242 2 
18243 1 
18904 1 
18905 2 
18906 1 
18925 1 
18926 2 
18927 1 
20056 1 
20057 2 
20058 1 
1717 1 
1718 2 
1719 1 
2092 1 
2093 2 
2094 1 
2140 1 
2141 2 
2142 1 
3949 1 
3950 2 
3951 1 
4117 1 
4118 2 
4119 1 
5032 1 
5033 3 
5034 1 
8569 1 
8570 2 
8571 1 
9649 1 
9650 2 
9651 1 
9814 1 
9815 3 
9816 1 
9838 1 
9839 2 
9840 1 
10966 1 
10967 2 
10968 1 
11791 1 
11792 2 
11793 1 
11917 1 
11918 2 
11919 1 
12814 1 
12815 2 
12816 1 
13117 1 
13118 2 
13119 1 
14809 1 
14810 2 
14811 1 
14914 1 
14915 2 
14916 1 
14923 1 
14924 2 
14925 1 
19000 1 
19001 2 
19002 1 
19072 1 
19073 3 
19074 1 
20074 1 
20075 2 
20076 1 
20251 1 
20252 2 
20253 1 
20392 1 
20393 2 
20394 1 
