ITEM: TIMESTEP
35000000
ITEM: NUMBER OF ENTRIES
2083
ITEM: BOX BOUNDS pp pp pp
0 50
0 50
0 50
ITEM: ENTRIES c_binfo[1] c_binfo[2] c_binfo[3] 
2 13669 13670 
2 13670 13671 
2 6170 6171 
1 5232 6171 
2 5231 5232 
2 14983 14984 
2 14984 14985 
2 17770 17771 
1 13671 17772 
2 17771 17772 
2 7631 7632 
2 15052 15053 
2 7630 7631 
1 7630 15052 
2 15053 15054 
2 5230 5231 
2 9983 9984 
2 9982 9983 
3 18272 18273 
2 5908 5909 
2 5909 5910 
2 3157 3158 
1 3157 16878 
2 6394 6395 
1 6394 18939 
2 18049 18050 
1 324 18049 
2 18050 18051 
2 16876 16877 
2 16877 16878 
2 323 324 
1 11787 17904 
3 11786 11787 
1 11784 12483 
3 12482 12483 
3 15230 15231 
3 11785 11786 
3 11782 11783 
1 11782 15231 
3 133 134 
3 134 135 
1 135 16132 
3 16132 16133 
2 1054 1055 
1 1054 13362 
2 1055 1056 
3 16133 16134 
1 16134 17823 
2 17822 17823 
1 1056 15229 
3 15229 15230 
2 17821 17822 
1 17821 18295 
2 17 18 
2 18295 18296 
2 18296 18297 
2 13712 13713 
1 13713 18297 
2 13711 13712 
2 6181 6182 
1 6183 13711 
2 6182 6183 
2 268 269 
1 268 9982 
2 269 270 
2 2996 2997 
2 2995 2996 
1 2995 11092 
2 11092 11093 
2 7361 7362 
1 7362 11094 
2 11093 11094 
3 13925 13926 
3 13924 13925 
2 3158 3159 
1 3159 13926 
2 18937 18938 
1 18937 19188 
2 19186 19187 
2 19187 19188 
2 18938 18939 
2 7360 7361 
1 7360 13924 
3 9154 9155 
3 9155 9156 
3 21470 21471 
3 21469 21470 
3 11239 11240 
1 11239 21471 
3 5789 5790 
3 5788 5789 
1 5788 16027 
3 16027 16028 
1 5790 18922 
3 16028 16029 
3 11311 11312 
3 4651 4652 
1 4651 16029 
3 11312 11313 
1 11313 16149 
3 16148 16149 
3 16147 16148 
3 13627 13628 
3 11783 11784 
2 9640 9641 
2 9641 9642 
1 9642 16404 
1 585 16402 
3 16402 16403 
3 16403 16404 
2 584 585 
2 5213 5214 
2 13360 13361 
2 13361 13362 
1 5214 13360 
2 19661 19662 
1 14961 19662 
1 9891 11518 
2 19660 19661 
2 583 584 
1 583 19660 
2 9890 9891 
2 11519 11520 
2 11518 11519 
1 2997 16371 
2 8794 8795 
1 8796 19798 
2 8795 8796 
2 7093 7094 
3 5302 5303 
3 5009 5010 
1 7095 18399 
2 7094 7095 
2 18398 18399 
2 18397 18398 
1 12195 18397 
3 12194 12195 
3 12193 12194 
1 8283 12193 
3 8282 8283 
3 9872 9873 
3 18922 18923 
3 8281 8282 
1 8281 17605 
3 18923 18924 
3 17605 17606 
3 17606 17607 
3 9169 9170 
3 6488 6489 
1 6489 9169 
3 18998 18999 
3 18997 18998 
3 7669 7670 
1 7669 14484 
3 14959 14960 
3 14960 14961 
2 3002 3003 
2 3001 3002 
1 3001 7356 
1 3003 11520 
3 19798 19799 
3 19799 19800 
3 5303 5304 
2 3580 3581 
1 3580 5304 
2 3581 3582 
1 3582 9871 
3 9871 9872 
1 7938 15337 
3 7937 7938 
3 15337 15338 
3 15338 15339 
3 12469 12470 
1 9174 15537 
3 14483 14484 
3 14482 14483 
3 9172 9173 
1 9172 14482 
3 9173 9174 
3 12470 12471 
2 14270 14271 
1 14172 14269 
2 14269 14270 
2 14171 14172 
2 14170 14171 
1 14170 15283 
3 15283 15284 
1 15285 15535 
3 15284 15285 
3 15535 15536 
3 7936 7937 
3 15536 15537 
2 6868 6869 
1 894 6868 
2 6869 6870 
1 6870 9298 
3 8843 8844 
3 8842 8843 
1 8842 14323 
3 893 894 
3 892 893 
2 14324 14325 
2 14323 14324 
2 4912 4913 
1 4912 14325 
3 1552 1553 
3 1553 1554 
1 1554 15700 
3 10526 10527 
3 10525 10526 
1 10525 17902 
3 17902 17903 
3 17903 17904 
1 10527 18202 
3 18202 18203 
3 18203 18204 
1 11097 18204 
3 11096 11097 
1 2706 11554 
3 2704 2705 
3 2705 2706 
3 21452 21453 
3 13559 13560 
1 8844 21451 
3 21451 21452 
3 11555 11556 
3 11554 11555 
3 12287 12288 
3 12286 12287 
3 2206 2207 
1 2206 15702 
3 2207 2208 
3 9518 9519 
3 9517 9518 
1 9517 11241 
1 9519 12288 
3 15700 15701 
3 15701 15702 
3 18094 18095 
3 3821 3822 
3 3820 3821 
1 3820 18094 
1 1689 3822 
3 1687 1688 
3 1688 1689 
1 2208 4653 
1 4293 18247 
3 18247 18248 
3 18248 18249 
3 12481 12482 
1 12481 18249 
3 4652 4653 
3 4292 4293 
3 1945 1946 
3 4291 4292 
3 1946 1947 
1 1947 4291 
3 11095 11096 
1 2502 6999 
3 6997 6998 
1 6997 11095 
3 6998 6999 
2 755 756 
3 14480 14481 
3 15422 15423 
1 15423 20254 
3 14479 14480 
3 15421 15422 
2 7819 7820 
1 7819 15421 
1 291 405 
3 290 291 
3 20254 20255 
3 404 405 
3 2501 2502 
3 2500 2501 
1 2500 20256 
3 20255 20256 
3 6847 6848 
1 6847 11152 
3 11152 11153 
3 11048 11049 
2 19228 19229 
1 11049 19228 
1 13650 19230 
3 11153 11154 
3 11047 11048 
2 19229 19230 
1 13059 20550 
3 11240 11241 
3 20548 20549 
3 20549 20550 
3 18095 18096 
1 18096 20548 
3 13753 13754 
3 7168 7169 
1 7168 13755 
3 13754 13755 
3 7169 7170 
1 3222 7170 
3 9380 9381 
3 9379 9380 
1 9379 13923 
3 427 428 
3 13058 13059 
3 13057 13058 
3 6487 6488 
1 6487 13057 
1 429 1704 
3 428 429 
3 1702 1703 
1 1702 18238 
3 1703 1704 
1 3978 10522 
3 10522 10523 
3 3976 3977 
1 3976 5505 
3 5504 5505 
3 5503 5504 
1 5503 6100 
3 6100 6101 
3 2891 2892 
1 2892 6849 
3 6848 6849 
3 3977 3978 
3 5926 5927 
1 5926 6306 
3 6101 6102 
2 754 755 
1 754 6102 
3 13921 13922 
1 13921 13993 
3 13993 13994 
3 13994 13995 
3 13922 13923 
3 7363 7364 
1 13629 14481 
3 13628 13629 
3 6935 6936 
1 4761 8602 
3 2890 2891 
1 2890 6936 
3 6934 6935 
1 6934 8604 
3 8602 8603 
3 8603 8604 
3 3187 3188 
3 1081 1082 
1 1081 3187 
3 3188 3189 
3 403 404 
1 403 3189 
3 5927 5928 
3 3293 3294 
3 3292 3293 
1 3294 5928 
3 13649 13650 
3 13648 13649 
1 11154 13648 
1 7365 8077 
3 8077 8078 
3 8078 8079 
3 7364 7365 
3 20174 20175 
3 20173 20174 
3 5008 5009 
1 5008 20173 
3 3221 3222 
3 3220 3221 
1 3220 14082 
1 9171 14508 
3 18238 18239 
3 10523 10524 
3 18239 18240 
3 20053 20054 
3 9170 9171 
3 14081 14082 
3 6304 6305 
1 6304 14080 
3 14080 14081 
3 6305 6306 
1 9723 18424 
3 18424 18425 
3 7670 7671 
3 4760 4761 
3 1408 1409 
1 1408 4759 
3 1409 1410 
3 4759 4760 
1 10047 12847 
3 12847 12848 
1 12849 13950 
3 12848 12849 
1 7671 18240 
1 495 17134 
3 1082 1083 
3 18425 18426 
1 1083 4285 
3 4285 4286 
3 4286 4287 
3 17135 17136 
3 16759 16760 
1 4287 16759 
3 5824 5825 
1 5824 17136 
3 5825 5826 
3 10612 10613 
1 10612 18426 
3 10613 10614 
3 17134 17135 
1 8079 10614 
3 6977 6978 
3 6976 6977 
3 14506 14507 
3 16144 16145 
3 16145 16146 
3 14507 14508 
3 9722 9723 
3 20054 20055 
3 9721 9722 
1 6978 9721 
3 13949 13950 
3 13948 13949 
1 13948 18663 
2 18662 18663 
3 16760 16761 
1 15294 16761 
3 15293 15294 
2 18661 18662 
1 18661 19411 
2 19411 19412 
2 19351 19352 
1 19351 19413 
2 19412 19413 
2 19352 19353 
3 15292 15293 
2 4205 4206 
2 21019 21020 
3 10235 10236 
3 15737 15738 
3 15736 15737 
1 10236 15736 
3 10234 10235 
1 10234 19378 
2 19378 19379 
2 12019 12020 
2 4204 4205 
3 10676 10677 
3 10675 10676 
1 10675 13429 
2 11143 11144 
2 13430 13431 
2 13429 13430 
1 3639 13431 
2 3638 3639 
2 14563 14564 
2 6439 6440 
1 6439 14563 
2 14564 14565 
2 5149 5150 
1 5149 20098 
2 20099 20100 
2 20098 20099 
2 1363 1364 
1 1363 14565 
2 1364 1365 
2 5150 5151 
1 5151 17040 
2 17860 17861 
1 5940 11143 
2 5939 5940 
2 5938 5939 
1 5938 13479 
2 13478 13479 
2 13477 13478 
1 12042 13477 
2 12041 12042 
2 12040 12041 
1 12040 14062 
2 14062 14063 
2 14063 14064 
2 21020 21021 
2 2804 2805 
3 20672 20673 
3 20671 20672 
1 20671 21462 
2 19379 19380 
1 19380 20673 
2 14657 14658 
2 14656 14657 
2 12020 12021 
2 19180 19181 
1 12021 19180 
2 19181 19182 
2 953 954 
2 952 953 
1 952 19182 
2 662 663 
2 661 662 
1 661 4474 
2 4474 4475 
2 18814 18815 
2 18815 18816 
3 7480 7481 
1 7480 8407 
2 8407 8408 
3 7481 7482 
3 3685 3686 
1 3685 11857 
3 3686 3687 
2 3163 3164 
1 3163 3687 
2 3164 3165 
1 3165 12322 
3 6571 6572 
2 3362 3363 
2 3361 3362 
1 3361 7098 
2 7097 7098 
1 3363 6169 
2 7096 7097 
2 7103 7104 
2 4957 4958 
1 4957 15150 
2 15149 15150 
1 7104 15148 
2 15148 15149 
2 11857 11858 
2 11858 11859 
2 4958 4959 
2 16228 16229 
2 16229 16230 
1 14517 16230 
2 14516 14517 
2 14515 14516 
2 1027 1028 
1 1027 14515 
2 10708 10709 
1 10708 19795 
2 14896 14897 
1 11145 11307 
2 11306 11307 
2 13786 13787 
2 1789 1790 
1 1789 13786 
2 11305 11306 
1 11305 19711 
2 19711 19712 
2 17926 17927 
2 11144 11145 
2 13787 13788 
2 12136 12137 
1 12136 13788 
2 12137 12138 
2 7102 7103 
1 7102 12138 
2 3637 3638 
1 3637 13596 
2 13595 13596 
2 4757 4758 
2 4756 4757 
2 6440 6441 
1 11973 15240 
2 15239 15240 
2 15238 15239 
2 11972 11973 
2 13193 13194 
2 13192 13193 
2 11971 11972 
1 11971 16924 
2 16924 16925 
2 16925 16926 
2 10709 10710 
2 13391 13392 
2 13390 13391 
1 10710 13392 
2 7832 7833 
2 7831 7832 
1 7831 7971 
2 19712 19713 
2 17861 17862 
2 4510 4511 
1 4510 11709 
2 11708 11709 
2 11707 11708 
1 954 4512 
2 4511 4512 
2 13594 13595 
1 2913 13594 
2 2912 2913 
2 2911 2912 
1 2911 7702 
2 7702 7703 
2 12509 12510 
2 7945 7946 
1 7945 14064 
2 12508 12509 
1 12508 20199 
2 7946 7947 
1 7947 9612 
2 20198 20199 
2 9611 9612 
2 9610 9611 
2 17039 17040 
2 17038 17039 
1 17038 17616 
1 6576 9610 
2 17615 17616 
2 17614 17615 
2 2803 2804 
1 2803 17614 
2 21461 21462 
2 10249 10250 
2 4253 4254 
1 4254 10251 
2 10250 10251 
2 14518 14519 
2 14519 14520 
1 3894 14518 
1 12963 14658 
2 3893 3894 
1 14520 20907 
2 3892 3893 
2 5006 5007 
2 12962 12963 
2 12961 12962 
1 12961 19360 
2 19184 19185 
2 5005 5006 
1 5005 19185 
2 20906 20907 
1 2229 20905 
2 20905 20906 
2 2228 2229 
1 5007 12510 
2 19360 19361 
2 4475 4476 
2 2227 2228 
2 1357 1358 
1 1357 2227 
1 1359 4476 
2 1358 1359 
1 16959 17380 
2 16957 16958 
1 16957 19699 
2 19699 19700 
2 17380 17381 
2 19700 19701 
2 16958 16959 
2 21460 21461 
2 827 828 
2 826 827 
1 826 20677 
2 17381 17382 
2 9676 9677 
2 9677 9678 
2 20677 20678 
1 12654 13738 
2 13738 13739 
3 12652 12653 
3 12653 12654 
2 19183 19184 
2 19361 19362 
1 8649 19362 
2 9389 9390 
2 12881 12882 
2 9388 9389 
1 9388 20152 
2 12880 12881 
2 20678 20679 
2 3497 3498 
2 3178 3179 
1 3178 3498 
2 3496 3497 
2 9298 9299 
2 9299 9300 
2 9325 9326 
1 9325 17244 
2 17243 17244 
2 6983 6984 
2 6982 6983 
2 17242 17243 
1 17242 17403 
3 17402 17403 
3 17401 17402 
1 8310 17401 
2 4391 4392 
1 4392 6982 
2 4390 4391 
2 13954 13955 
2 382 383 
1 382 13954 
2 13955 13956 
2 4913 4914 
2 13586 13587 
1 13587 18816 
2 13585 13586 
1 13585 13956 
2 9326 9327 
1 9327 15112 
2 15112 15113 
1 8244 11652 
2 11651 11652 
2 15113 15114 
2 8243 8244 
2 8408 8409 
2 11650 11651 
1 7482 14218 
1 3285 12705 
2 14218 14219 
2 14219 14220 
2 3284 3285 
2 12703 12704 
1 7974 12703 
2 12704 12705 
2 16280 16281 
2 16279 16280 
2 12322 12323 
1 6573 12324 
2 12323 12324 
2 18302 18303 
2 18301 18302 
3 6572 6573 
2 2489 2490 
2 6169 6170 
2 15385 15386 
2 15386 15387 
2 13888 13889 
1 13888 15385 
2 20176 20177 
2 18260 18261 
2 18259 18260 
2 20177 20178 
1 5583 14220 
1 13890 18261 
2 13889 13890 
2 12397 12398 
1 1518 12397 
2 5582 5583 
2 5581 5582 
1 5581 13719 
2 7973 7974 
2 7972 7973 
1 11859 12399 
2 12398 12399 
2 7993 7994 
1 7993 14340 
2 14339 14340 
2 19385 19386 
1 4959 19384 
2 19384 19385 
1 19386 19485 
2 19484 19485 
2 2488 2489 
1 2488 12376 
2 7994 7995 
1 7995 16368 
2 16367 16368 
1 12378 18313 
2 12377 12378 
2 12376 12377 
2 19483 19484 
1 14898 19483 
2 14897 14898 
2 4915 4916 
1 4915 19797 
2 19796 19797 
2 19795 19796 
2 4916 4917 
2 1028 1029 
2 18464 18465 
1 1029 13977 
2 13976 13977 
2 13975 13976 
1 13975 18465 
2 17927 17928 
2 5726 5727 
2 5725 5726 
1 5725 17928 
2 12845 12846 
2 1516 1517 
1 1516 12844 
2 12844 12845 
2 1517 1518 
1 12846 15207 
1 4758 15133 
2 15133 15134 
2 15134 15135 
2 9089 9090 
2 9088 9089 
1 9088 16476 
2 16475 16476 
2 9419 9420 
2 16366 16367 
1 16366 16926 
2 16645 16646 
2 16474 16475 
1 16474 16645 
2 16646 16647 
1 16647 20308 
2 20308 20309 
1 3198 7969 
3 7969 7970 
2 3197 3198 
2 3196 3197 
1 3196 20310 
2 20309 20310 
3 7970 7971 
2 16715 16716 
2 1790 1791 
1 1791 13309 
2 13309 13310 
2 13310 13311 
2 15836 15837 
2 15835 15836 
2 13582 13583 
1 13311 13582 
1 10605 11707 
2 10604 10605 
2 10603 10604 
1 10603 15397 
2 15397 15398 
2 13583 13584 
1 11298 20197 
2 15205 15206 
1 15205 15837 
2 15206 15207 
2 7703 7704 
2 11296 11297 
1 11296 12582 
2 12581 12582 
1 7704 15193 
2 11297 11298 
2 15193 15194 
2 20197 20198 
2 9418 9419 
1 8361 9418 
2 8360 8361 
2 8359 8360 
1 8359 21502 
2 21503 21504 
2 21502 21503 
2 1072 1073 
1 1072 17224 
1 1074 9420 
2 1073 1074 
2 17225 17226 
2 17224 17225 
2 6575 6576 
2 6574 6575 
1 6574 20949 
2 20948 20949 
2 4252 4253 
1 4252 16846 
2 16846 16847 
2 16847 16848 
1 873 17226 
2 872 873 
2 116 117 
2 871 872 
1 117 871 
1 8163 18783 
2 115 116 
1 115 16716 
2 16714 16715 
2 10447 10448 
1 10447 16714 
2 10448 10449 
2 9344 9345 
2 15398 15399 
1 7632 9345 
2 14033 14034 
2 15194 15195 
1 14034 15195 
2 5615 5616 
2 5614 5615 
2 5569 5570 
1 5569 5614 
2 5570 5571 
1 5571 8647 
2 14032 14033 
1 14032 16341 
2 10903 10904 
1 10903 19701 
2 10904 10905 
1 5358 21402 
1 4401 10905 
2 21401 21402 
2 21400 21401 
1 828 4065 
2 4063 4064 
1 4063 16848 
2 4064 4065 
2 4400 4401 
2 4399 4400 
1 4399 16815 
2 16814 16815 
2 16813 16814 
1 16813 17985 
2 8162 8163 
2 10984 10985 
2 10985 10986 
1 10986 16788 
2 8161 8162 
1 8161 13740 
2 13739 13740 
2 16787 16788 
2 17984 17985 
1 10203 11289 
3 19498 19499 
3 19499 19500 
2 8648 8649 
2 8647 8648 
2 2915 2916 
2 16340 16341 
2 16339 16340 
1 2916 16339 
2 5357 5358 
2 20152 20153 
2 5356 5357 
2 2914 2915 
1 2914 5356 
2 20153 20154 
2 12760 12761 
2 12761 12762 
2 5773 5774 
1 5773 9678 
2 19928 19929 
2 10318 10319 
1 10318 19929 
1 10707 18792 
2 18790 18791 
1 18790 20679 
2 18791 18792 
2 19927 19928 
1 5775 19927 
2 5774 5775 
2 3179 3180 
1 3180 21289 
2 16786 16787 
2 13903 13904 
1 13903 16786 
2 21289 21290 
2 13904 13905 
1 2919 13905 
2 11288 11289 
2 21290 21291 
2 11287 11288 
1 11287 21291 
2 4543 4544 
2 4544 4545 
2 9947 9948 
2 10706 10707 
2 10705 10706 
1 3612 10705 
2 15296 15297 
2 16060 16061 
2 11962 11963 
1 11962 16060 
2 16061 16062 
2 15295 15296 
1 15295 16062 
3 13558 13559 
1 9300 13558 
2 8327 8328 
1 8328 21003 
2 5278 5279 
1 5278 16492 
2 5279 5280 
2 16492 16493 
2 8309 8310 
2 8308 8309 
1 384 8308 
2 383 384 
2 8779 8780 
1 8779 16639 
2 16639 16640 
2 8780 8781 
2 16640 16641 
2 2744 2745 
2 18722 18723 
1 16722 18721 
2 18721 18722 
2 223 224 
2 21002 21003 
2 8242 8243 
1 8242 15342 
2 2930 2931 
2 21001 21002 
1 1413 2931 
2 1412 1413 
2 12748 12749 
1 12748 15340 
2 15340 15341 
2 15341 15342 
2 3283 3284 
1 3283 16494 
2 16493 16494 
2 2929 2930 
1 2929 3922 
2 3922 3923 
2 3923 3924 
1 3924 6235 
2 6235 6236 
2 6236 6237 
2 19121 19122 
2 2203 2204 
1 2203 21145 
1 16281 20202 
1 19122 20200 
2 20200 20201 
2 20201 20202 
1 6237 9991 
2 9991 9992 
2 9992 9993 
1 9993 20004 
2 16721 16722 
1 2745 16720 
2 16720 16721 
2 2743 2744 
1 2743 16279 
2 20003 20004 
2 20002 20003 
1 20002 20829 
2 20828 20829 
2 20827 20828 
1 4977 20698 
2 20698 20699 
2 4975 4976 
1 4975 20827 
2 4976 4977 
2 20699 20700 
2 7840 7841 
1 7840 20700 
2 7841 7842 
1 7842 9762 
2 1312 1313 
1 1312 15387 
2 16078 16079 
1 1287 16078 
2 1286 1287 
2 16079 16080 
2 1313 1314 
1 9984 16080 
2 7237 7238 
2 14054 14055 
2 13717 13718 
2 1285 1286 
1 1285 13717 
2 13718 13719 
2 21145 21146 
2 21146 21147 
2 7729 7730 
1 7729 21147 
2 7730 7731 
2 14338 14339 
2 7174 7175 
1 7174 14338 
2 860 861 
2 859 860 
1 859 7176 
2 7175 7176 
2 10060 10061 
2 10061 10062 
2 18313 18314 
2 18314 18315 
2 16190 16191 
2 6646 6647 
1 6646 18315 
2 16189 16190 
2 4123 4124 
1 4123 16189 
2 4124 4125 
1 2736 4125 
1 4917 15120 
2 17407 17408 
1 17407 18463 
2 17408 17409 
2 18463 18464 
2 15119 15120 
2 15118 15119 
1 12258 15118 
2 12257 12258 
2 9761 9762 
2 21287 21288 
2 9760 9761 
2 13472 13473 
3 18271 18272 
1 2970 13473 
2 7238 7239 
1 7239 13026 
2 2969 2970 
2 20014 20015 
2 13024 13025 
1 13024 20014 
2 13025 13026 
2 21043 21044 
2 21044 21045 
2 2968 2969 
1 2968 18271 
2 13471 13472 
1 4905 13471 
2 4904 4905 
2 4903 4904 
1 1494 4903 
1 14055 20016 
2 20015 20016 
2 10940 10941 
2 1198 1199 
1 1198 10941 
2 1199 1200 
2 2875 2876 
1 2875 21043 
2 14053 14054 
2 1493 1494 
2 1492 1493 
1 1492 5623 
1 9090 14053 
2 5623 5624 
2 5624 5625 
2 6647 6648 
2 5810 5811 
1 5811 6648 
1 1200 5809 
2 5809 5810 
1 5337 11326 
2 11326 11327 
2 5336 5337 
2 21442 21443 
2 2735 2736 
2 11327 11328 
2 991 992 
1 991 11328 
2 992 993 
2 21443 21444 
1 15495 21444 
2 15494 15495 
2 15493 15494 
1 15493 16758 
2 16450 16451 
2 21286 21287 
2 5089 5090 
1 5089 21286 
2 5090 5091 
1 5091 11884 
2 11884 11885 
2 6776 6777 
2 11885 11886 
2 6775 6776 
1 3771 15835 
2 3770 3771 
2 10864 10865 
1 8679 10864 
2 8678 8679 
2 8677 8678 
1 8677 13584 
2 12580 12581 
1 11220 12580 
2 10939 10940 
2 9268 9269 
1 9268 10939 
2 2876 2877 
2 20653 20654 
1 2877 11218 
2 11218 11219 
2 11219 11220 
1 1545 5625 
2 3721 3722 
1 3721 5400 
2 5399 5400 
2 18016 18017 
2 5398 5399 
1 5398 18016 
2 18017 18018 
2 3722 3723 
2 15682 15683 
2 1544 1545 
2 1543 1544 
1 1543 8145 
2 8144 8145 
1 3102 20947 
2 20947 20948 
2 8143 8144 
1 8143 18868 
2 18868 18869 
2 18869 18870 
2 16804 16805 
1 16804 18018 
2 3100 3101 
1 3100 20926 
2 20926 20927 
2 16805 16806 
1 14493 16806 
2 3101 3102 
2 18781 18782 
2 18782 18783 
1 18870 21459 
1 13320 18781 
2 13319 13320 
2 13318 13319 
1 13318 16452 
2 16451 16452 
2 10084 10085 
1 10084 12295 
1 12297 14491 
2 12296 12297 
2 12295 12296 
2 10085 10086 
1 11886 20380 
2 20380 20381 
2 20381 20382 
2 13295 13296 
2 6313 6314 
1 6313 20382 
1 10449 20811 
2 20810 20811 
2 20809 20810 
1 13296 20809 
2 3769 3770 
1 3769 16693 
2 16693 16694 
2 16694 16695 
1 6396 15399 
1 915 21153 
2 914 915 
2 6395 6396 
1 5616 13672 
2 20654 20655 
2 13672 13673 
1 14625 16695 
1 13674 20655 
2 13673 13674 
2 3716 3717 
1 3717 3723 
2 3715 3716 
1 3715 9969 
2 15683 15684 
2 10346 10347 
2 10345 10346 
1 10345 15684 
1 10347 21400 
2 9967 9968 
1 9967 14614 
2 9968 9969 
2 20927 20928 
2 21458 21459 
2 4675 4676 
2 4676 4677 
1 4677 9813 
2 21457 21458 
2 6214 6215 
1 6214 21457 
2 6215 6216 
1 6216 15955 
2 17983 17984 
1 1596 17983 
2 1595 1596 
2 1594 1595 
1 1594 17962 
2 17962 17963 
2 10202 10203 
2 10201 10202 
1 6315 10201 
2 2302 2303 
1 2302 10086 
2 6314 6315 
2 2303 2304 
1 2304 14871 
2 14870 14871 
2 6854 6855 
2 6853 6854 
1 6853 14169 
1 6855 9343 
2 9343 9344 
2 14168 14169 
2 322 323 
1 322 913 
2 913 914 
2 14885 14886 
2 3265 3266 
1 3265 14884 
2 14884 14885 
2 3266 3267 
2 14615 14616 
2 14614 14615 
2 20998 20999 
1 12762 20998 
2 20999 21000 
1 3642 14886 
1 10320 14616 
2 10319 10320 
2 9812 9813 
2 9811 9812 
2 10118 10119 
2 14221 14222 
2 14222 14223 
2 10117 10118 
1 10117 18342 
2 14869 14870 
2 6866 6867 
2 9946 9947 
1 9946 16977 
2 16976 16977 
2 16975 16976 
1 16975 18162 
2 18449 18450 
2 18448 18449 
2 6865 6866 
1 6865 12760 
2 6317 6318 
2 3611 3612 
2 3641 3642 
2 3610 3611 
1 3610 3640 
2 3640 3641 
2 11963 11964 
2 6316 6317 
1 6316 9490 
2 9490 9491 
1 9492 11964 
2 9491 9492 
2 13736 13737 
2 18340 18341 
2 2918 2919 
2 2917 2918 
1 2917 5610 
2 5609 5610 
2 5608 5609 
1 5608 21255 
3 21254 21255 
2 18341 18342 
2 13735 13736 
2 1184 1185 
2 1183 1184 
1 1183 14479 
1 1185 8326 
2 8326 8327 
2 20870 20871 
3 5629 5630 
1 5629 20871 
1 5280 7821 
2 4295 4296 
2 7820 7821 
2 4294 4295 
3 289 290 
1 289 4294 
3 16456 16457 
1 16456 19969 
2 19969 19970 
2 19970 19971 
1 4296 16641 
2 18784 18785 
1 10596 18784 
2 10595 10596 
2 10594 10595 
2 2168 2169 
2 2167 2168 
1 2167 10594 
2 752 753 
2 751 752 
1 225 751 
2 224 225 
2 12749 12750 
2 1411 1412 
1 1411 18175 
2 18175 18176 
1 18177 20869 
2 20869 20870 
2 18176 18177 
2 2257 2258 
1 2257 12750 
2 13622 13623 
2 13621 13622 
2 16 17 
2 1781 1782 
1 1782 19120 
2 19120 19121 
2 1780 1781 
1 1780 15727 
2 15727 15728 
1 10497 19971 
2 2204 2205 
1 2205 17439 
2 17438 17439 
2 2351 2352 
2 17437 17438 
2 2350 2351 
2 18785 18786 
2 16603 16604 
1 2025 16603 
2 11228 11229 
1 4116 16605 
2 16604 16605 
1 11229 20776 
2 17431 17432 
2 11227 11228 
1 11227 17431 
3 9100 9101 
1 9100 17433 
2 17432 17433 
3 9101 9102 
1 9102 20038 
2 20038 20039 
2 16138 16139 
1 8526 16138 
2 10762 10763 
2 5132 5133 
2 2258 2259 
1 2259 20880 
2 20879 20880 
2 20878 20879 
2 5131 5132 
1 5131 6181 
1 5340 15729 
2 15728 15729 
2 5339 5340 
1 7731 11464 
2 11464 11465 
1 861 5338 
2 5338 5339 
2 2023 2024 
1 2023 10060 
2 1279 1280 
1 1279 7549 
2 7549 7550 
1 10062 14919 
2 1280 1281 
2 2024 2025 
2 7550 7551 
2 20776 20777 
2 20777 20778 
2 1466 1467 
2 15085 15086 
2 1465 1466 
1 1465 15085 
2 15086 15087 
2 12256 12257 
1 12256 15087 
2 5872 5873 
1 5872 8524 
2 5873 5874 
2 8524 8525 
1 5874 20506 
2 20506 20507 
2 8525 8526 
2 8606 8607 
2 8605 8606 
2 4925 4926 
2 4924 4925 
1 4924 10764 
2 10763 10764 
2 20507 20508 
2 13229 13230 
2 7250 7251 
2 13228 13229 
2 7249 7250 
1 7249 13228 
1 11466 21045 
1 6276 7251 
2 11465 11466 
2 19471 19472 
1 12180 19473 
2 19472 19473 
2 12179 12180 
2 14918 14919 
2 5335 5336 
1 5335 16939 
2 14917 14918 
1 9900 14917 
2 9899 9900 
1 3738 7551 
2 2734 2735 
2 7424 7425 
2 3736 3737 
1 3736 12459 
2 3737 3738 
2 12458 12459 
1 7425 16126 
2 16126 16127 
2 3190 3191 
1 3190 16450 
2 7423 7424 
2 16757 16758 
2 3191 3192 
1 3192 15267 
2 15265 15266 
2 502 503 
1 502 15265 
2 15266 15267 
2 8240 8241 
2 16756 16757 
1 9747 16756 
2 3359 3360 
2 3358 3359 
1 3358 20508 
2 5587 5588 
1 5587 10866 
2 10865 10866 
2 4127 4128 
2 5588 5589 
1 5589 13707 
1 4128 18795 
2 18793 18794 
2 17107 17108 
1 17107 18793 
2 4126 4127 
1 4126 20653 
2 9269 9270 
2 2602 2603 
2 12178 12179 
1 2604 12178 
2 2603 2604 
2 16939 16940 
2 16940 16941 
2 18851 18852 
1 16941 18850 
2 18949 18950 
2 13882 13883 
1 13882 18949 
2 18850 18851 
2 18950 18951 
2 13883 13884 
1 13884 15682 
2 14492 14493 
2 12457 12458 
1 12457 14041 
2 14041 14042 
2 14042 14043 
1 14043 17970 
2 17969 17970 
1 7614 16128 
2 16127 16128 
2 14491 14492 
2 8239 8240 
1 8239 20617 
2 7613 7614 
2 20617 20618 
2 2977 2978 
1 2977 20619 
2 20618 20619 
2 2978 2979 
2 9745 9746 
2 9746 9747 
2 13294 13295 
1 13294 13540 
2 13540 13541 
1 13542 20353 
2 20353 20354 
2 13541 13542 
2 20354 20355 
2 18794 18795 
2 4318 4319 
1 4318 21151 
2 21151 21152 
2 4319 4320 
1 4320 10048 
2 21152 21153 
2 10048 10049 
2 14624 14625 
2 13274 13275 
1 4068 13275 
2 4067 4068 
2 14623 14624 
2 13273 13274 
1 13273 14623 
2 5116 5117 
1 5116 16935 
2 5117 5118 
2 4066 4067 
1 4066 8850 
2 8849 8850 
2 8848 8849 
1 8565 8848 
2 17339 17340 
2 6605 6606 
2 17338 17339 
1 17338 20928 
1 6606 17340 
2 643 644 
1 643 20502 
2 644 645 
2 15955 15956 
1 645 19059 
2 6604 6605 
2 17963 17964 
1 2979 19057 
2 19057 19058 
2 19058 19059 
2 10283 10284 
1 10284 19702 
3 19702 19703 
2 10111 10112 
2 10112 10113 
1 555 10111 
1 10113 17964 
2 14167 14168 
2 16934 16935 
2 16933 16934 
1 3267 16933 
2 9881 9882 
1 9882 15642 
2 15641 15642 
2 8564 8565 
2 8563 8564 
1 8563 19789 
2 15139 15140 
2 15140 15141 
2 19789 19790 
2 19790 19791 
2 19973 19974 
2 20554 20555 
2 15956 15957 
2 20501 20502 
2 20500 20501 
1 19791 20500 
2 10282 10283 
1 10282 15957 
2 18161 18162 
2 18160 18161 
1 17454 18160 
3 13399 13400 
1 13399 15141 
3 13400 13401 
1 7494 13401 
2 19972 19973 
2 17494 17495 
1 1284 13737 
3 1283 1284 
3 1282 1283 
1 1282 17496 
2 17495 17496 
3 21253 21254 
2 9497 9498 
3 19774 19775 
2 9496 9497 
1 9496 19774 
2 17452 17453 
2 17453 17454 
3 7493 7494 
3 7492 7493 
1 5631 9640 
3 10045 10046 
3 1604 1605 
1 1605 10045 
3 1603 1604 
1 1603 16458 
3 16457 16458 
3 5630 5631 
3 493 494 
2 11899 11900 
3 4396 4397 
1 4396 11899 
3 494 495 
3 4013 4014 
3 4012 4013 
1 36 4012 
3 4397 4398 
3 35 36 
2 18547 18548 
2 18548 18549 
3 34 35 
1 34 18549 
2 8656 8657 
1 8656 18547 
2 5173 5174 
2 5174 5175 
2 5212 5213 
1 5212 16485 
2 16484 16485 
3 15029 15030 
1 13623 18417 
2 10496 10497 
2 10495 10496 
2 11900 11901 
2 8557 8558 
1 8557 11901 
1 8559 18786 
2 8558 8559 
2 16960 16961 
2 337 338 
1 337 19915 
2 19915 19916 
2 19916 19917 
2 16961 16962 
2 4115 4116 
1 16962 17394 
2 17393 17394 
2 17392 17393 
1 549 17392 
1 5175 20938 
2 20039 20040 
2 20939 20940 
2 20938 20939 
1 16140 20940 
2 16139 16140 
1 5133 9889 
2 9889 9890 
2 16483 16484 
1 11391 16483 
2 11390 11391 
2 11389 11390 
2 7504 7505 
1 7504 11389 
1 12381 20878 
2 18416 18417 
2 18415 18416 
1 12915 18415 
2 12914 12915 
2 7505 7506 
2 12380 12381 
2 12379 12380 
1 12379 19524 
2 19523 19524 
1 7506 12409 
2 12409 12410 
2 12410 12411 
1 12411 13504 
2 12913 12914 
1 12913 19917 
2 338 339 
1 1281 19522 
2 19522 19523 
2 18326 18327 
2 15761 15762 
2 2626 2627 
1 2626 18327 
2 18325 18326 
2 17230 17231 
1 17230 18325 
2 548 549 
2 4114 4115 
1 4114 5853 
2 5852 5853 
2 5851 5852 
1 2562 5851 
2 7378 7379 
1 1467 7378 
2 7379 7380 
1 5784 7380 
2 19387 19388 
1 19387 20040 
2 19388 19389 
1 5829 19389 
2 5828 5829 
2 5827 5828 
2 16370 16371 
2 16369 16370 
1 14391 16369 
2 14390 14391 
2 14389 14390 
1 3804 14389 
2 6275 6276 
2 6274 6275 
1 6274 13350 
2 13349 13350 
1 2493 17346 
2 13348 13349 
1 13348 21540 
2 3802 3803 
1 3802 13575 
2 13573 13574 
1 12390 13573 
2 2492 2493 
2 2491 2492 
1 2491 2628 
2 12389 12390 
2 2627 2628 
2 9898 9899 
2 12388 12389 
1 12388 19470 
1 10452 15762 
2 10450 10451 
1 10450 16051 
2 16051 16052 
2 10451 10452 
2 16052 16053 
2 2561 2562 
2 5747 5748 
2 5746 5747 
1 5746 17583 
2 2560 2561 
1 2560 5748 
2 3839 3840 
1 3840 13935 
2 13933 13934 
1 504 13933 
2 503 504 
2 13934 13935 
1 2640 8241 
2 2639 2640 
2 2638 2639 
1 2638 18720 
3 4741 4742 
1 4741 5827 
3 4742 4743 
1 4743 8676 
2 8675 8676 
1 8475 13705 
2 13705 13706 
2 13706 13707 
2 17108 17109 
1 17109 19047 
2 19046 19047 
2 8474 8475 
2 17345 17346 
2 17344 17345 
2 8473 8474 
1 8473 17344 
2 16534 16535 
1 16534 18852 
2 15190 15191 
1 15190 16536 
2 16535 16536 
2 19468 19469 
1 11106 19468 
2 11104 11105 
2 157 158 
1 157 11104 
2 11105 11106 
2 17581 17582 
1 17581 18951 
2 6295 6296 
2 6296 6297 
2 17968 17969 
2 17582 17583 
2 6176 6177 
1 6177 9012 
2 6175 6176 
1 6175 17968 
2 9011 9012 
2 7156 7157 
2 7157 7158 
2 9010 9011 
2 9653 9654 
2 9652 9653 
1 5511 9652 
3 5510 5511 
3 5509 5510 
1 5509 11847 
2 8674 8675 
1 8674 20355 
3 11846 11847 
3 11845 11846 
1 11845 21576 
3 21575 21576 
3 21574 21575 
2 10049 10050 
2 19045 19046 
2 15191 15192 
1 10050 15192 
1 4728 5118 
2 4727 4728 
2 15040 15041 
2 4726 4727 
1 4726 6819 
2 6818 6819 
2 15041 15042 
1 15042 20556 
2 158 159 
2 6817 6818 
1 6817 9789 
1 6252 6604 
2 17812 17813 
2 6251 6252 
2 6250 6251 
1 6250 17812 
2 17813 17814 
2 14329 14330 
2 2062 2063 
1 2062 14329 
2 2063 2064 
2 7726 7727 
1 7726 17814 
3 19703 19704 
2 7612 7613 
1 7612 14331 
2 14330 14331 
2 553 554 
2 554 555 
3 9740 9741 
3 9739 9740 
2 9880 9881 
1 9741 9880 
2 15640 15641 
2 596 597 
2 595 596 
1 597 15640 
2 20555 20556 
2 20206 20207 
2 18832 18833 
1 18832 20208 
2 20207 20208 
2 18833 18834 
2 12833 12834 
3 8668 8669 
1 2064 8668 
3 8669 8670 
1 8670 12834 
2 12832 12833 
1 12832 17494 
3 19775 19776 
3 17464 17465 
3 17465 17466 
3 10408 10409 
1 10408 17464 
3 10046 10047 
3 10409 10410 
1 4398 10410 
2 8657 8658 
3 19946 19947 
3 12413 12414 
3 12412 12413 
1 12412 19945 
3 19945 19946 
1 1431 19200 
3 1429 1430 
1 1429 8658 
3 1430 1431 
3 8141 8142 
3 15028 15029 
3 8140 8141 
2 7354 7355 
1 7354 8140 
3 778 779 
1 778 15028 
3 779 780 
1 780 2136 
3 2135 2136 
3 2749 2750 
1 2749 12163 
2 12163 12164 
2 12164 12165 
3 2750 2751 
1 2751 19947 
1 12165 17232 
2 21535 21536 
2 21536 21537 
2 7355 7356 
2 13504 13505 
2 13505 13506 
2 12307 12308 
2 2888 2889 
2 17231 17232 
2 10427 10428 
2 15760 15761 
2 10426 10427 
1 10426 15760 
2 12308 12309 
1 12309 21537 
2 5783 5784 
2 547 548 
1 547 8928 
2 8927 8928 
2 3241 3242 
1 3241 5782 
2 5782 5783 
2 8926 8927 
2 12071 12072 
1 12072 19404 
2 12070 12071 
2 21538 21539 
2 17737 17738 
1 17737 21538 
2 17738 17739 
2 13574 13575 
2 21539 21540 
2 2887 2888 
1 2887 12864 
3 12863 12864 
3 12862 12863 
1 9903 13506 
2 9902 9903 
2 9901 9902 
1 9901 15322 
2 15322 15323 
2 15323 15324 
2 18857 18858 
1 3243 18858 
2 3838 3839 
2 3242 3243 
2 8023 8024 
1 8023 15324 
2 8024 8025 
2 2218 2219 
1 2218 8025 
2 2219 2220 
1 2220 18718 
2 550 551 
2 551 552 
1 552 12070 
2 9670 9671 
1 4689 9670 
2 4688 4689 
2 18719 18720 
2 18718 18719 
2 3803 3804 
2 19469 19470 
1 10644 16053 
2 7727 7728 
2 10643 10644 
2 10642 10643 
1 7728 10642 
2 5143 5144 
2 5144 5145 
2 4687 4688 
1 4687 9730 
2 9730 9731 
1 5145 10573 
2 10573 10574 
2 9731 9732 
1 9183 9732 
2 9182 9183 
2 9181 9182 
1 6654 19045 
3 6653 6654 
3 6652 6653 
2 9788 9789 
2 9787 9788 
1 9787 13449 
2 13448 13449 
2 13447 13448 
3 8756 8757 
3 8755 8756 
3 14078 14079 
3 8986 8987 
1 8986 14079 
3 2134 2135 
3 8884 8885 
1 8884 8988 
3 8987 8988 
3 8885 8886 
2 19199 19200 
2 19198 19199 
2 263 264 
1 264 19198 
2 262 263 
1 262 8886 
3 18083 18084 
3 18082 18083 
1 8142 18084 
3 14077 14078 
2 1238 1239 
2 1237 1238 
1 1237 12342 
2 12341 12342 
2 12340 12341 
1 12340 18714 
3 10322 10323 
3 10321 10322 
3 7300 7301 
1 7300 10323 
3 19403 19404 
3 19402 19403 
3 8372 8373 
3 8371 8372 
3 18713 18714 
3 7301 7302 
2 18856 18857 
1 7302 18856 
1 8373 11163 
3 11162 11163 
2 16688 16689 
2 9671 9672 
1 9672 11161 
3 11161 11162 
2 16687 16688 
2 10574 10575 
1 10575 19621 
3 19621 19622 
3 19622 19623 
3 10364 10365 
3 7246 7247 
1 7246 18712 
1 7248 10365 
3 7247 7248 
3 18712 18713 
2 20515 20516 
3 5182 5183 
1 5182 16689 
3 5183 5184 
1 5184 20515 
2 20516 20517 
3 10363 10364 
