ITEM: TIMESTEP
35000000
ITEM: NUMBER OF ATOMS
8400
ITEM: BOX BOUNDS pp pp pp
0.0000000000000000e+00 5.0000000000000000e+01
0.0000000000000000e+00 5.0000000000000000e+01
0.0000000000000000e+00 5.0000000000000000e+01
ITEM: ATOMS id type xs ys zs
3138 1 0.429594 0.00227989 0.0174342
3136 1 0.434429 0.000626075 0.031843
15270 1 0.451969 0.0141324 0.00957487
17481 1 0.451392 0.0109717 0.0111415
15268 1 0.452057 0.0287312 0.006367
15269 3 0.451571 0.021084 0.00668678
17480 2 0.451612 0.0022454 0.0116453
5896 1 0.424638 0.0488344 0.0197253
5897 2 0.425441 0.0417321 0.0164659
5898 1 0.43094 0.0385474 0.0127341
14246 2 0.453606 0.0394138 0.0057343
14245 1 0.45243 0.031747 0.00641913
14247 1 0.452728 0.0465135 0.00662939
16570 1 0.170871 0.0726548 0.00768589
16571 2 0.177089 0.0695798 0.00469634
4488 1 0.197757 0.0736448 0.0254868
21075 1 0.391336 0.139876 0.0037465
1786 1 0.38833 0.171285 0.0299456
132 1 0.400716 0.178636 0.0149713
131 2 0.399129 0.177156 0.0070179
130 1 0.400079 0.180436 0.000980627
14708 2 0.167213 0.228167 0.0127414
14709 1 0.159634 0.229658 0.0143576
14707 1 0.173811 0.222801 0.0145442
6455 2 0.41144 0.270327 0.00984108
6454 1 0.412366 0.262495 0.00688445
4420 1 0.435174 0.271056 0.0155866
13375 1 0.4111 0.281447 0.00505104
6456 1 0.411221 0.278403 0.00684529
13376 3 0.411621 0.288736 0.00102241
4422 1 0.435708 0.28032 0.0254576
4421 2 0.431495 0.276341 0.0206183
9092 2 0.443351 0.286703 0.0306659
9091 1 0.437546 0.281664 0.0271498
11462 3 0.464182 0.332646 0.00527415
3022 1 0.49017 0.32975 0.0174422
3023 3 0.496011 0.323732 0.0180379
21174 1 0.487348 0.330928 0.0175125
3024 1 0.497162 0.315185 0.0193626
13590 1 0.235504 0.360699 0.00111026
13589 3 0.237326 0.35778 0.00832912
13588 1 0.238509 0.354405 0.0162025
12273 1 0.455755 0.33823 0.000666651
11461 1 0.457855 0.336853 0.00239331
21172 1 0.474201 0.333878 0.0122798
11463 1 0.47146 0.333487 0.0101893
21173 3 0.481785 0.334726 0.0168381
21514 1 0.186776 0.387523 0.0254847
21515 2 0.181355 0.382163 0.0262604
21516 1 0.181193 0.374963 0.0294739
18217 1 0.189135 0.389631 0.0247949
18218 3 0.195107 0.395275 0.0244638
18219 1 0.197306 0.402228 0.0246421
11290 1 0.24716 0.399218 0.029615
6058 1 0.063933 0.431619 0.0238703
6059 2 0.0718803 0.432053 0.0258907
17487 1 0.0808871 0.435685 0.030837
6060 1 0.0780989 0.434846 0.0295057
17476 1 0.467782 0.483083 0.0147348
3161 2 0.475833 0.478792 0.018306
3162 1 0.469885 0.481781 0.0154031
3160 1 0.484154 0.477803 0.0163809
4967 2 0.174207 0.510358 0.0144839
4966 1 0.168267 0.513114 0.0186637
4968 1 0.178945 0.509297 0.00948754
9951 1 0.166295 0.51412 0.0203875
11236 1 0.290607 0.498617 0.0011844
9290 2 0.432001 0.489571 0.0283484
9289 1 0.431161 0.496893 0.0289918
17478 1 0.453691 0.485968 0.0136781
17477 3 0.461344 0.487534 0.0122856
9949 1 0.155429 0.521103 0.0285216
9950 2 0.162211 0.517068 0.026306
19034 3 0.349582 0.530547 0.00637607
19035 1 0.348674 0.52978 0.0142027
3869 2 0.497636 0.538682 0.0225987
3868 1 0.493866 0.536342 0.0289574
3870 1 0.503647 0.540501 0.0192446
2319 1 0.231391 0.572233 0.0309091
2318 3 0.226914 0.578503 0.0315018
10102 1 0.0350709 0.634494 0.0076149
10103 3 0.040285 0.637296 0.0139837
10104 1 0.0421909 0.645198 0.0145097
18124 1 0.0428562 0.648179 0.014622
18125 2 0.0438495 0.656041 0.0140878
18126 1 0.0364756 0.658701 0.0162981
14266 1 0.26095 0.655315 0.00255046
6234 1 0.263088 0.654452 0.00468415
6232 1 0.273367 0.655764 0.0146579
6233 2 0.267439 0.651991 0.0106607
5066 3 0.279243 0.662949 0.0182191
5067 1 0.27538 0.657742 0.0157467
5065 1 0.28213 0.660283 0.0245475
16258 1 0.384135 0.662961 0.029087
6165 1 0.387126 0.663572 0.0275123
6164 2 0.393619 0.664574 0.022282
6163 1 0.398352 0.669952 0.0243564
17625 1 0.00163301 0.697441 0.0207792
1012 1 0.000719303 0.697375 0.0181366
17624 2 0.00273587 0.698219 0.0286727
13964 2 0.194827 0.721873 0.0048781
13965 1 0.195479 0.715045 0.00301529
988 1 0.458929 0.718685 0.0145064
18678 1 0.460829 0.717834 0.0123214
989 2 0.45472 0.720409 0.0207305
990 1 0.447487 0.72145 0.0172832
18677 2 0.465972 0.715617 0.00624207
18715 1 0.160449 0.743209 0.0147105
18716 2 0.165409 0.743989 0.00781075
18717 1 0.167416 0.747322 0.000564662
7600 1 0.115922 0.810687 0.012137
7601 3 0.117434 0.814499 0.0181031
11767 1 0.246653 0.806652 0.0302696
7602 1 0.119885 0.820738 0.0234126
11381 2 0.510219 0.845148 0.00136537
11380 1 0.511607 0.850076 0.0070818
19820 3 0.0966304 0.938552 0.00601824
19821 1 0.089492 0.940817 0.00273796
19819 1 0.102394 0.942323 0.00954956
3441 1 0.397395 0.963814 0.000805109
3137 3 0.432272 0.997636 0.024102
17479 1 0.457354 0.996932 0.0107513
3823 1 0.0934878 0.0175141 0.0508883
3824 3 0.0861174 0.0152985 0.0521064
3825 1 0.0782776 0.0127483 0.0532716
4486 1 0.20257 0.0686464 0.0391925
4487 2 0.198953 0.0726303 0.0326069
5982 1 0.522765 0.0849094 0.0414973
5981 3 0.529589 0.0869899 0.0450347
4748 3 0.0537418 0.146278 0.0626098
4747 1 0.0454705 0.144189 0.063873
4749 1 0.0620279 0.146858 0.0597438
21199 1 0.07494 0.143324 0.0491309
21200 3 0.0707984 0.145983 0.0554015
21201 1 0.0647581 0.14671 0.0590202
14652 1 0.162723 0.132314 0.05102
14651 2 0.167901 0.133557 0.0557107
14650 1 0.174336 0.136196 0.0601167
8561 3 0.437846 0.142721 0.0595896
8560 1 0.440894 0.143129 0.0527209
1928 2 0.255283 0.155389 0.0517438
1929 1 0.260961 0.156306 0.0450822
5098 1 0.250515 0.152103 0.0601742
1927 1 0.251855 0.152904 0.0582431
11638 1 0.358552 0.171746 0.0439264
15170 3 0.365977 0.179745 0.0406993
15171 1 0.373567 0.178179 0.0386287
15169 1 0.360578 0.174032 0.0432478
11639 2 0.353579 0.167136 0.0467924
11640 1 0.345723 0.164196 0.0479164
1788 1 0.376648 0.177398 0.0371
1787 2 0.382475 0.172815 0.0346883
3592 1 0.391579 0.18855 0.042008
3593 2 0.398576 0.184703 0.0402176
3594 1 0.405827 0.182762 0.0370267
6609 1 0.39041 0.20907 0.0400146
6608 3 0.390078 0.202666 0.0383709
6607 1 0.38752 0.196033 0.0407921
8311 1 0.00105405 0.287811 0.0620287
63 1 0.0126402 0.300294 0.064081
8313 1 0.0107259 0.298188 0.0626523
8312 3 0.00670193 0.293449 0.058518
14095 1 0.273826 0.281465 0.0460966
14097 1 0.278258 0.292063 0.0537879
14096 2 0.275496 0.289179 0.0482327
9093 1 0.44984 0.291144 0.0336507
19110 1 0.277273 0.332894 0.0521019
14183 2 0.40142 0.305789 0.0489116
14184 1 0.396028 0.303871 0.0426999
14182 1 0.407898 0.307737 0.0528415
2322 1 0.11039 0.357952 0.0552834
2320 1 0.107628 0.34399 0.0544406
2321 3 0.111565 0.351005 0.0513635
19108 1 0.277795 0.346855 0.0534407
19109 2 0.281856 0.340167 0.051246
17885 2 0.419843 0.378371 0.0546807
17886 1 0.422575 0.381115 0.0469849
17884 1 0.422808 0.376704 0.0620236
11292 1 0.258287 0.409484 0.0380965
11291 2 0.253189 0.403817 0.033845
16219 1 0.467277 0.423247 0.0565939
16221 1 0.473487 0.417082 0.0618667
18535 1 0.47359 0.413507 0.0625979
18536 2 0.475141 0.405646 0.0630467
15274 1 0.0912941 0.445998 0.0396351
17486 3 0.088178 0.438179 0.0333339
17485 1 0.0901939 0.443568 0.0376849
15275 2 0.0948247 0.452263 0.0441115
7332 1 0.238315 0.440028 0.0519825
7331 3 0.247023 0.440897 0.054059
7330 1 0.2554 0.442617 0.0547239
17168 3 0.342801 0.446516 0.0599807
17169 1 0.349147 0.441652 0.0586334
16220 3 0.472759 0.424654 0.0596862
15276 1 0.0963105 0.459032 0.044135
9291 1 0.437351 0.484614 0.0325918
9069 1 0.449694 0.472246 0.0415393
9067 1 0.439607 0.482589 0.0343203
9068 3 0.445846 0.478271 0.0381812
2317 1 0.220532 0.5767 0.0333252
3327 1 0.327058 0.597769 0.0513816
3326 3 0.327617 0.604525 0.0452647
5534 3 0.111899 0.630151 0.0560252
5533 1 0.117293 0.633294 0.0514854
5535 1 0.106079 0.624897 0.0512875
3325 1 0.329679 0.608387 0.0381195
16260 1 0.369305 0.659464 0.0343338
16259 3 0.377744 0.662047 0.033989
15813 1 0.00255461 0.722199 0.0407157
20865 1 0.00324652 0.705877 0.0359786
17623 1 0.00300909 0.703701 0.0336258
20864 2 0.00416029 0.712122 0.0409286
20863 1 0.00281261 0.719642 0.0404111
7273 1 0.13233 0.715889 0.0475336
15820 1 0.146399 0.724712 0.0522252
7275 1 0.143442 0.723157 0.052259
7274 3 0.13686 0.718133 0.052448
15812 2 0.000939994 0.730817 0.0406919
15821 2 0.154811 0.728151 0.0521242
15822 1 0.159303 0.733835 0.0527839
1954 1 0.161089 0.736083 0.0532611
1955 3 0.16623 0.741262 0.0546024
1956 1 0.172081 0.745926 0.0566276
6729 1 0.174664 0.747687 0.0575854
6728 2 0.181018 0.753108 0.0608151
150 1 0.296199 0.739758 0.0598068
149 3 0.299092 0.746733 0.0639223
6727 1 0.185014 0.759921 0.0596304
11769 1 0.248998 0.815759 0.0399331
11768 2 0.24427 0.811298 0.0343441
11257 1 0.123751 0.825187 0.0451089
11259 1 0.136225 0.819374 0.0373756
11258 3 0.129505 0.822037 0.0413646
2233 1 0.215878 0.840476 0.0403256
2234 2 0.221595 0.835071 0.0375184
2235 1 0.226351 0.831793 0.0427865
13173 1 0.259795 0.850141 0.0589396
18649 1 0.017559 0.960891 0.0463857
18650 3 0.0234315 0.955056 0.0478325
18651 1 0.0291048 0.949382 0.049009
2711 3 0.0435237 0.965007 0.0367326
14626 1 0.0498413 0.957184 0.0409966
2710 1 0.0481871 0.959162 0.0396862
14627 3 0.0545092 0.952074 0.0451795
14628 1 0.06222 0.954079 0.0464847
2712 1 0.0404182 0.972992 0.0395322
613 1 0.328074 0.986445 0.041661
614 2 0.321119 0.983674 0.0378094
615 1 0.313389 0.982501 0.0358826
19836 1 0.442508 0.0131818 0.0936261
18873 1 0.443186 0.0145683 0.0916942
18872 3 0.446378 0.0193332 0.0851919
18871 1 0.449839 0.0260136 0.0848527
2049 1 0.498484 0.054271 0.0650786
2048 2 0.493238 0.0496572 0.0671103
2047 1 0.485533 0.0511401 0.0693525
11138 3 0.0297305 0.0981146 0.0648571
11137 1 0.0244076 0.0929082 0.067859
11139 1 0.036698 0.102344 0.0657402
15370 1 0.0297289 0.141585 0.0661942
15372 1 0.0430825 0.143154 0.0650456
15371 2 0.0361458 0.140714 0.0688481
5100 1 0.245902 0.148796 0.0743617
5099 3 0.246772 0.150433 0.066555
8562 1 0.436994 0.145777 0.0663605
12805 1 0.257028 0.173111 0.0875859
12212 2 0.0451382 0.192685 0.0718061
12213 1 0.0486905 0.191021 0.0789078
12211 1 0.0377581 0.18968 0.0713278
19934 3 0.0928099 0.211683 0.0801006
19935 1 0.0962738 0.20369 0.0819664
12806 3 0.253024 0.181943 0.0863448
12807 1 0.250732 0.186758 0.0802565
19933 1 0.0913769 0.218294 0.0818729
7262 2 0.26699 0.230754 0.0929388
7263 1 0.271743 0.225891 0.0894205
7261 1 0.258839 0.233289 0.0936214
2697 1 0.415699 0.219619 0.0893291
1331 2 0.10885 0.262187 0.088531
1332 1 0.108846 0.271139 0.086102
999 1 0.240046 0.262836 0.0940866
998 3 0.245092 0.268592 0.0905277
997 1 0.251059 0.270682 0.0860536
62 3 0.0183027 0.306538 0.0673294
61 1 0.0246197 0.311844 0.0696075
15343 1 0.0265647 0.314 0.0703069
15345 1 0.0379501 0.32201 0.0679138
15344 2 0.0324872 0.317899 0.0725325
11897 2 0.232845 0.31417 0.0958184
12779 3 0.428951 0.376009 0.0715271
12778 1 0.424255 0.376262 0.0649581
12780 1 0.433519 0.370872 0.0753634
14739 1 0.444195 0.391922 0.065734
12365 3 0.46103 0.402353 0.0825966
12364 1 0.460285 0.401129 0.0904984
14738 3 0.449539 0.394739 0.0706393
14737 1 0.454661 0.398289 0.0751593
12366 1 0.456369 0.399387 0.0767897
18537 1 0.477921 0.399413 0.0673713
17167 1 0.341161 0.450552 0.0665846
10776 1 0.13132 0.464837 0.0895726
8962 1 0.365668 0.465757 0.0729217
8963 3 0.373571 0.465793 0.0710584
8964 1 0.375174 0.470546 0.0647767
9075 1 0.107266 0.50668 0.0930956
8970 1 0.384932 0.499686 0.0722687
8969 3 0.390732 0.503804 0.0759538
8968 1 0.39752 0.502468 0.0759289
14514 1 0.500472 0.512114 0.094089
14513 2 0.508718 0.511828 0.0965901
14512 1 0.515436 0.51476 0.0963105
8665 1 0.213157 0.541786 0.0847815
8667 1 0.215235 0.537161 0.0707393
8666 3 0.210983 0.539107 0.0779984
19600 1 0.304658 0.544338 0.0856818
2337 1 0.518134 0.515844 0.096384
343 1 0.00443325 0.573414 0.0962563
5158 1 0.198612 0.565032 0.0935075
5159 3 0.196653 0.560597 0.0871963
5160 1 0.194649 0.558647 0.0788827
19601 2 0.303088 0.546866 0.0937597
19602 1 0.30748 0.553573 0.0951138
5251 1 0.14797 0.584018 0.0907835
5252 3 0.150679 0.590245 0.0871633
5253 1 0.156333 0.595693 0.0874682
10073 2 0.339587 0.594995 0.0717288
10074 1 0.341269 0.586232 0.0724774
10072 1 0.339749 0.601351 0.0760229
17949 1 0.340323 0.604268 0.0782708
3430 1 0.21828 0.635697 0.0685202
17948 3 0.339861 0.610822 0.082705
17947 1 0.340265 0.614893 0.0892556
17022 1 0.370661 0.636314 0.068746
10600 1 0.397761 0.631915 0.0957205
10601 3 0.39202 0.631028 0.0908932
10602 1 0.386568 0.625606 0.0907011
3431 3 0.225957 0.638109 0.0730905
3432 1 0.232988 0.640918 0.0750941
17021 2 0.370419 0.644206 0.0672242
17020 1 0.369462 0.652275 0.0698406
148 1 0.301428 0.753244 0.0693253
20302 1 0.0180506 0.855446 0.0922942
20303 2 0.0138603 0.857766 0.0849673
9297 1 0.00295472 0.861242 0.086254
20304 1 0.00605603 0.860627 0.0858587
1560 1 0.142962 0.851519 0.0817781
1559 3 0.142237 0.857143 0.0864681
1558 1 0.144145 0.863056 0.0929324
21342 1 0.15526 0.855209 0.0830408
21341 3 0.161829 0.860318 0.0834332
21340 1 0.167917 0.864197 0.0865062
20734 1 0.189557 0.875943 0.0682024
13172 3 0.25825 0.856328 0.0644325
13171 1 0.257411 0.861156 0.0694521
20735 3 0.18912 0.88305 0.070074
20736 1 0.191816 0.892083 0.0705343
19257 1 0.180431 0.940079 0.0791477
19255 1 0.195397 0.946148 0.0812966
19256 2 0.188127 0.941728 0.0803511
19834 1 0.432884 0.00303406 0.10136
19835 2 0.438408 0.00892443 0.098684
9277 1 0.0440962 0.115074 0.123474
9278 2 0.048879 0.11308 0.11772
9279 1 0.0487232 0.110774 0.110606
2688 1 0.0484771 0.109742 0.10811
2687 3 0.0475447 0.106237 0.100776
2686 1 0.047047 0.0983653 0.0990881
9559 1 0.139916 0.102148 0.123766
7588 1 0.140942 0.0995827 0.124035
9560 2 0.138292 0.11005 0.123053
7590 1 0.151245 0.0928862 0.121301
7589 2 0.143754 0.0924116 0.12399
2214 1 0.1311 0.118664 0.124688
9561 1 0.132726 0.116134 0.124483
374 3 0.520362 0.0939272 0.126245
19363 1 0.527893 0.0951895 0.118018
375 1 0.525355 0.0951617 0.119898
21513 1 0.0238317 0.149787 0.101721
21512 2 0.0311787 0.147032 0.10159
21511 1 0.0379183 0.148721 0.101854
5334 1 0.0817329 0.136739 0.122393
2213 3 0.126363 0.124917 0.124364
21068 2 0.239168 0.132833 0.102214
20874 1 0.238336 0.144208 0.101074
21069 1 0.243572 0.130418 0.110306
21067 1 0.238948 0.141266 0.101826
15614 2 0.174359 0.168074 0.123644
15615 1 0.17007 0.164082 0.128342
15613 1 0.176806 0.167708 0.115852
6891 1 0.177589 0.167633 0.112844
6890 3 0.180582 0.167598 0.10555
6889 1 0.187845 0.168618 0.10174
8467 1 0.246889 0.16657 0.0976259
4058 3 0.234596 0.170953 0.107861
4059 1 0.241079 0.17704 0.106281
20872 1 0.235989 0.160133 0.105155
4057 1 0.235747 0.163316 0.10585
20873 3 0.237465 0.152099 0.101463
8468 3 0.255177 0.165834 0.0998402
8469 1 0.258337 0.167011 0.106805
8403 1 0.266997 0.165246 0.127867
4086 1 0.266214 0.166173 0.124485
4085 3 0.264113 0.16772 0.116784
4084 1 0.259783 0.167743 0.109196
17815 1 0.489272 0.156892 0.127266
17816 2 0.496703 0.157849 0.127476
15758 3 0.172394 0.190432 0.113099
15759 1 0.168723 0.185493 0.10824
15757 1 0.172482 0.196895 0.11568
12303 1 0.172386 0.199408 0.116306
12302 2 0.17443 0.207526 0.11896
13578 1 0.169559 0.214621 0.126023
12301 1 0.170719 0.212578 0.124241
2696 3 0.41803 0.2162 0.0971567
2695 1 0.420278 0.212335 0.103819
5833 1 0.0914499 0.271891 0.121398
16833 1 0.108814 0.259906 0.0992171
1330 1 0.10873 0.260862 0.0966994
16831 1 0.10328 0.258432 0.112791
16832 2 0.107716 0.258152 0.106047
1799 3 0.390088 0.265221 0.116196
1800 1 0.387291 0.258646 0.112296
5834 2 0.0924833 0.276249 0.127245
4589 2 0.344643 0.286439 0.126327
17175 1 0.394487 0.291103 0.119857
17174 3 0.392279 0.28401 0.122605
17173 1 0.390809 0.276506 0.1202
1798 1 0.390168 0.273616 0.11925
883 1 0.243841 0.324068 0.1159
884 2 0.24569 0.330945 0.118576
11898 1 0.226975 0.319305 0.0975992
16653 1 0.238357 0.312998 0.106065
11896 1 0.237002 0.312445 0.103045
16652 3 0.240797 0.314765 0.113382
16651 1 0.242879 0.32172 0.115025
885 1 0.25388 0.329733 0.119467
13015 1 0.256796 0.32952 0.119067
13017 1 0.271754 0.332571 0.113551
13016 2 0.264447 0.329222 0.118139
16154 3 0.395256 0.310171 0.105689
16155 1 0.393617 0.314321 0.113174
16153 1 0.39575 0.30683 0.0989555
6299 3 0.462714 0.420679 0.11089
6298 1 0.465883 0.41158 0.110285
13198 1 0.486046 0.423515 0.119095
6300 1 0.461681 0.427967 0.112997
10411 1 0.461332 0.430679 0.11418
10412 2 0.460384 0.436909 0.118226
10413 1 0.460316 0.440331 0.125327
13199 2 0.480612 0.427811 0.115607
13200 1 0.478536 0.435237 0.111478
10775 2 0.130218 0.465644 0.0973699
17131 1 0.136486 0.467524 0.106579
10774 1 0.134704 0.466827 0.10416
17132 2 0.141499 0.468471 0.113368
17133 1 0.140559 0.475382 0.116977
9226 1 0.140013 0.47803 0.118025
20094 1 0.237434 0.470659 0.127041
18360 1 0.43488 0.459592 0.110931
18359 3 0.441062 0.461723 0.106545
18358 1 0.445799 0.465349 0.100963
9074 2 0.105703 0.503414 0.100245
9073 1 0.109036 0.500746 0.107493
9227 3 0.13788 0.485873 0.120654
9228 1 0.140571 0.491011 0.125829
11071 1 0.377886 0.524523 0.124698
11072 2 0.381161 0.532104 0.122905
11073 1 0.378466 0.538915 0.123047
2335 1 0.529279 0.525055 0.0995503
2336 3 0.524936 0.519127 0.0967319
9168 1 0.277523 0.60485 0.105123
7706 2 0.245408 0.63063 0.120606
7705 1 0.238756 0.63006 0.118252
7707 1 0.252424 0.633561 0.117331
17069 2 0.277181 0.631373 0.110428
9166 1 0.290634 0.608227 0.113006
9167 2 0.285794 0.606946 0.106607
682 1 0.300682 0.628302 0.119191
17070 1 0.284459 0.631369 0.111735
684 1 0.28762 0.631065 0.112366
683 2 0.295912 0.631215 0.112535
13908 1 0.298933 0.620501 0.12792
19599 1 0.358354 0.633692 0.112559
1903 1 0.350239 0.629133 0.128682
19604 2 0.0683232 0.65869 0.125398
19605 1 0.0638246 0.660477 0.119538
19603 1 0.0750486 0.662452 0.128393
17068 1 0.273977 0.638679 0.107491
19126 1 0.335145 0.651469 0.109308
19127 2 0.337171 0.646762 0.115392
19128 1 0.344577 0.644346 0.113606
19597 1 0.347482 0.643532 0.11277
19598 3 0.35371 0.641037 0.111023
19366 1 0.0509782 0.919536 0.109725
19367 2 0.0578081 0.9154 0.1134
19368 1 0.0638733 0.915741 0.117218
17316 1 0.342672 0.985269 0.0968718
17315 2 0.3439 0.983964 0.104839
17314 1 0.344714 0.980376 0.112912
592 1 0.344599 0.979403 0.11599
593 2 0.344453 0.975928 0.123262
12373 1 0.0704918 0.00443562 0.129922
13272 1 0.202856 0.0184684 0.159299
13271 2 0.196095 0.0194955 0.154608
13270 1 0.188082 0.0203245 0.156426
2659 1 0.2896 0.00228306 0.137584
6132 1 0.131539 0.0777445 0.149267
6130 1 0.130429 0.0839147 0.135509
6131 3 0.132831 0.0802124 0.141783
373 1 0.524791 0.0964331 0.133479
5332 1 0.088724 0.141844 0.138321
5333 3 0.0857103 0.138978 0.130046
2212 1 0.123195 0.128286 0.130663
4006 1 0.275515 0.146443 0.157131
17817 1 0.498158 0.151041 0.132635
21347 2 0.117401 0.161496 0.138435
21348 1 0.119315 0.161854 0.146295
21346 1 0.111034 0.16293 0.13388
9981 1 0.170198 0.159365 0.143574
9979 1 0.168704 0.162456 0.130532
9980 2 0.167728 0.158457 0.136158
8402 2 0.267546 0.162949 0.134964
4007 2 0.275399 0.151956 0.150359
8401 1 0.27159 0.158171 0.140776
4008 1 0.273006 0.156482 0.143441
4738 1 0.312104 0.170677 0.13584
4740 1 0.32498 0.16301 0.131599
4739 3 0.320188 0.16865 0.13508
13414 1 0.318051 0.20018 0.158609
15183 1 0.447558 0.204829 0.144989
15182 2 0.451612 0.211062 0.142344
12085 1 0.0793765 0.227617 0.132685
12086 2 0.0778841 0.222839 0.138767
12087 1 0.0781365 0.218712 0.144937
13576 1 0.168713 0.227774 0.129256
13577 2 0.165391 0.221156 0.130869
3472 1 0.456828 0.233222 0.133024
3473 3 0.4504 0.228317 0.135348
15181 1 0.451438 0.218601 0.138069
3474 1 0.451328 0.221592 0.13709
12131 3 0.507915 0.235188 0.144973
12130 1 0.505249 0.231251 0.151708
14158 1 0.50456 0.229501 0.154148
14159 2 0.5033 0.223921 0.15943
12132 1 0.509567 0.237196 0.136771
5835 1 0.0925105 0.281838 0.133257
4590 1 0.339461 0.281387 0.130211
4588 1 0.350541 0.289297 0.129571
11582 3 0.467976 0.307884 0.160191
16752 1 0.0561432 0.341798 0.15883
5860 1 0.400135 0.404654 0.159535
5861 2 0.401777 0.401417 0.153073
5862 1 0.404598 0.395089 0.148938
15501 1 0.316945 0.433625 0.145321
15499 1 0.328357 0.434963 0.140366
15500 2 0.321794 0.432232 0.138587
10169 2 0.40448 0.446873 0.158012
16950 1 0.410064 0.447545 0.149327
10170 1 0.408509 0.447432 0.151585
16949 3 0.41309 0.449046 0.142129
16948 1 0.417098 0.442298 0.139065
3765 1 0.0920233 0.484043 0.145806
3763 1 0.102687 0.475139 0.140992
3764 2 0.0975933 0.477871 0.147207
17713 1 0.248506 0.466032 0.139611
20093 2 0.243347 0.471039 0.132051
20092 1 0.247159 0.467517 0.137173
17714 3 0.251543 0.461371 0.145788
17715 1 0.253376 0.455355 0.149947
14769 1 0.457781 0.484635 0.131433
20511 1 0.501446 0.48326 0.141266
20510 3 0.501225 0.48389 0.148726
15548 3 0.122607 0.50818 0.134311
15547 1 0.119246 0.501794 0.131156
14768 3 0.452198 0.486435 0.136983
14767 1 0.448961 0.49004 0.143414
20509 1 0.501658 0.485995 0.156022
15549 1 0.12213 0.515855 0.135293
5238 1 0.195461 0.530471 0.155913
5237 2 0.196647 0.538625 0.15321
5236 1 0.19709 0.545967 0.155369
6743 3 0.477728 0.563962 0.158566
6742 1 0.484313 0.559793 0.156448
6744 1 0.47457 0.568239 0.153021
2097 1 0.511667 0.569742 0.157062
2096 3 0.505195 0.574223 0.158668
13906 1 0.293263 0.613757 0.139163
13907 2 0.294621 0.6205 0.134628
1905 1 0.342794 0.635985 0.139378
1904 3 0.348505 0.631399 0.136496
6880 1 0.179787 0.640565 0.148308
6881 3 0.186658 0.639977 0.144565
6882 1 0.193361 0.644479 0.141528
3846 1 0.341014 0.63832 0.14052
3844 1 0.32853 0.645229 0.145596
3845 2 0.336304 0.644493 0.143819
1434 1 0.147757 0.687552 0.138465
1433 2 0.15121 0.692667 0.13465
1432 1 0.158199 0.695933 0.134292
18431 3 0.0767275 0.703841 0.152179
5902 1 0.0847482 0.703954 0.159644
18432 1 0.0821598 0.703636 0.157823
18430 1 0.071685 0.704016 0.145418
14371 1 0.187289 0.726925 0.152555
4281 1 0.348074 0.723994 0.129839
4280 2 0.344845 0.72617 0.137808
21040 1 0.438766 0.712906 0.143679
21041 3 0.437566 0.703973 0.143779
21042 1 0.439426 0.696995 0.145803
14372 3 0.194807 0.730124 0.154738
4279 1 0.34248 0.729326 0.145165
12710 3 0.259933 0.78415 0.152662
12709 1 0.26015 0.784708 0.160835
12711 1 0.257648 0.792384 0.150923
246 1 0.360812 0.825178 0.134933
244 1 0.34864 0.825284 0.144144
245 2 0.355767 0.825009 0.142772
4298 2 0.468444 0.830565 0.155298
18442 1 0.458374 0.831308 0.159013
4299 1 0.461229 0.831798 0.157997
4297 1 0.475083 0.828706 0.160481
1826 3 0.201683 0.865757 0.148675
1827 1 0.209069 0.865214 0.144976
1825 1 0.194666 0.866366 0.153586
14333 3 0.457258 0.856286 0.156967
14332 1 0.453481 0.85859 0.150731
8093 2 0.0877198 0.899902 0.1545
8094 1 0.0911643 0.892637 0.157858
8092 1 0.0868435 0.908255 0.155447
8907 1 0.204758 0.897166 0.13475
13185 1 0.212125 0.90852 0.14778
8905 1 0.210257 0.907004 0.145589
8906 2 0.20651 0.903229 0.139714
5341 1 0.0864774 0.911731 0.155406
5342 3 0.0863289 0.920025 0.155646
5343 1 0.0812053 0.922872 0.159806
13184 2 0.216181 0.911562 0.152907
13183 1 0.222739 0.916519 0.152678
8547 1 0.372635 0.932641 0.160433
8545 1 0.368838 0.925701 0.147852
8546 2 0.369717 0.931947 0.15262
2528 2 0.393092 0.935634 0.141404
2529 1 0.388849 0.92943 0.145492
10016 3 0.242577 0.962297 0.156852
10017 1 0.234672 0.965629 0.158834
16569 1 0.232264 0.966084 0.160045
10015 1 0.24925 0.957888 0.155208
18572 3 0.258655 0.952974 0.155506
18573 1 0.251432 0.956574 0.154867
18571 1 0.265831 0.950942 0.155913
2527 1 0.397142 0.941539 0.140525
3 1 0.398261 0.94438 0.140055
2 3 0.40071 0.951316 0.138148
1 1 0.398346 0.958848 0.13983
9508 1 0.397704 0.962079 0.140421
9509 3 0.397602 0.96966 0.142248
12375 1 0.0743081 0.993239 0.13914
12374 3 0.0706452 0.999571 0.135278
13285 1 0.208277 0.989317 0.159461
13286 2 0.217015 0.986142 0.158558
8824 1 0.242504 0.995859 0.15995
1258 1 0.265864 0.978881 0.144555
1259 2 0.270994 0.986071 0.144009
2661 1 0.278587 0.992655 0.141293
1260 1 0.275744 0.990815 0.14228
2660 3 0.284299 0.996379 0.137635
6809 3 0.343449 0.973069 0.142196
6808 1 0.339905 0.973121 0.148451
594 1 0.345121 0.973867 0.131116
6810 1 0.34472 0.973578 0.134642
9510 1 0.401849 0.975283 0.147472
6739 1 0.099676 0.00625983 0.191418
6740 2 0.0980743 0.00153494 0.185521
10120 1 0.137929 0.0164829 0.189086
10121 3 0.140487 0.0237123 0.189024
2340 1 0.179547 0.0139809 0.179153
2339 2 0.176392 0.019358 0.174131
2338 1 0.171525 0.0260911 0.173805
21508 1 0.506563 0.0211204 0.169153
21509 3 0.513641 0.0214828 0.165866
21415 1 0.518321 0.0142929 0.172302
21510 1 0.516994 0.0160817 0.170595
21416 3 0.522123 0.00999637 0.17817
2923 1 0.522627 0.00525599 0.188253
21417 1 0.522587 0.00705985 0.185673
18754 1 0.123499 0.116202 0.183361
18755 3 0.126639 0.120768 0.189168
5001 1 0.0073893 0.134578 0.190844
4999 1 0.0139877 0.145232 0.183679
5000 2 0.0115762 0.142321 0.191486
1011 1 0.0996621 0.141183 0.173579
1010 2 0.100199 0.143833 0.181069
1009 1 0.0979823 0.145384 0.188393
2718 1 0.0969948 0.145536 0.191533
18756 1 0.128263 0.127101 0.192977
7182 1 0.292512 0.14482 0.192024
17883 1 0.489541 0.160455 0.179748
17882 2 0.488176 0.161217 0.187028
8693 2 0.306247 0.19817 0.183086
8694 1 0.307594 0.196403 0.190378
13416 1 0.310415 0.199009 0.172516
8692 1 0.308869 0.1988 0.175634
13415 3 0.313866 0.199727 0.165228
18458 2 0.459308 0.186113 0.181399
18459 1 0.452752 0.183484 0.177925
18457 1 0.461728 0.191355 0.175582
4646 2 0.50635 0.205182 0.165624
6831 1 0.519265 0.182135 0.164401
6830 2 0.516304 0.189484 0.162433
6829 1 0.512168 0.196337 0.163925
4647 1 0.510037 0.198862 0.164536
19574 2 0.506958 0.210875 0.190226
14160 1 0.504672 0.21566 0.162747
4645 1 0.505154 0.213219 0.163813
19575 1 0.511022 0.214139 0.184978
19573 1 0.500203 0.213822 0.192999
19309 1 0.426728 0.310643 0.169229
19310 3 0.43234 0.30745 0.169172
19311 1 0.440495 0.308674 0.169217
18862 1 0.443613 0.309139 0.169357
18863 2 0.451251 0.31049 0.169573
11583 1 0.46207 0.308901 0.164538
18864 1 0.459446 0.309505 0.166291
10335 1 0.476886 0.305066 0.165162
11581 1 0.474266 0.305411 0.163709
10334 3 0.482238 0.304132 0.169797
10333 1 0.48499 0.30328 0.177517
10513 1 0.473286 0.326943 0.190701
16750 1 0.0446633 0.343706 0.16897
16751 2 0.0503974 0.342991 0.163968
18225 1 0.00263426 0.366873 0.189908
13397 2 0.374337 0.388962 0.177685
13396 1 0.377375 0.382596 0.174673
13398 1 0.376335 0.39669 0.177658
10168 1 0.400718 0.446232 0.164281
20694 1 0.05113 0.51406 0.180149
20693 3 0.0456035 0.511573 0.175113
20692 1 0.0401078 0.510887 0.169431
5396 2 0.150095 0.502865 0.187528
5395 1 0.143192 0.502941 0.188551
5421 1 0.140245 0.502755 0.189038
5419 1 0.125226 0.502522 0.192763
5420 3 0.132798 0.503422 0.191007
9793 1 0.159573 0.504573 0.182442
5397 1 0.156812 0.503972 0.183805
9794 3 0.165467 0.506733 0.177649
9795 1 0.171936 0.508439 0.173632
20097 1 0.271218 0.520143 0.163908
20096 2 0.277986 0.52591 0.164704
20985 1 0.299389 0.523663 0.182472
20984 2 0.294933 0.522701 0.175939
20095 1 0.28455 0.524416 0.168976
20983 1 0.287344 0.52415 0.170694
16546 1 0.489552 0.570469 0.187208
16547 2 0.481509 0.569261 0.186846
16548 1 0.476043 0.562905 0.185685
2095 1 0.503914 0.580761 0.161904
9768 1 0.159247 0.663131 0.187386
19476 1 0.487594 0.638533 0.191236
9766 1 0.154751 0.676466 0.192122
9767 3 0.159133 0.67107 0.188556
5903 3 0.0904809 0.705419 0.16403
5904 1 0.0983076 0.708964 0.163578
14373 1 0.19875 0.733632 0.16163
21277 1 0.123718 0.806238 0.183675
21278 3 0.117282 0.809116 0.187892
21279 1 0.1099 0.812175 0.187988
18443 3 0.451288 0.829614 0.162795
18444 1 0.44671 0.824034 0.165112
14334 1 0.458659 0.853794 0.165259
13315 1 0.000233004 0.926363 0.180833
13724 3 0.00579835 0.917569 0.180644
13725 1 0.00517297 0.91102 0.183503
13723 1 0.00150544 0.924394 0.180509
14599 1 0.0484939 0.922408 0.17715
14601 1 0.0367399 0.931825 0.179161
14600 2 0.0421372 0.927956 0.176128
18704 2 0.0742528 0.927089 0.166394
18703 1 0.0791511 0.923999 0.161311
18705 1 0.0664884 0.928789 0.167078
15252 1 0.123292 0.929167 0.190786
15250 1 0.136923 0.922852 0.188575
15251 2 0.131329 0.927331 0.191228
1864 1 0.252257 0.91617 0.190832
15645 1 0.20025 0.96869 0.177832
16568 2 0.225295 0.969061 0.163749
18543 1 0.399295 0.940087 0.193197
6741 1 0.0988276 0.995725 0.179102
15644 2 0.199377 0.976698 0.179585
15643 1 0.196884 0.985269 0.178186
16567 1 0.221934 0.976036 0.16233
13287 1 0.220637 0.978584 0.161515
8826 1 0.233285 0.985146 0.164111
8825 2 0.239913 0.989973 0.164681
15143 2 0.105783 0.00531772 0.210948
15142 1 0.0989369 0.0109422 0.210496
10122 1 0.144028 0.0294794 0.194568
2924 2 0.520839 0.0012558 0.195017
11694 1 0.519872 0.0426882 0.208901
11693 3 0.515046 0.0510041 0.209037
11692 1 0.515196 0.0600816 0.210409
11146 1 0.175386 0.0716286 0.202373
11147 2 0.182558 0.0713184 0.1986
11730 1 0.181312 0.0735416 0.211679
11729 2 0.18095 0.0719712 0.220362
11728 1 0.179849 0.0647058 0.224866
11148 1 0.188142 0.0744753 0.200905
15046 1 0.32318 0.0892131 0.207462
15047 3 0.319279 0.0822047 0.210617
15048 1 0.312731 0.0791732 0.208369
18804 1 0.510325 0.0785313 0.22174
18803 3 0.517233 0.0807633 0.216582
18802 1 0.518852 0.0886843 0.218128
12952 1 0.508188 0.0781385 0.223285
11331 1 0.51845 0.091866 0.218563
11329 1 0.513388 0.107186 0.218235
16390 1 0.51261 0.109598 0.218632
11330 3 0.516282 0.0997333 0.218706
16391 3 0.509937 0.11743 0.219455
2717 2 0.0933806 0.144784 0.198975
16821 1 0.0933986 0.145884 0.20889
2716 1 0.0933175 0.145696 0.205987
16820 3 0.0940242 0.147398 0.218065
7180 1 0.286193 0.140073 0.206255
7181 2 0.289823 0.142505 0.199451
16392 1 0.511136 0.125726 0.219386
14380 1 0.393542 0.154316 0.212404
14425 1 0.404678 0.161339 0.221585
14381 3 0.396468 0.160785 0.215285
14382 1 0.402429 0.161342 0.219789
17881 1 0.486444 0.160128 0.195576
11346 1 0.307817 0.196022 0.193394
11345 2 0.307157 0.195553 0.201512
8653 1 0.310734 0.196568 0.213012
11344 1 0.309597 0.195843 0.209857
8654 3 0.313616 0.198569 0.220553
8655 1 0.320692 0.199648 0.223562
17755 1 0.16151 0.219207 0.210894
17756 3 0.160289 0.220018 0.217883
17757 1 0.163501 0.228162 0.219968
19751 3 0.228866 0.225216 0.203873
19752 1 0.224169 0.22879 0.197917
19750 1 0.231982 0.226676 0.210783
19147 1 0.330215 0.230808 0.207739
19149 1 0.331943 0.223211 0.218392
4335 1 0.332079 0.221655 0.220658
19148 2 0.332651 0.22601 0.211624
2550 1 0.0256441 0.293736 0.217438
2549 2 0.0243769 0.301805 0.215542
15300 1 0.451985 0.302319 0.212871
21414 1 0.519956 0.283754 0.222379