ITEM: TIMESTEP
0
ITEM: NUMBER OF ATOMS
2016
ITEM: BOX BOUNDS pp pp pp
0.0000000000000000e+00 5.0000000000000000e+01
0.0000000000000000e+00 5.0000000000000000e+01
0.0000000000000000e+00 5.0000000000000000e+01
ITEM: ATOMS id type 
82 1 
83 2 
84 1 
310 1 
311 2 
312 1 
325 1 
326 2 
327 1 
367 1 
368 2 
369 1 
376 1 
377 2 
378 1 
484 1 
485 2 
486 1 
1201 1 
1202 3 
1203 1 
1213 1 
1214 2 
1215 1 
1321 1 
1322 2 
1323 1 
1324 1 
1325 2 
1326 1 
1396 1 
1397 2 
1398 1 
1441 1 
1442 2 
1443 1 
1444 1 
1445 2 
1446 1 
1453 1 
1454 2 
1455 1 
1525 1 
1526 3 
1527 1 
1528 1 
1529 2 
1530 1 
1582 1 
1583 3 
1584 1 
2368 1 
2369 2 
2370 1 
2413 1 
2414 2 
2415 1 
2425 1 
2426 2 
2427 1 
2479 1 
2480 2 
2481 1 
2482 1 
2483 2 
2484 1 
2485 1 
2486 2 
2487 1 
2581 1 
2582 2 
2583 1 
2599 1 
2600 2 
2601 1 
3247 1 
3248 2 
3249 1 
3445 1 
3446 2 
3447 1 
3448 1 
3449 2 
3450 1 
3547 1 
3548 2 
3549 1 
3556 1 
3557 3 
3558 1 
3565 1 
3566 2 
3567 1 
3673 1 
3674 2 
3675 1 
3730 1 
3731 2 
3732 1 
4339 1 
4340 2 
4341 1 
4384 1 
4385 2 
4386 1 
4528 1 
4529 2 
4530 1 
4582 1 
4583 2 
4584 1 
4639 1 
4640 2 
4641 1 
4882 1 
4883 2 
4884 1 
5467 1 
5468 2 
5469 1 
5707 1 
5708 2 
5709 1 
5722 1 
5723 2 
5724 1 
5779 1 
5780 2 
5781 1 
5830 1 
5831 3 
5832 1 
5836 1 
5837 2 
5838 1 
5890 1 
5891 2 
5892 1 
6004 1 
6005 2 
6006 1 
6013 1 
6014 2 
6015 1 
6676 1 
6677 2 
6678 1 
6856 1 
6857 3 
6858 1 
6862 1 
6863 2 
6864 1 
6925 1 
6926 3 
6927 1 
6970 1 
6971 2 
6972 1 
6979 1 
6980 2 
6981 1 
7024 1 
7025 2 
7026 1 
7210 1 
7211 3 
7212 1 
7228 1 
7229 2 
7230 1 
7750 1 
7751 2 
7752 1 
7816 1 
7817 2 
7818 1 
7879 1 
7880 2 
7881 1 
7984 1 
7985 2 
7986 1 
7990 1 
7991 3 
7992 1 
8062 1 
8063 2 
8064 1 
8065 1 
8066 2 
8067 1 
8107 1 
8108 2 
8109 1 
8116 1 
8117 2 
8118 1 
8128 1 
8129 2 
8130 1 
8176 1 
8177 2 
8178 1 
8179 1 
8180 2 
8181 1 
8185 1 
8186 2 
8187 1 
8293 1 
8294 2 
8295 1 
8305 1 
8306 2 
8307 1 
8893 1 
8894 2 
8895 1 
8944 1 
8945 2 
8946 1 
8959 1 
8960 3 
8961 1 
9139 1 
9140 2 
9141 1 
9244 1 
9245 2 
9246 1 
9253 1 
9254 2 
9255 1 
9304 1 
9305 2 
9306 1 
9319 1 
9320 2 
9321 1 
9328 1 
9329 2 
9330 1 
10021 1 
10022 3 
10023 1 
10036 1 
10037 2 
10038 1 
10108 1 
10109 2 
10110 1 
10165 1 
10166 2 
10167 1 
10213 1 
10214 3 
10215 1 
10273 1 
10274 2 
10275 1 
10516 1 
10517 2 
10518 1 
10519 1 
10520 2 
10521 1 
11107 1 
11108 2 
11109 1 
11176 1 
11177 2 
11178 1 
11185 1 
11186 2 
11187 1 
11224 1 
11225 2 
11226 1 
11281 1 
11282 2 
11283 1 
11302 1 
11303 2 
11304 1 
11308 1 
11309 2 
11310 1 
11365 1 
11366 2 
11367 1 
12064 1 
12065 2 
12066 1 
12244 1 
12245 2 
12246 1 
12385 1 
12386 3 
12387 1 
12502 1 
12503 2 
12504 1 
12544 1 
12545 2 
12546 1 
12565 1 
12566 3 
12567 1 
13144 1 
13145 2 
13146 1 
13147 1 
13148 2 
13149 1 
13168 1 
13169 2 
13170 1 
13210 1 
13211 2 
13212 1 
13279 1 
13280 2 
13281 1 
13288 1 
13289 2 
13290 1 
13330 1 
13331 2 
13332 1 
13381 1 
13382 2 
13383 1 
13501 1 
13502 3 
13503 1 
13525 1 
13526 2 
13527 1 
13561 1 
13562 3 
13563 1 
13567 1 
13568 2 
13569 1 
14281 1 
14282 2 
14283 1 
14299 1 
14300 2 
14301 1 
14308 1 
14309 2 
14310 1 
14341 1 
14342 2 
14343 1 
14356 1 
14357 3 
14358 1 
14407 1 
14408 3 
14409 1 
14428 1 
14429 2 
14430 1 
14461 1 
14462 2 
14463 1 
14467 1 
14468 2 
14469 1 
14596 1 
14597 2 
14598 1 
14668 1 
14669 2 
14670 1 
15361 1 
15362 2 
15363 1 
15367 1 
15368 2 
15369 1 
15388 1 
15389 2 
15390 1 
15427 1 
15428 2 
15429 1 
15544 1 
15545 2 
15546 1 
15748 1 
15749 2 
15750 1 
16324 1 
16325 2 
16326 1 
16336 1 
16337 2 
16338 1 
16348 1 
16349 2 
16350 1 
16465 1 
16466 3 
16467 1 
16504 1 
16505 2 
16506 1 
16564 1 
16565 2 
16566 1 
16576 1 
16577 2 
16578 1 
16579 1 
16580 2 
16581 1 
16684 1 
16685 2 
16686 1 
16708 1 
16709 2 
16710 1 
17290 1 
17291 2 
17292 1 
17302 1 
17303 3 
17304 1 
17350 1 
17351 2 
17352 1 
17365 1 
17366 2 
17367 1 
17404 1 
17405 2 
17406 1 
17596 1 
17597 2 
17598 1 
17647 1 
17648 2 
17649 1 
17704 1 
17705 3 
17706 1 
18433 1 
18434 2 
18435 1 
18481 1 
18482 2 
18483 1 
18559 1 
18560 2 
18561 1 
18562 1 
18563 2 
18564 1 
18679 1 
18680 2 
18681 1 
18724 1 
18725 2 
18726 1 
18742 1 
18743 2 
18744 1 
18844 1 
18845 2 
18846 1 
18847 1 
18848 2 
18849 1 
19462 1 
19463 2 
19464 1 
19564 1 
19565 2 
19566 1 
19576 1 
19577 2 
19578 1 
19636 1 
19637 3 
19638 1 
19639 1 
19640 3 
19641 1 
19741 1 
19742 2 
19743 1 
19744 1 
19745 2 
19746 1 
19870 1 
19871 3 
19872 1 
20542 1 
20543 2 
20544 1 
20584 1 
20585 3 
20586 1 
20647 1 
20648 2 
20649 1 
21025 1 
21026 2 
21027 1 
40 1 
41 2 
42 1 
232 1 
233 2 
234 1 
283 1 
284 2 
285 1 
340 1 
341 2 
342 1 
346 1 
347 3 
348 1 
520 1 
521 2 
522 1 
1252 1 
1253 2 
1254 1 
1306 1 
1307 2 
1308 1 
1489 1 
1490 2 
1491 1 
1495 1 
1496 2 
1497 1 
1537 1 
1538 3 
1539 1 
1555 1 
1556 3 
1557 1 
1672 1 
1673 3 
1674 1 
2260 1 
2261 2 
2262 1 
2266 1 
2267 2 
2268 1 
2449 1 
2450 2 
2451 1 
2515 1 
2516 2 
2517 1 
2518 1 
2519 3 
2520 1 
2557 1 
2558 2 
2559 1 
2563 1 
2564 2 
2565 1 
2566 1 
2567 2 
2568 1 
3229 1 
3230 2 
3231 1 
3235 1 
3236 3 
3237 1 
3280 1 
3281 2 
3282 1 
3340 1 
3341 2 
3342 1 
3391 1 
3392 2 
3393 1 
3409 1 
3410 2 
3411 1 
3412 1 
3413 2 
3414 1 
3478 1 
3479 3 
3480 1 
3574 1 
3575 2 
3576 1 
3652 1 
3653 3 
3654 1 
3766 1 
3767 2 
3768 1 
4354 1 
4355 2 
4356 1 
4483 1 
4484 2 
4485 1 
4540 1 
4541 2 
4542 1 
4609 1 
4610 2 
4611 1 
4669 1 
4670 2 
4671 1 
4714 1 
4715 2 
4716 1 
4771 1 
4772 3 
4773 1 
4891 1 
4892 2 
4893 1 
4900 1 
4901 3 
4902 1 
5497 1 
5498 2 
5499 1 
5500 1 
5501 2 
5502 1 
5506 1 
5507 2 
5508 1 
5620 1 
5621 2 
5622 1 
5695 1 
5696 2 
5697 1 
5743 1 
5744 3 
5745 1 
5752 1 
5753 2 
5754 1 
5812 1 
5813 2 
5814 1 
5857 1 
5858 2 
5859 1 
5863 1 
5864 2 
5865 1 
5989 1 
5990 2 
5991 1 
6034 1 
6035 2 
6036 1 
6040 1 
6041 3 
6042 1 
6052 1 
6053 2 
6054 1 
6820 1 
6821 2 
6822 1 
6994 1 
6995 2 
6996 1 
7051 1 
7052 2 
7053 1 
7063 1 
7064 2 
7065 1 
7111 1 
7112 2 
7113 1 
7135 1 
7136 2 
7137 1 
7186 1 
7187 2 
7188 1 
7789 1 
7790 2 
7791 1 
7795 1 
7796 2 
7797 1 
7975 1 
7976 2 
7977 1 
8083 1 
8084 2 
8085 1 
8095 1 
8096 2 
8097 1 
8152 1 
8153 2 
8154 1 
8191 1 
8192 2 
8193 1 
8974 1 
8975 3 
8976 1 
9031 1 
9032 2 
9033 1 
9097 1 
9098 2 
9099 1 
9118 1 
9119 2 
9120 1 
9157 1 
9158 2 
9159 1 
9160 1 
9161 2 
9162 1 
9217 1 
9218 2 
9219 1 
9238 1 
9239 2 
9240 1 
9334 1 
9335 2 
9336 1 
9994 1 
9995 2 
9996 1 
10054 1 
10055 2 
10056 1 
10246 1 
10247 2 
10248 1 
10312 1 
10313 3 
10314 1 
10315 1 
10316 2 
10317 1 
10429 1 
10430 3 
10431 1 
10480 1 
10481 2 
10482 1 
10492 1 
10493 3 
10494 1 
10543 1 
10544 2 
10545 1 
10549 1 
10550 3 
10551 1 
11158 1 
11159 3 
11160 1 
11251 1 
11252 2 
11253 1 
11374 1 
11375 3 
11376 1 
11398 1 
11399 2 
11400 1 
11431 1 
11432 2 
11433 1 
11446 1 
11447 3 
11448 1 
11497 1 
11498 2 
11499 1 
11500 1 
11501 2 
11502 1 
12172 1 
12173 2 
12174 1 
12217 1 
12218 3 
12219 1 
12235 1 
12236 2 
12237 1 
12400 1 
12401 2 
12402 1 
12451 1 
12452 2 
12453 1 
12460 1 
12461 3 
12462 1 
12658 1 
12659 2 
12660 1 
13351 1 
13352 2 
13353 1 
13366 1 
13367 2 
13368 1 
13537 1 
13538 2 
13539 1 
14272 1 
14273 2 
14274 1 
14320 1 
14321 2 
14322 1 
14434 1 
14435 3 
14436 1 
14437 1 
14438 2 
14439 1 
14566 1 
14567 2 
14568 1 
14569 1 
14570 2 
14571 1 
14680 1 
14681 3 
14682 1 
15334 1 
15335 2 
15336 1 
15349 1 
15350 2 
15351 1 
15454 1 
15455 2 
15456 1 
15583 1 
15584 3 
15585 1 
16351 1 
16352 2 
16353 1 
16411 1 
16412 2 
16413 1 
16558 1 
16559 2 
16560 1 
16600 1 
16601 2 
16602 1 
16609 1 
16610 2 
16611 1 
16657 1 
16658 3 
16659 1 
16678 1 
16679 2 
16680 1 
16717 1 
16718 2 
16719 1 
17311 1 
17312 2 
17313 1 
17503 1 
17504 3 
17505 1 
17626 1 
17627 2 
17628 1 
17671 1 
17672 2 
17673 1 
17695 1 
17696 2 
17697 1 
18574 1 
18575 2 
18576 1 
18631 1 
18632 2 
18633 1 
18637 1 
18638 2 
18639 1 
18640 1 
18641 2 
18642 1 
18706 1 
18707 2 
18708 1 
18811 1 
18812 2 
18813 1 
19477 1 
19478 2 
19479 1 
19495 1 
19496 2 
19497 1 
19663 1 
19664 2 
19665 1 
19903 1 
19904 2 
19905 1 
19918 1 
19919 2 
19920 1 
20572 1 
20573 2 
20574 1 
20623 1 
20624 2 
20625 1 
20743 1 
20744 2 
20745 1 
20806 1 
20807 2 
20808 1 
20866 1 
20867 2 
20868 1 
20971 1 
20972 2 
20973 1 
21055 1 
21056 2 
21057 1 
568 1 
569 3 
570 1 
610 1 
611 3 
612 1 
619 1 
620 3 
621 1 
622 1 
623 2 
624 1 
748 1 
749 2 
750 1 
781 1 
782 2 
783 1 
784 1 
785 3 
786 1 
844 1 
845 2 
846 1 
850 1 
851 2 
852 1 
922 1 
923 2 
924 1 
976 1 
977 2 
978 1 
985 1 
986 2 
987 1 
1039 1 
1040 2 
1041 1 
1045 1 
1046 2 
1047 1 
1828 1 
1829 2 
1830 1 
1870 1 
1871 2 
1872 1 
1936 1 
1937 2 
1938 1 
2113 1 
2114 3 
2115 1 
2119 1 
2120 2 
2121 1 
2125 1 
2126 2 
2127 1 
2179 1 
2180 3 
2181 1 
2653 1 
2654 2 
2655 1 
2776 1 
2777 2 
2778 1 
2785 1 
2786 2 
2787 1 
2824 1 
2825 2 
2826 1 
2827 1 
2828 2 
2829 1 
2884 1 
2885 2 
2886 1 
2899 1 
2900 2 
2901 1 
2950 1 
2951 3 
2952 1 
3064 1 
3065 2 
3066 1 
3781 1 
3782 2 
3783 1 
3787 1 
3788 2 
3789 1 
3790 1 
3791 2 
3792 1 
3847 1 
3848 2 
3849 1 
3853 1 
3854 2 
3855 1 
3916 1 
3917 2 
3918 1 
4081 1 
4082 2 
4083 1 
4102 1 
4103 2 
4104 1 
4156 1 
4157 3 
4158 1 
4201 1 
4202 2 
4203 1 
4219 1 
4220 2 
4221 1 
4261 1 
4262 2 
4263 1 
4930 1 
4931 2 
4932 1 
5122 1 
5123 2 
5124 1 
5164 1 
5165 2 
5166 1 
5170 1 
5171 2 
5172 1 
5359 1 
5360 2 
5361 1 
5401 1 
5402 2 
5403 1 
6190 1 
6191 2 
6192 1 
6193 1 
6194 2 
6195 1 
6205 1 
6206 2 
6207 1 
6253 1 
6254 3 
6255 1 
6385 1 
6386 2 
6387 1 
6388 1 
6389 2 
6390 1 
6445 1 
6446 3 
6447 1 
7270 1 
7271 2 
7272 1 
7387 1 
7388 2 
7389 1 
7393 1 
7394 2 
7395 1 
7408 1 
7409 3 
7410 1 
7573 1 
7574 2 
7575 1 
7576 1 
7577 3 
7578 1 
8353 1 
8354 3 
8355 1 
8590 1 
8591 2 
8592 1 
8608 1 
8609 2 
8610 1 
8659 1 
8660 3 
8661 1 
8761 1 
8762 2 
8763 1 
8785 1 
8786 3 
8787 1 
9439 1 
9440 2 
9441 1 
9484 1 
9485 3 
9486 1 
9541 1 
9542 2 
9543 1 
9568 1 
9569 2 
9570 1 
9601 1 
9602 3 
9603 1 
9619 1 
9620 2 
9621 1 
9628 1 
9629 2 
9630 1 
9664 1 
9665 2 
9666 1 
9844 1 
9845 2 
9846 1 
9862 1 
9863 2 
9864 1 
10561 1 
10562 3 
10563 1 
10624 1 
10625 2 
10626 1 
10804 1 
10805 2 
10806 1 
10825 1 
10826 3 
10827 1 
10861 1 
10862 2 
10863 1 
10879 1 
10880 2 
10881 1 
10924 1 
10925 2 
10926 1 
10933 1 
10934 2 
10935 1 
10993 1 
10994 3 
10995 1 
11059 1 
11060 2 
11061 1 
11593 1 
11594 2 
11595 1 
11710 1 
11711 2 
11712 1 
11716 1 
11717 2 
11718 1 
11722 1 
11723 2 
11724 1 
11839 1 
11840 2 
11841 1 
11842 1 
11843 2 
11844 1 
11908 1 
11909 2 
11910 1 
11944 1 
11945 2 
11946 1 
11965 1 
11966 2 
11967 1 
12028 1 
12029 2 
12030 1 
12670 1 
12671 2 
12672 1 
12673 1 
12674 3 
12675 1 
12721 1 
12722 2 
12723 1 
12784 1 
12785 2 
12786 1 
12799 1 
12800 2 
12801 1 
12850 1 
12851 2 
12852 1 
12853 1 
12854 2 
12855 1 
12868 1 
12869 2 
12870 1 
12988 1 
12989 2 
12990 1 
13027 1 
13028 3 
13029 1 
13030 1 
13031 2 
13032 1 
13045 1 
13046 2 
13047 1 
13744 1 
13745 2 
13746 1 
13807 1 
13808 2 
13809 1 
14125 1 
14126 2 
14127 1 
14701 1 
14702 2 
14703 1 
14719 1 
14720 2 
14721 1 
14728 1 
14729 2 
14730 1 
14764 1 
14765 2 
14766 1 
14890 1 
14891 2 
14892 1 
15001 1 
15002 2 
15003 1 
15184 1 
15185 2 
15186 1 
15208 1 
15209 2 
15210 1 
15919 1 
15920 2 
15921 1 
15925 1 
15926 3 
15927 1 
15928 1 
15929 2 
15930 1 
15961 1 
15962 2 
15963 1 
15976 1 
15977 2 
15978 1 
16081 1 
16082 2 
16083 1 
16165 1 
16166 2 
16167 1 
16801 1 
16802 2 
16803 1 
16828 1 
16829 2 
16830 1 
16864 1 
16865 3 
16866 1 
16867 1 
16868 2 
16869 1 
17116 1 
17117 2 
17118 1 
17119 1 
17120 2 
17121 1 
17122 1 
17123 3 
17124 1 
17161 1 
17162 3 
17163 1 
17182 1 
17183 2 
17184 1 
17827 1 
17828 2 
17829 1 
17833 1 
17834 2 
17835 1 
17839 1 
17840 2 
17841 1 
17893 1 
17894 2 
17895 1 
17944 1 
17945 2 
17946 1 
18076 1 
18077 3 
18078 1 
18928 1 
18929 2 
18930 1 
19027 1 
19028 2 
19029 1 
19102 1 
19103 3 
19104 1 
19141 1 
19142 2 
19143 1 
19153 1 
19154 2 
19155 1 
19210 1 
19211 2 
19212 1 
19273 1 
19274 2 
19275 1 
19282 1 
19283 2 
19284 1 
19921 1 
19922 2 
19923 1 
19924 1 
19925 2 
19926 1 
20050 1 
20051 2 
20052 1 
20062 1 
20063 2 
20064 1 
20116 1 
20117 2 
20118 1 
20170 1 
20171 3 
20172 1 
20188 1 
20189 2 
20190 1 
20350 1 
20351 3 
20352 1 
20479 1 
20480 2 
20481 1 
21121 1 
21122 2 
21123 1 
21196 1 
21197 3 
21198 1 
21202 1 
21203 2 
21204 1 
21241 1 
21242 3 
21243 1 
21250 1 
21251 2 
21252 1 
21262 1 
21263 2 
21264 1 
21268 1 
21269 2 
21270 1 
21313 1 
21314 2 
21315 1 
21373 1 
21374 2 
21375 1 
21379 1 
21380 2 
21381 1 
21382 1 
21383 2 
21384 1 
21424 1 
21425 3 
21426 1 
577 1 
578 2 
579 1 
580 1 
581 2 
582 1 
637 1 
638 2 
639 1 
718 1 
719 2 
720 1 
760 1 
761 2 
762 1 
889 1 
890 2 
891 1 
994 1 
995 3 
996 1 
1063 1 
1064 2 
1065 1 
1126 1 
1127 2 
1128 1 
1723 1 
1724 2 
1725 1 
1774 1 
1775 2 
1776 1 
1855 1 
1856 2 
1857 1 
2017 1 
2018 2 
2019 1 
2737 1 
2738 2 
2739 1 
2758 1 
2759 3 
2760 1 
2815 1 
2816 3 
2817 1 
2920 1 
2921 2 
2922 1 
3034 1 
3035 2 
3036 1 
3043 1 
3044 2 
3045 1 
3049 1 
3050 2 
3051 1 
3097 1 
3098 2 
3099 1 
3115 1 
3116 2 
3117 1 
3169 1 
3170 2 
3171 1 
3814 1 
3815 2 
3816 1 
3835 1 
3836 3 
3837 1 
3934 1 
3935 2 
3936 1 
3952 1 
3953 2 
3954 1 
3958 1 
3959 2 
3960 1 
3991 1 
3992 2 
3993 1 
4051 1 
4052 2 
4053 1 
4198 1 
4199 2 
4200 1 
4255 1 
4256 2 
4257 1 
4315 1 
4316 3 
4317 1 
5017 1 
5018 2 
5019 1 
5134 1 
5135 2 
5136 1 
5140 1 
5141 2 
5142 1 
5152 1 
5153 2 
5154 1 
5206 1 
5207 3 
5208 1 
5371 1 
5372 2 
5373 1 
5377 1 
5378 2 
5379 1 
5380 1 
5381 2 
5382 1 
6103 1 
6104 2 
6105 1 
6178 1 
6179 2 
6180 1 
6211 1 
6212 2 
6213 1 
6223 1 
6224 2 
6225 1 
6289 1 
6290 2 
6291 1 
6352 1 
6353 2 
6354 1 
6406 1 
6407 2 
6408 1 
6415 1 
6416 2 
6417 1 
6469 1 
6470 2 
6471 1 
6589 1 
6590 2 
6591 1 
6634 1 
6635 2 
6636 1 
7297 1 
7298 2 
7299 1 
7315 1 
7316 2 
7317 1 
7435 1 
7436 3 
7437 1 
8440 1 
8441 2 
8442 1 
8446 1 
8447 3 
8448 1 
8452 1 
8453 2 
8454 1 
8503 1 
8504 2 
8505 1 
8566 1 
8567 2 
8568 1 
8575 1 
8576 2 
8577 1 
8611 1 
8612 3 
8613 1 
8623 1 
8624 3 
8625 1 
8857 1 
8858 2 
8859 1 
8869 1 
8870 2 
8871 1 
9400 1 
9401 2 
9402 1 
9409 1 
9410 2 
9411 1 
9412 1 
9413 3 
9414 1 
9454 1 
9455 2 
9456 1 
9466 1 
9467 2 
9468 1 
9571 1 
9572 2 
9573 1 
9718 1 
9719 2 
9720 1 
9874 1 
9875 3 
9876 1 
10609 1 
10610 2 
10611 1 
10678 1 
10679 2 
10680 1 
10771 1 
10772 2 
10773 1 
10792 1 
10793 2 
10794 1 
10795 1 
10796 3 
10797 1 
10798 1 
10799 2 
10800 1 
10834 1 
10835 2 
10836 1 
10957 1 
10958 2 
10959 1 
11014 1 
11015 2 
11016 1 
11038 1 
11039 2 
11040 1 
11077 1 
11078 2 
11079 1 
11089 1 
11090 2 
11091 1 
11560 1 
11561 2 
11562 1 
11578 1 
11579 2 
11580 1 
11680 1 
11681 2 
11682 1 
11683 1 
11684 2 
11685 1 
11695 1 
11696 2 
11697 1 
11818 1 
11819 3 
11820 1 
12046 1 
12047 2 
12048 1 
12697 1 
12698 2 
12699 1 
12712 1 
12713 2 
12714 1 
12715 1 
12716 2 
12717 1 
12766 1 
12767 2 
12768 1 
12775 1 
12776 2 
12777 1 
12898 1 
12899 2 
12900 1 
12943 1 
12944 3 
12945 1 
13003 1 
13004 2 
13005 1 
13060 1 
13061 3 
13062 1 
13114 1 
13115 2 
13116 1 
13126 1 
13127 2 
13128 1 
13129 1 
13130 2 
13131 1 
13135 1 
13136 2 
13137 1 
13138 1 
13139 2 
13140 1 
13651 1 
13652 2 
13653 1 
13666 1 
13667 2 
13668 1 
13777 1 
13778 2 
13779 1 
13846 1 
13847 3 
13848 1 
13849 1 
13850 2 
13851 1 
13912 1 
13913 2 
13914 1 
13972 1 
13973 2 
13974 1 
14134 1 
14135 2 
14136 1 
14203 1 
14204 2 
14205 1 
14752 1 
14753 2 
14754 1 
14755 1 
14756 2 
14757 1 
14791 1 
14792 2 
14793 1 
14815 1 
14816 2 
14817 1 
14854 1 
14855 2 
14856 1 
14860 1 
14861 2 
14862 1 
14935 1 
14936 2 
14937 1 
14989 1 
14990 2 
14991 1 
14998 1 
14999 2 
15000 1 
15037 1 
15038 2 
15039 1 
15097 1 
15098 2 
15099 1 
16111 1 
16112 2 
16113 1 
16303 1 
16304 3 
16305 1 
16789 1 
16790 2 
16791 1 
16843 1 
16844 2 
16845 1 
16849 1 
16850 2 
16851 1 
16855 1 
16856 2 
16857 1 
16894 1 
16895 2 
16896 1 
16900 1 
16901 2 
16902 1 
16903 1 
16904 2 
16905 1 
16906 1 
16907 2 
16908 1 
16969 1 
16970 3 
16971 1 
17029 1 
17030 2 
17031 1 
17071 1 
17072 2 
17073 1 
17155 1 
17156 2 
17157 1 
17878 1 
17879 2 
17880 1 
17917 1 
17918 2 
17919 1 
18043 1 
18044 2 
18045 1 
18100 1 
18101 2 
18102 1 
18151 1 
18152 2 
18153 1 
18172 1 
18173 2 
18174 1 
18232 1 
18233 2 
18234 1 
18337 1 
18338 2 
18339 1 
18346 1 
18347 2 
18348 1 
18952 1 
18953 2 
18954 1 
19003 1 
19004 2 
19005 1 
19006 1 
19007 2 
19008 1 
19009 1 
19010 2 
19011 1 
19012 1 
19013 2 
19014 1 
19075 1 
19076 2 
19077 1 
19078 1 
19079 3 
19080 1 
19171 1 
19172 2 
19173 1 
19174 1 
19175 3 
19176 1 
19189 1 
19190 2 
19191 1 
19414 1 
19415 2 
19416 1 
19426 1 
19427 2 
19428 1 
20017 1 
20018 2 
20019 1 
20080 1 
20081 2 
20082 1 
20146 1 
20147 2 
20148 1 
20149 1 
20150 2 
20151 1 
20263 1 
20264 2 
20265 1 
20269 1 
20270 3 
20271 1 
20326 1 
20327 2 
20328 1 
20446 1 
20447 3 
20448 1 
20494 1 
20495 2 
20496 1 
20518 1 
20519 2 
20520 1 
21157 1 
21158 3 
21159 1 
21163 1 
21164 3 
21165 1 
21166 1 
21167 2 
21168 1 
21220 1 
21221 2 
21222 1 
21295 1 
21296 2 
21297 1 
21298 1 
21299 3 
21300 1 
21394 1 
21395 2 
21396 1 
21406 1 
21407 2 
21408 1 
21454 1 
21455 2 
21456 1 
21475 1 
21476 2 
21477 1 
21526 1 
21527 3 
21528 1 
