ITEM: TIMESTEP
35000000
ITEM: NUMBER OF ENTRIES
498
ITEM: BOX BOUNDS pp pp pp
0 50
0 50
0 50
ITEM: ENTRIES c_binfo[1] c_binfo[2] c_binfo[3] 
2 19586 19587 
2 4705 4706 
1 4705 13941 
2 13940 13941 
2 4706 4707 
2 13939 13940 
3 10216 10217 
1 10216 13939 
2 10846 10847 
1 10846 19585 
2 19585 19586 
2 1060 1061 
1 1060 10620 
2 13453 13454 
2 13454 13455 
1 13455 17062 
1 1062 13453 
2 1061 1062 
2 17062 17063 
2 6535 6536 
1 4707 6535 
2 6536 6537 
2 17063 17064 
2 11983 11984 
1 11983 14731 
2 14731 14732 
2 14732 14733 
1 17064 20163 
2 11984 11985 
2 13304 13305 
2 3437 3438 
2 3436 3437 
1 3436 13305 
2 13303 13304 
1 13303 20373 
1 3438 4594 
2 4594 4595 
2 4595 4596 
1 6933 14733 
2 3512 3513 
2 6932 6933 
2 6931 6932 
1 3513 17415 
2 17414 17415 
2 13142 13143 
2 8929 8930 
2 13141 13142 
1 8931 19692 
2 8930 8931 
3 1427 1428 
3 1426 1427 
1 1426 15687 
2 10619 10620 
2 10618 10619 
1 10618 15685 
2 15686 15687 
2 15685 15686 
3 16204 16205 
1 16204 18187 
3 18187 18188 
3 18188 18189 
3 16205 16206 
2 331 332 
1 331 18189 
2 332 333 
2 3244 3245 
1 3244 16747 
2 16748 16749 
2 16747 16748 
2 3245 3246 
2 6586 6587 
2 6587 6588 
1 6588 19860 
2 16781 16782 
2 16780 16781 
2 7930 7931 
1 7930 9579 
2 9578 9579 
2 19859 19860 
2 18593 18594 
1 333 18592 
2 18592 18593 
2 19858 19859 
2 18931 18932 
1 18931 19858 
2 18932 18933 
2 3520 3521 
1 3520 18594 
1 2061 18178 
2 3521 3522 
1 588 18933 
2 587 588 
2 586 587 
3 9176 9177 
3 9175 9176 
1 9177 13165 
2 13165 13166 
2 13166 13167 
2 7931 7932 
1 7932 16749 
2 11780 11781 
1 4608 11781 
2 4607 4608 
2 9911 9912 
1 9912 18180 
2 18179 18180 
2 18178 18179 
2 4606 4607 
1 4606 9910 
2 9910 9911 
2 16592 16593 
2 7027 7028 
1 7027 8271 
1 7029 13167 
2 7028 7029 
1 3246 11542 
2 11542 11543 
1 11544 20575 
2 11543 11544 
2 20575 20576 
2 20576 20577 
2 16006 16007 
2 16007 16008 
2 1276 1277 
1 1276 11115 
2 11114 11115 
2 12632 12633 
2 12631 12632 
1 1278 12631 
2 1277 1278 
2 18479 18480 
2 18478 18479 
2 19085 19086 
2 19084 19085 
2 9781 9782 
1 9781 19084 
2 1523 1524 
2 9782 9783 
2 1609 1610 
2 1522 1523 
1 1522 1609 
2 1610 1611 
1 1611 7407 
2 9577 9578 
1 9577 13966 
2 13966 13967 
2 13967 13968 
1 13968 19086 
2 1015 1016 
1 1015 1374 
2 1513 1514 
2 1514 1515 
2 1016 1017 
2 2060 2061 
2 19721 19722 
2 19720 19721 
2 9896 9897 
1 9897 19720 
2 9895 9896 
2 2059 2060 
1 2059 9895 
2 931 932 
1 931 16591 
2 16591 16592 
2 7406 7407 
2 7405 7406 
1 933 7405 
2 932 933 
2 14101 14102 
2 14102 14103 
2 11779 11780 
1 4410 11779 
2 1373 1374 
2 1372 1373 
1 1372 1513 
2 4838 4839 
2 2416 2417 
2 2417 2418 
2 12299 12300 
1 3522 12300 
2 12298 12299 
1 12298 18727 
2 18727 18728 
2 18728 18729 
2 10357 10358 
1 7869 10357 
2 7868 7869 
1 15639 18729 
1 2418 17652 
2 17651 17652 
2 2435 2436 
1 2436 4251 
2 4250 4251 
2 7867 7868 
2 4249 4250 
1 4249 7867 
2 17650 17651 
2 5431 5432 
1 5431 17650 
2 5432 5433 
1 5433 18528 
2 2434 2435 
1 2434 10467 
2 10466 10467 
2 4837 4838 
1 4837 12571 
2 12572 12573 
2 3311 3312 
2 3310 3311 
1 3310 3349 
2 12571 12572 
2 3349 3350 
2 3350 3351 
2 19097 19098 
2 19096 19097 
1 3312 21130 
2 21130 21131 
1 10359 12573 
2 10358 10359 
2 6665 6666 
2 9197 9198 
2 9196 9197 
1 9198 17187 
2 18527 18528 
2 17186 17187 
2 6664 6665 
1 6664 18526 
2 18526 18527 
2 8270 8271 
2 17185 17186 
3 7676 7677 
1 7677 8269 
2 8269 8270 
3 7675 7676 
2 5855 5856 
1 5856 9735 
2 9733 9734 
1 9733 20577 
2 9734 9735 
2 8500 8501 
1 8500 11113 
2 11113 11114 
2 8501 8502 
2 21131 21132 
2 14851 14852 
1 14851 21132 
2 14852 14853 
1 12744 14853 
2 12743 12744 
2 12742 12743 
1 12742 14592 
2 17852 17853 
2 17851 17852 
2 6901 6902 
1 6901 8502 
2 14972 14973 
2 14971 14972 
1 14973 17851 
2 4223 4224 
1 2898 4222 
2 4222 4223 
2 2897 2898 
2 2896 2897 
2 1966 1967 
2 1967 1968 
2 18565 18566 
2 18566 18567 
2 431 432 
1 432 9783 
2 10847 10848 
2 430 431 
1 430 10218 
3 10217 10218 
2 13877 13878 
2 13876 13877 
2 12599 12600 
1 15513 19722 
2 15512 15513 
1 12600 15511 
2 15511 15512 
2 1093 1094 
1 1093 1515 
2 1094 1095 
2 6023 6024 
2 6022 6023 
1 1095 6022 
1 6024 20371 
2 20372 20373 
2 20371 20372 
2 7189 7190 
2 12563 12564 
2 20162 20163 
2 12562 12563 
1 12562 20161 
2 20161 20162 
1 11103 15637 
2 15637 15638 
2 15638 15639 
2 11101 11102 
2 11102 11103 
2 3511 3512 
1 3511 16884 
2 16883 16884 
2 16882 16883 
2 1223 1224 
2 1222 1223 
1 1222 3351 
2 6713 6714 
2 1750 1751 
2 970 971 
1 970 6666 
2 20104 20105 
2 1751 1752 
2 20105 20106 
1 6714 20104 
2 10465 10466 
1 10465 14296 
2 14296 14297 
2 14297 14298 
1 14298 20106 
2 5854 5855 
2 21580 21581 
2 17413 17414 
1 17413 21580 
2 3079 3080 
1 3079 13141 
2 6712 6713 
1 3081 6712 
2 3080 3081 
2 971 972 
2 14591 14592 
2 14590 14591 
1 14590 19690 
2 19690 19691 
2 21581 21582 
2 6019 6020 
1 6019 17853 
2 6020 6021 
1 17973 21582 
2 17971 17972 
2 17972 17973 
1 6783 17971 
2 1795 1796 
1 1795 4224 
2 1796 1797 
2 19691 19692 
1 975 6781 
2 6782 6783 
2 6781 6782 
2 3725 3726 
1 11985 20613 
2 5591 5592 
3 11773 11774 
3 11774 11775 
2 5590 5591 
1 5590 11773 
2 14174 14175 
1 5592 14175 
2 14384 14385 
2 14173 14174 
1 14173 14385 
2 14383 14384 
1 14383 16249 
2 16249 16250 
3 974 975 
3 973 974 
2 16822 16823 
2 16823 16824 
1 9615 16824 
3 9614 9615 
3 9613 9614 
1 9613 14161 
2 14161 14162 
2 14162 14163 
2 20579 20580 
3 13100 13101 
3 13099 13100 
2 13018 13019 
1 13018 13099 
2 20578 20579 
2 13019 13020 
1 13020 20578 
3 5078 5079 
3 13439 13440 
3 13438 13439 
3 5077 5078 
1 5077 13438 
3 1177 1178 
1 1177 5079 
2 14836 14837 
2 14837 14838 
2 12242 12243 
2 16208 16209 
2 16207 16208 
1 1299 12243 
2 1298 1299 
2 1297 1298 
1 1297 14163 
1 1017 12922 
1 12924 15102 
2 12922 12923 
2 12923 12924 
2 13009 13010 
2 13010 13011 
2 14888 14889 
2 4409 4410 
1 5496 12564 
2 14887 14888 
1 11751 14887 
2 11719 11720 
1 11719 14889 
2 11720 11721 
2 4408 4409 
1 4408 5494 
2 5495 5496 
2 5494 5495 
2 11750 11751 
3 13094 13095 
3 13093 13094 
2 2983 2984 
1 2983 13093 
2 2984 2985 
1 2985 6229 
2 625 626 
1 625 11721 
2 6229 6230 
2 626 627 
1 627 4839 
2 6230 6231 
1 6231 20580 
2 13006 13007 
1 10623 18657 
3 18656 18657 
2 14522 14523 
2 10622 10623 
2 10621 10622 
1 10621 14521 
2 14521 14522 
1 1179 11128 
3 11128 11129 
3 18655 18656 
3 11129 11130 
1 11130 18655 
2 6902 6903 
3 1178 1179 
3 14099 14100 
3 14098 14099 
1 9702 14098 
2 15101 15102 
2 15100 15101 
1 15100 19371 
2 9701 9702 
2 9700 9701 
1 9700 11952 
2 19370 19371 
2 11951 11952 
2 12598 12599 
1 12598 14965 
2 12241 12242 
2 4550 4551 
2 4549 4550 
1 4549 12241 
2 3724 3725 
1 3724 14967 
2 11950 11951 
1 4551 11950 
2 14965 14966 
2 14966 14967 
2 5330 5331 
2 5329 5330 
1 5329 19369 
2 19369 19370 
2 11749 11750 
2 20612 20613 
2 8509 8510 
1 8509 20611 
2 2356 2357 
1 2356 7191 
2 2357 2358 
2 8510 8511 
1 8511 11749 
2 20611 20612 
2 1019 1020 
2 1018 1019 
1 747 14523 
1 1020 13095 
2 745 746 
1 745 16251 
2 746 747 
2 16250 16251 
2 7190 7191 
2 13007 13008 
3 6509 6510 
2 281 282 
2 280 281 
1 280 6508 
3 6508 6509 
1 282 6903 
