ITEM: TIMESTEP
35000000
ITEM: NUMBER OF ATOMS
2202
ITEM: BOX BOUNDS pp pp pp
0.0000000000000000e+00 5.0000000000000000e+01
0.0000000000000000e+00 5.0000000000000000e+01
0.0000000000000000e+00 5.0000000000000000e+01
ITEM: ATOMS id type xs ys zs
13669 1 0.498894 0.65444 0.320071
13670 2 0.506238 0.6538 0.321519
6170 2 0.526845 0.596102 0.338018
5232 1 0.519897 0.590455 0.343948
6171 1 0.521402 0.591991 0.34196
5231 2 0.516692 0.585841 0.349352
14983 1 0.524734 0.616375 0.344389
14984 2 0.528201 0.622005 0.339769
17770 1 0.523288 0.648251 0.339481
13671 1 0.511845 0.651018 0.326227
17771 2 0.517448 0.647961 0.333969
17772 1 0.513359 0.650248 0.327951
15054 1 0.50565 0.680771 0.3539
7631 2 0.528805 0.68689 0.353036
15052 1 0.518325 0.687105 0.3512
7630 1 0.521295 0.68689 0.351497
15053 2 0.509978 0.686574 0.350651
5230 1 0.51193 0.583523 0.35719
9983 2 0.525061 0.589391 0.383853
9982 1 0.516499 0.590454 0.386093
18272 3 0.524322 0.632246 0.379919
18273 1 0.519153 0.634899 0.381782
5908 1 0.509906 0.65594 0.3716
5909 2 0.510117 0.662026 0.377432
3157 1 0.486179 0.695052 0.383919
16878 1 0.486482 0.695624 0.381445
6394 1 0.529656 0.675684 0.378821
18939 1 0.529302 0.675946 0.382157
18049 1 0.519884 0.692256 0.372709
324 1 0.521381 0.694474 0.373158
18050 2 0.515718 0.686255 0.373223
5910 1 0.511756 0.669142 0.376524
18051 1 0.516532 0.677796 0.373827
16876 1 0.481519 0.697474 0.368087
16877 2 0.486226 0.698221 0.374805
323 2 0.527326 0.699462 0.37381
12483 1 0.526059 0.481971 0.416732
11787 1 0.530418 0.480563 0.39135
11786 3 0.523873 0.483648 0.394185
11784 1 0.524312 0.483933 0.417752
12482 3 0.529837 0.476091 0.413263
15231 1 0.51923 0.501913 0.41706
15230 3 0.519423 0.508845 0.413315
11785 1 0.516936 0.487643 0.396905
11782 1 0.518932 0.499063 0.418148
133 1 0.483995 0.519835 0.413938
134 3 0.484013 0.517035 0.40662
135 1 0.490799 0.520253 0.403199
16132 1 0.493725 0.521583 0.401944
18 1 0.5306 0.544561 0.394683
1054 1 0.52025 0.536523 0.417297
1055 2 0.521272 0.528408 0.414927
16133 3 0.500294 0.524683 0.3985
16134 1 0.50706 0.529063 0.396858
17823 1 0.509192 0.53068 0.396575
17822 2 0.514472 0.536025 0.395857
1056 1 0.519776 0.520514 0.414743
15229 1 0.519648 0.517443 0.414665
17821 1 0.515903 0.543221 0.392855
13362 1 0.520438 0.538862 0.417904
17 2 0.530969 0.548602 0.400581
18295 1 0.51622 0.545822 0.391347
18296 2 0.516548 0.551973 0.386919
18297 1 0.518192 0.559024 0.389459
13712 2 0.52006 0.567743 0.394454
13713 1 0.518625 0.561474 0.390335
13711 1 0.52391 0.574303 0.398838
270 1 0.498108 0.592416 0.389168
6181 1 0.530807 0.586894 0.409449
6183 1 0.524888 0.576769 0.400277
6182 2 0.526601 0.58247 0.404822
268 1 0.513239 0.590812 0.387012
269 2 0.505896 0.59048 0.389966
13230 1 0.529232 0.61855 0.408307
2996 2 0.526097 0.633678 0.415945
2995 1 0.524414 0.641251 0.414583
11092 1 0.523878 0.644288 0.413806
7361 2 0.50564 0.663239 0.405139
11094 1 0.514786 0.657083 0.408306
7362 1 0.512359 0.658869 0.407203
11093 2 0.521568 0.651529 0.411508
13925 3 0.495447 0.676864 0.396108
13924 1 0.499744 0.671148 0.400247
3158 2 0.48422 0.691187 0.390025
13926 1 0.489498 0.682906 0.393292
3159 1 0.488036 0.684954 0.392011
19188 1 0.526177 0.672927 0.40219
18937 1 0.526498 0.673806 0.398806
19186 1 0.520775 0.670647 0.415998
19187 2 0.526334 0.671693 0.40939
18938 2 0.527808 0.675627 0.390045
7360 1 0.501198 0.669326 0.401193
9156 1 0.49677 0.421132 0.442864
9154 1 0.504985 0.434878 0.443773
9155 3 0.501751 0.427545 0.441741
21470 3 0.519193 0.441954 0.430286
21469 1 0.519239 0.450224 0.43187
21471 1 0.526086 0.437769 0.428522
11239 1 0.529144 0.436738 0.42804
5789 3 0.508416 0.462551 0.440006
5788 1 0.512687 0.46334 0.432901
16027 1 0.514304 0.463415 0.430687
5790 1 0.508623 0.460277 0.447814
16028 3 0.519053 0.46281 0.424096
11311 1 0.510191 0.47918 0.431668
16029 1 0.526499 0.460307 0.42075
4651 1 0.528846 0.45937 0.419529
11312 3 0.505465 0.485339 0.435551
16149 1 0.506228 0.497306 0.438132
11313 1 0.506195 0.493702 0.437997
16148 3 0.506692 0.504549 0.439594
16147 1 0.505272 0.511672 0.443446
13627 1 0.528001 0.506492 0.443309
11783 3 0.519205 0.489953 0.420514
9640 1 0.53061 0.537322 0.43641
9641 2 0.524741 0.540209 0.442035
9642 1 0.522628 0.546721 0.445504
16404 1 0.521214 0.549331 0.446325
585 1 0.509745 0.562517 0.444019
16402 1 0.5115 0.560562 0.445032
16403 3 0.5171 0.555185 0.449188
584 2 0.50481 0.568036 0.441242
5213 2 0.529983 0.55742 0.429306
13360 1 0.5255 0.55142 0.422977
13361 2 0.521428 0.546244 0.41959
5214 1 0.526929 0.553425 0.424527
19661 2 0.496433 0.584782 0.444412
19662 1 0.497706 0.592729 0.44641
14961 1 0.497638 0.595538 0.448084
9891 1 0.526269 0.58457 0.43983
19660 1 0.500299 0.578845 0.442265
583 1 0.501744 0.57594 0.441923
9890 2 0.530441 0.589044 0.435569
11519 2 0.521654 0.578579 0.446725
11518 1 0.524938 0.582548 0.441328
2997 1 0.530447 0.631226 0.422148
8794 1 0.527252 0.620531 0.437286
8796 1 0.522945 0.613888 0.446985
8795 2 0.522597 0.614227 0.440184
7093 1 0.443499 0.448327 0.45504
5302 1 0.507325 0.446838 0.477389
5010 1 0.527638 0.4519 0.45434
5009 3 0.530255 0.448545 0.460888
7095 1 0.452741 0.459976 0.453897
18399 1 0.455503 0.461841 0.454125
7094 2 0.446335 0.455057 0.453853
18398 2 0.460857 0.465762 0.452824
18397 1 0.468541 0.467148 0.454168
12195 1 0.471637 0.467476 0.454438
12194 3 0.478467 0.468939 0.454825
12193 1 0.484615 0.471868 0.455778
8283 1 0.487963 0.47295 0.455596
8282 3 0.494595 0.475069 0.453847
9872 3 0.496165 0.48439 0.475375
18922 1 0.508893 0.459951 0.451382
18924 1 0.51301 0.456408 0.466822
8281 1 0.502275 0.477395 0.455241
18923 3 0.509896 0.459131 0.459463
17605 1 0.505374 0.478712 0.455832
17606 3 0.513273 0.483663 0.457327
9169 1 0.530361 0.466153 0.46416
6488 3 0.529016 0.467993 0.453085
6489 1 0.529309 0.466041 0.461145
18999 1 0.494544 0.502926 0.460614
9873 1 0.496264 0.489442 0.467872
17607 1 0.51797 0.485765 0.464053
18998 3 0.500125 0.503753 0.465495
18997 1 0.50418 0.502453 0.47312
7669 1 0.527531 0.491779 0.47863
14484 1 0.524775 0.492839 0.479188
14959 1 0.495267 0.606049 0.458125
14960 3 0.497063 0.602228 0.450857
3002 2 0.524791 0.578149 0.464587
3001 1 0.530584 0.579525 0.468127
3003 1 0.522989 0.579026 0.457698
11520 1 0.522544 0.579112 0.454567
19798 1 0.523168 0.6146 0.449845
19800 1 0.52066 0.623218 0.460369
19799 3 0.524299 0.616774 0.45784
5303 3 0.509445 0.452396 0.482806
14271 1 0.458916 0.459229 0.509819
5304 1 0.507466 0.460148 0.484536
3580 1 0.506671 0.462764 0.484607
3581 2 0.504441 0.470066 0.483553
3582 1 0.500952 0.475878 0.481445
9871 1 0.500035 0.478295 0.480143
7938 1 0.527981 0.47724 0.500874
7937 3 0.530045 0.482812 0.505906
15337 1 0.52649 0.475379 0.499186
15338 3 0.52235 0.469927 0.494726
15339 1 0.515093 0.468654 0.489965
12469 1 0.530892 0.504024 0.48998
9174 1 0.505913 0.496458 0.502751
15537 1 0.506104 0.495305 0.505153
14483 3 0.517801 0.496171 0.480728
14482 1 0.513175 0.49776 0.487624
9172 1 0.511448 0.498912 0.489855
9173 3 0.505975 0.499445 0.496241
12471 1 0.52401 0.511815 0.502027
12470 3 0.52858 0.506945 0.497129
14270 2 0.466329 0.461195 0.51131
14172 1 0.475811 0.465879 0.512319
14269 1 0.473155 0.464507 0.511981
14171 2 0.48303 0.47102 0.51396
14170 1 0.48638 0.477303 0.517903
15283 1 0.48731 0.479614 0.519132
15285 1 0.49559 0.488834 0.518218
15284 3 0.489751 0.485881 0.522883
15535 1 0.497557 0.489871 0.51678
7936 1 0.526766 0.487151 0.512048
15536 3 0.505242 0.492649 0.512947
6868 1 0.556954 0.498364 0.344436
894 1 0.558434 0.49579 0.344238
6869 2 0.555109 0.506 0.344274
6870 1 0.552157 0.511028 0.349912
8843 3 0.57495 0.495731 0.361591
8842 1 0.580256 0.50033 0.359277
893 3 0.562629 0.488233 0.345435
892 1 0.567342 0.482973 0.349493
14324 2 0.587586 0.507525 0.355009
14323 1 0.582083 0.501958 0.358215
14325 1 0.594788 0.510366 0.352876
4912 1 0.597586 0.511211 0.35223
4914 1 0.611287 0.509785 0.346712
1552 1 0.588945 0.439647 0.390215
1553 3 0.581354 0.438051 0.390277
1554 1 0.574806 0.437006 0.392874
10526 3 0.558302 0.473373 0.390015
10525 1 0.550615 0.475582 0.389065
17902 1 0.547795 0.47643 0.388772
17903 3 0.539678 0.478911 0.38794
17904 1 0.532921 0.479425 0.390634
10527 1 0.565119 0.467618 0.389765
18202 1 0.56689 0.465043 0.390086
18203 3 0.572908 0.459364 0.390002
18204 1 0.580225 0.458348 0.39054
11097 1 0.582837 0.458427 0.390986
11096 3 0.590599 0.459072 0.391658
2706 1 0.619558 0.481417 0.386584
2704 1 0.629907 0.471899 0.389779
2705 3 0.626844 0.478592 0.387154
21452 3 0.559799 0.487871 0.367319
13560 1 0.561661 0.504863 0.377101
21453 1 0.554198 0.484034 0.371811
13559 3 0.559004 0.511764 0.373765
8844 1 0.568536 0.492675 0.36429
21451 1 0.56599 0.491557 0.365014
11555 3 0.609255 0.484674 0.387962
11554 1 0.616268 0.482528 0.38656
11556 1 0.60131 0.482189 0.389624
12287 3 0.560847 0.41898 0.406772
12286 1 0.563659 0.412003 0.407933
2206 1 0.558769 0.444391 0.404138
2207 3 0.553724 0.448822 0.40864
9518 3 0.553611 0.429044 0.419595
9517 1 0.547287 0.43183 0.423343
9519 1 0.556353 0.424903 0.413955
12288 1 0.557182 0.423568 0.411838
15702 1 0.560004 0.442937 0.40247
15700 1 0.572338 0.437014 0.393953
15701 3 0.564999 0.437696 0.39873
18094 1 0.576484 0.440174 0.421414
3821 3 0.583306 0.435816 0.415327
3820 1 0.578321 0.439162 0.419353
1689 1 0.592674 0.433859 0.410772
3822 1 0.590629 0.434646 0.411631
1687 1 0.607895 0.433914 0.405052
1688 3 0.599383 0.431985 0.407565
2208 1 0.546591 0.451928 0.411733
4293 1 0.557505 0.469883 0.412959
18247 1 0.555006 0.471588 0.411817
18248 3 0.549654 0.476917 0.409177
18249 1 0.541988 0.475434 0.410517
12481 1 0.538535 0.475348 0.410564
4653 1 0.544081 0.453353 0.413183
4652 3 0.53663 0.456229 0.41522
4292 3 0.563898 0.466053 0.413761
1945 1 0.582346 0.454182 0.402578
4291 1 0.570781 0.4618 0.411757
1946 3 0.57832 0.454841 0.409414
1947 1 0.572646 0.459613 0.411412
11095 1 0.593491 0.463994 0.396489
2502 1 0.591978 0.480486 0.405066
6997 1 0.594731 0.466055 0.398717
6998 3 0.598129 0.471318 0.404066
6999 1 0.594332 0.478262 0.404821
755 2 0.613141 0.455351 0.42155
756 1 0.615464 0.460759 0.416193
14480 3 0.541991 0.506145 0.420474
15422 3 0.554852 0.499656 0.404458
15423 1 0.560678 0.494358 0.403884
14479 1 0.542903 0.510804 0.414719
15421 1 0.557727 0.505284 0.401963
7819 1 0.55911 0.507582 0.401417
291 1 0.576231 0.504637 0.412739
290 3 0.580305 0.506744 0.40576
20254 1 0.562986 0.492781 0.403922
404 3 0.569901 0.499655 0.421008
2501 3 0.587375 0.486337 0.405432
2500 1 0.578782 0.485963 0.403834
20255 3 0.569304 0.487924 0.404307
20256 1 0.575954 0.486235 0.403616
6847 1 0.590752 0.48337 0.423841
11152 1 0.59281 0.484821 0.423134
405 1 0.574807 0.503667 0.414788
11048 3 0.60795 0.503356 0.404921
19228 1 0.618482 0.505209 0.410538
11049 1 0.615088 0.505084 0.408911
19230 1 0.62136 0.503488 0.419639
13650 1 0.619817 0.502798 0.421692
11153 3 0.600773 0.488092 0.422315
11047 1 0.601918 0.500883 0.40021
19229 2 0.625977 0.504581 0.413445
2169 1 0.627645 0.509911 0.394204
11241 1 0.545006 0.432481 0.424277
20175 1 0.548076 0.430546 0.452155
13059 1 0.543114 0.45129 0.439605
20550 1 0.545671 0.450528 0.439194
11240 3 0.536519 0.433687 0.426239
20548 1 0.560104 0.44591 0.431946
20549 3 0.553624 0.447243 0.437457
18095 3 0.569842 0.441965 0.425767
18096 1 0.56285 0.445504 0.430197
13753 1 0.589809 0.430862 0.429841
13755 1 0.577368 0.429632 0.43917
7168 1 0.575176 0.429922 0.440754
13754 3 0.58402 0.428891 0.435328
7169 3 0.567234 0.430611 0.444395
3222 1 0.564356 0.436621 0.453659
7170 1 0.564607 0.434937 0.451
9380 3 0.580923 0.445837 0.449905
9381 1 0.576908 0.439521 0.450411
9379 1 0.587353 0.450903 0.448427
427 1 0.549288 0.461243 0.426967
13058 3 0.535391 0.455648 0.441161
13057 1 0.533379 0.461384 0.446348
6487 1 0.532619 0.463264 0.448223
429 1 0.554069 0.47032 0.439404
428 3 0.551741 0.466975 0.432808
1704 1 0.554268 0.472561 0.441573
1702 1 0.551414 0.478675 0.454373
1703 3 0.553655 0.476992 0.447944
3978 1 0.556896 0.45831 0.451736
10522 1 0.55453 0.458523 0.452874
3976 1 0.570554 0.461855 0.443272
5504 3 0.58002 0.464426 0.436995
5503 1 0.58727 0.463092 0.433869
6100 1 0.590165 0.462409 0.433151
5505 1 0.573171 0.463346 0.441305
2891 3 0.567521 0.480407 0.430403
2892 1 0.57501 0.480158 0.429413
6848 3 0.58494 0.478885 0.426088
6849 1 0.577981 0.479773 0.428899
3977 3 0.564201 0.459132 0.448898
13923 1 0.589908 0.452549 0.448909
5926 1 0.581085 0.478084 0.453661
6101 3 0.598129 0.46147 0.430615
6102 1 0.604893 0.460413 0.427256
754 1 0.607325 0.459959 0.425666
13921 1 0.597872 0.46254 0.453861
13993 1 0.599026 0.464745 0.453974
13994 3 0.599759 0.47314 0.45399
13922 3 0.596119 0.455857 0.451251
7363 1 0.61879 0.480443 0.439753
13629 1 0.535764 0.505807 0.429228
14481 1 0.537398 0.505931 0.427037
13628 3 0.532129 0.50547 0.435783
6936 1 0.557019 0.483978 0.429245
6935 3 0.549433 0.487517 0.428946
4761 1 0.53425 0.491637 0.451256
2890 1 0.559487 0.482983 0.429382
6934 1 0.54288 0.487294 0.433562
8602 1 0.534171 0.4895 0.447765
8604 1 0.540403 0.487122 0.435493
8603 3 0.534643 0.485446 0.440561
3187 1 0.561804 0.498139 0.444962
1081 1 0.561871 0.496885 0.448178
3188 3 0.562006 0.502071 0.438499
403 1 0.56643 0.501067 0.428192
5927 3 0.581336 0.483393 0.448356
3189 1 0.565056 0.501442 0.430908
3293 3 0.583399 0.498508 0.43673
3292 1 0.584035 0.502369 0.428956
5928 1 0.582277 0.489785 0.443945
3294 1 0.582813 0.492573 0.44211
13649 3 0.614866 0.500212 0.428036
13648 1 0.609589 0.495082 0.425712
11154 1 0.607464 0.492681 0.425102
7365 1 0.610554 0.490488 0.446078
8077 1 0.608329 0.492112 0.447365
8078 3 0.602657 0.497947 0.449869
7364 3 0.616177 0.486316 0.44428
20174 3 0.541559 0.433927 0.456082
20173 1 0.536064 0.439531 0.457251
5008 1 0.534092 0.441937 0.458432
3221 3 0.563083 0.441264 0.460198
3220 1 0.565895 0.448567 0.463286
14082 1 0.567443 0.450941 0.464799
9171 1 0.537714 0.46735 0.478335
14508 1 0.539563 0.46724 0.480666
18238 1 0.550407 0.478996 0.457582
10523 3 0.549249 0.459895 0.458445
10524 1 0.546293 0.466552 0.461802
18239 3 0.547022 0.479352 0.465297
18240 1 0.542098 0.481855 0.47001
20053 1 0.556717 0.475167 0.484623
9170 3 0.532188 0.466265 0.471785
14081 3 0.571822 0.45594 0.468781
6304 1 0.578037 0.465953 0.465252
14080 1 0.576561 0.463194 0.466446
6306 1 0.581249 0.476383 0.456082
6305 3 0.580509 0.472875 0.462496
9723 1 0.586306 0.473836 0.4837
18424 1 0.586936 0.476611 0.482721
13995 1 0.596906 0.480911 0.457899
7670 3 0.533727 0.487162 0.47627
1410 1 0.539101 0.503579 0.475886
4760 3 0.534177 0.497207 0.457994
1408 1 0.535884 0.503677 0.46441
1409 3 0.536352 0.509349 0.470686
4759 1 0.535901 0.50179 0.462245
10047 1 0.554946 0.509634 0.465807
12847 1 0.555456 0.508746 0.468658
12849 1 0.554925 0.505825 0.482994
12848 3 0.55616 0.506146 0.475536
7671 1 0.539626 0.483474 0.472202
12414 1 0.591073 0.509445 0.465691
495 1 0.579177 0.511419 0.458889
1082 3 0.563058 0.493075 0.455668
18425 3 0.589544 0.483978 0.479205
1083 1 0.565781 0.490398 0.46275
4285 1 0.566752 0.489485 0.465565
4286 3 0.568645 0.488202 0.473561
17135 3 0.578016 0.511714 0.47046
17136 1 0.58257 0.507757 0.475981
16759 1 0.571513 0.491294 0.483181
4287 1 0.570795 0.490132 0.480583
5824 1 0.584481 0.506549 0.47801
5825 3 0.588099 0.505349 0.483944
18426 1 0.591653 0.489358 0.473325
10612 1 0.592344 0.490581 0.470815
10613 3 0.592324 0.492936 0.463511
17134 1 0.578811 0.511678 0.462026
10614 1 0.596056 0.494825 0.457972
8079 1 0.597843 0.495849 0.455935
6977 3 0.594255 0.449774 0.487051
6976 1 0.597835 0.442461 0.488645
14506 1 0.545801 0.471241 0.492449
16144 1 0.557876 0.457488 0.508953
16145 3 0.551197 0.458931 0.504723
16146 1 0.544082 0.45826 0.500413
14507 3 0.54383 0.467891 0.486004
9722 3 0.586059 0.467023 0.486437
20055 1 0.568467 0.469833 0.494208
20054 3 0.563347 0.471894 0.489179
9721 1 0.589883 0.460098 0.486069
6978 1 0.591308 0.45729 0.485956
13950 1 0.554368 0.505838 0.486837
13949 3 0.550636 0.507417 0.49478
18663 1 0.549433 0.508761 0.505767
13948 1 0.549546 0.508042 0.502804
18662 2 0.548656 0.511401 0.513907
16760 3 0.57322 0.49294 0.491206
16761 1 0.57266 0.49557 0.499578
15294 1 0.572404 0.496998 0.502126
15293 3 0.569056 0.502214 0.508174
5826 1 0.593265 0.507527 0.488821
18661 1 0.551619 0.509532 0.520737
19411 1 0.552306 0.508827 0.523491
19351 1 0.555843 0.497743 0.539594
19412 2 0.554071 0.505558 0.53054
19413 1 0.555115 0.500202 0.537279
19352 2 0.55849 0.491155 0.544418
15292 1 0.570181 0.503231 0.516431
19353 1 0.563305 0.486752 0.548359
10677 1 0.596142 0.600574 0.264765
4205 2 0.593072 0.658157 0.265764
21019 1 0.637239 0.660617 0.269753
10235 3 0.673328 0.655011 0.266472
15737 3 0.66461 0.649465 0.249512
15736 1 0.669337 0.651842 0.255807
10236 1 0.670712 0.652858 0.258566
15738 1 0.658804 0.650905 0.243927
10234 1 0.668511 0.651237 0.270676
19378 1 0.666712 0.650047 0.272671
12019 1 0.560677 0.68594 0.268856
4204 1 0.595567 0.665157 0.263583
10676 3 0.598379 0.599897 0.272778
10675 1 0.596749 0.603203 0.279265
11143 1 0.568377 0.633377 0.299815
13430 2 0.593176 0.607339 0.289203
13431 1 0.593604 0.613379 0.294297
13429 1 0.596295 0.604241 0.282049
3639 1 0.593617 0.615961 0.295711
3638 2 0.596026 0.621398 0.300472
6441 1 0.616001 0.60883 0.299022
14563 1 0.619779 0.618594 0.300638
6439 1 0.618369 0.616674 0.301903
14564 2 0.624616 0.623523 0.297266
5149 1 0.650693 0.620744 0.291704
20099 2 0.653479 0.612695 0.287258
20098 1 0.651683 0.618488 0.289838
14565 1 0.62844 0.625231 0.288511
1363 1 0.630001 0.626041 0.286024
1364 2 0.632728 0.629046 0.278971
5150 2 0.648207 0.627429 0.29526
1365 1 0.635273 0.633488 0.272952
5151 1 0.648641 0.633416 0.301309
20100 1 0.658154 0.606651 0.284902
17860 1 0.544943 0.653104 0.299632
5940 1 0.570492 0.634114 0.298097
5939 2 0.576626 0.636479 0.292721
5938 1 0.5835 0.637963 0.288325
13479 1 0.585874 0.637798 0.28599
13478 2 0.591417 0.638505 0.279735
13477 1 0.59954 0.639351 0.278893
12042 1 0.602148 0.640089 0.278834
12041 2 0.610345 0.641404 0.27761
12040 1 0.608665 0.63964 0.285189
14062 1 0.608013 0.638855 0.287961
14063 2 0.60691 0.636541 0.295166
4206 1 0.594285 0.654773 0.273544
14064 1 0.606786 0.640447 0.302493
21020 2 0.637107 0.655272 0.274628
21021 1 0.638755 0.651994 0.281734
2804 2 0.628009 0.645567 0.297988
2805 1 0.63023 0.651301 0.292243
20673 1 0.655148 0.652257 0.285105
20672 3 0.649311 0.654489 0.291243
20671 1 0.64649 0.658172 0.297147
21462 1 0.645807 0.659725 0.299963
19379 2 0.662705 0.648091 0.277955
19380 1 0.657295 0.650993 0.283075
14657 2 0.553081 0.673984 0.297152
14658 1 0.556995 0.677604 0.302434
14656 1 0.546588 0.670044 0.294227
12020 2 0.56283 0.687739 0.276988
19180 1 0.569381 0.686869 0.285778
12021 1 0.567939 0.687324 0.283184
19182 1 0.576138 0.677449 0.296745
19181 2 0.573018 0.684445 0.293503
953 2 0.576195 0.667375 0.301158
952 1 0.57657 0.674509 0.298318
662 2 0.615794 0.682166 0.293527
661 1 0.612831 0.67658 0.29774
4474 1 0.612318 0.674121 0.300012
663 1 0.617959 0.686992 0.286365
18814 1 0.636515 0.527681 0.319194
18815 2 0.635478 0.528741 0.326736
7480 1 0.573935 0.554983 0.331968
8407 1 0.572774 0.552581 0.333094
7481 3 0.575743 0.562122 0.32818
3685 1 0.607686 0.571606 0.324612
3686 3 0.610437 0.564229 0.320362
3687 1 0.614501 0.560166 0.325907
3163 1 0.616581 0.558214 0.328014
3164 2 0.621719 0.553115 0.332011
3165 1 0.630049 0.551489 0.333288
6571 1 0.666995 0.542851 0.33185
3362 2 0.543532 0.59119 0.329091
3361 1 0.549485 0.593081 0.32603
7097 2 0.559548 0.59604 0.321607
7098 1 0.552458 0.594169 0.324784
3363 1 0.535923 0.593399 0.332705
7096 1 0.564898 0.598323 0.315988
7103 2 0.592499 0.602231 0.322354
4957 1 0.61539 0.593042 0.330559
15150 1 0.613506 0.594915 0.329654
15149 2 0.608488 0.600851 0.327859
7104 1 0.599159 0.602381 0.32463
15148 1 0.601511 0.602113 0.325549
11857 1 0.606777 0.573278 0.326687
11858 2 0.602942 0.578642 0.332302
4958 2 0.620793 0.587382 0.33272
16228 1 0.663946 0.579257 0.306966
16229 2 0.669639 0.585306 0.307785
16230 1 0.673571 0.590265 0.311979
14517 1 0.675502 0.592661 0.313668
14516 2 0.680807 0.59819 0.315734
14515 1 0.684266 0.599457 0.323453
1027 1 0.684774 0.599632 0.326288
10708 1 0.662062 0.602515 0.330959
14896 1 0.678609 0.58685 0.328277
11145 1 0.555307 0.627968 0.306206
11307 1 0.552602 0.62767 0.305967
11306 2 0.5442 0.626945 0.306528
13786 1 0.561821 0.627383 0.329484
1789 1 0.559851 0.629565 0.330239
11305 1 0.541692 0.632151 0.311637
19711 1 0.540182 0.634027 0.314203
17926 1 0.546307 0.618439 0.327107
11144 2 0.562525 0.630366 0.30629
13787 2 0.56737 0.623392 0.325424
12136 1 0.570837 0.614887 0.319218
13788 1 0.569653 0.617459 0.320418
12137 2 0.57532 0.607276 0.317739
12138 1 0.583022 0.604482 0.318373
7102 1 0.585945 0.603693 0.318988
3637 1 0.590569 0.626398 0.303902
13596 1 0.588831 0.628008 0.305585
13595 2 0.585692 0.633346 0.311762
4757 2 0.587691 0.620299 0.330014
4756 1 0.585013 0.624526 0.324052
6440 2 0.613364 0.610243 0.305713
11973 1 0.616113 0.623686 0.321903
15240 1 0.614139 0.625117 0.321177
15239 2 0.607008 0.628478 0.319928
15238 1 0.59861 0.628549 0.322319
11972 2 0.623008 0.619895 0.32453
13194 1 0.650631 0.609696 0.311146
13193 2 0.643024 0.608594 0.307697
13192 1 0.635405 0.609625 0.306433
11971 1 0.631449 0.617766 0.325879
16924 1 0.634603 0.616923 0.326872
16925 2 0.641668 0.613428 0.328885
10709 2 0.661781 0.605342 0.323825
13391 2 0.661181 0.620067 0.313772
13392 1 0.661933 0.613848 0.318169
13390 1 0.65615 0.616919 0.308074
10710 1 0.661928 0.612318 0.319769
7832 2 0.68706 0.619402 0.314681
7833 1 0.686551 0.614608 0.30919
7831 1 0.689319 0.621688 0.322719
7971 1 0.689695 0.622769 0.325663
19712 2 0.536208 0.638824 0.319616
17862 1 0.555769 0.653668 0.309418
17861 2 0.548928 0.653071 0.306917
4510 1 0.560993 0.659535 0.320577
11709 1 0.558571 0.65988 0.322367
11708 2 0.552043 0.662238 0.326661
11707 1 0.546781 0.661464 0.332656
19713 1 0.538218 0.641562 0.326976
4512 1 0.571155 0.662976 0.308793
954 1 0.572547 0.664289 0.30658
4511 2 0.567605 0.658866 0.31507
13594 1 0.582507 0.636945 0.317333
2913 1 0.5811 0.638628 0.319449
2912 2 0.579037 0.644003 0.324351
2911 1 0.575053 0.649016 0.329172
7702 1 0.573993 0.65117 0.331317
12509 2 0.59307 0.658868 0.315398
7945 1 0.607096 0.642323 0.305287
12508 1 0.595585 0.653664 0.320453
20199 1 0.597079 0.652288 0.322513
7946 2 0.609595 0.648255 0.309877
7947 1 0.614644 0.650355 0.31435
9612 1 0.616969 0.651693 0.316463
20198 2 0.600733 0.649529 0.329343
9611 2 0.622507 0.656319 0.321605
9610 1 0.624678 0.656262 0.328625
17040 1 0.648809 0.635556 0.303467
17039 2 0.649121 0.64009 0.308925
17038 1 0.641309 0.636439 0.310066
17616 1 0.638675 0.635914 0.310931
6576 1 0.625515 0.656513 0.331067
17615 2 0.631224 0.635452 0.312809
17614 1 0.62787 0.639396 0.307077
2803 1 0.627145 0.640743 0.304642
21461 2 0.642579 0.662169 0.307824
10249 1 0.669884 0.638228 0.311386
4253 2 0.673744 0.654891 0.330956
10251 1 0.673426 0.645716 0.324126
4254 1 0.67325 0.648371 0.326103
10250 2 0.673342 0.638679 0.319123
14518 1 0.549821 0.682869 0.326936
14519 2 0.554013 0.683648 0.332853
3894 1 0.548119 0.683089 0.324514
12963 1 0.558875 0.678969 0.304631
3893 2 0.544394 0.684513 0.31844
14520 1 0.561645 0.682387 0.330641
3892 1 0.543144 0.686297 0.311242
5006 2 0.592344 0.67729 0.310231
12962 2 0.563319 0.681685 0.310385
12961 1 0.565281 0.687828 0.314045
19185 1 0.587323 0.687887 0.311195
19184 2 0.583685 0.693726 0.311297
5005 1 0.588853 0.684992 0.310508
20907 1 0.564737 0.681453 0.330175
20906 2 0.572676 0.678644 0.328542
2229 1 0.584146 0.677272 0.329512
20905 1 0.580916 0.677732 0.328905
2228 2 0.592464 0.675799 0.331277
12510 1 0.592647 0.666971 0.313926
5007 1 0.592623 0.669518 0.313155
19360 1 0.565577 0.690219 0.315537
4475 2 0.611412 0.66919 0.306593
2227 1 0.599182 0.673843 0.32877
1357 1 0.601688 0.672802 0.32779
4476 1 0.61166 0.67059 0.314189
1359 1 0.61126 0.67051 0.317093
1358 2 0.609245 0.670381 0.324752
16959 1 0.622341 0.693501 0.309733
16957 1 0.611173 0.693009 0.320074
19699 1 0.609647 0.692761 0.322116
17380 1 0.62445 0.692865 0.308701
19700 2 0.60438 0.69264 0.328399
16958 2 0.615116 0.694372 0.313352
21460 1 0.636139 0.666989 0.307804
17382 1 0.638629 0.689531 0.304187
827 2 0.632435 0.678936 0.328807
826 1 0.629212 0.68581 0.329391
17381 2 0.63073 0.690329 0.306266
9676 1 0.653876 0.678821 0.327364
9677 2 0.654534 0.686425 0.330908
20677 1 0.628145 0.68802 0.3299
12654 1 0.686252 0.678083 0.324521
13738 1 0.68551 0.67737 0.327045
12652 1 0.695519 0.678365 0.310173
12653 3 0.689449 0.67873 0.315586
19183 1 0.576597 0.698512 0.311535
19361 2 0.566015 0.696879 0.320139
19362 1 0.565119 0.699233 0.32778
8649 1 0.566086 0.700595 0.330557
9390 1 0.580959 0.704618 0.330002
9389 2 0.587707 0.709519 0.328251
12881 2 0.608926 0.713734 0.318227
9388 1 0.594471 0.713598 0.331816
12880 1 0.61478 0.719156 0.320745
12882 1 0.602903 0.709082 0.31448
20678 2 0.626304 0.696834 0.332022
3497 2 0.687291 0.735014 0.325723
3498 1 0.68317 0.729355 0.330255
3178 1 0.681733 0.727334 0.331568
3496 1 0.689476 0.73766 0.318992
9298 1 0.550855 0.512179 0.35216
9299 2 0.547417 0.515817 0.359262
17244 1 0.553552 0.538661 0.349496
9325 1 0.551548 0.540266 0.347138
17243 2 0.557655 0.535251 0.353781
6984 1 0.577921 0.530539 0.339898
6983 2 0.583878 0.528547 0.345099
6982 1 0.591429 0.531827 0.346414
17242 1 0.563885 0.530798 0.356145
17403 1 0.56575 0.52921 0.35736
17402 3 0.569944 0.525599 0.360828
17401 1 0.578266 0.527073 0.362679
8310 1 0.581112 0.527632 0.363315
4391 2 0.602147 0.536773 0.346276
4392 1 0.594316 0.532906 0.346354
4390 1 0.609814 0.538067 0.34296
13954 1 0.615939 0.521065 0.361709
382 1 0.613556 0.522411 0.363216
13955 2 0.623327 0.518962 0.358331
4913 2 0.604202 0.513227 0.349669
13586 2 0.629669 0.530831 0.343797
18816 1 0.633793 0.529939 0.333924
13587 1 0.632849 0.530446 0.336698
13585 1 0.627037 0.526187 0.350361
13956 1 0.626243 0.524451 0.35268
9326 2 0.546721 0.544473 0.342875
9327 1 0.546851 0.552937 0.34101
15112 1 0.546782 0.555627 0.340234
8244 1 0.549358 0.561623 0.355542
11652 1 0.5518 0.561449 0.354569
11651 2 0.56037 0.560835 0.352355
15113 2 0.546254 0.562651 0.336996
8243 2 0.542288 0.563164 0.358949
15114 1 0.551292 0.568942 0.336515
8409 1 0.570124 0.546096 0.345977
8408 2 0.569992 0.546463 0.338052
11650 1 0.56673 0.560013 0.354608
7482 1 0.578889 0.565432 0.334673
3285 1 0.591088 0.554115 0.357416
12705 1 0.593359 0.554799 0.356424
14218 1 0.580133 0.566867 0.336632
14219 2 0.585401 0.569582 0.342616
3284 2 0.585552 0.551548 0.360812
12703 1 0.605272 0.563473 0.351691
7974 1 0.607462 0.565822 0.35143
12704 2 0.599108 0.557382 0.351427
16280 2 0.615965 0.545891 0.362896
16279 1 0.623699 0.543724 0.363408
12322 1 0.63361 0.550444 0.333717
12324 1 0.648802 0.547454 0.333791
6573 1 0.651597 0.546964 0.333884
12323 2 0.640603 0.54815 0.333661
18303 1 0.633596 0.557148 0.362704
18302 2 0.631998 0.5637 0.356625
18301 1 0.631605 0.569316 0.351843
6572 3 0.659915 0.545731 0.333746
2489 2 0.659098 0.568818 0.360856
6169 1 0.533313 0.593897 0.333783
15385 1 0.556166 0.59963 0.349173
15386 2 0.550587 0.600672 0.354672
13888 1 0.558642 0.5997 0.346985
15387 1 0.546729 0.597458 0.362497
20176 1 0.562095 0.580843 0.347374
18260 2 0.576771 0.588469 0.335475
18259 1 0.58357 0.585533 0.337821
20177 2 0.565732 0.581343 0.353729
20178 1 0.569694 0.588784 0.353875
5583 1 0.586093 0.575627 0.351468
14220 1 0.585799 0.573685 0.34875
13890 1 0.570763 0.597131 0.340311
18261 1 0.572635 0.595017 0.33891
13889 2 0.565362 0.600854 0.342669
12397 1 0.593531 0.598969 0.348171
1518 1 0.591105 0.601095 0.348968
5582 2 0.586451 0.581528 0.357407
5581 1 0.581506 0.583763 0.36357
7973 2 0.612161 0.573171 0.350266
7972 1 0.614488 0.578805 0.344757
11859 1 0.602334 0.584895 0.338073
12399 1 0.601554 0.587121 0.340073
12398 2 0.598244 0.593672 0.34584
7993 1 0.622597 0.592502 0.356302
14340 1 0.619621 0.591858 0.357667
14339 2 0.612607 0.590608 0.361698
19385 2 0.636039 0.577416 0.341645
4959 1 0.627693 0.582756 0.336389
19384 1 0.629768 0.581465 0.337649
19386 1 0.643767 0.576841 0.339371
19485 1 0.646715 0.577102 0.3388
19484 2 0.654466 0.580508 0.337524
2488 1 0.653705 0.574575 0.359571
7994 2 0.628199 0.594489 0.352056
7995 1 0.633735 0.597001 0.34822
16368 1 0.635743 0.598018 0.346764
16367 2 0.642271 0.600835 0.342651
12378 1 0.642737 0.58842 0.363552
12377 2 0.645145 0.582632 0.358649
12376 1 0.651722 0.576681 0.359549
19483 1 0.662651 0.581468 0.334689
14898 1 0.665438 0.581838 0.334063
14897 2 0.672818 0.58387 0.333567
4915 1 0.66403 0.596766 0.351644
19797 1 0.663586 0.597585 0.348852
19796 2 0.664022 0.600258 0.341483
19795 1 0.662829 0.601529 0.334152
4916 2 0.66463 0.594288 0.359491
1028 2 0.68568 0.601948 0.333704
18465 1 0.686599 0.583564 0.352859
18464 2 0.68205 0.578363 0.357023
1029 1 0.689251 0.596973 0.339147
13977 1 0.690539 0.595066 0.341005
13976 2 0.693478 0.588964 0.346846
13975 1 0.688477 0.585202 0.351422
17927 2 0.548257 0.615966 0.335041
17928 1 0.55234 0.617336 0.341642
5726 2 0.557757 0.620835 0.349996
5725 1 0.553677 0.618045 0.34394
14985 1 0.533693 0.623424 0.334903
5727 1 0.564618 0.619882 0.35527
12845 2 0.581349 0.62359 0.348864
1516 1 0.582912 0.612984 0.348155
12844 1 0.582436 0.615562 0.348081
1517 2 0.584736 0.605296 0.348791
12846 1 0.577192 0.628942 0.348661
4758 1 0.593579 0.619773 0.3357
15207 1 0.57491 0.631613 0.349254
15135 1 0.609707 0.617315 0.340715
15133 1 0.595905 0.618973 0.337572
15134 2 0.602702 0.618331 0.341452
9089 2 0.60315 0.608561 0.360753
16476 1 0.612602 0.611495 0.357378
9088 1 0.609745 0.611071 0.358192
16475 2 0.620128 0.613329 0.354228
9419 2 0.618084 0.633681 0.342403
16926 1 0.642193 0.608108 0.334717
16366 1 0.642345 0.60663 0.336997
16645 1 0.630549 0.616492 0.353646
16474 1 0.627619 0.615375 0.353667
16646 2 0.637131 0.620125 0.352551
16647 1 0.645119 0.620663 0.351298
20308 1 0.64855 0.620231 0.350295
3198 1 0.680872 0.621916 0.338484
7969 1 0.683374 0.622337 0.337535
3197 2 0.67344 0.619684 0.341112
3196 1 0.666366 0.620736 0.346041
20309 2 0.657053 0.62068 0.349622