ITEM: TIMESTEP
35000000
ITEM: NUMBER OF ATOMS
2079
ITEM: BOX BOUNDS pp pp pp
0.0000000000000000e+00 5.0000000000000000e+01
0.0000000000000000e+00 5.0000000000000000e+01
0.0000000000000000e+00 5.0000000000000000e+01
ITEM: ATOMS id type xs ys zs
20418 1 0.179932 0.871479 0.478577
358 1 0.275454 0.819691 0.509912
20417 3 0.182603 0.878359 0.482152
21148 1 0.185676 0.870556 0.509553
19106 2 0.206794 0.878072 0.506401
7510 1 0.176628 0.900834 0.504791
7511 2 0.178816 0.894667 0.507585
7512 1 0.179869 0.887491 0.510038
20416 1 0.188345 0.882159 0.48606
249 1 0.190375 0.883867 0.488132
247 1 0.200067 0.882819 0.498597
19105 1 0.202328 0.881717 0.500728
248 2 0.193903 0.886817 0.494113
1888 1 0.207707 0.906788 0.489741
1889 2 0.202756 0.907397 0.495841
1890 1 0.200534 0.90864 0.502681
20133 1 0.199346 0.908634 0.505679
11612 3 0.181096 0.83931 0.53283
11613 1 0.1733 0.84168 0.531763
3756 1 0.169992 0.842378 0.531759
3755 3 0.162427 0.845467 0.530746
3965 3 0.196363 0.843524 0.540133
11611 1 0.18817 0.841528 0.535207
3966 1 0.190337 0.842191 0.536459
16550 3 0.212827 0.848176 0.524609
16549 1 0.212659 0.843973 0.518652
12587 2 0.24876 0.825222 0.525424
12586 1 0.243104 0.828133 0.528796
20722 1 0.241524 0.829301 0.530066
20723 2 0.236646 0.834648 0.534053
20724 1 0.238208 0.839949 0.53917
12588 1 0.250304 0.821008 0.518617
687 1 0.271164 0.82365 0.528485
686 2 0.27073 0.825467 0.5357
360 1 0.271191 0.823413 0.525623
359 3 0.272041 0.821031 0.517293
685 1 0.264996 0.828702 0.540928
15571 1 0.156005 0.869711 0.535908
15572 2 0.154428 0.861918 0.534456
15573 1 0.158055 0.855779 0.531766
3754 1 0.159286 0.853022 0.531144
6127 1 0.156343 0.872728 0.536673
11264 2 0.175416 0.868746 0.533439
11265 1 0.179406 0.863952 0.539168
11263 1 0.171663 0.874963 0.533983
21149 2 0.181482 0.876567 0.510937
2031 1 0.214547 0.852063 0.534823
16551 1 0.214018 0.850958 0.531858
19107 1 0.210898 0.876113 0.512909
17959 1 0.212236 0.874846 0.514862
17960 3 0.217803 0.870696 0.5206
9563 3 0.228904 0.873116 0.53452
17961 1 0.221788 0.871884 0.526802
9564 1 0.223408 0.872469 0.528932
9562 1 0.235244 0.876669 0.538435
2271 1 0.23738 0.877837 0.539409
16136 3 0.27972 0.86936 0.540207
20414 3 0.292927 0.86486 0.525237
20415 1 0.297955 0.860473 0.521467
20413 1 0.287226 0.866115 0.531734
16137 1 0.284957 0.866948 0.534267
6128 2 0.155969 0.881114 0.537647
17307 1 0.157101 0.902108 0.513436
6129 1 0.157981 0.88826 0.539763
17305 1 0.156652 0.890251 0.525829
21150 1 0.180267 0.884612 0.510863
10188 1 0.180134 0.899693 0.526322
10187 2 0.184201 0.896327 0.533506
19714 1 0.158903 0.890959 0.540813
17306 2 0.157533 0.89692 0.521695
10186 1 0.191641 0.895775 0.537868
18136 1 0.193778 0.896058 0.53892
11647 1 0.209256 0.900282 0.538168
18138 1 0.206605 0.899902 0.539893
11648 3 0.216351 0.902115 0.532908
11649 1 0.222224 0.902855 0.527346
5393 3 0.26052 0.896898 0.534813
5394 1 0.266283 0.896292 0.539773
5392 1 0.258929 0.890991 0.530321
9675 1 0.279644 0.907672 0.523174
17687 3 0.298182 0.899367 0.539897
9673 1 0.289238 0.900626 0.534185
17686 1 0.291811 0.899853 0.536211
17688 1 0.304625 0.89423 0.538889
9066 1 0.307144 0.892306 0.538556
9674 3 0.284048 0.90284 0.527717
9065 3 0.312245 0.88568 0.539725
20132 2 0.197604 0.910099 0.513958
20131 1 0.197568 0.912415 0.521934
17955 1 0.197248 0.913472 0.524491
17954 2 0.196155 0.918017 0.530995
17953 1 0.196115 0.923621 0.536715
12783 1 0.196432 0.925603 0.538519
16163 2 0.213657 0.926249 0.519145
16164 1 0.215416 0.927411 0.526712
12724 1 0.216161 0.927547 0.529569
12725 3 0.217168 0.930004 0.537048
16162 1 0.220229 0.92609 0.515379
12980 3 0.266622 0.936223 0.540194
544 1 0.255839 0.93852 0.539192
12981 1 0.258786 0.937693 0.53935
17617 1 0.164699 0.944273 0.518029
17618 3 0.171816 0.94539 0.521625
9190 1 0.181365 0.948122 0.52645
17619 1 0.178939 0.947519 0.525433
4869 1 0.170683 0.951161 0.537287
9192 1 0.192252 0.945614 0.536129
9191 3 0.188182 0.949175 0.529981
6650 2 0.166388 0.815324 0.570943
6649 1 0.163118 0.808431 0.567284
8259 1 0.275873 0.817608 0.562969
8258 3 0.273516 0.810135 0.565339
8687 3 0.199905 0.835527 0.560532
8688 1 0.204735 0.843086 0.560466
8686 1 0.19577 0.833881 0.566805
12691 1 0.194124 0.833171 0.569288
10354 1 0.228101 0.830633 0.570435
10355 3 0.227171 0.838596 0.566931
20931 1 0.23887 0.842215 0.541215
20930 3 0.240092 0.847745 0.546823
12011 3 0.246066 0.825399 0.562165
1756 1 0.219688 0.846969 0.565596
10356 1 0.221598 0.844742 0.565411
12012 1 0.249445 0.825935 0.568428
9465 1 0.263413 0.829788 0.542169
12010 1 0.251235 0.828189 0.55518
9463 1 0.253391 0.829093 0.553222
9464 2 0.258387 0.832649 0.548448
3981 1 0.278104 0.835496 0.56085
3979 1 0.27684 0.820849 0.561878
6001 1 0.250619 0.826488 0.570943
3980 2 0.278269 0.828247 0.559401
2250 1 0.128875 0.867657 0.546769
2249 2 0.136536 0.868309 0.548999
2248 1 0.14317 0.866988 0.552297
16377 1 0.146183 0.866531 0.553798
16376 2 0.154244 0.866274 0.557097
17958 1 0.180323 0.862712 0.541259
16375 1 0.160622 0.862488 0.561429
13107 1 0.163317 0.861545 0.562458
13106 3 0.170096 0.859201 0.56428
13105 1 0.176162 0.863551 0.567596
12229 1 0.178394 0.865189 0.569544
17957 3 0.182366 0.859202 0.548032
17956 1 0.187161 0.856381 0.553378
3964 1 0.19859 0.849114 0.545858
2030 3 0.215629 0.855739 0.542833
2029 1 0.216516 0.85796 0.550036
9857 3 0.191586 0.854586 0.562882
9856 1 0.188347 0.856185 0.55546
3530 3 0.194548 0.875317 0.551297
3531 1 0.200804 0.877525 0.549783
8226 1 0.203745 0.878505 0.5498
1757 3 0.215134 0.853703 0.565191
1758 1 0.211175 0.861034 0.56752
3909 1 0.210206 0.863701 0.568931
3529 1 0.191301 0.868828 0.555463
9858 1 0.193637 0.854344 0.570316
20929 1 0.243555 0.852293 0.552106
13419 1 0.244656 0.854424 0.554215
12669 1 0.220649 0.865413 0.558823
12668 3 0.226431 0.870588 0.558827
12667 1 0.233239 0.873434 0.560666
10684 1 0.235295 0.874679 0.562247
10685 3 0.241785 0.877988 0.565822
13418 3 0.248297 0.860013 0.559765
2246 3 0.269265 0.873777 0.556433
2247 1 0.274327 0.873085 0.549749
16135 1 0.276432 0.872826 0.54735
13417 1 0.25265 0.864016 0.565017
2245 1 0.266891 0.871357 0.563393
2016 1 0.266132 0.871028 0.566513
15073 1 0.286972 0.872602 0.562497
15074 3 0.292329 0.876869 0.567258
590 3 0.304292 0.854516 0.568312
589 1 0.307745 0.858274 0.561529
2958 1 0.308599 0.859576 0.558494
2957 3 0.309957 0.86209 0.550936
20785 1 0.333891 0.848735 0.541946
20786 3 0.326505 0.850944 0.546736
20787 1 0.320084 0.856104 0.547808
2956 1 0.317615 0.857873 0.548744
19715 2 0.161477 0.89752 0.544141
19716 1 0.168522 0.895849 0.546538
20674 1 0.170963 0.895239 0.548173
20675 3 0.178 0.892533 0.552356
20676 1 0.184459 0.894395 0.55679
5058 1 0.186017 0.895131 0.558669
19815 1 0.160902 0.894543 0.565781
19814 2 0.157279 0.901918 0.564368
20042 3 0.166233 0.885045 0.568898
20043 1 0.162066 0.891412 0.566444
8225 3 0.210083 0.880589 0.548377
18137 3 0.200597 0.896458 0.542884
5057 3 0.190393 0.896015 0.563841
8224 1 0.216312 0.886248 0.548473
4622 3 0.214135 0.905309 0.565778
10686 1 0.244598 0.883197 0.570644
21106 1 0.219071 0.88821 0.548779
21107 3 0.224684 0.8931 0.550932
21108 1 0.229062 0.898233 0.549542
15253 1 0.231334 0.901259 0.548581
15254 3 0.236873 0.906281 0.546719
2270 3 0.244458 0.880448 0.543251
2269 1 0.247829 0.8853 0.547969
2182 1 0.249045 0.887609 0.550119
8784 1 0.23659 0.902575 0.568919
8783 3 0.241385 0.909085 0.568102
3339 1 0.26915 0.895848 0.541568
3338 3 0.274448 0.894685 0.546254
3337 1 0.280063 0.892699 0.551414
2183 3 0.251232 0.893411 0.556579
2184 1 0.25639 0.899207 0.560456
7615 1 0.258018 0.900963 0.561966
7616 3 0.263352 0.906152 0.566311
7617 1 0.269449 0.903694 0.571275
10070 3 0.309632 0.892564 0.567846
10069 1 0.30987 0.898166 0.56183
19707 1 0.310115 0.900068 0.559544
19755 1 0.294614 0.903771 0.556703
10853 3 0.327397 0.883963 0.550286
10852 1 0.330869 0.882366 0.556498
10854 1 0.320212 0.884001 0.545424
9064 1 0.318128 0.884299 0.544273
19706 3 0.312538 0.904434 0.553487
7624 1 0.331645 0.881549 0.559337
7625 3 0.334351 0.880051 0.5672
19705 1 0.31752 0.907173 0.549662
16512 1 0.319842 0.907784 0.547979
4326 1 0.332288 0.893806 0.564403
4325 3 0.329508 0.900295 0.567247
16511 3 0.326604 0.908786 0.543968
4324 1 0.328279 0.908406 0.56851
4754 2 0.346073 0.908434 0.544366
4753 1 0.352744 0.904855 0.545209
2849 3 0.176749 0.91062 0.568962
2850 1 0.183731 0.91422 0.567897
18970 1 0.186407 0.915535 0.567387
10733 3 0.179202 0.937507 0.560728
10734 1 0.185044 0.938905 0.566835
12726 1 0.214344 0.924629 0.542236
12782 3 0.196441 0.930691 0.543926
18971 3 0.193349 0.919813 0.565293
18972 1 0.199639 0.922721 0.568364
12781 1 0.19825 0.937966 0.547637
4623 1 0.213439 0.909277 0.557758
4513 1 0.212519 0.910815 0.555126
4514 3 0.210292 0.915924 0.548435
4515 1 0.213496 0.922369 0.543906
5068 1 0.202143 0.923925 0.570259
15255 1 0.242203 0.910336 0.546261
16384 1 0.244991 0.912324 0.546022
6270 1 0.223402 0.923167 0.555094
3329 3 0.246904 0.927156 0.568837
3328 1 0.244604 0.919394 0.569657
6269 3 0.227858 0.925431 0.560024
3330 1 0.249002 0.933223 0.567492
6952 1 0.249719 0.935771 0.567127
5479 1 0.228774 0.932341 0.568613
6268 1 0.22849 0.930179 0.566711
8782 1 0.243498 0.916668 0.569606
2584 1 0.279677 0.910531 0.544679
2585 3 0.275728 0.917981 0.545012
12979 1 0.270343 0.928796 0.544057
2586 1 0.271812 0.925611 0.544555
16385 3 0.251694 0.917645 0.547999
16386 1 0.250342 0.919538 0.556621
3067 1 0.274361 0.924225 0.571515
19754 3 0.290769 0.909536 0.560504
3069 1 0.285003 0.917079 0.565894
3068 3 0.281228 0.923098 0.568539
19753 1 0.286871 0.915127 0.564748
16510 1 0.334155 0.909727 0.544562
4755 1 0.337329 0.909764 0.544296
8236 1 0.328296 0.911271 0.569323
4867 1 0.176038 0.943575 0.551255
10732 1 0.17705 0.941814 0.553976
4868 3 0.173172 0.948013 0.545172
18636 1 0.186579 0.955865 0.562963
18635 3 0.185738 0.963032 0.565488
4185 1 0.187339 0.939736 0.568643
11734 1 0.197868 0.940489 0.54921
11735 3 0.196399 0.948142 0.552424
11736 1 0.203858 0.949275 0.554122
13486 1 0.206779 0.949636 0.554583
18634 1 0.190073 0.969183 0.568207
13487 3 0.214735 0.950882 0.555709
4229 3 0.217306 0.969602 0.56356
545 3 0.248254 0.94018 0.541118
546 1 0.241613 0.942949 0.543044
9105 1 0.239194 0.943474 0.543855
9104 3 0.233018 0.946509 0.548261
13488 1 0.222758 0.949377 0.552213
9103 1 0.225972 0.948419 0.55119
9622 1 0.242532 0.957814 0.569236
9624 1 0.22751 0.965649 0.567102
9623 3 0.235165 0.963002 0.568857
4230 1 0.224541 0.966735 0.565986
6953 3 0.250522 0.943079 0.566087
17383 1 0.259768 0.967013 0.551739
17743 1 0.257466 0.964743 0.552418
6954 1 0.251433 0.950403 0.561565
17745 1 0.251938 0.952528 0.559945
17744 3 0.252297 0.959143 0.554106
7773 1 0.284065 0.944339 0.551507
7772 3 0.281391 0.94495 0.558335
5575 1 0.283754 0.943075 0.56925
7771 1 0.282609 0.943646 0.56613
6259 1 0.196056 0.997003 0.545356
6260 2 0.196813 0.989181 0.547895
6261 1 0.198947 0.981609 0.549098
20934 1 0.1999 0.978284 0.550739
20933 3 0.203614 0.97206 0.554776
20932 1 0.209837 0.970063 0.557111
4228 1 0.212334 0.969796 0.55887
1393 1 0.191421 0.971482 0.569511
17385 1 0.270414 0.977053 0.54662
17384 2 0.265931 0.971989 0.549439
1698 1 0.229303 0.012672 0.593148
1697 3 0.22758 0.00544284 0.596951
8689 1 0.183052 0.767615 0.598303
8512 1 0.178754 0.814283 0.595455
17722 1 0.18125 0.815312 0.593624
17723 3 0.185739 0.817476 0.587332
8513 3 0.172117 0.811175 0.598273
8514 1 0.164026 0.809263 0.599673
5677 1 0.226504 0.812468 0.576488
12045 1 0.236326 0.802908 0.599689
12044 3 0.244423 0.804155 0.597821
17270 3 0.262307 0.817547 0.590972
17269 1 0.261515 0.811625 0.597122
8257 1 0.269458 0.807971 0.572159
12043 1 0.252967 0.80218 0.598772
13077 1 0.261929 0.809841 0.599572
2947 1 0.301559 0.815188 0.595249
1048 1 0.152046 0.838374 0.601099
6651 1 0.166723 0.820552 0.57632
9553 1 0.165808 0.822834 0.578214
1050 1 0.162097 0.835863 0.589975
9554 3 0.165836 0.828892 0.582683
9555 1 0.163155 0.834478 0.587883
1049 3 0.159078 0.837736 0.596475
17724 1 0.187118 0.823732 0.582086
10196 3 0.184213 0.846423 0.597768
12692 3 0.188738 0.83116 0.574368
12693 1 0.18758 0.825797 0.580195
465 1 0.207233 0.830106 0.575755
464 3 0.210381 0.836622 0.581292
463 1 0.215959 0.840558 0.58591
7042 1 0.218396 0.841931 0.587814
14638 1 0.204308 0.822009 0.601996
17734 1 0.20724 0.847304 0.601329
12614 3 0.218143 0.824148 0.602178
12615 1 0.21446 0.830714 0.601637
17736 1 0.213137 0.833603 0.601907
5678 3 0.227853 0.819656 0.574252
5679 1 0.227848 0.828155 0.571664
7043 3 0.223741 0.846797 0.591817
9443 3 0.249452 0.846139 0.589615
7044 1 0.227802 0.845952 0.598906
6003 1 0.257855 0.824448 0.583998
17271 1 0.259331 0.822247 0.585987
6002 3 0.253599 0.827925 0.578997
2830 1 0.250091 0.83849 0.596625
9444 1 0.250123 0.840795 0.59453
2831 3 0.251238 0.832783 0.602168
2948 2 0.296167 0.818539 0.59957
15055 1 0.293994 0.844055 0.588137
15057 1 0.307611 0.846688 0.597425
15056 3 0.301342 0.84663 0.593226
8089 1 0.141144 0.86611 0.591286
8090 3 0.148093 0.867254 0.595757
8091 1 0.154031 0.864735 0.600412
13231 1 0.167494 0.865252 0.585093
13404 1 0.167954 0.862154 0.585813
13403 3 0.168974 0.854876 0.588532
13402 1 0.176206 0.85201 0.591778
10197 1 0.178475 0.850491 0.593364
16267 1 0.184549 0.87318 0.600732
13232 3 0.166798 0.872322 0.584314
12231 1 0.185359 0.870193 0.583098
12230 3 0.183452 0.870614 0.574299
16269 1 0.185411 0.870405 0.586016
13233 1 0.166362 0.878162 0.578294
7717 1 0.20651 0.850249 0.599902
15934 1 0.194737 0.854172 0.572893
15935 3 0.197777 0.853795 0.579568
3908 3 0.208977 0.870497 0.571768
16268 3 0.187634 0.870611 0.593783
7718 3 0.204805 0.856696 0.596777
15936 1 0.201014 0.853821 0.586805
7719 1 0.201977 0.854276 0.589591
3907 1 0.213369 0.877631 0.573122
9442 1 0.244714 0.84976 0.584024
21249 1 0.24283 0.851529 0.581839
21248 3 0.239179 0.856718 0.577176
21247 1 0.236305 0.863759 0.580865
2998 1 0.235205 0.866611 0.582037
2999 3 0.23192 0.873096 0.585006
3000 1 0.227381 0.876582 0.591567
15081 1 0.226388 0.877887 0.594412
2015 3 0.26551 0.870552 0.574108
2406 1 0.25349 0.875526 0.596507
20491 1 0.25316 0.877321 0.598866
2405 3 0.254667 0.871175 0.589468
2404 1 0.259097 0.870713 0.583103
2014 1 0.261398 0.870798 0.580622
7013 3 0.278824 0.857375 0.595841
18737 3 0.276173 0.877841 0.596407
591 1 0.296839 0.856367 0.572955
19503 1 0.294359 0.857243 0.57467
15075 1 0.293007 0.87841 0.574357
19501 1 0.284267 0.858809 0.585993
7014 1 0.282522 0.858056 0.588746
19502 3 0.288459 0.85969 0.579163
18586 1 0.309345 0.866228 0.596195
4215 1 0.311625 0.865495 0.593983
18587 3 0.303849 0.865581 0.601371
5935 1 0.295308 0.875239 0.588056
1999 1 0.340471 0.878113 0.57622
7626 1 0.338576 0.878253 0.573726
4214 3 0.31631 0.864665 0.587941
4213 1 0.31574 0.860696 0.581115
2000 2 0.346282 0.877892 0.582409
19813 1 0.154836 0.904763 0.571661
11191 1 0.154049 0.906217 0.574818
9303 1 0.14807 0.904038 0.602007
11619 1 0.175044 0.903059 0.576493
2848 1 0.175393 0.90521 0.574189
20041 1 0.166341 0.879718 0.576069
11617 1 0.172873 0.894221 0.5897
11618 3 0.175407 0.896862 0.582071
9547 1 0.171918 0.892785 0.592053
9548 3 0.168688 0.888629 0.598411
5056 1 0.194181 0.894704 0.571948
18143 3 0.201894 0.885128 0.59877
15564 1 0.195552 0.894736 0.575116
15562 1 0.200272 0.889428 0.588363
18144 1 0.200692 0.888268 0.59105
15563 3 0.198542 0.893449 0.581428
21237 1 0.188747 0.908862 0.593068
8830 1 0.189082 0.907331 0.595448
14025 1 0.212868 0.906196 0.5961
21553 1 0.212872 0.906794 0.5932
21554 3 0.212345 0.908816 0.585412
21555 1 0.212203 0.9072 0.57743
4621 1 0.212465 0.906652 0.574081
14637 1 0.214908 0.880106 0.573862
14636 3 0.218503 0.887923 0.574885
8831 3 0.190087 0.901688 0.600714
11742 1 0.245842 0.884775 0.572308
14635 1 0.222551 0.891571 0.579657
6504 1 0.224193 0.893634 0.582167
6503 3 0.228584 0.897209 0.588177
6502 1 0.230673 0.897948 0.595988
2191 1 0.231487 0.89858 0.598508
11741 3 0.249435 0.890484 0.576908
18738 1 0.27194 0.883333 0.593152
20967 1 0.269486 0.885104 0.591686
20966 3 0.264752 0.889404 0.587253
20965 1 0.258516 0.890633 0.583571
11740 1 0.255587 0.891115 0.58176
11490 1 0.272072 0.902752 0.573245
11489 3 0.278489 0.903491 0.577609
13626 1 0.2732 0.905615 0.595492
6765 1 0.27593 0.90387 0.596402
3797 3 0.295815 0.906335 0.581587
5937 1 0.293457 0.879468 0.577176
5936 3 0.292446 0.881953 0.584609
6764 3 0.282898 0.900693 0.599636
11488 1 0.285664 0.905717 0.58022
3798 1 0.288137 0.906119 0.580706
3796 1 0.304588 0.9045 0.584148
14364 1 0.307389 0.9047 0.584799
6763 1 0.290005 0.897063 0.602092
10071 1 0.312921 0.88956 0.575022
7629 1 0.314239 0.888336 0.578054
7628 3 0.315321 0.885546 0.584903
7627 1 0.321647 0.884344 0.590382
16075 1 0.323323 0.884184 0.592349
16076 3 0.328577 0.883379 0.59818
14363 3 0.31485 0.905939 0.584263
15607 1 0.324589 0.902546 0.58686
14362 1 0.321834 0.903333 0.585966
15608 3 0.332106 0.90068 0.589972
15609 1 0.336299 0.897214 0.595267
6939 1 0.355239 0.904824 0.578719
6937 1 0.362418 0.894036 0.573317
6938 2 0.355997 0.897228 0.577355
2001 1 0.34775 0.878956 0.589898
11192 3 0.152728 0.910072 0.582074
617 3 0.131039 0.939132 0.598197
618 1 0.126803 0.933413 0.595218
11193 1 0.156218 0.910516 0.58806
9256 1 0.15815 0.910631 0.590351
9257 3 0.16382 0.913183 0.594908
14690 3 0.176658 0.92851 0.59018
14689 1 0.17506 0.934878 0.59161
13521 1 0.174848 0.937445 0.592451
21235 1 0.183384 0.92002 0.58851
14691 1 0.181884 0.922224 0.589344
9258 1 0.167031 0.915343 0.601073
5069 3 0.208797 0.92796 0.57299
5070 1 0.211622 0.934163 0.577409
21236 3 0.187636 0.913675 0.587232
6550 1 0.200718 0.934811 0.586421
6552 1 0.205435 0.936277 0.600763
6551 3 0.204123 0.934763 0.5927
2597 3 0.234426 0.918964 0.585312
2596 1 0.240855 0.916272 0.585982
541 1 0.24344 0.914208 0.586279
3874 1 0.229448 0.920686 0.595193
2598 1 0.230507 0.919943 0.592494
16676 3 0.242565 0.939221 0.601815
542 3 0.249679 0.910348 0.587103
5480 3 0.228878 0.938764 0.574891
8343 1 0.27184 0.92536 0.573158
13625 3 0.267204 0.909729 0.594758
13624 1 0.260049 0.910312 0.591559
8342 3 0.26617 0.928165 0.576635
8341 1 0.265397 0.932548 0.582911
147 1 0.264874 0.933854 0.585325
146 3 0.264226 0.936017 0.593168
543 1 0.257671 0.910515 0.590512
145 1 0.264976 0.939162 0.600186
896 3 0.285255 0.925826 0.592378
897 1 0.282528 0.922845 0.585197
895 1 0.286619 0.924858 0.600252
16434 1 0.309481 0.917417 0.599618
9081 1 0.308911 0.919074 0.597393
9080 3 0.305899 0.924114 0.590816
9079 1 0.298862 0.929374 0.590304
8238 1 0.328058 0.927769 0.575824
8237 2 0.327359 0.919579 0.57273
616 1 0.136953 0.943963 0.601452
20334 1 0.147061 0.940272 0.591441
20333 3 0.15242 0.947306 0.592318
15226 1 0.160678 0.96784 0.580834
20332 1 0.158933 0.95166 0.592052
15227 3 0.160534 0.967325 0.588881
13520 3 0.173576 0.944566 0.59466
18109 1 0.182146 0.951065 0.598296
13519 1 0.179746 0.94913 0.596995
4184 3 0.192978 0.940949 0.573196
18334 1 0.206984 0.96259 0.577716
18335 3 0.204549 0.95554 0.575376
18336 1 0.200721 0.948877 0.574635
4183 1 0.198699 0.946181 0.574303
20703 1 0.211516 0.964518 0.592615
15808 1 0.213154 0.965769 0.590636
15809 2 0.2178 0.969619 0.585625
18111 1 0.195209 0.957182 0.59891
18110 3 0.188627 0.954351 0.600449
20701 1 0.198075 0.958549 0.598408
20702 3 0.205928 0.961664 0.596851
5481 1 0.227809 0.942943 0.581334
19449 1 0.226461 0.944537 0.583724
21229 1 0.245032 0.958827 0.594539
19448 3 0.223565 0.949085 0.590556
19447 1 0.224035 0.949632 0.598133
9285 1 0.224238 0.949777 0.601074
21230 3 0.253016 0.960282 0.591758
21231 1 0.257561 0.957116 0.586037
8370 1 0.259579 0.95551 0.584382
19271 3 0.281088 0.962064 0.576571
8369 3 0.266025 0.953182 0.57952
8368 1 0.271212 0.958637 0.577911
19272 1 0.273691 0.960394 0.577471
19270 1 0.287205 0.964335 0.575472
5576 3 0.286742 0.941931 0.57577
7803 1 0.283828 0.94522 0.586713
5577 1 0.283972 0.944513 0.583656
7802 3 0.283108 0.947282 0.59442
7801 1 0.287698 0.946066 0.601836
14143 1 0.300949 0.967702 0.597044
13102 1 0.169503 0.971083 0.595542
15228 1 0.166912 0.970153 0.594044
13103 3 0.176309 0.972406 0.598675
1394 3 0.194766 0.977549 0.574462
881 3 0.198424 0.986678 0.591764
880 1 0.199733 0.991434 0.597533
7857 1 0.200869 0.992979 0.599387
1395 1 0.195262 0.982282 0.581628
882 1 0.195907 0.983667 0.58391
13918 1 0.225029 0.973818 0.590853
15810 1 0.223387 0.97265 0.589486
13919 3 0.231049 0.976545 0.595464
13920 1 0.236141 0.983737 0.595519
1948 1 0.237963 0.98625 0.595476
1949 3 0.244675 0.992127 0.595219
1950 1 0.25025 0.997368 0.595591
6007 1 0.273885 0.970717 0.6019
6008 3 0.268449 0.975061 0.597921
6009 1 0.263104 0.978444 0.592441
19268 3 0.290776 0.989875 0.591954
19267 1 0.289858 0.997256 0.58701
14145 1 0.297628 0.981683 0.59538
14144 3 0.30174 0.97573 0.59762
19269 1 0.295655 0.984383 0.594155
19248 1 0.152868 0.00288662 0.624243
1638 1 0.19452 0.00253262 0.62749
2367 1 0.193921 0.00402753 0.629509
1696 1 0.225113 0.00111 0.603782
8690 2 0.189434 0.765341 0.603002
8691 1 0.193071 0.768261 0.60836
21481 1 0.19537 0.769736 0.610432
21482 3 0.201722 0.772676 0.6161
21483 1 0.206292 0.777304 0.621345
20400 1 0.20841 0.778538 0.623324
20399 3 0.215291 0.781729 0.627943
7138 1 0.231204 0.780252 0.621314
7139 3 0.238901 0.779547 0.619109
7140 1 0.235979 0.775655 0.612101
20398 1 0.223051 0.785101 0.630402
18777 1 0.225399 0.787186 0.632245
17681 2 0.10454 0.816785 0.622838
17680 1 0.103494 0.80875 0.62265
8531 3 0.183135 0.795257 0.630887
8532 1 0.182161 0.798049 0.623041
13215 1 0.160671 0.815077 0.619522
13213 1 0.158248 0.800827 0.624332
13214 3 0.1569 0.809178 0.623081
1713 1 0.161598 0.817452 0.618099
12613 1 0.217925 0.817642 0.607463
16120 1 0.217187 0.81521 0.609333
16122 1 0.207681 0.811541 0.618617
16121 3 0.213838 0.809452 0.614473
19219 1 0.237175 0.795423 0.609168
19221 1 0.225663 0.802202 0.617495
19220 3 0.230067 0.796546 0.613268
4794 1 0.237933 0.816795 0.623114
4793 3 0.232295 0.813117 0.627503
8799 1 0.239754 0.817891 0.621488
4792 1 0.225717 0.810607 0.630819
10504 1 0.223044 0.809788 0.631833
4352 3 0.253876 0.801762 0.623289
13075 1 0.259149 0.804148 0.614156
13076 3 0.263051 0.806058 0.607439
4351 1 0.257881 0.80366 0.616605
4353 1 0.252035 0.805749 0.629605
4890 1 0.251407 0.807757 0.632491
17682 1 0.100884 0.823167 0.626261
10395 1 0.0999932 0.825737 0.628234
10394 3 0.098125 0.832022 0.631915
10393 1 0.105482 0.835308 0.632321
5113 1 0.108511 0.836286 0.632672
5114 3 0.116631 0.837249 0.631616
5115 1 0.122935 0.8426 0.629331
13371 1 0.149774 0.83876 0.602827
13370 3 0.143356 0.840007 0.607212
13369 1 0.140111 0.844152 0.611025
11196 1 0.138336 0.845349 0.613261
11195 3 0.13401 0.848428 0.620493
3376 1 0.144382 0.833183 0.627744
3377 3 0.150754 0.835533 0.626104
3378 1 0.157032 0.836396 0.630992
1712 3 0.164816 0.823799 0.614882
1711 1 0.162166 0.830978 0.615627
19907 3 0.183159 0.833299 0.614411
13498 1 0.174532 0.84022 0.616187
19908 1 0.17684 0.838175 0.615364
13499 3 0.169677 0.847246 0.617482
10000 1 0.15954 0.836798 0.632128
17735 3 0.209281 0.83982 0.604861
14640 1 0.189998 0.825826 0.608022
14639 3 0.196179 0.821844 0.604112
19906 1 0.187935 0.828105 0.609688
15631 1 0.209295 0.83285 0.62503
12343 1 0.212341 0.832274 0.625154
15632 3 0.201841 0.834031 0.625125
15633 1 0.197595 0.83941 0.628916
21568 1 0.196344 0.841843 0.630754
8798 3 0.245139 0.820322 0.616299
12344 3 0.219708 0.830738 0.626824
21226 1 0.243465 0.839202 0.630514
21227 3 0.235061 0.838098 0.630763
21228 1 0.22881 0.835945 0.628594
12345 1 0.226284 0.834549 0.627796
8797 1 0.247992 0.825096 0.609926
2832 1 0.248856 0.827239 0.607742
18682 1 0.246579 0.838728 0.631071
15024 1 0.276601 0.821732 0.61926
18414 1 0.274897 0.822106 0.621662
18413 3 0.268445 0.822634 0.628229
2684 3 0.271149 0.843736 0.624568
2685 1 0.276153 0.840026 0.630993
18412 1 0.261961 0.82923 0.628824
18684 1 0.259372 0.831229 0.629478
2683 1 0.266372 0.845925 0.619671
11412 1 0.264193 0.846858 0.617446
18683 3 0.253384 0.836613 0.632132
15023 3 0.281735 0.820979 0.613808
15022 1 0.287699 0.820347 0.607189
2949 1 0.290033 0.820296 0.604738
14873 3 0.306531 0.835805 0.622476
14874 1 0.312034 0.834801 0.626575
11574 1 0.296907 0.838504 0.61796
14872 1 0.299021 0.837854 0.619001
11573 3 0.290411 0.842892 0.614705
12823 1 0.314302 0.834435 0.628639
11194 1 0.132315 0.850494 0.628392
3812 3 0.127938 0.875865 0.617082
20034 1 0.149291 0.861551 0.627278
4445 3 0.141606 0.868155 0.625287
4446 1 0.147582 0.86314 0.626529
4444 1 0.136246 0.87109 0.622247
3813 1 0.133807 0.872541 0.620902
2202 1 0.155864 0.863503 0.602619
20033 3 0.155085 0.857259 0.630081
2070 1 0.131994 0.850984 0.631151
10195 1 0.186333 0.850791 0.604234
11100 1 0.183452 0.874115 0.603517
2201 3 0.160605 0.860477 0.608419
13500 1 0.165832 0.853683 0.613466
2200 1 0.164574 0.85539 0.611903
11099 3 0.180784 0.876181 0.610099
18897 1 0.185767 0.8759 0.630491
12793 1 0.187286 0.8518 0.606509
6526 1 0.188307 0.874234 0.629435
12794 3 0.189495 0.855368 0.613262
12795 1 0.191073 0.857555 0.621441
6528 1 0.200905 0.865499 0.623823
14664 1 0.203421 0.863785 0.623246
14663 3 0.210011 0.860437 0.620386
14662 1 0.215843 0.860067 0.615438
6527 3 0.194995 0.869891 0.62579
2419 1 0.218155 0.859916 0.613488
7648 1 0.248526 0.855589 0.610063
7649 3 0.24264 0.858791 0.606578
2420 3 0.223299 0.859606 0.608196
2421 1 0.230964 0.858405 0.608856
7650 1 0.233997 0.858423 0.608594
12014 3 0.243996 0.871682 0.623127
18487 1 0.220293 0.878583 0.627432
12015 1 0.239358 0.867098 0.625677
2593 1 0.237085 0.864972 0.626547
2594 3 0.232654 0.860962 0.630531
11410 1 0.251559 0.85417 0.61109
7012 1 0.277039 0.854687 0.602964
11411 3 0.257743 0.84962 0.612175
18736 1 0.271009 0.873826 0.602969
4835 3 0.264739 0.862133 0.62633
5457 1 0.265169 0.866161 0.616603
4836 1 0.265147 0.865465 0.619159
5456 3 0.263917 0.869122 0.609685
5455 1 0.269069 0.872825 0.604685
11732 3 0.279826 0.876661 0.621534
4834 1 0.260326 0.863004 0.632311
18588 1 0.302834 0.860249 0.607367
1747 1 0.287602 0.852626 0.613319
11572 1 0.288591 0.849863 0.613339
21077 3 0.311365 0.854829 0.620851
1749 1 0.283008 0.866185 0.617983
1748 3 0.285063 0.859399 0.613978
11731 1 0.282022 0.869319 0.618897
21078 1 0.305049 0.858334 0.617147
15861 1 0.29199 0.858401 0.628572
21076 1 0.310907 0.852245 0.628902
5554 1 0.310732 0.851747 0.631739
17061 1 0.319451 0.874768 0.613146
10860 1 0.32191 0.872863 0.613754
10859 3 0.328719 0.869281 0.614233
10858 1 0.331365 0.861379 0.613905
2944 1 0.11907 0.889739 0.608444
2945 3 0.120141 0.897722 0.609315
2946 1 0.117432 0.901707 0.615299
9301 1 0.150665 0.903554 0.61668
3811 1 0.130582 0.883376 0.614775
9302 3 0.150692 0.902941 0.608945
20213 3 0.153121 0.879883 0.612441
20214 1 0.15609 0.880398 0.605539
10908 1 0.131197 0.904697 0.621355
3129 1 0.132971 0.893178 0.631683
11098 1 0.178413 0.881081 0.617177
18896 3 0.180559 0.881675 0.631526
20212 1 0.156966 0.879357 0.618871
9549 1 0.168725 0.893899 0.604645
13227 1 0.158316 0.879185 0.621148
1918 1 0.1677 0.908315 0.613438
1919 3 0.170252 0.899732 0.613131
1920 1 0.169042 0.895489 0.606757
13225 1 0.171103 0.880723 0.629139
18895 1 0.173677 0.881332 0.63
13226 3 0.163251 0.879162 0.627545
3534 1 0.164747 0.907246 0.632385
21336 1 0.199051 0.888661 0.609202
18142 1 0.199539 0.887208 0.606627
21334 1 0.194402 0.896569 0.610077
8832 1 0.193195 0.897555 0.607598
21335 3 0.197402 0.893532 0.615338
12891 1 0.213428 0.904027 0.614235
12890 3 0.213146 0.905596 0.622329
14024 3 0.213399 0.903673 0.603783
14023 1 0.213399 0.903637 0.611702
6769 1 0.199714 0.897101 0.629668
12889 1 0.21099 0.905247 0.630647
6771 1 0.202326 0.887751 0.628691
15080 3 0.22515 0.879961 0.60226
20492 3 0.24961 0.882848 0.604822
13770 1 0.221159 0.879552 0.6253
13769 3 0.223605 0.883039 0.620355
7929 1 0.241261 0.883025 0.626889
12013 1 0.241789 0.880022 0.625909
13768 1 0.224523 0.882924 0.613409
15079 1 0.224836 0.882824 0.610279
7928 3 0.239629 0.890056 0.62976
2192 3 0.234069 0.900487 0.605415
2193 1 0.235598 0.90281 0.612304
17448 1 0.23576 0.904348 0.614605
20493 1 0.250958 0.889712 0.608325
13334 3 0.255349 0.898296 0.612658
13335 1 0.252215 0.892011 0.609377
13333 1 0.261408 0.901286 0.614987
16129 1 0.26375 0.903062 0.615951
16130 3 0.27078 0.908281 0.617033
11733 1 0.272915 0.879725 0.623287
15436 1 0.270822 0.880934 0.624035
15437 3 0.263237 0.883882 0.627862
16432 1 0.309869 0.904002 0.608074
14620 1 0.295308 0.903787 0.618424
14621 3 0.290784 0.903915 0.623276
10039 1 0.291676 0.895707 0.602925
14622 1 0.283959 0.902862 0.627131
19356 1 0.281378 0.902152 0.628898
10041 1 0.304228 0.886562 0.608981
17059 1 0.30729 0.884284 0.610347
10040 3 0.298516 0.892191 0.605576
16077 1 0.331779 0.888289 0.604268
13372 1 0.33315 0.889877 0.606432
13373 3 0.336285 0.894888 0.611793
17060 3 0.314113 0.879261 0.611847
10263 1 0.315757 0.902414 0.628449
10470 1 0.314031 0.904726 0.62984
13374 1 0.341575 0.898311 0.617098
10262 3 0.319031 0.896187 0.624769
3808 1 0.343357 0.899721 0.618708
2742 1 0.313724 0.888449 0.632209
10261 1 0.31564 0.890614 0.630142
3810 1 0.352756 0.904303 0.630707
3809 3 0.348828 0.903526 0.62376
10712 3 0.138658 0.919362 0.605797
10711 1 0.143108 0.913812 0.603468
10907 3 0.137409 0.909514 0.623529
20280 1 0.144748 0.918185 0.625043
10906 1 0.143197 0.915415 0.624257
10713 1 0.138312 0.928209 0.602776
20278 1 0.154904 0.930407 0.630405
20279 3 0.149516 0.925644 0.626881
16066 1 0.167087 0.911204 0.613432
350 3 0.156641 0.933239 0.606273
16067 3 0.16689 0.919475 0.615055
5804 3 0.186946 0.931194 0.607331
16068 1 0.161848 0.924636 0.611701
351 1 0.160143 0.926498 0.61037
5803 1 0.184685 0.937559 0.610734
11868 1 0.189397 0.92369 0.625487
20155 1 0.20134 0.911946 0.613475
5805 1 0.192019 0.925258 0.608531
20157 1 0.193993 0.923504 0.608735
20156 3 0.199247 0.918304 0.608349
19645 1 0.206002 0.937052 0.603318
19646 3 0.206863 0.939162 0.611018
19647 1 0.204679 0.935793 0.619375
3288 1 0.203858 0.934802 0.622313
11867 3 0.192642 0.915826 0.627257
3287 3 0.202116 0.932655 0.63007
17447 3 0.237215 0.910104 0.620178
17446 1 0.238343 0.914625 0.626757
3875 3 0.225261 0.922511 0.602787