ITEM: TIMESTEP
35000000
ITEM: NUMBER OF ATOMS
2079
ITEM: BOX BOUNDS pp pp pp
0.0000000000000000e+00 5.0000000000000000e+01
0.0000000000000000e+00 5.0000000000000000e+01
0.0000000000000000e+00 5.0000000000000000e+01
ITEM: ATOMS id type vx vy vz 
20418 1 0.177375 -3.43075 -0.054523 
358 1 -3.6408 -1.20044 -1.02688 
20417 3 -4.67813 5.70288 -3.4689 
21148 1 -1.92165 -0.564252 -2.77097 
19106 2 -1.76973 -0.0400911 -4.31317 
7510 1 -0.889239 3.36272 0.361829 
7511 2 4.44727 -1.82185 -5.2212 
7512 1 1.98579 0.621624 1.88162 
20416 1 0.190254 1.69002 -0.623673 
249 1 -0.226013 2.64174 -2.00096 
247 1 -5.15027 3.38598 -0.692178 
19105 1 -7.56357 -0.863537 1.50211 
248 2 0.789923 1.19217 0.821914 
1888 1 -7.1877 -5.9922 0.710186 
1889 2 3.96488 -0.467803 -1.67116 
1890 1 -1.85201 -1.54409 -2.6266 
20133 1 -3.6873 2.85091 -0.779778 
11612 3 -0.116858 2.06456 1.47151 
11613 1 -3.88829 4.39521 0.138587 
3756 1 -2.43343 0.0459916 3.2759 
3755 3 -0.0999347 2.09455 1.41724 
3965 3 -3.69202 0.21804 2.81386 
11611 1 -3.19499 1.60972 1.59354 
3966 1 3.19359 2.44413 1.79015 
16550 3 6.08247 -1.52998 -1.3848 
16549 1 2.91121 -0.880825 -0.740238 
12587 2 -5.21762 4.98111 -1.36702 
12586 1 -1.668 2.1313 -2.4844 
20722 1 2.96218 -0.13404 -0.993488 
20723 2 1.49268 -2.90793 -1.21743 
20724 1 1.10863 0.998568 -3.4662 
12588 1 0.637692 8.93554 -2.06937 
687 1 1.27103 -6.19695 0.482672 
686 2 1.9175 -4.48488 1.14733 
360 1 4.31502 4.637 -2.98375 
359 3 0.328944 -1.16678 0.472056 
685 1 4.80276 -6.69721 1.19733 
15571 1 3.67461 -5.19222 4.93935 
15572 2 1.74554 -1.93846 -0.888498 
15573 1 0.0810308 -2.72119 1.68958 
3754 1 -2.75308 1.18506 3.01351 
6127 1 0.670445 -2.38307 4.55494 
11264 2 1.80346 -1.63681 3.76956 
11265 1 0.0981557 1.46229 -0.996452 
11263 1 -2.19544 6.35863 2.52314 
21149 2 1.3407 0.240185 -4.18546 
2031 1 -3.53002 1.17959 1.7003 
16551 1 -1.17674 -1.96248 -1.97449 
19107 1 -6.67293 1.49259 0.306409 
17959 1 -2.83285 -4.85333 -1.40058 
17960 3 -3.99915 -2.38762 -1.3993 
9563 3 1.49532 0.792456 -4.06459 
17961 1 2.70829 -0.343475 -3.98358 
9564 1 3.55129 -2.02686 -3.2635 
9562 1 -0.208747 1.87087 2.44284 
2271 1 -3.2205 6.4568 2.68089 
16136 3 1.15446 2.77487 -2.3891 
20414 3 -0.64836 -0.712158 1.20452 
20415 1 -1.57204 1.32802 0.89023 
20413 1 -9.76369 0.146416 -2.58616 
16137 1 -2.46111 4.21015 -10.8173 
6128 2 -0.627389 -2.17279 4.01787 
17307 1 -0.630644 1.96759 -0.955184 
6129 1 -8.54104 -0.889899 -1.35374 
17305 1 2.94512 4.14701 -4.42375 
21150 1 0.815168 0.497794 4.93188 
10188 1 0.271033 -2.1616 5.25637 
10187 2 0.75025 -3.67139 1.44261 
19714 1 -3.41517 -1.58756 4.07661 
17306 2 4.12933 -1.30118 -0.778793 
10186 1 4.52313 2.40068 -9.02711 
18136 1 -1.15398 -5.30427 1.47913 
11647 1 5.08851 -4.87735 -2.8944 
18138 1 3.71368 0.33683 -4.9058 
11648 3 1.75531 -0.517561 0.597336 
11649 1 -0.231847 4.36532 1.22189 
5393 3 1.25059 -2.52965 -4.2051 
5394 1 -8.24118 2.64558 0.289264 
5392 1 0.949785 5.72437 0.271816 
9675 1 1.79805 -0.653334 2.9605 
17687 3 0.11985 -0.582315 0.187378 
9673 1 -1.99001 3.54926 -0.622686 
17686 1 -0.952287 -1.74848 -0.142569 
17688 1 0.687647 -3.94499 0.362817 
9066 1 -3.11302 -1.51211 -2.30885 
9674 3 -1.54983 -1.73271 4.4816 
9065 3 1.14972 4.97866 0.63741 
20132 2 0.189699 -0.623614 1.79286 
20131 1 -3.4155 -1.62257 1.57625 
17955 1 0.680921 3.55593 3.56902 
17954 2 -1.3791 1.03427 0.81861 
17953 1 -0.770825 0.248432 0.144513 
12783 1 -4.59181 -6.6949 -4.18414 
16163 2 0.243744 2.90026 1.38413 
16164 1 2.45533 1.00622 -2.37743 
12724 1 3.34867 4.68158 -0.471291 
12725 3 3.40498 3.12633 -3.74039 
16162 1 -2.82794 5.72984 -0.726805 
12980 3 -3.22628 -1.29378 -0.596437 
544 1 -1.9021 1.34188 -3.2166 
12981 1 -2.92125 -3.32406 -5.7973 
17617 1 1.52949 -0.680035 -0.241701 
17618 3 0.092181 1.35457 -0.581601 
9190 1 3.25421 0.439817 5.94779 
17619 1 3.78401 -3.94878 6.5499 
4869 1 -2.69618 -1.09706 -2.25295 
9192 1 -3.59862 0.572044 -2.64416 
9191 3 4.72482 -3.95318 -0.232319 
6650 2 -1.7514 0.264016 0.67613 
6649 1 -0.171949 1.5417 0.142655 
8259 1 -4.19103 -1.63217 -3.22352 
8258 3 -0.837445 0.979747 2.27821 
8687 3 0.603463 -2.32353 1.15376 
8688 1 3.09859 -1.28029 -3.06427 
8686 1 -2.48856 -0.599817 3.67385 
12691 1 2.87116 2.78088 -4.66072 
10354 1 -0.143406 0.637346 -1.2261 
10355 3 2.21203 1.20251 1.15918 
20931 1 4.39634 -0.519932 -4.02558 
20930 3 -0.513286 4.83737 1.1327 
12011 3 0.85145 5.25944 -2.66216 
1756 1 1.74873 1.32292 -3.6605 
10356 1 1.39789 -1.29457 5.69987 
12012 1 0.965725 -2.13145 -1.88407 
9465 1 -3.95518 -0.180049 -1.94155 
12010 1 -3.85772 0.981323 -2.9555 
9463 1 -0.179775 2.30071 -0.301104 
9464 2 -2.13346 2.01333 -6.11326 
3981 1 1.87499 -1.41246 1.27317 
3979 1 -0.262169 3.60116 -1.00136 
6001 1 -0.962622 -1.83467 0.231971 
3980 2 0.0693572 -1.53779 -2.22875 
2250 1 3.83535 1.13513 -0.944008 
2249 2 1.63183 -1.25282 2.5889 
2248 1 -1.13648 0.965247 -1.63326 
16377 1 2.62645 2.48813 3.26117 
16376 2 0.211436 -1.3084 4.09816 
17958 1 -2.36086 -1.36644 -1.64797 
16375 1 -3.28825 3.04478 3.93213 
13107 1 -3.64534 -1.5336 0.885527 
13106 3 -2.10898 1.44977 -1.02077 
13105 1 -2.72141 -3.66007 -1.27663 
12229 1 -7.61846 -1.04031 -4.04935 
17957 3 1.66091 1.54448 -0.692544 
17956 1 0.984048 -4.63624 2.89728 
3964 1 -1.07993 -2.76042 -1.54417 
2030 3 1.03386 -0.451553 6.57181 
2029 1 3.2789 3.18103 7.18627 
9857 3 1.43843 1.75296 0.292875 
9856 1 1.76576 3.92909 6.95431 
3530 3 -0.740505 0.313731 2.35132 
3531 1 -6.18743 -2.2485 -1.45772 
8226 1 -0.931593 -1.7878 -3.18245 
1757 3 -1.85997 -5.24078 1.69371 
1758 1 -0.962747 -5.09862 -0.27179 
3909 1 3.4084 1.81985 6.09283 
3529 1 -0.185489 -1.4584 -3.02599 
9858 1 -7.40053 1.99806 -1.46605 
20929 1 -2.41311 0.189267 5.72992 
13419 1 -5.61591 -1.80303 -2.5207 
12669 1 -2.58719 0.301921 -0.274431 
12668 3 1.84973 -0.651931 -0.363505 
12667 1 -1.65624 -3.39854 6.4591 
10684 1 0.995847 5.34009 -2.79206 
10685 3 -5.63364 0.471484 0.74996 
13418 3 -1.42547 2.26765 -2.40618 
2246 3 0.0285354 0.80779 -0.622562 
2247 1 -8.48209 -3.08849 1.6813 
16135 1 -0.589358 -1.90686 2.22906 
13417 1 3.51193 -4.33014 4.07397 
2245 1 0.329658 -0.107439 0.812527 
2016 1 3.47808 -2.22326 -0.172742 
15073 1 2.45478 1.7935 -0.873978 
15074 3 -1.16531 3.67568 3.80437 
590 3 0.238951 -2.2366 -1.25476 
589 1 1.63129 0.78375 1.15217 
2958 1 -6.32453 -0.729745 2.95697 
2957 3 -2.50118 -0.961251 1.1492 
20785 1 -0.00444075 0.778684 0.730544 
20786 3 2.3957 -0.903856 2.53884 
20787 1 -3.86653 -1.74786 -3.04655 
2956 1 -1.25017 2.45297 -2.19547 
19715 2 4.64996 1.59981 3.99902 
19716 1 3.26723 6.60463 -2.22176 
20674 1 0.39928 2.98713 -1.7731 
20675 3 -0.326601 -0.827375 -0.932311 
20676 1 -2.87439 4.98858 4.96498 
5058 1 5.45981 -2.27856 0.0811725 
19815 1 -5.67012 -3.77606 -10.0713 
19814 2 4.03894 1.44257 3.99875 
20042 3 0.491222 2.75015 4.64049 
20043 1 -4.92619 -3.10464 2.9033 
8225 3 -1.88354 4.40403 -4.15879 
18137 3 0.94811 1.35151 -0.502319 
5057 3 -0.495941 0.392358 -0.263341 
8224 1 -6.5757 10.1862 -2.87833 
4622 3 3.20108 -4.5119 -1.38342 
10686 1 1.51507 2.43915 4.73835 
21106 1 3.37259 0.659184 5.30045 
21107 3 -2.82234 1.40871 0.626791 
21108 1 1.26231 9.46112 5.99451 
15253 1 4.8069 4.34241 -2.99465 
15254 3 -1.72766 -2.84992 2.15402 
2270 3 -0.934537 -0.0844007 -3.69237 
2269 1 0.969324 4.35733 -5.21877 
2182 1 1.97806 0.049207 6.5735 
8784 1 -1.62274 -5.09317 -0.511162 
8783 3 1.10834 -3.00622 2.25763 
3339 1 1.59483 -1.18546 4.99633 
3338 3 2.85583 -2.04635 2.57813 
3337 1 -7.46054 2.24814 0.818449 
2183 3 -0.231864 -2.39228 -3.72764 
2184 1 -0.291356 7.51937 6.6795 
7615 1 0.336315 -0.686499 -5.95454 
7616 3 1.28241 3.68154 -1.72782 
7617 1 -1.26046 -1.93599 -3.70753 
10070 3 5.11196 -5.30457 0.590102 
10069 1 -5.98547 -4.65325 3.92272 
19707 1 -1.96273 1.85793 -6.92323 
19755 1 -1.05737 0.428094 3.07089 
10853 3 5.23143 1.25368 0.743441 
10852 1 2.28837 1.20765 -2.64085 
10854 1 0.215757 -2.23441 -4.65826 
9064 1 -4.42083 -2.78225 -0.359381 
19706 3 -1.57948 1.73749 -1.57857 
7624 1 3.12149 5.33331 -1.03285 
7625 3 1.82745 0.717049 1.22208 
19705 1 2.88922 0.930937 -2.91158 
16512 1 1.57303 -0.973896 -5.01975 
4326 1 7.34804 -3.2916 2.20306 
4325 3 -1.087 -0.2862 -2.13182 
16511 3 -1.50488 -2.65722 -0.310682 
4324 1 2.60697 -0.399484 -3.02594 
4754 2 1.20899 -2.00142 0.912507 
4753 1 6.22804 0.849949 -2.96495 
2849 3 0.945641 6.48909 -0.273621 
2850 1 0.601463 0.847348 2.05122 
18970 1 -0.876054 -5.49252 1.00012 
10733 3 -0.247562 2.32775 -0.219934 
10734 1 -11.894 -5.19506 1.99622 
12726 1 -2.06923 1.109 -3.21338 
12782 3 0.297329 2.1324 1.55306 
18971 3 -1.58395 -3.82455 2.67013 
18972 1 -3.05689 1.69775 -0.0180839 
12781 1 -2.01055 2.74672 3.90742 
4623 1 1.47219 -1.70912 4.70554 
4513 1 -0.489051 -2.83349 3.93117 
4514 3 3.25817 1.05496 3.42229 
4515 1 -4.89056 -2.40053 5.11523 
5068 1 -2.5746 1.23274 -4.01885 
15255 1 0.513771 -2.77828 -1.72915 
16384 1 -4.22508 2.96884 -1.54297 
6270 1 6.67638 5.22569 1.58094 
3329 3 -4.5078 -0.169121 2.17023 
3328 1 -0.335123 -3.48725 0.214478 
6269 3 0.42156 4.94455 -0.191986 
3330 1 4.05995 -1.85477 -0.508013 
6952 1 -2.9095 -2.04889 0.0560491 
5479 1 3.78356 -5.31228 5.27374 
6268 1 -2.66489 7.33613 2.29411 
8782 1 2.5245 -4.64657 2.81392 
2584 1 -5.32554 -2.13276 -2.9074 
2585 3 0.0108534 7.03608 -2.4618 
12979 1 -1.60079 4.64909 -7.74707 
2586 1 -3.65684 2.5955 -3.37702 
16385 3 -4.05327 0.176777 0.64269 
16386 1 1.22655 1.03201 -3.45428 
3067 1 5.7737 -1.83703 -4.00731 
19754 3 1.81669 0.976723 -2.21996 
3069 1 2.30856 -4.34018 -6.95575 
3068 3 2.33493 -2.22212 4.49317 
19753 1 -6.28808 2.72398 6.46905 
16510 1 2.17636 6.84168 -1.19273 
4755 1 -0.777537 5.01116 -0.149142 
8236 1 2.64741 4.14452 -7.25073 
4867 1 -1.09307 5.95102 3.12878 
10732 1 -2.17191 -4.93819 0.0505562 
4868 3 2.10271 2.7699 -2.12896 
18636 1 1.25091 7.10407 -3.27926 
18635 3 2.2526 -3.58032 -0.562716 
4185 1 4.83198 0.658515 0.918663 
11734 1 -1.01335 -2.81818 0.97595 
11735 3 -2.0147 0.69908 -2.20172 
11736 1 1.76031 -4.93431 1.39016 
13486 1 2.47754 -1.26937 -0.371906 
18634 1 0.261276 2.14008 -2.87272 
13487 3 -1.32513 -1.48739 -2.0301 
4229 3 -1.38213 0.242729 1.28122 
545 3 0.551402 0.901227 -3.55319 
546 1 1.73413 -1.1348 4.6808 
9105 1 -3.81708 2.47222 1.71113 
9104 3 -1.83451 1.39762 0.374688 
13488 1 6.07017 -0.039895 4.73015 
9103 1 2.74294 0.42816 3.2887 
9622 1 -0.194851 -1.14305 5.76789 
9624 1 -2.55508 -8.14946 1.39613 
9623 3 0.425153 1.0104 3.33972 
4230 1 3.56413 -3.60024 2.07239 
6953 3 0.76237 -1.94694 -2.89047 
17383 1 6.31607 3.30228 5.1144 
17743 1 -0.0861295 2.44818 -10.5717 
6954 1 2.97081 -0.512053 6.20193 
17745 1 -3.03817 4.04276 -5.18799 
17744 3 1.79711 2.61963 1.92668 
7773 1 -0.113468 -11.3497 1.61459 
7772 3 -2.85703 -1.32328 -0.82474 
5575 1 3.10995 2.27152 2.06737 
7771 1 2.12495 2.77505 -5.96714 
6259 1 -1.96046 0.0413929 -3.91704 
6260 2 1.73018 4.11102 2.07023 
6261 1 4.11246 -0.1501 -0.25056 
20934 1 -1.15202 6.33922 3.01264 
20933 3 -1.38227 1.14126 0.712557 
20932 1 -5.28014 -5.18515 2.50576 
4228 1 1.38609 6.38047 2.07157 
1393 1 3.21701 4.45118 5.03082 
17385 1 -3.35443 -0.0742146 -0.335711 
17384 2 1.98052 1.64831 0.9789 
1698 1 -4.52056 1.04199 -4.25399 
1697 3 -1.56163 4.1466 -0.286871 
8689 1 6.22609 8.16023 -5.00448 
8512 1 -1.76255 0.192006 1.80369 
17722 1 -2.61138 -3.71181 3.01832 
17723 3 -1.04779 0.624088 2.19527 
8513 3 0.946948 0.565968 0.815833 
8514 1 2.44043 6.14771 -7.08247 
5677 1 2.71079 -2.48204 -3.72716 
12045 1 1.04149 2.21984 2.1402 
12044 3 -1.8796 1.23005 -0.799237 
17270 3 -1.82295 -4.20185 0.067238 
17269 1 5.37987 -4.58275 -3.23358 
8257 1 -2.02003 0.102368 1.59394 
12043 1 0.693189 -2.40256 3.01097 
13077 1 -5.38612 5.02156 -0.91504 
2947 1 -2.48446 -1.12097 -3.45051 
1048 1 -3.30653 4.50764 -0.503435 
6651 1 3.59837 -1.04481 3.38688 
9553 1 -1.32761 1.40007 -2.75115 
1050 1 -5.29163 -3.16614 0.645094 
9554 3 -4.23702 -1.57393 -1.61027 
9555 1 8.06494 -4.8167 -3.34914 
1049 3 -1.0699 -2.1226 -1.80995 
17724 1 -0.562089 -3.83929 5.11098 
10196 3 3.91017 2.46067 2.4846 
12692 3 3.38178 -1.38876 -1.75362 
12693 1 6.4891 -0.606628 -3.75122 
465 1 2.93623 -2.97944 -2.39759 
464 3 -4.5205 -2.51459 1.76067 
463 1 8.22249 -2.11223 -3.2507 
7042 1 -1.46689 0.703266 -3.43583 
14638 1 0.210558 7.81316 0.0598946 
17734 1 5.59451 1.52445 0.827628 
12614 3 1.12532 4.62051 -2.7121 
12615 1 2.61341 -1.9708 4.88998 
17736 1 -1.47719 -3.43809 1.7718 
5678 3 6.45145 2.65098 0.323568 
5679 1 3.50833 5.80706 -1.28461 
7043 3 -0.964192 0.0102086 -0.401794 
9443 3 -1.16302 1.4495 0.757576 
7044 1 1.14278 -4.89458 -1.87875 
6003 1 -0.10258 8.26353 2.47809 
17271 1 -4.46786 -1.62789 -2.27063 
6002 3 0.152812 2.15839 2.47408 
2830 1 -3.46216 0.520962 4.94289 
9444 1 -2.39985 1.40429 3.99248 
2831 3 -2.69814 -1.97433 -1.6735 
2948 2 1.87833 0.136392 -0.255689 
15055 1 -2.6073 0.607689 -0.285123 
15057 1 3.53069 -6.41091 0.456619 
15056 3 -2.80917 -0.45673 0.846145 
8089 1 0.332979 -1.87655 3.35801 
8090 3 2.18917 1.96822 -2.48655 
8091 1 -3.6712 -1.58193 -4.53853 
13231 1 -1.39204 -3.00238 10.9941 
13404 1 -5.05484 -0.552611 -0.20522 
13403 3 2.68708 -0.179149 -2.65666 
13402 1 1.08047 -0.119789 2.59073 
10197 1 -0.403773 2.05279 0.850663 
16267 1 -0.375431 3.51439 -9.10309 
13232 3 -1.31706 0.306417 5.00492 
12231 1 1.59235 -0.235852 -4.93799 
12230 3 4.88009 -2.35385 -2.9926 
16269 1 -10.3132 -2.49515 -0.590708 
13233 1 -4.14412 3.45674 0.327001 
7717 1 -1.19205 1.61657 0.599173 
15934 1 -5.85553 0.368518 -2.27635 
15935 3 -3.98213 -0.693684 -3.20467 
3908 3 3.64784 4.26865 -2.46997 
16268 3 -2.43526 2.3062 1.83975 
7718 3 -3.54022 -1.99061 -2.94821 
15936 1 -7.34869 2.99552 -0.523015 
7719 1 -5.303 -3.23204 -0.573455 
3907 1 0.465103 3.67443 -1.63695 
9442 1 0.933974 -2.89125 4.72798 
21249 1 0.339985 1.83024 6.55729 
21248 3 -1.13232 2.29331 -1.40322 
21247 1 -1.1421 3.42126 -1.96547 
2998 1 -3.70054 -0.0775584 3.45995 
2999 3 1.37194 2.48274 0.991125 
3000 1 8.11697 1.06431 2.22391 
15081 1 1.27553 -5.0686 -1.61581 
2015 3 -0.955124 -0.530348 -3.79639 
2406 1 3.41247 6.44812 -3.73516 
20491 1 3.8022 -2.67263 -2.62669 
2405 3 1.4635 0.549192 -5.1233 
2404 1 -3.23746 0.637224 -6.6779 
2014 1 7.28918 -2.31007 2.22544 
7013 3 3.81651 -3.89436 3.78271 
18737 3 0.437409 5.76956 -2.68044 
591 1 -1.70268 5.28458 -1.28041 
19503 1 2.57381 -3.03791 -5.73812 
15075 1 -4.62497 5.79798 -6.06008 
19501 1 -8.69731 -0.27379 3.44313 
7014 1 -9.51535 4.14598 -0.833325 
19502 3 -0.750657 -0.15575 -0.206724 
18586 1 4.06305 -0.922931 7.50313 
4215 1 -1.84181 -3.20762 -4.24357 
18587 3 -2.3214 1.05933 5.22935 
5935 1 6.64254 3.51439 -0.342322 
1999 1 5.61564 -0.641567 -4.25285 
7626 1 2.5867 -5.33571 3.74863 
4214 3 -1.72623 -0.172635 4.00869 
4213 1 -4.63268 2.20272 -2.27241 
2000 2 -4.01483 -2.35921 0.506143 
19813 1 -1.19902 0.473643 -0.538085 
11191 1 7.1465 -0.198678 -2.74386 
9303 1 -1.37874 -5.26704 0.256665 
11619 1 2.38354 -0.67061 1.41461 
2848 1 -1.97594 -7.97272 1.64668 
20041 1 -1.69693 4.2488 3.09196 
11617 1 -2.43898 -4.10495 -2.17825 
11618 3 0.591632 -0.197948 1.43141 
9547 1 1.09793 1.35006 -3.28945 
9548 3 -1.68535 1.34379 -0.426169 
5056 1 2.01633 -1.00077 3.04182 
18143 3 0.627682 2.44007 3.44394 
15564 1 5.60594 1.27116 -0.55852 
15562 1 -5.0986 -1.09926 -0.769457 
18144 1 4.51761 3.99964 3.11716 
15563 3 4.60338 0.128057 -5.92449 
21237 1 4.71208 -1.41195 3.9192 
8830 1 0.205428 -3.3067 -0.827931 
14025 1 -3.79994 5.78415 -6.21057 
21553 1 -6.28033 1.34267 -0.557579 
21554 3 -0.0109829 -1.22713 1.15085 
21555 1 -1.02137 6.78542 0.564122 
4621 1 -0.883574 6.22881 1.14661 
14637 1 -1.80987 7.20808 1.07323 
14636 3 0.478068 0.903496 0.47906 
8831 3 0.656985 1.24927 3.95254 
11742 1 1.69532 -1.25589 4.73469 
14635 1 6.92551 -2.61003 0.341412 
6504 1 -1.37546 3.33452 -6.19737 
6503 3 3.50084 -2.89056 0.937678 
6502 1 3.65063 0.383343 -1.35218 
2191 1 0.0139536 1.86241 3.10237 
11741 3 -2.90225 2.3379 -0.277701 
18738 1 -0.150353 4.58359 -4.39631 
20967 1 -0.909586 6.18545 4.86691 
20966 3 2.07147 3.8771 6.003 
20965 1 -4.83048 -2.58853 0.572759 
11740 1 0.383699 3.602 -1.16384 
11490 1 -2.15813 1.36339 2.01649 
11489 3 1.7259 -5.78694 -3.85607 
13626 1 5.32606 -1.37765 -1.02552 
6765 1 -3.1645 -1.20402 3.23083 
3797 3 -5.5769 0.428238 1.49036 
5937 1 -2.16178 0.147702 3.36622 
5936 3 1.30786 -1.36708 0.285191 
6764 3 0.238439 2.81517 -4.97382 
11488 1 2.47776 -4.54522 0.0945711 
3798 1 3.21355 4.9876 8.53156 
3796 1 -2.65987 0.297377 1.7236 
14364 1 -2.09204 0.126595 3.23344 
6763 1 -3.2361 -0.942079 -2.60421 
10071 1 4.63177 -6.0161 4.04488 
7629 1 6.5022 0.803667 0.291122 
7628 3 -1.65675 -1.90611 -3.50925 
7627 1 2.04312 -3.12606 -1.35207 
16075 1 -6.66962 0.609059 -1.54561 
16076 3 -1.86529 -0.543022 2.80608 
14363 3 2.40237 -0.696947 -0.442909 
15607 1 2.50138 3.12934 -2.89007 
14362 1 1.54138 -4.68352 -3.32161 
15608 3 0.283159 2.06705 0.0906874 
15609 1 -3.16555 2.64611 -5.64184 
6939 1 1.35338 1.45106 2.26014 
6937 1 2.68738 0.532009 4.15471 
6938 2 1.17239 -2.28701 -0.15563 
2001 1 1.11336 -6.12485 2.68986 
11192 3 -3.88442 -0.468398 -3.96437 
617 3 -3.02716 1.04086 -0.00542143 
618 1 -5.0616 0.115476 2.28658 
11193 1 1.89506 3.9942 1.22864 
9256 1 -6.60134 -2.2159 -2.4472 
9257 3 1.0558 0.976308 -0.109639 
14690 3 -0.0919685 3.43696 3.05146 
14689 1 0.0649719 -1.22946 -1.06583 
13521 1 2.10127 -1.59139 2.36123 
21235 1 -1.91047 -1.36362 -1.46937 
14691 1 -0.726373 -3.37783 2.8774 
9258 1 0.74066 -3.64591 5.06647 
5069 3 4.2712 0.550864 0.402143 
5070 1 0.172311 0.837313 -3.80202 
21236 3 2.33829 1.83109 2.02136 
6550 1 0.384526 2.41707 3.39154 
6552 1 4.24734 -0.529569 -2.19266 
6551 3 -2.43932 1.1124 0.439538 
2597 3 0.34303 2.35956 -0.57015 
2596 1 1.0002 1.18437 -3.10568 
541 1 1.54115 -8.46054 0.687837 
3874 1 1.97195 6.33622 3.06321 
2598 1 1.12038 2.6051 -0.36612 
16676 3 2.37057 -0.675048 2.32515 
542 3 4.05979 0.891801 0.217144 
5480 3 -0.567424 -1.7245 0.409032 
8343 1 1.11948 1.73555 -3.55856 
13625 3 0.321553 2.85783 2.25123 
13624 1 -1.28025 -1.90512 -3.50964 
8342 3 -3.97898 -0.87177 -1.89628 
8341 1 -0.321208 -5.93405 -0.850982 
147 1 4.42828 -5.94714 0.169469 
146 3 0.808043 2.54501 -3.65949 
543 1 3.3551 2.52007 -3.60255 
145 1 1.0888 7.5977 0.618581 
896 3 0.188817 4.92498 -5.17301 
897 1 -1.38876 -0.0992138 0.0399985 
895 1 -2.37459 0.494209 6.50826 
16434 1 0.52351 -1.6067 0.41526 
9081 1 1.70348 -2.02476 6.50862 
9080 3 -0.756518 -0.943265 -0.804672 
9079 1 -3.12219 6.00484 -0.210015 
8238 1 -3.07413 1.74522 0.817703 
8237 2 -0.719098 -1.783 0.455494 
616 1 -1.00003 -3.00348 6.77399 
20334 1 -0.0711563 3.1515 -7.49282 
20333 3 -3.75275 0.841376 -0.736721 
15226 1 1.22801 0.243919 -0.70979 
20332 1 6.52664 -0.105148 7.98174 
15227 3 1.16104 3.37911 0.291489 
13520 3 -0.763624 -0.131412 -2.3157 
18109 1 2.58145 2.27377 0.40021 
13519 1 -5.62382 -1.18734 3.92826 
4184 3 -0.6819 -0.0694584 -0.454396 
18334 1 1.06777 -0.59313 0.083792 
18335 3 0.375879 0.636327 0.263069 
18336 1 2.33069 -4.58668 -5.11336 
4183 1 1.58831 -0.677654 1.71241 
20703 1 3.76467 -3.87557 -1.33521 
15808 1 4.30615 -1.97651 -2.11137 
15809 2 4.85133 -0.685718 3.66437 
18111 1 4.3598 -2.7441 -2.891 
18110 3 2.31283 -0.55991 2.29422 
20701 1 5.26443 2.59177 3.35007 
20702 3 2.53702 -4.6498 1.00177 
5481 1 8.14336 -3.26914 2.53075 
19449 1 -4.19699 -2.67165 2.53292 
21229 1 -6.27077 -0.41776 -0.388556 
19448 3 -0.617025 -0.222364 -1.22538 
19447 1 -4.11354 -0.613137 -3.57679 
9285 1 -0.40093 -5.44443 -7.06318 
21230 3 -2.38151 -1.19023 0.177075 
21231 1 4.80439 -6.2055 -0.386152 
8370 1 -2.39135 -5.5992 2.28131 
19271 3 -3.77412 -2.74204 -3.51172 
8369 3 2.74138 -1.25081 -3.77553 
8368 1 -3.07869 -1.52031 6.78673 
19272 1 2.93648 0.240821 0.296064 
19270 1 -2.66938 6.44908 3.40883 
5576 3 0.884937 1.39296 -0.0500073 
7803 1 -0.917973 0.377051 -3.7069 
5577 1 -2.71174 -5.8171 2.33016 
7802 3 4.42688 4.52361 -1.60598 
7801 1 5.40747 0.864073 1.04966 
14143 1 0.52217 -0.110785 -0.36668 
13102 1 -6.31329 -5.31667 1.99926 
15228 1 4.78057 0.314703 0.123433 
13103 3 -0.692219 -2.96139 -1.79849 
1394 3 -1.62385 1.02258 0.945963 
881 3 3.48374 6.14189 0.627978 
880 1 0.631406 5.74613 1.3984 
7857 1 -7.17338 0.832897 0.921169 
1395 1 1.91436 3.73299 0.644171 
882 1 -1.96698 7.12757 3.93614 
13918 1 0.242823 5.71322 2.83055 
15810 1 3.76296 3.03421 0.470892 
13919 3 1.15433 -1.65269 2.96163 
13920 1 2.29489 -1.875 1.87752 
1948 1 0.809342 -2.43222 0.366036 
1949 3 -0.792314 -3.18078 -3.49992 
1950 1 -2.41856 0.985947 4.48969 
6007 1 -0.926718 1.73921 3.94353 
6008 3 -0.276083 -2.14817 -2.45933 
6009 1 3.98556 0.770017 -2.24909 
19268 3 -1.22756 -4.54813 1.69155 
19267 1 -2.11872 -1.4531 4.09166 
14145 1 -2.14454 -1.44198 -2.67923 
14144 3 -2.34766 0.932844 8.02659 
19269 1 4.46264 1.95536 -2.94365 
19248 1 -3.49706 -3.60457 0.865366 
1638 1 4.77059 2.03677 -4.8418 
2367 1 -4.9645 5.40936 -0.747475 
1696 1 0.183397 -7.45028 2.67583 
8690 2 5.73723 -0.154624 -1.7027 
8691 1 4.26884 2.27863 2.51063 
21481 1 0.576468 7.03417 4.92312 
21482 3 -0.369434 -0.225659 -0.210036 
21483 1 1.0611 -1.00147 -3.10448 
20400 1 4.67473 -1.56173 -2.30923 
20399 3 3.61324 -1.54216 1.20604 
7138 1 -0.21411 -4.15548 0.023485 
7139 3 -2.79453 2.18514 0.950486 
7140 1 -0.142925 1.19012 1.66832 
20398 1 4.30358 1.7488 1.30884 
18777 1 0.609359 2.63952 3.7356 
17681 2 0.296421 5.22511 3.44115 
17680 1 3.84491 2.5272 -1.9517 
8531 3 0.798791 0.280811 -0.388219 
8532 1 1.45796 1.32598 -0.272123 
13215 1 4.7326 0.60788 -2.84964 
13213 1 0.346312 -7.31677 2.28099 
13214 3 3.20911 -3.4105 2.48138 
1713 1 4.50099 -5.47453 -3.99622 
12613 1 1.03223 1.81614 0.239212 
16120 1 -2.92051 -1.96976 -0.110461 
16122 1 -0.786579 5.59654 -7.26322 
16121 3 -0.423408 0.475003 1.05835 
19219 1 -0.024593 -1.69501 -4.90305 
19221 1 -0.194854 2.87768 -4.3145 
19220 3 -3.62633 4.16934 -1.014 
4794 1 0.241946 1.78929 -2.47714 
4793 3 2.47268 -2.75088 -0.783246 
8799 1 2.81508 -0.541773 6.63266 
4792 1 -4.43 -7.67543 -4.85397 
10504 1 5.48496 -1.94316 -1.0316 
4352 3 -0.203114 5.01608 1.52529 
13075 1 7.57731 3.55469 0.439663 
13076 3 -2.62367 -1.7349 -2.2065 
4351 1 -2.41287 4.0934 -3.78419 
4353 1 -0.727261 -0.859042 2.80655 
4890 1 0.308033 -1.90836 -5.36675 
17682 1 4.4263 -1.72588 1.94578 
10395 1 -1.17351 1.76871 -0.995907 
10394 3 -1.0855 3.18567 0.127334 
10393 1 5.23112 1.35485 9.26782 
5113 1 -2.08472 6.33193 -7.43142 
5114 3 1.69788 -0.851964 -1.61885 
5115 1 -6.76303 0.165942 4.23776 
13371 1 -2.90978 3.63453 -5.22289 
13370 3 -0.696008 2.33332 -0.607914 
13369 1 6.43424 1.87866 -2.1714 
11196 1 -4.33987 0.85958 2.2744 
11195 3 -1.25517 3.93387 -1.14901 
3376 1 4.53746 5.47927 0.479896 
3377 3 -1.74284 -3.14313 5.09288 
3378 1 1.03661 2.05496 -2.12658 
1712 3 0.508236 -3.34132 1.39903 
1711 1 -2.13191 -2.49108 -3.34305 
19907 3 -0.787801 -0.349308 -5.2441 
13498 1 6.07257 -2.38463 0.632125 
19908 1 1.01421 1.453 0.572942 
13499 3 -1.47132 -1.09861 1.26405 
10000 1 -4.32145 0.0412107 -2.37033 
17735 3 -2.03265 -2.06672 -1.19877 
14640 1 -3.07433 1.33991 2.93773 
14639 3 -0.164526 -2.16287 0.431386 
19906 1 -1.74977 -4.45986 -0.605557 
15631 1 3.66237 -1.28838 2.80415 
12343 1 2.9572 -4.21273 1.22956 
15632 3 -1.5318 2.45443 -0.156871 
15633 1 1.59393 -0.134685 1.73666 
21568 1 1.90032 0.158295 0.61696 
8798 3 -1.18784 -1.93138 -1.2287 
12344 3 1.40286 0.432341 -2.01267 
21226 1 -5.97269 -1.33828 -5.52355 
21227 3 0.156951 -0.637944 0.9415 
21228 1 -0.149677 5.41589 -2.01215 
12345 1 -3.93413 -1.70091 -0.450963 
8797 1 3.90927 -4.76981 -4.95098 
2832 1 0.994846 3.90993 2.15567 
18682 1 -1.47648 3.47974 -1.42282 
15024 1 -3.55664 -3.40618 7.08264 
18414 1 1.50455 -6.59133 4.11923 
18413 3 1.30497 0.415191 -0.34636 
2684 3 3.41793 5.34353 1.09853 
2685 1 -0.986889 -0.558746 1.48261 
18412 1 -0.174364 2.96984 -3.93513 
18684 1 1.5683 -0.267561 -0.0344432 
2683 1 3.48123 -0.870095 -3.54408 
11412 1 -2.14767 2.78983 -1.89659 
18683 3 0.942596 0.685257 -2.17941 
15023 3 0.9883 0.594236 0.884693 
15022 1 2.01739 -4.72642 -7.38902 
2949 1 1.21039 6.57142 -3.80262 
14873 3 -0.0694001 0.0389324 2.33316 
14874 1 3.02806 2.64841 -1.87971 
11574 1 -1.10612 -4.32669 6.37424 
14872 1 2.125 1.39427 -2.64115 
11573 3 0.561796 0.728462 1.68821 
12823 1 -2.2167 0.886229 -1.59642 
11194 1 5.86264 -3.80538 -2.45223 
3812 3 1.88106 0.819555 0.0396684 
20034 1 -4.92212 3.1437 2.72705 
4445 3 -3.65335 5.29129 -2.37921 
4446 1 -3.32037 2.19415 -0.466643 
4444 1 3.34417 -5.21154 -5.22413 
3813 1 -1.7234 3.20267 -1.47287 
2202 1 2.67425 -0.17261 -5.87713 
20033 3 -0.599973 -0.540563 -1.14427 
2070 1 0.9439 4.11047 5.97107 
10195 1 0.087736 4.97383 -2.30848 
11100 1 -0.165254 1.0747 -2.61819 
2201 3 -2.46427 1.8583 0.856478 
13500 1 -2.96406 0.774896 3.97773 
2200 1 -0.0108597 1.90157 -4.31102 
11099 3 -1.37774 1.60519 0.205137 
18897 1 -3.71787 -3.26918 1.91007 
12793 1 -2.77177 -6.76895 -5.30682 
6526 1 -8.65557 0.992343 -2.8284 
12794 3 -1.46183 1.80036 -0.0797282 
12795 1 -2.46788 -1.67295 0.476122 
6528 1 0.166893 -5.23297 -4.25852 
14664 1 1.38425 -0.491532 0.625273 
14663 3 -0.198488 3.90362 1.40419 
14662 1 1.98479 5.05283 -2.28428 
6527 3 -4.84474 1.47884 -4.11667 
2419 1 0.748474 -5.34656 -0.757333 
7648 1 1.59528 -5.91453 1.98096 
7649 3 4.38577 0.253922 -0.173799 
2420 3 -5.12859 -1.93918 1.14409 
2421 1 2.66796 0.920009 4.32776 
7650 1 4.85531 -3.64547 3.42834 
12014 3 -2.75856 3.79033 1.88856 
18487 1 3.59395 -0.677924 -0.991026 
12015 1 4.08653 0.292968 -8.67605 
2593 1 3.15646 0.770037 0.117996 
2594 3 0.937942 1.11995 -0.809907 
11410 1 1.59063 -7.58762 3.14886 
7012 1 1.03812 1.17918 6.96752 
11411 3 3.85337 -3.71678 4.32348 
18736 1 -3.31108 -1.50781 -0.570031 
4835 3 0.0749453 -4.52852 4.42098 
5457 1 -0.981937 0.275092 -5.47686 
4836 1 5.63508 9.09211 -0.929824 
5456 3 -1.29901 1.97395 2.11397 
5455 1 -4.39596 1.01841 -5.28773 
11732 3 -2.35207 1.53787 -3.83215 
4834 1 -0.0528951 -1.88364 0.930924 
18588 1 2.57402 -1.93117 1.90683 
1747 1 -1.42799 3.31535 -4.90285 
11572 1 -1.48577 -0.395733 1.80912 
21077 3 -1.61658 2.21753 -3.56164 
1749 1 1.4846 4.26821 -2.1344 
1748 3 -3.5995 -0.199037 1.75389 
11731 1 -7.56423 -0.442302 -4.43118 
21078 1 -0.865714 -4.80493 -0.588885 
15861 1 -3.29535 -1.47302 0.666626 
21076 1 -4.51605 -2.7413 0.733366 
5554 1 1.35169 -2.9254 3.67327 
17061 1 3.26452 1.54046 -6.79164 
10860 1 1.49631 -0.802846 -2.40716 
10859 3 3.22807 -0.232997 -0.662127 
10858 1 -5.7356 3.173 -2.18221 
2944 1 7.99397 -3.54614 -5.57189 
2945 3 2.56149 -2.23132 0.0282922 
2946 1 0.336225 -4.42728 2.53749 
9301 1 -0.0624248 -1.38062 0.319204 
3811 1 0.573767 4.87919 0.477839 
9302 3 -1.38698 5.69582 0.833634 
20213 3 3.3112 -2.01391 -0.0992881 
20214 1 2.01701 -0.685135 1.93167 
10908 1 0.3353 1.42111 -0.0300379 
3129 1 4.88257 -3.74345 -2.59115 
11098 1 -0.0387691 -0.0915441 -0.418738 
18896 3 -2.15696 -0.0338624 2.56367 
20212 1 2.6076 5.45402 -3.01852 
9549 1 0.515436 3.79547 4.44621 
13227 1 -3.10806 1.63468 1.83674 
1918 1 1.96449 4.15049 5.4018 
1919 3 -0.868935 2.89476 1.14061 
1920 1 -6.27491 8.57311 4.21606 
13225 1 -5.40164 3.93085 -0.785095 
18895 1 -0.38703 1.11603 5.75677 
13226 3 4.88606 -0.201533 1.5876 
3534 1 1.4148 1.39097 1.60406 
21336 1 4.94187 1.06257 1.80438 
18142 1 2.85205 3.61077 0.912526 
21334 1 0.101861 -0.803099 -2.89617 
8832 1 -4.6365 -1.44855 7.72835 
21335 3 3.07103 -0.0755607 0.371735 
12891 1 -0.797219 0.633016 -5.23673 
12890 3 -0.777522 -0.0631016 1.48475 
14024 3 1.87731 -3.25655 2.84755 
14023 1 0.621942 -1.8675 6.33115 
6769 1 1.48335 -0.337027 -1.0253 
12889 1 2.63798 -2.43952 0.12926 
6771 1 0.0264897 8.04755 2.97166 
15080 3 0.0976514 -4.64387 1.7621 
20492 3 -1.13385 -2.3502 -2.37578 
13770 1 0.939131 0.711231 -0.229502 
13769 3 1.41137 -0.838018 2.58377 
7929 1 -6.61301 -1.15411 4.26053 
12013 1 2.40566 -0.327306 -5.15786 
13768 1 -0.860925 1.40045 -0.593569 
15079 1 5.25004 4.95418 -0.869717 
7928 3 2.16266 2.96285 1.18991 
2192 3 4.53634 1.25862 0.0690737 
2193 1 2.22655 2.31938 1.00728 
17448 1 -0.796569 5.69149 0.12505 
20493 1 1.51948 -2.74322 -4.53204 
13334 3 -2.26691 0.13393 -1.14217 
13335 1 -4.60939 -3.12107 -3.33658 
13333 1 -1.55849 -8.23514 -0.172681 
16129 1 7.99951 4.46812 -0.616192 
16130 3 -0.18897 0.388894 -1.0433 
11733 1 5.16756 -5.27706 5.19217 
15436 1 -4.88797 0.854201 4.02701 
15437 3 4.22717 -3.76073 -3.67939 
16432 1 -3.27823 9.21281 -0.780736 
14620 1 -1.75948 -1.08755 0.267774 
14621 3 1.2621 1.32612 2.28288 
10039 1 1.83557 -3.6482 2.74822 
14622 1 -0.935879 6.14759 -0.938756 
19356 1 -0.587026 -2.88341 -0.996695 
10041 1 2.22509 0.412555 -2.08636 
17059 1 -2.41595 3.83674 0.238925 
10040 3 -0.249756 -1.80395 -2.24417 
16077 1 3.57387 1.2636 1.64172 
13372 1 -1.84228 4.48378 -2.71229 
13373 3 -2.36357 3.64547 -0.930291 
17060 3 -3.29252 -0.0703481 -3.49237 
10263 1 0.322774 0.772974 -1.97215 
10470 1 -1.49053 0.277423 -1.70991 
13374 1 0.103074 -2.99559 -4.34003 
10262 3 1.32296 0.621589 1.77746 
3808 1 3.92524 -1.80034 -0.635416 
2742 1 -2.16898 1.76899 -2.87444 
10261 1 -6.16289 -0.0462536 -4.33923 
3810 1 -0.897956 -4.30869 -0.842551 
3809 3 5.62452 4.10906 2.89714 
10712 3 -5.19151 3.56141 4.49004 
10711 1 0.480758 3.48595 3.77441 
10907 3 3.60958 -2.96933 2.26927 
20280 1 -2.3735 1.15727 -5.53293 
10906 1 -2.21481 1.0437 -3.20043 
10713 1 -0.712898 0.605609 6.57329 
20278 1 3.03834 1.29968 3.74463 
20279 3 3.89258 -2.61699 -2.06979 
16066 1 -6.02819 -2.18426 5.35713 
350 3 2.64928 1.5379 0.958831 
16067 3 7.15235 2.48302 -0.317545 
5804 3 0.577768 1.12197 -0.446577 
16068 1 4.16403 1.00716 0.425557 
351 1 -4.35035 -4.27503 4.29123 
5803 1 -4.35362 -1.18894 0.211454 
11868 1 1.25479 0.434992 -2.56267 
20155 1 -2.06867 8.57277 -1.27921 
5805 1 -3.84566 -4.80119 -0.409684 
20157 1 1.44112 6.20167 2.56549 
20156 3 -2.55137 1.19681 2.48954 
19645 1 -5.01683 0.959086 0.362946 
19646 3 -0.598707 1.88179 2.69344 
19647 1 -6.26372 -1.49567 3.43419 