ITEM: TIMESTEP
0
ITEM: NUMBER OF ATOMS
2079
ITEM: BOX BOUNDS pp pp pp
0.0000000000000000e+00 5.0000000000000000e+01
0.0000000000000000e+00 5.0000000000000000e+01
0.0000000000000000e+00 5.0000000000000000e+01
ITEM: ATOMS id type 
142 1 
143 3 
144 1 
145 1 
146 3 
147 1 
247 1 
248 2 
249 1 
313 1 
314 3 
315 1 
481 1 
482 3 
483 1 
1393 1 
1394 3 
1395 1 
1402 1 
1403 3 
1404 1 
1636 1 
1637 3 
1638 1 
2245 1 
2246 3 
2247 1 
2248 1 
2249 2 
2250 1 
2365 1 
2366 3 
2367 1 
2404 1 
2405 3 
2406 1 
2419 1 
2420 3 
2421 1 
2476 1 
2477 3 
2478 1 
2521 1 
2522 2 
2523 1 
2533 1 
2534 3 
2535 1 
2584 1 
2585 3 
2586 1 
2590 1 
2591 2 
2592 1 
2593 1 
2594 3 
2595 1 
2596 1 
2597 3 
2598 1 
3253 1 
3254 3 
3255 1 
3256 1 
3257 3 
3258 1 
3268 1 
3269 2 
3270 1 
3328 1 
3329 3 
3330 1 
3376 1 
3377 3 
3378 1 
3388 1 
3389 3 
3390 1 
3442 1 
3443 3 
3444 1 
3544 1 
3545 3 
3546 1 
3553 1 
3554 2 
3555 1 
3559 1 
3560 3 
3561 1 
3601 1 
3602 3 
3603 1 
3748 1 
3749 3 
3750 1 
4324 1 
4325 3 
4326 1 
4444 1 
4445 3 
4446 1 
4504 1 
4505 3 
4506 1 
4513 1 
4514 3 
4515 1 
4570 1 
4571 3 
4572 1 
4621 1 
4622 3 
4623 1 
4633 1 
4634 3 
4635 1 
4684 1 
4685 3 
4686 1 
4708 1 
4709 3 
4710 1 
4753 1 
4754 2 
4755 1 
4822 1 
4823 2 
4824 1 
4867 1 
4868 3 
4869 1 
4888 1 
4889 3 
4890 1 
5479 1 
5480 3 
5481 1 
5482 1 
5483 3 
5484 1 
5596 1 
5597 3 
5598 1 
5767 1 
5768 3 
5769 1 
5965 1 
5966 3 
5967 1 
6001 1 
6002 3 
6003 1 
6007 1 
6008 3 
6009 1 
6025 1 
6026 3 
6027 1 
6667 1 
6668 3 
6669 1 
6673 1 
6674 3 
6675 1 
6721 1 
6722 3 
6723 1 
6736 1 
6737 3 
6738 1 
6922 1 
6923 3 
6924 1 
7042 1 
7043 3 
7044 1 
7801 1 
7802 3 
7803 1 
7927 1 
7928 3 
7929 1 
8008 1 
8009 3 
8010 1 
8110 1 
8111 3 
8112 1 
8119 1 
8120 3 
8121 1 
8164 1 
8165 3 
8166 1 
8224 1 
8225 3 
8226 1 
8236 1 
8237 2 
8238 1 
8947 1 
8948 3 
8949 1 
9064 1 
9065 3 
9066 1 
9079 1 
9080 3 
9081 1 
9124 1 
9125 3 
9126 1 
9190 1 
9191 3 
9192 1 
9205 1 
9206 3 
9207 1 
9256 1 
9257 3 
9258 1 
9301 1 
9302 3 
9303 1 
10039 1 
10040 3 
10041 1 
10105 1 
10106 3 
10107 1 
10159 1 
10160 3 
10161 1 
10261 1 
10262 3 
10263 1 
10279 1 
10280 3 
10281 1 
10393 1 
10394 3 
10395 1 
10468 1 
10469 3 
10470 1 
10504 1 
10505 3 
10506 1 
10507 1 
10508 3 
10509 1 
10528 1 
10529 2 
10530 1 
11221 1 
11222 3 
11223 1 
11347 1 
11348 3 
11349 1 
11410 1 
11411 3 
11412 1 
11470 1 
11471 3 
11472 1 
11488 1 
11489 3 
11490 1 
12121 1 
12122 3 
12123 1 
12313 1 
12314 3 
12315 1 
12325 1 
12326 3 
12327 1 
12496 1 
12497 3 
12498 1 
12613 1 
12614 3 
12615 1 
12616 1 
12617 3 
12618 1 
13156 1 
13157 3 
13158 1 
13213 1 
13214 3 
13215 1 
13225 1 
13226 3 
13227 1 
13333 1 
13334 3 
13335 1 
13342 1 
13343 3 
13344 1 
13402 1 
13403 3 
13404 1 
13519 1 
13520 3 
13521 1 
14248 1 
14249 3 
14250 1 
14284 1 
14285 3 
14286 1 
14287 1 
14288 3 
14289 1 
14362 1 
14363 3 
14364 1 
14404 1 
14405 3 
14406 1 
14413 1 
14414 3 
14415 1 
14524 1 
14525 3 
14526 1 
14641 1 
14642 3 
14643 1 
14662 1 
14663 3 
14664 1 
15310 1 
15311 3 
15312 1 
15328 1 
15329 3 
15330 1 
15373 1 
15374 3 
15375 1 
15436 1 
15437 3 
15438 1 
15481 1 
15482 3 
15483 1 
15562 1 
15563 3 
15564 1 
15565 1 
15566 3 
15567 1 
15607 1 
15608 3 
15609 1 
15619 1 
15620 3 
15621 1 
15670 1 
15671 3 
15672 1 
16321 1 
16322 3 
16323 1 
16384 1 
16385 3 
16386 1 
16393 1 
16394 3 
16395 1 
16510 1 
16511 3 
16512 1 
16513 1 
16514 3 
16515 1 
16585 1 
16586 3 
16587 1 
17284 1 
17285 3 
17286 1 
17293 1 
17294 3 
17295 1 
17296 1 
17297 3 
17298 1 
17305 1 
17306 2 
17307 1 
17308 1 
17309 3 
17310 1 
17341 1 
17342 3 
17343 1 
17422 1 
17423 3 
17424 1 
17722 1 
17723 3 
17724 1 
17764 1 
17765 3 
17766 1 
18385 1 
18386 3 
18387 1 
18487 1 
18488 3 
18489 1 
18505 1 
18506 3 
18507 1 
18619 1 
18620 3 
18621 1 
18682 1 
18683 3 
18684 1 
18736 1 
18737 3 
18738 1 
18748 1 
18749 3 
18750 1 
19447 1 
19448 3 
19449 1 
19501 1 
19502 3 
19503 1 
19516 1 
19517 3 
19518 1 
19570 1 
19571 2 
19572 1 
19645 1 
19646 3 
19647 1 
19705 1 
19706 3 
19707 1 
19753 1 
19754 3 
19755 1 
19807 1 
19808 3 
19809 1 
19813 1 
19814 2 
19815 1 
20701 1 
20702 3 
20703 1 
20722 1 
20723 2 
20724 1 
20761 1 
20762 3 
20763 1 
20785 1 
20786 3 
20787 1 
20881 1 
20882 3 
20883 1 
20944 1 
20945 3 
20946 1 
20950 1 
20951 3 
20952 1 
20965 1 
20966 3 
20967 1 
20968 1 
20969 3 
20970 1 
163 1 
164 3 
165 1 
286 1 
287 3 
288 1 
349 1 
350 3 
351 1 
358 1 
359 3 
360 1 
463 1 
464 3 
465 1 
532 1 
533 3 
534 1 
1240 1 
1241 2 
1242 1 
1534 1 
1535 3 
1536 1 
1615 1 
1616 3 
1617 1 
2269 1 
2270 3 
2271 1 
2440 1 
2441 3 
2442 1 
2503 1 
2504 2 
2505 1 
3286 1 
3287 3 
3288 1 
3334 1 
3335 3 
3336 1 
3337 1 
3338 3 
3339 1 
3400 1 
3401 3 
3402 1 
3403 1 
3404 3 
3405 1 
3418 1 
3419 3 
3420 1 
3523 1 
3524 3 
3525 1 
3529 1 
3530 3 
3531 1 
3532 1 
3533 3 
3534 1 
3631 1 
3632 2 
3633 1 
3646 1 
3647 3 
3648 1 
3712 1 
3713 3 
3714 1 
3751 1 
3752 3 
3753 1 
3754 1 
3755 3 
3756 1 
4351 1 
4352 3 
4353 1 
4417 1 
4418 3 
4419 1 
4438 1 
4439 3 
4440 1 
4489 1 
4490 3 
4491 1 
4711 1 
4712 3 
4713 1 
4792 1 
4793 3 
4794 1 
4834 1 
4835 3 
4836 1 
4894 1 
4895 3 
4896 1 
5554 1 
5555 3 
5556 1 
5557 1 
5558 3 
5559 1 
5575 1 
5576 3 
5577 1 
5611 1 
5612 3 
5613 1 
5677 1 
5678 3 
5679 1 
5791 1 
5792 3 
5793 1 
5803 1 
5804 3 
5805 1 
5935 1 
5936 3 
5937 1 
5995 1 
5996 3 
5997 1 
6700 1 
6701 3 
6702 1 
6754 1 
6755 3 
6756 1 
6763 1 
6764 3 
6765 1 
6769 1 
6770 3 
6771 1 
6814 1 
6815 3 
6816 1 
6826 1 
6827 3 
6828 1 
6838 1 
6839 3 
6840 1 
6937 1 
6938 2 
6939 1 
6952 1 
6953 3 
6954 1 
7012 1 
7013 3 
7014 1 
7054 1 
7055 3 
7056 1 
7138 1 
7139 3 
7140 1 
7171 1 
7172 2 
7173 1 
7231 1 
7232 3 
7233 1 
7240 1 
7241 3 
7242 1 
7243 1 
7244 2 
7245 1 
7252 1 
7253 3 
7254 1 
7771 1 
7772 3 
7773 1 
7855 1 
7856 3 
7857 1 
7900 1 
7901 3 
7902 1 
7951 1 
7952 3 
7953 1 
7978 1 
7979 3 
7980 1 
8089 1 
8090 3 
8091 1 
8257 1 
8258 3 
8259 1 
8266 1 
8267 3 
8268 1 
8935 1 
8936 3 
8937 1 
8995 1 
8996 3 
8997 1 
9103 1 
9104 3 
9105 1 
9223 1 
9224 3 
9225 1 
9283 1 
9284 3 
9285 1 
10000 1 
10001 3 
10002 1 
10069 1 
10070 3 
10071 1 
10123 1 
10124 3 
10125 1 
10186 1 
10187 2 
10188 1 
10195 1 
10196 3 
10197 1 
10354 1 
10355 3 
10356 1 
10360 1 
10361 3 
10362 1 
10366 1 
10367 3 
10368 1 
10414 1 
10415 2 
10416 1 
10423 1 
10424 3 
10425 1 
10438 1 
10439 3 
10440 1 
11149 1 
11150 3 
11151 1 
11191 1 
11192 3 
11193 1 
11194 1 
11195 3 
11196 1 
11203 1 
11204 3 
11205 1 
11263 1 
11264 2 
11265 1 
11320 1 
11321 3 
11322 1 
11332 1 
11333 3 
11334 1 
11491 1 
11492 3 
11493 1 
12091 1 
12092 3 
12093 1 
12118 1 
12119 3 
12120 1 
12160 1 
12161 3 
12162 1 
12169 1 
12170 3 
12171 1 
12220 1 
12221 3 
12222 1 
12229 1 
12230 3 
12231 1 
12334 1 
12335 3 
12336 1 
12343 1 
12344 3 
12345 1 
12418 1 
12419 3 
12420 1 
12520 1 
12521 3 
12522 1 
12586 1 
12587 2 
12588 1 
12643 1 
12644 3 
12645 1 
13231 1 
13232 3 
13233 1 
13363 1 
13364 3 
13365 1 
13369 1 
13370 3 
13371 1 
13372 1 
13373 3 
13374 1 
13417 1 
13418 3 
13419 1 
13423 1 
13424 3 
13425 1 
13474 1 
13475 3 
13476 1 
13486 1 
13487 3 
13488 1 
13489 1 
13490 3 
13491 1 
13498 1 
13499 3 
13500 1 
13531 1 
13532 3 
13533 1 
13543 1 
13544 3 
13545 1 
13591 1 
13592 3 
13593 1 
13606 1 
13607 3 
13608 1 
14311 1 
14312 3 
14313 1 
14377 1 
14378 3 
14379 1 
14494 1 
14495 2 
14496 1 
14554 1 
14555 3 
14556 1 
14620 1 
14621 3 
14622 1 
14635 1 
14636 3 
14637 1 
14638 1 
14639 3 
14640 1 
14689 1 
14690 3 
14691 1 
15478 1 
15479 3 
15480 1 
15538 1 
15539 3 
15540 1 
15571 1 
15572 2 
15573 1 
15595 1 
15596 3 
15597 1 
15631 1 
15632 3 
15633 1 
15772 1 
15773 3 
15774 1 
16357 1 
16358 3 
16359 1 
16375 1 
16376 2 
16377 1 
16432 1 
16433 3 
16434 1 
16480 1 
16481 3 
16482 1 
16495 1 
16496 3 
16497 1 
16549 1 
16550 3 
16551 1 
16594 1 
16595 2 
16596 1 
16612 1 
16613 3 
16614 1 
16663 1 
16664 3 
16665 1 
16675 1 
16676 3 
16677 1 
16729 1 
16730 3 
16731 1 
16732 1 
16733 3 
16734 1 
17326 1 
17327 3 
17328 1 
17383 1 
17384 2 
17385 1 
17446 1 
17447 3 
17448 1 
17560 1 
17561 3 
17562 1 
17617 1 
17618 3 
17619 1 
17635 1 
17636 3 
17637 1 
17680 1 
17681 2 
17682 1 
17683 1 
17684 3 
17685 1 
17686 1 
17687 3 
17688 1 
17689 1 
17690 3 
17691 1 
17692 1 
17693 3 
17694 1 
17734 1 
17735 3 
17736 1 
17743 1 
17744 3 
17745 1 
18406 1 
18407 3 
18408 1 
18412 1 
18413 3 
18414 1 
18451 1 
18452 3 
18453 1 
18523 1 
18524 3 
18525 1 
18538 1 
18539 3 
18540 1 
18586 1 
18587 3 
18588 1 
18634 1 
18635 3 
18636 1 
18697 1 
18698 3 
18699 1 
18775 1 
18776 3 
18777 1 
18823 1 
18824 3 
18825 1 
18895 1 
18896 3 
18897 1 
19669 1 
19670 2 
19671 1 
19714 1 
19715 2 
19716 1 
19723 1 
19724 3 
19725 1 
19777 1 
19778 3 
19779 1 
19792 1 
19793 3 
19794 1 
19852 1 
19853 3 
19854 1 
19906 1 
19907 3 
19908 1 
20674 1 
20675 3 
20676 1 
20680 1 
20681 3 
20682 1 
20695 1 
20696 3 
20697 1 
20755 1 
20756 3 
20757 1 
20803 1 
20804 3 
20805 1 
20929 1 
20930 3 
20931 1 
20932 1 
20933 3 
20934 1 
20974 1 
20975 3 
20976 1 
541 1 
542 3 
543 1 
544 1 
545 3 
546 1 
616 1 
617 3 
618 1 
685 1 
686 2 
687 1 
721 1 
722 2 
723 1 
739 1 
740 3 
741 1 
841 1 
842 3 
843 1 
907 1 
908 3 
909 1 
1048 1 
1049 3 
1050 1 
1696 1 
1697 3 
1698 1 
1747 1 
1748 3 
1749 1 
1756 1 
1757 3 
1758 1 
1807 1 
1808 3 
1809 1 
1861 1 
1862 3 
1863 1 
1873 1 
1874 3 
1875 1 
1888 1 
1889 2 
1890 1 
1948 1 
1949 3 
1950 1 
1981 1 
1982 3 
1983 1 
1984 1 
1985 3 
1986 1 
1999 1 
2000 2 
2001 1 
2068 1 
2069 3 
2070 1 
2107 1 
2108 3 
2109 1 
2182 1 
2183 3 
2184 1 
2188 1 
2189 3 
2190 1 
2647 1 
2648 3 
2649 1 
2830 1 
2831 3 
2832 1 
2848 1 
2849 3 
2850 1 
2893 1 
2894 3 
2895 1 
2905 1 
2906 3 
2907 1 
2944 1 
2945 3 
2946 1 
2947 1 
2948 2 
2949 1 
2956 1 
2957 3 
2958 1 
3067 1 
3068 3 
3069 1 
3076 1 
3077 2 
3078 1 
3121 1 
3122 3 
3123 1 
3127 1 
3128 3 
3129 1 
3142 1 
3143 3 
3144 1 
3796 1 
3797 3 
3798 1 
3799 1 
3800 3 
3801 1 
3808 1 
3809 3 
3810 1 
3865 1 
3866 3 
3867 1 
3907 1 
3908 3 
3909 1 
3910 1 
3911 3 
3912 1 
3964 1 
3965 3 
3966 1 
3979 1 
3980 2 
3981 1 
3985 1 
3986 3 
3987 1 
4165 1 
4166 3 
4167 1 
4207 1 
4208 3 
4209 1 
4213 1 
4214 3 
4215 1 
4228 1 
4229 3 
4230 1 
4270 1 
4271 3 
4272 1 
5056 1 
5057 3 
5058 1 
5068 1 
5069 3 
5070 1 
5113 1 
5114 3 
5115 1 
5350 1 
5351 3 
5352 1 
5368 1 
5369 3 
5370 1 
6088 1 
6089 3 
6090 1 
6127 1 
6128 2 
6129 1 
6259 1 
6260 2 
6261 1 
6268 1 
6269 3 
6270 1 
6499 1 
6500 3 
6501 1 
6502 1 
6503 3 
6504 1 
6550 1 
6551 3 
6552 1 
6565 1 
6566 3 
6567 1 
6613 1 
6614 3 
6615 1 
7381 1 
7382 3 
7383 1 
7507 1 
7508 3 
7509 1 
7510 1 
7511 2 
7512 1 
7522 1 
7523 3 
7524 1 
7624 1 
7625 3 
7626 1 
7627 1 
7628 3 
7629 1 
7633 1 
7634 3 
7635 1 
7648 1 
7649 3 
7650 1 
7681 1 
7682 3 
7683 1 
7687 1 
7688 3 
7689 1 
7708 1 
7709 2 
7710 1 
8341 1 
8342 3 
8343 1 
8368 1 
8369 3 
8370 1 
8530 1 
8531 3 
8532 1 
8773 1 
8774 3 
8775 1 
8776 1 
8777 3 
8778 1 
8782 1 
8783 3 
8784 1 
8830 1 
8831 3 
8832 1 
9442 1 
9443 3 
9444 1 
9445 1 
9446 3 
9447 1 
9547 1 
9548 3 
9549 1 
9553 1 
9554 3 
9555 1 
9562 1 
9563 3 
9564 1 
9616 1 
9617 2 
9618 1 
9622 1 
9623 3 
9624 1 
9673 1 
9674 3 
9675 1 
9727 1 
9728 3 
9729 1 
9805 1 
9806 3 
9807 1 
9856 1 
9857 3 
9858 1 
10579 1 
10580 2 
10581 1 
10639 1 
10640 3 
10641 1 
10681 1 
10682 3 
10683 1 
10684 1 
10685 3 
10686 1 
10702 1 
10703 3 
10704 1 
10873 1 
10874 3 
10875 1 
10888 1 
10889 3 
10890 1 
10921 1 
10922 3 
10923 1 
11641 1 
11642 3 
11643 1 
11647 1 
11648 3 
11649 1 
11653 1 
11654 3 
11655 1 
11713 1 
11714 3 
11715 1 
11725 1 
11726 3 
11727 1 
11848 1 
11849 3 
11850 1 
11890 1 
11891 3 
11892 1 
11893 1 
11894 3 
11895 1 
11941 1 
11942 2 
11943 1 
12010 1 
12011 3 
12012 1 
12013 1 
12014 3 
12015 1 
12667 1 
12668 3 
12669 1 
12724 1 
12725 3 
12726 1 
12781 1 
12782 3 
12783 1 
12793 1 
12794 3 
12795 1 
12796 1 
12797 3 
12798 1 
12979 1 
12980 3 
12981 1 
13048 1 
13049 3 
13050 1 
13090 1 
13091 3 
13092 1 
13102 1 
13103 3 
13104 1 
13105 1 
13106 3 
13107 1 
13624 1 
13625 3 
13626 1 
13765 1 
13766 3 
13767 1 
13768 1 
13769 3 
13770 1 
13819 1 
13820 3 
13821 1 
13927 1 
13928 3 
13929 1 
13999 1 
14000 3 
14001 1 
14002 1 
14003 2 
14004 1 
14713 1 
14714 3 
14715 1 
14770 1 
14771 3 
14772 1 
14821 1 
14822 3 
14823 1 
14824 1 
14825 3 
14826 1 
15022 1 
15023 3 
15024 1 
15073 1 
15074 3 
15075 1 
15079 1 
15080 3 
15081 1 
15196 1 
15197 3 
15198 1 
15253 1 
15254 3 
15255 1 
15787 1 
15788 2 
15789 1 
15808 1 
15809 2 
15810 1 
15850 1 
15851 3 
15852 1 
15859 1 
15860 2 
15861 1 
15904 1 
15905 3 
15906 1 
16108 1 
16109 3 
16110 1 
16162 1 
16163 2 
16164 1 
16267 1 
16268 3 
16269 1 
16987 1 
16988 3 
16989 1 
17059 1 
17060 3 
17061 1 
17953 1 
17954 2 
17955 1 
17956 1 
17957 3 
17958 1 
17959 1 
17960 3 
17961 1 
18028 1 
18029 3 
18030 1 
18079 1 
18080 3 
18081 1 
18136 1 
18137 3 
18138 1 
18142 1 
18143 3 
18144 1 
18970 1 
18971 3 
18972 1 
19021 1 
19022 3 
19023 1 
19036 1 
19037 3 
19038 1 
19039 1 
19040 2 
19041 1 
19105 1 
19106 2 
19107 1 
19219 1 
19220 3 
19221 1 
19267 1 
19268 3 
19269 1 
19270 1 
19271 3 
19272 1 
19330 1 
19331 3 
19332 1 
19339 1 
19340 3 
19341 1 
19381 1 
19382 3 
19383 1 
19396 1 
19397 3 
19398 1 
19405 1 
19406 3 
19407 1 
20008 1 
20009 3 
20010 1 
20041 1 
20042 3 
20043 1 
20107 1 
20108 3 
20109 1 
20182 1 
20183 3 
20184 1 
20230 1 
20231 3 
20232 1 
20413 1 
20414 3 
20415 1 
20416 1 
20417 3 
20418 1 
20470 1 
20471 3 
20472 1 
21061 1 
21062 3 
21063 1 
21076 1 
21077 3 
21078 1 
21127 1 
21128 3 
21129 1 
21148 1 
21149 2 
21150 1 
21247 1 
21248 3 
21249 1 
21301 1 
21302 3 
21303 1 
21376 1 
21377 3 
21378 1 
21385 1 
21386 2 
21387 1 
21481 1 
21482 3 
21483 1 
21553 1 
21554 3 
21555 1 
21568 1 
21569 3 
21570 1 
589 1 
590 3 
591 1 
691 1 
692 3 
693 1 
697 1 
698 3 
699 1 
880 1 
881 3 
882 1 
895 1 
896 3 
897 1 
1135 1 
1136 3 
1137 1 
1711 1 
1712 3 
1713 1 
1918 1 
1919 3 
1920 1 
1963 1 
1964 3 
1965 1 
2014 1 
2015 3 
2016 1 
2029 1 
2030 3 
2031 1 
2131 1 
2132 3 
2133 1 
2149 1 
2150 3 
2151 1 
2155 1 
2156 3 
2157 1 
2191 1 
2192 3 
2193 1 
2200 1 
2201 3 
2202 1 
2683 1 
2684 3 
2685 1 
2698 1 
2699 3 
2700 1 
2740 1 
2741 3 
2742 1 
2998 1 
2999 3 
3000 1 
3052 1 
3053 3 
3054 1 
3094 1 
3095 3 
3096 1 
3811 1 
3812 3 
3813 1 
3874 1 
3875 3 
3876 1 
3883 1 
3884 3 
3885 1 
4072 1 
4073 2 
4074 1 
4075 1 
4076 3 
4077 1 
4180 1 
4181 3 
4182 1 
4183 1 
4184 3 
4185 1 
4192 1 
4193 3 
4194 1 
4978 1 
4979 3 
4980 1 
5035 1 
5036 3 
5037 1 
5071 1 
5072 3 
5073 1 
5074 1 
5075 3 
5076 1 
5092 1 
5093 2 
5094 1 
5392 1 
5393 3 
5394 1 
5455 1 
5456 3 
5457 1 
6091 1 
6092 3 
6093 1 
6112 1 
6113 2 
6114 1 
6220 1 
6221 3 
6222 1 
6286 1 
6287 3 
6288 1 
6478 1 
6479 3 
6480 1 
6526 1 
6527 3 
6528 1 
6649 1 
6650 2 
6651 1 
7312 1 
7313 3 
7314 1 
7372 1 
7373 2 
7374 1 
7474 1 
7475 3 
7476 1 
7603 1 
7604 3 
7605 1 
7615 1 
7616 3 
7617 1 
7660 1 
7661 3 
7662 1 
7717 1 
7718 3 
7719 1 
7720 1 
7721 3 
7722 1 
8455 1 
8456 3 
8457 1 
8512 1 
8513 3 
8514 1 
8686 1 
8687 3 
8688 1 
8689 1 
8690 2 
8691 1 
8797 1 
8798 3 
8799 1 
9394 1 
9395 3 
9396 1 
9463 1 
9464 2 
9465 1 
9469 1 
9470 3 
9471 1 
9511 1 
9512 3 
9513 1 
9532 1 
9533 3 
9534 1 
9538 1 
9539 2 
9540 1 
9583 1 
9584 3 
9585 1 
10651 1 
10652 3 
10653 1 
10711 1 
10712 3 
10713 1 
10714 1 
10715 3 
10716 1 
10723 1 
10724 3 
10725 1 
10729 1 
10730 3 
10731 1 
10732 1 
10733 3 
10734 1 
10777 1 
10778 3 
10779 1 
10783 1 
10784 3 
10785 1 
10849 1 
10850 3 
10851 1 
10852 1 
10853 3 
10854 1 
10858 1 
10859 3 
10860 1 
10906 1 
10907 3 
10908 1 
11035 1 
11036 3 
11037 1 
11098 1 
11099 3 
11100 1 
11572 1 
11573 3 
11574 1 
11611 1 
11612 3 
11613 1 
11614 1 
11615 3 
11616 1 
11617 1 
11618 3 
11619 1 
11629 1 
11630 3 
11631 1 
11677 1 
11678 3 
11679 1 
11731 1 
11732 3 
11733 1 
11734 1 
11735 3 
11736 1 
11740 1 
11741 3 
11742 1 
11812 1 
11813 3 
11814 1 
11866 1 
11867 3 
11868 1 
11980 1 
11981 3 
11982 1 
11986 1 
11987 3 
11988 1 
11992 1 
11993 3 
11994 1 
12043 1 
12044 3 
12045 1 
12691 1 
12692 3 
12693 1 
12757 1 
12758 3 
12759 1 
12811 1 
12812 3 
12813 1 
12823 1 
12824 3 
12825 1 
12886 1 
12887 3 
12888 1 
12889 1 
12890 3 
12891 1 
12940 1 
12941 3 
12942 1 
13054 1 
13055 3 
13056 1 
13075 1 
13076 3 
13077 1 
13894 1 
13895 3 
13896 1 
13918 1 
13919 3 
13920 1 
14023 1 
14024 3 
14025 1 
14035 1 
14036 3 
14037 1 
14074 1 
14075 3 
14076 1 
14131 1 
14132 3 
14133 1 
14143 1 
14144 3 
14145 1 
14146 1 
14147 3 
14148 1 
14743 1 
14744 3 
14745 1 
14872 1 
14873 3 
14874 1 
14986 1 
14987 3 
14988 1 
15055 1 
15056 3 
15057 1 
15109 1 
15110 3 
15111 1 
15172 1 
15173 3 
15174 1 
15226 1 
15227 3 
15228 1 
15814 1 
15815 3 
15816 1 
15934 1 
15935 3 
15936 1 
16057 1 
16058 3 
16059 1 
16066 1 
16067 3 
16068 1 
16075 1 
16076 3 
16077 1 
16120 1 
16121 3 
16122 1 
16129 1 
16130 3 
16131 1 
16135 1 
16136 3 
16137 1 
17077 1 
17078 2 
17079 1 
17092 1 
17093 3 
17094 1 
17266 1 
17267 3 
17268 1 
17269 1 
17270 3 
17271 1 
17911 1 
17912 3 
17913 1 
17986 1 
17987 3 
17988 1 
18109 1 
18110 3 
18111 1 
18112 1 
18113 3 
18114 1 
18334 1 
18335 3 
18336 1 
19132 1 
19133 3 
19134 1 
19246 1 
19247 3 
19248 1 
19258 1 
19259 3 
19260 1 
19306 1 
19307 3 
19308 1 
19354 1 
19355 3 
19356 1 
19957 1 
19958 3 
19959 1 
20032 1 
20033 3 
20034 1 
20131 1 
20132 2 
20133 1 
20155 1 
20156 3 
20157 1 
20212 1 
20213 3 
20214 1 
20278 1 
20279 3 
20280 1 
20332 1 
20333 3 
20334 1 
20377 1 
20378 3 
20379 1 
20398 1 
20399 3 
20400 1 
20458 1 
20459 3 
20460 1 
20491 1 
20492 3 
20493 1 
21106 1 
21107 3 
21108 1 
21226 1 
21227 3 
21228 1 
21229 1 
21230 3 
21231 1 
21235 1 
21236 3 
21237 1 
21238 1 
21239 3 
21240 1 
21292 1 
21293 3 
21294 1 
21334 1 
21335 3 
21336 1 
21337 1 
21338 2 
21339 1 
21523 1 
21524 3 
21525 1 
21595 1 
21596 3 
21597 1 
