ITEM: TIMESTEP
0
ITEM: NUMBER OF ATOMS
507
ITEM: BOX BOUNDS pp pp pp
0.0000000000000000e+00 5.0000000000000000e+01
0.0000000000000000e+00 5.0000000000000000e+01
0.0000000000000000e+00 5.0000000000000000e+01
ITEM: ATOMS id type 
1336 1 
1337 2 
1338 1 
1621 1 
1622 2 
1623 1 
1624 1 
1625 2 
1626 1 
1630 1 
1631 2 
1632 1 
3316 1 
3317 2 
3318 1 
4561 1 
4562 2 
4563 1 
5485 1 
5486 2 
5487 1 
5653 1 
5654 2 
5655 1 
6928 1 
6929 2 
6930 1 
7204 1 
7205 2 
7206 1 
7756 1 
7757 2 
7758 1 
7888 1 
7889 2 
7890 1 
9199 1 
9200 2 
9201 1 
9316 1 
9317 2 
9318 1 
10096 1 
10097 2 
10098 1 
10381 1 
10382 2 
10383 1 
11350 1 
11351 2 
11352 1 
11353 1 
11354 2 
11355 1 
12553 1 
12554 2 
12555 1 
13162 1 
13163 2 
13164 1 
14344 1 
14345 2 
14346 1 
14353 1 
14354 2 
14355 1 
15673 1 
15674 2 
15675 1 
15721 1 
15722 2 
15723 1 
17299 1 
17300 2 
17301 1 
17419 1 
17420 2 
17421 1 
17521 1 
17522 2 
17523 1 
17524 1 
17525 2 
17526 1 
17527 1 
17528 3 
17529 1 
17656 1 
17657 2 
17658 1 
18445 1 
18446 2 
18447 1 
19450 1 
19451 3 
19452 1 
19627 1 
19628 2 
19629 1 
19822 1 
19823 2 
19824 1 
20782 1 
20783 2 
20784 1 
1255 1 
1256 2 
1257 1 
2371 1 
2372 3 
2373 1 
2629 1 
2630 2 
2631 1 
3583 1 
3584 3 
3585 1 
4495 1 
4496 2 
4497 1 
4657 1 
4658 2 
4659 1 
4909 1 
4910 2 
4911 1 
5491 1 
5492 2 
5493 1 
5674 1 
5675 2 
5676 1 
5689 1 
5690 2 
5691 1 
5914 1 
5915 2 
5916 1 
6049 1 
6050 2 
6051 1 
6760 1 
6761 2 
6762 1 
6811 1 
6812 3 
6813 1 
6871 1 
6872 2 
6873 1 
7120 1 
7121 2 
7122 1 
8086 1 
8087 2 
8088 1 
8215 1 
8216 2 
8217 1 
8263 1 
8264 2 
8265 1 
8314 1 
8315 2 
8316 1 
8923 1 
8924 2 
8925 1 
10417 1 
10418 2 
10419 1 
10471 1 
10472 2 
10473 1 
10558 1 
10559 2 
10560 1 
11254 1 
11255 2 
11256 1 
12112 1 
12113 3 
12114 1 
12277 1 
12278 2 
12279 1 
12472 1 
12473 2 
12474 1 
12532 1 
12533 2 
12534 1 
12646 1 
12647 2 
12648 1 
13189 1 
13190 2 
13191 1 
13249 1 
13250 2 
13251 1 
14455 1 
14456 2 
14457 1 
14500 1 
14501 2 
14502 1 
15331 1 
15332 2 
15333 1 
15463 1 
15464 2 
15465 1 
15703 1 
15704 2 
15705 1 
16531 1 
16532 2 
16533 1 
16606 1 
16607 2 
16608 1 
17629 1 
17630 2 
17631 1 
18529 1 
18530 2 
18531 1 
18763 1 
18764 2 
18765 1 
18820 1 
18821 2 
18822 1 
18889 1 
18890 3 
18891 1 
20683 1 
20684 3 
20685 1 
21031 1 
21032 2 
21033 1 
1810 1 
1811 2 
1812 1 
1867 1 
1868 2 
1869 1 
1924 1 
1925 2 
1926 1 
2005 1 
2006 2 
2007 1 
2845 1 
2846 2 
2847 1 
3016 1 
3017 2 
3018 1 
4096 1 
4097 2 
4098 1 
5167 1 
5168 2 
5169 1 
5188 1 
5189 2 
5190 1 
5221 1 
5222 2 
5223 1 
6421 1 
6422 2 
6423 1 
6430 1 
6431 2 
6432 1 
6505 1 
6506 2 
6507 1 
7324 1 
7325 2 
7326 1 
8584 1 
8585 2 
8586 1 
9382 1 
9383 2 
9384 1 
10747 1 
10748 2 
10749 1 
10753 1 
10754 2 
10755 1 
11545 1 
11546 3 
11547 1 
11761 1 
11762 2 
11763 1 
11776 1 
11777 2 
11778 1 
12682 1 
12683 2 
12684 1 
12802 1 
12803 3 
12804 1 
12808 1 
12809 2 
12810 1 
12856 1 
12857 2 
12858 1 
12901 1 
12902 2 
12903 1 
12976 1 
12977 2 
12978 1 
13804 1 
13805 2 
13806 1 
14782 1 
14783 2 
14784 1 
15799 1 
15800 2 
15801 1 
15982 1 
15983 2 
15984 1 
16141 1 
16142 2 
16143 1 
18064 1 
18065 2 
18066 1 
18088 1 
18089 2 
18090 1 
18265 1 
18266 2 
18267 1 
18310 1 
18311 2 
18312 1 
19288 1 
19289 2 
19290 1 
20059 1 
20060 2 
20061 1 
20356 1 
20357 2 
20358 1 
20428 1 
20429 2 
20430 1 
20488 1 
20489 2 
20490 1 
757 1 
758 2 
759 1 
877 1 
878 2 
879 1 
940 1 
941 2 
942 1 
949 1 
950 2 
951 1 
1831 1 
1832 2 
1833 1 
2197 1 
2198 2 
2199 1 
2878 1 
2879 2 
2880 1 
3943 1 
3944 2 
3945 1 
4132 1 
4133 2 
4134 1 
4174 1 
4175 2 
4176 1 
4309 1 
4310 2 
4311 1 
5083 1 
5084 2 
5085 1 
6514 1 
6515 2 
6516 1 
7594 1 
7595 2 
7596 1 
7738 1 
7739 2 
7740 1 
9535 1 
9536 2 
9537 1 
9754 1 
9755 2 
9756 1 
10657 1 
10658 2 
10659 1 
10663 1 
10664 2 
10665 1 
11563 1 
11564 2 
11565 1 
11797 1 
11798 2 
11799 1 
11920 1 
11921 2 
11922 1 
11926 1 
11927 2 
11928 1 
13132 1 
13133 2 
13134 1 
13834 1 
13835 2 
13836 1 
13909 1 
13910 2 
13911 1 
13969 1 
13970 2 
13971 1 
15058 1 
15059 2 
15060 1 
15832 1 
15833 2 
15834 1 
16792 1 
16793 2 
16794 1 
16834 1 
16835 2 
16836 1 
17095 1 
17096 2 
17097 1 
17146 1 
17147 2 
17148 1 
17875 1 
17876 2 
17877 1 
19069 1 
19070 2 
19071 1 
19177 1 
19178 2 
19179 1 
19231 1 
19232 2 
19233 1 
19291 1 
19292 2 
19293 1 
19423 1 
19424 2 
19425 1 
20083 1 
20084 2 
20085 1 
20134 1 
20135 2 
20136 1 
21118 1 
21119 2 
21120 1 
21169 1 
21170 2 
21171 1 
21178 1 
21179 2 
21180 1 
21280 1 
21281 2 
21282 1 
21358 1 
21359 2 
21360 1 
21520 1 
21521 2 
21522 1 
