ITEM: TIMESTEP
35000000
ITEM: NUMBER OF ATOMS
1461
ITEM: BOX BOUNDS pp pp pp
0.0000000000000000e+00 5.0000000000000000e+01
0.0000000000000000e+00 5.0000000000000000e+01
0.0000000000000000e+00 5.0000000000000000e+01
ITEM: ATOMS id type vx vy vz 
1004 3 0.486127 -2.92064 -5.09179 
7152 1 -3.67315 -7.77976 -2.46985 
1005 1 -5.00389 0.453231 -4.02308 
15804 1 -1.94314 -2.26898 -5.32943 
15802 1 3.21568 -2.94547 2.71861 
15803 2 3.29167 3.05914 -2.01998 
14979 1 2.82509 0.701284 0.068527 
7150 1 -1.7646 -1.96438 -4.79105 
7151 2 -0.506142 2.90469 3.89306 
9078 1 -3.88535 -0.216273 4.67411 
9077 2 3.24412 1.50027 0.520796 
17254 1 1.31536 4.01161 1.37941 
9076 1 3.55067 -0.403727 1.38053 
17255 3 -1.92411 -1.80644 -2.28129 
17256 1 0.990157 7.14331 -1.32381 
13714 1 3.81171 -6.1978 -0.962544 
13715 2 -0.542754 0.84054 -3.04636 
1686 1 -1.87095 -2.46376 1.43457 
13716 1 -2.95762 -0.537481 6.39668 
15514 1 -3.72952 1.66072 -6.31441 
15515 3 -0.861066 -0.300985 0.0438547 
9591 1 -4.57998 -4.40116 -4.69826 
4929 1 -0.378087 -4.05879 1.13166 
9920 2 0.713367 3.06973 -2.67154 
9919 1 0.353181 3.24602 -1.56876 
9921 1 -0.834866 3.28041 -0.510781 
15516 1 -2.22595 6.13862 0.00914936 
1129 1 -7.05307 -3.5831 -6.45331 
1130 3 1.13799 3.99574 -1.40573 
17443 1 -4.67946 3.66007 0.584822 
1131 1 -3.57801 1.94472 0.00911482 
14326 1 0.227073 3.98488 -0.346514 
14327 3 -0.978106 -0.493686 0.768339 
9589 1 -6.57235 -6.92995 0.325712 
1003 1 4.39994 0.740537 -0.143784 
13410 1 -1.8171 -0.148975 0.654221 
13409 2 -2.31575 2.58432 0.232765 
13408 1 4.74563 -3.0187 -0.117676 
241 1 1.10257 -3.44052 1.91317 
9499 1 -1.99662 4.94263 3.79089 
9590 2 -0.231808 -0.315611 -3.31958 
11906 2 1.25553 -1.45435 -1.23031 
242 2 0.790927 1.10078 -1.0266 
243 1 4.4461 -0.129979 3.72348 
13885 1 -7.74568 1.56609 -1.30782 
13886 2 -3.61326 -0.447436 0.35795 
13887 1 2.03633 -4.90377 4.9149 
9025 1 2.41444 -2.10061 3.63358 
11907 1 7.13256 0.932249 5.06528 
17444 2 1.31759 0.458034 0.633379 
9026 2 -2.60081 0.703992 -4.14206 
17445 1 2.77688 2.24947 2.5356 
9027 1 4.14049 -3.07897 10.0866 
12916 1 -6.39138 1.10187 -2.03697 
12917 2 -0.988886 0.0935786 -0.920572 
193 1 2.08025 -0.783499 -0.188024 
194 2 -2.11638 2.05375 3.15154 
9214 1 -2.65219 4.03146 0.726341 
195 1 1.37455 -3.6172 -5.86681 
9216 1 1.5394 -1.337 0.979212 
9215 2 4.98105 0.716825 2.05236 
5850 1 3.9227 -3.52329 1.84099 
11905 1 -1.5871 -2.20069 -0.31949 
14977 1 -4.27069 5.68002 1.66353 
14978 2 3.27256 -0.721515 -3.27873 
9052 1 -3.67327 -0.721935 -0.525683 
5870 2 5.86889 1.81761 3.14809 
5871 1 2.36942 3.26476 -1.53073 
12918 1 -2.23483 -5.4715 -4.68812 
7050 1 -1.21162 -2.00943 0.00441254 
7048 1 -1.24091 -1.66313 1.1721 
7049 2 -2.56376 -0.269849 1.76961 
2076 1 -1.9823 2.32457 -2.36025 
4939 1 -4.31558 2.60163 2.55684 
6708 1 5.91061 3.85452 0.664458 
9595 1 0.358349 4.86945 2.15032 
9597 1 -0.518641 0.472036 -0.775308 
9596 2 0.749163 2.63726 0.195208 
8020 1 1.24302 -4.21433 3.24635 
8021 2 -2.45769 -3.0164 -3.47107 
9287 2 1.37778 0.907017 2.93287 
9054 1 1.88667 1.33068 -1.66663 
9053 2 0.536625 -0.687705 0.631225 
9288 1 -0.115048 6.65809 1.91883 
9286 1 4.66181 -1.97221 -6.72128 
15241 1 -4.4091 3.62801 -7.81399 
13557 1 3.40517 -7.69792 2.97206 
14976 1 9.0279 2.50067 -1.77769 
14975 3 2.34449 -0.505299 -0.503924 
14974 1 -5.49414 -0.75305 -2.30417 
2971 1 2.66607 -2.66514 -1.718 
1417 1 5.00966 5.2877 1.6601 
2973 1 -1.80714 -2.33857 -1.54485 
2972 2 -3.23875 0.464128 3.97517 
3623 2 -1.0758 -0.492296 1.54634 
20281 1 -0.0815626 -0.314787 -0.80701 
20282 3 -1.56422 1.85596 -3.9203 
20283 1 7.12515 1.71315 -0.098877 
10178 2 -0.526719 0.649625 3.39268 
19533 1 -0.670631 6.02624 -1.09471 
19532 2 -1.61249 -0.35678 -0.295276 
10177 1 1.92373 1.33097 1.14946 
1685 2 2.92235 3.97169 -1.69807 
2668 1 2.93858 1.4132 -1.05576 
1684 1 -0.52777 0.138289 1.60111 
2669 2 -3.07774 1.12086 0.466992 
2670 1 -1.88344 0.408791 -1.23811 
13422 1 -2.78037 -0.220855 -5.35885 
15006 1 2.99246 0.513998 0.778334 
3624 1 4.62202 1.62792 -2.40214 
13420 1 3.92623 -1.19593 0.841577 
13421 2 3.22468 2.43053 -2.77151 
16967 2 0.524075 2.628 3.53509 
16968 1 -3.07181 0.739866 -0.438032 
15096 1 4.90248 6.60068 0.923872 
3622 1 -2.60577 -0.650814 1.31794 
15094 1 0.0106068 4.24342 -6.88883 
15095 3 1.02255 1.47746 3.96922 
654 1 2.49772 3.39415 0.856994 
652 1 -4.79224 2.56978 -1.57802 
653 2 2.59926 -0.0392484 -2.26108 
18876 1 -3.00669 0.277478 -1.01426 
20718 1 -5.39149 0.673647 1.35009 
20716 1 -5.00675 11.1604 0.38577 
20717 2 0.957208 0.297574 2.06707 
15743 2 1.74928 3.30958 -0.446874 
4927 1 -0.0334805 -0.319242 1.19362 
15744 1 2.81494 -6.63613 -5.42643 
9274 1 -1.91025 -1.63663 3.61077 
19592 2 -2.50077 2.96884 2.13646 
4928 2 2.6129 -0.426438 -0.466238 
5670 1 -4.92355 0.159258 -3.24585 
19591 1 3.42931 -0.00639554 2.05761 
19593 1 -2.06963 2.90106 -4.31475 
8810 2 2.1789 -2.05928 -0.557621 
5669 2 -1.81129 -1.49556 0.942511 
15742 1 -5.20456 -0.800128 2.47589 
9802 1 8.83784 -0.790754 0.908999 
10179 1 -0.386814 -0.59896 -0.732634 
9803 2 -0.514268 0.947057 2.4559 
9804 1 1.38445 -2.68939 0.211978 
19531 1 2.19923 0.748109 1.42112 
14233 1 -2.41491 -2.17341 2.38022 
14234 2 2.34725 1.04905 -0.489397 
8811 1 -2.34408 8.6441 2.11564 
14235 1 -1.55712 1.38738 -0.409114 
15005 2 -0.737735 -0.592458 -1.5792 
18042 1 -3.43616 2.28824 -1.89262 
15004 1 -2.84805 0.774047 3.31791 
16767 1 0.0029487 -2.60124 -2.02075 
16966 1 3.48921 0.188256 -4.25164 
14328 1 8.37989 -0.697612 4.83018 
18041 2 1.49033 -1.69234 0.382384 
18040 1 1.04595 -1.10572 4.10382 
19090 1 -8.42078 1.57031 -0.825383 
19091 3 -2.0004 -4.40185 3.45874 
19092 1 -1.7375 2.35019 -1.50827 
14123 2 -5.87518 1.08064 2.67662 
14124 1 8.65338 -3.44479 -3.14101 
8809 1 2.90239 -1.34841 3.35764 
20791 1 -1.72573 -2.9981 0.748167 
9500 2 3.04626 0.453322 -0.656962 
1152 1 0.84401 -3.23494 -1.54204 
9501 1 1.89083 -2.07685 -2.62565 
4035 1 -1.88981 -0.254492 2.30867 
4034 2 -0.0315913 -0.139109 -2.9571 
10589 2 5.10395 0.40123 1.84174 
10590 1 5.60512 2.70701 0.757582 
10588 1 2.49454 -0.0516192 0.699523 
7585 1 -7.13113 1.71679 -5.56242 
1151 2 -1.12892 -3.85784 -3.29204 
1150 1 -3.27264 -3.33799 -2.08592 
9187 1 8.37633 -1.86481 -1.28469 
9188 2 4.16478 0.197499 -0.991015 
9189 1 -0.188155 1.08637 1.87077 
15402 1 -3.00001 5.32316 -4.02579 
16766 2 1.29827 -3.69314 0.988289 
16765 1 0.188569 -1.28801 -3.89298 
18285 1 -1.07615 -5.90363 -2.86074 
18284 2 6.3437 0.170642 0.364231 
18283 1 -2.65507 4.44171 0.555651 
9184 1 5.3595 4.93622 -3.07692 
7586 2 0.585144 -1.28988 -1.52743 
7587 1 -3.18304 -2.63577 0.919448 
19610 2 1.46268 1.45896 0.802329 
19609 1 4.63281 -2.79623 -3.68914 
21035 2 -2.91439 -0.34173 0.501369 
16698 1 1.3432 -1.03721 0.118855 
16697 3 1.18167 3.12118 -2.69093 
1575 1 -3.25718 3.41923 1.16758 
1574 2 3.37611 0.361829 -1.44412 
16696 1 0.254098 -3.44005 -7.2043 
15651 1 -2.40991 -5.02425 -2.00734 
15650 2 0.118217 -2.67646 0.82205 
3834 1 -5.08908 -1.13612 0.78355 
6448 1 -0.621679 2.84588 -0.208538 
6449 3 -1.74331 1.08976 -1.12196 
6450 1 -2.60999 0.978431 -7.74108 
14122 1 -0.66081 0.0828873 6.62816 
16509 1 5.15768 1.53625 0.519791 
6707 2 -0.305212 -3.5327 2.45858 
5261 2 2.70348 -0.487466 -7.19293 
20792 2 1.66273 -0.0150147 -0.412144 
6706 1 6.7624 -6.53054 4.70775 
5260 1 -3.22145 1.53953 3.6056 
20793 1 1.34311 0.276275 -4.11508 
5262 1 2.84709 4.9 -2.44548 
13125 1 -1.17523 4.28636 -1.17404 
5869 1 -0.257618 0.644328 4.52276 
5848 1 -2.44194 0.178698 1.65123 
4654 1 3.76521 -0.97365 -1.38409 
4655 2 3.14095 0.865506 0.545957 
6321 1 -0.576984 2.23314 4.44349 
5849 2 -1.41047 2.43111 -4.51422 
6320 2 1.65315 0.531428 3.1733 
6319 1 2.48046 1.3951 -1.74467 
1753 1 -1.03999 0.822599 -3.33172 
1755 1 2.78533 -0.737595 1.52099 
1754 2 2.74471 4.23575 -6.60839 
15401 2 0.792162 -2.76757 -2.83049 
15400 1 0.872951 -1.17491 -2.95218 
2075 2 -2.47628 3.31352 1.41847 
13302 1 -2.31971 -5.29863 0.811413 
13301 2 2.41912 -0.0339281 -1.29621 
21357 1 1.03879 3.57596 -6.49072 
13300 1 -4.37008 -1.41646 -3.91164 
9877 1 -0.0939869 0.000713291 0.359546 
1573 1 2.6912 2.17973 -1.83625 
9186 1 -1.82411 3.43726 0.281245 
9185 2 -0.371843 -2.9449 -4.89066 
4122 1 -4.77372 0.399094 4.47062 
4121 2 -3.19689 1.42687 -6.172 
2283 1 2.68259 3.76436 -3.91068 
4120 1 -0.0801948 3.07745 7.36721 
3832 1 2.38015 0.0837733 3.96386 
3833 2 -1.33625 0.795544 1.96786 
4940 2 -0.484417 -2.82343 2.70185 
2616 1 -0.480176 0.51408 1.91487 
4941 1 2.03727 2.74045 -7.18041 
2615 2 -1.04975 -2.09613 4.60487 
2614 1 5.12973 -2.18106 -2.04606 
1699 1 -1.43085 -7.4988 0.255282 
1700 2 1.90401 -0.500733 2.91789 
1701 1 0.903673 -3.97309 0.712946 
4656 1 3.70299 -5.66342 5.50627 
17091 1 6.96458 2.53323 -4.97786 
17090 2 3.41671 0.770672 -2.37388 
10377 1 -3.07278 3.0407 -2.28602 
10376 2 -0.419748 -2.2216 -1.44987 
2074 1 -6.95211 1.61317 1.18105 
10375 1 1.36253 5.83345 1.35144 
9879 1 3.57394 -0.152966 2.31293 
9878 2 -0.531332 -2.33973 -1.51271 
12526 1 0.677564 2.2479 -1.50397 
12527 2 2.4169 -3.20078 -1.26844 
5193 1 8.44049 10.0624 -1.855 
12528 1 8.24987 1.75617 0.489713 
15623 3 -1.1129 2.49355 2.94048 
15622 1 -1.19564 -1.68467 2.77472 
5192 2 -2.55817 -0.201757 2.03161 
5191 1 -2.83661 -1.50993 0.73793 
3370 1 -3.99528 -8.98485 0.668262 
3371 3 -4.86722 2.67921 -1.68445 
3372 1 0.479194 2.87105 -5.49107 
20316 1 -1.32533 -0.182437 6.53623 
17417 2 2.81025 0.660775 -4.70316 
17416 1 -5.15239 -2.58877 -2.07411 
5913 1 -2.75851 -4.84964 -1.86151 
3477 1 -6.06268 0.359894 -1.95221 
5911 1 0.423005 -1.94111 -1.15404 
5912 3 6.10037 -5.83502 -0.739942 
13555 1 0.483503 -3.75801 -0.491067 
13556 2 -2.0891 -1.43755 0.920331 
182 2 0.856194 6.13113 3.73149 
181 1 0.119573 -0.822851 3.71976 
17855 2 2.13709 1.41113 -1.91811 
17856 1 5.7699 -0.603042 -5.80691 
3793 1 -2.58952 0.791283 4.51342 
17854 1 -0.941805 -1.62153 -0.999469 
1419 1 1.65769 2.97009 -5.14029 
1418 3 -3.45263 -1.13071 1.52148 
7915 1 2.95234 -2.69558 -3.04807 
7916 2 2.60601 -0.505746 0.669226 
7917 1 5.19387 -0.662728 5.66319 
21361 1 2.44733 -0.345755 2.64969 
21362 2 1.02766 7.56701 0.417983 
21363 1 6.6566 -3.48541 0.349597 
11434 1 -4.47364 1.95857 1.26359 
11435 2 0.151239 -3.42508 -3.612 
11436 1 -4.4356 3.22831 2.17212 
17418 1 -4.30854 -0.931025 0.685708 
14057 2 4.09781 2.99858 -3.65728 
14058 1 -6.19314 0.642982 -3.02725 
9276 1 -0.336696 1.18061 -1.52876 
14056 1 -4.45564 -7.99271 3.06572 
15242 2 -1.90256 1.83829 -3.13411 
13799 2 -4.63702 0.797065 -5.91102 
13798 1 -1.15424 5.1258 7.93947 
13800 1 3.5112 3.51598 2.88039 
13012 1 0.929063 -4.68404 2.9945 
13013 2 2.57773 -1.78367 -1.90702 
6655 1 -2.23616 -2.11306 -2.40906 
6543 1 -2.96113 0.900149 -0.593947 
6542 2 0.560055 0.905927 -2.21252 
6541 1 5.13121 0.948561 -6.09557 
6657 1 2.04368 1.70518 7.00369 
8395 1 0.0873551 -6.47975 -1.04471 
6656 2 3.58196 1.35752 4.78587 
15199 1 0.933625 -3.71964 -1.70212 
15200 2 8.04797 2.15773 1.45155 
16182 1 3.0363 1.15215 -0.561533 
15201 1 -0.399768 0.252819 -0.489554 
8396 2 -0.513211 1.75993 0.74624 
19845 1 0.572547 4.69601 -3.13684 
16181 3 4.05523 -1.71598 0.882686 
19844 3 -1.07451 -1.90602 3.18 
19843 1 0.499602 0.94545 -3.31329 
16180 1 -2.51557 -0.418658 2.14097 
9275 2 3.33348 1.56762 -1.80064 
6878 2 1.47844 -2.01136 1.20878 
6879 1 -1.55213 -0.972953 1.58638 
3295 1 -2.51519 6.44695 -2.77678 
16253 2 1.17927 0.365415 -0.206051 
12115 1 -2.44734 -1.01252 -4.01773 
16252 1 -3.46605 -0.0595161 -2.36476 
12116 2 2.68862 0.494095 -0.790123 
5847 1 7.72694 2.03754 -0.569666 
6877 1 4.36252 3.84939 -2.31444 
11268 1 2.75787 -1.80918 2.53671 
11267 2 2.98102 1.70443 -4.00447 
3296 2 3.47642 -5.35149 4.17302 
12619 1 -1.14675 4.80034 -4.27013 
2236 1 1.16381 -7.53383 -1.62341 
2237 2 0.0673971 -0.320886 0.336334 
2238 1 -2.79526 3.20821 5.75936 
3297 1 -1.23248 5.60328 2.05336 
6683 2 -1.2517 0.955911 -2.18512 
7100 2 0.820311 1.38346 2.9539 
7099 1 5.50462 -0.217721 6.30352 
11266 1 0.521786 0.845069 -4.16867 
12951 1 -2.50397 9.71593 0.691098 
12620 2 0.97372 4.36603 -2.34656 
12621 1 3.58297 0.313873 -3.04586 
8427 1 2.66052 1.69563 -5.93913 
8426 2 0.748009 -1.78417 5.16149 
8425 1 -5.6716 2.39791 5.77086 
705 1 -5.45335 -5.78569 6.22759 
4500 1 2.10276 2.56453 10.875 
12949 1 -2.39252 -3.91049 -2.27673 
4499 2 -3.26368 3.69151 -0.0326593 
4498 1 -3.33628 -1.5975 0.691163 
12950 2 3.9546 3.02371 3.31907 
4023 1 4.92133 -6.03638 1.9133 
7419 1 5.19276 0.277871 -1.42211 
7418 2 0.317112 0.531235 2.76767 
7417 1 -0.265798 1.20165 -2.23677 
3859 1 1.71003 5.34764 -7.52681 
15555 1 -0.324123 -2.80396 -3.77105 
15554 2 0.756675 0.384032 -2.58409 
18875 3 -2.27467 -1.236 -1.41297 
18874 1 -4.2117 -1.89514 1.09925 
17992 1 -5.58312 -2.01957 -0.134383 
17993 2 -2.89301 0.859348 0.868543 
17994 1 -3.83037 -4.1019 -4.72612 
19116 1 4.56258 -0.876944 -2.73055 
4455 1 0.591392 3.65578 0.889214 
4454 2 -4.75064 0.540471 0.781582 
8463 1 -0.676281 3.41389 2.38474 
8462 2 1.17266 0.556672 0.574434 
8461 1 -0.452015 -7.02974 2.31511 
19115 2 3.06425 -4.3542 0.783637 
19114 1 -3.70772 -0.0715014 -0.242791 
4453 1 0.872701 -0.0790953 -5.16913 
18026 2 -1.31068 -1.16218 -2.89031 
5668 1 -1.50732 -6.07198 5.83889 
20440 1 -2.7475 -0.239909 -0.5239 
20441 2 -3.15852 -2.63234 2.04389 
21398 2 1.15406 2.05153 2.88149 
4033 1 -5.39052 3.05838 -1.28073 
4816 1 3.36276 -5.82687 6.65344 
21399 1 5.0778 -1.74711 2.63389 
18027 1 7.0034 -0.966721 0.0812021 
20442 1 2.24882 -4.02409 -5.16517 
18774 1 5.93715 -5.21182 -1.8704 
4019 2 3.10519 1.88245 1.60585 
10264 1 -1.54628 -1.26898 7.55865 
7101 1 -2.76593 0.280308 1.74651 
6684 1 4.19165 -3.36857 2.40765 
18773 2 0.0766727 -3.30269 2.40118 
18772 1 1.16586 -1.19354 2.25074 
9918 1 0.845065 -0.955739 1.17041 
9916 1 4.11768 0.603365 -4.61979 
13771 1 -9.9589 4.15482 -0.29375 
10265 2 -1.40339 4.44945 1.59083 
2065 1 -4.47951 2.84645 3.19544 
10266 1 1.38861 -0.594158 -0.726096 
4018 1 -1.6502 -0.0256273 -5.67848 
2066 2 -2.75179 0.69134 2.73857 
4093 1 2.5542 0.294712 -1.93006 
4094 2 0.587018 -0.706998 3.46936 
19611 1 -2.51793 2.56212 -0.151982 
4095 1 5.70417 -1.9359 4.68755 
2067 1 0.431356 -1.42184 5.99107 
21272 2 0.716422 3.62773 -1.62813 
21273 1 3.37824 1.19861 -7.47306 
20764 1 -2.51698 -1.34603 -3.80004 
21271 1 -8.51812 -2.21155 0.479512 
21036 1 1.79855 1.34735 0.934944 
155 2 -2.51837 2.45855 3.21624 
4022 2 -1.73325 -0.823177 2.98678 
4021 1 -1.06391 4.83271 2.37969 
20766 1 2.86555 2.18494 0.787655 
15649 1 -3.20883 -6.53654 -1.83276 
20765 2 -3.5332 0.301096 1.78692 
3492 1 0.153581 -5.48824 0.810198 
3491 2 -1.50365 2.34908 0.0707786 
12920 2 -4.01958 0.737388 -6.48455 
14533 1 2.10484 -1.46541 -1.56599 
12919 1 2.83119 0.282 -0.335991 
19811 2 -5.06992 2.37426 -1.94974 
19810 1 -1.60824 -6.96792 0.401112 
3490 1 -2.26381 -5.71137 3.47807 
19998 1 2.23207 2.25512 -8.38813 
19615 1 3.42088 4.893 2.87842 
19616 2 -1.38955 -2.70184 -2.41296 
12921 1 -0.314131 0.429577 -0.0585077 
19617 1 2.53599 -0.20455 2.4282 
19812 1 -5.06978 -1.18329 -4.41109 
19997 2 4.79773 -1.64824 -1.54046 
6940 1 -1.17882 0.903602 5.24902 
13124 2 -2.33553 -1.06104 -1.16808 
13123 1 3.4169 -1.67098 -0.13497 
8273 2 -6.08579 1.47314 -0.633181 
8274 1 -2.94783 -3.1241 2.58395 
4020 1 0.14118 -1.52543 1.7539 
11670 1 1.77014 -0.356049 -6.75835 
11669 2 -1.2563 -1.53582 0.0971233 
4817 2 7.44555 2.1101 -0.0391601 
4818 1 -0.0207729 1.85096 3.1141 
11668 1 -1.77437 -0.548328 -0.56329 
7513 1 -1.41127 1.68124 -0.415656 
7514 2 1.04663 -0.889763 -0.257558 
7515 1 -2.42801 2.62823 -1.36377 
13772 2 0.642887 -0.0429953 2.26017 
8680 1 -1.709 0.0674466 1.99372 
8999 2 0.12891 1.22219 -0.493143 
8998 1 0.558197 -7.29618 2.45105 
8681 2 1.55521 0.728712 -4.24689 
21034 1 3.04426 -0.408781 -4.24253 
21355 1 -1.91648 2.31294 8.62975 
9000 1 -0.98411 3.99642 -4.41089 
21356 2 -3.95998 3.04194 -3.35471 
17076 1 2.62382 0.125871 -1.59314 
17074 1 0.432793 3.26894 5.21279 
17075 2 2.63275 1.27111 1.07734 
11970 1 2.10267 0.232842 -8.45452 
11969 2 -4.9527 2.9832 -0.289175 
2282 2 -2.0433 2.87955 -3.18815 
8297 2 3.35703 3.41067 2.93709 
8296 1 4.56853 -4.4768 -0.145932 
8298 1 -4.57697 2.21629 1.83277 
2281 1 -3.26978 1.86692 7.88757 
9421 1 0.108065 3.90458 -0.864857 
9422 2 -0.0977602 -0.900613 1.7131 
9423 1 0.265247 -3.6656 -2.05533 
18630 1 -3.80496 -5.45085 3.58057 
2788 1 -0.785674 -0.768483 3.58567 
2789 2 0.645931 1.33843 0.231762 
19996 1 1.2183 -1.81055 -3.55034 
14397 1 -5.80899 -0.717301 -2.26878 
14396 2 1.06177 -1.13106 -1.31327 
14395 1 3.73638 -0.574107 -4.51026 
13297 1 -1.38968 -4.20895 -1.54051 
18033 1 -4.75514 2.41923 -0.961506 
16508 2 1.49077 1.00351 0.794348 
13299 1 5.78261 -1.58004 6.3503 
16507 1 -8.13995 3.12696 -5.71124 
13298 2 -0.0848568 2.67707 0.380598 
20476 1 0.849669 -1.80316 3.32037 
20477 2 2.89949 -3.3309 3.54738 
307 1 -0.437757 -5.48833 -1.75769 
308 2 -2.10081 0.395276 -0.319663 
309 1 6.50718 4.60868 6.44951 
8682 1 0.819626 1.02345 -1.16755 
17089 1 4.49852 2.4601 -2.52336 
20195 2 -3.95693 0.525928 0.824838 
6715 1 3.4049 -8.56653 -0.49018 
6716 2 0.668902 -0.894685 -2.87102 
6717 1 9.75601 -2.90675 1.90075 
20196 1 0.224979 -5.22782 3.28636 
3905 2 1.48795 -1.04101 3.65335 
3906 1 -1.69126 -2.34892 7.31658 
9365 2 0.106069 -3.96681 2.03946 
9366 1 -2.8679 3.48122 0.580145 
11968 1 2.24348 2.82207 -1.61028 
13507 1 -1.29581 2.22511 -1.92051 
13508 2 0.852891 2.12388 -0.139175 
13509 1 -2.81948 -0.637441 5.12336 
10597 1 -3.99498 -0.954464 -0.947989 
10598 2 -1.71168 1.65185 -6.63537 
10599 1 5.93295 -3.2005 6.11575 
1349 2 -3.02582 3.32789 -2.66205 
1348 1 2.43133 0.962766 -0.396865 
1350 1 3.19687 1.57765 -2.76611 
10295 3 4.35425 -2.07713 0.275538 
10296 1 2.85161 2.8136 4.26696 
12517 1 -5.09443 -0.260467 1.32938 
2863 1 3.97958 -3.06007 4.21888 
15624 1 -8.72135 -8.60329 3.25531 
9364 1 -3.26619 1.15245 -1.33689 
2864 2 -1.37482 1.41837 0.792987 
13411 1 0.197129 1.28595 -1.98645 
13413 1 3.52777 -3.17182 2.57286 
13412 2 1.57051 1.44673 -4.06152 
2865 1 2.10315 1.95889 1.2095 
4302 1 -3.05812 1.12285 1.52564 
8036 2 0.161691 2.61075 1.70194 
8035 1 0.804541 3.78439 10.3893 
4189 1 -2.13531 3.4962 -1.13265 
2835 1 -3.25163 -0.694436 -5.05279 
20990 2 2.91651 -1.03243 2.64091 
20991 1 -3.70248 -2.52323 1.52016 
4190 2 -0.177714 0.642125 -2.00593 
4191 1 0.861523 -2.73686 -2.57431 
20989 1 -3.85238 1.8664 -3.06139 
6031 1 3.37905 0.850042 1.58208 
6032 2 1.39023 -1.68766 -3.34243 
10294 1 -1.2709 3.0877 -1.9127 
18817 1 -1.82601 -0.162697 -5.42384 
18818 2 -2.95881 -1.07999 1.01673 
4300 1 2.03974 3.37766 -2.27998 
18819 1 -0.660975 0.582305 2.95824 
4301 2 -0.124538 3.45554 1.80875 
10140 1 2.43129 2.77093 1.48836 
10139 2 0.109985 5.12842 -2.23496 
3183 1 -1.15625 -3.85676 -4.84419 
183 1 1.13302 2.73762 -2.22691 
3182 2 1.31649 -3.41611 -4.61382 
1531 1 -2.86468 5.6213 1.13948 
3181 1 0.458932 -1.58612 -1.37487 
1532 2 -2.5511 1.12294 3.97743 
3795 1 0.864791 4.11486 -0.418839 
2445 1 1.0265 -2.46069 -0.249188 
2444 2 -1.44914 -3.11148 1.79407 
2443 1 -3.71049 -6.58613 -1.88638 
10219 1 4.02188 -3.36212 -1.76504 
2532 1 -0.209723 -1.38638 3.45609 
3794 2 0.407248 -0.213782 1.38168 
2098 1 -1.34991 -2.22112 -3.11176 
4638 1 -5.41921 1.76948 -9.47256 
3475 1 -4.18307 -1.8713 -2.75045 
3476 2 -3.05059 -2.56956 4.75048 
13962 1 -1.12311 3.08913 4.61063 
13961 2 1.28277 -1.14505 -4.42073 
2651 2 -0.84189 -2.87673 -0.46624 
2650 1 -3.0806 3.04666 1.26527 
13960 1 3.19301 3.80129 -1.8739 
5846 2 -3.12226 3.12836 -1.4992 
1077 1 1.29193 2.25302 -6.16284 
14026 1 -3.12053 2.21537 5.6375 
14027 2 -3.00365 2.02733 0.303723 
13014 1 3.43934 0.368401 2.26516 
16462 1 2.35082 1.15357 -4.1996 
2531 2 -0.284247 0.15424 -0.72905 
2530 1 -4.93109 2.67967 1.11608 
21423 1 -1.97257 1.23171 -4.34739 
21422 2 1.89308 0.0465345 1.24339 
21421 1 -1.33931 -3.21381 -1.28677 
7200 1 -1.23204 1.95372 3.65317 
1076 2 -2.02287 -0.356686 -3.62842 
1075 1 -0.0191987 2.99093 5.11247 
5883 1 3.49659 0.566892 3.7779 
5882 2 -2.52546 4.13294 -0.0164854 
5881 1 -4.53385 -8.53406 0.233141 
17805 1 -5.65277 5.79907 -5.26475 
16463 2 1.80409 -2.04136 -3.37677 
16464 1 -4.15919 2.39055 2.58346 
4637 2 -1.60502 1.37894 0.866632 
15914 2 0.964953 0.763473 1.26463 
15915 1 0.944875 -0.26975 3.89902 
4636 1 4.43726 0.839563 -2.89543 
5778 1 2.28719 0.831629 -1.46108 
19675 1 -0.87055 0.6707 4.46113 
5777 2 0.816248 -2.54813 2.4704 
259 1 -4.29283 -2.93943 4.52803 
5776 1 -2.39214 -5.48367 1.84332 
19676 2 -0.535455 -2.03764 1.14167 
8397 1 4.67659 2.58149 -1.88148 
15913 1 3.45264 0.135057 2.57319 
8385 1 4.34874 -3.40797 5.62202 
8384 2 -2.69438 1.73179 0.184836 
8383 1 1.53235 -2.85844 -0.183138 
17670 1 2.92086 5.21829 5.08744 
15630 1 0.259574 -1.05926 -0.136005 
15629 2 -1.37806 0.802937 -0.443269 
15628 1 5.91445 -2.21604 1.50063 
11235 1 3.34302 1.53533 -2.29653 
2652 1 9.20508 -6.34239 2.49034 
11664 1 1.57104 3.45617 -0.242622 
11663 2 -3.99316 -3.1067 2.80069 
11662 1 2.58863 0.443859 -1.6483 
15907 1 -3.4126 2.53355 -4.50647 
15908 2 1.57793 0.547818 -0.578238 
5845 1 0.569823 -5.41333 -3.30302 
12117 1 -9.21435 0.783451 -2.25808 
6682 1 -4.96484 -1.73065 -3.38973 
6663 1 1.10735 0.176962 -0.114915 
260 2 -0.776457 -2.83838 3.22957 
6662 2 0.994582 2.36957 1.37305 
6661 1 -1.26041 2.29196 7.61776 
3591 1 -0.498782 -4.26463 4.39064 
3590 2 -0.0187282 1.47132 2.79856 
3589 1 2.72944 1.74993 3.26608 
1023 1 -1.52945 1.34885 0.576304 
14008 1 0.0400376 1.0436 2.84792 
261 1 3.66114 -0.249716 -0.64029 
1156 1 -3.90226 -3.99784 0.262458 
1157 2 2.19268 -2.65577 2.41763 
1021 1 -7.17866 4.25197 -4.93723 
703 1 4.41239 -2.11094 0.513226 
1022 2 0.603598 0.0312355 -0.942024 
8816 2 3.05614 0.308592 -2.42955 
8817 1 0.48637 -2.35072 2.68447 
704 2 0.725792 -0.297732 -1.19626 
1158 1 5.65232 -3.49727 -0.0506112 
14901 1 -0.050383 1.15734 -5.49679 
8815 1 10.0305 0.227424 0.789248 
2447 2 1.5708 6.41075 -2.67625 
6271 1 0.220922 0.100961 -1.74906 
19677 1 -2.29712 -1.03114 -1.37284 
2446 1 -0.04318 -0.576472 2.12256 
2448 1 3.9396 3.28233 -1.37616 
3861 1 -5.75979 0.203085 -1.53712 
6272 2 -1.42465 3.13888 0.150946 
3860 2 2.69358 -5.05483 -2.95268 
6273 1 7.58553 0.243582 -2.98175 
14535 1 1.21507 3.63237 1.89098 
15553 1 4.10388 -4.62019 -3.69596 
8496 1 -4.78101 1.09813 5.43765 
12468 1 -0.258272 2.77955 -0.0132332 
12467 2 1.05434 -3.57103 4.12278 
18159 1 -1.1152 -0.627766 6.56622 
18157 1 1.92811 -2.26441 -3.87562 
18158 2 4.00969 -0.178319 3.44178 
20779 1 2.24327 2.11912 -2.77256 
12466 1 -0.48976 4.66202 -0.0757193 
3628 1 -0.828118 2.7848 -2.59453 
20780 3 2.79335 0.032838 2.59708 
20781 1 -2.07417 2.02462 4.78157 
7003 1 6.85735 -2.47353 -0.330065 
7004 2 -0.960385 -1.36978 0.989552 
7005 1 -6.28512 -3.9123 4.40549 
5584 1 -1.34346 -6.99421 1.65387 
21397 1 -0.196422 -1.57816 -4.64199 
11110 1 1.16187 -9.42318 5.51483 
8519 2 3.49244 2.20451 1.71905 
8878 1 1.62472 3.24551 0.317993 
15909 1 5.42257 3.06499 -1.52832 
8518 1 -2.20906 -1.62251 -2.53973 
8879 2 0.700458 -0.280773 -1.24239 
17212 1 -0.831737 -0.814404 1.23593 
8880 1 -0.884143 -0.831759 2.60818 
17213 2 1.2781 -2.39752 0.514174 
17214 1 2.8072 1.53757 -4.82223 
9917 2 -2.29557 -2.4139 1.83882 
20841 1 7.81449 -2.01063 -2.81883 
20840 2 3.47324 -3.12361 -1.152 
14009 2 0.758403 3.98276 0.471882 
14010 1 4.09221 -1.66013 3.74185 
156 1 4.19046 -1.51285 -6.11098 
14900 2 -4.11972 -0.907515 -0.645965 
14899 1 3.08427 3.35978 -3.10773 
12209 2 -6.46152 -0.535304 -0.338986 
7402 1 -0.845882 -0.0776458 -3.33041 
12210 1 3.33254 -1.90514 2.00566 
7403 2 2.23274 -0.506182 -0.30704 
154 1 -0.964939 -3.53618 1.9792 
946 1 -4.17898 -0.680106 -6.12658 
14534 2 -0.590608 -3.53621 -4.28975 
947 2 0.645046 2.08636 0.64989 
948 1 -1.41618 -0.721312 -3.05657 
1118 2 -4.96801 -2.96937 4.16664 
1117 1 3.13341 -4.41107 -3.72151 
13862 2 -0.966801 -2.32146 -0.222201 
3630 1 -3.18259 1.70027 -4.71129 
8495 2 -1.94454 0.111784 -2.9336 
15488 2 0.618058 -0.111561 -1.93823 
15489 1 1.15289 1.75564 1.13899 
8494 1 8.33328 -5.39721 1.41695 
15487 1 -1.27681 -3.31657 1.50007 
1461 1 -1.02395 3.71634 -6.87313 
1460 2 -2.70946 2.66836 1.5225 
3629 2 4.13548 -2.80323 4.69984 
5585 3 2.1476 2.20401 -3.25712 
15827 3 -1.26247 4.21298 -0.371169 
6941 2 -0.979726 -2.27998 4.04373 
6942 1 0.201134 3.06528 -1.5708 
15826 1 0.888505 1.70018 0.837555 
15828 1 -5.8653 2.63144 -4.89955 
5586 1 -0.602428 -3.23491 2.43979 
8272 1 -3.56288 2.55526 7.37284 
5362 1 2.02013 2.20249 -0.21873 
5363 2 -1.19721 -0.555093 3.77549 
5364 1 -3.30649 -0.276429 6.83501 
4160 2 2.19011 0.985135 -0.216159 
4161 1 -0.482238 -8.14173 0.949449 
17537 2 -1.72578 2.20029 3.42699 
17538 1 -5.43278 0.208615 2.93349 
6405 1 11.0611 3.87323 2.72192 
13773 1 0.662855 3.17846 -2.7666 
20839 1 2.03972 6.13592 -1.16727 
4159 1 9.43526 3.55148 -4.67221 
9687 1 -1.75455 3.85256 -2.8522 
17482 1 5.55877 -0.317883 4.07499 
17484 1 -1.40345 -0.298763 0.13375 
17483 2 1.96838 -1.84262 -3.64842 
17536 1 6.97647 1.70255 -1.47136 
13 1 3.61145 -2.16344 3.13983 
15 1 -4.15245 -8.01929 -1.02516 
14 2 -2.28365 3.92163 0.0998617 
14557 1 -2.62335 -1.08422 1.81723 
12208 1 -1.33643 -5.80441 -2.07456 
17151 1 4.21131 4.79105 -1.04871 
9686 2 -1.11481 -0.0562378 -3.21182 
9685 1 1.65117 0.743782 -1.50039 
17150 2 -4.43541 -3.45165 1.5777 
7404 1 -0.723721 -0.150563 -4.24101 
14558 2 -2.17351 -1.95796 -1.07893 
14559 1 -3.26724 -1.38661 -1.48795 
3516 1 -1.29167 -4.94746 -4.72853 
6619 1 -5.35107 0.402777 -1.84518 
6621 1 4.70334 -2.03364 4.7079 
6620 2 1.12076 1.08799 -3.71186 
3514 1 -2.97358 3.55637 -2.4395 
3515 2 2.71238 -0.502063 -0.821656 
3657 1 5.70423 -1.4456 7.36688 
2790 1 0.0648118 -5.112 -2.30679 
3656 2 0.859024 -2.28284 -5.65459 
3655 1 1.82675 -4.70525 -2.02766 
13861 1 3.22357 1.34225 5.8427 
10135 1 -6.75858 2.19065 -0.65317 
4108 1 -4.97592 -3.81595 0.417951 
4109 2 -2.26286 -1.65686 -0.0213036 
10136 2 0.184609 4.89685 -1.7522 
10137 1 2.48199 1.60114 -6.35614 
18629 2 3.23584 0.561101 -0.900294 
18032 3 -0.866866 -1.48975 0.886672 
18031 1 6.24047 2.21886 -6.50033 
4110 1 -0.0453784 -7.17247 -3.77136 
1459 1 -1.50173 -0.332491 7.21454 
16050 1 -4.57452 2.73662 5.7554 
5657 3 -3.15093 0.821817 -3.31783 
16048 1 0.761775 -2.98225 -2.0657 
16049 2 6.38785 2.10588 -5.01731 
5656 1 -1.22214 0.627081 -1.60129 
5658 1 4.59799 3.47007 2.13983 
3904 1 -4.49467 1.86555 0.237745 
20194 1 0.0818403 4.82303 -0.36927 
19401 1 -1.46997 -2.69411 6.63788 
19399 1 1.97636 -1.80712 6.09102 
601 1 -3.59107 0.545308 -2.86291 
602 2 -0.172634 0.0103374 0.279642 
19400 2 1.00794 -1.16942 0.065908 
3106 1 3.51707 -2.2842 0.0954407 
603 1 4.96282 -1.52054 5.17485 
13663 1 -0.291096 4.81673 4.51236 
13665 1 -0.317706 1.33728 0.589132 
2635 1 1.79857 -2.37586 -7.67424 
2636 2 -1.36963 4.9071 1.02074 
13664 2 0.694063 -1.72193 -0.171397 
6342 1 -1.11406 1.90843 -2.44818 
11232 1 -0.399188 -0.333521 -0.117872 
8572 1 -4.81283 -2.5187 0.412072 
138 1 9.25976 -2.71011 4.89234 
137 2 2.34106 -3.18078 -0.969805 
6108 1 -0.559812 -3.96438 -8.98281 
18628 1 3.51254 -8.04492 -5.15541 
18880 1 2.8611 0.374694 1.2757 
8574 1 -1.17808 -6.41875 -4.16878 
18881 2 -4.37399 2.85537 0.418024 
18882 1 -3.60842 -1.91767 11.8018 
3928 1 -4.42742 -0.344951 0.0936146 
2637 1 -2.04935 -2.73831 -0.841214 
6107 2 -3.75977 1.58981 0.980418 
6106 1 -4.21279 0.0715319 -0.880295 
8573 2 0.291017 3.3813 -1.04501 
3929 2 -2.69339 -4.86207 2.51946 
12518 2 1.35973 -3.33488 2.06504 
12519 1 -1.93666 3.6862 1.40168 
4535 2 0.549308 -2.38121 0.144389 
4534 1 -1.39705 -6.62455 -0.827013 
14316 1 -0.942248 5.4562 -4.7747 
14315 2 2.32873 1.27914 2.34563 
8037 1 4.87321 -2.58157 -6.94006 
14104 1 2.68094 -4.03675 -4.73732 
14106 1 -4.45966 2.98 1.38722 
6340 1 -1.05192 -2.00957 6.23496 
6341 2 -0.692059 0.430509 -0.283138 
14105 2 0.698927 -3.60336 -1.84948 
14314 1 -6.34744 5.01486 0.0519204 
2833 1 -2.02811 -3.41794 0.988811 
16382 2 1.09956 1.49764 3.16078 
16383 1 0.2486 -2.80232 3.85469 
16381 1 -1.51306 -0.269486 4.03594 
9250 1 3.08419 -1.29124 -1.49994 
2834 2 -1.30834 1.33617 1.53073 
6804 1 3.09375 -3.06565 -1.78451 
6803 2 0.151375 -0.281857 -1.62778 
6802 1 5.51618 0.0462772 1.37682 
6033 1 -6.16558 -3.16875 -0.13679 
9252 1 0.612253 -0.680178 -3.33926 
9251 2 -0.44186 -3.8708 -1.67042 
10305 1 1.54077 -6.21394 -3.30057 
10304 2 -0.464008 0.360273 0.272981 
28 1 -1.0681 5.33414 -3.65267 
10303 1 -0.0657757 -3.50123 -3.67023 
29 2 -2.31458 0.67207 4.09242 
3930 1 0.647396 -3.13146 -1.14283 
30 1 1.97386 3.93978 2.25735 
10512 1 0.575663 4.27739 -3.71139 
10510 1 -1.02071 1.76241 0.86305 
10511 2 0.342226 -3.44912 0.356845 
20469 1 4.52993 3.68568 3.6354 
1533 1 -0.207212 -4.58434 -1.04124 
20468 3 -2.30157 -3.4781 0.959689 
20467 1 -3.68223 2.91473 6.78827 
9688 1 5.81756 2.87138 4.00078 
9689 3 0.531377 -0.345896 1.82372 
10138 1 5.24117 6.39016 6.54462 
9690 1 3.27269 -7.7584 -0.367635 
13264 1 0.379984 -1.80935 -1.33559 
13265 2 -0.362254 -1.60256 -0.170922 
13266 1 -0.804985 0.277324 0.582119 
15010 1 1.85888 -3.55126 7.90234 
10220 2 -0.919128 2.56906 -1.66638 
15011 2 -0.207573 2.06473 3.82244 
2099 2 -0.501505 0.467098 -1.21406 
2100 1 -3.27731 -7.11815 -7.53614 
9404 2 4.49018 1.30823 0.114387 
18779 2 -5.28933 1.17464 -1.00638 
18780 1 -4.05862 4.66838 4.30471 
18778 1 -0.00396842 1.30995 2.28973 
462 1 -1.66543 4.62905 4.25943 
461 2 -1.68259 -3.88105 0.355584 
14028 1 -11.0528 6.43152 -1.22574 
5054 2 -1.5628 2.73936 -0.978548 
9405 1 2.99622 1.11722 4.66249 
17803 1 -2.64902 -0.84956 -2.97575 
7199 2 3.81951 -0.770337 -0.605375 
15012 1 2.22592 -3.65298 -4.46417 
3711 1 -0.613564 -0.383846 -0.198447 
3710 2 -1.73526 3.11843 -3.99059 
17804 2 -3.9729 -1.05198 -1.02758 
5053 1 -2.34244 -2.12969 -3.71677 
3709 1 -0.0270804 0.182339 6.24021 
5080 1 -6.50937 3.42621 4.95831 
5081 2 1.53098 1.54419 1.11231 
13511 2 -3.18851 0.887971 -1.37334 
13510 1 -2.73055 -1.39421 0.487493 
7198 1 1.70253 -1.29003 2.09451 
18411 1 4.34215 -3.30119 -2.67345 
13512 1 -1.41922 -0.782261 2.57287 
17442 1 2.31126 -0.367113 -0.188175 