ITEM: TIMESTEP
35000000
ITEM: NUMBER OF ENTRIES
483
ITEM: BOX BOUNDS pp pp pp
0 50
0 50
0 50
ITEM: ENTRIES c_binfo[1] c_binfo[2] c_binfo[3] 
3 2372 2373 
1 2373 14457 
2 14456 14457 
3 18889 18890 
3 2371 2372 
1 2371 18889 
2 12808 12809 
2 12683 12684 
1 5085 12808 
2 5084 5085 
2 12809 12810 
2 4133 4134 
1 4134 12684 
2 4132 4133 
1 4132 14355 
2 14354 14355 
2 14455 14456 
1 14455 19423 
2 941 942 
1 942 4096 
2 4096 4097 
2 19423 19424 
2 4097 4098 
2 19424 19425 
2 17522 17523 
1 12279 17521 
2 17521 17522 
1 5169 7890 
2 7121 7122 
1 7122 12682 
2 12682 12683 
2 7120 7121 
1 7120 13804 
2 13804 13805 
1 951 17629 
2 17629 17630 
2 8584 8585 
1 8584 11352 
1 11355 17631 
2 15464 15465 
2 17630 17631 
2 950 951 
2 949 950 
1 949 11799 
2 11798 11799 
2 11797 11798 
1 7206 11797 
2 7205 7206 
2 12647 12648 
2 18445 18446 
2 18446 18447 
2 7888 7889 
2 7738 7739 
1 7738 7888 
1 7740 13911 
2 7739 7740 
2 7889 7890 
1 8586 12903 
2 8585 8586 
2 1624 1625 
1 1624 4909 
2 1625 1626 
1 1626 3943 
2 3943 3944 
2 3944 3945 
1 2880 12648 
2 2879 2880 
2 2878 2879 
1 2878 15721 
2 15721 15722 
2 15722 15723 
2 18265 18266 
2 20060 20061 
2 20059 20060 
2 8263 8264 
1 8263 20059 
2 6431 6432 
2 13910 13911 
2 13909 13910 
1 1338 13909 
2 1337 1338 
2 19232 19233 
2 19231 19232 
2 17095 17096 
1 17095 19231 
2 17096 17097 
2 18266 18267 
2 6421 6422 
1 6421 18267 
2 6422 6423 
2 5675 5676 
2 5674 5675 
2 4657 4658 
1 4657 5674 
2 14783 14784 
1 5676 19071 
2 10754 10755 
2 19069 19070 
2 10753 10754 
1 10753 19069 
2 19070 19071 
2 14344 14345 
1 14344 21280 
2 21280 21281 
2 14345 14346 
2 14782 14783 
1 14346 14782 
2 4658 4659 
3 12802 12803 
1 12802 18891 
1 1257 12804 
2 1256 1257 
3 12803 12804 
3 18890 18891 
3 3584 3585 
3 3583 3584 
2 21169 21170 
1 8925 21169 
2 8924 8925 
2 8923 8924 
1 8923 21033 
2 1255 1256 
1 1255 21171 
2 21170 21171 
2 17525 17526 
1 7326 17526 
2 7325 7326 
2 940 941 
1 940 7324 
2 7324 7325 
2 18530 18531 
2 18529 18530 
2 12277 12278 
2 12278 12279 
3 11545 11546 
1 13134 18763 
2 13132 13133 
1 13132 18312 
2 18310 18311 
2 18311 18312 
2 13133 13134 
2 13805 13806 
2 3317 3318 
2 17524 17525 
1 3318 15463 
2 3316 3317 
1 3316 18310 
2 15463 15464 
2 11351 11352 
2 16607 16608 
2 11350 11351 
1 11350 21120 
2 16606 16607 
1 8088 16606 
2 14500 14501 
1 14502 15465 
2 14501 14502 
2 21118 21119 
2 21119 21120 
1 10665 21118 
2 7204 7205 
1 5493 7204 
2 5492 5493 
2 10664 10665 
2 9199 9200 
2 9200 9201 
2 1811 1812 
2 5491 5492 
2 1810 1811 
1 1810 18090 
2 18089 18090 
3 11546 11547 
1 10419 20683 
3 20683 20684 
2 10418 10419 
2 10417 10418 
1 10417 11547 
3 20684 20685 
2 758 759 
1 759 16792 
2 16792 16793 
2 16793 16794 
1 13806 21178 
2 21178 21179 
1 2631 16794 
2 21179 21180 
1 4497 21180 
2 2630 2631 
2 1867 1868 
1 1867 3945 
1 10560 15982 
2 1868 1869 
2 15982 15983 
2 15983 15984 
2 2629 2630 
1 2629 15984 
2 10559 10560 
2 15674 15675 
2 15673 15674 
1 15673 15801 
1 15675 15723 
2 10558 10559 
1 10558 20784 
2 10663 10664 
1 10663 19629 
2 8264 8265 
2 18088 18089 
2 15799 15800 
1 15799 18088 
2 15800 15801 
2 11776 11777 
2 3016 3017 
1 3016 11776 
2 3017 3018 
2 4496 4497 
1 11778 17658 
2 1336 1337 
1 1336 18822 
2 17657 17658 
2 4495 4496 
1 4495 12856 
2 12856 12857 
2 12857 12858 
1 12858 17421 
2 11777 11778 
1 1869 2005 
2 2005 2006 
2 2006 2007 
1 2007 13189 
2 13189 13190 
2 9755 9756 
2 20783 20784 
1 17097 20782 
2 20782 20783 
2 13970 13971 
2 18821 18822 
2 18820 18821 
2 17656 17657 
1 5190 17656 
2 5189 5190 
1 5655 14784 
2 5654 5655 
2 5653 5654 
2 13190 13191 
1 10755 13191 
1 17877 18820 
2 17876 17877 
2 8314 8315 
2 8315 8316 
2 21032 21033 
2 15833 15834 
1 15834 17529 
2 8086 8087 
1 8086 15832 
2 15832 15833 
3 17528 17529 
3 17527 17528 
2 21031 21032 
1 6813 21031 
3 6812 6813 
3 6811 6812 
2 4174 4175 
1 4174 6811 
2 4175 4176 
2 8087 8088 
1 4563 11254 
2 2846 2847 
2 2845 2846 
2 11254 11255 
2 11255 11256 
1 9201 11256 
1 4176 19288 
2 19289 19290 
2 19288 19289 
2 15332 15333 
2 11563 11564 
1 11563 19290 
2 4562 4563 
2 4561 4562 
1 4561 7756 
2 7756 7757 
2 7757 7758 
1 7758 13969 
2 9754 9755 
1 9754 19824 
2 19823 19824 
2 19822 19823 
1 19822 20083 
2 20083 20084 
2 19628 19629 
1 19452 19627 
2 19627 19628 
3 19451 19452 
3 19450 19451 
1 13836 17419 
2 17419 17420 
2 17420 17421 
2 13835 13836 
2 13834 13835 
1 13834 15331 
2 15331 15332 
2 13969 13970 
2 20084 20085 
2 11926 11927 
1 11926 13971 
2 11927 11928 
2 20428 20429 
1 11928 20428 
1 12114 20085 
3 12113 12114 
3 12112 12113 
2 5188 5189 
2 17875 17876 
1 17875 20430 
2 21521 21522 
2 21520 21521 
2 20429 20430 
2 1924 1925 
2 1925 1926 
2 12976 12977 
1 1632 12976 
2 12977 12978 
2 1631 1632 
2 1630 1631 
1 1630 12532 
2 12533 12534 
2 12532 12533 
2 20488 20489 
2 20489 20490 
1 10659 20490 
2 10658 10659 
2 10657 10658 
2 2197 2198 
1 2197 10657 
2 2198 2199 
1 5691 9316 
2 9317 9318 
2 9316 9317 
2 16835 16836 
1 12978 16836 
2 12472 12473 
1 12474 12810 
2 11353 11354 
1 11353 12472 
2 12473 12474 
2 14353 14354 
1 14353 16141 
2 16141 16142 
2 16142 16143 
1 2199 16143 
1 13164 19425 
2 13163 13164 
2 11354 11355 
2 12902 12903 
2 11762 11763 
1 11763 12646 
2 12646 12647 
2 13162 13163 
2 20357 20358 
2 20356 20357 
2 11761 11762 
1 11761 20356 
2 9536 9537 
2 12901 12902 
1 9537 12901 
2 4910 4911 
2 5690 5691 
2 5689 5690 
1 5689 9535 
2 9535 9536 
2 19291 19292 
1 4911 19291 
2 4909 4910 
1 10473 10749 
2 10472 10473 
2 10748 10749 
2 10471 10472 
2 6430 6431 
1 6430 10471 
1 8217 9318 
2 19292 19293 
2 10747 10748 
1 10747 19293 
1 1833 8215 
2 8216 8217 
2 8215 8216 
2 21281 21282 
2 1832 1833 
2 1831 1832 
1 1831 21282 
2 6049 6050 
1 6049 6760 
2 6505 6506 
2 6760 6761 
2 6506 6507 
2 6515 6516 
2 6514 6515 
1 6507 6514 
2 6050 6051 
2 20135 20136 
2 20134 20135 
1 6762 20134 
2 6761 6762 
2 11920 11921 
1 11920 20136 
2 5083 5084 
1 5083 6505 
2 9382 9383 
1 9384 10381 
2 10381 10382 
2 9383 9384 
2 6928 6929 
1 6928 9382 
2 11921 11922 
2 5167 5168 
1 5167 11922 
2 5168 5169 
2 10097 10098 
2 10096 10097 
2 7594 7595 
1 7594 10096 
2 7595 7596 
2 12554 12555 
1 6432 12555 
2 12553 12554 
2 15703 15704 
1 15703 18765 
2 18764 18765 
2 6929 6930 
1 6930 15705 
2 5485 5486 
1 5485 10098 
2 15704 15705 
2 5486 5487 
1 5487 16531 
2 16531 16532 
2 16532 16533 
2 18763 18764 
2 4310 4311 
2 6871 6872 
2 757 758 
1 757 6871 
2 6872 6873 
1 6873 17148 
2 17146 17147 
1 17146 21358 
2 17147 17148 
2 21358 21359 
2 21359 21360 
1 16533 19179 
2 15059 15060 
1 15060 19177 
2 19178 19179 
2 19177 19178 
2 4309 4310 
1 4309 18064 
2 18064 18065 
2 11564 11565 
2 15058 15059 
2 18065 18066 
2 1621 1622 
1 1621 11565 
2 1622 1623 
1 1623 18066 
2 877 878 
1 877 15058 
2 5915 5916 
1 879 5916 
2 878 879 
2 5914 5915 
1 5914 15333 
2 13250 13251 
2 13249 13250 
2 17299 17300 
2 16834 16835 
1 16834 17299 
2 17300 17301 
1 6051 17301 
2 10382 10383 
2 5222 5223 
1 5223 10383 
2 5221 5222 
1 5221 13251 
