ITEM: TIMESTEP
20000000
ITEM: NUMBER OF ENTRIES
13953
ITEM: BOX BOUNDS pp pp pp
0 50
0 50
0 50
ITEM: ENTRIES c_binfo[1] c_binfo[2] c_binfo[3] 
2 14926 14927 
2 14927 14928 
2 15518 15519 
2 15517 15518 
2 10817 10818 
2 13622 13623 
3 4862 4863 
3 4861 4862 
1 4863 7440 
3 4955 4956 
3 4954 4955 
2 4247 4248 
2 11605 11606 
2 4246 4247 
1 4246 11605 
2 11606 11607 
2 13907 13908 
2 13906 13907 
2 7439 7440 
2 14765 14766 
2 14764 14765 
3 4142 4143 
3 12739 12740 
2 1771 1772 
3 12740 12741 
3 3286 3287 
1 3286 15852 
3 15851 15852 
3 15850 15851 
3 3287 3288 
1 3288 19647 
2 4594 4595 
2 2864 2865 
1 2865 8035 
2 8035 8036 
2 8036 8037 
2 2863 2864 
1 2863 15624 
3 15623 15624 
3 15622 15623 
3 4945 4946 
1 1191 3699 
3 17006 17007 
1 14841 17007 
3 17005 17006 
2 15788 15789 
3 4946 4947 
2 977 978 
2 976 977 
1 976 7113 
2 7112 7113 
2 13168 13169 
2 13169 13170 
2 7111 7112 
1 7111 13168 
3 21587 21588 
3 8015 8016 
3 8014 8015 
3 1190 1191 
3 1189 1190 
2 14840 14841 
2 14839 14840 
3 2671 2672 
1 2671 2841 
2 2839 2840 
2 2840 2841 
3 10430 10431 
3 10429 10430 
1 10429 16467 
3 16465 16466 
3 16466 16467 
3 2672 2673 
2 14585 14586 
2 14584 14585 
3 21586 21587 
3 7487 7488 
3 7486 7487 
1 7488 8016 
2 13652 13653 
3 14744 14745 
3 14743 14744 
2 13651 13652 
3 16333 16334 
3 16334 16335 
2 4967 4968 
2 5405 5406 
2 5404 5405 
3 20420 20421 
3 20419 20420 
3 21419 21420 
3 12592 12593 
1 12592 21420 
3 12593 12594 
1 12594 16179 
3 21418 21419 
3 11608 11609 
3 7303 7304 
1 7303 11610 
3 11609 11610 
3 7343 7344 
3 7342 7343 
2 17525 17526 
2 6466 6467 
2 6467 6468 
2 5245 5246 
1 5245 6466 
2 5246 5247 
1 6468 10464 
2 10463 10464 
2 10462 10463 
2 9950 9951 
2 9949 9950 
2 4966 4967 
1 4966 9951 
3 1360 1361 
3 16058 16059 
3 16057 16058 
3 19681 19682 
3 19682 19683 
3 19444 19445 
1 19444 19681 
2 17524 17525 
2 15920 15921 
2 15919 15920 
3 19445 19446 
1 14634 19446 
3 6472 6473 
1 8415 14632 
3 14632 14633 
3 14633 14634 
3 3146 3147 
3 3145 3146 
2 15391 15392 
2 15392 15393 
2 8587 8588 
1 8587 15391 
2 8588 8589 
1 8589 15204 
3 16094 16095 
3 16093 16094 
3 17924 17925 
1 14130 16093 
1 1302 3147 
2 1301 1302 
2 18307 18308 
2 6365 6366 
2 6973 6974 
3 21278 21279 
3 21277 21278 
2 7261 7262 
2 7262 7263 
2 18767 18768 
3 2506 2507 
1 2506 18766 
3 2507 2508 
2 18766 18767 
3 10976 10977 
3 10975 10976 
2 6364 6365 
2 6974 6975 
2 8567 8568 
3 1945 1946 
3 11570 11571 
3 11569 11570 
3 13277 13278 
3 13276 13277 
3 4888 4889 
3 4889 4890 
3 4351 4352 
3 4352 4353 
1 4353 4890 
3 19871 19872 
2 7582 7583 
3 11504 11505 
1 12144 19993 
3 19993 19994 
3 12143 12144 
3 12142 12143 
3 11503 11504 
1 11503 12142 
3 16996 16997 
3 8860 8861 
1 8862 13860 
3 8861 8862 
1 6654 19045 
2 19045 19046 
2 19046 19047 
2 17107 17108 
1 17107 18793 
2 17108 17109 
1 17109 19047 
2 18793 18794 
2 10891 10892 
2 11710 11711 
2 11711 11712 
1 1479 1659 
3 1478 1479 
3 1658 1659 
3 1657 1658 
1 1657 17752 
3 17752 17753 
2 16504 16505 
2 16505 16506 
2 968 969 
3 4055 4056 
1 969 4054 
3 4054 4055 
2 13859 13860 
2 10816 10817 
3 6770 6771 
3 6769 6770 
3 7964 7965 
3 6653 6654 
3 6652 6653 
2 18794 18795 
2 13621 13622 
3 11438 11439 
3 11437 11438 
2 5516 5517 
2 5515 5516 
2 5627 5628 
1 20259 20449 
3 20449 20450 
3 20450 20451 
2 20257 20258 
2 20258 20259 
2 967 968 
3 13793 13794 
2 12151 12152 
2 12152 12153 
3 7963 7964 
1 3315 10063 
3 10063 10064 
2 5173 5174 
3 18145 18146 
3 18146 18147 
3 10064 10065 
2 1772 1773 
2 2059 2060 
1 2061 18178 
2 2060 2061 
2 18178 18179 
2 18179 18180 
3 12617 12618 
2 9911 9912 
1 9912 18180 
2 9910 9911 
2 20228 20229 
2 20227 20228 
1 20227 20923 
3 20923 20924 
3 20924 20925 
3 12616 12617 
1 1137 12616 
1 11955 20925 
3 1136 1137 
2 15787 15788 
3 1135 1136 
1 1135 15787 
3 18412 18413 
3 18413 18414 
2 10667 10668 
2 10666 10667 
3 13819 13820 
3 13820 13821 
3 5791 5792 
1 5791 13821 
2 15239 15240 
2 15238 15239 
3 19693 19694 
3 19694 19695 
3 14665 14666 
1 14665 19695 
3 14666 14667 
1 10668 14667 
3 3059 3060 
2 5489 5490 
2 5488 5489 
2 9325 9326 
1 9325 17244 
2 17243 17244 
3 13424 13425 
3 13423 13424 
1 13423 14745 
3 1697 1698 
3 1696 1697 
1 1696 20232 
3 20231 20232 
3 3748 3749 
1 3748 20230 
3 20230 20231 
2 14650 14651 
3 1058 1059 
2 12706 12707 
1 2955 12706 
2 12707 12708 
3 1057 1058 
3 13942 13943 
3 2954 2955 
3 13943 13944 
3 2953 2954 
1 2953 13944 
2 17963 17964 
2 17962 17963 
1 10113 17964 
2 9326 9327 
3 3749 3750 
2 14651 14652 
3 6758 6759 
3 6757 6758 
3 16177 16178 
3 16178 16179 
2 18907 18908 
2 18908 18909 
1 4791 18909 
2 4790 4791 
2 5731 5732 
2 13004 13005 
2 13003 13004 
2 1493 1494 
2 21002 21003 
2 21001 21002 
2 8327 8328 
1 8328 21003 
3 1904 1905 
1 1905 3846 
3 1903 1904 
2 17102 17103 
2 17101 17102 
3 8659 8660 
3 8660 8661 
3 2179 2180 
1 2179 8661 
3 16360 16361 
2 4789 4790 
1 4789 16360 
3 19247 19248 
3 19246 19247 
2 1856 1857 
2 1855 1856 
2 10427 10428 
2 10426 10427 
3 4508 4509 
2 1492 1493 
3 10526 10527 
2 8824 8825 
2 8825 8826 
3 2579 2580 
1 2580 6474 
3 6473 6474 
2 14648 14649 
2 14647 14648 
1 14649 18936 
3 2180 2181 
3 8354 8355 
3 8353 8354 
1 2181 8353 
1 8355 12943 
3 12943 12944 
1 10209 20898 
3 19436 19437 
3 10208 10209 
3 10207 10208 
2 5428 5429 
2 5429 5430 
2 13751 13752 
2 13750 13751 
1 13750 17238 
2 6005 6006 
2 6004 6005 
3 2578 2579 
1 2578 20338 
3 20338 20339 
3 20339 20340 
3 17923 17924 
3 10007 10008 
3 10006 10007 
3 9875 9876 
3 12944 12945 
3 8975 8976 
1 8976 12945 
3 8974 8975 
1 8974 9874 
3 9874 9875 
3 19435 19436 
2 4064 4065 
2 4063 4064 
1 4063 16848 
2 16847 16848 
2 9572 9573 
2 9571 9572 
2 3511 3512 
2 3512 3513 
2 5818 5819 
2 5819 5820 
2 18308 18309 
3 10027 10028 
2 12368 12369 
2 16114 16115 
2 16859 16860 
2 16858 16859 
3 9635 9636 
2 12367 12368 
2 9505 9506 
2 9506 9507 
3 1946 1947 
3 3332 3333 
3 3331 3332 
3 15526 15527 
1 15528 16284 
3 15527 15528 
3 16997 16998 
3 4835 4836 
3 4834 4835 
2 10943 10944 
2 10942 10943 
1 10942 18130 
2 18130 18131 
2 8336 8337 
2 3412 3413 
2 3413 3414 
2 13912 13913 
1 3414 13912 
2 13858 13859 
1 13858 18127 
3 18127 18128 
3 18128 18129 
3 17756 17757 
3 17755 17756 
3 17753 17754 
3 9314 9315 
3 9313 9314 
2 5626 5627 
3 6061 6062 
3 6062 6063 
3 13792 13793 
3 9206 9207 
1 9207 9583 
3 9583 9584 
3 9584 9585 
3 8338 8339 
3 8339 8340 
3 12514 12515 
3 12515 12516 
3 20293 20294 
2 2752 2753 
2 2753 2754 
2 3313 3314 
2 3314 3315 
3 1634 1635 
3 1633 1634 
1 1633 21210 
2 20939 20940 
2 5174 5175 
2 20938 20939 
1 5175 20938 
3 15013 15014 
1 8664 12514 
3 8447 8448 
3 8662 8663 
3 8663 8664 
3 20294 20295 
2 16447 16448 
2 16448 16449 
1 16449 18147 
3 16495 16496 
2 10270 10271 
2 10271 10272 
2 10264 10265 
2 4529 4530 
3 1642 1643 
3 5285 5286 
3 5284 5285 
3 21209 21210 
3 21208 21209 
1 5286 21208 
3 7619 7620 
2 21071 21072 
1 15180 21070 
2 21070 21071 
3 16496 16497 
3 11630 11631 
1 11631 16497 
3 11629 11630 
1 11629 12618 
2 10265 10266 
2 7394 7395 
2 7393 7394 
1 7393 20866 
2 20866 20867 
2 20867 20868 
2 12766 12767 
2 12767 12768 
2 244 245 
2 245 246 
1 3960 12768 
3 9511 9512 
3 9512 9513 
2 15178 15179 
2 15179 15180 
2 1246 1247 
3 11954 11955 
3 11953 11954 
1 11953 16021 
2 18694 18695 
2 18695 18696 
1 18696 19218 
2 19217 19218 
1 5793 13489 
3 5792 5793 
2 19900 19901 
2 19901 19902 
3 16021 16022 
3 16022 16023 
1 16023 19693 
3 5941 5942 
1 5941 10077 
3 10076 10077 
3 10075 10076 
3 3058 3059 
1 3058 10075 
3 13489 13490 
3 13490 13491 
1 10425 13491 
3 5942 5943 
2 15928 15929 
2 15929 15930 
3 15580 15581 
2 553 554 
2 17242 17243 
1 17242 17403 
3 17402 17403 
2 4493 4494 
2 4492 4493 
3 7801 7802 
3 7802 7803 
2 20777 20778 
2 20776 20777 
3 15581 15582 
2 10111 10112 
1 555 10111 
2 554 555 
2 10112 10113 
2 6775 6776 
2 6776 6777 
3 17401 17402 
2 16427 16428 
2 16426 16427 
2 16034 16035 
2 11515 11516 
2 11516 11517 
2 16033 16034 
3 4880 4881 
3 4879 4880 
3 19817 19818 
3 19816 19817 
3 2513 2514 
3 2512 2513 
1 2512 19818 
1 2514 20752 
3 20752 20753 
2 1139 1140 
2 1138 1139 
2 941 942 
2 940 941 
2 7205 7206 
1 5493 7204 
2 7204 7205 
2 8326 8327 
2 10330 10331 
2 10331 10332 
2 3845 3846 
2 3844 3845 
3 16972 16973 
3 16973 16974 
3 10255 10256 
3 4241 4242 
3 4240 4241 
1 4240 17103 
1 16362 20896 
3 20897 20898 
3 20896 20897 
3 16361 16362 
2 5732 5733 
3 17323 17324 
3 4507 4508 
1 4509 17236 
3 17903 17904 
1 11787 17904 
3 17902 17903 
3 10525 10526 
1 10525 17902 
3 10256 10257 
3 18934 18935 
1 10257 18934 
3 18935 18936 
3 6043 6044 
3 6044 6045 
3 9637 9638 
1 9637 17325 
3 9638 9639 
3 17324 17325 
3 17236 17237 
2 2032 2033 
2 2033 2034 
3 17237 17238 
3 11758 11759 
3 11759 11760 
2 20578 20579 
2 20579 20580 
3 11785 11786 
3 11786 11787 
2 8213 8214 
2 8212 8213 
2 7774 7775 
1 1155 7774 
2 7775 7776 
3 20267 20268 
3 20266 20267 
1 1587 20266 
3 1585 1586 
3 1586 1587 
2 18233 18234 
2 18796 18797 
2 18797 18798 
2 16846 16847 
2 4252 4253 
1 4252 16846 
1 6231 20580 
2 6230 6231 
1 2985 6229 
2 6229 6230 
2 4253 4254 
2 2984 2985 
2 2983 2984 
1 1533 20469 
2 1532 1533 
2 1531 1532 
1 1531 3181 
2 3181 3182 
3 1153 1154 
3 1154 1155 
2 3182 3183 
2 7015 7016 
3 10028 10029 
2 18707 18708 
2 8894 8895 
2 8893 8894 
1 8893 18706 
2 18706 18707 
2 18232 18233 
1 8895 18232 
2 16115 16116 
2 16498 16499 
2 16499 16500 
2 7745 7746 
3 9634 9635 
2 7744 7745 
1 7744 9634 
2 10781 10782 
2 10780 10781 
3 18080 18081 
3 18079 18080 
3 16283 16284 
3 15491 15492 
3 15490 15491 
1 12822 15490 
3 12821 12822 
3 12820 12821 
1 12820 16282 
3 16282 16283 
3 8788 8789 
3 8789 8790 
3 9575 9576 
2 5476 5477 
1 5476 9576 
3 9574 9575 
3 17288 17289 
3 17287 17288 
3 18587 18588 
1 4215 18586 
3 18586 18587 
3 4214 4215 
3 4213 4214 
2 18131 18132 
3 4591 4592 
2 18511 18512 
2 18512 18513 
3 19826 19827 
3 19825 19826 
3 2138 2139 
3 11359 11360 
3 11360 11361 
3 9346 9347 
1 9346 11361 
1 12645 13363 
3 12644 12645 
3 9205 9206 
1 9205 12643 
3 12643 12644 
3 13364 13365 
3 13363 13364 
3 9518 9519 
3 9517 9518 
1 9517 11241 
3 9347 9348 
3 14080 14081 
3 6304 6305 
1 6304 14080 
3 6305 6306 
3 5926 5927 
1 5926 6306 
3 5927 5928 
2 16711 16712 
2 16712 16713 
3 2867 2868 
3 15667 15668 
1 2868 15667 
3 15668 15669 
3 2866 2867 
3 15014 15015 
1 4158 10494 
3 10493 10494 
3 4157 4158 
3 8446 8447 
3 4156 4157 
1 4156 8446 
3 10492 10493 
1 10492 16659 
3 14081 14082 
2 12665 12666 
2 12664 12665 
1 12664 20295 
2 4528 4529 
3 1643 1644 
2 21073 21074 
2 21074 21075 
3 7618 7619 
3 8039 8040 
3 8038 8039 
3 21574 21575 
3 17048 17049 
3 21440 21441 
3 21439 21440 
1 15015 21439 
3 13178 13179 
3 13177 13178 
2 13727 13728 
3 2956 2957 
3 589 590 
1 589 2958 
3 2957 2958 
3 590 591 
2 6893 6894 
2 6194 6195 
2 3958 3959 
1 3958 6195 
2 3959 3960 
2 14086 14087 
2 14087 14088 
2 15857 15858 
1 14088 15856 
2 15856 15857 
1 9513 11848 
3 11848 11849 
3 11849 11850 
3 574 575 
1 574 7459 
3 575 576 
3 7459 7460 
3 7460 7461 
3 17047 17048 
2 1247 1248 
2 19216 19217 
2 13726 13727 
2 15409 15410 
3 2831 2832 
3 8797 8798 
1 2832 8797 
3 8798 8799 
2 9157 9158 
3 10423 10424 
3 10424 10425 
3 13811 13812 
2 643 644 
2 644 645 
2 7874 7875 
2 15410 15411 
3 2830 2831 
3 15715 15716 
3 15716 15717 
3 4334 4335 
3 13810 13811 
1 4335 19149 
2 19148 19149 
2 19147 19148 
2 15059 15060 
2 20072 20073 
2 20071 20072 
3 15689 15690 
3 15688 15689 
3 7673 7674 
3 7672 7673 
3 18872 18873 
1 18873 19836 
3 18871 18872 
2 8614 8615 
2 8615 8616 
3 20753 20754 
3 4333 4334 
2 877 878 
1 877 15058 
2 15058 15059 
2 878 879 
2 5492 5493 
2 5491 5492 
2 20021 20022 
2 19834 19835 
2 310 311 
2 311 312 
2 13657 13658 
2 13658 13659 
3 20462 20463 
3 20461 20462 
2 6655 6656 
2 6656 6657 
2 20186 20187 
3 1042 1043 
1 1042 11758 
3 1043 1044 
2 3574 3575 
1 3574 9996 
2 9995 9996 
2 9994 9995 
3 16861 16862 
3 16862 16863 
2 4871 4872 
2 4870 4871 
2 20185 20186 
2 19304 19305 
2 6224 6225 
3 2057 2058 
3 2056 2057 
2 3575 3576 
2 8137 8138 
2 8138 8139 
2 4189 4190 
1 7371 16863 
3 7370 7371 
3 7369 7370 
3 20467 20468 
3 20468 20469 
2 19565 19566 
2 19564 19565 
1 17313 19566 
2 155 156 
2 154 155 
3 6755 6756 
2 18163 18164 
2 18448 18449 
3 10672 10673 
2 4817 4818 
2 7016 7017 
2 4190 4191 
3 7436 7437 
3 7435 7436 
1 2427 7435 
2 2426 2427 
2 17312 17313 
2 17311 17312 
2 2425 2426 
1 2425 17311 
3 6754 6755 
3 12421 12422 
2 18164 18165 
3 12422 12423 
1 12423 18165 
2 748 749 
2 749 750 
2 10219 10220 
3 10673 10674 
2 18449 18450 
2 4816 4817 
1 4816 21399 
2 21398 21399 
2 21397 21398 
2 11110 11111 
1 11110 21397 
2 11111 11112 
2 20246 20247 
2 20245 20246 
3 11737 11738 
1 11737 15492 
3 11738 11739 
3 3473 3474 
3 3472 3473 
2 10220 10221 
2 21511 21512 
2 15089 15090 
2 15088 15089 
3 19088 19089 
2 5618 5619 
3 19087 19088 
2 5617 5618 
1 5617 19087 
1 8406 19089 
3 2108 2109 
3 2107 2108 
2 20060 20061 
2 20059 20060 
3 9563 9564 
3 9562 9563 
3 1414 1415 
3 9358 9359 
3 18278 18279 
3 18277 18278 
2 4729 4730 
2 4730 4731 
2 13270 13271 
2 13271 13272 
3 6029 6030 
3 403 404 
3 404 405 
3 9937 9938 
3 9938 9939 
2 19315 19316 
2 13996 13997 
2 13997 13998 
3 9659 9660 
1 9660 13998 
3 2137 2138 
3 18154 18155 
3 18155 18156 
3 6463 6464 
3 6464 6465 
3 16540 16541 
3 16541 16542 
2 7706 7707 
2 7705 7706 
3 9658 9659 
2 7654 7655 
1 7654 9658 
2 17111 17112 
2 17110 17111 
1 7680 21097 
2 21097 21098 
2 7678 7679 
2 7679 7680 
2 21098 21099 
3 9959 9960 
3 11239 11240 
1 11239 21471 
3 21470 21471 
3 11240 11241 
3 6139 6140 
3 6140 6141 
3 21469 21470 
3 274 275 
3 275 276 
3 2555 2556 
3 2554 2555 
2 21497 21498 
2 5471 5472 
2 5470 5471 
3 21575 21576 
3 11845 11846 
1 11845 21576 
3 11846 11847 
3 16658 16659 
3 16657 16658 
3 10312 10313 
1 10312 16657 
3 10313 10314 
1 10314 17304 
2 14933 14934 
2 14932 14933 
2 7547 7548 
2 7546 7547 
1 7546 14239 
3 20891 20892 
3 20890 20891 
2 6193 6194 
2 6892 6893 
1 13857 17916 
2 17915 17916 
2 17914 17915 
2 13856 13857 
2 13855 13856 
3 3082 3083 
2 9718 9719 
3 6925 6926 
1 6925 9718 
3 6926 6927 
3 10994 10995 
1 9720 10995 
2 9719 9720 
3 10993 10994 
1 10993 17302 
3 17303 17304 
3 17302 17303 
2 986 987 
2 1028 1029 
2 19972 19973 
2 19973 19974 
2 985 986 
1 985 9159 
2 9158 9159 
3 9514 9515 
3 9515 9516 
3 3526 3527 
1 3526 10453 
3 10453 10454 
3 10454 10455 
3 3527 3528 
2 7873 7874 
3 12203 12204 
3 12202 12203 
3 17899 17900 
1 17899 18675 
3 18674 18675 
3 17900 17901 
3 18020 18021 
3 18019 18020 
1 17901 18019 
3 416 417 
3 415 416 
3 4153 4154 
2 1486 1487 
1 2430 5544 
2 2429 2430 
2 2428 2429 
1 1488 2428 
2 1487 1488 
2 13523 13524 
3 12023 12024 
3 12022 12023 
1 12022 15384 
2 8803 8804 
3 4735 4736 
1 4735 8043 
2 8042 8043 
2 8041 8042 
3 9302 9303 
3 9301 9302 
3 4154 4155 
2 19835 19836 
2 20020 20021 
1 15414 20020 
3 5951 5952 
3 5950 5951 
3 80 81 
3 79 80 
1 79 15891 
1 81 5950 
2 15890 15891 
2 15889 15890 
2 4973 4974 
2 4972 4973 
3 11362 11363 
1 4974 11362 
3 13783 13784 
3 13784 13785 
1 540 13783 
1 4800 19194 
3 4805 4806 
3 19192 19193 
3 19193 19194 
2 15655 15656 
3 15413 15414 
3 15412 15413 
1 8814 15412 
3 8813 8814 
3 539 540 
3 538 539 
3 4798 4799 
3 4799 4800 
3 1352 1353 
3 1351 1352 
2 9676 9677 
2 9677 9678 
1 15657 19137 
2 15656 15657 
3 19136 19137 
3 13825 13826 
1 13825 19135 
3 19135 19136 
2 11905 11906 
2 11906 11907 
1 13827 19303 
3 13826 13827 
2 19303 19304 
2 6223 6224 
2 5764 5765 
2 5765 5766 
2 1018 1019 
3 19843 19844 
3 19844 19845 
3 11603 11604 
3 11602 11603 
3 14539 14540 
2 1019 1020 
3 149 150 
2 8836 8837 
1 8836 12489 
2 8837 8838 
3 4361 4362 
3 4360 4361 
1 4362 8838 
3 20638 20639 
1 1371 20638 
3 1370 1371 
3 1369 1370 
3 12353 12354 
3 12352 12353 
3 148 149 
3 8081 8082 
3 5761 5762 
3 12836 12837 
3 12835 12836 
1 4752 12837 
3 4751 4752 
3 12584 12585 
3 12583 12584 
1 1416 9358 
3 1415 1416 
2 10073 10074 
2 10072 10073 
2 14572 14573 
2 14573 14574 
2 1940 1941 
2 1939 1940 
1 1939 3037 
2 3037 3038 
2 3392 3393 
2 4199 4200 
2 4198 4199 
1 4198 10926 
2 10925 10926 
2 10924 10925 
1 10924 21454 
2 5908 5909 
2 5909 5910 
3 715 716 
1 715 3154 
3 3155 3156 
3 3154 3155 
3 716 717 
3 9431 9432 
3 19724 19725 
2 11132 11133 
2 11131 11132 
2 233 234 
2 232 233 
3 19766 19767 
3 19765 19766 
3 7196 7197 
3 7195 7196 
2 7655 7656 
3 14768 14769 
3 14767 14768 
3 7721 7722 
1 7722 19723 
3 19723 19724 
3 7720 7721 
3 9958 9959 
3 4810 4811 
1 4810 20704 
3 20704 20705 
3 20705 20706 
3 9976 9977 
3 9977 9978 
3 6785 6786 
3 6784 6785 
3 2632 2633 
1 2632 14847 
3 2633 2634 
1 2634 5514 
3 5513 5514 
3 5512 5513 
3 14845 14846 
3 14846 14847 
3 17053 17054 
1 17053 20706 
3 17054 17055 
2 21496 21497 
2 12086 12087 
2 12085 12086 
2 14860 14861 
2 14861 14862 
2 1936 1937 
2 1937 1938 
1 1938 14862 
3 12695 12696 
3 14239 14240 
3 14240 14241 
3 12694 12695 
3 3083 3084 
3 2101 2102 
1 2101 3084 
3 2102 2103 
1 2103 11832 
2 17884 17885 
2 17885 17886 
2 13579 13580 
2 16856 16857 
2 16855 16856 
2 1027 1028 
2 8744 8745 
2 8743 8744 
2 13580 13581 
2 724 725 
2 725 726 
2 2575 2576 
1 2575 9825 
2 2576 2577 
3 9824 9825 
3 6008 6009 
3 19952 19953 
3 9553 9554 
2 6650 6651 
2 6649 6650 
1 6651 9553 
3 9554 9555 
3 14143 14144 
1 8067 16857 
2 8066 8067 
2 8065 8066 
3 2597 2598 
2 15496 15497 
2 15497 15498 
3 15382 15383 
3 17654 17655 
3 15383 15384 
2 7828 7829 
3 19951 19952 
3 18673 18674 
3 5542 5543 
3 5543 5544 
2 13522 13523 
2 15760 15761 
2 15761 15762 
2 8804 8805 
2 6323 6324 
2 6322 6323 
3 4736 4737 
2 12184 12185 
2 280 281 
1 280 6508 
3 6508 6509 
3 6509 6510 
2 281 282 
3 1879 1880 
3 1880 1881 
1 1881 11364 
3 11363 11364 
3 4804 4805 
2 12185 12186 
3 8812 8813 
3 14114 14115 
3 8776 8777 
3 18182 18183 
3 18181 18182 
2 6280 6281 
1 6280 18181 
2 6281 6282 
3 15109 15110 
3 15110 15111 
3 14113 14114 
1 6861 15652 
3 15652 15653 
3 6859 6860 
3 6860 6861 
3 12622 12623 
1 3867 9805 
3 9805 9806 
3 9806 9807 
1 8778 9807 
3 8777 8778 
3 3866 3867 
3 2195 2196 
3 2194 2195 
1 477 2194 
3 18943 18944 
3 15904 15905 
3 15905 15906 
3 18944 18945 
3 10732 10733 
3 10733 10734 
3 19820 19821 
3 19819 19820 
2 14803 14804 
2 14804 14805 
3 12487 12488 
3 476 477 
2 8596 8597 
3 475 476 
1 475 8596 
2 8597 8598 
2 16673 16674 
3 18553 18554 
3 14540 14541 
2 12115 12116 
2 12116 12117 
3 12488 12489 
3 6283 6284 
3 8080 8081 
3 20639 20640 
2 16672 16673 
3 18554 18555 
2 18533 18534 
2 18532 18533 
1 18532 18555 
2 10901 10902 
2 10900 10901 
1 10900 18534 
2 21385 21386 
2 21386 21387 
2 3916 3917 
2 3917 3918 
2 6422 6423 
2 6421 6422 
3 6284 6285 
3 21244 21245 
3 21245 21246 
2 20851 20852 
2 20852 20853 
3 19889 19890 
3 19888 19889 
3 8536 8537 
3 8537 8538 
3 5762 5763 
3 11800 11801 
2 17212 17213 
2 3391 3392 
1 3391 5500 
2 5501 5502 
2 5500 5501 
2 21455 21456 
2 21454 21455 
2 14828 14829 
2 21101 21102 
2 1469 1470 
2 1468 1469 
2 21100 21101 
2 14827 14828 
1 14827 21102 
3 17759 17760 
3 17758 17759 
3 10151 10152 
3 10150 10151 
2 18323 18324 
2 18322 18323 
3 21557 21558 
3 13069 13070 
3 13070 13071 
3 3760 3761 
3 2116 2117 
3 2117 2118 
3 19280 19281 
3 19279 19280 
2 1342 1343 
2 1343 1344 
3 11314 11315 
3 11315 11316 
3 3761 3762 
2 10643 10644 
3 4811 4812 
2 3904 3905 
2 3905 3906 
3 5678 5679 
2 1405 1406 
2 1406 1407 
2 12166 12167 
2 12167 12168 
2 12394 12395 
2 12395 12396 
3 6151 6152 
1 6153 12396 
3 6152 6153 
3 13831 13832 
3 13832 13833 
3 10910 10911 
3 10909 10910 
2 20092 20093 
2 20093 20094 
3 5677 5678 
3 3661 3662 
3 3662 3663 
2 3764 3765 
2 3763 3764 
2 8018 8019 
2 8017 8018 
3 4366 4367 
3 4367 4368 
1 4368 12495 
2 20180 20181 
2 20179 20180 
3 3983 3984 
2 2294 2295 
2 13406 13407 
2 13405 13406 
2 19846 19847 
3 9821 9822 
3 9820 9821 
2 260 261 
2 259 260 
3 10601 10602 
3 10600 10601 
3 10436 10437 
3 11831 11832 
1 10437 11830 
3 11830 11831 
2 2293 2294 
3 21257 21258 
3 10354 10355 
3 10355 10356 
2 19847 19848 
2 1157 1158 
2 1156 1157 
1 261 1156 
3 10435 10436 
3 2596 2597 
3 5068 5069 
3 9823 9824 
3 7648 7649 
3 17342 17343 
3 6007 6008 
1 6007 17341 
3 17341 17342 
3 7649 7650 
3 14144 14145 
3 13370 13371 
3 13369 13370 
2 10790 10791 
2 10789 10790 
3 5069 5070 
2 401 402 
2 400 401 
3 17653 17654 
2 7829 7830 
3 21569 21570 
3 21568 21569 
1 1050 9555 
3 1049 1050 
3 1048 1049 
1 1048 13371 
3 19856 19857 
3 19855 19856 
2 5360 5361 
2 5359 5360 
1 5359 18100 
2 18100 18101 
3 17789 17790 
3 17788 17789 
2 2398 2399 
2 2399 2400 
2 11927 11928 
2 11926 11927 
2 18101 18102 
2 4051 4052 
1 4051 18102 
3 20225 20226 
1 8148 20226 
3 20224 20225 
3 1345 1346 
3 1346 1347 
3 4225 4226 
3 4226 4227 
2 12349 12350 
1 12349 19650 
2 12350 12351 
3 4612 4613 
1 4612 12351 
3 4613 4614 
3 12623 12624 
3 15653 15654 
1 12624 15219 
3 15218 15219 
3 15217 15218 
1 15217 21219 
3 3865 3866 
2 8764 8765 
2 8765 8766 
1 4185 10734 
3 4184 4185 
3 4183 4184 
3 1552 1553 
3 1553 1554 
1 1554 15700 
2 5660 5661 
2 8891 8892 
1 5661 8892 
2 5659 5660 
1 10992 15654 
3 10990 10991 
3 10991 10992 
2 86 87 
1 87 7542 
2 85 86 
3 17330 17331 
3 3884 3885 
3 3883 3884 
3 3127 3128 
1 3127 3883 
3 3128 3129 
2 15407 15408 
3 8632 8633 
3 8633 8634 
2 8890 8891 
3 17609 17610 
3 17608 17609 
2 1864 1865 
2 1865 1866 
2 9868 9869 
2 9869 9870 
2 766 767 
2 767 768 
3 10340 10341 
3 10339 10340 
1 10339 16932 
3 16931 16932 
3 16930 16931 
2 5051 5052 
2 5050 5051 
2 20428 20429 
3 17026 17027 
3 19429 19430 
3 19430 19431 
3 17027 17028 
2 17213 17214 
2 9275 9276 
2 9274 9275 
1 9274 15744 
2 9971 9972 
2 9970 9971 
3 10703 10704 
3 5720 5721 
3 17104 17105 
3 17105 17106 
3 9391 9392 
1 9391 21087 
3 9392 9393 
3 21085 21086 
3 21086 21087 
3 21556 21557 
3 5008 5009 
3 10439 10440 
3 4489 4490 
1 4489 10438 
3 10438 10439 
1 3762 7086 
3 7085 7086 
3 20324 20325 
2 14234 14235 
2 14005 14006 
3 15596 15597 
3 10702 10703 
1 10702 15595 
3 15595 15596 
2 6733 6734 
3 5719 5720 
1 9393 11314 
2 4060 4061 
3 7084 7085 
2 3593 3594 
1 7728 10642 
2 7726 7727 
2 10642 10643 
2 7727 7728 
2 14006 14007 
3 4046 4047 
3 4045 4046 
3 1090 1091 
2 3361 3362 
2 3362 3363 
3 20473 20474 
3 20474 20475 
3 1091 1092 
2 13322 13323 
2 19348 19349 
1 13323 19348 
2 19349 19350 
2 13321 13322 
2 18556 18557 
3 12494 12495 
3 12493 12494 
3 3982 3983 
2 5770 5771 
2 5771 5772 
3 7895 7896 
1 9354 21549 
3 9353 9354 
3 21548 21549 
3 21547 21548 
3 21256 21257 
3 1756 1757 
1 1756 10356 
3 1757 1758 
3 10535 10536 
3 11596 11597 
3 10534 10535 
1 10534 11596 
3 11597 11598 
1 2949 15022 
3 15022 15023 
2 2948 2949 
3 9352 9353 
3 15023 15024 
2 19591 19592 
2 19592 19593 
2 19531 19532 
1 19531 19593 
1 19533 20283 
3 20282 20283 
3 7837 7838 
1 7837 11368 
3 11368 11369 
3 7838 7839 
3 17321 17322 
3 17320 17321 
2 13147 13148 
2 13148 13149 
1 8442 13149 
3 20281 20282 
3 14974 14975 
1 14974 20281 
3 14975 14976 
1 13557 14976 
2 13556 13557 
3 1558 1559 
3 1559 1560 
3 2305 2306 
3 2306 2307 
3 2693 2694 
1 2694 14551 
2 14551 14552 
3 8543 8544 
3 8542 8543 
3 2692 2693 
1 2692 8542 
2 16399 16400 
3 8189 8190 
3 8188 8189 
1 8188 16401 
2 16400 16401 
2 13555 13556 
1 10554 18354 
3 18353 18354 
3 18352 18353 
2 4052 4053 
2 19648 19649 
2 8966 8967 
2 8965 8966 
3 11812 11813 
3 11813 11814 
2 19649 19650 
2 1886 1887 
2 1885 1886 
3 8147 8148 
3 8146 8147 
3 20203 20204 
3 20204 20205 
3 21218 21219 
3 21217 21218 
1 6453 21217 
3 6452 6453 
3 6451 6452 
3 18802 18803 
3 3701 3702 
3 3700 3701 
3 15700 15701 
3 15701 15702 
3 2797 2798 
3 12952 12953 
1 12952 18804 
3 12953 12954 
1 699 20107 
3 20108 20109 
3 20107 20108 
2 7540 7541 
2 7541 7542 
3 698 699 
3 697 698 
3 17329 17330 
3 11440 11441 
3 11441 11442 
2 15406 15407 
3 2206 2207 
1 2206 15702 
3 2207 2208 
3 10276 10277 
3 10277 10278 
2 15322 15323 
2 15323 15324 
3 5096 5097 
3 5095 5096 
3 14893 14894 
3 14894 14895 
2 6979 6980 
2 6980 6981 
2 2549 2550 
2 2548 2549 
2 17677 17678 
2 20011 20012 
2 20012 20013 
3 19697 19698 
3 20633 20634 
3 10819 10820 
1 10819 20634 
3 10820 10821 
1 10821 19698 
2 12526 12527 
3 10171 10172 
2 15742 15743 
2 15743 15744 
2 9005 9006 
2 9004 9005 
3 5009 5010 
1 3630 8494 
2 3629 3630 
2 8494 8495 
2 12466 12467 
2 3628 3629 
1 3628 12466 
3 20632 20633 
3 20323 20324 
1 20323 20632 
2 14233 14234 
3 11461 11462 
1 11461 12273 
3 11462 11463 
2 6734 6735 
2 1832 1833 
2 1831 1832 
1 1831 21282 
1 1833 8215 
2 4061 4062 
2 8216 8217 
2 8215 8216 
1 8217 9318 
2 9317 9318 
2 20189 20190 
2 12467 12468 
2 3592 3593 
3 9767 9768 
3 5108 5109 
3 5107 5108 
3 9766 9767 
3 1835 1836 
3 19507 19508 
2 21281 21282 
2 21280 21281 
2 9316 9317 
2 19600 19601 
2 19601 19602 
2 1901 1902 
2 20359 20360 
2 20360 20361 
3 19508 19509 
3 13213 13214 
3 7894 7895 
3 13214 13215 
2 18557 18558 
3 14230 14231 
3 14231 14232 
2 9566 9567 
2 9565 9566 
3 8770 8771 
1 8770 9567 
3 1421 1422 
1 11958 14232 
3 11956 11957 
1 11956 18121 
3 11957 11958 
3 18121 18122 
2 15041 15042 
2 15040 15041 
2 4607 4608 
2 4606 4607 
2 21500 21501 
2 21499 21500 
2 6397 6398 
3 7871 7872 
3 7870 7871 
3 1420 1421 
3 14807 14808 
3 14806 14807 
3 18122 18123 
1 6912 18123 
3 6910 6911 
1 6910 19614 
3 6911 6912 
2 2947 2948 
2 6398 6399 
3 6985 6986 
1 6399 6985 
3 6986 6987 
2 3782 3783 
2 3781 3782 
3 15439 15440 
3 15440 15441 
3 19613 19614 
3 19612 19613 
2 8440 8441 
2 8441 8442 
2 19532 19533 
3 11369 11370 
2 9389 9390 
2 9388 9389 
2 4969 4970 
2 572 573 
2 571 572 
2 4970 4971 
2 10514 10515 
2 10513 10514 
2 4619 4620 
2 4618 4619 
2 14552 14553 
2 857 858 
1 858 14553 
2 15643 15644 
2 15644 15645 
2 8735 8736 
2 8734 8735 
1 8736 11293 
2 11293 11294 
2 11294 11295 
3 15536 15537 
3 15535 15536 
2 856 857 
2 16261 16262 
2 10553 10554 
2 10552 10553 
2 16262 16263 
2 8003 8004 
2 8002 8003 
2 12059 12060 
2 12058 12059 
1 12058 14604 
3 14602 14603 
3 14603 14604 
1 5823 14602 
3 5822 5823 
3 5821 5822 
1 5821 10752 
2 15037 15038 
2 15038 15039 
3 16157 16158 
3 10742 10743 
3 4426 4427 
3 4427 4428 
2 19757 19758 
2 19756 19757 
2 14947 14948 
2 14948 14949 
2 14441 14442 
2 14440 14441 
3 2798 2799 
3 18803 18804 
3 14698 14699 
1 14698 21324 
3 14699 14700 
2 4933 4934 
2 4934 4935 
3 7214 7215 
3 7213 7214 
1 10278 12610 
3 12610 12611 
3 12611 12612 
2 7756 7757 
2 7757 7758 
2 21323 21324 
2 21322 21323 
2 3718 3719 
2 3719 3720 
3 2732 2733 
3 2731 2732 
1 2731 3720 
3 10889 10890 
3 10888 10889 
3 3430 3431 
3 65 66 
3 64 65 
2 7123 7124 
2 7124 7125 
3 14795 14796 
3 14794 14795 
3 6559 6560 
3 6560 6561 
3 19034 19035 
3 19696 19697 
3 10172 10173 
3 15508 15509 
2 20188 20189 
3 15404 15405 
3 15403 15404 
1 10446 15403 
3 10445 10446 
3 10444 10445 
3 13373 13374 
3 3808 3809 
1 3808 13374 
3 3809 3810 
3 13372 13373 
1 13372 16077 
2 9211 9212 
2 12271 12272 
2 12272 12273 
2 13504 13505 
2 13505 13506 
3 15509 15510 
2 15811 15812 
2 15812 15813 
2 8495 8496 
2 13298 13299 
2 9212 9213 
1 4164 9213 
2 4163 4164 
2 4162 4163 
3 21172 21173 
1 11463 21172 
3 21173 21174 
3 1834 1835 
2 9665 9666 
2 9049 9050 
2 9050 9051 
2 8095 8096 
2 8096 8097 
2 1900 1901 
2 9664 9665 
3 21577 21578 
3 1088 1089 
3 1087 1088 
3 8771 8772 
3 21578 21579 
2 6259 6260 
2 4330 4331 
2 4331 4332 
2 18025 18026 
2 17483 17484 
2 17482 17483 
3 17395 17396 
3 14695 14696 
1 14695 18981 
3 14696 14697 
2 17791 17792 
2 12715 12716 
1 9687 17482 
2 9686 9687 
1 7404 9685 
2 9685 9686 
3 17396 17397 
3 18980 18981 
3 18979 18980 
3 4429 4430 
2 12356 12357 
2 2918 2919 
2 2917 2918 
3 3493 3494 
3 3494 3495 
2 12716 12717 
2 7403 7404 
3 20584 20585 
2 13136 13137 
2 13135 13136 
2 14030 14031 
2 14029 14030 
1 7866 14029 
3 7865 7866 
1 4431 7864 
3 7864 7865 
3 4430 4431 
2 12355 12356 
2 7307 7308 
1 7308 16632 
3 16630 16631 
3 16631 16632 
3 620 621 
1 621 5152 
2 5152 5153 
3 7579 7580 
3 7580 7581 
2 17708 17709 
2 17707 17708 
3 6038 6039 
3 13099 13100 
2 13018 13019 
1 13018 13099 
2 13019 13020 
1 9174 15537 
3 9172 9173 
3 9173 9174 
2 14645 14646 
2 14644 14645 
2 1244 1245 
2 1243 1244 
2 5153 5154 
3 10751 10752 
3 10750 10751 
1 10750 11806 
3 11806 11807 
3 11807 11808 
3 13100 13101 
3 700 701 
3 701 702 
3 17785 17786 
3 16156 16157 
3 10741 10742 
3 18967 18968 
3 18968 18969 
1 18969 20140 
3 20140 20141 
3 3235 3236 
2 2017 2018 
3 20141 20142 
3 11902 11903 
1 11902 20142 
3 11903 11904 
3 11204 11205 
3 11203 11204 
3 11261 11262 
1 207 11262 
3 206 207 
3 205 206 
2 2018 2019 
3 5186 5187 
3 5185 5186 
1 5187 11260 
3 11260 11261 
3 2495 2496 
3 15103 15104 
3 3431 3432 
3 3142 3143 
3 3143 3144 
3 18400 18401 
3 1186 1187 
1 1186 18400 
3 18401 18402 
3 17947 17948 
2 18293 18294 
3 15104 15105 
3 2494 2495 
1 2494 15105 
3 4699 4700 
3 10457 10458 
3 7553 7554 
1 7125 10456 
3 10456 10457 
3 10124 10125 
3 10123 10124 
2 20477 20478 
2 20476 20477 
3 1187 1188 
1 1188 10801 
2 10801 10802 
2 10802 10803 
2 20666 20667 
2 20665 20666 
2 3475 3476 
2 3476 3477 
1 3477 5911 
2 10564 10565 
2 10565 10566 
3 1235 1236 
3 1234 1235 
1 1234 8289 
3 11269 11270 
2 1595 1596 
2 20153 20154 
2 20152 20153 
3 6412 6413 
2 3350 3351 
2 3349 3350 
2 8288 8289 
2 8287 8288 
3 11270 11271 
3 6242 6243 
3 6241 6242 
3 5600 5601 
1 5601 8235 
3 5599 5600 
2 1594 1595 
2 9592 9593 
2 9593 9594 
3 8962 8963 
3 8963 8964 
2 9965 9966 
2 9964 9965 
2 7787 7788 
2 7786 7787 
1 7786 9966 
2 13297 13298 
1 13297 18033 
3 18032 18033 
3 18031 18032 
3 19556 19557 
1 19197 19555 
3 19555 19556 
2 19196 19197 
2 19195 19196 
2 254 255 
2 253 254 
3 8233 8234 
3 8234 8235 
2 12307 12308 
2 12308 12309 
3 16345 16346 
2 7657 7658 
2 7658 7659 
3 6263 6264 
2 5243 5244 
2 5242 5243 
3 16820 16821 
2 2716 2717 
1 2716 16821 
2 2717 2718 
3 16346 16347 
2 15241 15242 
2 15242 15243 
3 18799 18800 
3 18800 18801 
2 4256 4257 
2 4255 4256 
1 4255 17835 
2 9010 9011 
2 17833 17834 
2 17834 17835 
2 11455 11456 
2 11456 11457 
3 6262 6263 
1 6262 11457 
3 21008 21009 
3 21007 21008 
3 14503 14504 
3 14504 14505 
2 1010 1011 
2 1009 1010 