ITEM: TIMESTEP
0
ITEM: NUMBER OF ATOMS
435
ITEM: BOX BOUNDS pp pp pp
0.0000000000000000e+00 5.0000000000000000e+01
0.0000000000000000e+00 5.0000000000000000e+01
0.0000000000000000e+00 5.0000000000000000e+01
ITEM: ATOMS id type 
7 1 
8 3 
9 1 
427 1 
428 3 
429 1 
439 1 
440 3 
441 1 
487 1 
488 2 
489 1 
2542 1 
2543 3 
2544 1 
3208 1 
3209 3 
3210 1 
3259 1 
3260 2 
3261 1 
3505 1 
3506 3 
3507 1 
3745 1 
3746 3 
3747 1 
4621 1 
4622 3 
4623 1 
4630 1 
4631 3 
4632 1 
5713 1 
5714 3 
5715 1 
5842 1 
5843 3 
5844 1 
7036 1 
7037 3 
7038 1 
8902 1 
8903 3 
8904 1 
8950 1 
8951 3 
8952 1 
9028 1 
9029 3 
9030 1 
9085 1 
9086 3 
9087 1 
11188 1 
11189 3 
11190 1 
11425 1 
11426 3 
11427 1 
12373 1 
12374 3 
12375 1 
12490 1 
12491 3 
12492 1 
13150 1 
13151 3 
13152 1 
13159 1 
13160 3 
13161 1 
13516 1 
13517 3 
13518 1 
14608 1 
14609 3 
14610 1 
16384 1 
16385 3 
16386 1 
16513 1 
16514 3 
16515 1 
17722 1 
17723 3 
17724 1 
17779 1 
17780 3 
17781 1 
19561 1 
19562 3 
19563 1 
20644 1 
20645 3 
20646 1 
91 1 
92 2 
93 1 
118 1 
119 3 
120 1 
172 1 
173 3 
174 1 
1291 1 
1292 3 
1293 1 
1480 1 
1481 3 
1482 1 
3418 1 
3419 3 
3420 1 
3595 1 
3596 3 
3597 1 
3631 1 
3632 2 
3633 1 
3694 1 
3695 2 
3696 1 
4480 1 
4481 2 
4482 1 
5749 1 
5750 3 
5751 1 
5794 1 
5795 3 
5796 1 
7075 1 
7076 3 
7077 1 
8011 1 
8012 3 
8013 1 
8206 1 
8207 3 
8208 1 
8218 1 
8219 3 
8220 1 
8251 1 
8252 3 
8253 1 
8323 1 
8324 3 
8325 1 
10174 1 
10175 3 
10176 1 
10486 1 
10487 3 
10488 1 
11392 1 
11393 3 
11394 1 
11449 1 
11450 3 
11451 1 
12160 1 
12161 3 
12162 1 
12286 1 
12287 3 
12288 1 
12331 1 
12332 3 
12333 1 
12343 1 
12344 3 
12345 1 
14335 1 
14336 3 
14337 1 
15460 1 
15461 3 
15462 1 
15529 1 
15530 3 
15531 1 
15631 1 
15632 3 
15633 1 
15634 1 
15635 2 
15636 1 
15775 1 
15776 3 
15777 1 
18580 1 
18581 3 
18582 1 
20911 1 
20912 3 
20913 1 
787 1 
788 3 
789 1 
808 1 
809 3 
810 1 
841 1 
842 3 
843 1 
1702 1 
1703 3 
1704 1 
2053 1 
2054 3 
2055 1 
2170 1 
2171 3 
2172 1 
2188 1 
2189 3 
2190 1 
2725 1 
2726 3 
2727 1 
2773 1 
2774 3 
2775 1 
2836 1 
2837 3 
2838 1 
3961 1 
3962 3 
3963 1 
4099 1 
4100 3 
4101 1 
4993 1 
4994 3 
4995 1 
7339 1 
7340 3 
7341 1 
7453 1 
7454 3 
7455 1 
8347 1 
8348 3 
8349 1 
9736 1 
9737 3 
9738 1 
10576 1 
10577 3 
10578 1 
10996 1 
10997 3 
10998 1 
11002 1 
11003 3 
11004 1 
11584 1 
11585 2 
11586 1 
13984 1 
13985 3 
13986 1 
14704 1 
14705 3 
14706 1 
14761 1 
14762 3 
14763 1 
15016 1 
15017 3 
15018 1 
15028 1 
15029 3 
15030 1 
15145 1 
15146 3 
15147 1 
15253 1 
15254 3 
15255 1 
17845 1 
17846 3 
17847 1 
18148 1 
18149 3 
18150 1 
18973 1 
18974 2 
18975 1 
19156 1 
19157 3 
19158 1 
19327 1 
19328 3 
19329 1 
20068 1 
20069 3 
20070 1 
20167 1 
20168 3 
20169 1 
20242 1 
20243 3 
20244 1 
20362 1 
20363 3 
20364 1 
21082 1 
21083 3 
21084 1 
21088 1 
21089 3 
21090 1 
21436 1 
21437 3 
21438 1 
21553 1 
21554 3 
21555 1 
763 1 
764 3 
765 1 
778 1 
779 3 
780 1 
820 1 
821 3 
822 1 
838 1 
839 3 
840 1 
2089 1 
2090 3 
2091 1 
2134 1 
2135 3 
2136 1 
2755 1 
2756 3 
2757 1 
2794 1 
2795 3 
2796 1 
3031 1 
3032 3 
3033 1 
3109 1 
3110 3 
3111 1 
5218 1 
5219 3 
5220 1 
5389 1 
5390 3 
5391 1 
6109 1 
6110 3 
6111 1 
6643 1 
6644 3 
6645 1 
8512 1 
8513 3 
8514 1 
9598 1 
9599 3 
9600 1 
10660 1 
10661 3 
10662 1 
10717 1 
10718 3 
10719 1 
11809 1 
11810 3 
11811 1 
11875 1 
11876 3 
11877 1 
12037 1 
12038 3 
12039 1 
12889 1 
12890 3 
12891 1 
13720 1 
13721 3 
13722 1 
14020 1 
14021 3 
14022 1 
14023 1 
14024 3 
14025 1 
15994 1 
15995 3 
15996 1 
16246 1 
16247 3 
16248 1 
17098 1 
17099 3 
17100 1 
18169 1 
18170 2 
18171 1 
18238 1 
18239 3 
18240 1 
19066 1 
19067 3 
19068 1 
19123 1 
19124 3 
19125 1 
20026 1 
20027 3 
20028 1 
20077 1 
20078 3 
20079 1 
20209 1 
20210 3 
20211 1 
20431 1 
20432 3 
20433 1 
21226 1 
21227 3 
21228 1 
21478 1 
21479 3 
21480 1 
