ITEM: TIMESTEP
20000000
ITEM: NUMBER OF ENTRIES
150
ITEM: BOX BOUNDS pp pp pp
0 50
0 50
0 50
ITEM: ENTRIES c_binfo[1] c_binfo[2] c_binfo[3] 
2 14344 14345 
2 8944 8945 
1 8944 20574 
2 10973 10974 
2 14345 14346 
2 14783 14784 
2 14782 14783 
1 14346 14782 
1 5655 14784 
2 20572 20573 
2 20573 20574 
2 12145 12146 
2 12146 12147 
2 14567 14568 
2 1325 1326 
1 1326 14568 
2 11507 11508 
2 5653 5654 
2 5654 5655 
2 11506 11507 
1 3759 12147 
1 5781 14566 
2 14566 14567 
2 5779 5780 
2 5780 5781 
2 8945 8946 
1 8946 10315 
2 10315 10316 
2 10316 10317 
2 18724 18725 
2 18725 18726 
2 5462 5463 
2 10972 10973 
1 10972 20799 
2 11233 11234 
1 5463 11233 
2 20798 20799 
2 20797 20798 
2 13387 13388 
1 13387 20797 
2 11234 11235 
2 6878 6879 
2 1324 1325 
1 1324 11497 
2 11497 11498 
2 11498 11499 
2 5845 5846 
1 5845 11235 
2 5846 5847 
2 6877 6878 
1 5847 6877 
2 5693 5694 
2 5692 5693 
1 5692 21393 
1 8763 18726 
2 8762 8763 
2 8761 8762 
2 13388 13389 
2 3758 3759 
2 3757 3758 
1 3757 15502 
2 15502 15503 
2 15503 15504 
2 7798 7799 
1 7798 15504 
2 7799 7800 
2 7019 7020 
2 21391 21392 
2 7018 7019 
1 7018 21391 
2 21392 21393 
1 7020 16101 
2 17431 17432 
2 17432 17433 
2 16100 16101 
2 16099 16100 
2 13361 13362 
2 13360 13361 
1 5214 13360 
2 20150 20151 
2 5461 5462 
2 16484 16485 
2 16483 16484 
1 11391 16483 
2 11390 11391 
2 11389 11390 
2 5212 5213 
1 5212 16485 
2 5213 5214 
2 15662 15663 
2 15661 15662 
2 5827 5828 
2 5828 5829 
2 19388 19389 
1 5829 19389 
2 16379 16380 
2 13108 13109 
1 13108 16378 
2 16378 16379 
2 5641 5642 
1 5641 13389 
2 5642 5643 
2 12761 12762 
2 13109 13110 
3 9100 9101 
1 9100 17433 
2 19387 19388 
1 19387 20040 
2 20039 20040 
2 20038 20039 
1 9102 20038 
3 9101 9102 
2 1054 1055 
1 1054 13362 
2 1055 1056 
1 1056 15229 
3 15229 15230 
2 20149 20150 
2 3853 3854 
1 3853 20149 
2 3854 3855 
3 15230 15231 
2 12361 12362 
1 12361 15663 
2 12362 12363 
3 11375 11376 
3 11374 11375 
1 3855 11376 
2 4363 4364 
1 4363 13110 
1 273 4365 
2 272 273 
2 4364 4365 
2 12760 12761 
2 6865 6866 
1 6865 12760 
2 6866 6867 
3 18247 18248 
3 18248 18249 
1 11784 12483 
3 12482 12483 
3 12481 12482 
1 12481 18249 
3 11782 11783 
1 11782 15231 
3 11783 11784 
2 6841 6842 
2 6842 6843 
2 271 272 
1 271 6841 
