ITEM: TIMESTEP
20000000
ITEM: NUMBER OF ENTRIES
443
ITEM: BOX BOUNDS pp pp pp
0 50
0 50
0 50
ITEM: ENTRIES c_binfo[1] c_binfo[2] c_binfo[3] 
2 4262 4263 
1 4263 11079 
2 4261 4262 
1 4261 13210 
2 13210 13211 
2 13211 13212 
2 16850 16851 
2 16849 16850 
2 11078 11079 
2 11077 11078 
1 11077 16851 
2 19925 19926 
2 11090 11091 
2 11089 11090 
1 2901 11089 
2 19924 19925 
2 637 638 
1 637 19924 
2 13456 13457 
2 2900 2901 
2 2899 2900 
1 2899 12900 
2 12899 12900 
2 12898 12899 
1 12898 21477 
2 21476 21477 
2 21475 21476 
1 8859 21475 
2 14462 14463 
2 14461 14462 
1 11040 14463 
3 12674 12675 
3 12673 12674 
1 12673 17598 
1 16350 17626 
2 17626 17627 
2 17596 17597 
1 17596 17628 
2 17627 17628 
2 17597 17598 
2 16349 16350 
2 16348 16349 
3 16235 16236 
2 20437 20438 
2 20438 20439 
2 15367 15368 
2 15368 15369 
2 20594 20595 
3 16234 16235 
3 3124 3125 
1 3124 16234 
1 3126 20439 
3 3125 3126 
2 14191 14192 
2 14192 14193 
2 20593 20594 
1 14193 20593 
2 10861 10862 
2 1814 1815 
2 1813 1814 
2 9184 9185 
1 9184 18283 
2 18283 18284 
2 18284 18285 
2 16766 16767 
2 16765 16766 
1 16765 18285 
2 12079 12080 
1 12081 16620 
2 12080 12081 
2 9185 9186 
1 1575 16698 
2 1574 1575 
2 1573 1574 
1 1573 9186 
2 10862 10863 
1 2778 10863 
2 2777 2778 
2 2776 2777 
3 16697 16698 
3 16696 16697 
2 4235 4236 
2 4234 4235 
1 4236 6064 
2 14090 14091 
2 6064 6065 
2 6065 6066 
1 6066 14089 
2 14089 14090 
1 14091 16618 
2 16618 16619 
2 16619 16620 
2 1774 1775 
1 1774 2776 
2 1775 1776 
2 16891 16892 
3 2150 2151 
3 14378 14379 
3 14377 14378 
3 2149 2150 
1 2149 14377 
3 1807 1808 
1 1807 14379 
3 1808 1809 
2 11176 11177 
2 11177 11178 
2 7172 7173 
2 5092 5093 
1 5092 7173 
2 7171 7172 
2 16892 16893 
2 811 812 
2 812 813 
1 1809 7171 
2 11593 11594 
1 3849 11593 
2 3848 3849 
2 3847 3848 
1 3847 11178 
2 13381 13382 
2 3065 3066 
2 2482 2483 
1 2482 3064 
2 3064 3065 
2 2483 2484 
2 11851 11852 
2 20488 20489 
2 20489 20490 
1 10659 20490 
2 5849 5850 
2 5848 5849 
3 3835 3836 
1 3835 12504 
3 3836 3837 
2 11852 11853 
2 10658 10659 
2 10657 10658 
2 2197 2198 
1 2197 10657 
2 2198 2199 
2 16868 16869 
2 18881 18882 
2 18629 18630 
2 18628 18629 
1 18628 18880 
2 18880 18881 
2 5093 5094 
2 14273 14274 
2 14272 14273 
2 12503 12504 
2 4583 4584 
2 4582 4583 
1 4582 17071 
2 17072 17073 
2 17071 17072 
2 12502 12503 
2 5017 5018 
1 5017 6996 
2 6995 6996 
2 6994 6995 
1 6994 20448 
2 7187 7188 
2 7186 7187 
2 14855 14856 
2 16601 16602 
2 16600 16601 
2 16112 16113 
1 16113 16869 
2 12646 12647 
2 12647 12648 
2 16111 16112 
1 16111 16600 
2 4610 4611 
1 762 4609 
2 4609 4610 
2 761 762 
2 760 761 
1 760 21027 
2 16708 16709 
2 14321 14322 
1 8505 14322 
2 11594 11595 
2 8504 8505 
2 8503 8504 
1 8503 11595 
2 16709 16710 
2 16844 16845 
3 20446 20447 
3 20447 20448 
2 10933 10934 
2 10934 10935 
1 10773 10933 
2 10772 10773 
2 11839 11840 
1 11839 13212 
1 11763 12646 
1 13383 16602 
2 11761 11762 
2 11762 11763 
2 13382 13383 
2 11840 11841 
2 21026 21027 
2 21025 21026 
2 2875 2876 
2 1063 1064 
1 1063 16845 
2 2876 2877 
2 1064 1065 
3 12016 12017 
1 12016 19941 
3 12017 12018 
3 19940 19941 
3 19939 19940 
1 19939 20223 
2 16324 16325 
2 8306 8307 
2 8305 8306 
1 8305 16903 
2 16903 16904 
1 8307 16324 
2 16325 16326 
1 3837 16326 
1 1977 2088 
2 2087 2088 
2 2086 2087 
2 3050 3051 
2 16867 16868 
1 16867 17839 
2 17839 17840 
2 17840 17841 
2 6470 6471 
1 5865 6469 
2 6469 6470 
2 5776 5777 
2 5777 5778 
1 5778 19675 
2 19675 19676 
2 19676 19677 
1 5019 12502 
2 5018 5019 
2 5864 5865 
2 14320 14321 
2 5863 5864 
1 5863 14320 
2 13745 13746 
1 11685 13746 
2 20050 20051 
2 3049 3050 
1 3049 20050 
2 20051 20052 
2 14854 14855 
2 5377 5378 
1 5377 14854 
2 851 852 
2 850 851 
2 781 782 
1 781 850 
2 782 783 
1 783 6190 
2 6190 6191 
2 7703 7704 
2 7702 7703 
2 2911 2912 
1 2911 7702 
2 14890 14891 
2 14891 14892 
2 16843 16844 
1 5892 16843 
2 11683 11684 
2 5891 5892 
2 5890 5891 
1 5890 11683 
2 11684 11685 
2 2912 2913 
1 10800 13809 
2 10799 10800 
2 13808 13809 
2 10771 10772 
1 10771 13807 
2 13807 13808 
2 890 891 
2 14468 14469 
2 14467 14468 
1 891 14467 
2 17156 17157 
2 889 890 
1 889 17118 
2 5378 5379 
1 5379 17157 
2 17117 17118 
2 17116 17117 
2 6406 6407 
1 6406 15961 
2 15961 15962 
1 2739 21025 
2 638 639 
1 639 2737 
2 2737 2738 
2 2738 2739 
2 6191 6192 
2 6407 6408 
1 15963 16710 
2 15962 15963 
2 3115 3116 
1 3115 21382 
2 3116 3117 
2 21382 21383 
2 13457 13458 
2 20222 20223 
2 21383 21384 
2 20221 20222 
3 13418 13419 
3 13417 13418 
3 20930 20931 
3 20929 20930 
1 13419 20929 
2 16904 16905 
2 10792 10793 
2 8578 8579 
2 8579 8580 
2 10793 10794 
1 7311 8580 
2 7310 7311 
2 1975 1976 
2 1976 1977 
2 4714 4715 
1 4714 10794 
2 4715 4716 
1 4716 6471 
1 19467 19783 
2 19783 19784 
2 19466 19467 
2 7309 7310 
1 7309 19785 
2 4081 4082 
2 13744 13745 
1 4083 13744 
2 4082 4083 
2 3638 3639 
2 3637 3638 
1 3637 13596 
1 3639 13431 
2 13595 13596 
2 19784 19785 
2 3410 3411 
1 3411 14892 
2 19465 19466 
2 3409 3410 
1 3409 18045 
2 18044 18045 
2 18043 18044 
1 5172 18043 
2 5171 5172 
2 13594 13595 
1 2913 13594 
2 10798 10799 
2 2567 2568 
2 2566 2567 
1 2566 9120 
1 2568 10798 
2 9119 9120 
2 9118 9119 
2 9254 9255 
2 17317 17318 
1 17317 19726 
2 19726 19727 
2 19727 19728 
2 9253 9254 
1 9253 12402 
2 12401 12402 
2 12400 12401 
1 12400 19003 
2 19003 19004 
2 17318 17319 
2 17155 17156 
2 9097 9098 
1 9097 17155 
2 9098 9099 
1 6192 17919 
2 5170 5171 
1 5170 6408 
2 17918 17919 
2 17917 17918 
2 13351 13352 
1 13351 17917 
2 13352 13353 
2 17944 17945 
2 17945 17946 
2 11038 11039 
1 11038 17946 
2 581 582 
2 8858 8859 
2 11039 11040 
2 9878 9879 
2 9877 9878 
2 19004 19005 
2 580 581 
1 580 19005 
2 20723 20724 
2 20722 20723 
2 12586 12587 
1 12586 20722 
2 12587 12588 
1 20724 20931 
2 8180 8181 
2 8179 8180 
3 14477 14478 
3 14476 14477 
2 13430 13431 
3 10676 10677 
2 13429 13430 
3 10675 10676 
1 10675 13429 
3 775 776 
3 776 777 
2 21251 21252 
2 8857 8858 
2 21250 21251 
2 13144 13145 
1 13144 21250 
2 13145 13146 
3 21157 21158 
3 21158 21159 
1 4932 13146 
2 4931 4932 
2 4930 4931 
1 4930 21157 
1 13818 14476 
3 19933 19934 
3 19934 19935 
3 13817 13818 
1 8433 13816 
3 13816 13817 
3 8432 8433 
3 8431 8432 
1 8431 20538 
3 20537 20538 
3 20536 20537 
2 17272 17273 
1 17272 20536 
2 17273 17274 
3 15670 15671 
3 15671 15672 
