ITEM: TIMESTEP
20000000
ITEM: NUMBER OF ATOMS
312
ITEM: BOX BOUNDS pp pp pp
0.0000000000000000e+00 5.0000000000000000e+01
0.0000000000000000e+00 5.0000000000000000e+01
0.0000000000000000e+00 5.0000000000000000e+01
ITEM: ATOMS id type xs ys zs
19714 1 0.448242 0.321068 0.184937
19716 1 0.444504 0.332681 0.180662
20674 1 0.441746 0.334094 0.180304
19715 2 0.452112 0.328643 0.182665
20675 3 0.434957 0.338615 0.179669
20676 1 0.431486 0.336923 0.187203
8562 1 0.426475 0.359212 0.182778
19735 1 0.475138 0.353681 0.178772
19736 3 0.478919 0.35752 0.18439
4923 1 0.438804 0.38996 0.179996
4921 1 0.452786 0.386436 0.184471
4922 3 0.445713 0.388425 0.181081
3500 3 0.46147 0.4033 0.186981
3499 1 0.462926 0.405808 0.179698
7503 1 0.486252 0.309102 0.211509
5056 1 0.419896 0.331518 0.197796
5058 1 0.430167 0.335784 0.18992
5057 3 0.426513 0.332747 0.197278
7033 1 0.446436 0.340669 0.20187
6160 1 0.448215 0.3378 0.203236
6161 3 0.452285 0.332773 0.206302
6162 1 0.460188 0.329956 0.206633
7502 3 0.483254 0.313556 0.217533
14196 1 0.511017 0.329151 0.201295
14195 3 0.50829 0.333315 0.208682
14194 1 0.508165 0.337158 0.214968
19048 1 0.508364 0.33899 0.217473
9398 3 0.422641 0.350722 0.216352
9397 1 0.417685 0.353082 0.21025
8560 1 0.418759 0.347453 0.192053
8561 3 0.421236 0.353849 0.188706
9399 1 0.428804 0.347677 0.218661
7034 3 0.442715 0.347307 0.199011
7035 1 0.440713 0.354482 0.1967
17562 1 0.439293 0.370081 0.202861
15910 1 0.454746 0.365841 0.199734
452 3 0.482963 0.355568 0.203086
451 1 0.475247 0.355427 0.20708
2251 1 0.474668 0.372213 0.192399
15911 3 0.459856 0.365479 0.205517
15912 1 0.467026 0.36915 0.208438
12765 1 0.469179 0.370676 0.20948
12764 3 0.476079 0.374156 0.211319
19737 1 0.481189 0.357717 0.191616
453 1 0.481698 0.357346 0.194522
13051 1 0.498807 0.354761 0.212049
13053 1 0.513022 0.357671 0.213466
13052 3 0.50527 0.355593 0.210015
19828 1 0.492401 0.354115 0.21764
18286 1 0.417585 0.377118 0.200162
18287 3 0.417608 0.381073 0.207865
18288 1 0.412236 0.38406 0.213219
482 3 0.441151 0.396666 0.200177
481 1 0.446916 0.402784 0.199574
17561 3 0.439374 0.37804 0.202417
483 1 0.439634 0.388347 0.200857
17560 1 0.439559 0.385716 0.201289
4149 1 0.45943 0.377114 0.215924
12763 1 0.483773 0.375286 0.210227
2252 3 0.477769 0.379245 0.192985
4245 1 0.463084 0.397908 0.196967
3501 1 0.462366 0.399814 0.194105
2253 1 0.480238 0.385938 0.195799
5632 1 0.481677 0.388366 0.196616
5633 3 0.484699 0.396112 0.199738
4244 3 0.464195 0.393346 0.204217
4243 1 0.46886 0.393957 0.209938
11058 1 0.486649 0.376364 0.209329
11057 3 0.492969 0.379346 0.207209
5634 1 0.488096 0.403697 0.200854
11056 1 0.498217 0.381495 0.203837
3957 1 0.500198 0.382884 0.202343
3956 3 0.505579 0.387797 0.199778
3955 1 0.510358 0.384665 0.193793
11827 1 0.503131 0.38269 0.218181
18693 1 0.500429 0.422235 0.208757
18692 3 0.496444 0.417233 0.20401
18691 1 0.493643 0.415679 0.196725
5994 1 0.409893 0.310716 0.238177
5992 1 0.405788 0.325683 0.242248
13843 1 0.404788 0.32778 0.242962
5993 2 0.407804 0.318041 0.238582
13844 3 0.402873 0.335626 0.245765
13845 1 0.40411 0.343595 0.245004
14362 1 0.469615 0.34044 0.228752
15608 3 0.464592 0.329919 0.23009
15607 1 0.468129 0.337836 0.229206
15609 1 0.457689 0.326205 0.228831
15009 1 0.464007 0.330854 0.246856
7501 1 0.486556 0.316039 0.225346
6876 1 0.488089 0.318298 0.228047
6874 1 0.489098 0.327322 0.241004
17065 1 0.488344 0.328449 0.243355
6875 3 0.490906 0.323319 0.233777
3396 1 0.505182 0.332881 0.241025
19049 3 0.509173 0.34352 0.22503
3395 3 0.505863 0.330299 0.248148
7693 1 0.530279 0.319751 0.22715
7694 3 0.530407 0.326955 0.230451
1909 1 0.538867 0.33174 0.249218
11075 3 0.522354 0.340849 0.240912
11074 1 0.526123 0.334945 0.236406
7695 1 0.527241 0.332733 0.234651
10914 1 0.420636 0.369977 0.230155
18585 1 0.418002 0.368464 0.230866
18584 3 0.41247 0.363326 0.233918
18583 1 0.407848 0.35893 0.239266
16038 1 0.406337 0.357707 0.241178
16037 3 0.403224 0.353961 0.246553
16036 1 0.404229 0.346901 0.244937
4525 1 0.445327 0.357561 0.218791
4527 1 0.435017 0.367958 0.223149
10912 1 0.433533 0.369299 0.224628
4526 3 0.44008 0.363642 0.219227
20996 3 0.438572 0.344057 0.22278
20997 1 0.432152 0.34645 0.219473
20995 1 0.441945 0.346075 0.229553
3219 1 0.442537 0.347391 0.23235
3218 3 0.445829 0.350995 0.238834
10913 3 0.428284 0.37329 0.229254
3217 1 0.449752 0.352867 0.245062
21542 3 0.429122 0.36173 0.248947
14364 1 0.481251 0.352054 0.226884
14363 3 0.474597 0.346736 0.229419
12873 1 0.479095 0.362086 0.249695
12872 3 0.480825 0.354181 0.247537
935 3 0.463081 0.36248 0.236925
934 1 0.459832 0.363023 0.244154
936 1 0.464609 0.357469 0.230566
15574 1 0.458843 0.362831 0.247292
19829 3 0.491148 0.360577 0.223656
11428 1 0.48704 0.368998 0.230351
19830 1 0.487839 0.366401 0.228977
19050 1 0.507347 0.348261 0.230905
2975 3 0.505844 0.355683 0.238434
2976 1 0.507189 0.350286 0.232998
2974 1 0.503718 0.360168 0.245274
16764 1 0.502712 0.361759 0.247379
1612 1 0.520471 0.365567 0.220821
11076 1 0.520601 0.345977 0.247878
1614 1 0.528557 0.362646 0.23385
1613 3 0.523656 0.362358 0.228213
2463 1 0.42119 0.397873 0.247434
2677 1 0.419203 0.398872 0.24956
7683 1 0.430166 0.384005 0.220234
4147 1 0.452349 0.379893 0.22865
12391 1 0.451085 0.380168 0.232268
12392 3 0.446984 0.378927 0.238844
11803 1 0.446289 0.387813 0.244383
12393 1 0.446615 0.385024 0.242815
2462 3 0.426499 0.394686 0.241231
7682 3 0.436284 0.389517 0.219811
7681 1 0.442726 0.394238 0.220906
16734 1 0.445303 0.396341 0.221356
2461 1 0.434475 0.392356 0.240161
16733 3 0.451854 0.401513 0.221956
11804 3 0.446108 0.393366 0.249311
4148 3 0.455708 0.380444 0.220656
4895 3 0.469764 0.396258 0.223505
16732 1 0.459753 0.39985 0.222735
4896 1 0.462784 0.399145 0.222863
1295 3 0.462108 0.405657 0.241349
1296 1 0.465372 0.399006 0.241661
11430 1 0.48446 0.382784 0.236605
4894 1 0.469892 0.397248 0.231267
17809 1 0.466423 0.396468 0.242234
17811 1 0.471702 0.383191 0.248597
17810 3 0.469301 0.388355 0.243759
11429 3 0.484868 0.375696 0.233318
11828 3 0.504842 0.385565 0.226096
7543 1 0.506039 0.379617 0.242982
7544 3 0.514178 0.377672 0.243171
11829 1 0.501843 0.388871 0.233012
3684 1 0.500971 0.390035 0.236079
3682 1 0.489989 0.390615 0.24589
3683 3 0.498254 0.392422 0.243697
21 1 0.533455 0.392038 0.231538
5248 1 0.535556 0.390632 0.230883
20 3 0.527622 0.39636 0.234636
5249 3 0.540947 0.384605 0.230463
19 1 0.523962 0.402106 0.238671
5250 1 0.54587 0.378682 0.230915
11244 1 0.411882 0.412979 0.239603
11243 3 0.418719 0.415842 0.236524
19895 3 0.433369 0.41272 0.224082
19896 1 0.427499 0.413499 0.229164
11242 1 0.424827 0.414043 0.231028
19894 1 0.438572 0.41777 0.220783
17247 1 0.446465 0.424134 0.235874
17246 3 0.453172 0.420653 0.239439
17245 1 0.456758 0.414583 0.240193
1294 1 0.458645 0.411865 0.240616
8527 1 0.488334 0.412363 0.245829
984 1 0.414894 0.339593 0.25548
15007 1 0.460627 0.329812 0.261928
17674 1 0.459909 0.329872 0.26497
17675 3 0.457837 0.329075 0.272477
15008 3 0.461948 0.32947 0.253675
17676 1 0.461397 0.332528 0.278809
6885 1 0.475187 0.324698 0.274168
17067 1 0.483755 0.330753 0.259187
6883 1 0.482884 0.330265 0.261942
6884 3 0.480225 0.329165 0.269479
8845 1 0.462687 0.333662 0.280746
3394 1 0.504487 0.325505 0.253312
17066 3 0.485651 0.33123 0.25102
1008 1 0.486377 0.341815 0.278502
1911 1 0.544557 0.333764 0.264593
1910 3 0.543582 0.331101 0.256159
6017 3 0.519707 0.313456 0.276836
6018 1 0.523542 0.316157 0.269803
983 3 0.421112 0.344665 0.25264
982 1 0.423907 0.351535 0.252236
2617 1 0.413017 0.364589 0.266931
391 1 0.410288 0.366035 0.266732
392 3 0.403725 0.370037 0.265239
2618 3 0.420413 0.362686 0.268761
393 1 0.397606 0.369583 0.26055
21543 1 0.425206 0.354081 0.251354
21541 1 0.432621 0.368623 0.251218
16615 1 0.433671 0.371378 0.252345
2619 1 0.428326 0.359747 0.2698
14740 1 0.431193 0.358662 0.27012
14742 1 0.443893 0.349955 0.273972
14741 3 0.438443 0.35564 0.271104
12871 1 0.476391 0.348659 0.253151
18688 1 0.465967 0.356612 0.277572
18689 3 0.462555 0.354198 0.270265
18690 1 0.459126 0.358674 0.264775
15576 1 0.458417 0.360126 0.262052
15575 3 0.456922 0.362672 0.255098
13001 3 0.478432 0.371876 0.275552
16763 3 0.499258 0.367027 0.252924
6286 1 0.500574 0.361589 0.272026
6287 3 0.507173 0.360226 0.274084
6288 1 0.514185 0.358522 0.27608
16762 1 0.49877 0.374487 0.256194
1195 1 0.52015 0.347627 0.25041
1196 3 0.518543 0.351765 0.256324
1197 1 0.515391 0.358632 0.257403
6947 3 0.528185 0.361995 0.271773
16461 1 0.52509 0.368652 0.264703
6948 1 0.526684 0.366754 0.266217
16460 3 0.520644 0.374541 0.260466
6946 1 0.525198 0.360101 0.279015
2678 3 0.412405 0.400247 0.25433
2679 1 0.406255 0.397818 0.253596
171 1 0.441586 0.398127 0.256927
170 3 0.43906 0.402847 0.26352
16616 3 0.436931 0.376884 0.2562
16617 1 0.441517 0.377232 0.262385
1212 1 0.454211 0.389686 0.258376
5002 1 0.443293 0.377621 0.264855
5003 3 0.44811 0.377118 0.270913
11805 1 0.442553 0.396331 0.254625
5004 1 0.449015 0.377764 0.27733
13002 1 0.476458 0.375021 0.267548
1210 1 0.467007 0.393594 0.266443
1211 3 0.46005 0.391857 0.26394
12541 1 0.472475 0.381627 0.250395
12542 3 0.474143 0.377893 0.256688
12543 1 0.47593 0.375882 0.264375
17176 1 0.498519 0.377405 0.257848
17177 3 0.497179 0.384849 0.262685
17178 1 0.491131 0.388225 0.258342
16459 1 0.516689 0.376244 0.253768
7545 1 0.516057 0.376485 0.251205
169 1 0.439236 0.407826 0.269576
8529 1 0.478874 0.409471 0.261094
8528 3 0.484336 0.410532 0.253557
4725 1 0.442957 0.32749 0.302198
4724 2 0.444829 0.326969 0.294679
7734 1 0.446422 0.337482 0.294961
4723 1 0.445361 0.333977 0.295211
8846 3 0.465835 0.337804 0.286183
12992 2 0.504686 0.323696 0.28881
12993 1 0.50244 0.320054 0.282374
2690 2 0.506477 0.326421 0.307625
2689 1 0.505546 0.326152 0.300025
12991 1 0.505097 0.325684 0.296726
2691 1 0.512945 0.328319 0.308952
6016 1 0.518561 0.314229 0.284179
3811 1 0.442023 0.362007 0.293058
7732 1 0.447759 0.353124 0.292748
7733 3 0.447762 0.345315 0.293362
3812 3 0.445578 0.368735 0.288266
3813 1 0.452264 0.373984 0.28867
13000 1 0.477995 0.368099 0.282398
8847 1 0.468249 0.343832 0.289761
2643 1 0.469056 0.346242 0.291293
2641 1 0.466217 0.355744 0.303339
2642 3 0.469271 0.353137 0.296119
27 1 0.465132 0.356565 0.305763
4446 1 0.470817 0.374789 0.295175
1006 1 0.488283 0.354527 0.285597
1007 3 0.486233 0.347009 0.283868
3909 1 0.491854 0.35673 0.312166
3908 3 0.495395 0.358802 0.305272
14637 1 0.502294 0.365797 0.299999
3907 1 0.500131 0.363951 0.301208
14636 3 0.507815 0.370029 0.297177
6196 1 0.514874 0.353495 0.290604
6494 3 0.5448 0.356601 0.284327
6495 1 0.537466 0.354279 0.286933
6197 3 0.522874 0.354971 0.289041
6198 1 0.524645 0.358842 0.281447
6493 1 0.549597 0.362045 0.282329
4444 1 0.455018 0.375391 0.289605
4445 3 0.462765 0.375894 0.293318
14635 1 0.509389 0.375082 0.290537
26 2 0.462253 0.359186 0.313024
25 1 0.464426 0.362236 0.320426
