ITEM: TIMESTEP
20000000
ITEM: NUMBER OF ATOMS
495
ITEM: BOX BOUNDS pp pp pp
0.0000000000000000e+00 5.0000000000000000e+01
0.0000000000000000e+00 5.0000000000000000e+01
0.0000000000000000e+00 5.0000000000000000e+01
ITEM: ATOMS id type xs ys zs
4262 2 0.414771 0.00805306 0.181012
4263 1 0.408645 0.00972715 0.187352
4261 1 0.422058 0.00480288 0.178642
13210 1 0.424586 0.00399145 0.177984
13211 2 0.433241 0.00276415 0.176576
16850 2 0.385588 0.00273171 0.193652
16851 1 0.391795 0.0066351 0.194219
16849 1 0.379456 0.00292643 0.188151
11078 2 0.400715 0.0127049 0.193991
11079 1 0.406878 0.0106912 0.189303
11077 1 0.394052 0.00807635 0.194605
11091 1 0.465259 0.0294692 0.192682
19925 2 0.479035 0.0080566 0.217808
11090 2 0.466633 0.0294435 0.200373
11089 1 0.46869 0.0301805 0.209063
2901 1 0.469272 0.0304604 0.212777
19924 1 0.477087 0.00309688 0.212272
637 1 0.476768 0.0010831 0.210096
13456 1 0.494227 0.00315594 0.196516
2900 2 0.469389 0.0308798 0.219838
12900 1 0.466011 0.0232021 0.226902
2899 1 0.46716 0.025075 0.224882
19926 1 0.480536 0.014209 0.222431
12899 2 0.463034 0.0201128 0.232197
21477 1 0.471408 0.0153091 0.23803
12898 1 0.468901 0.0166361 0.2363
21476 2 0.476538 0.0113184 0.243183
21475 1 0.482292 0.0056523 0.243534
8859 1 0.48462 0.0036741 0.244183
14462 2 0.503761 0.0142078 0.232954
14461 1 0.50515 0.0212652 0.23053
14463 1 0.5007 0.00785442 0.23049
11040 1 0.499374 0.0056452 0.229018
12675 1 0.617018 0.0500677 0.235598
12674 3 0.615369 0.0438643 0.240184
12673 1 0.614385 0.0420694 0.247384
16350 1 0.601039 0.0614336 0.269736
17626 1 0.60244 0.0588424 0.270018
17598 1 0.61408 0.0409675 0.250635
17596 1 0.610577 0.0434679 0.26238
17628 1 0.60913 0.0451255 0.264305
17627 2 0.606399 0.050916 0.269242
17597 2 0.61344 0.0390116 0.258003
16349 2 0.596363 0.0674433 0.269395
16348 1 0.597049 0.0717373 0.275835
16236 1 0.649445 0.0978601 0.278434
16235 3 0.641873 0.0982558 0.280644
20437 1 0.610535 0.0908261 0.308154
20438 2 0.615014 0.0912569 0.30089
20439 1 0.618538 0.0936334 0.293786
15367 1 0.659541 0.0795358 0.292671
15369 1 0.645934 0.0795522 0.300723
15368 2 0.65189 0.0811149 0.29525
20594 2 0.677878 0.0926752 0.312353
16234 1 0.634709 0.0992743 0.282708
3124 1 0.630915 0.0992481 0.283156
3126 1 0.620017 0.0946207 0.291449
3125 3 0.623617 0.0971235 0.284148
14191 1 0.654757 0.101336 0.304099
14192 2 0.663562 0.102104 0.303469
20593 1 0.672528 0.0973194 0.308327
14193 1 0.670351 0.0986109 0.306626
10861 1 0.699648 0.100761 0.310554
1815 1 0.644463 0.0874345 0.315712
1814 2 0.652407 0.0890071 0.316852
1813 1 0.65957 0.08987 0.321361
18285 1 0.696774 0.0759292 0.33831
9184 1 0.685012 0.0896198 0.339663
18283 1 0.68694 0.0874222 0.339838
18284 2 0.691616 0.0814731 0.339878
16766 2 0.705641 0.0694203 0.338199
16765 1 0.699191 0.0738251 0.338028
16620 1 0.654613 0.104657 0.340634
12079 1 0.664811 0.0946988 0.32883
12081 1 0.656448 0.103052 0.338207
12080 2 0.660339 0.0991889 0.333456
20595 1 0.680992 0.0948407 0.319655
9185 2 0.68174 0.0963297 0.338356
1575 1 0.67732 0.121027 0.338595
16698 1 0.676239 0.123363 0.339936
1574 2 0.680349 0.113995 0.337006
1573 1 0.681073 0.106909 0.337274
9186 1 0.680931 0.104434 0.337283
10862 2 0.70122 0.101378 0.318555
2778 1 0.706039 0.0982258 0.328504
10863 1 0.704686 0.0992877 0.325363
2777 2 0.710541 0.097223 0.335193
2776 1 0.710637 0.0990935 0.34306
16697 3 0.673632 0.129284 0.342537
16696 1 0.668816 0.135678 0.341857
16767 1 0.711305 0.0683518 0.34392
4235 2 0.601547 0.114446 0.359601
4234 1 0.593479 0.118229 0.360949
4236 1 0.608754 0.114068 0.359123
14090 2 0.632692 0.115127 0.346834
6064 1 0.611777 0.113996 0.358947
6065 2 0.619087 0.113067 0.358256
6066 1 0.624583 0.11368 0.352767
14089 1 0.626308 0.114075 0.351268
14091 1 0.64031 0.113169 0.346711
16618 1 0.643813 0.112195 0.346326
16619 2 0.651308 0.109017 0.346361
1774 1 0.710549 0.0999162 0.34559
1775 2 0.709136 0.0996411 0.353922
1776 1 0.70588 0.101167 0.361866
16891 1 0.488318 0.928452 0.123108
2150 3 0.457691 0.962441 0.0979279
14378 3 0.461797 0.949546 0.110751
14377 1 0.459798 0.954648 0.105624
2149 1 0.459197 0.956675 0.103811
1807 1 0.46731 0.943605 0.118391
14379 1 0.46579 0.944778 0.116666
1808 3 0.471114 0.939527 0.124569
11176 1 0.50302 0.950791 0.118114
11177 2 0.496093 0.947875 0.122215
2151 1 0.453734 0.969792 0.0959174
7173 1 0.472602 0.928595 0.15007
7172 2 0.470212 0.936306 0.145289
5094 1 0.47409 0.913511 0.155995
5092 1 0.473359 0.926822 0.15176
7171 1 0.47082 0.937472 0.136531
16892 2 0.495222 0.927042 0.127367
16893 1 0.498115 0.92643 0.135382
811 1 0.449196 0.952326 0.138567
812 2 0.455352 0.956623 0.141473
813 1 0.463135 0.960747 0.140465
1809 1 0.470937 0.937773 0.134003
11593 1 0.493846 0.960866 0.148727
3849 1 0.493869 0.961192 0.14592
3848 2 0.493597 0.96042 0.137155
3847 1 0.494229 0.954972 0.130685
11178 1 0.494757 0.952844 0.128384
13381 1 0.449438 0.986438 0.155203
3065 2 0.461111 0.976898 0.143835
2482 1 0.471411 0.976802 0.142147
3064 1 0.468327 0.976909 0.143066
2483 2 0.478713 0.976563 0.138741
3066 1 0.45594 0.98327 0.143617
2484 1 0.48628 0.976831 0.137351
11851 1 0.484449 0.869063 0.185305
20488 1 0.498445 0.864131 0.180482
20489 2 0.506543 0.862618 0.179489
20490 1 0.511448 0.86943 0.181391
10659 1 0.513372 0.871977 0.182215
5849 2 0.409678 0.89749 0.176983
5848 1 0.417451 0.895827 0.176958
5850 1 0.401679 0.897215 0.176212
3835 1 0.477989 0.900997 0.186584
3836 3 0.474859 0.894518 0.187334
12504 1 0.479747 0.903528 0.185779
11853 1 0.486047 0.88507 0.182763
11852 2 0.48615 0.877221 0.183275
10658 2 0.517231 0.877707 0.185155
10657 1 0.519622 0.884832 0.180056
2197 1 0.520433 0.886953 0.178595
2198 2 0.521762 0.89348 0.173074
2199 1 0.524693 0.89303 0.165971
16868 2 0.445585 0.935764 0.179842
18881 2 0.435202 0.911631 0.184726
18882 1 0.430131 0.909493 0.180869
18629 2 0.454205 0.913038 0.182816
18628 1 0.446794 0.912361 0.183579
18880 1 0.443023 0.912517 0.184198
4611 1 0.474346 0.937289 0.161904
5093 2 0.475455 0.921699 0.156376
14273 2 0.470428 0.925529 0.177459
14274 1 0.465588 0.9327 0.179442
14272 1 0.468467 0.916522 0.179041
18630 1 0.459325 0.917057 0.17716
17073 1 0.495306 0.90772 0.171462
12503 2 0.485074 0.909299 0.186523
4583 2 0.494314 0.932367 0.16434
4582 1 0.494616 0.924468 0.164824
17072 2 0.495441 0.914292 0.166194
17071 1 0.494675 0.921749 0.164879
12502 1 0.491714 0.913368 0.187497
5017 1 0.506777 0.922122 0.183322
6996 1 0.508648 0.923519 0.181778
6995 2 0.512811 0.92863 0.177091
7188 1 0.537331 0.925103 0.164394
6994 1 0.515636 0.934042 0.171981
20448 1 0.51675 0.936241 0.169545
7187 2 0.53244 0.92308 0.170205
7186 1 0.525597 0.924394 0.172902
14855 2 0.418279 0.964076 0.186546
14856 1 0.42234 0.960116 0.181287
16601 2 0.447849 0.961845 0.159842
16600 1 0.450982 0.95482 0.161119
16112 2 0.453706 0.944353 0.164678
16113 1 0.451329 0.941109 0.171016
16869 1 0.450087 0.939252 0.173342
12646 1 0.437845 0.968403 0.179283
12647 2 0.440393 0.960561 0.180906
12648 1 0.438519 0.952638 0.182712
16111 1 0.451719 0.95177 0.161807
4610 2 0.476724 0.942561 0.168367
762 1 0.4701 0.950466 0.173147
4609 1 0.471809 0.948294 0.171712
761 2 0.465257 0.956486 0.175719
760 1 0.461581 0.962474 0.178123
21027 1 0.460661 0.964676 0.179432
16708 1 0.484172 0.958115 0.184279
4584 1 0.489757 0.93858 0.163035
14321 2 0.492071 0.940658 0.182682
14322 1 0.49571 0.945846 0.179029
8505 1 0.497036 0.947561 0.177315
11594 2 0.492502 0.960887 0.156377
8504 2 0.499261 0.952789 0.171516
8503 1 0.496213 0.956687 0.165552
11595 1 0.495174 0.957972 0.163044
16709 2 0.486833 0.964016 0.187489
16844 2 0.509959 0.965997 0.181632
20446 1 0.51412 0.946358 0.160615
20447 3 0.519753 0.941141 0.163727
10933 1 0.53522 0.949483 0.179902
10934 2 0.537873 0.943904 0.174991
10935 1 0.53604 0.943093 0.167322
10773 1 0.534418 0.951785 0.181605
10772 2 0.530375 0.958103 0.185026
11839 1 0.443877 0.998441 0.175092
13212 1 0.441323 0.999498 0.175306
16602 1 0.447271 0.968845 0.161055
11763 1 0.437142 0.971127 0.178357
13383 1 0.447159 0.972036 0.160862
11761 1 0.433116 0.985138 0.17403
11762 2 0.436408 0.979078 0.177233
13382 2 0.446798 0.979696 0.160034
11841 1 0.453446 0.988041 0.172007
11840 2 0.451029 0.995243 0.173643
21026 2 0.45875 0.971452 0.183167
21025 1 0.460609 0.978501 0.187303
2875 1 0.488438 0.991094 0.175228
1063 1 0.513385 0.976012 0.178343
16845 1 0.512773 0.973235 0.178838
2877 1 0.499494 0.995419 0.182122
2876 2 0.493739 0.990951 0.179975
1064 2 0.516354 0.983326 0.177193
1065 1 0.515974 0.98901 0.171003
12018 1 0.547589 0.991294 0.162159
12016 1 0.554436 0.97907 0.163837
12017 3 0.553608 0.986692 0.159981
19940 3 0.551686 0.969014 0.169508
19941 1 0.553859 0.976949 0.165558
19939 1 0.548287 0.970963 0.177211
20223 1 0.547481 0.971373 0.179848
16324 1 0.472513 0.873154 0.200969
8306 2 0.478173 0.870076 0.209351
8305 1 0.482481 0.865726 0.214706
16903 1 0.483456 0.864185 0.21681
8307 1 0.473653 0.871632 0.202787
16326 1 0.471653 0.885027 0.191882
16325 2 0.469362 0.878059 0.195215
3837 1 0.472373 0.88774 0.19048
2088 1 0.494739 0.900361 0.210306
1977 1 0.494332 0.901164 0.21276
2087 2 0.495686 0.899021 0.202967
2086 1 0.498601 0.899053 0.195007
3051 1 0.526525 0.896038 0.20173
3050 2 0.523392 0.902016 0.198654
16867 1 0.442504 0.932658 0.188294
17841 1 0.434819 0.927812 0.204434
17839 1 0.441581 0.931352 0.191264
17840 2 0.440321 0.929227 0.198679
6470 2 0.481246 0.924157 0.21422
5865 1 0.483948 0.927813 0.205034
6469 1 0.482883 0.927143 0.207314
5776 1 0.469469 0.909175 0.197912
5777 2 0.46781 0.917136 0.200297
5778 1 0.462302 0.91833 0.206333
19675 1 0.460572 0.919028 0.208386
19676 2 0.45569 0.920839 0.214284
5019 1 0.494722 0.91449 0.188055
5018 2 0.502425 0.918182 0.188696
5864 2 0.487719 0.931205 0.198147
14320 1 0.489062 0.937135 0.18857
5863 1 0.488087 0.935563 0.191142
13746 1 0.504277 0.928054 0.209176
13745 2 0.50302 0.921885 0.212552
11685 1 0.504872 0.930455 0.207445
20052 1 0.528115 0.927304 0.205073
20050 1 0.525493 0.912702 0.202122
3049 1 0.52501 0.909785 0.200888
20051 2 0.526419 0.919724 0.20475
14854 1 0.421659 0.966556 0.192933
5377 1 0.422768 0.967433 0.195889
852 1 0.464372 0.938288 0.190785
851 2 0.461901 0.943056 0.195878
850 1 0.459021 0.950709 0.199674
781 1 0.457759 0.95313 0.200903
782 2 0.457139 0.959747 0.203585
783 1 0.458156 0.964965 0.207407
6190 1 0.458492 0.967453 0.209466
7704 1 0.468871 0.963573 0.205142
7703 2 0.476105 0.959915 0.20561
7702 1 0.4797 0.954343 0.209159
2911 1 0.481396 0.951722 0.21034
14890 1 0.465158 0.940526 0.21189
14891 2 0.460049 0.944924 0.217395
16843 1 0.508461 0.960888 0.187889
5892 1 0.507769 0.958756 0.190159
11683 1 0.505154 0.945925 0.202359
5891 2 0.505249 0.954257 0.196279
5890 1 0.504933 0.948408 0.200902
11684 2 0.506694 0.937689 0.204854
2912 2 0.485947 0.946034 0.213162
10800 1 0.520179 0.965066 0.210104
10799 2 0.515371 0.9659 0.215165
13809 1 0.521735 0.964173 0.208137
13808 2 0.526433 0.962949 0.202332
10771 1 0.528468 0.959219 0.192409
13807 1 0.527869 0.95998 0.195445
890 2 0.423498 0.994721 0.199
14468 2 0.417595 0.993135 0.217283
14467 1 0.419034 0.995241 0.209018
891 1 0.420456 0.995428 0.206192
17156 2 0.436035 0.979823 0.214667
889 1 0.430273 0.992295 0.197231
5378 2 0.425033 0.969349 0.202184
17157 1 0.429323 0.975564 0.209882
5379 1 0.428066 0.97386 0.208307
17117 2 0.441577 0.989148 0.194602
17118 1 0.433432 0.991675 0.196234
17116 1 0.449132 0.986546 0.194425
6406 1 0.483782 0.978196 0.20839
15961 1 0.484476 0.978407 0.205284
2739 1 0.461491 0.980315 0.189123
638 2 0.475991 0.996505 0.204871
639 1 0.470016 0.992653 0.200466
2737 1 0.468272 0.990525 0.199241
2738 2 0.462791 0.984949 0.195129
6191 2 0.458866 0.973747 0.21592
6407 2 0.480241 0.977994 0.215108
16710 1 0.486481 0.970733 0.191577
15963 1 0.486137 0.972951 0.193463
15962 2 0.486677 0.978943 0.196977
3115 1 0.512395 0.984406 0.203708
3117 1 0.502147 0.979936 0.193503
3116 2 0.507134 0.980247 0.199091
21382 1 0.514024 0.985843 0.205206
13457 2 0.496928 0.997388 0.202594
13458 1 0.497356 0.993719 0.20892
20222 2 0.544617 0.972921 0.187679
19728 1 0.53609 0.972147 0.213479
21383 2 0.519064 0.990527 0.209601
21384 1 0.519521 0.996611 0.214986
20221 1 0.54629 0.978322 0.191645
13418 3 0.325012 0.792198 0.243954
13417 1 0.31744 0.787011 0.24375
8181 1 0.360879 0.802919 0.248912
20930 3 0.34409 0.792299 0.247003
20929 1 0.336678 0.792052 0.245108
13419 1 0.333709 0.79203 0.244747
16905 1 0.491222 0.859118 0.229926
16904 2 0.487169 0.859623 0.222486
10792 1 0.455822 0.894986 0.229412
8580 1 0.482122 0.894422 0.241118
8578 1 0.483836 0.880416 0.233704
8579 2 0.48144 0.88714 0.237926
10793 2 0.457837 0.90225 0.225841
10794 1 0.465259 0.905787 0.226204
7311 1 0.481774 0.897509 0.242551
7310 2 0.480688 0.904738 0.2443
1975 1 0.495531 0.902767 0.228613
1976 2 0.493317 0.902935 0.220731
19677 1 0.450466 0.921502 0.221248
6471 1 0.479728 0.918613 0.219437
4714 1 0.467882 0.907356 0.226706
4715 2 0.474097 0.912297 0.226201
4716 1 0.478653 0.916766 0.22136
19467 1 0.480822 0.930992 0.244428
19783 1 0.482158 0.929099 0.2451
19466 2 0.477307 0.937076 0.240616
7309 1 0.483852 0.911183 0.245977
19785 1 0.484661 0.914119 0.24663
4081 1 0.511259 0.908692 0.234733
13744 1 0.505289 0.918538 0.219486
4083 1 0.506334 0.917341 0.222285
4082 2 0.510011 0.915268 0.228611
13596 1 0.500266 0.935289 0.23393
3638 2 0.5082 0.933313 0.241034
3637 1 0.502347 0.934778 0.236029
13431 1 0.512131 0.925948 0.247505
3639 1 0.510675 0.928212 0.246252
13595 2 0.495454 0.937318 0.227887
19784 2 0.486688 0.922056 0.246649
9255 1 0.537136 0.933244 0.226921
3410 2 0.454259 0.957632 0.229935
14892 1 0.457366 0.950583 0.222565
3411 1 0.456533 0.952121 0.224459
19465 1 0.471874 0.942715 0.238698
3409 1 0.459459 0.960359 0.2358
18045 1 0.461685 0.961415 0.237306
18044 2 0.467211 0.962195 0.242124
18043 1 0.472278 0.963849 0.236058
5172 1 0.473858 0.963974 0.233593
5171 2 0.476837 0.965117 0.226782
13594 1 0.492378 0.940736 0.221286
2913 1 0.490432 0.942052 0.219429
10798 1 0.510141 0.964388 0.219637
2567 2 0.502833 0.961552 0.22754
2566 1 0.497591 0.959348 0.234677
2568 1 0.508287 0.963455 0.22148
9120 1 0.4965 0.957878 0.236876
9119 2 0.493086 0.95382 0.242061
9118 1 0.493418 0.948124 0.247315
9254 2 0.5333 0.93981 0.228501
17317 1 0.544202 0.960802 0.227916
19726 1 0.542539 0.962343 0.225509
19727 2 0.539147 0.966976 0.219632
9253 1 0.529835 0.94463 0.233199
12402 1 0.528178 0.946905 0.234735
12401 2 0.524299 0.952777 0.238621
12400 1 0.521157 0.960917 0.237825
19003 1 0.520305 0.964299 0.238067
17319 1 0.550694 0.953926 0.238541
17318 2 0.547843 0.956701 0.232959
14469 1 0.424265 0.991283 0.221829
17155 1 0.43733 0.983107 0.221852
9097 1 0.4378 0.98435 0.224864
9098 2 0.438164 0.986482 0.232883
9099 1 0.43467 0.993494 0.230754
6192 1 0.459569 0.979968 0.219745
17919 1 0.460028 0.982771 0.221842
5170 1 0.478286 0.97098 0.222604
6408 1 0.478745 0.973164 0.22075
17918 2 0.461623 0.990251 0.226078
17917 1 0.465047 0.990121 0.233789
13351 1 0.466475 0.990114 0.23662
13352 2 0.470913 0.990602 0.244087
17944 1 0.5043 0.975033 0.221687
17945 2 0.501789 0.982837 0.220997
11038 1 0.498294 0.992013 0.223485
17946 1 0.499153 0.989675 0.222605
582 1 0.51235 0.989927 0.246913
581 2 0.514631 0.990732 0.238695
8858 2 0.489914 0.998525 0.24697
11039 2 0.496552 0.999061 0.225479
9878 2 0.535624 0.996684 0.230524
9879 1 0.544165 0.993353 0.229814
9877 1 0.528981 0.99978 0.227049
19004 2 0.519415 0.972534 0.23713
580 1 0.51781 0.983471 0.238581
19005 1 0.518475 0.980325 0.2382
20723 2 0.354844 0.779303 0.256583
20722 1 0.359181 0.771961 0.256499
12586 1 0.360816 0.769022 0.256262
12587 2 0.364944 0.763018 0.256951
12588 1 0.369214 0.756904 0.257146
20931 1 0.347854 0.786785 0.250583
20724 1 0.349711 0.784997 0.251756
8180 2 0.365869 0.805714 0.254242
8179 1 0.373673 0.806955 0.253712
10677 1 0.528178 0.904763 0.26922
14478 1 0.300933 0.922734 0.274008
14477 3 0.306795 0.926846 0.27775
14476 1 0.307356 0.933018 0.28047
13430 2 0.514404 0.919213 0.250897
10676 3 0.523932 0.910438 0.26595
13429 1 0.517087 0.915267 0.257438
10675 1 0.518683 0.913773 0.259765
775 1 0.313682 0.956809 0.26344
776 3 0.31336 0.949232 0.261899
777 1 0.310494 0.943722 0.255678
21252 1 0.494902 0.960726 0.256413
21251 2 0.497065 0.968484 0.256302
13353 1 0.472315 0.987519 0.250872
8857 1 0.494789 0.994225 0.25145
21250 1 0.501155 0.974972 0.257515
13144 1 0.502433 0.978028 0.25786
13145 2 0.506073 0.98501 0.259604
13146 1 0.514214 0.987613 0.259625
21157 1 0.525635 0.986449 0.273309
21158 3 0.526517 0.983734 0.280903
4932 1 0.516926 0.988205 0.260063
4931 2 0.524349 0.989085 0.262336
4930 1 0.525294 0.987574 0.270286
13818 1 0.307512 0.93568 0.281555
19933 1 0.287751 0.950658 0.30808
19935 1 0.303027 0.953172 0.309458
19934 3 0.295391 0.950712 0.307546
13817 3 0.307457 0.94384 0.283124
8433 1 0.306234 0.953672 0.28859
13816 1 0.306607 0.950638 0.287168
8432 3 0.306028 0.960852 0.292529
20538 1 0.310221 0.967343 0.299867
8431 1 0.308697 0.965628 0.298094
20537 3 0.314811 0.971459 0.306505
21159 1 0.525875 0.983329 0.289271
17274 1 0.324202 0.990081 0.316053
20536 1 0.31763 0.9758 0.312692
17272 1 0.319559 0.97777 0.315105
17273 2 0.323767 0.982926 0.319864
15672 1 0.512497 0.902175 0.376318
15670 1 0.507971 0.900779 0.39006
15671 3 0.507262 0.901811 0.383014
