ITEM: TIMESTEP
0
ITEM: NUMBER OF ATOMS
480
ITEM: BOX BOUNDS pp pp pp
0.0000000000000000e+00 5.0000000000000000e+01
0.0000000000000000e+00 5.0000000000000000e+01
0.0000000000000000e+00 5.0000000000000000e+01
ITEM: ATOMS id type 
484 1 
485 2 
486 1 
1168 1 
1169 2 
1170 1 
1339 1 
1340 2 
1341 1 
1513 1 
1514 2 
1515 1 
1528 1 
1529 2 
1530 1 
1624 1 
1625 2 
1626 1 
2590 1 
2591 2 
2592 1 
3316 1 
3317 2 
3318 1 
3319 1 
3320 2 
3321 1 
3484 1 
3485 2 
3486 1 
5521 1 
5522 2 
5523 1 
6022 1 
6023 2 
6024 1 
6928 1 
6929 2 
6930 1 
6970 1 
6971 2 
6972 1 
7201 1 
7202 2 
7203 1 
7867 1 
7868 2 
7869 1 
10381 1 
10382 2 
10383 1 
11350 1 
11351 2 
11352 1 
13261 1 
13262 2 
13263 1 
13342 1 
13343 3 
13344 1 
14299 1 
14300 2 
14301 1 
14596 1 
14597 2 
14598 1 
16525 1 
16526 2 
16527 1 
16639 1 
16640 2 
16641 1 
17284 1 
17285 3 
17286 1 
17299 1 
17300 2 
17301 1 
17410 1 
17411 2 
17412 1 
17488 1 
17489 2 
17490 1 
18382 1 
18383 2 
18384 1 
18559 1 
18560 2 
18561 1 
20542 1 
20543 2 
20544 1 
20725 1 
20726 2 
20727 1 
20782 1 
20783 2 
20784 1 
20905 1 
20906 2 
20907 1 
1372 1 
1373 2 
1374 1 
1609 1 
1610 2 
1611 1 
2629 1 
2630 2 
2631 1 
4546 1 
4547 2 
4548 1 
4837 1 
4838 2 
4839 1 
4909 1 
4910 2 
4911 1 
5683 1 
5684 3 
5685 1 
5689 1 
5690 2 
5691 1 
5854 1 
5855 2 
5856 1 
6049 1 
6050 2 
6051 1 
6700 1 
6701 3 
6702 1 
6760 1 
6761 2 
6762 1 
6772 1 
6773 2 
6774 1 
6871 1 
6872 2 
6873 1 
7063 1 
7064 2 
7065 1 
7135 1 
7136 2 
7137 1 
10357 1 
10358 2 
10359 1 
10369 1 
10370 2 
10371 1 
10558 1 
10559 2 
10560 1 
12346 1 
12347 3 
12348 1 
12571 1 
12572 2 
12573 1 
13252 1 
13253 3 
13254 1 
13291 1 
13292 2 
13293 1 
13531 1 
13532 3 
13533 1 
14494 1 
14495 2 
14496 1 
14500 1 
14501 2 
14502 1 
14518 1 
14519 2 
14520 1 
15463 1 
15464 2 
15465 1 
15703 1 
15704 2 
15705 1 
16591 1 
16592 2 
16593 1 
17815 1 
17816 2 
17817 1 
18418 1 
18419 2 
18420 1 
18763 1 
18764 2 
18765 1 
19477 1 
19478 2 
19479 1 
19858 1 
19859 2 
19860 1 
20575 1 
20576 2 
20577 1 
20611 1 
20612 2 
20613 1 
20623 1 
20624 2 
20625 1 
20917 1 
20918 2 
20919 1 
625 1 
626 2 
627 1 
868 1 
869 2 
870 1 
988 1 
989 2 
990 1 
1093 1 
1094 2 
1095 1 
1108 1 
1109 2 
1110 1 
2104 1 
2105 3 
2106 1 
2185 1 
2186 2 
2187 1 
2728 1 
2729 2 
2730 1 
2902 1 
2903 3 
2904 1 
3970 1 
3971 3 
3972 1 
4210 1 
4211 2 
4212 1 
4273 1 
4274 3 
4275 1 
5221 1 
5222 2 
5223 1 
5422 1 
5423 2 
5424 1 
6499 1 
6500 3 
6501 1 
7405 1 
7406 2 
7407 1 
8584 1 
8585 2 
8586 1 
8779 1 
8780 2 
8781 1 
8821 1 
8822 3 
8823 1 
9382 1 
9383 2 
9384 1 
9733 1 
9734 2 
9735 1 
9904 1 
9905 2 
9906 1 
10579 1 
10580 2 
10581 1 
11008 1 
11009 2 
11010 1 
11542 1 
11543 2 
11544 1 
11659 1 
11660 2 
11661 1 
11719 1 
11720 2 
11721 1 
12721 1 
12722 2 
12723 1 
12901 1 
12902 2 
12903 1 
13822 1 
13823 3 
13824 1 
13873 1 
13874 2 
13875 1 
14050 1 
14051 2 
14052 1 
14788 1 
14789 3 
14790 1 
14887 1 
14888 2 
14889 1 
15796 1 
15797 2 
15798 1 
15982 1 
15983 2 
15984 1 
18310 1 
18311 2 
18312 1 
18925 1 
18926 2 
18927 1 
19390 1 
19391 3 
19392 1 
20404 1 
20405 2 
20406 1 
21181 1 
21182 2 
21183 1 
586 1 
587 2 
588 1 
718 1 
719 2 
720 1 
757 1 
758 2 
759 1 
931 1 
932 2 
933 1 
2083 1 
2084 2 
2085 1 
2092 1 
2093 2 
2094 1 
2140 1 
2141 2 
2142 1 
3880 1 
3881 2 
3882 1 
3892 1 
3893 2 
3894 1 
3943 1 
3944 2 
3945 1 
4249 1 
4250 2 
4251 1 
5032 1 
5033 3 
5034 1 
6586 1 
6587 2 
6588 1 
8509 1 
8510 2 
8511 1 
8872 1 
8873 2 
8874 1 
9535 1 
9536 2 
9537 1 
9814 1 
9815 3 
9816 1 
9838 1 
9839 2 
9840 1 
11749 1 
11750 2 
11751 1 
11920 1 
11921 2 
11922 1 
11983 1 
11984 2 
11985 1 
12712 1 
12713 2 
12714 1 
12814 1 
12815 2 
12816 1 
13117 1 
13118 2 
13119 1 
13132 1 
13133 2 
13134 1 
14731 1 
14732 2 
14733 1 
14809 1 
14810 2 
14811 1 
14914 1 
14915 2 
14916 1 
14923 1 
14924 2 
14925 1 
14935 1 
14936 2 
14937 1 
16063 1 
16064 2 
16065 1 
16312 1 
16313 2 
16314 1 
16792 1 
16793 2 
16794 1 
17146 1 
17147 2 
17148 1 
17875 1 
17876 2 
17877 1 
18046 1 
18047 2 
18048 1 
18931 1 
18932 2 
18933 1 
19000 1 
19001 2 
19002 1 
20134 1 
20135 2 
20136 1 
20143 1 
20144 2 
20145 1 
20251 1 
20252 2 
20253 1 
20371 1 
20372 2 
20373 1 
20392 1 
20393 2 
20394 1 
21118 1 
21119 2 
21120 1 
21358 1 
21359 2 
21360 1 
21394 1 
21395 2 
21396 1 
