LAMMPS data file via write_data, version 5 Jun 2019, timestep = 120000000

312 atoms
3 atom types
270 bonds
3 bond types
228 angles
3 angle types

0.0000000000000000e+00 5.0000000000000000e+01 xlo xhi
0.0000000000000000e+00 5.0000000000000000e+01 ylo yhi
0.0000000000000000e+00 5.0000000000000000e+01 zlo zhi

Masses

1 0.25
2 0.5
3 0.5

Bond Coeffs # harmonic

1 6000 0.15
2 2000 0.4
3 2000 0.4

Angle Coeffs # harmonic

1 100 180
2 5 180
3 5 180

Atoms # angle

1909 1 1 8.4954973750974236e+00 5.2158594996607626e+00 5.2149946292639882e-01
1911 1 1 8.5537220943701389e+00 5.2513667845828937e+00 1.3049811863792642e+00
1910 3 3 8.5383376923145082e+00 5.1724757228851477e+00 9.2237318535243917e-01
18287 3 3 1.9577179603291309e+01 9.7652337556380449e+00 8.3271608000628516e-01
18288 1 1 1.9585671502900990e+01 9.8631230318302769e+00 1.2296748615677573e+00
18286 1 1 1.9750058393991651e+01 9.8596005015115598e+00 4.7373413340558268e-01
6198 1 1 3.9135542737136014e+01 1.3721149058900608e+01 1.3678783363895994e+00
6946 1 1 3.8995903128614330e+01 1.3746514302049549e+01 1.3118151994488574e+00
6197 3 3 3.9510100765639670e+01 1.3588334599790251e+01 1.4523464551038880e+00
6196 1 1 3.9812597608251302e+01 1.3764042414289339e+01 1.2887803634826172e+00
13053 1 1 4.3791450698246742e+01 1.3117987812605584e+01 9.5718697797062346e-01
13052 3 3 4.3832548343546073e+01 1.3115740105287896e+01 5.9578310571098025e-01
13051 1 1 4.3806868567834123e+01 1.3153013885716142e+01 1.6179320532191735e-01
7545 1 1 3.7819882092156774e+01 1.4385757214954925e+01 2.0872259652027752e-02
16460 3 3 3.8213441106878378e+01 1.4218040185065124e+01 3.3474339484772231e-01
6948 1 1 3.8480294478271297e+01 1.4049111410485295e+01 8.0144161388232271e-01
6947 3 3 3.8690512368185111e+01 1.3886702964403350e+01 1.1177190648395021e+00
16461 1 1 3.8406562335795996e+01 1.4104135547697746e+01 6.6933352153162518e-01
16459 1 1 3.7926846256480317e+01 1.4324258117131041e+01 1.1359462449085712e-01
19736 3 3 3.6874724141114136e+01 1.6464214676475137e+01 1.0950238981974161e+00
19735 1 1 3.6837382702082863e+01 1.6186361092257261e+01 7.8944996202485973e-01
19737 1 1 3.7047078406306952e+01 1.6620877146801416e+01 1.3793265685531695e+00
453 1 1 3.7121180665078619e+01 1.6682458872552338e+01 1.5025932659047181e+00
3955 1 1 3.3216260612461149e+01 1.8376357983828463e+01 3.3401032560997324e-01
3956 3 3 3.3504435203999854e+01 1.8247138773436571e+01 4.3206802010775675e-02
18692 3 3 3.5222548311381615e+01 1.9706727098358222e+01 1.0651519887284441e-01
18691 1 1 3.5002079417263289e+01 1.9365259574082827e+01 1.7685156222747028e-01
481 1 1 3.7235537294854225e+01 1.9343683468379567e+01 2.4290414947056696e-01
482 3 3 3.7054007427946367e+01 1.9682924349114881e+01 3.0751256948346728e-01
483 1 1 3.6822817769907310e+01 1.9949993226442029e+01 3.3933139995548162e-01
2678 3 3 4.5418146903927919e+01 1.8813231255232342e+01 1.2875947377767518e+00
2679 1 1 4.5561784336860079e+01 1.9089088560866678e+01 9.6895885481116117e-01
17562 1 1 3.6086209820429652e+01 2.0461422658829264e+01 3.7635073538208957e-01
17560 1 1 3.6709520895177434e+01 2.0076546210018076e+01 3.3173871677862604e-01
17561 3 3 3.6450435590666579e+01 2.0332701822166420e+01 2.8105199503212319e-01
11076 1 1 4.2399035464724768e+01 2.1278120173212116e+01 6.5278125202747805e-01
1195 1 1 4.2485706359436179e+01 2.1177461450994830e+01 6.7553016430610124e-01
1196 3 3 4.2760347497142327e+01 2.0925554517268573e+01 7.8341022980302633e-01
1197 1 1 4.3012954929040497e+01 2.0710516772589521e+01 9.3299768377023673e-01
7694 3 3 4.1454120377585795e+01 2.1971311973284312e+01 1.9234156373446812e-01
11075 3 3 4.2209888747542635e+01 2.1600660358722173e+01 5.7170770902955159e-01
7695 1 1 4.1788729233707166e+01 2.1853459560557233e+01 3.5410532790809496e-01
11074 1 1 4.1902303016913265e+01 2.1787339107989506e+01 3.9886450156230951e-01
7693 1 1 4.1218177951503840e+01 2.2184455432165532e+01 8.1773213703687050e-02
19 1 1 4.1104778478093031e+01 2.2264368947236054e+01 2.9862827350208222e-02
11243 3 3 3.6905628784241884e+01 2.4309356765875155e+01 1.2089779765915030e+00
11244 1 1 3.6542994254301718e+01 2.4193248768345022e+01 1.4409487422768914e+00
11242 1 1 3.6999541164390777e+01 2.3929639511820941e+01 1.3211730037940181e+00
19896 1 1 3.7018084125618422e+01 2.3786548934464559e+01 1.3718220584338601e+00
452 3 3 3.7303732825800367e+01 1.6828586871296643e+01 1.7769231006435104e+00
451 1 1 3.7251056029611078e+01 1.6733987154728464e+01 2.1816808694425354e+00
7503 1 1 3.4459057535345089e+01 1.7122578530901340e+01 1.6899239084858240e+00
6875 3 3 3.3849256063492376e+01 1.7604172131530710e+01 2.7037787825615593e+00
6876 1 1 3.3992204969101934e+01 1.7326110745566560e+01 2.4089082031935609e+00
7502 3 3 3.4185146170383518e+01 1.7162964661331554e+01 1.9776909880422935e+00
7501 1 1 3.4035208611552356e+01 1.7261731389927395e+01 2.2965654930549326e+00
6874 1 1 3.3789840822394730e+01 1.8005773221985468e+01 2.6922945028225231e+00
17065 1 1 3.3775294454124911e+01 1.8177356870313130e+01 2.6801263973543863e+00
984 1 1 4.0962569982885675e+01 1.8053932119372043e+01 2.6003554114458378e+00
21542 3 3 4.2090771465981234e+01 1.7519030232043736e+01 2.8319059131522852e+00
21543 1 1 4.1770195077218574e+01 1.7646822623135765e+01 2.8322061105858953e+00
982 1 1 4.1631062864739569e+01 1.7707072026782797e+01 2.8043367999982305e+00
21541 1 1 4.2284344771687522e+01 1.7815698403804113e+01 2.8256642990083103e+00
16615 1 1 4.2388288601230670e+01 1.7967955361693363e+01 2.7951100904676967e+00
983 3 3 4.1283779067679205e+01 1.7887250525042717e+01 2.7367625622632947e+00
16616 3 3 4.2636750713833315e+01 1.8268130066405590e+01 2.6699046886963531e+00
2462 3 3 4.5249823519346684e+01 1.8170270400452747e+01 2.0360645335354772e+00
2463 1 1 4.5259865241619174e+01 1.8442617652545067e+01 1.7491272279419168e+00
2461 1 1 4.5594270548704579e+01 1.8130968217628897e+01 1.9895312892179808e+00
17066 3 3 3.3739280714443716e+01 1.8545610493974291e+01 2.6400166077334513e+00
6884 3 3 3.4357947865477904e+01 1.9224507748917890e+01 2.5401632492649524e+00
6885 1 1 3.4685980906138681e+01 1.9541817766126702e+01 2.5444045792207395e+00
6883 1 1 3.4112483717224038e+01 1.8948965791516770e+01 2.5175919293514428e+00
17067 1 1 3.4012173797470119e+01 1.8817847617094255e+01 2.5609821779127868e+00
7035 1 1 3.4914206238589308e+01 1.9481298468644699e+01 1.5922874926062414e+00
7034 3 3 3.5162613556513904e+01 1.9355464707915925e+01 1.8236145276206570e+00
7033 1 1 3.5302539482504770e+01 1.9209328462522038e+01 2.1846100978614089e+00
6160 1 1 3.5334516012891157e+01 1.9166824409860588e+01 2.2909919624726509e+00
6162 1 1 3.5335737977719425e+01 1.9081769590896581e+01 3.0229920510072334e+00
6161 3 3 3.5488939687899524e+01 1.9029967488136425e+01 2.6610918867450875e+00
5004 1 1 4.3186371552415160e+01 1.9107705193574411e+01 1.9123310856624047e+00
5003 3 3 4.3020105277628176e+01 1.8845641704742924e+01 2.0609775362612948e+00
5002 1 1 4.2831574598535070e+01 1.8608404967105134e+01 2.3068052740706126e+00
16617 1 1 4.2780578989929857e+01 1.8534378019922880e+01 2.3961129272020294e+00
2677 1 1 4.5304796441255512e+01 1.8548293712314521e+01 1.6413965923390457e+00
2251 1 1 4.0664604473606303e+01 2.3049242925931129e+01 2.3551615402619444e+00
5632 1 1 4.0222118417581392e+01 2.3022270049018331e+01 2.9733683972041622e+00
5634 1 1 3.9643287463979249e+01 2.2566175161005706e+01 3.0866776625667978e+00
19895 3 3 3.6981059244309783e+01 2.3411248940148305e+01 1.5807210683434063e+00
19894 1 1 3.7313947830759872e+01 2.3427605713398794e+01 1.7048713912548408e+00
2252 3 3 4.0658057988117370e+01 2.3273123628473915e+01 2.6735222886588454e+00
2253 1 1 4.0338837771710757e+01 2.3089039425093745e+01 2.8935669518270126e+00
3682 1 1 3.9723377171525065e+01 2.3947172387305589e+01 1.6680224047746450e+00
3683 3 3 3.9660375549344280e+01 2.4376642554846779e+01 1.5823981033711356e+00
3684 1 1 3.9746933680194758e+01 2.4749280054938481e+01 1.7745488506957676e+00
11829 1 1 3.9809494031372481e+01 2.4911641845109436e+01 1.8448005052727310e+00
11828 3 3 3.9879219674230988e+01 2.5239608093543684e+01 2.0179673563684233e+00
11827 1 1 3.9519994510197463e+01 2.5103461291620381e+01 2.1916405196685416e+00
5633 3 3 3.9863207675908100e+01 2.2835487270440495e+01 3.2248121035509834e+00
12873 1 1 3.8310688397543544e+01 1.6401815945535830e+01 5.2091816724369790e+00
12872 3 3 3.8285705749407263e+01 1.6770435787843407e+01 5.3920624329225006e+00
12871 1 1 3.8309032661964281e+01 1.6889280665622980e+01 5.7735973972390511e+00
11430 1 1 3.7604416961864096e+01 1.7794484396206553e+01 5.2833380345761904e+00
11429 3 3 3.7919345710971044e+01 1.7680506493228535e+01 5.4837351248929433e+00
19829 3 3 3.8881584787007853e+01 1.7776648657614633e+01 5.4731095077840450e+00
19828 1 1 3.9245397515554139e+01 1.7849609487298324e+01 5.3095166178023794e+00
19830 1 1 3.8452821386273556e+01 1.7684637756182884e+01 5.4984994011011246e+00
11428 1 1 3.8307460817015155e+01 1.7661868975380877e+01 5.4792458974587515e+00
11805 1 1 3.5966589884311588e+01 1.9013949218019693e+01 5.5828538803502354e+00
171 1 1 3.6057188773439847e+01 1.8987108606002959e+01 5.4545362529095680e+00
170 3 3 3.6304920437133156e+01 1.8981667097345014e+01 5.1344147113274365e+00
11804 3 3 3.5704927494218275e+01 1.9012301581131862e+01 5.9258198302251106e+00
169 1 1 3.6570713861260053e+01 1.8989626989563632e+01 4.8962276367030846e+00
15009 1 1 3.8799946664224798e+01 2.2538040615528928e+01 6.1303103574459019e+00
4149 1 1 3.5572728591161230e+01 1.7133158058002710e+01 6.2489472476164245e+00
4148 3 3 3.5457485451515240e+01 1.7395195298230643e+01 6.5133682560638722e+00
4147 1 1 3.5505649538837162e+01 1.7759158558566181e+01 6.5062915144484030e+00
12391 1 1 3.5519606987598017e+01 1.7884208915923296e+01 6.5037532960925164e+00
12392 3 3 3.5598178474116409e+01 1.8274943540086316e+01 6.5421335308221424e+00
12393 1 1 3.5641027079947278e+01 1.8623908984300311e+01 6.3021686486576307e+00
11803 1 1 3.5671863531749061e+01 1.8721228553301692e+01 6.2119927204455632e+00
15008 3 3 3.8957049050381038e+01 2.2544717986944097e+01 6.4986087801443135e+00
15007 1 1 3.9129101789043872e+01 2.2630533474345771e+01 6.8260555765249959e+00
17674 1 1 3.9190182226738294e+01 2.2651517170502192e+01 6.9306490864168522e+00
17675 3 3 3.9385433069995365e+01 2.2656413296730044e+01 7.2752502286614602e+00
17676 1 1 3.9227320371746323e+01 2.2557503956569928e+01 7.6046573058202327e+00
8845 1 1 3.9152667856334297e+01 2.2496581305464371e+01 7.7412494474923230e+00
6018 1 1 1.7608960047732317e+01 1.0633600390039970e+01 9.2468695713957967e+00
27 1 1 3.7931275768965428e+01 2.2087890549309840e+01 9.0636021568841585e+00
2641 1 1 3.8047749076084258e+01 2.2067713572598223e+01 8.9602228767248597e+00
2643 1 1 3.8582035263486055e+01 2.2168022325318720e+01 8.4591366991294432e+00
2642 3 3 3.8331881434921669e+01 2.2050159177771310e+01 8.7051814356685977e+00
8847 1 1 3.8685204448837752e+01 2.2207652847253215e+01 8.3576936416662537e+00
8846 3 3 3.8975327371229561e+01 2.2313858038327258e+01 8.0900863356505344e+00
4923 1 1 3.7068729111506634e+01 7.5366129834023328e+00 9.7974880341282091e+00
4922 3 3 3.7376586113114200e+01 7.7005331569777020e+00 9.9039423133358753e+00
4921 1 1 3.7632055955915291e+01 7.9530506126087923e+00 9.6736693154692279e+00
6016 1 1 1.7119858141366507e+01 1.0367931629045493e+01 9.6974673125007094e+00
6017 3 3 1.7456705371651186e+01 1.0584689697669106e+01 9.5984659002394235e+00
25 1 1 3.7301424517617178e+01 2.1957074670215615e+01 9.3954195539587264e+00
26 2 2 3.7646781794479772e+01 2.2138480927496619e+01 9.3054673255961813e+00
1212 1 1 1.9021255727091930e+01 2.9562346231167954e+01 2.4772792280311712e+01
4723 1 1 1.8761533318903787e+00 3.5579912093195361e+01 2.4764936794152398e+01
7734 1 1 1.9448440852343492e+00 3.5704944740068193e+01 2.4696183144035405e+01
7733 3 3 2.0858170572783390e+00 3.5953608818871317e+01 2.4536969309639971e+01
7732 1 1 2.0610948436742511e+00 3.6185410263982547e+01 2.4285549117372792e+01
6286 1 1 4.4660880015257387e+00 3.6195496959433548e+01 2.3689609231845136e+01
6288 1 1 4.6898596338554679e+00 3.6932601010012334e+01 2.3790513175974091e+01
6287 3 3 4.5925342047060509e+00 3.6548797687924626e+01 2.3727061907110073e+01
4446 1 1 5.5814312940400468e+00 4.0170089770203283e+01 2.3706335622579576e+01
4445 3 3 5.8862903965345890e+00 3.9968893665995715e+01 2.3725524551788212e+01
3813 1 1 6.2558999359739147e+00 3.9609059755775625e+01 2.3792671714777185e+01
4444 1 1 6.1657874795315353e+00 3.9692990541627395e+01 2.3755004682068872e+01
3812 3 3 6.4869519233200643e+00 3.9362768117600645e+01 2.3991658448152084e+01
3811 1 1 6.7216976083732876e+00 3.9198581411722898e+01 2.4236108292408051e+01
1210 1 1 1.9364625952530183e+01 2.9667245410986361e+01 2.5514908724588402e+01
1211 3 3 1.9241359534693178e+01 2.9625324876905015e+01 2.5149808039324654e+01
8562 1 1 3.7246168768079897e+01 3.3842068772011089e+01 2.5277634768907994e+01
4725 1 1 1.3663281024095779e+00 3.4989617470782427e+01 2.5118918303651295e+01
4724 2 2 1.6668271125654126e+00 3.5200371927089684e+01 2.4939244318266514e+01
8561 3 3 3.7085415726153634e+01 3.4181772351949398e+01 2.5423656574176388e+01
8560 1 1 3.6829018538164142e+01 3.4455405677065798e+01 2.5430082253897066e+01
16734 1 1 1.0221929803333760e-01 4.1520965253347740e+01 2.6220791662149718e+01
7681 1 1 4.9956067143410507e+01 4.1475893927660742e+01 2.6207672719106167e+01
7682 3 3 4.9616984066841546e+01 4.1293231025992959e+01 2.6071616255294643e+01
7683 1 1 4.9522282176966918e+01 4.0903812623242338e+01 2.5866045223526612e+01
14364 1 1 5.6452475690554618e+00 3.8371586924673657e+01 2.6700041324085184e+01
14363 3 3 5.5528157465541321e+00 3.8749249413243227e+01 2.6715050827244145e+01
14362 1 1 5.6907470648535972e+00 3.9142881237098770e+01 2.6649196375357000e+01
15607 1 1 5.7580039406783703e+00 3.9272517420706976e+01 2.6626842476885560e+01
15608 3 3 5.9477149288013864e+00 3.9603292695730580e+01 2.6557021139692125e+01
15609 1 1 6.1031744718788952e+00 4.0033789161189425e+01 2.6642291078492018e+01
4896 1 1 8.4393764813446570e-01 4.1861137206269582e+01 2.6676048194677591e+01
16732 1 1 7.5171413856740055e-01 4.1798612012950997e+01 2.6566941405445899e+01
4895 3 3 1.1164144077203131e+00 4.1971293818385362e+01 2.6985811081769910e+01
4894 1 1 1.3277299912440710e+00 4.2116628417226771e+01 2.7316474395640906e+01
16733 3 3 4.9026327759663801e-01 4.1629288472443520e+01 2.6347341165323122e+01
8527 1 1 8.4523503922474692e+00 3.4741903919946296e+01 2.9297460696653356e+01
8528 3 3 8.6685203771474146e+00 3.5113793046144828e+01 2.9282381574702669e+01
3394 1 1 4.7464334545834550e+00 1.8106601945329366e+01 3.0757285710838357e+01
3396 1 1 4.4204163290096607e+00 1.8527881329899749e+01 3.0194790186702100e+01
3395 3 3 4.6115028132625495e+00 1.8414074897302996e+01 3.0544747952406695e+01
8529 1 1 8.7655716967810484e+00 3.5321055951313589e+01 2.9619622973695552e+01
6495 1 1 1.3551045633814403e+00 4.2119713782646215e+01 3.2573037907436657e+01
6494 3 3 1.7398278718728890e+00 4.2243196038649323e+01 3.2495932831097022e+01
3907 1 1 5.9498193328148252e+00 4.1214079792579440e+01 3.2524108614330004e+01
14635 1 1 5.3841849460086584e+00 4.1436333885620911e+01 3.1899967281950751e+01
14637 1 1 5.8743898564158403e+00 4.1290982839558680e+01 3.2420401624543906e+01
14636 3 3 5.6553409763155029e+00 4.1543696484630793e+01 3.2181920851046804e+01
6493 1 1 1.7497664192824640e+00 4.2598997046386316e+01 3.2429561784031876e+01
19714 1 1 7.9539579724167020e-01 4.0165156102235386e+01 3.4213821691195974e+01
3909 1 1 6.3589802114811791e+00 4.0637486848182220e+01 3.2708458396637411e+01
5056 1 1 2.7331183108588206e+00 4.1339705279998412e+01 3.4202281360132531e+01
3908 3 3 6.0993024642199458e+00 4.0955225363429733e+01 3.2737639146480518e+01
19716 1 1 1.4704364418838434e+00 4.0286193424259203e+01 3.4571386873205306e+01
19715 2 2 1.1444661712029323e+00 4.0098974765916260e+01 3.4379533091347234e+01
20674 1 1 1.5853658389936871e+00 4.0368576700440805e+01 3.4634957153746129e+01
20675 3 3 1.9142421675085761e+00 4.0576811580397774e+01 3.4793905786891457e+01
20676 1 1 2.1544533201189227e+00 4.0834662074579612e+01 3.4641322510951632e+01
5058 1 1 2.2505844003380511e+00 4.0933945834191725e+01 3.4595798648638670e+01
5057 3 3 2.4712322036386669e+00 4.1214994148543525e+01 3.4447100561154521e+01
12992 2 2 2.2203931811053081e+01 3.2603151321787038e+01 4.9813249567538385e+01
2689 1 1 2.2322701176490447e+01 3.3155044118358084e+01 4.9588406268901110e+01
12991 1 1 2.2290483548810805e+01 3.3002891844271595e+01 4.9644027241875882e+01
12993 1 1 2.2138224739658888e+01 3.2258723020514182e+01 4.9985633471894467e+01
2690 2 2 2.2434999768033503e+01 3.3584068927128527e+01 4.9544342166141561e+01
2691 1 1 2.2298877679857771e+01 3.3900459604733193e+01 4.9775432726829798e+01
5993 2 2 4.4331160330789686e+01 1.6547627505786334e+01 4.4969827741226453e+01
5994 1 1 4.4586112563242480e+01 1.6273058502339548e+01 4.4791328715808532e+01
5992 1 1 4.3986146253345645e+01 1.6810063841545148e+01 4.5057826920986685e+01
13843 1 1 4.3882778132092504e+01 1.6894079414579029e+01 4.5119115119933994e+01
13845 1 1 4.3233957371924063e+01 1.7058385782524997e+01 4.5599845940306913e+01
13844 3 3 4.3560629049135514e+01 1.7067220455472299e+01 4.5350035050543930e+01
16036 1 1 4.3084708373560375e+01 1.7067561988548835e+01 4.5677629041708222e+01
16037 3 3 4.2735977901890472e+01 1.7151666714567217e+01 4.5864360652470779e+01
16038 1 1 4.2823909515124534e+01 1.7200536721010270e+01 4.6228590170875087e+01
18583 1 1 4.2858539492376245e+01 1.7219461670792576e+01 4.6381307996818592e+01
18584 3 3 4.2928785755770718e+01 1.7220396475708998e+01 4.6799027249696472e+01
4245 1 1 4.5035250533956301e+01 2.1103290504996860e+01 4.6294962778551877e+01
3501 1 1 4.5057561955355482e+01 2.1026632422459887e+01 4.6413442167202632e+01
3500 3 3 4.5134095580229946e+01 2.0809019089216974e+01 4.6771864275000546e+01
4243 1 1 4.5087851520672686e+01 2.1508201350686729e+01 4.5609039539396484e+01
4244 3 3 4.4998980872134197e+01 2.1250660331592897e+01 4.5906951030959256e+01
936 1 1 3.6531751582075756e+01 1.6540427905911727e+01 4.8261066552879868e+01
15911 3 3 3.5702042045940118e+01 1.8124487839873947e+01 4.8397751671971704e+01
13000 1 1 3.8432724821102042e+01 1.7503553146307858e+01 4.8131577706764638e+01
13002 1 1 3.8745565719404397e+01 1.8156707812301622e+01 4.7707870509390496e+01
13001 3 3 3.8564869384176433e+01 1.7864017417764284e+01 4.7931594017190683e+01
10912 1 1 4.2696137332058747e+01 1.6879688116773142e+01 4.8061713063494061e+01
10913 3 3 4.2841346726865112e+01 1.6968973714470845e+01 4.7673001303810501e+01
10914 1 1 4.2857747728524721e+01 1.7163318620064089e+01 4.7304666062323186e+01
18585 1 1 4.2879348308766090e+01 1.7201163338017135e+01 4.7185320745163061e+01
4527 1 1 4.2658450307092373e+01 1.6852011013394211e+01 4.8219177518462942e+01
12543 1 1 3.8799618272700449e+01 1.8264990501171937e+01 4.7650129688249045e+01
12542 3 3 3.8988677786108120e+01 1.8579219282275510e+01 4.7472346289001379e+01
17809 1 1 3.9350332731757106e+01 1.9481564840790739e+01 4.7220517140981812e+01
1296 1 1 3.9264572984228607e+01 1.9546661729006306e+01 4.7239308082424550e+01
12541 1 1 3.9301939854501462e+01 1.8807650415333303e+01 4.7294270870241839e+01
17811 1 1 3.9392035536695467e+01 1.8894659296046342e+01 4.7252321286246421e+01
17810 3 3 3.9653618760701626e+01 1.9134748796270486e+01 4.7154334029108696e+01
17176 1 1 3.7038536920131527e+01 2.0525389512062588e+01 4.7847775284578773e+01
17177 3 3 3.7030115577978904e+01 2.0234371335043061e+01 4.8126658160857808e+01
16762 1 1 3.7033471053828883e+01 2.0624325639641651e+01 4.7754250222512766e+01
16763 3 3 3.7024319688434531e+01 2.0925270731228689e+01 4.7521387289007372e+01
17246 3 3 3.8464055033228931e+01 2.0161165650648300e+01 4.8038139595421676e+01
1295 3 3 3.8975287008010952e+01 1.9866413330800150e+01 4.7335197908183673e+01
17245 1 1 3.8675691007474754e+01 2.0056293988220769e+01 4.7730681632055550e+01
1294 1 1 3.8763662279154310e+01 2.0013477651260292e+01 4.7609426509013538e+01
17247 1 1 3.8292057716119864e+01 2.0129386192917877e+01 4.8397860576527407e+01
1614 1 1 4.0391171219320327e+01 2.1146552404375171e+01 4.8318146904205541e+01
3499 1 1 4.5085378198579512e+01 2.0671354621596333e+01 4.7161039585371753e+01
16764 1 1 3.6946355987300322e+01 2.1264034891813587e+01 4.7708959974120475e+01
2974 1 1 3.6939351136237413e+01 2.1412937107493384e+01 4.7781496325424165e+01
2975 3 3 3.6933719755068338e+01 2.1783659697392263e+01 4.7999253851638393e+01
2976 1 1 3.6983357927498872e+01 2.1919367889278689e+01 4.8367723692928472e+01
1613 3 3 4.0661507670739937e+01 2.1259738127086820e+01 4.7966696638593575e+01
1612 1 1 4.0796887934720878e+01 2.1535651044631688e+01 4.7695435522531476e+01
9398 3 3 3.7872047819806809e+01 2.3526118812725009e+01 4.7536290911580586e+01
9397 1 1 3.7591934030947179e+01 2.3378696097982250e+01 4.7746303759077080e+01
9399 1 1 3.8163984427463909e+01 2.3464210293815356e+01 4.7335118188735912e+01
20997 1 1 3.8277218032568392e+01 2.3429512802934632e+01 4.7259764380184883e+01
20996 3 3 3.8606872450319422e+01 2.3297349012669589e+01 4.7081187953507865e+01
20995 1 1 3.8964896808637931e+01 2.3337935059224904e+01 4.7093361275555594e+01
3219 1 1 3.9116294538615996e+01 2.3384329865131356e+01 4.7109164573545257e+01
3218 3 3 3.9481635084919439e+01 2.3560672792484333e+01 4.7171089490276955e+01
3217 1 1 3.9514857717875898e+01 2.3760157332980864e+01 4.7479886559189616e+01
7544 3 3 3.7523385702157526e+01 1.4609915495295693e+01 4.9824690000787555e+01
18688 1 1 3.7107066272007017e+01 1.4901991359894550e+01 4.9743412849557338e+01
18689 3 3 3.6846405088615242e+01 1.5069982295985142e+01 4.9544831633826441e+01
7543 1 1 3.7225082064427227e+01 1.4812080576152486e+01 4.9792921463447421e+01
14741 3 3 4.2236331650312863e+01 1.4655723764588000e+01 4.9734186187348605e+01
14740 1 1 4.2138854704495394e+01 1.5034684469129973e+01 4.9664585529706365e+01
14742 1 1 4.2541706019463930e+01 1.4383670667681148e+01 4.9866702615316413e+01
935 3 3 3.6311065239862060e+01 1.6468674072317242e+01 4.8576999012326382e+01
934 1 1 3.6410531117920250e+01 1.6127558725004267e+01 4.8732136028964817e+01
15574 1 1 3.6451610799404513e+01 1.5995371952503724e+01 4.8794608781262610e+01
15575 3 3 3.6589520577008784e+01 1.5651010897447872e+01 4.8864400308796029e+01
15576 1 1 3.6708704892991996e+01 1.5427850593851051e+01 4.9149797545066370e+01
18690 1 1 3.6753145690399897e+01 1.5353062523866704e+01 4.9243401899235451e+01
2619 1 1 4.2132523822308443e+01 1.5168383097309041e+01 4.9644891184750769e+01
2618 3 3 4.2035683338892468e+01 1.5572604350721308e+01 4.9623523036420842e+01
2617 1 1 4.1976059558279843e+01 1.5934503445783108e+01 4.9502768328085935e+01
391 1 1 4.1977166635856349e+01 1.6059323080238585e+01 4.9463934782716770e+01
392 3 3 4.1937608576252259e+01 1.6389869612067439e+01 4.9381785231342519e+01
393 1 1 4.2204079620108885e+01 1.6546104663464607e+01 4.9067166864372673e+01
4525 1 1 4.2309361982703876e+01 1.6608786137874080e+01 4.8949374543378624e+01
4526 3 3 4.2569814266791866e+01 1.6738973338227211e+01 4.8638367014985079e+01
11057 3 3 3.4182429200119707e+01 1.8376706478832549e+01 4.9416692556544390e+01
11056 1 1 3.3904658294411142e+01 1.8316028504411388e+01 4.9698232507336265e+01
3957 1 1 3.3779680554272723e+01 1.8287305177678007e+01 4.9801807999146348e+01
12765 1 1 3.5266177849355444e+01 1.8304758512364369e+01 4.8676345967417888e+01
15912 1 1 3.5376058355639238e+01 1.8238170925568369e+01 4.8601218741296435e+01
12763 1 1 3.4669832500823603e+01 1.8330262251087312e+01 4.9111464622719112e+01
12764 3 3 3.4898896986116959e+01 1.8398818888178994e+01 4.8857334933170769e+01
11058 1 1 3.4554989247474481e+01 1.8329651852763352e+01 4.9187898850147938e+01
15910 1 1 3.6099940082942560e+01 1.8253535089647187e+01 4.8453036514385730e+01
18693 1 1 3.5576558085189930e+01 1.9745221875161540e+01 4.9909561201537365e+01
17178 1 1 3.6911730941703041e+01 2.0130391866028248e+01 4.8465892097462941e+01
19050 1 1 3.6987350235150473e+01 2.1986777364575502e+01 4.8503785874097680e+01
14194 1 1 3.6731830068754284e+01 2.2478634172549285e+01 4.9158389387510113e+01
19049 3 3 3.7041492452374179e+01 2.2169853720687822e+01 4.8886769979292104e+01
19048 1 1 3.6847626817267475e+01 2.2395173801241139e+01 4.9096854101875088e+01
14195 3 3 3.6451775258946448e+01 2.2668245733469075e+01 4.9339537539151664e+01
21 1 1 4.0392250504372385e+01 2.2610290407416723e+01 4.9847198855261055e+01
5248 1 1 4.0264671354061974e+01 2.2672659215934864e+01 4.9781784588941015e+01
20 3 3 4.0763096063767392e+01 2.2502759241833555e+01 4.9929891493908123e+01
14196 1 1 3.6142613629811869e+01 2.2831741143464626e+01 4.9459231480799602e+01
5249 3 3 3.9953088403543916e+01 2.2833614779560534e+01 4.9700855722613930e+01
5250 1 1 3.9745878600514700e+01 2.3160305968518593e+01 4.9650951636822761e+01
1006 1 1 4.2067289719919984e+01 2.5076533269792169e+01 4.8655797695695071e+01
1007 3 3 4.2304189473904536e+01 2.4846740677680160e+01 4.8818046191521205e+01
1008 1 1 4.2366514204859627e+01 2.4429439693569769e+01 4.8845578485908220e+01

Velocities

1909 -2.4100384971587951e+00 3.4974689931596115e+00 9.9733518024990033e+00
1911 1.7112815814257507e+00 4.1890041273824172e+00 2.5510691093170541e+00
1910 -3.6931046654205488e+00 -4.7833890208697127e+00 -8.5702511906285095e-01
18287 1.1476133293390314e+00 4.2422690739615359e+00 -3.2429879402696278e+00
18288 2.9456661877462484e+00 -3.1829942935875013e+00 4.3635071645335677e-01
18286 4.5198445337059789e+00 -8.5854264555745434e+00 -2.1016864249343454e+00
6198 2.2740744242047986e+00 -1.5160709111557815e+00 6.0174135921233471e+00
6946 7.2323770687475930e+00 -3.9786119965434699e+00 -1.0767569998565396e+00
6197 -4.3999532078512171e+00 4.6820013031600869e+00 2.9113665819626000e-01
6196 2.3249662841318126e+00 -1.0308849664569173e+00 2.4459756304874780e+00
13053 8.8834792114650674e-01 3.9366983929214445e+00 1.8296659176710857e+00
13052 1.6396017853340823e+00 -3.7945412072870160e-01 -5.1338355928345092e-01
13051 -4.8381845996983266e+00 -2.1396321585851727e+00 -6.1692390880244830e+00
7545 7.2757509597930292e-01 8.1721996420775045e-01 -3.5277855856540414e+00
16460 2.5993707094264442e+00 -2.7016117233084755e+00 -3.9282830038157552e+00
6948 2.8401586029926484e-01 8.7778266137262957e+00 -3.1236660432636185e+00
6947 1.0799118745929880e-01 -4.3298969829018450e+00 -1.2676465117315938e-01
16461 -7.3928290129145657e-01 2.3557965205871412e+00 1.3147170233920054e+00
16459 -2.8694952774376055e+00 -5.8596617655879717e+00 4.5397522021807566e+00
19736 -6.4269577607557435e+00 -3.8011023588316473e+00 4.3001656079080069e-01
19735 -1.7762091364452988e+00 -3.3716479644807409e+00 -1.7831727140816844e+00
19737 7.2613497159624760e+00 -2.4880314263019545e+00 -1.8043088411344468e+00
453 1.2954692963803029e+00 -2.0183462657685547e-01 1.0301848279874797e+00
3955 -1.2790973910694761e+00 -4.8434541531550028e+00 3.7305355473204598e+00
3956 -1.6110571711831869e+00 1.2214774844529208e+00 -3.8348909969035145e+00
18692 4.2287513539896582e-01 -2.6435985930750561e+00 -6.4675017262808032e-01
18691 -4.5153994619091764e-01 -5.6000239427621654e+00 4.8372932812245182e+00
481 -1.6365902854514809e+00 2.3756313147088672e+00 9.7209988214427534e-01
482 9.8639689301507461e-01 -1.2410170409853754e+00 -1.6029895681169517e+00
483 -8.6195559211264583e-01 -7.5969594571053207e+00 -3.9535961853605146e+00
2678 -9.2325431571352445e-01 5.5381125558820898e-01 -1.9357110663897998e+00
2679 -4.3872208750532327e+00 -1.5587309599165098e+00 1.0642370197986373e+00
17562 -1.4450578620661778e+00 -3.2200928173631160e-01 1.0628605168689145e+00
17560 -7.9406597444105698e+00 4.8545252506924070e+00 2.2853290094016381e+00
17561 5.0832773301243672e-01 -9.4596606512681403e-01 5.6208555910267699e-01
11076 1.7468755363857150e-01 4.1096518604246333e+00 -4.7344426821030945e+00
1195 1.5733013566210854e+00 -9.8538432041157753e-01 -5.0414349249779464e+00
1196 3.0100690070795335e+00 -1.4481465727063927e+00 5.5651615563294743e-01
1197 7.4361484417170209e-01 9.0636540688308531e-01 1.5201637483620827e+00
7694 -9.2901754761928884e-02 -2.0425105228510967e+00 6.1669919012387031e-01
11075 -6.6242703341508689e+00 1.2823429006832441e+00 3.2947828672003716e+00
7695 -1.1161204741817012e+00 -3.1443595161278126e+00 1.1129847068881249e+00
11074 1.1915208946055014e+00 2.7403819869084683e-01 -5.2587174134753412e-01
7693 -1.1914873109051745e+00 -1.1001938215591989e+00 3.4623847842321012e+00
19 1.9168328483603343e+00 4.1359508203830311e+00 -5.0986244730534231e+00
11243 2.2812503754365090e+00 -1.7282454325463732e+00 3.9604168025202249e+00
11244 1.2021892988552816e+00 -4.2351096148221909e+00 2.4103296089896373e+00
11242 -5.5366029143488564e+00 2.6331291158215495e+00 1.2814626737286303e+00
19896 -5.1508872350209811e-01 -1.8177864268743504e+00 -2.5529300154803534e+00
452 -2.2504250219370497e-02 -3.8633912040134031e+00 -9.7221322151738954e-01
451 -3.9002213015641241e-01 1.7437426351797325e+00 -2.0979725253324037e+00
7503 -2.4062809933505620e+00 -2.5124877683610785e+00 -1.4405004212019534e+00
6875 -4.1566470297201743e+00 2.2439538595782205e+00 -1.6532346430840643e+00
6876 -6.7832299147183468e+00 1.0994972348817212e+01 4.3146604031913363e+00
7502 -2.3174102264211500e+00 5.7534687664828499e-01 2.4923005071503138e-01
7501 3.2310669741538760e+00 -7.8011879560760578e-01 2.7632887606143410e+00
6874 -4.9579748224355740e+00 -3.3682803614401653e+00 2.6138742945715534e+00
17065 1.4324173358870926e+00 5.4927547679979902e+00 3.8644462398218293e-01
984 -6.9831086790041841e-01 8.3520479082097445e+00 -1.0443697700013763e+00
21542 7.9555015539837881e-01 -1.9114152358697183e+00 1.7388493333736481e+00
21543 4.5278810779267085e+00 -8.3435891375814009e-01 9.1027286021933096e-01
982 -5.3876404949364893e+00 -2.6172132306682117e+00 3.4912844777861105e+00
21541 1.5954618946825629e+00 -5.9077199450260909e-02 6.5183926951912872e+00
16615 -2.3692411313707198e+00 -2.1107099306549522e+00 2.0219108612961407e+00
983 -6.0102393560553624e-01 1.2343919312970313e-01 7.1610851040817347e-01
16616 -2.1243027368049985e+00 -3.0391272133189418e+00 -5.0468890442009293e+00