ITEM: TIMESTEP
20000000
ITEM: NUMBER OF ENTRIES
632
ITEM: BOX BOUNDS pp pp pp
0 50
0 50
0 50
ITEM: ENTRIES c_binfo[1] c_binfo[2] c_binfo[3] 
2 10060 10061 
2 3212 3213 
1 3213 14799 
2 18785 18786 
2 14798 14799 
2 14797 14798 
2 5053 5054 
1 5053 17803 
2 5054 5055 
2 17803 17804 
2 10061 10062 
2 2167 2168 
1 2167 10594 
2 10595 10596 
1 10596 18784 
2 18784 18785 
2 10594 10595 
1 10062 14919 
3 5234 5235 
2 10237 10238 
2 3211 3212 
1 3211 10237 
3 5233 5234 
1 5233 10239 
2 10238 10239 
2 17413 17414 
1 17413 21580 
2 17414 17415 
2 21580 21581 
2 21581 21582 
2 12554 12555 
2 6541 6542 
1 6541 7915 
2 12553 12554 
2 6542 6543 
2 6182 6183 
2 17804 17805 
2 5131 5132 
1 5131 6181 
2 5132 5133 
2 6181 6182 
2 10984 10985 
2 10985 10986 
1 5133 9889 
2 9889 9890 
2 9890 9891 
3 9017 9018 
3 9016 9017 
1 9016 9307 
3 9307 9308 
3 9308 9309 
1 9309 15708 
2 15706 15707 
1 15706 20686 
2 15707 15708 
3 8722 8723 
1 6579 8722 
3 6578 6579 
3 6577 6578 
1 4137 6577 
2 4136 4137 
2 1076 1077 
2 5882 5883 
2 1075 1076 
1 1075 5883 
3 8723 8724 
2 16787 16788 
1 10986 16788 
2 16786 16787 
2 13903 13904 
1 13903 16786 
2 9745 9746 
2 9746 9747 
2 16756 16757 
1 9747 16756 
1 594 6810 
3 6808 6809 
3 6809 6810 
3 18911 18912 
3 18910 18911 
3 20686 20687 
3 20687 20688 
2 7550 7551 
2 13904 13905 
3 3940 3941 
2 6787 6788 
2 6788 6789 
2 593 594 
3 3941 3942 
2 592 593 
1 592 17314 
2 17315 17316 
2 17314 17315 
1 16959 17380 
2 16958 16959 
2 16957 16958 
1 16957 19699 
2 19699 19700 
2 19700 19701 
2 14429 14430 
2 15193 15194 
2 10345 10346 
2 14428 14429 
2 13715 13716 
2 17113 17114 
2 7945 7946 
2 14600 14601 
2 14599 14600 
2 914 915 
2 913 914 
1 915 21153 
2 17381 17382 
2 17380 17381 
2 18050 18051 
2 18049 18050 
1 324 18049 
2 323 324 
2 15194 15195 
1 14034 15195 
2 14033 14034 
2 14032 14033 
1 14032 16341 
3 5630 5631 
2 4319 4320 
3 5629 5630 
1 5629 20871 
1 4320 10048 
2 10048 10049 
2 4318 4319 
1 4318 21151 
2 10346 10347 
1 10347 21400 
2 21151 21152 
2 21152 21153 
2 322 323 
2 6575 6576 
2 13714 13715 
2 21401 21402 
2 21400 21401 
1 5358 21402 
2 5357 5358 
2 5356 5357 
2 2914 2915 
1 2914 5356 
2 19108 19109 
2 19109 19110 
2 17114 17115 
2 16339 16340 
1 2916 16339 
2 2915 2916 
1 7947 9612 
2 9611 9612 
2 7946 7947 
2 9610 9611 
1 6576 9610 
2 2626 2627 
2 2627 2628 
3 134 135 
3 133 134 
2 9968 9969 
2 9967 9968 
1 9967 14614 
1 19386 19485 
2 19384 19385 
1 4959 19384 
2 19385 19386 
2 4958 4959 
2 4957 4958 
1 4957 15150 
2 14917 14918 
1 9900 14917 
2 12295 12296 
2 3923 3924 
2 2929 2930 
1 2929 3922 
2 3922 3923 
2 2930 2931 
2 12296 12297 
2 14918 14919 
2 382 383 
1 382 13954 
2 13954 13955 
2 13586 13587 
2 13955 13956 
2 13585 13586 
1 13585 13956 
2 383 384 
2 14896 14897 
2 14897 14898 
1 14898 19483 
2 19483 19484 
2 19484 19485 
2 13666 13667 
1 3171 13666 
2 10049 10050 
2 20870 20871 
1 18177 20869 
2 20869 20870 
2 18176 18177 
2 1411 1412 
1 1411 18175 
2 18175 18176 
1 5589 13707 
2 5588 5589 
2 5587 5588 
1 5587 10866 
2 10865 10866 
1 12297 14491 
2 14491 14492 
1 8679 10864 
2 10864 10865 
2 14492 14493 
1 14493 16806 
2 16805 16806 
2 16804 16805 
1 16804 18018 
2 18017 18018 
2 16340 16341 
2 18016 18017 
2 17338 17339 
1 17338 20928 
2 17339 17340 
2 13667 13668 
2 13705 13706 
2 13706 13707 
2 17345 17346 
2 8473 8474 
1 8473 17344 
2 17344 17345 
2 6574 6575 
1 6574 20949 
1 2493 17346 
2 20948 20949 
2 2491 2492 
1 2491 2628 
2 2492 2493 
2 20947 20948 
2 5005 5006 
1 5005 19185 
2 5006 5007 
2 19184 19185 
1 3102 20947 
2 3100 3101 
1 3100 20926 
2 20926 20927 
2 3101 3102 
2 20927 20928 
1 846 19029 
2 19028 19029 
2 19076 19077 
2 19027 19028 
1 19027 19075 
2 19075 19076 
1 5007 12510 
2 12509 12510 
2 845 846 
2 844 845 
2 10009 10010 
1 16134 17823 
3 16133 16134 
3 16132 16133 
1 135 16132 
2 10010 10011 
2 21056 21057 
1 12237 21057 
2 12236 12237 
2 12235 12236 
2 14614 14615 
2 11668 11669 
2 14615 14616 
2 4135 4136 
2 7915 7916 
2 11669 11670 
1 8274 11670 
2 7916 7917 
2 15149 15150 
2 8273 8274 
2 15148 15149 
2 8648 8649 
2 9899 9900 
2 9898 9899 
2 19790 19791 
2 20500 20501 
1 19791 20500 
2 19789 19790 
2 8563 8564 
1 8563 19789 
2 20501 20502 
2 3611 3612 
1 3612 10705 
2 10705 10706 
2 13126 13127 
2 10706 10707 
1 10707 18792 
2 2168 2169 
2 18928 18929 
2 18929 18930 
2 13127 13128 
1 13128 18928 
2 8186 8187 
1 8187 9409 
2 9409 9410 
2 9410 9411 
2 3170 3171 
2 3547 3548 
2 3169 3170 
1 3169 3547 
2 3548 3549 
1 8178 8185 
2 8185 8186 
2 12598 12599 
1 12598 14965 
2 12599 12600 
1 1413 2931 
2 1412 1413 
2 5362 5363 
1 5362 8272 
2 8272 8273 
2 5363 5364 
1 8649 19362 
2 8678 8679 
2 8677 8678 
1 8677 13584 
2 12961 12962 
1 12961 19360 
2 13583 13584 
2 13582 13583 
1 13311 13582 
2 19360 19361 
2 19361 19362 
2 12962 12963 
2 20677 20678 
2 18791 18792 
2 18790 18791 
1 18790 20679 
2 20678 20679 
2 14669 14670 
2 14668 14669 
2 11708 11709 
2 4510 4511 
1 4510 11709 
2 4511 4512 
2 8177 8178 
2 8176 8177 
2 14965 14966 
2 3496 3497 
2 8474 8475 
2 17615 17616 
2 17614 17615 
2 2803 2804 
1 2803 17614 
2 2804 2805 
2 14966 14967 
2 3497 3498 
2 5623 5624 
2 5624 5625 
2 19183 19184 
2 5570 5571 
2 5569 5570 
1 5569 5614 
2 5614 5615 
2 5615 5616 
1 5616 13672 
2 7993 7994 
1 7993 14340 
2 7994 7995 
1 7995 16368 
2 16367 16368 
2 1517 1518 
2 16924 16925 
2 11971 11972 
1 11971 16924 
2 11707 11708 
2 16925 16926 
2 16366 16367 
1 16366 16926 
2 12844 12845 
2 1516 1517 
1 1516 12844 
2 12845 12846 
1 10203 11289 
2 11288 11289 
2 11287 11288 
1 11287 21291 
2 10202 10203 
2 10201 10202 
2 12508 12509 
1 1545 5625 
2 1544 1545 
2 1543 1544 
1 1543 8145 
2 13672 13673 
2 13673 13674 
1 13674 20655 
2 20654 20655 
2 8144 8145 
2 8143 8144 
1 8143 18868 
2 12019 12020 
2 7555 7556 
2 11972 11973 
2 20653 20654 
2 16699 16700 
1 16699 20529 
2 16700 16701 
2 20528 20529 
2 17822 17823 
2 18295 18296 
2 18296 18297 
1 13713 18297 
2 17821 17822 
1 17821 18295 
2 13712 13713 
2 190 191 
2 191 192 
2 18868 18869 
2 18869 18870 
3 17161 17162 
1 10011 16701 
3 569 570 
3 568 569 
1 568 21055 
2 21055 21056 
1 570 17163 
3 17162 17163 
2 5881 5882 
2 8647 8648 
2 4066 4067 
1 4066 8850 
2 4067 4068 
2 8849 8850 
2 8564 8565 
2 8848 8849 
1 8565 8848 
2 20317 20318 
2 16757 16758 
2 15493 15494 
1 15493 16758 
2 3610 3611 
2 5339 5340 
1 861 5338 
2 5338 5339 
2 860 861 
2 21443 21444 
2 15494 15495 
1 15495 21444 
2 859 860 
1 859 7176 
2 12397 12398 
2 20098 20099 
2 17038 17039 
1 17038 17616 
1 5151 17040 
2 5150 5151 
2 17039 17040 
2 4603 4604 
2 5149 5150 
1 5149 20098 
2 21043 21044 
2 20318 20319 
2 13310 13311 
2 13309 13310 
1 4605 20319 
2 4604 4605 
2 21539 21540 
2 13348 13349 
1 13348 21540 
2 14338 14339 
2 7174 7175 
1 7174 14338 
2 14339 14340 
2 21442 21443 
2 7175 7176 
2 16369 16370 
2 16370 16371 
1 2997 16371 
1 954 4512 
2 20879 20880 
1 11466 21045 
2 2258 2259 
1 2259 20880 
2 3178 3179 
1 3178 3498 
2 3179 3180 
2 2257 2258 
2 21044 21045 
2 7250 7251 
2 13349 13350 
2 20570 20571 
2 6274 6275 
1 6274 13350 
1 6276 7251 
2 6275 6276 
2 20569 20570 
2 12020 12021 
1 12021 19180 
2 19180 19181 
2 12241 12242 
2 12242 12243 
2 2996 2997 
2 2995 2996 
1 2995 11092 
2 19181 19182 
2 11092 11093 
2 11093 11094 
2 4549 4550 
1 4549 12241 
2 953 954 
2 952 953 
1 952 19182 
2 21289 21290 
2 21290 21291 
1 3180 21289 
2 8122 8123 
2 8123 8124 
1 8124 20571 
3 15877 15878 
3 15878 15879 
2 7556 7557 
2 1288 1289 
1 1288 7557 
1 7362 11094 
2 1289 1290 
2 20527 20528 
2 13120 13121 
1 13120 20527 
2 13121 13122 
2 13711 13712 
2 3157 3158 
1 3157 16878 
2 16877 16878 
2 16876 16877 
2 17231 17232 
2 17230 17231 
1 12165 17232 
2 12164 12165 
2 7549 7550 
2 1279 1280 
1 1279 7549 
2 19523 19524 
2 19522 19523 
1 1281 19522 
2 1280 1281 
2 751 752 
1 225 751 
2 224 225 
2 223 224 
2 752 753 
2 3001 3002 
1 3001 7356 
1 11859 12399 
2 12398 12399 
2 3164 3165 
2 11857 11858 
3 3685 3686 
1 3685 11857 
2 11858 11859 
2 20099 20100 
2 20878 20879 
1 12381 20878 
2 12380 12381 
2 3002 3003 
2 21538 21539 
2 17737 17738 
1 17737 21538 
2 17738 17739 
2 12379 12380 
1 12379 19524 
2 11518 11519 
2 11519 11520 
1 3003 11520 
2 11951 11952 
2 136 137 
2 137 138 
2 11950 11951 
2 3737 3738 
2 11464 11465 
2 11465 11466 
2 13228 13229 
2 7249 7250 
1 7249 13228 
2 13229 13230 
2 9700 9701 
1 9700 11952 
2 14042 14043 
2 4550 4551 
1 4551 11950 
2 12458 12459 
2 3736 3737 
1 3736 12459 
2 12457 12458 
1 12457 14041 
2 14041 14042 
2 7361 7362 
2 7360 7361 
1 7360 13924 
3 13924 13925 
3 13925 13926 
1 3159 13926 
2 3158 3159 
3 19946 19947 
2 12163 12164 
3 2749 2750 
1 2749 12163 
3 2750 2751 
1 2751 19947 
3 19945 19946 
3 12412 12413 
1 12412 19945 
2 13447 13448 
2 7355 7356 
2 7354 7355 
1 7354 8140 
3 8141 8142 
3 8140 8141 
2 12323 12324 
1 3165 12322 
2 12322 12323 
3 3686 3687 
2 3163 3164 
1 3163 3687 
2 13448 13449 
2 11681 11682 
2 11680 11681 
1 6573 12324 
3 6572 6573 
3 14098 14099 
3 14099 14100 
1 9702 14098 
2 9701 9702 
3 12413 12414 
3 6571 6572 
