ITEM: TIMESTEP
20000000
ITEM: NUMBER OF ENTRIES
421
ITEM: BOX BOUNDS pp pp pp
0 50
0 50
0 50
ITEM: ENTRIES c_binfo[1] c_binfo[2] c_binfo[3] 
2 6928 6929 
1 2094 14916 
2 2093 2094 
2 6929 6930 
1 6930 15705 
1 14520 20907 
2 14519 14520 
2 15704 15705 
2 2141 2142 
2 3944 3945 
2 2140 2141 
1 2140 20725 
2 20725 20726 
2 20726 20727 
1 9816 20727 
2 932 933 
1 933 7405 
2 14050 14051 
2 2092 2093 
1 2092 14050 
1 14502 15465 
2 14501 14502 
2 14500 14501 
2 14051 14052 
2 14518 14519 
2 3893 3894 
1 3894 14518 
2 14732 14733 
2 3892 3893 
2 21182 21183 
2 5221 5222 
2 14936 14937 
2 14935 14936 
1 1611 7407 
2 13133 13134 
2 931 932 
1 931 16591 
2 16591 16592 
2 7405 7406 
2 16592 16593 
2 7406 7407 
1 12816 20394 
2 20393 20394 
2 13262 13263 
2 20392 20393 
2 2185 2186 
1 2185 20392 
2 3485 3486 
2 21181 21182 
2 13261 13262 
1 13261 21181 
2 12571 12572 
2 19477 19478 
2 2186 2187 
2 14731 14732 
2 11983 11984 
1 11983 14731 
1 11985 20613 
2 11984 11985 
2 8779 8780 
1 8779 16639 
2 8780 8781 
2 12814 12815 
2 12815 12816 
2 12722 12723 
2 1529 1530 
1 12723 19479 
2 1528 1529 
2 19478 19479 
2 16526 16527 
2 16640 16641 
2 16639 16640 
2 16525 16526 
1 16525 20919 
2 20144 20145 
2 15796 15797 
1 15796 20143 
2 20143 20144 
3 9815 9816 
3 13823 13824 
3 13822 13823 
1 13822 14052 
3 9814 9815 
1 9814 13824 
2 20906 20907 
2 20905 20906 
1 2187 5032 
3 5032 5033 
3 5033 5034 
1 5034 14788 
3 14788 14789 
3 2902 2903 
3 2903 2904 
3 14789 14790 
1 1530 14299 
2 14299 14300 
2 14300 14301 
3 3970 3971 
1 3970 15798 
3 3971 3972 
2 15797 15798 
2 868 869 
2 869 870 
3 13532 13533 
3 13531 13532 
1 13531 17284 
3 17284 17285 
3 17285 17286 
1 6702 17286 
3 6701 6702 
3 6700 6701 
1 6700 10579 
2 10579 10580 
2 10580 10581 
3 2105 2106 
3 2104 2105 
1 2106 5523 
3 5684 5685 
2 5521 5522 
1 5521 5683 
2 5522 5523 
3 5683 5684 
2 1108 1109 
2 8873 8874 
2 1109 1110 
2 8872 8873 
1 8872 18418 
2 20576 20577 
2 11543 11544 
1 11544 20575 
2 20575 20576 
2 11542 11543 
2 9733 9734 
1 9733 20577 
2 9904 9905 
1 9904 18420 
2 9905 9906 
3 8821 8822 
2 18418 18419 
2 18419 18420 
2 7202 7203 
1 7203 14811 
2 7201 7202 
1 10560 15982 
2 15983 15984 
2 15982 15983 
2 10559 10560 
2 5854 5855 
2 5855 5856 
1 5856 9735 
2 10558 10559 
1 10558 20784 
2 14809 14810 
2 14810 14811 
2 11921 11922 
2 9734 9735 
2 20782 20783 
2 20783 20784 
3 13253 13254 
3 13252 13253 
2 3319 3320 
2 3320 3321 
2 5423 5424 
1 5424 16312 
2 11749 11750 
2 11750 11751 
2 2590 2591 
1 2590 6501 
2 14494 14495 
2 14495 14496 
2 2591 2592 
1 2592 14494 
2 6871 6872 
2 6872 6873 
1 4548 14925 
2 4547 4548 
2 758 759 
2 16313 16314 
2 16312 16313 
2 2630 2631 
2 11719 11720 
2 1513 1514 
2 1372 1373 
1 1372 1513 
2 1373 1374 
3 8822 8823 
2 17411 17412 
2 17147 17148 
2 17146 17147 
1 17146 21358 
2 21358 21359 
2 757 758 
1 757 6871 
2 17410 17411 
1 17410 18048 
2 18047 18048 
2 18046 18047 
2 6772 6773 
1 6772 18046 
1 6873 17148 
2 16793 16794 
2 16792 16793 
1 759 16792 
2 6773 6774 
2 6586 6587 
1 2631 16794 
2 1514 1515 
2 6023 6024 
2 1093 1094 
1 1093 1515 
2 1094 1095 
1 1095 6022 
2 6022 6023 
2 5689 5690 
1 5689 9535 
2 9535 9536 
2 9536 9537 
2 5690 5691 
1 9537 12901 
2 4250 4251 
2 2083 2084 
2 587 588 
2 19858 19859 
2 19859 19860 
2 18932 18933 
2 18931 18932 
1 18931 19858 
1 588 18933 
2 586 587 
1 6762 20134 
2 11920 11921 
1 11920 20136 
1 6588 19860 
2 6587 6588 
2 20134 20135 
2 20135 20136 
2 11008 11009 
1 6024 20371 
2 20371 20372 
2 20372 20373 
2 11009 11010 
1 11010 19002 
2 19001 19002 
2 1169 1170 
2 718 719 
2 1168 1169 
2 7867 7868 
2 4249 4250 
1 4249 7867 
2 10357 10358 
1 7869 10357 
2 7868 7869 
2 2084 2085 
2 6760 6761 
2 6761 6762 
2 19000 19001 
2 20624 20625 
2 20623 20624 
2 7063 7064 
1 7063 20625 
2 7064 7065 
2 2728 2729 
1 2728 19000 
1 10371 13293 
2 13291 13292 
2 13292 13293 
2 485 486 
1 486 7065 
2 10370 10371 
2 719 720 
2 3880 3881 
1 3880 11661 
2 3881 3882 
3 4274 4275 
3 4273 4274 
1 4275 13254 
2 10369 10370 
2 20543 20544 
3 19390 19391 
3 19391 19392 
2 5422 5423 
1 5422 19390 
2 14888 14889 
2 14887 14888 
1 11751 14887 
3 6500 6501 
2 12712 12713 
2 12713 12714 
1 12714 20542 
2 20542 20543 
2 18383 18384 
2 18382 18383 
2 14923 14924 
1 14923 18384 
2 989 990 
2 988 989 
2 14924 14925 
2 4546 4547 
1 4546 13117 
2 14915 14916 
2 14914 14915 
2 13117 13118 
1 13119 14914 
2 13118 13119 
2 15703 15704 
1 15703 18765 
2 18763 18764 
2 18764 18765 
2 2629 2630 
2 21395 21396 
2 11720 11721 
2 625 626 
1 625 11721 
2 626 627 
3 6499 6500 
1 6499 13344 
3 13343 13344 
2 3943 3944 
1 1626 3943 
2 21359 21360 
2 1625 1626 
2 4909 4910 
2 1624 1625 
1 1624 4909 
2 4910 4911 
2 20405 20406 
2 13873 13874 
2 21118 21119 
2 13874 13875 
2 21119 21120 
2 11350 11351 
1 11350 21120 
2 11351 11352 
2 4210 4211 
2 4211 4212 
2 15464 15465 
2 21394 21395 
2 6970 6971 
1 6970 21394 
2 15463 15464 
2 5222 5223 
2 8584 8585 
1 8584 11352 
2 12902 12903 
2 8585 8586 
1 8586 12903 
2 6971 6972 
1 6972 14937 
2 12901 12902 
2 14597 14598 
2 14596 14597 
1 7137 14596 
2 7136 7137 
2 7135 7136 
1 1341 18925 
2 18926 18927 
2 18925 18926 
2 1339 1340 
2 1340 1341 
3 13342 13343 
2 13132 13133 
1 13132 18312 
2 18310 18311 
2 18311 18312 
2 3317 3318 
2 3316 3317 
1 3316 18310 
2 1609 1610 
2 1610 1611 
2 20404 20405 
2 6050 6051 
1 6051 17301 
2 17299 17300 
2 17300 17301 
2 3484 3485 
1 3484 4212 
2 4837 4838 
2 4838 4839 
1 9384 10381 
2 9383 9384 
2 9382 9383 
2 12572 12573 
2 10381 10382 
2 10382 10383 
1 5223 10383 
2 9839 9840 
2 20251 20252 
2 9838 9839 
2 20612 20613 
2 8509 8510 
1 8509 20611 
2 20611 20612 
2 8510 8511 
2 10358 10359 
2 6049 6050 
1 6049 6760 
2 12721 12722 
1 12721 18561 
2 2729 2730 
1 2730 9840 
2 18560 18561 
2 18559 18560 
2 20252 20253 
2 484 485 
2 20917 20918 
1 20253 20917 
2 17815 17816 
2 17816 17817 
2 20918 20919 
2 17875 17876 
2 17876 17877 
2 11660 11661 
2 17488 17489 
2 17489 17490 
3 12347 12348 
2 16063 16064 
1 12348 16063 
2 16064 16065 
2 11659 11660 
1 11659 16065 
3 12346 12347 
