ITEM: TIMESTEP
0
ITEM: NUMBER OF ATOMS
75
ITEM: BOX BOUNDS pp pp pp
0.0000000000000000e+00 5.0000000000000000e+01
0.0000000000000000e+00 5.0000000000000000e+01
0.0000000000000000e+00 5.0000000000000000e+01
ITEM: ATOMS id type 
4747 1 
4748 3 
4749 1 
4828 1 
4829 3 
4830 1 
8248 1 
8249 3 
8250 1 
13339 1 
13340 3 
13341 1 
13402 1 
13403 3 
13404 1 
15370 1 
15371 2 
15372 1 
16393 1 
16394 3 
16395 1 
19813 1 
19814 2 
19815 1 
5974 1 
5975 3 
5976 1 
13231 1 
13232 3 
13233 1 
20812 1 
20813 2 
20814 1 
1681 1 
1682 3 
1683 1 
1930 1 
1931 3 
1932 1 
5161 1 
5162 2 
5163 1 
7441 1 
7442 3 
7443 1 
9550 1 
9551 3 
9552 1 
9907 1 
9908 3 
9909 1 
20008 1 
20009 3 
20010 1 
20041 1 
20042 3 
20043 1 
21199 1 
21200 3 
21201 1 
1777 1 
1778 3 
1779 1 
8731 1 
8732 3 
8733 1 
15160 1 
15161 3 
15162 1 
17023 1 
17024 3 
17025 1 
18106 1 
18107 2 
18108 1 
