ITEM: TIMESTEP
20000000
ITEM: NUMBER OF ENTRIES
456
ITEM: BOX BOUNDS pp pp pp
0 50
0 50
0 50
ITEM: ENTRIES c_binfo[1] c_binfo[2] c_binfo[3] 
3 18395 18396 
2 17600 17601 
1 2424 17599 
2 17599 17600 
3 2422 2423 
1 2422 18396 
3 2423 2424 
3 18394 18395 
3 10738 10739 
1 10738 18394 
3 10739 10740 
3 21136 21137 
3 21137 21138 
1 19977 21138 
2 21271 21272 
2 21272 21273 
1 21036 21271 
2 14056 14057 
2 13798 13799 
1 13798 14056 
3 19975 19976 
3 19976 19977 
1 6186 19975 
2 6185 6186 
2 12919 12920 
2 12920 12921 
2 20765 20766 
2 20764 20765 
1 20764 21273 
2 29 30 
2 28 29 
1 28 10303 
2 10303 10304 
2 14557 14558 
1 15 14557 
2 14 15 
2 10304 10305 
2 1316 1317 
2 5816 5817 
2 5815 5816 
1 5817 8416 
2 8416 8417 
2 8417 8418 
2 8716 8717 
1 8716 17149 
2 8717 8718 
2 17149 17150 
2 4768 4769 
2 409 410 
1 409 4768 
2 410 411 
2 14057 14058 
1 372 8718 
2 14558 14559 
2 6620 6621 
1 6621 14559 
1 3516 6619 
2 6619 6620 
2 3515 3516 
2 3514 3515 
2 4769 4770 
2 6835 6836 
1 6835 7834 
2 370 371 
2 371 372 
2 6836 6837 
2 4019 4020 
2 8020 8021 
2 4939 4940 
1 4939 8020 
2 8021 8022 
3 650 651 
3 649 650 
1 649 8022 
2 9242 9243 
2 9241 9242 
2 10531 10532 
2 14062 14063 
2 12040 12041 
1 12040 14062 
2 20941 20942 
2 20942 20943 
2 7513 7514 
2 7514 7515 
2 21034 21035 
1 7515 21034 
2 4940 4941 
2 21035 21036 
2 6751 6752 
1 6751 12319 
2 12319 12320 
2 12320 12321 
1 2616 4941 
1 7518 12321 
2 14063 14064 
2 2615 2616 
2 2614 2615 
2 1699 1700 
1 1699 2614 
2 1700 1701 
2 10532 10533 
2 6184 6185 
2 13799 13800 
2 2285 2286 
2 2284 2285 
1 2284 20943 
2 13274 13275 
1 7050 12918 
2 7049 7050 
1 12921 19615 
2 19615 19616 
2 19616 19617 
1 19617 19810 
2 19810 19811 
2 19811 19812 
2 6404 6405 
1 6405 17538 
2 7516 7517 
1 7516 16980 
2 16979 16980 
2 7517 7518 
2 17537 17538 
2 16978 16979 
2 4094 4095 
2 1349 1350 
1 9252 10305 
2 9251 9252 
2 9250 9251 
2 17536 17537 
2 13 14 
1 13 17536 
2 14624 14625 
2 14623 14624 
2 13273 13274 
1 13273 14623 
2 13013 13014 
2 13012 13013 
1 13012 13800 
2 9137 9138 
2 9136 9137 
1 9138 19336 
2 19336 19337 
2 7048 7049 
2 16744 16745 
2 16745 16746 
2 1720 1721 
2 1721 1722 
1 1722 17160 
2 17159 17160 
2 1315 1316 
2 11086 11087 
1 11086 16746 
2 1916 1917 
2 1915 1916 
2 17158 17159 
1 8418 16978 
2 17150 17151 
2 11087 11088 
1 11088 15346 
2 15346 15347 
2 15347 15348 
2 12208 12209 
1 12208 17151 
2 12209 12210 
2 18190 18191 
2 946 947 
1 946 12210 
2 2446 2447 
2 2447 2448 
1 2448 3861 
2 3859 3860 
1 3859 15555 
2 3860 3861 
2 14123 14124 
1 6450 14122 
2 14122 14123 
2 9193 9194 
3 7834 7835 
3 7835 7836 
1 7836 18192 
2 18191 18192 
2 4018 4019 
2 6802 6803 
2 6803 6804 
2 4126 4127 
2 4127 4128 
3 6449 6450 
2 14939 14940 
2 14938 14939 
2 5807 5808 
2 12041 12042 
2 3791 3792 
2 13477 13478 
1 12042 13477 
2 3790 3791 
2 13478 13479 
2 5938 5939 
1 5938 13479 
2 595 596 
2 596 597 
2 6752 6753 
2 13294 13295 
2 5806 5807 
2 18118 18119 
1 18118 20964 
2 18119 18120 
2 11794 11795 
1 10533 11794 
1 11796 17662 
2 17662 17663 
2 6107 6108 
2 11795 11796 
2 6106 6107 
1 2637 6106 
2 2636 2637 
1 597 15640 
1 2238 3297 
2 15640 15641 
2 12916 12917 
2 12917 12918 
1 9882 15642 
2 15641 15642 
2 1618 1619 
1 1618 3108 
2 15869 15870 
2 6904 6905 
1 6904 15870 
2 15868 15869 
2 9881 9882 
3 19666 19667 
2 6905 6906 
3 730 731 
1 730 19666 
3 19667 19668 
3 731 732 
2 14911 14912 
2 14912 14913 
2 13295 13296 
1 13296 20809 
2 20809 20810 
2 20810 20811 
2 8461 8462 
1 8461 19812 
2 8462 8463 
2 6403 6404 
1 6403 18439 
2 18439 18440 
2 18440 18441 
1 2043 18441 
2 4093 4094 
1 4093 19611 
2 19610 19611 
2 2042 2043 
2 2041 2042 
2 1348 1349 
1 1348 6108 
2 2635 2636 
1 2635 13665 
2 3295 3296 
2 3296 3297 
2 19609 19610 
2 13664 13665 
2 13663 13664 
1 603 13663 
2 602 603 
2 2237 2238 
2 2236 2237 
1 2236 12619 
2 12619 12620 
2 8425 8426 
1 8425 12621 
2 12620 12621 
2 6716 6717 
2 3107 3108 
2 3106 3107 
2 6715 6716 
1 6715 17089 
1 6717 20196 
2 20195 20196 
2 8426 8427 
2 2485 2486 
1 2485 3445 
2 3445 3446 
2 3446 3447 
2 17089 17090 
2 2486 2487 
2 17090 17091 
1 10449 20811 
2 13852 13853 
2 13853 13854 
2 10448 10449 
1 948 1117 
2 1117 1118 
2 1118 1119 
2 15785 15786 
2 947 948 
1 7941 15786 
2 7940 7941 
2 2771 2772 
2 7939 7940 
1 1119 11245 
2 15784 15785 
2 21310 21311 
2 21311 21312 
2 9053 9054 
2 8284 8285 
1 8284 21312 
2 8285 8286 
2 2770 2771 
1 2770 8286 
2 9052 9053 
2 19400 19401 
1 19401 20194 
2 20194 20195 
2 601 602 
1 601 19399 
2 19399 19400 
2 19337 19338 
2 6320 6321 
2 7096 7097 
2 7097 7098 
2 19997 19998 
2 19996 19997 
2 9194 9195 
2 3832 3833 
1 3832 4122 
1 3834 6448 
2 3833 3834 
2 20482 20483 
1 9195 20482 
2 4120 4121 
1 4120 8296 
2 8296 8297 
2 8297 8298 
2 20483 20484 
1 14940 20484 
2 15554 15555 
2 9199 9200 
2 7334 7335 
2 9200 9201 
1 9201 11256 
2 11255 11256 
2 15553 15554 
2 7333 7334 
2 6319 6320 
1 5871 9052 
2 11254 11255 
2 1754 1755 
2 5869 5870 
2 5870 5871 
1 1755 5869 
2 1753 1754 
1 1753 6319 
3 3010 3011 
3 6448 6449 
3 3011 3012 
2 5939 5940 
2 1367 1368 
2 19864 19865 
1 1368 19864 
2 1366 1367 
2 460 461 
1 460 1366 
2 19865 19866 
1 19866 20856 
3 20854 20855 
3 20855 20856 
3 9739 9740 
2 20963 20964 
2 20962 20963 
2 1175 1176 
2 17663 17664 
2 1174 1175 
1 1174 17664 
2 461 462 
2 1619 1620 
2 17867 17868 
2 1504 1505 
1 1504 1620 
2 17866 17867 
3 9740 9741 
1 9741 9880 
2 9880 9881 
2 4202 4203 
2 4201 4202 
2 12733 12734 
1 12733 19668 
2 12734 12735 
3 19118 19119 
3 11512 11513 
1 11512 19119 
3 19117 19118 
2 4486 4487 
2 4487 4488 
1 462 18778 
2 1505 1506 
1 1506 2211 
2 18778 18779 
2 18779 18780 
2 2210 2211 
2 2209 2210 
1 2209 4776 
2 14027 14028 
1 14028 18780 
2 2761 2762 
2 2762 2763 
2 17351 17352 
1 2487 17350 
2 17350 17351 
1 10377 17091 
2 10376 10377 
2 10447 10448 
2 2939 2940 
2 2938 2939 
1 2938 15784 
2 17275 17276 
2 17276 17277 
2 11246 11247 
1 11247 17275 
2 11245 11246 
2 1888 1889 
2 1889 1890 
2 3490 3491 
1 3490 19998 
2 10375 10376 
2 2074 2075 
1 2074 10375 
2 4121 4122 
2 2075 2076 
2 11081 11082 
2 11080 11081 
1 1890 20133 
2 15650 15651 
2 3491 3492 
2 15649 15650 
1 3492 15649 
2 20132 20133 
2 20131 20132 
1 17955 20131 
2 17954 17955 
3 12781 12782 
3 11734 11735 
1 11734 12781 
2 17953 17954 
1 12783 17953 
3 12782 12783 
3 11735 11736 
1 11514 12252 
3 11513 11514 
2 14026 14027 
2 4774 4775 
2 4775 4776 
3 12251 12252 
3 12250 12251 
2 6632 6633 
2 6631 6632 
