ITEM: TIMESTEP
20000000
ITEM: NUMBER OF ATOMS
183
ITEM: BOX BOUNDS pp pp pp
0.0000000000000000e+00 5.0000000000000000e+01
0.0000000000000000e+00 5.0000000000000000e+01
0.0000000000000000e+00 5.0000000000000000e+01
ITEM: ATOMS id type xs ys zs
9234 1 0.823386 0.215228 0.499455
2455 1 0.844393 0.230166 0.518964
8751 1 0.844942 0.23002 0.521761
8750 3 0.845192 0.228972 0.529698
2456 3 0.843211 0.229848 0.511628
9232 1 0.834008 0.22509 0.506908
9233 3 0.828552 0.221387 0.501945
2457 1 0.836509 0.226436 0.5084
8087 2 0.876059 0.234305 0.519935
15832 1 0.866441 0.239653 0.520807
8086 1 0.869307 0.238391 0.520466
15833 2 0.859452 0.242715 0.522892
15834 1 0.855098 0.244694 0.516686
8088 1 0.881982 0.236266 0.514766
16606 1 0.884432 0.236938 0.513754
16607 2 0.891419 0.237656 0.511504
16608 1 0.896371 0.24319 0.508873
8749 1 0.843808 0.231043 0.538091
17215 1 0.790097 0.275323 0.624982
6939 1 0.914798 0.212743 0.648321
6938 2 0.908917 0.218828 0.648234
6937 1 0.90229 0.222609 0.649053
5046 1 0.963985 0.227565 0.631078
10308 1 0.956797 0.222334 0.645143
5045 2 0.961773 0.220705 0.634626
5044 1 0.957887 0.22197 0.642482
10307 2 0.954046 0.221901 0.652586
19680 1 0.800301 0.258207 0.653205
21489 1 0.801327 0.257605 0.656008
17216 2 0.793618 0.275146 0.632542
17217 1 0.794642 0.269775 0.638858
19678 1 0.795299 0.267384 0.641509
19679 3 0.796454 0.26105 0.647067
3389 3 0.892055 0.215943 0.67342
3388 1 0.888695 0.212809 0.679677
20950 1 0.88763 0.211592 0.682208
8489 2 0.943269 0.217221 0.666692
8488 1 0.946275 0.216199 0.6743
17390 3 0.812593 0.247319 0.677722
19777 1 0.848036 0.239811 0.668777
19779 1 0.844815 0.230048 0.68105
6961 1 0.843777 0.244673 0.678311
11895 1 0.843041 0.228829 0.683573
11126 3 0.874823 0.223736 0.678859
19778 3 0.848729 0.233309 0.674654
11125 1 0.87263 0.231854 0.680808
20389 1 0.875021 0.245526 0.669452
18208 1 0.871323 0.234985 0.681719
18209 3 0.867587 0.243243 0.682357
11127 1 0.881787 0.219235 0.676969
3390 1 0.894397 0.221835 0.668698
20391 1 0.887529 0.244925 0.664193
20390 3 0.881297 0.248123 0.667184
10306 1 0.948692 0.220195 0.658435
8490 1 0.946982 0.218915 0.661275
5427 1 0.812631 0.253398 0.686946
17391 1 0.81256 0.252262 0.684229
21488 3 0.803707 0.254539 0.662586
21487 1 0.807494 0.251888 0.669588
17389 1 0.808772 0.250573 0.672177
6962 3 0.842035 0.252015 0.680431
6963 1 0.842381 0.258652 0.685486
685 1 0.823853 0.277822 0.686984
358 1 0.804746 0.292986 0.663487
359 3 0.810699 0.290666 0.669018
360 1 0.815848 0.286556 0.67302
687 1 0.817656 0.285373 0.67476
686 2 0.822522 0.281987 0.680226
922 1 0.949175 0.15445 0.699699
3077 2 0.843046 0.174312 0.702471
11890 1 0.844416 0.183348 0.707612
3078 1 0.843965 0.180883 0.705964
3076 1 0.844509 0.171094 0.710333
15859 1 0.884171 0.180582 0.703323
1402 1 0.88615 0.178513 0.704607
15860 2 0.880374 0.1864 0.700948
1404 1 0.889267 0.165983 0.711273
1403 3 0.891028 0.174005 0.707636
923 2 0.954552 0.160462 0.697287
924 1 0.957534 0.167694 0.695496
3480 1 0.959119 0.170408 0.694925
3478 1 0.961957 0.184006 0.694852
8083 1 0.96176 0.187269 0.695157
3479 3 0.962437 0.17731 0.694567
11892 1 0.847751 0.19634 0.706812
11891 3 0.845564 0.1911 0.711835
15861 1 0.87558 0.190716 0.695213
6839 3 0.851743 0.204716 0.700035
6840 1 0.849635 0.198664 0.704525
7978 1 0.856301 0.214627 0.702203
6838 1 0.854812 0.212056 0.701354
20952 1 0.877156 0.204923 0.690186
20951 3 0.885286 0.206306 0.688088
6935 3 0.884623 0.215594 0.712511
8602 1 0.887957 0.189187 0.71824
8603 3 0.887214 0.196173 0.718454
8604 1 0.886868 0.204599 0.716983
6934 1 0.886377 0.207304 0.715543
16082 2 0.93561 0.218257 0.706219
8084 2 0.962217 0.195272 0.695819
12670 1 0.944344 0.213185 0.703809
16083 1 0.941607 0.21455 0.704011
12671 2 0.952513 0.210014 0.703235
12672 1 0.95572 0.204403 0.699528
8085 1 0.957491 0.201874 0.698665
4761 1 0.830654 0.244076 0.694316
4760 3 0.830024 0.243599 0.701825
4759 1 0.825639 0.246783 0.705938
1408 1 0.823506 0.24849 0.708138
11894 3 0.840764 0.226615 0.691317
11893 1 0.840874 0.227218 0.698764
17310 1 0.841027 0.226838 0.701741
17309 3 0.839906 0.227146 0.710212
1615 1 0.83812 0.23386 0.716944
17308 1 0.8388 0.232025 0.714946
2890 1 0.878229 0.222045 0.71829
7979 3 0.86059 0.221777 0.703099
7980 1 0.858646 0.228719 0.705729
12796 1 0.857633 0.232042 0.706934
12797 3 0.858104 0.239599 0.709982
12969 1 0.870549 0.248758 0.6913
18210 1 0.869624 0.247311 0.688596
12967 1 0.874308 0.248806 0.704076
12798 1 0.853345 0.246391 0.707995
6936 1 0.880182 0.220337 0.716355
20837 3 0.891882 0.244223 0.700499
20836 1 0.894066 0.239465 0.706213
9483 1 0.89506 0.237893 0.708779
9482 3 0.896847 0.234138 0.715485
16305 1 0.92444 0.220841 0.707108
16081 1 0.927276 0.2204 0.706501
16303 1 0.911568 0.22966 0.703907
16304 3 0.916034 0.222736 0.707364
5425 1 0.816241 0.252901 0.698222
5426 3 0.812276 0.25806 0.693606
9465 1 0.825313 0.276381 0.689171
9464 2 0.830437 0.271734 0.694906
9463 1 0.83476 0.268038 0.701201
12010 1 0.836213 0.267024 0.703452
12012 1 0.843906 0.260919 0.715641
12011 3 0.838993 0.26368 0.709995
1409 3 0.821095 0.251617 0.713005
1410 1 0.820871 0.258563 0.717474
6001 1 0.846228 0.259726 0.717454
12968 3 0.872664 0.252549 0.697626
20838 1 0.891344 0.251642 0.695911
19285 1 0.944551 0.107562 0.733617
19286 3 0.942392 0.111443 0.740007
19287 1 0.946663 0.109488 0.746345
19228 1 0.815605 0.183736 0.723867
19229 2 0.821118 0.190301 0.721786
19230 1 0.823541 0.198083 0.721988
13650 1 0.824398 0.201158 0.722117
13649 3 0.825898 0.208404 0.721426
13648 1 0.830313 0.212996 0.724269
11154 1 0.832029 0.21474 0.725168
19044 1 0.875416 0.207985 0.720993
19042 1 0.866681 0.205561 0.730213
19043 3 0.866846 0.204867 0.721857
12025 1 0.866865 0.206039 0.733099
12026 3 0.868781 0.209387 0.740468
12027 1 0.87303 0.20908 0.747589
11377 1 0.903329 0.209313 0.727911
11378 3 0.898391 0.216017 0.731009
11153 3 0.837095 0.219119 0.728417
11152 1 0.843901 0.221463 0.725369
6847 1 0.846328 0.221729 0.724619
1616 3 0.835916 0.23931 0.721547
1617 1 0.830975 0.237955 0.728598
2891 3 0.873824 0.225378 0.723939
2892 1 0.866041 0.224073 0.722785
6848 3 0.854764 0.222873 0.722903
17271 1 0.857019 0.249473 0.727773
6849 1 0.863156 0.223336 0.722807
13075 1 0.854369 0.221922 0.748577
13076 3 0.858363 0.227859 0.744042
17270 3 0.860756 0.242429 0.731455
17269 1 0.858368 0.237838 0.736971
13077 1 0.85776 0.235234 0.739207
11379 1 0.896322 0.224472 0.732648
9481 1 0.900757 0.230342 0.721373
6003 1 0.855577 0.251095 0.726539
6002 3 0.851765 0.256153 0.721757
