ITEM: TIMESTEP
20000000
ITEM: NUMBER OF ATOMS
183
ITEM: BOX BOUNDS pp pp pp
0.0000000000000000e+00 5.0000000000000000e+01
0.0000000000000000e+00 5.0000000000000000e+01
0.0000000000000000e+00 5.0000000000000000e+01
ITEM: ATOMS id type vx vy vz 
9234 1 -4.00173 1.90838 -4.01075 
2455 1 -3.4002 -3.32511 3.81213 
8751 1 -2.11759 -3.01601 -1.1478 
8750 3 2.07865 2.27895 -1.87433 
2456 3 -0.0420806 -1.45695 -0.567302 
9232 1 -0.342516 0.339367 0.693579 
9233 3 -0.5222 1.25622 -0.266135 
2457 1 2.08584 -1.83082 -1.85571 
8087 2 1.23925 3.77895 -2.24135 
15832 1 -3.8827 2.65985 -2.27951 
8086 1 -0.530735 3.95502 7.84061 
15833 2 4.7455 -2.71614 -0.495867 
15834 1 -0.946644 -2.09677 -0.0394109 
8088 1 -3.24746 -0.169824 -3.70082 
16606 1 1.98257 -0.554054 -0.5739 
16607 2 5.76756 -3.04447 -4.69151 
16608 1 2.5985 -6.03014 -0.832953 
8749 1 -0.466462 -2.84991 0.635506 
17215 1 2.24332 2.33318 -2.30777 
6939 1 0.595707 -1.97091 -0.312426 
6938 2 -4.67079 -2.07209 -5.76141 
6937 1 -5.25411 -1.87951 2.43501 
5046 1 1.31662 7.75408 1.78044 
10308 1 -6.02445 2.32622 -1.84341 
5045 2 1.00934 -4.40187 1.00073 
5044 1 -0.594077 -0.853376 2.62654 
10307 2 0.0554154 -0.841395 3.11338 
19680 1 -1.1805 8.78293 -2.33455 
21489 1 1.75447 -2.45713 2.73214 
17216 2 -1.7471 1.81033 1.29185 
17217 1 3.31479 -3.74935 0.601399 
19678 1 2.95149 -1.90323 2.14157 
19679 3 -1.17409 -0.265126 0.558595 
3389 3 0.308684 2.80181 0.228352 
3388 1 -0.194794 0.024266 -1.55596 
20950 1 -1.27395 0.620117 5.33807 
8489 2 -1.53515 5.89295 0.679419 
8488 1 2.04053 2.1892 4.78668 
17390 3 4.5414 2.40327 3.47557 
19777 1 3.8048 1.20627 -2.96094 
19779 1 4.23279 -0.669612 5.82691 
6961 1 -2.35246 -2.06056 -1.86502 
11895 1 -0.0951264 3.78198 6.13107 
11126 3 -3.78281 -3.75346 2.85633 
19778 3 -0.366542 3.29439 0.92031 
11125 1 -4.60906 3.56681 -2.00546 
20389 1 -0.246154 -0.219877 -0.589958 
18208 1 -0.00114702 -1.17806 2.2891 
18209 3 -2.66077 2.80039 -5.50614 
11127 1 5.66715 -1.94474 -0.267308 
3390 1 -2.679 3.33818 3.43767 
20391 1 2.89667 -3.4131 -0.0928589 
20390 3 -0.37931 0.898274 -2.40648 
10306 1 -1.41051 4.86059 2.17103 
8490 1 2.8327 -0.889448 -1.65525 
5427 1 0.346035 3.57042 -2.59969 
17391 1 -0.781292 -0.807654 -1.35512 
21488 3 1.76548 1.15345 0.417421 
21487 1 3.01171 1.23151 1.39093 
17389 1 -1.13495 6.46724 -4.02665 
6962 3 -1.96281 -0.566412 2.19286 
6963 1 -3.17725 2.94717 -1.54476 
685 1 2.38402 -3.99887 2.41701 
358 1 5.75585 -1.31522 3.86878 
359 3 2.75685 -7.49334 -2.09439 
360 1 1.32684 3.22007 0.443299 
687 1 -11.4266 6.58961 1.94142 
686 2 -1.56297 2.57698 -1.30146 
922 1 -2.82597 0.94981 4.1887 
3077 2 -4.07 -0.606932 0.289955 
11890 1 0.481261 1.01283 3.47864 
3078 1 -3.34389 -2.10371 -0.414611 
3076 1 -2.41942 -7.87839 2.791 
15859 1 -1.03859 -0.871536 -4.09943 
1402 1 -1.14479 1.90421 0.44243 
15860 2 0.866526 1.62627 0.913254 
1404 1 -3.63142 1.34051 0.246466 
1403 3 0.998078 1.90781 2.35062 
923 2 1.49032 3.68447 2.55357 
924 1 1.75707 4.06154 3.75424 
3480 1 2.23913 3.55134 -6.06605 
3478 1 4.02468 2.76024 -4.01073 
8083 1 -1.25181 -6.59354 5.80356 
3479 3 -5.76469 4.11039 0.451492 
11892 1 -1.05407 2.18174 1.21434 
11891 3 -2.59641 2.54732 0.625822 
15861 1 0.380273 11.6582 0.336066 
6839 3 3.56453 0.559287 0.874995 
6840 1 -2.02384 0.705141 6.54727 
7978 1 7.68948 -5.10693 0.343343 
6838 1 0.820352 1.59052 -2.01013 
20952 1 1.67383 4.73365 -2.52944 
20951 3 0.537945 -0.0989517 -2.34508 
6935 3 -4.68746 1.92275 -0.852868 
8602 1 4.12053 4.70327 -3.0611 
8603 3 -2.57132 -2.40917 1.43158 
8604 1 7.38821 0.769025 -0.504168 
6934 1 2.9169 -1.22701 -6.7864 
16082 2 3.27157 1.79202 -1.90884 
8084 2 -2.73569 1.61803 0.071266 
12670 1 5.77811 -1.72549 -0.323787 
16083 1 -5.78312 -0.549192 -3.26689 
12671 2 3.29824 2.45852 -4.61562 
12672 1 -5.86723 -0.445336 -3.30793 
8085 1 -8.0783 -5.0705 -5.46493 
4761 1 0.756611 -1.39464 2.17988 
4760 3 3.49386 -2.40529 -0.360387 
4759 1 3.57641 0.986373 -2.02932 
1408 1 -2.03116 1.40636 0.355444 
11894 3 1.93592 3.29921 1.19635 
11893 1 1.30217 -6.79677 -1.5961 
17310 1 0.081475 -0.0743383 -2.59928 
17309 3 3.23546 0.186746 -0.388381 
1615 1 1.03305 0.480407 2.94593 
17308 1 0.905698 7.37999 7.12695 
2890 1 4.10955 -2.24109 -4.72736 
7979 3 3.36781 1.61582 -2.70526 
7980 1 0.924673 -9.29371 0.509589 
12796 1 -4.19134 -0.467981 1.59484 
12797 3 1.22748 4.72245 -0.593232 
12969 1 1.19174 -4.25255 -1.57371 
18210 1 3.07986 -2.14501 -2.10915 
12967 1 -0.541014 1.83795 3.57895 
12798 1 1.83432 -2.37247 -0.206581 
6936 1 2.62562 1.13891 5.82295 
20837 3 -6.47279 2.50228 -1.71927 
20836 1 12.3104 -2.76443 -3.50651 
9483 1 -3.69467 2.54049 0.386808 
9482 3 2.71844 -2.57667 -2.32716 
16305 1 2.4898 5.50037 -0.976096 
16081 1 1.86706 7.86734 1.22023 
16303 1 0.299163 2.57281 -2.8207 
16304 3 -2.10961 4.31042 -1.34725 
5425 1 -6.15372 2.18613 -0.671442 
5426 3 1.25389 -0.645185 3.62189 
9465 1 0.850445 0.873734 1.1397 
9464 2 1.09212 1.9528 4.62383 
9463 1 2.65636 -0.982399 4.79776 
12010 1 2.00324 -3.50865 1.65471 
12012 1 4.51652 2.26229 -0.533621 
12011 3 -0.0307957 -0.213559 2.39355 
1409 3 -1.21489 0.258704 1.79458 
1410 1 2.18886 3.83157 2.04802 
6001 1 -3.20318 -6.93334 -2.28853 
12968 3 2.61916 -0.934898 -1.6381 
20838 1 4.24128 -2.173 -2.68864 
19285 1 1.0642 2.61314 0.728503 
19286 3 -0.295354 -2.52782 -3.90896 
19287 1 -1.1998 1.20623 -0.152742 
19228 1 0.45571 2.57275 3.50087 
19229 2 1.22835 2.43271 -1.35284 
19230 1 -1.22334 0.995532 2.92364 
13650 1 5.4856 3.22226 -0.206327 
13649 3 -0.585925 0.260162 -0.82656 
13648 1 2.49658 2.77048 3.54182 
11154 1 1.75097 0.436414 -1.34475 
19044 1 -6.25964 -3.37583 1.63253 
19042 1 -1.97862 -0.78088 -4.32834 
19043 3 -1.11063 0.388682 5.09172 
12025 1 -1.71224 -1.19686 0.50828 
12026 3 -3.11799 -1.88997 -0.691266 
12027 1 -0.521435 3.71375 -0.81389 
11377 1 -0.496077 -2.71985 -0.456856 
11378 3 -2.32478 4.00155 2.12665 
11153 3 -2.34573 0.146584 -0.141385 
11152 1 2.11338 0.303746 2.85903 
6847 1 0.889169 1.52814 -1.20238 
1616 3 2.6959 -0.63583 3.10732 
1617 1 -4.42834 -1.06526 0.19854 
2891 3 0.0978725 4.51589 0.486203 
2892 1 -2.70105 0.634022 -4.5526 
6848 3 2.86882 -2.27758 0.290062 
17271 1 6.92957 6.03774 3.42578 
6849 1 0.0859612 -5.79925 -5.4391 
13075 1 -2.49045 -0.0489384 3.44412 
13076 3 1.12278 2.49619 2.77916 
17270 3 -0.23552 2.15468 -0.462093 
17269 1 0.154917 -5.81229 1.11608 
13077 1 -3.75962 1.46541 2.41122 
11379 1 0.783495 5.38236 0.842951 
9481 1 5.9027 4.73594 6.02692 
6003 1 -2.21052 -2.24923 3.46851 
6002 3 -0.986979 4.41981 1.23434 
