ITEM: TIMESTEP
0
ITEM: NUMBER OF ATOMS
495
ITEM: BOX BOUNDS pp pp pp
0.0000000000000000e+00 5.0000000000000000e+01
0.0000000000000000e+00 5.0000000000000000e+01
0.0000000000000000e+00 5.0000000000000000e+01
ITEM: ATOMS id type 
1573 1 
1574 2 
1575 1 
2482 1 
2483 2 
2484 1 
4582 1 
4583 2 
4584 1 
5776 1 
5777 2 
5778 1 
5848 1 
5849 2 
5850 1 
5890 1 
5891 2 
5892 1 
8179 1 
8180 2 
8181 1 
8305 1 
8306 2 
8307 1 
9184 1 
9185 2 
9186 1 
9253 1 
9254 2 
9255 1 
11176 1 
11177 2 
11178 1 
12079 1 
12080 2 
12081 1 
12502 1 
12503 2 
12504 1 
13144 1 
13145 2 
13146 1 
13210 1 
13211 2 
13212 1 
13381 1 
13382 2 
13383 1 
13456 1 
13457 2 
13458 1 
14461 1 
14462 2 
14463 1 
14467 1 
14468 2 
14469 1 
14476 1 
14477 3 
14478 1 
15367 1 
15368 2 
15369 1 
15670 1 
15671 3 
15672 1 
16324 1 
16325 2 
16326 1 
16348 1 
16349 2 
16350 1 
16696 1 
16697 3 
16698 1 
16708 1 
16709 2 
16710 1 
17596 1 
17597 2 
17598 1 
18628 1 
18629 2 
18630 1 
19465 1 
19466 2 
19467 1 
20536 1 
20537 3 
20538 1 
20593 1 
20594 2 
20595 1 
20722 1 
20723 2 
20724 1 
21025 1 
21026 2 
21027 1 
2566 1 
2567 2 
2568 1 
3409 1 
3410 2 
3411 1 
3637 1 
3638 2 
3639 1 
4609 1 
4610 2 
4611 1 
4714 1 
4715 2 
4716 1 
5863 1 
5864 2 
5865 1 
6994 1 
6995 2 
6996 1 
7171 1 
7172 2 
7173 1 
7186 1 
7187 2 
7188 1 
9097 1 
9098 2 
9099 1 
9118 1 
9119 2 
9120 1 
12400 1 
12401 2 
12402 1 
12586 1 
12587 2 
12588 1 
12646 1 
12647 2 
12648 1 
13351 1 
13352 2 
13353 1 
13417 1 
13418 3 
13419 1 
13429 1 
13430 2 
13431 1 
13594 1 
13595 2 
13596 1 
14272 1 
14273 2 
14274 1 
14320 1 
14321 2 
14322 1 
14377 1 
14378 3 
14379 1 
16600 1 
16601 2 
16602 1 
16618 1 
16619 2 
16620 1 
17317 1 
17318 2 
17319 1 
17626 1 
17627 2 
17628 1 
18880 1 
18881 2 
18882 1 
19675 1 
19676 2 
19677 1 
19726 1 
19727 2 
19728 1 
19783 1 
19784 2 
19785 1 
20929 1 
20930 3 
20931 1 
781 1 
782 2 
783 1 
850 1 
851 2 
852 1 
1807 1 
1808 3 
1809 1 
1813 1 
1814 2 
1815 1 
2776 1 
2777 2 
2778 1 
2899 1 
2900 2 
2901 1 
3064 1 
3065 2 
3066 1 
3124 1 
3125 3 
3126 1 
3847 1 
3848 2 
3849 1 
4081 1 
4082 2 
4083 1 
4261 1 
4262 2 
4263 1 
4930 1 
4931 2 
4932 1 
5170 1 
5171 2 
5172 1 
6064 1 
6065 2 
6066 1 
6190 1 
6191 2 
6192 1 
7702 1 
7703 2 
7704 1 
10861 1 
10862 2 
10863 1 
10933 1 
10934 2 
10935 1 
11593 1 
11594 2 
11595 1 
11761 1 
11762 2 
11763 1 
11839 1 
11840 2 
11841 1 
12016 1 
12017 3 
12018 1 
12673 1 
12674 3 
12675 1 
13744 1 
13745 2 
13746 1 
13807 1 
13808 2 
13809 1 
13816 1 
13817 3 
13818 1 
14890 1 
14891 2 
14892 1 
15961 1 
15962 2 
15963 1 
16765 1 
16766 2 
16767 1 
16867 1 
16868 2 
16869 1 
17116 1 
17117 2 
17118 1 
17839 1 
17840 2 
17841 1 
17944 1 
17945 2 
17946 1 
19924 1 
19925 2 
19926 1 
19933 1 
19934 3 
19935 1 
19939 1 
19940 3 
19941 1 
20050 1 
20051 2 
20052 1 
20221 1 
20222 2 
20223 1 
20488 1 
20489 2 
20490 1 
21250 1 
21251 2 
21252 1 
21382 1 
21383 2 
21384 1 
580 1 
581 2 
582 1 
637 1 
638 2 
639 1 
760 1 
761 2 
762 1 
775 1 
776 3 
777 1 
811 1 
812 2 
813 1 
889 1 
890 2 
891 1 
1063 1 
1064 2 
1065 1 
1774 1 
1775 2 
1776 1 
1975 1 
1976 2 
1977 1 
2086 1 
2087 2 
2088 1 
2149 1 
2150 3 
2151 1 
2197 1 
2198 2 
2199 1 
2737 1 
2738 2 
2739 1 
2875 1 
2876 2 
2877 1 
2911 1 
2912 2 
2913 1 
3049 1 
3050 2 
3051 1 
3115 1 
3116 2 
3117 1 
3835 1 
3836 3 
3837 1 
4234 1 
4235 2 
4236 1 
5017 1 
5018 2 
5019 1 
5092 1 
5093 2 
5094 1 
5377 1 
5378 2 
5379 1 
6406 1 
6407 2 
6408 1 
6469 1 
6470 2 
6471 1 
7309 1 
7310 2 
7311 1 
8431 1 
8432 3 
8433 1 
8503 1 
8504 2 
8505 1 
8578 1 
8579 2 
8580 1 
8857 1 
8858 2 
8859 1 
9877 1 
9878 2 
9879 1 
10657 1 
10658 2 
10659 1 
10675 1 
10676 3 
10677 1 
10771 1 
10772 2 
10773 1 
10792 1 
10793 2 
10794 1 
10798 1 
10799 2 
10800 1 
11038 1 
11039 2 
11040 1 
11077 1 
11078 2 
11079 1 
11089 1 
11090 2 
11091 1 
11683 1 
11684 2 
11685 1 
11851 1 
11852 2 
11853 1 
12898 1 
12899 2 
12900 1 
14089 1 
14090 2 
14091 1 
14191 1 
14192 2 
14193 1 
14854 1 
14855 2 
14856 1 
16111 1 
16112 2 
16113 1 
16234 1 
16235 3 
16236 1 
16843 1 
16844 2 
16845 1 
16849 1 
16850 2 
16851 1 
16891 1 
16892 2 
16893 1 
16903 1 
16904 2 
16905 1 
17071 1 
17072 2 
17073 1 
17155 1 
17156 2 
17157 1 
17272 1 
17273 2 
17274 1 
17917 1 
17918 2 
17919 1 
18043 1 
18044 2 
18045 1 
18283 1 
18284 2 
18285 1 
19003 1 
19004 2 
19005 1 
20437 1 
20438 2 
20439 1 
20446 1 
20447 3 
20448 1 
21157 1 
21158 3 
21159 1 
21475 1 
21476 2 
21477 1 
