ITEM: TIMESTEP
20000000
ITEM: NUMBER OF ATOMS
480
ITEM: BOX BOUNDS pp pp pp
0.0000000000000000e+00 5.0000000000000000e+01
0.0000000000000000e+00 5.0000000000000000e+01
0.0000000000000000e+00 5.0000000000000000e+01
ITEM: ATOMS id type xs ys zs
6928 1 0.152154 0.748333 0.0131474
3945 1 0.0419606 0.781153 0.00684868
2094 1 0.112212 0.778052 3.55114e-05
2093 2 0.111723 0.779227 0.00770737
6929 2 0.146183 0.75434 0.0103241
15705 1 0.138327 0.759882 0.00585377
6930 1 0.140652 0.758928 0.00756764
14520 1 0.143253 0.779557 0.0297874
14519 2 0.145192 0.77644 0.0226941
15704 2 0.133219 0.76272 0.00120645
2142 1 0.0506878 0.803757 0.0158626
2141 2 0.0561382 0.800888 0.0210263
3944 2 0.0480307 0.784718 0.00173255
2140 1 0.0633738 0.799582 0.0236445
20725 1 0.0662318 0.799078 0.0248695
20726 2 0.0727612 0.797444 0.0285181
9816 1 0.0819985 0.792362 0.0305662
20727 1 0.0795566 0.793571 0.0299247
932 2 0.0786519 0.809639 0.0142282
933 1 0.072255 0.812214 0.00991944
14050 1 0.116555 0.784211 0.016466
2092 1 0.115147 0.782868 0.0138898
15465 1 0.116903 0.80228 0.00474813
14502 1 0.114801 0.803457 0.00697797
14501 2 0.109419 0.805533 0.0128726
14500 1 0.10387 0.809494 0.0161941
14051 2 0.119593 0.788066 0.0239484
14052 1 0.114489 0.788311 0.0298234
13875 1 0.0978467 0.795778 0.00281139
14518 1 0.142606 0.783089 0.019682
3893 2 0.140069 0.793154 0.0169581
3894 1 0.141646 0.785625 0.0187711
14732 2 0.151461 0.810667 0.0225037
14733 1 0.144664 0.807643 0.0269892
3892 1 0.139797 0.799376 0.0129984
21182 2 0.126046 0.811932 0.0233387
21183 1 0.131245 0.81122 0.0291127
5221 1 0.145418 0.805492 0.000360158
14937 1 0.152709 0.791481 0.00215891
14936 2 0.159104 0.792327 0.00733303
14935 1 0.166464 0.791133 0.0100371
1611 1 0.0570264 0.82538 0.00170796
13133 2 0.0391198 0.81869 0.00550214
13134 1 0.0453237 0.822286 0.00991085
7407 1 0.0583919 0.822207 0.00267058
931 1 0.083242 0.814889 0.0172837
16591 1 0.0847403 0.817259 0.0185043
7405 1 0.0695753 0.813244 0.00820021
16592 2 0.0896762 0.822832 0.0228806
7406 2 0.0621414 0.814871 0.00533195
12816 1 0.101534 0.841814 0.0229401
20394 1 0.103263 0.839628 0.0231849
20393 2 0.107652 0.833891 0.02323
13262 2 0.12069 0.824723 0.00879375
20392 1 0.115562 0.83196 0.0249802
2185 1 0.11892 0.83202 0.0259325
3485 2 0.097537 0.818331 0.00378974
16593 1 0.0956632 0.827679 0.0255959
3486 1 0.0966968 0.823193 0.0098533
13263 1 0.115004 0.82918 0.00695239
21181 1 0.124683 0.818388 0.0173025
13261 1 0.123814 0.82031 0.0151618
12571 1 0.145753 0.836615 0.000738085
19477 1 0.135404 0.843223 0.00512834
2186 2 0.126354 0.832626 0.0266574
8781 1 0.145443 0.834891 0.0186441
14731 1 0.157974 0.812618 0.0174398
11983 1 0.159945 0.813723 0.0160449
11985 1 0.170601 0.819186 0.00573595
11984 2 0.166317 0.816479 0.0109403
8779 1 0.157339 0.842159 0.022486
8780 2 0.153464 0.836757 0.0196193
20613 1 0.172771 0.820782 0.00333648
12814 1 0.092277 0.852915 0.0256071
12815 2 0.0966444 0.846595 0.022318
12722 2 0.112231 0.856532 0.0014319
1529 2 0.119889 0.853471 0.0258789
12723 1 0.119641 0.852433 0.00240989
1528 1 0.124035 0.85361 0.0190394
19478 2 0.128828 0.847031 0.00628631
19479 1 0.122126 0.850797 0.00330982
16526 2 0.14884 0.862252 0.0113972
16527 1 0.15404 0.86856 0.0111308
16641 1 0.16749 0.857839 0.0272937
16640 2 0.165251 0.850622 0.0230029
16639 1 0.159469 0.844371 0.0235041
16525 1 0.152047 0.856012 0.00610827
20144 2 0.166475 0.874436 0.0270054
15796 1 0.15757 0.87088 0.0305724
20143 1 0.160226 0.871842 0.0296267
20919 1 0.15324 0.853913 0.00435903
20145 1 0.174234 0.877278 0.026641
20907 1 0.142337 0.780481 0.0324601
9815 3 0.0873759 0.787977 0.0327851
13823 3 0.10674 0.787597 0.0379636
13822 1 0.11253 0.787914 0.031867
9814 1 0.0946455 0.787467 0.0348341
13824 1 0.0979763 0.787283 0.0361806
20906 2 0.138107 0.781984 0.0379537
20905 1 0.137084 0.786359 0.0436848
14790 1 0.155257 0.81179 0.0426638
2904 1 0.14671 0.82529 0.0597882
2187 1 0.131967 0.832632 0.0318306
5032 1 0.134161 0.832775 0.0333721
5033 3 0.141009 0.833218 0.0373903
5034 1 0.147469 0.827871 0.0400666
14788 1 0.149555 0.825551 0.0409989
2902 1 0.131415 0.831736 0.0610292
2903 3 0.138604 0.829277 0.0590818
14789 3 0.154304 0.820254 0.0427303
1530 1 0.122725 0.852 0.033921
14299 1 0.123329 0.851083 0.036906
14300 2 0.12397 0.849967 0.0439256
14301 1 0.122374 0.845239 0.0503688
3970 1 0.146534 0.869292 0.0436761
3972 1 0.148524 0.867258 0.0581718
15798 1 0.147118 0.868959 0.0407744
3971 3 0.145324 0.869496 0.0514952
15797 2 0.150407 0.868888 0.0336248
868 1 0.178 0.867501 0.0551428
869 2 0.169522 0.867684 0.0535637
870 1 0.163711 0.87346 0.0551993
13533 1 0.0766988 0.810944 0.179114
13532 3 0.0826909 0.816547 0.180101
13531 1 0.090438 0.817038 0.181472
17284 1 0.0931947 0.817542 0.182597
17285 3 0.100196 0.818578 0.185318
6702 1 0.107483 0.812363 0.190351
6701 3 0.112045 0.808928 0.194918
6700 1 0.119248 0.806059 0.193603
10579 1 0.122372 0.804689 0.192793
10580 2 0.129537 0.802186 0.192094
10581 1 0.136873 0.801641 0.19548
17286 1 0.105264 0.81386 0.188425
2105 3 0.193489 0.776943 0.738094
2104 1 0.191299 0.77866 0.729573
2106 1 0.193203 0.777001 0.745841
5523 1 0.19326 0.777145 0.74923
5684 3 0.17631 0.769156 0.764804
5685 1 0.180836 0.761799 0.766607
5521 1 0.184982 0.773115 0.759346
5522 2 0.192225 0.776251 0.757064
5683 1 0.182453 0.772164 0.760958
1108 1 0.0739106 0.800272 0.904747
8873 2 0.0808319 0.782109 0.896937
8874 1 0.0720264 0.783388 0.896899
1110 1 0.0808766 0.807392 0.892104
1109 2 0.0772513 0.801791 0.896998
8872 1 0.0847222 0.782189 0.904504
20576 2 0.0894866 0.817547 0.889951
11543 2 0.0843563 0.835447 0.885308
11544 1 0.0861521 0.828251 0.886821
20575 1 0.0868892 0.825139 0.887298
11542 1 0.0829164 0.841913 0.888991
9733 1 0.093106 0.814153 0.899098
20577 1 0.092367 0.814621 0.896377
18420 1 0.090562 0.779636 0.921434
9904 1 0.0903808 0.779357 0.92403
9905 2 0.0901893 0.780111 0.931017
8821 1 0.0355734 0.803481 0.933616
17412 1 0.0561366 0.796897 0.934577
18418 1 0.0861526 0.782112 0.907162
18419 2 0.0898102 0.781416 0.914109
7202 2 0.0759252 0.799518 0.921358
7203 1 0.0738117 0.807321 0.923807
14811 1 0.0726907 0.810172 0.925284
7201 1 0.0808954 0.794789 0.919398
10560 1 0.114216 0.798055 0.927489
15983 2 0.112012 0.791631 0.917776
15982 1 0.113445 0.796116 0.925131
10559 2 0.116626 0.803797 0.932113
15984 1 0.107239 0.788903 0.912386
9735 1 0.0946206 0.812379 0.914911
5854 1 0.0969736 0.807224 0.93119
5855 2 0.0930573 0.809825 0.925844
5856 1 0.0944532 0.811523 0.917976
10558 1 0.111949 0.810954 0.933471
14809 1 0.0680471 0.821645 0.935202
14810 2 0.0693676 0.816317 0.929582
11922 1 0.0838571 0.831898 0.925852
11921 2 0.0883474 0.832505 0.93257
9734 2 0.0944627 0.812779 0.907604
20782 1 0.0982442 0.821852 0.934182
20784 1 0.110252 0.813646 0.934033
20783 2 0.106067 0.821172 0.936223
13253 3 0.197874 0.853142 0.930208
13252 1 0.199423 0.851673 0.924082
3319 1 0.0960527 0.740562 0.9656
3320 2 0.0953559 0.747737 0.961494
5423 2 0.133333 0.745063 0.968092
5424 1 0.128547 0.74998 0.964953
11749 1 0.14993 0.746955 0.956453
11750 2 0.153501 0.747012 0.96458
6501 1 0.0230965 0.776363 0.966712
2590 1 0.0251738 0.77536 0.964673
14494 1 0.036225 0.766828 0.952244
14495 2 0.0399174 0.762151 0.948035
14496 1 0.046723 0.761425 0.944177
2591 2 0.031143 0.774023 0.959912
2592 1 0.034555 0.768835 0.954077
6871 1 0.0842648 0.781247 0.956142
6872 2 0.0760721 0.780748 0.956716
9906 1 0.0908053 0.779636 0.940138
4548 1 0.0747914 0.766101 0.968088
4547 2 0.0832784 0.764399 0.967756
758 2 0.0951092 0.780735 0.956343
16313 2 0.120056 0.756784 0.960377
16314 1 0.118907 0.765149 0.963966
3321 1 0.0924677 0.755057 0.959531
16312 1 0.126206 0.751981 0.963726
2630 2 0.123636 0.77596 0.966824
11719 1 0.13848 0.768758 0.96676
1513 1 0.155844 0.77671 0.951315
1372 1 0.157754 0.775302 0.952781
1373 2 0.162962 0.77046 0.957704
1374 1 0.163628 0.762748 0.958916
8823 1 0.0284537 0.810541 0.944012
8822 3 0.0315781 0.805299 0.940409
17411 2 0.0594507 0.798843 0.94191
17147 2 0.0605707 0.790328 0.963554
17146 1 0.0553815 0.794659 0.967912
21358 1 0.053688 0.796643 0.968695
757 1 0.0876166 0.781276 0.955972
17410 1 0.0679265 0.800222 0.941972
18048 1 0.0704963 0.80011 0.942122
18047 2 0.0789309 0.79979 0.942833
18046 1 0.0873331 0.798866 0.943759
6772 1 0.0906628 0.799112 0.943715
17148 1 0.0671027 0.786346 0.96074
6873 1 0.0696055 0.784415 0.959565
16794 1 0.117652 0.784352 0.962152
16793 2 0.112073 0.789447 0.958118
16792 1 0.105003 0.785468 0.958489
759 1 0.102498 0.783898 0.958066
6773 2 0.0994264 0.799849 0.944149
6774 1 0.106465 0.800633 0.94638
6586 1 0.109267 0.806586 0.963674
2631 1 0.11952 0.782149 0.963274
1514 2 0.150206 0.781371 0.949214
6023 2 0.12566 0.80639 0.956793
1515 1 0.143033 0.785082 0.948995
1093 1 0.140409 0.786285 0.949208
1094 2 0.133035 0.789548 0.950747
1095 1 0.12911 0.796508 0.953859
6022 1 0.128081 0.799577 0.954687
5689 1 0.173191 0.803506 0.962958
9535 1 0.171589 0.801916 0.963893
9536 2 0.166389 0.796059 0.96727
5690 2 0.178482 0.807907 0.960075
9537 1 0.158231 0.793003 0.968552
5691 1 0.185055 0.812079 0.961353
4250 2 0.197436 0.808331 0.951745
4251 1 0.1941 0.810321 0.94445
2083 1 0.060071 0.83799 0.957533
3318 1 0.0561006 0.830619 0.967378
587 2 0.0623076 0.837821 0.942081
19858 1 0.0793939 0.821068 0.952862
19859 2 0.0864863 0.817758 0.953211
18932 2 0.0688713 0.824438 0.953075
18931 1 0.0767392 0.822381 0.952756
18933 1 0.0662214 0.829913 0.948494
588 1 0.0655604 0.832113 0.946762
586 1 0.0674234 0.842697 0.946745
6762 1 0.089381 0.843134 0.954772
11920 1 0.0930686 0.834925 0.939611
19860 1 0.0954268 0.815858 0.954816
6588 1 0.0982825 0.815535 0.955625
6587 2 0.105921 0.813025 0.958878
20136 1 0.0942777 0.835272 0.942205
20134 1 0.0915107 0.841341 0.952913
20135 2 0.0959604 0.836487 0.949225
11008 1 0.128203 0.823513 0.940932
6024 1 0.1252 0.813832 0.960286
20371 1 0.125453 0.816621 0.961363
20372 2 0.125894 0.823616 0.966032
11009 2 0.123888 0.82954 0.941128
11010 1 0.124238 0.836266 0.945339
19002 1 0.124243 0.838677 0.94707
19001 2 0.124535 0.842924 0.953048
1169 2 0.180379 0.826569 0.945536
1170 1 0.172426 0.825594 0.9448
718 1 0.167771 0.839771 0.951015
1168 1 0.185791 0.82178 0.942465
7867 1 0.195934 0.815611 0.959053
4249 1 0.196723 0.813193 0.957157
10357 1 0.188466 0.830676 0.967677
7869 1 0.190132 0.827931 0.967114
7868 2 0.194237 0.821989 0.964615
2085 1 0.0559255 0.849002 0.964848
2084 2 0.0623369 0.845557 0.961483
6760 1 0.0802217 0.844623 0.966304
6761 2 0.08373 0.846016 0.960288
19000 1 0.119963 0.843912 0.959771
20624 2 0.10666 0.854122 0.945411
20623 1 0.106929 0.853464 0.938031
7063 1 0.112939 0.860492 0.951343
20625 1 0.111155 0.858738 0.949788
7064 2 0.117722 0.865491 0.956453
2728 1 0.118313 0.844423 0.962272
7065 1 0.12448 0.864036 0.961321
13293 1 0.148989 0.864767 0.957917
10371 1 0.148994 0.86759 0.959563
13291 1 0.141931 0.855594 0.950821
13292 2 0.148453 0.858682 0.953548
485 2 0.132849 0.860366 0.967009
486 1 0.126703 0.863173 0.963205
10370 2 0.149989 0.873388 0.964499
720 1 0.180426 0.847513 0.94626
719 2 0.173499 0.845535 0.949581
11661 1 0.169817 0.865655 0.968414
3880 1 0.168873 0.862685 0.968005
3882 1 0.1669 0.847273 0.963135
3881 2 0.166621 0.855389 0.966884
4274 3 0.202087 0.848243 0.94696
4273 1 0.201938 0.847793 0.9548
13254 1 0.198682 0.851741 0.938564
4275 1 0.199505 0.850875 0.941417
10369 1 0.15387 0.879733 0.964079
20544 1 0.0606017 0.748096 0.975532
20543 2 0.0530083 0.746487 0.975317
19390 1 0.136632 0.735082 0.971237
19391 3 0.139115 0.727935 0.973554
5422 1 0.135545 0.738637 0.970124
19392 1 0.141761 0.720441 0.972685
14888 2 0.148982 0.748304 0.983079
14887 1 0.15086 0.748297 0.975447
11751 1 0.151469 0.748066 0.971966
14889 1 0.152054 0.749752 0.990133
6500 3 0.0173122 0.777675 0.972043
12712 1 0.0397384 0.767041 0.969291
12713 2 0.0415602 0.759301 0.969456
12714 1 0.0458763 0.753713 0.971696
20542 1 0.0480611 0.751566 0.972406
18383 2 0.0467856 0.774973 0.980475
18382 1 0.041942 0.778524 0.984849
18384 1 0.0538176 0.772982 0.976346
14923 1 0.0564088 0.772035 0.975087
989 2 0.0841427 0.779911 0.987411
988 1 0.0897117 0.77435 0.986211
14924 2 0.0642348 0.767342 0.970575
14925 1 0.072173 0.766558 0.96882
4546 1 0.0903793 0.766007 0.970867
14915 2 0.110526 0.773692 0.990116
14914 1 0.10674 0.769351 0.984647
13117 1 0.093096 0.766524 0.972622
13119 1 0.104461 0.768202 0.982048
13118 2 0.0997048 0.766854 0.976413
14916 1 0.111857 0.77712 0.997427
15703 1 0.129648 0.761322 0.993316
18765 1 0.129292 0.760583 0.990322
18763 1 0.124193 0.752517 0.976718
18764 2 0.127744 0.75828 0.982529
21396 1 0.126917 0.77692 0.984753
2629 1 0.131393 0.772644 0.968839
21395 2 0.132094 0.778373 0.989478
11720 2 0.1446 0.766916 0.971654
627 1 0.166481 0.766279 0.98713
625 1 0.154971 0.766576 0.976018
11721 1 0.152271 0.766388 0.974725
626 2 0.162876 0.766335 0.980263
14598 1 0.169283 0.778342 0.982053
13344 1 0.0103023 0.785382 0.974004
6499 1 0.0123248 0.783629 0.973548
13343 3 0.003915 0.791872 0.974478
3943 1 0.0530394 0.785166 0.996796
1626 1 0.0555007 0.785842 0.994914
21359 2 0.0471055 0.801901 0.970139
21360 1 0.0415274 0.806578 0.974824
990 1 0.0806844 0.784802 0.993852
1625 2 0.0618058 0.788688 0.990951
4911 1 0.0792033 0.806254 0.995355
4909 1 0.071615 0.794146 0.99129
20406 1 0.0858354 0.802181 0.974071
1624 1 0.0691875 0.792297 0.991011
4910 2 0.0758588 0.800174 0.994015
20405 2 0.0817751 0.808444 0.971033
13873 1 0.098089 0.788453 0.988442
21118 1 0.0954844 0.783112 0.971951
13874 2 0.099177 0.789974 0.997137
21120 1 0.104788 0.795729 0.974238
21119 2 0.0994086 0.790677 0.973871
11350 1 0.107618 0.797604 0.975226
11351 2 0.114244 0.799527 0.978862
4210 1 0.0931953 0.807913 0.980858
4211 2 0.0965286 0.809392 0.987107
15464 2 0.121993 0.799683 0.998711
21394 1 0.139455 0.782019 0.990667
6970 1 0.141044 0.783392 0.991005
15463 1 0.129543 0.800238 0.99571
11352 1 0.121244 0.798351 0.979039
5222 2 0.145346 0.80966 0.993576
8584 1 0.124397 0.798312 0.978647
12902 2 0.147149 0.788978 0.971205
12903 1 0.14077 0.792195 0.97402
8585 2 0.13187 0.797065 0.978097
8586 1 0.138158 0.793573 0.975325
6971 2 0.146751 0.789422 0.99345
6972 1 0.151195 0.790605 0.999882
12901 1 0.155469 0.791877 0.969214
14597 2 0.166952 0.785147 0.985653
14596 1 0.166698 0.792878 0.988644
7137 1 0.166845 0.796079 0.989238
7136 2 0.169254 0.803338 0.991655
7135 1 0.170812 0.811759 0.992058
18927 1 0.201333 0.784242 0.986372
1341 1 0.193256 0.796533 0.979169
18926 2 0.19821 0.788381 0.981629
18925 1 0.194629 0.794001 0.979358
1339 1 0.182934 0.808685 0.975309
1340 2 0.188228 0.80283 0.977316
13342 1 0.996473 0.794253 0.977887
13132 1 0.0410451 0.817851 0.996795
18312 1 0.0422015 0.817961 0.99408
18310 1 0.047593 0.820097 0.979676
18311 2 0.044308 0.818277 0.986925
3317 2 0.0525212 0.824197 0.970791
3316 1 0.0490629 0.821047 0.976952
1609 1 0.0554491 0.842279 0.998501
1610 2 0.0546708 0.833051 0.999971
20404 1 0.080363 0.813182 0.977883
6050 2 0.0764084 0.840859 0.977129
4839 1 0.0877185 0.827236 0.978245
17301 1 0.0736593 0.831146 0.981236
6051 1 0.0742937 0.83397 0.98008
17299 1 0.0696287 0.820443 0.991319
17300 2 0.0716557 0.82303 0.98405
3484 1 0.096661 0.814845 0.996421
4212 1 0.0964421 0.813542 0.99363
4837 1 0.103145 0.82839 0.982
4838 2 0.0954205 0.828042 0.978817
9384 1 0.120118 0.824193 0.988445
9383 2 0.113227 0.82673 0.990683
9382 1 0.109489 0.828747 0.997443
9840 1 0.119386 0.843736 0.978124
12573 1 0.139667 0.833834 0.990641
12572 2 0.145755 0.830563 0.996483
20373 1 0.124884 0.830712 0.970972
10381 1 0.123057 0.822814 0.987528
10383 1 0.136647 0.814218 0.988682
10382 2 0.130863 0.819895 0.986033
5223 1 0.138898 0.812845 0.989801
9839 2 0.123794 0.842764 0.984142
20251 1 0.147863 0.842351 0.975981
9838 1 0.128419 0.842128 0.990776
20612 2 0.177975 0.824747 0.9971
10359 1 0.178816 0.839188 0.97619
8509 1 0.186467 0.830131 0.99283
20611 1 0.184335 0.829363 0.993935
8510 2 0.194308 0.833402 0.990887
10358 2 0.183586 0.836567 0.970478
8511 1 0.200261 0.838217 0.98646
6049 1 0.0789133 0.844091 0.969186
12721 1 0.10826 0.852301 0.995573
18561 1 0.106073 0.851509 0.993368
2729 2 0.11427 0.846222 0.96904
2730 1 0.117989 0.844068 0.97557
18560 2 0.10105 0.84997 0.987741
18559 1 0.102509 0.843814 0.992577
20252 2 0.14562 0.848033 0.98313
484 1 0.131631 0.856373 0.972795
20917 1 0.150388 0.84976 0.991934
20253 1 0.148753 0.849821 0.989606
17815 1 0.137852 0.862891 0.988787
17816 2 0.130527 0.864465 0.989872
17817 1 0.126072 0.869385 0.98407
20918 2 0.155985 0.848468 0.998762
17877 1 0.169185 0.871567 0.985019
17875 1 0.169722 0.857828 0.989397
17876 2 0.167873 0.865239 0.990379
11660 2 0.171998 0.873278 0.970273
17488 1 0.182321 0.862793 0.978534
17490 1 0.191134 0.848998 0.981077
17489 2 0.187131 0.856178 0.978154
12347 3 0.158664 0.905069 0.988184
16063 1 0.160045 0.895185 0.981599
12348 1 0.159577 0.897572 0.983119
16064 2 0.160375 0.887602 0.977125
16065 1 0.164836 0.881235 0.974225
11659 1 0.166843 0.879168 0.972631
12346 1 0.158338 0.911418 0.992135
