ITEM: TIMESTEP
20000000
ITEM: NUMBER OF ATOMS
17820
ITEM: BOX BOUNDS pp pp pp
0.0000000000000000e+00 5.0000000000000000e+01
0.0000000000000000e+00 5.0000000000000000e+01
0.0000000000000000e+00 5.0000000000000000e+01
ITEM: ATOMS id type vx vy vz 
14928 1 -2.84192 -0.633366 1.74464 
14926 1 -1.93799 3.8922 -5.65667 
14927 2 -2.41906 -2.26625 -2.62813 
15518 2 0.944495 5.27678 1.85939 
15519 1 0.515818 1.48974 -6.89041 
15517 1 -1.98215 0.15171 -0.205852 
10818 1 1.66045 1.37964 -1.54534 
10817 2 2.01635 -3.56353 -2.38392 
13623 1 -5.17667 -1.71943 -0.870349 
13622 2 0.514948 0.691843 0.116755 
4862 3 2.19819 0.252558 2.10534 
4861 1 3.32695 -4.47148 6.47753 
7440 1 0.694163 2.87395 5.67063 
4863 1 2.78077 -1.03099 -2.36318 
14766 1 -3.20738 0.988279 -3.67771 
4956 1 -0.918171 3.76387 -4.20518 
4955 3 1.48106 -1.90815 -0.921339 
4954 1 4.71233 4.82278 2.49067 
4247 2 -2.25413 0.688795 -0.220935 
11605 1 -2.10614 -5.41793 2.87443 
4246 1 0.677067 0.29071 -0.784009 
11606 2 0.337731 -2.17844 -0.891761 
13907 2 2.64812 -0.0437984 -4.68262 
13908 1 0.759434 -3.68974 0.421926 
13906 1 -1.05063 7.7046 -0.557283 
7439 2 4.19004 1.59162 1.62386 
14765 2 2.36414 -3.26854 -2.20364 
14764 1 0.0724585 -0.526582 3.126 
4143 1 2.43842 1.78029 -7.685 
4142 3 -4.72517 -4.01685 -1.09003 
4248 1 1.95627 6.09331 -5.02116 
12739 1 4.97523 2.52768 -0.335099 
1771 1 2.14426 2.8297 -9.3403 
12740 3 -4.0368 1.61622 3.0191 
15852 1 1.04811 -0.0337956 -4.66555 
3286 1 -0.68142 2.34309 -0.115588 
15851 3 -1.68632 1.46073 -0.340202 
15850 1 -4.1707 -1.26733 -3.3278 
3287 3 3.31407 -0.167381 -4.13522 
3288 1 0.0293318 2.08647 1.53719 
4594 1 2.10149 -1.31258 2.06992 
8037 1 -2.30591 3.74823 -5.92057 
2864 2 -1.68581 3.24492 2.55811 
2865 1 -2.76557 -1.66479 -0.366856 
8035 1 9.29328 -0.936896 -2.78225 
8036 2 0.216798 -0.0273481 1.86579 
2863 1 -3.12118 -3.79394 6.26374 
15624 1 -2.95714 0.370323 2.23807 
15623 3 0.129074 3.62642 -1.33214 
15622 1 4.4066 -1.91879 1.01711 
4945 1 1.40534 -2.66337 0.684183 
7989 1 -0.6834 0.0978588 -1.23614 
1191 1 -8.04918 -3.13709 -8.2394 
3699 1 -2.93855 -2.21014 -0.332059 
17006 3 -2.64944 -3.28557 3.10893 
14841 1 1.19118 5.48126 -0.402873 
17007 1 1.62331 6.46913 -0.564208 
17005 1 0.905792 4.52473 -0.546571 
15788 2 1.93021 -0.456405 0.477205 
15789 1 1.78925 1.863 1.62844 
4946 3 1.87753 2.35855 2.73421 
4947 1 -2.07391 5.83826 4.09654 
7113 1 -0.145037 -5.24641 4.76042 
977 2 1.89931 0.24585 4.24406 
976 1 -0.733657 -0.0788748 1.86965 
978 1 2.86623 -3.52283 5.60782 
7112 2 -1.75759 3.68995 3.15305 
13168 1 -1.9101 -0.194592 3.58054 
13170 1 -3.241 4.74437 -1.81917 
13169 2 2.29828 0.717696 -1.26022 
7111 1 7.09076 2.42831 2.15034 
21587 3 1.59632 -0.00668436 0.893297 
8015 3 -0.0674922 -0.139874 1.95878 
8014 1 -3.02694 -1.55188 -2.45592 
21588 1 -2.18991 4.54991 4.66696 
1190 3 4.27699 2.11934 1.47175 
1189 1 4.26593 7.78293 5.38808 
14840 2 -1.99076 -2.21453 0.633762 
14839 1 4.40949 1.58415 4.83748 
2671 1 -0.268464 -4.59171 1.76513 
2839 1 2.17384 -0.663199 -2.05411 
2841 1 -1.69804 5.43224 -2.50121 
2840 2 -0.184562 0.0614706 -3.80179 
10430 3 2.51825 2.59756 0.357576 
16467 1 2.43158 -0.650504 1.17452 
10429 1 5.72725 2.57675 -2.64741 
16465 1 -2.20268 -0.508225 -2.36315 
16466 3 -0.164145 2.32038 -2.58016 
2672 3 -3.33545 -2.66587 2.94561 
10431 1 3.61038 -3.92401 0.0868063 
14586 1 1.40626 -3.07302 1.89879 
14585 2 -1.66953 0.126072 2.98268 
14584 1 -3.63688 5.86862 0.685734 
21586 1 0.361766 -0.80942 0.234689 
7487 3 -1.56005 -0.215813 1.75508 
7486 1 1.19434 -1.80868 1.94247 
7488 1 3.8845 -3.68696 0.352291 
8016 1 2.00066 -2.74049 -2.25882 
13652 2 2.90479 -1.84135 0.0241405 
13653 1 1.61117 -5.96183 -5.25325 
14745 1 -6.01296 1.08234 1.12465 
14744 3 2.13755 3.46798 1.20567 
14743 1 0.723895 -2.72614 -2.79179 
13651 1 -2.9123 -1.43197 1.43559 
16333 1 3.51051 2.28166 -9.81653 
16334 3 3.92168 2.8079 -0.573878 
16335 1 2.34255 3.53524 -1.97516 
4967 2 -0.325514 -1.99077 6.70905 
5405 2 1.26672 1.2733 -1.04435 
5404 1 -2.03333 1.57444 -1.31715 
20420 3 -0.525809 1.95272 0.377363 
20421 1 -5.46326 5.37531 6.05007 
20419 1 1.07336 -3.70566 -0.773475 
21419 3 2.35798 1.12035 3.6458 
21420 1 0.186647 0.795303 -0.000862558 
12592 1 -2.14514 -3.70808 -0.0813988 
12593 3 4.55921 -0.332297 0.881739 
16179 1 -0.938569 4.86825 4.65173 
12594 1 -5.34145 0.301327 -2.58191 
21418 1 6.84506 -1.08258 -2.46235 
11610 1 -1.03875 -3.20095 -0.614308 
11608 1 6.10926 -0.476427 -2.86645 
7303 1 4.91638 2.1929 -1.9451 
11609 3 2.68166 0.896814 -0.431029 
7344 1 -2.88777 -0.189174 -2.99927 
7343 3 2.24791 4.1548 1.57117 
7342 1 -4.30519 -0.465781 5.96305 
17526 1 4.68483 0.434283 -0.149455 
17525 2 4.00133 -1.90079 -2.29911 
5247 1 1.55457 -8.49381 1.2094 
6466 1 5.09232 1.97629 -0.489765 
6467 2 1.37983 -3.31218 -1.57802 
5245 1 -12.8887 1.89894 -0.0529849 
5246 2 2.00917 0.795272 -1.95969 
6468 1 10.1454 -0.523301 1.26937 
10464 1 2.84464 3.86876 -4.75356 
10463 2 1.67355 1.86361 3.5554 
10462 1 0.988976 -4.98652 8.7307 
9950 2 -2.77302 -0.185538 -3.93655 
9949 1 -5.68896 -3.46943 -1.09918 
9951 1 -2.67251 2.49868 2.76699 
4966 1 -0.941516 -0.565424 -3.0396 
1360 1 3.84055 4.67548 3.22742 
16058 3 1.08617 3.63346 -0.159486 
16059 1 -1.53401 0.955675 2.1158 
16057 1 0.203343 -6.85875 -1.12991 
19681 1 2.59244 -0.772365 0.207689 
19682 3 0.668675 -2.37602 1.54933 
19683 1 3.12558 -2.99963 -3.65002 
19444 1 -5.75206 3.078 -4.76947 
17524 1 -2.57082 2.17089 -0.852989 
15921 1 -7.32514 -5.88252 -2.20384 
15920 2 2.33451 -2.06596 0.178275 
15919 1 4.52746 -4.96447 3.02483 
19445 3 -1.33013 1.19913 3.36804 
19446 1 -7.25625 3.11713 -0.885758 
14634 1 0.86797 -3.03709 4.13795 
6472 1 -0.630838 0.411628 0.535915 
8415 1 -2.20785 1.14388 3.02582 
14632 1 -1.43165 -4.85603 1.99947 
14633 3 2.58382 -0.444564 1.08526 
3146 3 3.7235 -2.42474 2.33462 
3145 1 5.50594 -0.999745 -3.60322 
279 1 1.63519 2.67717 -0.462323 
15391 1 0.279199 -5.09043 2.17793 
15393 1 -1.99351 1.50986 3.00021 
15392 2 1.54868 1.52376 3.13659 
8587 1 0.61926 -1.80985 0.283706 
8588 2 -1.53786 1.54217 4.37026 
8589 1 -0.396028 1.2223 -3.38406 
15204 1 0.322766 -6.40554 1.36504 
16094 3 -1.9863 -0.474614 1.18811 
16095 1 2.59926 -5.5048 1.34981 
16093 1 -3.70007 1.16219 -2.17511 
17924 3 0.0947173 1.03244 -0.716678 
17925 1 -4.56585 -1.08379 -7.22576 
14130 1 -1.75042 3.46118 2.76665 
3147 1 1.57876 -1.65754 3.68117 
1302 1 -4.08723 0.432743 1.41812 
1301 2 -1.10989 4.19841 1.76417 
18307 1 0.24016 8.2027 2.39273 
6365 2 3.17288 -2.4347 1.29823 
6366 1 -3.55611 -5.01444 2.41299 
6973 1 -3.53246 -3.34264 3.38238 
21278 3 0.734056 0.353652 -0.82207 
21277 1 0.633801 -2.64938 -0.360314 
21279 1 -2.53062 1.40463 2.11866 
7261 1 0.969177 -4.49975 -4.22642 
7262 2 -0.797004 -2.91635 -3.85025 
7263 1 5.87744 -0.770939 -2.56547 
18767 2 1.50485 1.45074 2.2159 
2506 1 -5.03838 1.56421 3.7855 
2507 3 -0.0458384 1.26285 -6.57767 
18766 1 1.36518 -1.3775 -0.296592 
18768 1 -5.28084 -4.55487 5.92033 
10976 3 -2.14681 -3.83745 1.52577 
10975 1 0.453835 -1.90623 -5.20652 
6364 1 -2.67341 -3.81242 -5.15877 
6975 1 1.01414 0.490872 4.50988 
6974 2 -5.25854 -0.996416 1.80568 
8567 2 0.630864 -2.25557 -0.912636 
8568 1 -7.27896 3.64135 -0.615107 
2508 1 -0.528212 3.42824 7.0472 
1945 1 4.51673 1.79427 6.90022 
11570 3 -0.784086 0.800815 1.23095 
11569 1 -3.80231 8.03614 0.63572 
11571 1 4.50435 0.404735 1.22957 
13278 1 1.03212 -5.79591 4.29483 
13277 3 0.915752 -1.14286 -3.99917 
13276 1 2.7316 -5.02747 -0.0580733 
4888 1 1.78397 -5.02261 -0.45394 
4889 3 0.262375 -1.7419 -1.16983 
4351 1 1.02903 -0.324894 3.03096 
4352 3 -7.81373 -0.335864 -1.02464 
4890 1 -1.12438 6.94159 -4.10458 
4353 1 3.11936 0.903767 0.164058 
12867 1 2.5449 1.67668 -3.36522 
19872 1 0.0454186 -0.849344 2.35979 
19871 3 7.62479 1.582 0.286603 
7582 1 -1.16405 -2.67681 -4.78853 
11505 1 1.14443 -3.60107 4.75484 
11504 3 5.92631 0.155457 0.92499 
12144 1 -6.30399 -3.66971 -0.58501 
19993 1 -0.556323 -0.728598 4.59769 
12143 3 0.0643545 1.54157 -1.15857 
12142 1 -2.28694 -1.86523 -1.9319 
11503 1 3.48755 -1.75206 2.59065 
16996 1 5.50607 4.48584 -7.99662 
8860 1 -3.62327 -2.95895 1.66016 
8862 1 -0.967527 -1.42617 -4.87884 
13860 1 -3.8247 -3.57842 5.45006 
8861 3 2.20522 -2.15103 -0.412009 
6654 1 0.50811 3.04321 -1.70471 
19045 1 -1.55664 -0.670321 2.28971 
19046 2 -1.37589 -4.64684 -1.21012 
17107 1 2.26766 -0.620779 -5.80873 
17108 2 -0.516918 2.25305 0.033014 
19047 1 1.11002 5.08635 -5.55705 
17109 1 2.32409 -0.935461 -7.12907 
18793 1 0.851797 4.40615 2.47311 
10891 1 9.38933 6.02534 -6.94795 
11710 1 0.0743998 3.55 -2.78395 
11711 2 -1.32211 -4.08598 2.06209 
11712 1 1.22087 -2.75225 0.276734 
1479 1 -1.29383 2.0587 -4.02431 
1478 3 3.90916 -0.837728 0.818248 
1658 3 1.98106 2.87051 -0.571572 
1657 1 2.4996 -1.13871 -6.48141 
1659 1 5.70696 0.986232 1.93868 
17752 1 0.583299 0.46119 0.393305 
11790 1 0.481255 3.41399 1.51438 
16504 1 -2.90214 -0.782471 -0.307075 
16505 2 0.695481 -3.65678 1.3407 
16506 1 7.93407 4.15052 -0.129619 
5628 1 -5.26048 -0.677579 3.68283 
968 2 3.7186 2.85918 -1.53397 
4055 3 -1.63012 1.65068 -2.00901 
4056 1 -2.32397 2.10599 3.47962 
969 1 -0.58671 -2.3449 -1.71415 
4054 1 -3.04017 2.97254 -5.27441 
13859 2 -2.56737 2.27235 3.35559 
10816 1 -2.75234 0.262905 4.83503 
6770 3 -0.823382 0.482291 0.52728 
6769 1 1.90819 -0.861982 -3.40901 
6771 1 -0.275536 -0.434288 -1.80918 
7964 3 1.44639 -2.54437 2.69962 
6653 3 2.2011 3.70397 1.51965 
7965 1 -2.47009 0.637808 5.77556 
6652 1 -1.15855 -3.53889 0.00127767 
18794 2 -2.07795 -1.27934 0.63576 
13621 1 -4.72178 -1.9202 0.566617 
11438 3 -0.799927 -2.66345 -1.2284 
11439 1 1.91846 3.7755 -3.73284 
11437 1 -2.18624 -2.92769 9.68 
5516 2 1.75681 -4.79112 -0.647433 
5515 1 -0.982614 -3.06976 -0.245557 
5627 2 -1.25783 2.10288 0.597062 
20259 1 3.67427 -1.52218 -2.01869 
20449 1 -2.79812 1.14316 1.46554 
20450 3 3.25197 -0.138692 -1.07421 
20257 1 2.41143 -3.66979 2.69265 
20258 2 -0.443218 -2.82955 -0.483939 
967 1 -2.16109 -0.644912 -0.622568 
13794 1 0.0156948 1.22985 2.38271 
13793 3 1.10057 -3.372 -0.793147 
12153 1 -0.179081 4.19717 0.902134 
12151 1 -1.44524 3.68373 3.89568 
12152 2 5.56949 -2.04401 -1.18067 
7963 1 0.65691 1.22645 -4.08989 
5517 1 -5.96366 3.78483 -1.59209 
20451 1 2.85367 -2.68266 -3.21282 
3315 1 0.531704 -10.3829 -4.60417 
10063 1 -0.571211 -0.935107 -3.27215 
5173 1 -2.4526 2.71786 -2.46318 
18145 1 4.02418 -1.96733 -5.35826 
18146 3 -3.60159 4.01603 -2.71455 
10064 3 4.86579 2.62591 -0.111304 
10065 1 -1.82233 -0.441022 4.89397 
1772 2 -1.78142 2.27964 -0.935402 
1773 1 5.41727 1.08237 1.98596 
2059 1 -1.57614 1.90792 -0.367895 
2061 1 -2.7812 3.90215 0.504205 
2060 2 -0.105204 -1.57901 4.4014 
18178 1 -2.38183 3.87983 6.96197 
18179 2 -0.357203 1.5101 0.172727 
18180 1 -3.2641 -0.181596 -3.5257 
12617 3 3.06877 3.44599 1.80972 
7395 1 -6.85141 -2.43555 1.12333 
9911 2 2.93769 -1.59172 -3.07421 
9912 1 0.945296 -4.47621 -3.36609 
9910 1 2.95848 -0.959854 -2.78809 
246 1 -0.430215 5.01937 -5.41342 
20229 1 5.11856 -1.721 3.38819 
20228 2 1.58956 -2.42192 -5.63958 
20227 1 -0.635583 3.74114 -4.40188 
20923 1 4.09411 -3.56076 -3.04874 
20924 3 1.56351 2.53838 0.621625 
12616 1 2.65142 -1.58799 -6.41118 
1137 1 -2.30437 6.69166 2.79133 
20925 1 -6.2891 -3.99153 -0.975389 
11955 1 -2.50483 -0.808919 3.16541 
1136 3 3.2825 2.10393 -2.88629 
15787 1 -3.64325 0.13903 1.21428 
1135 1 0.242191 -1.15229 5.14907 
18414 1 -0.735792 0.991673 -1.44884 
18412 1 5.7371 2.29798 -0.997339 
18413 3 -0.931668 -1.45211 1.1319 
10667 2 -0.344801 -3.7013 -1.86047 
10666 1 1.69199 0.725981 3.89432 
13819 1 5.54632 3.6462 -6.05394 
13821 1 2.38948 -4.47672 3.32394 
13820 3 -2.41695 -0.223554 -0.186791 
5791 1 -4.89204 -2.53546 0.577218 
15239 2 1.14347 0.0300155 1.0538 
15238 1 0.720976 -0.0524851 2.84149 
15240 1 -0.65293 -1.08535 -1.06889 
19693 1 -0.208684 -3.018 -1.68953 
19694 3 -0.584235 0.358101 0.916521 
19695 1 1.17361 -0.351753 6.4206 
14665 1 -3.12673 1.94834 0.690407 
14666 3 -1.58149 0.739729 -0.115504 
14667 1 0.634216 -0.423667 0.905738 
10668 1 -0.684523 -0.20452 0.530458 
3060 1 0.39692 0.249374 -0.534353 
3059 3 -1.6718 1.79372 -0.409677 
5489 2 -0.479171 3.43152 -1.07117 
5488 1 -0.131104 -2.11089 1.35553 
5490 1 -1.28375 0.423853 2.29426 
1698 1 2.4135 -3.89358 1.43207 
17244 1 -0.343899 4.20518 3.88591 
9325 1 2.61004 0.630547 -3.77616 
17243 2 -1.03032 -6.25665 2.76078 
13424 3 -1.19771 0.271959 0.529777 
13423 1 2.54353 -1.21209 1.67711 
13425 1 1.75621 -1.16238 -0.505166 
1697 3 -3.83418 0.40991 4.31335 
1696 1 4.81342 4.25157 -2.03236 
20232 1 5.67825 -4.65961 0.786071 
20231 3 0.277831 -2.66069 3.31503 
3748 1 3.09681 8.83697 -4.02991 
20230 1 0.952217 -0.987847 -0.30653 
14650 1 7.65557 3.7594 -10.7594 
1059 1 -3.95174 -5.26204 0.112994 
1058 3 -3.90103 -5.14241 1.22719 
12706 1 -5.77564 -4.38623 -1.31373 
2955 1 1.50915 0.540737 0.669973 
12707 2 1.58666 2.14387 0.628244 
1057 1 5.98045 -1.51942 1.44572 
13942 1 -1.33975 -1.10568 2.37609 
2954 3 -0.806394 -0.649869 -1.46524 
13943 3 -2.24129 -1.46768 0.344932 
13944 1 -4.14493 4.46982 2.99158 
2953 1 5.43079 -2.24639 -5.02349 
17963 2 2.52413 0.749292 -3.93551 
17962 1 -1.10855 1.06756 -5.35805 
17964 1 -3.04879 -1.1542 0.0286322 
10113 1 0.735551 -0.311121 3.63271 
9326 2 1.33225 -3.56212 4.34089 
9327 1 2.33156 -2.91404 -4.1332 
3749 3 -2.07437 -2.77711 -1.97107 
3750 1 -8.07415 1.99565 -10.2752 
14652 1 -1.08064 4.70642 0.996315 
14651 2 2.0985 -2.07162 -4.13416 
6758 3 2.48083 -1.14377 -0.793463 
6757 1 0.00202269 -1.44699 0.347148 
6759 1 -2.13048 -2.14592 -1.05647 
942 1 1.00952 -0.683017 5.39923 
16177 1 -3.38723 -6.98401 -2.9641 
16178 3 1.85658 -3.58045 -1.14049 
18907 1 -3.59815 -1.36033 -9.73608 
18908 2 1.86666 3.04218 1.48589 
18909 1 -4.15224 1.6294 -4.82776 
4791 1 0.0791327 6.92898 -5.26557 
4790 2 1.68478 4.9748 0.898427 
12708 1 4.31523 -3.00621 -1.49012 
5731 1 -6.28494 3.23803 -3.45104 
13004 2 0.738486 2.64201 -0.156849 
13005 1 -0.138751 8.33102 6.08639 
13003 1 -1.52748 0.121292 -6.9793 
1493 2 -1.31386 -0.37348 2.51314 
21003 1 -5.84874 -2.0708 5.5207 
21002 2 7.53704 6.14986 -0.0719767 
21001 1 -3.5207 2.09062 4.04638 
8327 2 -3.55667 5.26139 -4.65517 
8328 1 2.46193 3.44751 1.67725 
1904 3 0.433813 1.03202 -1.5182 
1905 1 -1.88712 10.0274 2.82062 
1903 1 4.97632 4.32454 2.22092 
17102 2 1.68209 1.11546 3.61842 
17101 1 3.28858 2.33245 4.47725 
8659 1 0.92743 1.26006 -2.82205 
8660 3 2.90865 2.27709 -1.25349 
8661 1 11.3308 2.10524 2.32289 
2179 1 -1.02337 1.72609 -4.38694 
16360 1 -0.648064 0.971179 -1.93887 
4789 1 -4.12187 0.411068 3.51487 
19247 3 0.818197 0.11509 -0.866355 
19246 1 -0.185932 -3.89857 -0.595612 
19248 1 -2.79327 5.11487 2.74925 
1856 2 1.29609 0.777219 2.10773 
1855 1 0.640564 -1.73652 -3.1027 
1857 1 0.251951 3.75233 5.58609 
10427 2 -3.31002 3.1483 -0.335691 
10428 1 -1.85342 6.09008 2.10371 
10426 1 0.676295 5.70196 5.39111 
4508 3 7.21052 -0.714165 -1.51568 
1492 1 -1.44304 -0.917764 0.837266 
1494 1 -0.273609 2.10183 0.68871 
10527 1 2.40972 -2.98215 -0.0762117 
10526 3 -3.72145 -0.546795 3.35791 
8824 1 -2.98819 0.00181393 5.37987 
8826 1 3.71793 0.604541 0.0257271 
8825 2 3.08734 -1.34471 0.984199 
6006 1 2.93977 -7.16464 -4.23696 
6474 1 1.44006 -3.01555 0.235829 
2579 3 2.68878 -0.420544 -1.29083 
2580 1 1.78858 3.47591 -3.33967 
6473 3 0.493996 -3.13117 -0.222816 
14648 2 1.98857 -1.45375 -3.38744 
14647 1 -1.53329 -4.02558 1.71408 
14649 1 -3.31296 1.02488 0.261465 
18936 1 -0.326925 3.98887 0.126886 
10008 1 -8.25398 -6.19261 -0.329434 
2180 3 6.29309 2.08943 -1.20102 
8354 3 1.08443 -1.26703 -1.37458 
8353 1 2.2784 -2.76432 8.54877 
2181 1 -2.54848 4.77307 -5.00727 
8355 1 -0.909666 -1.98843 -2.64388 
12943 1 -0.110011 -3.70271 0.490741 
10209 1 0.741349 2.38009 0.244853 
19437 1 5.14225 1.75568 -7.29349 
19436 3 0.503286 -1.42368 -0.0787922 
10208 3 5.13373 2.40922 1.14083 
10207 1 4.96971 4.9527 4.87267 
5428 1 1.14819 -0.839952 1.17244 
5429 2 -0.472836 -2.63691 -5.07064 
13751 2 2.64403 -1.17302 1.07186 
13750 1 -3.28245 1.67157 -2.82517 
13752 1 4.0464 6.1717 -1.58495 
6005 2 -0.669873 2.43644 -2.70421 
6004 1 -1.55114 -2.7421 -1.71837 
2578 1 0.75135 -0.296677 1.16125 
20340 1 4.28782 4.28157 2.47236 
20338 1 -2.47245 1.87291 -3.72336 
20339 3 -0.755809 3.65841 1.97186 
17923 1 0.128485 0.214008 -1.0397 
10007 3 2.65749 -5.05692 3.28801 
10006 1 1.96147 3.05597 1.78517 
9875 3 2.34274 -0.464685 -1.21399 
12944 3 -2.38466 4.32191 4.39488 
12945 1 -2.94465 -1.39884 -2.19881 
8975 3 -1.2468 -1.20284 5.98759 
8976 1 0.594766 0.48923 -1.36182 
8974 1 -1.86905 -0.124231 -0.862965 
9874 1 -1.1536 -4.34978 -0.0454239 
19435 1 -4.74128 3.02186 -2.99021 
5430 1 2.83047 5.06789 3.70086 
4065 1 -1.95721 4.37071 -1.10204 
4064 2 0.730531 -0.577668 3.01847 
16848 1 -3.8038 -8.0695 -5.49146 
4063 1 -0.181362 -3.25317 -4.41403 
16847 2 1.96683 -1.63324 -2.99298 
9573 1 -8.02856 -4.07586 -1.59345 
9572 2 2.58139 -4.79916 -1.07393 
9571 1 -1.10639 -5.04761 -0.101552 
3511 1 0.411273 3.50044 1.67408 
3512 2 5.71075 2.92899 -7.69449 
3513 1 -0.109444 -1.02586 0.236776 
5818 1 -2.98454 2.85692 -3.47686 
5820 1 2.88876 -8.29048 1.90604 
5819 2 3.12179 0.868026 6.42784 
18309 1 -0.000475773 -1.84808 7.43087 
18308 2 -2.23782 -0.431735 -0.0934394 
9876 1 1.47134 1.92881 5.47528 
10027 1 -5.04279 -5.31281 5.28342 
18708 1 2.45032 -0.795552 -0.60855 
12368 2 -2.87412 -3.22534 -2.28648 
12369 1 1.97521 -7.68953 6.43851 
16114 1 -5.92414 1.43892 -2.96154 
16859 2 0.201782 0.0967669 1.22586 
16858 1 3.79293 2.69748 1.13785 
9635 3 -0.659593 -1.35292 -1.21215 
9636 1 4.66476 2.8003 1.76415 
18081 1 3.71365 2.37201 6.79222 
12367 1 -3.70581 2.77008 -5.32024 
9505 1 3.36381 0.16976 -0.959376 
9506 2 -0.670692 2.77712 -1.57734 
9507 1 6.25216 -1.12407 -6.09641 
16860 1 -2.48156 9.32693 -3.9608 
1946 3 -3.49192 -2.6857 -1.41443 
1947 1 8.39211 12.3739 -1.57557 
3332 3 -0.249081 -2.3228 -0.537218 
3331 1 0.293839 -2.20792 -3.36136 
3333 1 -3.74698 -3.39448 -5.28295 
15526 1 4.01679 -0.550607 -0.131288 
15528 1 2.16396 -5.22972 0.425641 
16284 1 1.52495 -7.65325 -3.74758 
15527 3 -0.783728 0.150787 2.8891 
16997 3 1.46468 -2.43052 2.23683 
16998 1 -3.54445 -0.390019 0.374202 
4835 3 1.53348 -4.79159 -0.0826767 
4834 1 -4.72939 0.199076 4.03654 
10944 1 0.704031 3.67859 -1.62575 
10943 2 1.76261 -0.286341 3.23363 
10942 1 -3.45395 2.19461 -3.45791 
18130 1 2.60589 1.54972 4.55258 
8336 2 3.0343 -1.67655 1.94914 
8337 1 -0.806824 -0.262706 -0.075904 
3412 1 7.01396 -6.79404 3.65524 
3413 2 2.72687 -1.51476 -0.464555 
13912 1 0.983473 2.69008 5.20834 
3414 1 1.57762 0.233975 -4.69868 
13858 1 -1.82609 3.58527 -1.36318 
18127 1 -0.712357 1.39651 -4.92464 
18128 3 1.30168 1.49996 -0.692842 
18129 1 2.21488 2.02763 0.496008 
17757 1 -4.38734 -2.51917 0.320915 
17756 3 -1.09371 -1.72899 -0.9081 
18795 1 3.52676 0.113396 -1.1782 
17755 1 2.04022 1.8301 -0.0342912 
17754 1 -0.36581 -1.08625 -9.80512 
17753 3 -2.30516 -1.12636 0.443429 
9315 1 4.03809 -1.09071 3.73189 
9314 3 -0.769789 3.75516 -1.11177 
9313 1 2.4073 -1.45368 4.07887 
5626 1 1.27749 -4.84405 4.02094 
6061 1 -3.86489 0.985979 3.80979 
6062 3 -2.4391 -0.337752 0.806093 
6063 1 -2.15272 3.99729 4.5305 
13365 1 2.8886 -1.8292 5.35674 
13792 1 -3.00793 -1.74546 1.88363 
9206 3 -6.23931 1.80799 1.4226 
9207 1 0.936293 -5.98649 7.29319 
9583 1 0.941831 -2.4203 3.48401 
9584 3 1.85381 -2.49063 -1.98193 
9585 1 -0.789333 -4.33912 -1.20858 
8338 1 2.54271 0.28344 3.28041 
8339 3 -1.99713 0.879565 -1.11823 
12514 1 3.34216 0.242274 2.40571 
12516 1 0.593247 1.57692 -1.42959 
12515 3 -2.12681 -4.20237 -0.349662 
20293 1 -4.97546 -0.979119 2.47094 
2754 1 1.74907 -1.69002 1.04137 
2752 1 1.95526 -0.285588 -2.00088 
2753 2 -0.978876 1.12481 -2.4506 
3313 1 -2.97204 -2.11377 2.82559 
3314 2 0.717473 -0.529082 -1.94629 
16713 1 -2.69553 4.33814 -4.59535 
1634 3 -1.91776 3.05531 1.46833 
1633 1 1.53403 1.05494 0.94586 
21210 1 -4.18085 1.7839 2.33484 
1635 1 -1.58936 -2.92968 0.374566 
20939 2 0.940139 1.4585 -1.5763 
20940 1 0.953594 -2.25805 -5.15508 
5174 2 -1.19878 1.26693 -2.35938 
20938 1 -2.48395 3.2832 -2.69203 
5175 1 -3.23198 -0.496353 -4.6335 
15013 1 2.43841 0.857311 -1.47978 
8664 1 -3.49289 -4.49639 1.98515 
8448 1 -0.956411 -2.35534 2.44541 
8340 1 5.08513 0.10051 0.515085 
8447 3 4.45931 0.380645 1.09224 
8662 1 0.53379 2.27985 -3.11294 
8663 3 1.61835 -1.10654 -0.860693 
20294 3 1.05769 1.42422 -1.87473 
16447 1 0.157446 -5.55532 -0.328986 
16448 2 0.114851 0.456141 0.195065 
18147 1 3.64676 -1.8721 0.69638 
16449 1 2.06442 1.81765 -2.26571 
12666 1 -5.49452 1.97746 1.65447 
16495 1 2.87466 0.617169 1.43698 
10272 1 0.316622 0.821433 4.00393 
10270 1 1.20976 3.97936 -0.891036 
10271 2 -5.08594 5.65095 -1.70916 
10266 1 -0.353118 6.68272 0.833712 
10264 1 -2.85183 1.23273 -3.98819 
4530 1 0.36913 -1.01248 -2.75191 
4529 2 3.02279 1.86877 -0.782955 
1642 1 -1.30504 2.05197 -0.0232695 
5285 3 1.02605 3.60987 -2.6165 
5284 1 -1.80075 4.45039 -2.82753 
21209 3 -0.605854 2.21104 2.87708 
21208 1 -2.11352 3.58092 -1.38253 
5286 1 7.45572 -5.74183 -5.82427 
7619 3 -1.99449 -1.73841 -0.625842 
7620 1 -0.557712 -5.89967 2.19958 
21072 1 -1.62697 -7.24628 1.01859 
21071 2 2.35543 -3.0496 -2.81385 
15180 1 -0.312657 1.44883 -0.404814 
21070 1 -6.83759 6.24595 -2.23806 
12618 1 6.22768 2.61467 2.68255 
16496 3 -0.812844 0.401469 -2.6625 
16497 1 1.18398 -3.08665 4.88006 
11630 3 0.927531 -0.330203 -1.32273 
11631 1 4.17326 -1.11122 4.87743 
11629 1 4.83771 2.11929 -1.05808 
10265 2 -1.58957 -6.04514 0.517317 
7394 2 -1.29811 -1.22486 -2.02688 
7393 1 3.19679 -2.92334 -1.62062 
20866 1 2.32445 -7.33965 -4.40836 
20868 1 7.05776 -1.94947 2.7065 
20867 2 0.444249 5.09317 -1.22656 
12766 1 2.10662 1.09162 1.76167 
12767 2 1.90104 -5.27131 -0.0595098 
12768 1 4.12823 -4.98934 6.86489 
244 1 -1.13717 0.656775 1.57375 
245 2 -1.89312 0.785773 -2.7003 
3960 1 4.6646 -2.28422 -2.39128 
9511 1 0.284237 -3.53927 -2.37062 
9512 3 -0.198795 0.452843 -2.53175 
15178 1 7.01544 -0.0660841 2.74341 
15179 2 -3.52576 1.54298 -2.534 
1246 1 -2.47111 0.763614 2.01153 
11954 3 -0.113729 4.27565 -1.15067 
11953 1 -4.02777 0.842383 7.3254 
18694 1 -0.229542 -2.39432 2.56331 
18695 2 -2.12057 0.518974 1.4373 
18696 1 2.09532 -2.31686 -0.917864 
19218 1 0.875318 0.0186318 4.31812 
19217 2 -4.30201 -1.15256 -3.25618 
5793 1 3.4518 3.11256 -6.01067 
5792 3 -0.889216 6.19116 5.19097 
19900 1 -3.52732 0.501213 3.04347 
19901 2 3.1453 3.86119 -0.420409 
19902 1 -8.21996 -0.0542375 -0.623206 
4494 1 -2.67032 3.07226 -0.336955 
16021 1 -1.30848 -4.67786 4.90063 
16022 3 -1.24684 1.11541 -4.28802 
16023 1 3.64327 0.912138 0.124279 
5941 1 4.62584 -3.46633 1.60641 
10077 1 -1.96593 5.23619 5.66703 
10076 3 -0.913309 1.06705 0.649264 
10075 1 -4.11837 -1.14724 1.59078 
3058 1 -1.71985 2.08286 0.585148 
13489 1 2.30063 -2.78269 -4.39111 
13491 1 5.45647 1.02505 2.60239 
13490 3 -0.127993 -0.58198 1.18216 
10425 1 7.80516 2.94066 2.72562 
5942 3 2.10215 1.04181 -4.52958 
15928 1 0.795829 1.39273 5.10736 
15929 2 -0.461416 0.139521 4.35237 
20778 1 -0.185706 -2.53554 -3.31575 
15580 1 -1.82063 1.3838 -0.605592 
553 1 -6.62948 1.10332 1.18326 
17242 1 3.99098 4.48173 1.79825 
17403 1 -1.52512 -0.882127 2.57227 
17402 3 -1.28691 -0.160662 2.3164 
4493 2 1.89123 1.96007 3.38927 
4492 1 4.02852 -2.07837 -2.61806 
7801 1 2.27945 2.24291 -4.96571 
7802 3 -0.107923 -1.06633 2.51112 
5943 1 3.38351 -0.36711 2.48504 
15930 1 -4.35554 0.477632 1.92589 
20777 2 0.962862 2.75083 -1.00606 
20776 1 1.62326 -6.69635 1.85437 
15582 1 -3.4295 -4.78695 3.17772 
15581 3 -1.6014 -3.54752 3.49615 
10111 1 3.9632 1.10319 0.380365 
555 1 2.78285 0.0882079 -4.29336 
554 2 -1.87685 3.37573 -0.83026 
10112 2 4.56228 1.16819 -1.55552 
6775 1 -0.342955 1.9528 0.658032 
6776 2 -3.09502 2.28004 0.659965 
17401 1 -1.64097 -7.40504 -10.8875 
16427 2 3.47075 4.11476 -2.70385 
16426 1 5.13 -4.58892 -5.95559 
16428 1 1.72313 -2.76173 -1.71614 
16035 1 -4.10169 2.99886 1.94879 
16034 2 -1.023 -1.32086 -1.98205 
11515 1 4.52573 0.73631 -4.05993 
11516 2 0.331808 1.50543 -0.855647 
16033 1 3.7943 -4.44765 -1.59574 
7803 1 -1.46665 3.19936 -7.25194 
4880 3 -5.76552 3.00684 -1.32091 
4879 1 -2.71967 -3.23283 -2.36441 
19817 3 -0.196207 7.37433 1.16002 
19818 1 -1.35672 3.41964 1.5573 
19816 1 0.55637 4.5756 0.238741 
4881 1 1.0859 -1.15257 2.80017 
2513 3 -0.228007 0.470373 2.14518 
2512 1 5.87681 0.601365 1.80377 
2514 1 2.96095 3.34983 -4.90454 
20752 1 -2.14419 5.81596 -4.35974 
1140 1 -1.12738 -3.35893 -0.587264 
1139 2 -4.21782 1.48864 0.600677 
1138 1 -0.758449 0.85914 5.98238 
941 2 1.6693 1.46456 1.97781 
940 1 1.26208 -1.74964 -4.67376 
7205 2 -1.97408 -2.92066 1.5375 
7206 1 -4.30897 -5.79356 -3.60138 
5493 1 3.62971 -6.03166 0.24579 
7204 1 0.198756 0.214321 -3.94887 
6777 1 4.47026 3.01248 2.73744 
8326 1 -6.37907 -3.21633 -5.89954 
10330 1 -4.15314 3.5325 -5.24202 
10331 2 -0.457284 -2.03391 -2.43382 
10332 1 -1.02263 -0.0964377 -4.88032 
3846 1 -5.27523 1.78521 -0.755902 
3845 2 0.917922 2.51254 3.74709 
3844 1 -0.242174 -0.0778868 4.65314 
16972 1 -5.20276 6.49007 -5.49862 
16973 3 2.97076 1.59383 -4.91069 
16974 1 -4.19044 0.545603 -0.214197 
10255 1 -2.56884 -3.80404 2.04182 
17103 1 -2.97056 1.67425 3.28473 
4242 1 -0.51546 1.67225 -2.62984 
4241 3 1.87972 -1.65127 -0.791593 
4240 1 -4.29618 1.56231 -4.1392 
16362 1 -2.98943 4.81081 -8.32277 
20897 3 3.20283 2.78981 -2.25507 
20896 1 5.54737 -0.975393 -0.953753 
16361 3 0.848243 0.187444 -1.706 
5732 2 -1.03897 0.630832 0.62191 
5733 1 3.84542 -1.09486 -3.6293 
17323 1 -1.14594 -4.20122 0.450435 
4507 1 -4.17503 -1.02691 -0.592007 
4509 1 5.9865 -2.4856 -1.24278 
17903 3 -3.19221 1.62794 -2.16774 
11787 1 3.7128 -1.64918 -6.85133 
17904 1 1.40826 2.0181 -0.986516 
17902 1 1.98756 -1.00073 0.309808 
10525 1 2.6263 -4.20355 1.77184 
10256 3 0.706007 -0.942011 2.86738 
18934 1 0.626101 -0.212634 -1.34264 
10257 1 5.43297 0.534372 -2.06397 
18935 3 -3.03906 -2.34316 -0.123665 
20898 1 0.322649 -5.62135 7.02845 
6045 1 -6.32618 0.0780098 3.55343 
6043 1 2.12007 -3.79419 0.0628667 
6044 3 -0.215621 1.53298 -1.2876 
9639 1 -0.084222 0.573008 -1.85755 
9637 1 -2.54297 2.06341 5.31672 
9638 3 -0.432843 0.870347 -2.90956 
17324 3 -0.475432 -0.979881 -0.457367 
17325 1 0.627289 3.5633 -3.14217 
17236 1 -3.0437 3.72797 -4.39998 
2032 1 3.87149 3.17962 -2.52327 
2033 2 -0.286209 -1.11015 -0.121636 
17238 1 -0.892329 4.40167 6.04077 
17237 3 -2.4098 -1.91611 -2.77317 
11758 1 -2.85554 -1.38556 -0.817843 
11759 3 3.54627 -1.80993 1.29958 
11760 1 -6.08799 -0.671831 1.1921 
20578 1 -3.20995 2.85838 -0.149869 
20579 2 0.373119 -3.84648 2.52687 
20580 1 -3.83128 -0.736682 2.51929 
11785 1 1.32296 4.07776 5.42689 
11786 3 -1.27966 -1.92936 1.18153 
8214 1 -0.919798 2.59925 -3.47145 
8213 2 -4.28135 2.10267 -5.20826 
8212 1 -5.97585 2.7845 -4.05195 
7774 1 4.34135 -1.0129 -9.15975 
1155 1 -2.16556 -1.87366 3.25051 
7775 2 2.00206 -3.09133 0.526862 
7776 1 -1.17732 -1.22159 2.65769 
20267 3 -1.00661 1.77409 1.81233 
20266 1 -5.57682 3.47271 3.7696 
1587 1 8.40025 0.223027 5.08705 
1585 1 -9.20189 2.33212 -1.93169 
1586 3 3.6992 1.38395 0.0973569 
20268 1 -1.5993 5.01055 0.889895 
18234 1 4.52136 -4.20828 0.203347 
18233 2 3.89695 -1.47905 -1.82742 
2034 1 -2.7231 -1.89298 -2.28432 
18796 1 -4.13884 4.17584 3.36596 
18797 2 -2.58499 2.21784 -4.12822 
1044 1 -4.1509 1.02313 7.25401 
16846 1 5.79699 0.893564 -8.2902 
4252 1 0.0556593 -2.28711 -3.21603 
6231 1 -3.09174 3.43813 2.12098 
6230 2 4.17316 -1.50658 -0.393896 
2985 1 -6.16884 5.9658 -5.60278 
6229 1 -7.95138 4.9301 4.23763 
4253 2 -2.50685 6.15193 -5.2067 
2984 2 1.89815 -0.644337 1.41985 
2983 1 -4.52487 -4.14328 -4.75061 
20469 1 -1.99062 5.96246 -3.71067 
1533 1 -1.13736 2.80318 -1.803 
1532 2 -1.84456 4.60315 2.30031 
1531 1 -3.03404 -5.57164 -3.00064 
3181 1 1.32287 -0.262635 -2.25233 
1153 1 3.81775 0.483666 2.52837 
1154 3 -1.77194 1.18576 3.65004 
3182 2 -3.96401 4.21421 -1.08925 
3183 1 -1.93095 -0.878325 -3.95307 
7746 1 -4.58958 1.17984 5.5681 
10029 1 -0.556637 -2.75864 1.22621 
7015 1 -1.72724 -2.84585 4.02244 
10028 3 -2.40125 -0.895618 2.0249 
18707 2 -2.7532 -1.05173 -5.13332 
8894 2 4.24461 -1.76696 -0.275471 
8893 1 1.45052 -0.0742937 -3.32745 
18706 1 2.03276 8.7404 -2.50193 
18232 1 -5.00349 -0.308845 2.69453 
8895 1 3.79069 1.50945 1.25316 
4254 1 -3.57785 -7.09031 -6.75881 
16116 1 0.209646 2.93753 6.72569 
16115 2 -2.63485 -1.24149 0.336204 
16500 1 1.80834 -0.217522 -2.50965 
16498 1 1.34643 -0.32104 1.89117 
16499 2 0.624823 4.91528 0.43999 
7745 2 0.808163 -1.4762 -2.77802 
9634 1 -1.05269 1.58401 -5.71917 
7744 1 -4.68116 -0.549007 -2.0699 
10781 2 3.79983 -0.563 -7.3278 
10780 1 2.47966 -8.674 1.35029 
10782 1 -0.699645 -6.03741 -1.863 
18080 3 -0.0524517 -3.70209 3.45869 
18079 1 -0.753909 -4.49803 -0.236187 
16283 3 3.66348 -0.536084 2.9161 
15491 3 -1.16228 3.67422 -2.74646 
15490 1 -3.08537 3.87042 -1.96148 
12822 1 0.883769 -0.00735612 -6.81354 
12821 3 0.356332 -1.3856 2.36878 
12820 1 2.76267 -0.989144 -2.84863 
16282 1 3.60098 3.34686 5.79549 
8788 1 2.89342 6.09167 -0.278317 
8789 3 -2.08901 3.69948 -0.237739 
9575 3 -4.66022 3.91192 -0.340174 
9576 1 -3.87796 3.50537 1.97173 
5478 1 -4.05455 5.16839 -1.13807 
5476 1 -1.1134 -0.9606 -6.05926 
9574 1 -3.75808 2.77573 -0.305898 
17288 3 -2.89881 -3.19916 1.87721 
17287 1 -1.85384 5.26326 -4.33237 
18587 3 1.2079 -4.16562 -0.0892424 
4215 1 4.80498 7.22555 3.59191 
18586 1 -1.26175 -2.47506 3.98881 
4214 3 2.1048 3.51513 3.41307 
4213 1 1.49239 -9.86993 3.52566 
20922 1 -4.0241 3.04902 -1.54858 
18131 2 3.12348 -2.23359 0.365765 
18132 1 3.19344 -5.22323 -3.5056 
4591 1 2.28673 0.196564 0.801346 
18511 1 -1.76949 4.21723 -2.21736 
18512 2 -0.0271485 5.20973 3.92394 
18513 1 2.94422 2.503 -0.4654 
19826 3 0.185497 -1.23874 -3.55727 
19827 1 -3.47096 2.00206 -2.40731 
19825 1 -0.951762 -0.100299 -3.33443 
2139 1 4.87834 1.54184 0.796432 
2138 3 2.923 2.47987 -4.41151 