ITEM: TIMESTEP
20000000
ITEM: NUMBER OF ENTRIES
64
ITEM: BOX BOUNDS pp pp pp
0 50
0 50
0 50
ITEM: ENTRIES c_binfo[1] c_binfo[2] c_binfo[3] 
2 20812 20813 
2 20813 20814 
3 17024 17025 
3 17023 17024 
3 9551 9552 
3 9550 9551 
1 9550 15160 
3 8731 8732 
3 8732 8733 
1 7443 8733 
3 7442 7443 
3 15160 15161 
3 15161 15162 
3 7441 7442 
3 8248 8249 
3 4828 4829 
3 4829 4830 
3 13232 13233 
3 13231 13232 
1 13231 13404 
3 13402 13403 
3 13403 13404 
2 19813 19814 
3 4748 4749 
1 4749 21201 
2 19814 19815 
1 19815 20043 
3 4747 4748 
1 4747 15372 
1 13233 20041 
3 20041 20042 
3 20042 20043 
3 21200 21201 
3 1777 1778 
1 1683 13339 
3 13339 13340 
3 1778 1779 
3 13340 13341 
3 21199 21200 
3 1681 1682 
1 1681 17025 
3 1682 1683 
2 18106 18107 
2 18107 18108 
1 9552 18108 
3 9908 9909 
3 9907 9908 
3 8249 8250 
1 8250 9907 
2 5162 5163 
2 5161 5162 
3 5975 5976 
3 5974 5975 
1 1932 5161 
2 15371 15372 
2 15370 15371 
3 16393 16394 
3 16394 16395 
3 20008 20009 
3 20009 20010 
1 16395 20010 
3 1930 1931 
1 1930 13341 
3 1931 1932 
