ITEM: TIMESTEP
0
ITEM: NUMBER OF ATOMS
312
ITEM: BOX BOUNDS pp pp pp
0.0000000000000000e+00 5.0000000000000000e+01
0.0000000000000000e+00 5.0000000000000000e+01
0.0000000000000000e+00 5.0000000000000000e+01
ITEM: ATOMS id type 
19 1 
20 3 
21 1 
25 1 
26 2 
27 1 
481 1 
482 3 
483 1 
1210 1 
1211 3 
1212 1 
2461 1 
2462 3 
2463 1 
3499 1 
3500 3 
3501 1 
3682 1 
3683 3 
3684 1 
4444 1 
4445 3 
4446 1 
4525 1 
4526 3 
4527 1 
6016 1 
6017 3 
6018 1 
7033 1 
7034 3 
7035 1 
11242 1 
11243 3 
11244 1 
11428 1 
11429 3 
11430 1 
12541 1 
12542 3 
12543 1 
14362 1 
14363 3 
14364 1 
15607 1 
15608 3 
15609 1 
16459 1 
16460 3 
16461 1 
18688 1 
18689 3 
18690 1 
19828 1 
19829 3 
19830 1 
169 1 
170 3 
171 1 
391 1 
392 3 
393 1 
451 1 
452 3 
453 1 
1195 1 
1196 3 
1197 1 
1294 1 
1295 3 
1296 1 
1612 1 
1613 3 
1614 1 
2251 1 
2252 3 
2253 1 
2617 1 
2618 3 
2619 1 
3217 1 
3218 3 
3219 1 
3394 1 
3395 3 
3396 1 
4723 1 
4724 2 
4725 1 
4894 1 
4895 3 
4896 1 
5632 1 
5633 3 
5634 1 
5992 1 
5993 2 
5994 1 
6874 1 
6875 3 
6876 1 
6883 1 
6884 3 
6885 1 
6946 1 
6947 3 
6948 1 
12391 1 
12392 3 
12393 1 
14635 1 
14636 3 
14637 1 
15574 1 
15575 3 
15576 1 
16615 1 
16616 3 
16617 1 
16732 1 
16733 3 
16734 1 
17560 1 
17561 3 
17562 1 
17674 1 
17675 3 
17676 1 
17809 1 
17810 3 
17811 1 
18583 1 
18584 3 
18585 1 
18691 1 
18692 3 
18693 1 
19714 1 
19715 2 
19716 1 
19735 1 
19736 3 
19737 1 
19894 1 
19895 3 
19896 1 
20674 1 
20675 3 
20676 1 
20995 1 
20996 3 
20997 1 
982 1 
983 3 
984 1 
2641 1 
2642 3 
2643 1 
3907 1 
3908 3 
3909 1 
4147 1 
4148 3 
4149 1 
4921 1 
4922 3 
4923 1 
5002 1 
5003 3 
5004 1 
5056 1 
5057 3 
5058 1 
5248 1 
5249 3 
5250 1 
6196 1 
6197 3 
6198 1 
6493 1 
6494 3 
6495 1 
7501 1 
7502 3 
7503 1 
7681 1 
7682 3 
7683 1 
7693 1 
7694 3 
7695 1 
8527 1 
8528 3 
8529 1 
8845 1 
8846 3 
8847 1 
11056 1 
11057 3 
11058 1 
11827 1 
11828 3 
11829 1 
15007 1 
15008 3 
15009 1 
15910 1 
15911 3 
15912 1 
16036 1 
16037 3 
16038 1 
16762 1 
16763 3 
16764 1 
17065 1 
17066 3 
17067 1 
17176 1 
17177 3 
17178 1 
17245 1 
17246 3 
17247 1 
19048 1 
19049 3 
19050 1 
21541 1 
21542 3 
21543 1 
934 1 
935 3 
936 1 
1006 1 
1007 3 
1008 1 
1909 1 
1910 3 
1911 1 
2677 1 
2678 3 
2679 1 
2689 1 
2690 2 
2691 1 
2974 1 
2975 3 
2976 1 
3811 1 
3812 3 
3813 1 
3955 1 
3956 3 
3957 1 
4243 1 
4244 3 
4245 1 
6160 1 
6161 3 
6162 1 
6286 1 
6287 3 
6288 1 
7543 1 
7544 3 
7545 1 
7732 1 
7733 3 
7734 1 
8560 1 
8561 3 
8562 1 
9397 1 
9398 3 
9399 1 
10912 1 
10913 3 
10914 1 
11074 1 
11075 3 
11076 1 
11803 1 
11804 3 
11805 1 
12763 1 
12764 3 
12765 1 
12871 1 
12872 3 
12873 1 
12991 1 
12992 2 
12993 1 
13000 1 
13001 3 
13002 1 
13051 1 
13052 3 
13053 1 
13843 1 
13844 3 
13845 1 
14194 1 
14195 3 
14196 1 
14740 1 
14741 3 
14742 1 
18286 1 
18287 3 
18288 1 
