ITEM: TIMESTEP
20000000
ITEM: NUMBER OF ATOMS
705
ITEM: BOX BOUNDS pp pp pp
0.0000000000000000e+00 5.0000000000000000e+01
0.0000000000000000e+00 5.0000000000000000e+01
0.0000000000000000e+00 5.0000000000000000e+01
ITEM: ATOMS id type vx vy vz 
17382 1 5.49367 -8.22578 0.579776 
10060 1 -1.47107 2.67376 6.63285 
3212 2 -2.06741 2.10256 0.618247 
3213 1 0.424797 1.98028 -1.87789 
18786 1 2.47343 -0.442847 8.7222 
18785 2 -0.602073 -1.37436 -0.102586 
14798 2 1.7689 -2.06566 -2.23668 
14797 1 -1.0422 -3.4812 1.31326 
14799 1 4.2614 -3.61523 1.85079 
5055 1 2.3109 1.8319 -5.57839 
5053 1 -1.47127 1.65585 -2.50472 
5054 2 2.24821 0.225243 -2.35286 
17803 1 -5.8361 5.99317 3.9403 
10061 2 6.1737 -0.265512 4.73794 
2167 1 1.72252 0.171544 2.67418 
10595 2 -2.04407 -2.95432 1.7366 
10596 1 1.0534 2.49791 0.453625 
18784 1 -4.65307 -1.98702 0.208345 
10594 1 -0.218797 1.70326 0.852451 
10062 1 3.80888 -1.73848 -2.42061 
5235 1 -2.72114 1.18291 -2.02786 
5234 3 3.89061 4.55476 0.102337 
10237 1 -1.15407 -1.28245 4.52296 
3211 1 -1.29765 2.5342 -1.63559 
10239 1 0.918969 -4.32122 4.07312 
5233 1 -2.98361 -0.314278 0.92029 
10238 2 -0.579599 1.45617 -0.607803 
17415 1 3.17542 -0.779366 -4.13297 
17413 1 -0.66968 1.51112 5.2409 
17414 2 -1.1034 -0.693524 3.05439 
21580 1 -3.20585 -1.52724 -0.272688 
21581 2 2.94791 0.665798 -0.366557 
21582 1 -0.316741 -3.15897 -0.365543 
12554 2 1.24612 -0.305062 1.85295 
12555 1 -1.8968 2.26828 4.30175 
6541 1 0.723333 0.94497 -0.110528 
6183 1 8.05828 -2.15026 0.349379 
12553 1 0.102145 2.2189 0.650489 
6542 2 0.430694 4.83247 5.77688 
6543 1 -6.78483 -6.42954 1.15799 
1077 1 -1.08407 4.0202 0.771364 
17805 1 2.59992 -3.51566 3.37816 
6182 2 0.580406 6.53032 -2.43131 
17804 2 3.58568 -1.81304 -0.852536 
5131 1 3.15493 -0.0694369 -4.0512 
5132 2 2.35962 2.6082 -0.0855874 
6181 1 -1.44355 5.68996 -0.890741 
10984 1 3.29413 0.577612 2.80823 
10985 2 -1.46995 -1.38119 -2.88887 
5133 1 -5.47078 -2.14156 -0.112531 
9889 1 -3.51792 -2.15538 6.45735 
9891 1 5.47183 -3.73957 -8.78417 
9890 2 1.23354 1.57282 -2.7328 
8724 1 -7.2855 6.42438 4.07076 
9017 3 2.21806 3.49966 -0.693523 
9018 1 0.538511 2.27196 4.0096 
9016 1 -3.47535 -4.28939 -5.97763 
9307 1 4.66612 -1.1357 3.65701 
9308 3 -0.491159 3.5192 0.452482 
15708 1 -3.62482 -1.02795 3.26078 
9309 1 -2.27984 1.17538 -4.89315 
15706 1 1.2955 -0.181944 -0.429205 
15707 2 -5.655 -1.15738 -5.41514 
8722 1 0.467305 -3.90265 1.81687 
6579 1 -1.96005 0.767501 -0.232414 
6578 3 -0.0445221 3.45266 -0.890252 
6577 1 -0.285333 -3.72489 -6.7345 
4137 1 -7.93944 4.02601 -0.522518 
4136 2 1.16478 -1.30085 4.94599 
1076 2 0.123444 -0.0820155 -1.03665 
5882 2 -5.31996 0.442625 -1.54144 
5883 1 1.91751 -0.126549 2.32022 
1075 1 -5.29645 4.75254 3.73004 
8723 3 -0.475614 -1.86223 -0.465908 
18912 1 4.06196 -3.41193 2.40617 
16787 2 2.3954 1.46481 -1.95164 
10986 1 -0.985403 -2.77315 -2.2812 
16788 1 -4.09654 -4.54658 1.78115 
16786 1 -5.88335 -0.827732 3.67052 
13903 1 -0.329616 -2.94118 -0.100079 
5340 1 0.242306 -5.58462 0.0137226 
9745 1 -3.05161 1.79778 5.29149 
9746 2 -2.07255 -2.39698 -2.77078 
16756 1 4.26709 -1.6026 -2.02793 
9747 1 -1.75828 -0.760203 -3.1136 
594 1 2.96464 0.322584 -0.223675 
6810 1 4.02874 -2.76641 -4.90811 
6808 1 2.62928 -0.55571 -3.71638 
6809 3 1.95743 -0.0586389 0.164284 
18911 3 -3.65856 -1.37538 2.51384 
18910 1 1.39167 1.15763 -5.33562 
20688 1 2.75804 0.16374 -5.38981 
20686 1 2.79167 -1.0852 0.0761296 
20687 3 0.132825 -3.67541 2.29035 
7550 2 -1.37788 3.35874 -3.70321 
13905 1 -4.62301 4.53921 0.658867 
13904 2 2.67271 0.470122 1.45348 
3940 1 2.76011 -2.38538 -2.42717 
7551 1 0.875626 -2.81837 -2.11883 
3942 1 2.98382 -2.77157 -0.0468151 
6787 1 6.09346 -2.08847 2.78318 
6789 1 3.25711 -6.49514 0.105547 
6788 2 -1.39107 1.42909 1.7168 
593 2 -0.0121077 -2.01782 -0.52858 
3941 3 -0.310593 4.26112 -0.606653 
592 1 -1.69341 -0.0293722 -3.25515 
17315 2 0.611677 -0.552628 0.492456 
17314 1 3.35027 -0.768258 -4.0398 
16959 1 -0.196744 -6.07488 0.211908 
16958 2 1.69372 1.41632 -0.161417 
16957 1 -2.08829 4.32884 -2.06484 
19699 1 -1.64131 -6.27226 -3.01621 
19701 1 2.34678 3.63813 -2.27798 
19700 2 -4.24746 1.00432 -0.426874 
14429 2 3.31299 0.416151 2.08386 
15193 1 4.4528 -1.0776 1.13582 
10345 1 6.61283 1.02596 -3.65978 
14428 1 0.157539 -0.379555 -1.79051 
13715 2 -2.84984 0.462885 0.323062 
13716 1 -0.848926 1.63109 4.06258 
17113 1 2.45468 5.55073 -0.386898 
7945 1 6.13622 -3.62156 0.997124 
14601 1 4.2891 3.35449 0.900458 
14600 2 -5.243 1.15584 0.675823 
14599 1 7.23002 0.262124 -6.89201 
914 2 0.634972 -1.38726 6.06581 
913 1 -2.3141 0.00261011 -1.48969 
915 1 7.05321 3.47289 -1.7061 
21153 1 -3.89138 1.67195 -2.48728 
17381 2 0.532207 -1.70019 -1.19713 
17380 1 -2.03311 -4.24973 2.2609 
14430 1 1.76936 3.66285 0.309441 
18050 2 0.302197 -3.56561 -3.69575 
18051 1 1.58322 6.86653 -1.20116 
18049 1 3.74399 -4.14051 -0.143043 
324 1 -2.45095 5.75983 -2.2164 
323 2 0.673745 -0.946172 -1.13165 
15194 2 -1.26244 3.76757 -3.16576 
15195 1 -0.755495 0.243497 -0.424326 
14034 1 0.774255 -3.02717 -0.184722 
14033 2 -0.17345 -0.600285 -2.29086 
14032 1 1.16123 2.04381 4.49266 
5630 3 0.247545 -1.48751 -1.64766 
5631 1 -5.87318 -4.34802 -0.559585 
4319 2 -1.91296 -0.0252155 0.819158 
5629 1 2.21552 -4.67211 -0.0147141 
20871 1 3.68185 1.18092 -0.12247 
4320 1 5.15866 1.08054 -0.560394 
10048 1 -6.09872 0.800697 1.97802 
4318 1 0.536473 1.14906 7.15968 
10346 2 1.02691 0.211183 2.94383 
10347 1 0.789066 2.03789 5.73118 
21151 1 -0.0851038 -0.483905 7.61845 
21152 2 -3.09154 -0.23063 1.9208 
322 1 -1.1051 0.632094 2.9179 
6575 2 -0.687111 1.51675 1.62183 
13714 1 -4.20549 -2.13377 1.50009 
21401 2 1.30258 1.71995 -1.26664 
21400 1 1.32828 -3.14649 8.46836 
21402 1 -1.59738 3.40168 -2.49596 
5358 1 -2.00291 5.25622 -0.21973 
5357 2 3.57331 -2.96081 0.439597 
5356 1 -1.82327 -1.82162 -0.442771 
2914 1 -1.16022 -0.22947 -0.102582 
19108 1 5.81687 -3.9511 -2.61704 
19109 2 -0.0419773 -1.37398 -3.73962 
17114 2 -1.71767 -0.704699 2.08804 
17115 1 -2.45165 0.276422 3.24421 
16341 1 -0.261211 0.21056 1.41344 
16339 1 -4.45114 1.49944 -0.30748 
2916 1 3.19756 -7.74818 4.95529 
2915 2 -0.60926 -5.02864 0.706493 
7947 1 4.1978 -1.53986 4.99434 
9612 1 0.151735 1.00152 0.304132 
9611 2 1.60016 -0.670477 2.80347 
7946 2 -0.748679 1.23701 -1.78933 
9610 1 -2.46798 -2.64176 3.59604 
6576 1 2.06019 1.80218 1.18759 
2626 1 -0.962068 0.679777 -1.64847 
2627 2 -0.402615 -5.92807 -4.26865 
134 3 -1.0686 3.01531 0.837839 
133 1 -2.80862 -3.26878 -1.50676 
9969 1 -2.80155 6.45118 -7.0824 
9968 2 -5.04206 2.42805 0.685426 
9967 1 -0.387321 -0.181229 3.05356 
19386 1 -1.66992 -2.93948 -1.35245 
19485 1 2.22428 0.57518 1.2118 
19384 1 -2.48456 -0.575076 -3.20863 
4959 1 0.0438718 -1.09869 -7.92486 
19385 2 -1.37471 -0.867691 -2.27049 
4958 2 2.91677 1.15777 5.02454 
15150 1 1.45538 0.825557 3.25996 
4957 1 -5.36806 -1.37521 0.15751 
10050 1 -0.599936 1.04487 -6.70864 
14917 1 -1.93973 3.71759 -7.17655 
9900 1 -2.88503 1.93295 6.06157 
12295 1 -0.831313 9.88991 -1.39317 
3923 2 -0.468515 3.84241 -0.979958 
2929 1 7.0267 2.80614 -0.317336 
3922 1 -0.261858 -0.0336832 5.12041 
2930 2 -1.58444 -0.0745971 -2.45339 
12296 2 -1.9069 0.145909 3.61695 
3924 1 -0.721891 -1.0653 2.94856 
14918 2 0.0297657 -0.491957 -0.904764 
14919 1 -0.138078 -2.66045 -0.633002 
382 1 -0.298299 -2.53975 -0.071164 
13954 1 3.08185 3.80619 5.49241 
13586 2 3.09962 1.88587 -1.8866 
13955 2 1.31761 1.48874 0.654651 
13956 1 -5.41252 1.35545 1.95032 
13585 1 -1.19639 -2.77168 -5.55723 
383 2 0.485312 3.33293 0.485635 
18930 1 -4.30109 -2.69722 -1.18791 
13587 1 3.42411 -6.12671 -0.570187 
14896 1 2.48665 -5.45449 -4.91153 
14897 2 1.40228 3.92147 -3.66315 
14898 1 -0.0814526 0.632283 -0.901481 
19483 1 -0.137462 2.54603 -0.0781066 
19484 2 -2.00116 -0.0536413 0.907201 
13666 1 6.5416 -3.31283 2.48088 
3171 1 1.94465 -1.94558 6.77727 
2931 1 -6.06689 -2.27524 0.0501154 
10049 2 1.12788 3.13916 -1.00666 
20870 2 2.04301 2.41079 -2.54495 
18177 1 2.68463 -5.52227 1.34874 
20869 1 -7.12478 -0.379733 -2.9415 
18176 2 -0.956093 -1.59692 -0.959298 
1411 1 -0.742933 -3.70729 2.15338 
18175 1 -7.01883 -8.00001 2.57615 
5589 1 -2.61931 -0.127741 1.36003 
13707 1 -3.86116 0.446735 2.33469 
5588 2 -4.23471 -5.30784 1.4224 
5587 1 1.10159 4.00302 -4.74015 
10865 2 -0.488934 1.57167 0.794218 
10866 1 -1.02041 -1.32197 4.86779 
12297 1 4.11162 4.15063 -0.43888 
14491 1 0.638184 -0.0733235 6.63671 
384 1 -6.12431 -1.19529 -2.62405 
8679 1 -2.89727 1.55102 -4.36303 
10864 1 -3.37895 -0.764102 -2.91462 
14492 2 2.44797 3.59819 1.44413 
19110 1 -0.647589 -2.41013 -0.2415 
14493 1 4.25948 1.69942 -0.784804 
16806 1 1.297 -1.48301 -1.13446 
16805 2 -3.38373 0.37495 0.431138 
18018 1 0.0429427 2.34838 0.983807 
16804 1 4.72248 1.79382 -1.64858 
18017 2 -0.819377 -0.541523 0.269693 
16340 2 2.69667 4.3626 -0.20536 
18016 1 -0.879293 2.79554 6.79591 
17340 1 5.38369 -2.19303 -5.34532 
20928 1 -3.37813 -2.51592 -1.21238 
17338 1 -4.88688 -1.02385 2.92531 
17339 2 -0.255738 2.4252 -0.68434 
13668 1 -1.22106 5.4398 3.39992 
13667 2 -1.1667 -2.54865 -0.417444 
13705 1 3.61728 -1.65987 1.53835 
13706 2 1.29065 2.45597 6.26523 
17345 2 1.38146 0.998823 2.56941 
8473 1 5.90454 3.06889 -8.03068 
17344 1 10.9031 -2.48168 6.49625 
6574 1 -0.875608 -3.18933 1.2617 
2493 1 -1.948 -0.641227 3.54469 
17346 1 4.79638 -5.23417 1.45646 
20949 1 -2.63861 -3.15203 -0.798394 
20948 2 1.11605 1.61967 -1.66729 
2491 1 1.24979 1.85691 -3.36903 
2492 2 7.3722 -5.68843 -1.54505 
2628 1 -2.83801 5.65141 -4.56403 
20947 1 1.08846 3.6233 2.64824 
19185 1 3.02055 5.02475 2.83836 
5005 1 1.89861 -0.793432 3.79159 
5006 2 3.34133 2.44424 1.79507 
19184 2 -0.819518 1.31937 -0.402844 
3102 1 7.66728 8.43552 0.446421 
3100 1 5.10732 -1.22418 1.89089 
20926 1 3.17799 -0.958935 0.0958306 
3101 2 0.335482 -0.917585 1.63552 
20927 2 -0.906118 0.95238 -2.94813 
846 1 2.02264 -0.410055 5.65071 
19029 1 2.92906 -7.15944 -0.667237 
19028 2 -2.54209 3.43825 1.69726 
19077 1 -5.33263 7.5492 -3.46767 
19076 2 -2.01951 -4.17844 -0.441393 
19027 1 -4.17854 -2.11221 0.0605374 
19075 1 2.76834 0.465949 1.24451 
5007 1 -4.55745 1.62837 1.01723 
12509 2 -0.892666 -1.44237 5.34031 
12510 1 2.91042 3.2234 2.64327 
845 2 0.194358 1.91516 -1.14759 
844 1 4.52476 -3.13171 -0.792039 
11973 1 1.48325 -4.1774 1.01001 
10009 1 0.584884 -4.29631 -0.269593 
17823 1 0.758503 -0.40716 0.0262195 
16134 1 -3.12333 -1.15098 -2.53846 
16133 3 0.180503 0.362634 3.85633 
16132 1 2.57885 -4.5039 5.78831 
135 1 0.0195595 -2.80908 8.30776 
10010 2 1.48662 -0.948861 -3.35561 
21056 2 -3.82885 -0.836297 -1.42991 
21057 1 6.35773 -0.0188678 -0.772698 
12237 1 3.77025 1.93074 1.07016 
12236 2 1.79814 4.95185 1.03991 
12235 1 -1.95643 -1.67904 1.12501 
9411 1 4.51593 -5.49088 4.54835 
14614 1 -1.65996 -2.74661 0.600963 
14616 1 1.60291 -0.675055 -1.87214 
11668 1 -0.38727 1.93382 5.23908 
14615 2 -0.482798 0.489966 -2.41228 
3549 1 4.46045 -6.21863 -4.54073 
4135 1 -1.32201 7.66961 -0.947879 
7915 1 3.84938 -3.18675 0.967451 
11669 2 -4.58262 -2.50938 3.41536 
11670 1 0.711715 1.18926 7.05211 
8274 1 3.89267 4.94272 0.96876 
7916 2 4.24902 -1.52662 -0.313858 
15149 2 -0.05957 -0.174625 0.633951 
8273 2 -2.17979 1.4707 -3.99743 
15148 1 -1.84335 4.15654 -2.50393 
8648 2 0.646926 -0.382352 -4.17949 
9899 2 3.04365 -2.50744 2.26903 
9898 1 -7.8779 -2.87983 4.69246 
19790 2 -1.43504 -2.00892 2.03272 
20500 1 0.337377 -2.93131 -5.90398 
19791 1 -3.67971 5.39495 3.97746 
19789 1 -5.00173 -3.86564 -3.39891 
8563 1 1.77506 -1.86974 -4.53593 
20501 2 -1.80383 0.456236 -0.0487642 
2169 1 5.69913 -2.59035 1.6511 
3611 2 -0.210555 0.152935 -2.47514 
3612 1 -1.47365 1.00842 4.86305 
10705 1 2.19896 0.0670292 0.152881 
13126 1 -2.68647 3.67179 -3.18786 
10706 2 3.26388 1.99582 0.689039 
10707 1 2.12648 -0.0109318 -4.31324 
18792 1 -1.33875 -2.11162 4.5461 
2168 2 4.04919 0.781845 0.266179 
18928 1 1.0998 -2.13661 4.22001 
18929 2 3.62557 2.41196 4.40792 
13127 2 -0.0867983 2.692 -0.228886 
13128 1 -7.11978 1.28797 -4.86785 
8186 2 -1.03533 2.43757 -5.7097 
8187 1 0.338554 -1.48268 -1.78475 
9409 1 -2.1689 2.15039 -0.89372 
9410 2 -0.360728 4.11382 0.465132 
3170 2 -2.80033 0.20805 3.14943 
3547 1 -2.14901 -4.34241 -0.817264 
3169 1 -6.92521 -5.15933 3.7095 
3548 2 -2.93086 -0.118317 -2.06436 
8178 1 7.34434 2.39116 -2.21821 
8185 1 0.0940696 0.513788 1.65099 
12598 1 2.72156 -0.398569 -1.30932 
12599 2 1.24647 3.63511 -0.830904 
12600 1 -0.927506 1.40026 -0.912895 
1413 1 4.38367 -1.27416 -0.900832 
1412 2 1.97026 4.619 -0.0145179 
5362 1 2.11132 3.42737 -3.80856 
8272 1 2.30211 -3.3767 -2.6788 
5363 2 -1.45565 1.87199 -0.969532 
5364 1 -2.30988 7.17928 -0.856543 
8649 1 1.07471 -1.74303 -2.63337 
19362 1 -5.73131 0.358155 0.164019 
17616 1 -5.2947 -0.928269 -10.0052 
8678 2 -4.55432 -1.11575 -0.413851 
20502 1 -4.43254 -2.07938 -1.62134 
8677 1 0.454971 3.81955 -2.02557 
13584 1 0.0150873 2.6065 1.44372 
12961 1 4.57508 1.98104 -1.05781 
13583 2 6.01207 4.56859 -1.46324 
13582 1 3.13138 2.97548 0.138252 
13311 1 2.23519 1.60931 1.15621 
19360 1 4.2412 5.416 -4.43733 
19361 2 -4.66399 -0.497768 2.49514 
12962 2 0.506789 -4.54407 1.63226 
20677 1 -4.7511 5.72089 2.72156 
18791 2 0.952321 -0.550796 -1.27906 
20679 1 -5.96596 -2.80688 4.03927 
18790 1 -2.96163 0.198874 -5.76808 
20678 2 1.03647 -0.932457 0.914403 
14340 1 3.12053 -4.75488 -4.28383 
14669 2 2.55942 -0.0350526 2.62151 
14668 1 -2.18036 4.99881 2.37123 
14670 1 1.73973 -0.521259 -2.41739 
11708 2 -3.42831 1.04 0.348923 
11709 1 -0.986748 0.492518 0.1471 
4510 1 4.06677 -5.45522 5.44544 
4511 2 3.49369 0.104901 -2.40366 
8177 2 0.570573 0.46421 -1.19904 
8176 1 0.284299 -2.91046 2.20704 
14965 1 1.00094 2.7009 -0.772261 
3496 1 4.41716 -0.72447 4.94671 
8474 2 -0.469113 0.0952124 -4.13181 
17615 2 2.1595 1.02354 -0.837811 
17614 1 7.0125 4.24299 -3.36668 
2803 1 -0.142479 -0.636434 -1.14593 
2804 2 -2.1754 2.18765 -1.13213 
14967 1 -5.87496 -1.97739 -4.81939 
14966 2 2.39781 -3.52594 1.17845 
8475 1 -4.17394 4.90487 -0.711355 
3497 2 1.55618 -1.40027 -1.46955 
5571 1 2.22659 2.05687 4.83389 
2805 1 0.315946 0.600386 -0.0299204 
5623 1 -0.920808 -4.88111 2.08454 
5624 2 0.24691 3.88886 -2.00088 
12963 1 -1.66036 0.426629 0.0422534 
19183 1 -3.06971 4.39379 3.46759 
5570 2 -1.93162 -0.536578 -1.19902 
5569 1 2.54307 -2.2019 1.62728 
5614 1 3.12984 1.43933 2.26207 
5615 2 2.21006 -1.76051 1.0838 
5616 1 1.52338 -2.57628 1.09853 
7993 1 -0.986662 -3.64827 2.59235 
7994 2 0.0660129 -0.00980181 3.64714 
7995 1 4.73976 -0.867801 -1.02591 
16368 1 1.40145 0.342049 1.63857 
16367 2 0.1221 -4.02146 -0.284839 
1517 2 0.308221 5.31746 1.65418 
1518 1 -3.64487 4.07101 -2.32301 
16924 1 3.09544 -0.703442 5.91239 
11971 1 2.36411 2.84541 3.18515 
11707 1 -0.0893906 -6.17285 4.38489 
16926 1 -2.5744 -1.43997 5.04141 
16925 2 2.72898 -1.39082 -1.14039 
16366 1 9.05423 -1.07585 0.147315 
12844 1 -5.57461 4.6092 4.05671 
1516 1 1.33835 -7.4268 5.97654 
12845 2 3.46062 -4.99396 0.0440031 
10203 1 -2.16797 -1.6829 -1.54542 
11289 1 -0.440272 1.02419 -5.66099 
11288 2 1.40691 3.08523 1.21579 
11287 1 2.77861 -1.68104 2.48378 
21291 1 6.09263 -5.02323 -1.05136 
10202 2 -1.01141 0.212715 -3.40328 
10201 1 0.494393 6.70221 -3.12972 
12508 1 2.89033 -7.55816 2.96416 
1545 1 0.620141 0.3243 -1.59274 
5625 1 -2.76232 -0.975745 -3.54557 
1544 2 -1.71567 -0.530257 -0.726997 
1543 1 -0.860553 0.883696 -3.15909 
8145 1 -1.06127 8.14783 6.66442 
13672 1 6.41864 4.75132 2.9218 
13673 2 3.73549 5.06203 0.725233 
13674 1 3.78728 4.14447 -1.94813 
20655 1 -1.49945 -0.476363 2.9848 
20654 2 0.875273 -0.250102 2.84183 
8144 2 -2.49578 -2.14504 -0.418563 
8143 1 0.36419 4.1276 -1.14928 
12019 1 -3.07489 -3.72368 5.44457 
7555 1 1.66236 9.83769 2.82092 
11972 2 1.91327 -4.25682 2.151 
20653 1 2.19334 4.81561 -7.29442 
16699 1 -0.337066 -0.207158 -3.05362 
20529 1 2.55554 4.17294 -1.38953 
16700 2 -1.30463 -0.448546 4.62596 
20528 2 -0.221178 -2.69335 -5.27981 
17822 2 2.06363 -0.977998 -2.67354 
18295 1 -0.407205 -0.469913 -2.66903 
18296 2 0.207951 -3.87081 -1.80577 
13713 1 -0.018059 -4.48872 -0.282683 
18297 1 -1.38946 -1.39698 -3.83105 
17821 1 -2.80175 -0.314576 0.019568 
13712 2 -1.13874 -0.646496 1.52574 
190 1 -2.13372 -1.76814 -0.142234 
192 1 -1.67027 3.317 3.70604 
191 2 -3.17184 -1.26831 1.55304 
18870 1 -2.14013 0.62586 10.2384 
18868 1 -1.31791 -3.19721 0.269014 
18869 2 1.24615 3.98629 -0.0192062 
17161 1 -6.14804 6.71645 2.13451 
10011 1 -9.13314 -2.9024 0.439771 
16701 1 -0.689783 2.57815 2.8798 
569 3 -4.04068 -1.12877 -1.66569 
568 1 5.42636 5.93002 0.931194 
21055 1 -2.31662 -1.09751 -0.697279 
570 1 -1.20821 4.87143 -4.63152 
17163 1 1.7882 2.40082 1.7314 
17162 3 0.132022 -3.86116 -1.29581 
7917 1 -2.7291 -4.52945 -3.48916 
5881 1 0.547659 -2.61207 -5.41731 
8647 1 -6.67879 -3.08238 0.113796 
8850 1 -0.547205 -3.83146 -0.85261 
4066 1 4.44531 -4.7098 3.16837 
4067 2 1.05465 -2.73239 -0.370292 
4068 1 -0.345275 -11.1704 3.5448 
8849 2 1.11834 5.96735 0.101812 
8564 2 -0.190748 3.42955 0.50511 
8848 1 5.99615 -4.0552 -10.7618 
8565 1 0.529861 -3.88322 4.23271 
20317 1 -4.57753 3.31563 5.04721 
16757 2 2.72194 -1.55683 -0.514263 
15493 1 2.32117 -0.987205 -6.23608 
16758 1 5.89247 -1.17623 1.47713 
3610 1 9.26679 2.88596 -0.842714 
5339 2 -0.914727 -1.51693 3.53237 
861 1 -0.0600013 -1.7198 4.99736 
5338 1 -4.29452 -4.09323 2.25216 
860 2 -0.984479 0.261564 -1.69343 
21444 1 2.76801 -1.98953 3.71437 
21443 2 -1.70645 2.80775 2.17855 
15494 2 -1.65781 3.05274 -1.35593 
15495 1 -2.34374 3.78935 2.22877 
859 1 2.46005 -0.372928 -0.716451 
12397 1 -3.09498 0.448535 0.406303 
20098 1 0.628019 -4.12536 -0.27185 
17038 1 0.550194 -1.03076 -0.97035 
5151 1 1.41357 3.33 -2.00819 
17040 1 -1.21257 4.52671 -4.9136 
5150 2 1.45889 1.20353 0.714075 
17039 2 -2.11477 -1.09009 1.11296 
4603 1 -2.11518 -4.36961 -0.611296 
5149 1 2.0284 -1.31202 1.57489 
21043 1 4.09721 -4.02398 1.85378 
20318 2 -0.234663 -2.6569 1.84958 
13310 2 4.16368 3.93233 -0.469218 
13309 1 -6.66606 2.28152 -2.43424 
20319 1 2.91338 -1.8972 3.00645 
4605 1 0.47779 -6.09498 0.091934 
4604 2 0.627356 0.990121 1.63173 
21539 2 3.80466 6.05425 -1.97901 
21540 1 -2.11969 5.40793 -9.87434 
13348 1 1.56694 -3.61636 2.86637 
14338 1 5.09044 3.42593 -2.58915 
7174 1 -2.40134 -1.89217 0.264041 
14339 2 -1.64247 -1.69703 -2.65589 
21442 1 2.57158 -8.32219 1.69835 
7175 2 -4.87745 -2.06102 0.957507 
7176 1 -0.368235 0.946748 -2.05888 
16369 1 -0.35073 -1.58512 -2.75714 
16370 2 -2.92628 -2.39581 -4.79661 
16371 1 5.2335 -3.76615 -0.44368 
2997 1 0.446475 -1.76985 1.04554 
4512 1 4.73881 11.8605 -4.00994 
954 1 3.57781 -3.36626 -9.02226 
20880 1 -2.89704 3.26085 0.411322 
20879 2 -2.9896 0.378354 1.66783 
11466 1 -4.12307 4.3774 -0.0148138 
21045 1 0.290622 -3.67256 4.35065 
2258 2 4.88512 -1.66589 -1.88287 
2259 1 -1.66838 -3.56104 -0.460149 
3178 1 3.4935 -3.26211 -1.88114 
3498 1 -3.08705 0.950718 -3.00809 
3179 2 -1.59647 -4.11714 -2.21384 
2257 1 4.64913 -4.69228 -1.59098 
21044 2 1.31305 -2.75939 -0.781239 
7250 2 5.8583 4.7778 0.859637 
13349 2 -2.35905 -2.34734 -4.14658 
20570 2 2.51758 -0.786375 2.36055 
20571 1 3.42211 6.88953 -2.59836 
6274 1 -6.19505 1.45596 1.63285 
13350 1 1.60389 -7.39478 -2.22767 
7251 1 -4.72692 6.22675 -4.50684 
6276 1 4.84041 -3.3485 -2.20155 
6275 2 3.57875 0.0198183 -1.16892 
20569 1 -6.8755 -0.758364 -1.44426 
12020 2 -1.2772 1.36168 -1.37834 
12021 1 5.82055 0.329777 -1.25797 
19180 1 3.09388 -1.97386 3.04384 
12241 1 -1.48052 -2.24981 8.56889 
12242 2 1.85885 2.28202 -4.50658 
12243 1 4.45084 1.33076 2.22024 
2996 2 -0.356232 -1.47239 -1.41952 
2995 1 -1.20856 2.35785 -3.44701 
19181 2 0.208379 0.248998 -1.49513 
11092 1 3.9885 5.25574 -3.82696 
11093 2 -0.190056 1.17004 -1.955 
4549 1 5.43862 6.04827 -0.749266 
11094 1 4.42247 0.91452 -3.20295 
12846 1 -2.09385 -1.598 -7.6394 
953 2 1.8377 0.837795 4.18898 
952 1 -2.45325 0.820078 -0.659017 
19182 1 -1.92282 2.94288 1.27981 
21289 1 0.034739 -0.424416 0.674504 
21290 2 0.340168 -0.726557 -0.412927 
3180 1 1.17244 -5.70308 -4.49888 
8122 1 0.87622 -2.40443 -1.42889 
8123 2 -2.96754 0.17573 1.26401 
8124 1 -2.41849 -1.09664 -1.4286 
15877 1 5.16277 1.68561 3.07942 
15878 3 -0.246383 3.62124 2.19105 
15879 1 -2.78904 3.87526 -4.17492 
7556 2 1.2631 1.60054 0.43699 
7557 1 4.92929 -0.394053 -5.75483 
1288 1 0.586528 -3.15828 -4.70884 
7362 1 0.153861 8.08184 0.437737 
1290 1 -7.03358 -6.87664 0.0326881 
1289 2 -3.3514 -0.0309621 -1.39887 
20527 1 0.781633 -0.571138 -1.80538 
13120 1 -4.53289 0.907525 -2.98961 
13121 2 2.48935 -3.87399 1.36461 
13122 1 -0.299676 -2.39037 -5.17118 
13711 1 -2.1322 -3.68739 1.18025 
3157 1 -0.177123 -4.25268 2.75488 
16878 1 -2.74932 1.59511 -1.64206 
16877 2 1.55913 -2.55477 -1.92515 
16876 1 4.35619 -7.7489 2.85303 
17231 2 0.728881 -0.0540683 0.589772 
17230 1 5.42451 -2.54545 -0.395849 
17232 1 -3.0029 0.238507 2.2916 
12165 1 0.517779 1.11002 -5.25955 
12164 2 0.75553 -0.250641 2.19241 
7549 1 1.57265 -5.11566 -0.559813 
753 1 -4.24887 -1.01369 2.87515 
1279 1 -2.74212 -1.91533 -1.01354 
17739 1 -1.36969 -2.10284 6.78919 
19523 2 -3.51215 3.26795 5.93186 
19522 1 -2.32872 -1.69566 0.528264 
1281 1 -1.58216 -2.34282 1.25961 
1280 2 1.24264 -2.11512 0.552747 
751 1 5.23246 4.23744 -0.223896 
225 1 1.52344 -0.340153 -1.37161 
224 2 -0.456794 -0.473696 1.51422 
223 1 4.52912 0.913468 -0.261674 
752 2 5.47428 3.55183 0.51393 
3001 1 -4.34973 2.43141 2.92122 
12399 1 3.28069 5.22019 2.64389 
11859 1 -5.06345 0.309606 -0.764712 
12398 2 -2.7754 -2.57453 -3.74979 
17316 1 -1.3397 2.34002 -4.12672 
3164 2 3.34272 -2.09539 0.756932 
11857 1 -0.650297 0.376209 -5.16612 
3685 1 -1.48536 2.85216 0.873232 
11858 2 -2.25549 0.908511 2.00335 
20099 2 -2.16104 -2.71661 -2.56695 
20100 1 -1.57148 -1.00017 3.70996 
20878 1 -1.13948 1.59444 4.70628 
12381 1 4.04629 4.16947 -3.26594 
12380 2 -1.12863 2.31226 -0.797087 
3002 2 2.32456 3.17345 0.186638 
21538 1 -0.014277 -3.36153 -0.269926 
17737 1 -2.92614 0.638085 4.05991 
19524 1 -1.09548 -5.02365 0.0911659 
17738 2 1.87855 0.220024 -1.63824 
12379 1 2.0766 1.47801 -0.993663 
11518 1 -0.606153 0.440194 2.40262 
11519 2 0.631202 2.70937 3.95051 
11520 1 -0.975572 3.88039 -0.0738501 
3003 1 1.51205 -0.366637 1.74325 
11951 2 -0.846364 1.29223 3.63129 
11952 1 1.2953 1.1024 -1.42869 
136 1 -1.61024 2.29725 -2.75179 
137 2 1.39367 -2.46837 -2.52659 
138 1 -3.94311 -4.93626 4.05109 
11950 1 -4.65807 -5.56069 -0.178715 
3738 1 -2.93241 1.79828 1.06577 
3737 2 -0.970077 0.882142 1.58075 
11464 1 -3.9512 -4.28157 3.63985 
11465 2 -0.37701 2.10422 -5.24572 
13228 1 -3.28862 1.74948 -3.57213 
7249 1 -0.286089 1.09072 -1.44464 
13230 1 -4.81 -1.70674 4.30883 
13229 2 -2.01805 0.489937 2.05424 
9700 1 -0.825114 -1.16418 -2.4908 
14042 2 2.60304 -1.40384 2.08385 
4550 2 1.55501 0.85711 3.83676 
4551 1 -1.24018 0.0571965 -6.72388 
12458 2 -0.674871 2.84293 -2.74265 
12459 1 -3.87356 9.94192 -0.664434 
3736 1 -7.0068 6.33834 -1.65657 
12457 1 2.1505 0.222098 -4.5126 
14041 1 -1.32143 -6.16118 3.22733 
14043 1 2.9026 1.87414 -4.24226 
7361 2 4.36007 3.93285 1.99537 
7360 1 4.17875 2.74632 1.75102 
13924 1 -3.60414 -5.59921 1.14817 
13925 3 0.208806 0.573711 3.77572 
3159 1 -5.03042 -2.85021 -11.1206 
13926 1 -0.196445 -1.87411 -2.00464 
3158 2 -2.80391 -3.30544 -0.680797 
19946 3 1.92872 -2.63413 3.89517 
12163 1 -2.84958 1.22061 5.06529 
2749 1 0.555807 4.0646 3.12469 
2750 3 -3.48075 1.39627 0.465206 
2751 1 1.48971 -5.1052 6.50123 
19947 1 2.0003 0.789518 -0.51885 
19945 1 1.31432 1.92536 1.94038 
12412 1 4.14728 -2.37488 2.17486 
13447 1 5.48051 -3.9694 -2.98099 
7355 2 -0.238376 3.14083 -2.31844 
7354 1 -1.00306 0.0296143 0.10929 
8141 3 -1.51275 0.354717 0.679462 
7356 1 -4.59254 1.51371 0.43866 
8140 1 -1.11245 1.0921 0.864992 
8142 1 -2.11288 2.52737 3.64546 
12323 2 3.76188 -1.57295 3.27191 
3165 1 -3.07965 2.37363 4.60621 
12322 1 -2.35852 -8.5768 2.17528 
3687 1 -3.53653 3.36978 -0.767443 
3686 3 0.78306 -2.78703 -1.18477 
3163 1 -5.76484 -3.87715 -6.39136 
13448 2 2.33412 -0.272401 2.34644 
13449 1 -2.96506 2.56051 -5.73489 
11682 1 6.62087 -4.5234 -3.61809 
11681 2 2.20521 0.388736 -0.319404 
11680 1 1.60419 1.14278 0.00312974 
14100 1 0.354703 -1.86216 3.2349 
6573 1 -2.07454 5.53631 2.22195 
12324 1 -2.89173 2.33948 -4.03009 
6572 3 1.21763 -1.39607 4.25386 
14098 1 -2.96848 -6.18631 -1.40098 
14099 3 5.36003 -1.60277 0.638399 
9702 1 3.06614 -0.238001 6.22104 
9701 2 -2.29516 2.99438 -0.110086 
12414 1 1.58786 -1.98499 -0.568083 
12413 3 -3.20099 0.0935415 3.04499 
6571 1 1.751 2.35018 0.767699 
