ITEM: TIMESTEP
0
ITEM: NUMBER OF ATOMS
516
ITEM: BOX BOUNDS pp pp pp
0.0000000000000000e+00 5.0000000000000000e+01
0.0000000000000000e+00 5.0000000000000000e+01
0.0000000000000000e+00 5.0000000000000000e+01
ITEM: ATOMS id type 
13 1 
14 2 
15 1 
28 1 
29 2 
30 1 
370 1 
371 2 
372 1 
1348 1 
1349 2 
1350 1 
1504 1 
1505 2 
1506 1 
2236 1 
2237 2 
2238 1 
2284 1 
2285 2 
2286 1 
2422 1 
2423 3 
2424 1 
2485 1 
2486 2 
2487 1 
3445 1 
3446 2 
3447 1 
3490 1 
3491 2 
3492 1 
4768 1 
4769 2 
4770 1 
6802 1 
6803 2 
6804 1 
6904 1 
6905 2 
6906 1 
7048 1 
7049 2 
7050 1 
7096 1 
7097 2 
7098 1 
7939 1 
7940 2 
7941 1 
8284 1 
8285 2 
8286 1 
8296 1 
8297 2 
8298 1 
9136 1 
9137 2 
9138 1 
9193 1 
9194 2 
9195 1 
9199 1 
9200 2 
9201 1 
9241 1 
9242 2 
9243 1 
9250 1 
9251 2 
9252 1 
10447 1 
10448 2 
10449 1 
11245 1 
11246 2 
11247 1 
12208 1 
12209 2 
12210 1 
12250 1 
12251 3 
12252 1 
12319 1 
12320 2 
12321 1 
12619 1 
12620 2 
12621 1 
13273 1 
13274 2 
13275 1 
15553 1 
15554 2 
15555 1 
17350 1 
17351 2 
17352 1 
17536 1 
17537 2 
17538 1 
17599 1 
17600 2 
17601 1 
17662 1 
17663 2 
17664 1 
18439 1 
18440 2 
18441 1 
19810 1 
19811 2 
19812 1 
19864 1 
19865 2 
19866 1 
20764 1 
20765 2 
20766 1 
20941 1 
20942 2 
20943 1 
20962 1 
20963 2 
20964 1 
409 1 
410 2 
411 1 
460 1 
461 2 
462 1 
1174 1 
1175 2 
1176 1 
1315 1 
1316 2 
1317 1 
1366 1 
1367 2 
1368 1 
1618 1 
1619 2 
1620 1 
2446 1 
2447 2 
2448 1 
2614 1 
2615 2 
2616 1 
2635 1 
2636 2 
2637 1 
3295 1 
3296 2 
3297 1 
3514 1 
3515 2 
3516 1 
4486 1 
4487 2 
4488 1 
4774 1 
4775 2 
4776 1 
5806 1 
5807 2 
5808 1 
5815 1 
5816 2 
5817 1 
5869 1 
5870 2 
5871 1 
5938 1 
5939 2 
5940 1 
6715 1 
6716 2 
6717 1 
6751 1 
6752 2 
6753 1 
6835 1 
6836 2 
6837 1 
7834 1 
7835 3 
7836 1 
8020 1 
8021 2 
8022 1 
9052 1 
9053 2 
9054 1 
10303 1 
10304 2 
10305 1 
10375 1 
10376 2 
10377 1 
10531 1 
10532 2 
10533 1 
11254 1 
11255 2 
11256 1 
11512 1 
11513 3 
11514 1 
13294 1 
13295 2 
13296 1 
13477 1 
13478 2 
13479 1 
14557 1 
14558 2 
14559 1 
14623 1 
14624 2 
14625 1 
15346 1 
15347 2 
15348 1 
15640 1 
15641 2 
15642 1 
15649 1 
15650 2 
15651 1 
18394 1 
18395 3 
18396 1 
18778 1 
18779 2 
18780 1 
19609 1 
19610 2 
19611 1 
19615 1 
19616 2 
19617 1 
19666 1 
19667 3 
19668 1 
20809 1 
20810 2 
20811 1 
20854 1 
20855 3 
20856 1 
21034 1 
21035 2 
21036 1 
601 1 
602 2 
603 1 
730 1 
731 3 
732 1 
1699 1 
1700 2 
1701 1 
1753 1 
1754 2 
1755 1 
1888 1 
1889 2 
1890 1 
2041 1 
2042 2 
2043 1 
2761 1 
2762 2 
2763 1 
2770 1 
2771 2 
2772 1 
3010 1 
3011 3 
3012 1 
3790 1 
3791 2 
3792 1 
3859 1 
3860 2 
3861 1 
4093 1 
4094 2 
4095 1 
4201 1 
4202 2 
4203 1 
4939 1 
4940 2 
4941 1 
6184 1 
6185 2 
6186 1 
6319 1 
6320 2 
6321 1 
6448 1 
6449 3 
6450 1 
6619 1 
6620 2 
6621 1 
7333 1 
7334 2 
7335 1 
7513 1 
7514 2 
7515 1 
7516 1 
7517 2 
7518 1 
8416 1 
8417 2 
8418 1 
8425 1 
8426 2 
8427 1 
8461 1 
8462 2 
8463 1 
8716 1 
8717 2 
8718 1 
9739 1 
9740 3 
9741 1 
12733 1 
12734 2 
12735 1 
12781 1 
12782 3 
12783 1 
12916 1 
12917 2 
12918 1 
12919 1 
12920 2 
12921 1 
14056 1 
14057 2 
14058 1 
14062 1 
14063 2 
14064 1 
14122 1 
14123 2 
14124 1 
15784 1 
15785 2 
15786 1 
15868 1 
15869 2 
15870 1 
16744 1 
16745 2 
16746 1 
17953 1 
17954 2 
17955 1 
18190 1 
18191 2 
18192 1 
19336 1 
19337 2 
19338 1 
19399 1 
19400 2 
19401 1 
19996 1 
19997 2 
19998 1 
20482 1 
20483 2 
20484 1 
21136 1 
21137 3 
21138 1 
21310 1 
21311 2 
21312 1 
595 1 
596 2 
597 1 
649 1 
650 3 
651 1 
946 1 
947 2 
948 1 
1117 1 
1118 2 
1119 1 
1720 1 
1721 2 
1722 1 
1915 1 
1916 2 
1917 1 
2074 1 
2075 2 
2076 1 
2209 1 
2210 2 
2211 1 
2938 1 
2939 2 
2940 1 
3106 1 
3107 2 
3108 1 
3832 1 
3833 2 
3834 1 
4018 1 
4019 2 
4020 1 
4120 1 
4121 2 
4122 1 
4126 1 
4127 2 
4128 1 
6106 1 
6107 2 
6108 1 
6403 1 
6404 2 
6405 1 
6631 1 
6632 2 
6633 1 
9880 1 
9881 2 
9882 1 
10738 1 
10739 3 
10740 1 
11080 1 
11081 2 
11082 1 
11086 1 
11087 2 
11088 1 
11734 1 
11735 3 
11736 1 
11794 1 
11795 2 
11796 1 
12040 1 
12041 2 
12042 1 
13012 1 
13013 2 
13014 1 
13663 1 
13664 2 
13665 1 
13798 1 
13799 2 
13800 1 
13852 1 
13853 2 
13854 1 
14026 1 
14027 2 
14028 1 
14911 1 
14912 2 
14913 1 
14938 1 
14939 2 
14940 1 
16978 1 
16979 2 
16980 1 
17089 1 
17090 2 
17091 1 
17149 1 
17150 2 
17151 1 
17158 1 
17159 2 
17160 1 
17275 1 
17276 2 
17277 1 
17866 1 
17867 2 
17868 1 
18118 1 
18119 2 
18120 1 
19117 1 
19118 3 
19119 1 
19975 1 
19976 3 
19977 1 
20131 1 
20132 2 
20133 1 
20194 1 
20195 2 
20196 1 
21271 1 
21272 2 
21273 1 
