ITEM: TIMESTEP
20000000
ITEM: NUMBER OF ATOMS
17820
ITEM: BOX BOUNDS pp pp pp
0.0000000000000000e+00 5.0000000000000000e+01
0.0000000000000000e+00 5.0000000000000000e+01
0.0000000000000000e+00 5.0000000000000000e+01
ITEM: ATOMS id type xs ys zs
14928 1 0.972975 0.0256317 0.0155598
14926 1 0.98371 0.0231737 0.0231453
14927 2 0.980646 0.0277249 0.0174892
15518 2 0.415667 0.0495286 0.0235065
15519 1 0.408717 0.0485872 0.0263299
15517 1 0.423507 0.0478197 0.0224532
10818 1 0.509705 0.0324425 0.0168911
10817 2 0.511657 0.0339284 0.0243967
13623 1 0.817495 0.0564258 0.0298877
13622 2 0.825853 0.0545568 0.0291514
4862 3 0.0223379 0.0856535 0.0144373
4861 1 0.0260048 0.0802498 0.0184251
7440 1 0.0200708 0.0936561 0.00794059
4863 1 0.0206523 0.0916317 0.00943562
14766 1 0.0791372 0.0893292 0.026215
4956 1 0.390934 0.0790312 0.00415455
4955 3 0.399273 0.082126 0.00487923
4954 1 0.404233 0.0880878 0.00786535
4247 2 0.657024 0.0924991 0.0210844
11605 1 0.661146 0.0889672 0.011695
4246 1 0.660218 0.0899094 0.0136572
11606 2 0.666123 0.0859881 0.00481801
13907 2 0.919994 0.0814027 0.0225537
13908 1 0.924646 0.0782271 0.0183483
13906 1 0.91458 0.078277 0.0277957
7439 2 0.0201515 0.0982709 0.00210738
14765 2 0.075934 0.0950556 0.0232511
14764 1 0.0779036 0.101512 0.0185313
4143 1 0.380946 0.111204 0.0114055
4142 3 0.381199 0.114571 0.00313158
4248 1 0.657525 0.0973122 0.0269693
12739 1 0.0653662 0.136167 0.00643834
1771 1 0.0846572 0.152885 0.0264462
12740 3 0.0652343 0.141081 0.000174738
15852 1 0.328566 0.139109 0.0085264
3286 1 0.330231 0.14011 0.00813809
15851 3 0.320787 0.136436 0.0109678
15850 1 0.313707 0.134167 0.011316
3287 3 0.335091 0.144176 0.0052067
3288 1 0.341308 0.144066 0.000895457
4594 1 0.510103 0.140404 0.00744922
8037 1 0.662749 0.155623 0.0131605
2864 2 0.683118 0.139882 0.023561
2865 1 0.675748 0.144393 0.0213955
8035 1 0.673164 0.146019 0.0205826
8036 2 0.666945 0.151649 0.0187758
2863 1 0.69066 0.137471 0.0208751
15624 1 0.693809 0.136462 0.0198568
15623 3 0.701946 0.134197 0.0180189
15622 1 0.709091 0.129367 0.0192286
4945 1 0.840994 0.156154 0.0048638
7989 1 0.0897721 0.167544 0.0022008
1191 1 0.450754 0.184895 0.00365631
3699 1 0.448829 0.183046 0.00199184
17006 3 0.532936 0.181081 0.00769177
14841 1 0.538571 0.186492 0.0176334
17007 1 0.537379 0.18467 0.0151706
17005 1 0.527825 0.17556 0.00500697
15788 2 0.715047 0.173885 0.0297331
15789 1 0.716839 0.181358 0.0252372
4946 3 0.836898 0.157766 0.0126779
4947 1 0.835632 0.16373 0.0181389
7113 1 0.259194 0.202445 0.018909
977 2 0.251207 0.210424 0.0173886
976 1 0.256895 0.204571 0.019172
978 1 0.245481 0.211219 0.0119728
7112 2 0.265454 0.198533 0.0184596
13168 1 0.27661 0.196063 0.0155419
13170 1 0.286407 0.19515 0.00560985
13169 2 0.283646 0.19551 0.0127415
7111 1 0.273629 0.196847 0.0162974
21587 3 0.330328 0.214503 0.013436
8015 3 0.356272 0.21304 0.0147565
8014 1 0.361618 0.208131 0.0186199
21588 1 0.336317 0.211177 0.017107
1190 3 0.455609 0.188546 0.00949425
1189 1 0.45666 0.192195 0.0164763
14840 2 0.542878 0.189443 0.0235701
14839 1 0.543629 0.197501 0.0241549
2671 1 0.842497 0.209163 0.00222205
2839 1 0.827634 0.206303 0.013148
2841 1 0.839645 0.208439 0.0033088
2840 2 0.832127 0.207321 0.00614452
10430 3 0.872794 0.209538 0.0071699
16467 1 0.865543 0.211815 0.0156692
10429 1 0.867941 0.210782 0.0130143
16465 1 0.855679 0.208767 0.0255607
16466 3 0.860557 0.213325 0.0214485
2672 3 0.850726 0.211115 0.000377468
10431 1 0.877264 0.205881 0.0011754
14586 1 0.253847 0.237504 0.0247149
14585 2 0.259759 0.232386 0.0239931
14584 1 0.266935 0.226736 0.024281
21586 1 0.326144 0.221068 0.0100443
7487 3 0.344679 0.226173 0.0209239
7486 1 0.344638 0.232494 0.0257868
7488 1 0.349304 0.221175 0.018024
8016 1 0.351055 0.219101 0.0171092
13652 2 0.397168 0.247822 0.0200072
13653 1 0.405703 0.248511 0.0173436
14745 1 0.781278 0.2289 0.0292745
14744 3 0.77762 0.230285 0.0214841
14743 1 0.771794 0.232778 0.0181705
13651 1 0.392236 0.250108 0.0258985
16333 1 0.460517 0.271144 0.0115445
16334 3 0.459873 0.270676 0.00426156
16335 1 0.467036 0.272264 0.000832134
4967 2 0.670388 0.280728 0.00643126
5405 2 0.699242 0.267867 0.00566672
5404 1 0.705987 0.269828 0.00943419
20420 3 0.0479272 0.291819 0.0212445
20421 1 0.0460813 0.299487 0.0215683
20419 1 0.0504886 0.283377 0.019586
21419 3 0.144296 0.297014 0.00458184
21420 1 0.139919 0.297251 0.0118688
12592 1 0.13862 0.297159 0.0150691
12593 3 0.135244 0.298639 0.0218151
16179 1 0.128568 0.298086 0.0308622
12594 1 0.130197 0.298052 0.0283492
21418 1 0.150034 0.300742 0.0018799
11610 1 0.174433 0.30261 0.00803408
11608 1 0.165344 0.294485 0.0181468
7303 1 0.175036 0.30389 0.00568972
11609 3 0.171473 0.298396 0.0145791
7344 1 0.192186 0.286492 0.0145792
7343 3 0.194824 0.293438 0.012885
7342 1 0.195242 0.293475 0.0214705
17526 1 0.269954 0.306057 0.00598945
17525 2 0.269953 0.312085 0.0110347
5247 1 0.33546 0.300733 0.0142871
6466 1 0.350712 0.299221 0.00914275
6467 2 0.357694 0.29969 0.0112849
5245 1 0.348067 0.299274 0.00854905
5246 2 0.34034 0.298753 0.00800293
6468 1 0.364308 0.30374 0.0120962
10464 1 0.36701 0.305152 0.01298
10463 2 0.373207 0.308555 0.0156208
10462 1 0.380628 0.312117 0.0145359
9950 2 0.660893 0.286428 0.0207201
9949 1 0.657322 0.290308 0.0265709
9951 1 0.66543 0.283426 0.0145883
4966 1 0.666835 0.282596 0.0121278
1360 1 0.82501 0.297768 0.00218724
16058 3 0.925289 0.290973 0.0306141
16059 1 0.929026 0.285184 0.0276883
16057 1 0.92232 0.299389 0.030284
19681 1 0.974809 0.307885 0.0191974
19682 3 0.973729 0.301272 0.0157314
19683 1 0.9697 0.296862 0.0208504
19444 1 0.975229 0.31033 0.020226
17524 1 0.27208 0.318555 0.0149404
15921 1 0.80214 0.32641 0.0051596
15920 2 0.80507 0.321138 0.0113198
15919 1 0.803961 0.316948 0.0182018
19445 3 0.976711 0.317451 0.0237743
19446 1 0.977937 0.324335 0.0186343
14634 1 0.978387 0.326329 0.0170037
6472 1 0.977268 0.341026 0.0295491
8415 1 0.983196 0.335788 0.00107576
14632 1 0.982868 0.334619 0.00364962
14633 3 0.981276 0.332502 0.0116232
3146 3 0.00623014 0.37155 0.0203234
3145 1 0.00610305 0.373714 0.0279894
279 1 0.0367534 0.354745 0.00170425
15391 1 0.654922 0.35697 0.0136628
15393 1 0.646767 0.350311 0.0246916
15392 2 0.650182 0.352569 0.0182788
8587 1 0.656945 0.359352 0.0120612
8588 2 0.661435 0.364824 0.00974677
8589 1 0.667267 0.368566 0.00452288
15204 1 0.669694 0.369619 0.00294582
16094 3 0.983984 0.370617 0.0113634
16095 1 0.988556 0.373094 0.0172774
16093 1 0.980283 0.370777 0.0036799
17924 3 0.986049 0.355312 0.0278703
17925 1 0.986301 0.362147 0.0247624
14130 1 0.978352 0.370193 0.000466179
3147 1 0.00702454 0.375289 0.0133214
1302 1 0.00744569 0.376941 0.0109523
1301 2 0.00740078 0.380691 0.00446136
18307 1 0.0619393 0.424099 0.0280267
6365 2 0.104101 0.431114 0.00648965
6366 1 0.107945 0.425219 0.0106205
6973 1 0.12149 0.435184 0.0246721
21278 3 0.195505 0.433998 0.0190784
21277 1 0.194588 0.434522 0.027007
21279 1 0.197282 0.434026 0.0104943
7261 1 0.384655 0.42286 0.00885038
7262 2 0.389112 0.428331 0.00541444
7263 1 0.395634 0.430684 0.00902391
18767 2 0.497141 0.429653 0.00239123
2506 1 0.508264 0.433705 0.00163696
2507 3 0.514699 0.436413 0.000985155
18766 1 0.505335 0.433062 0.00173451
18768 1 0.49087 0.428161 0.00529792
10976 3 0.692099 0.425975 0.00257981
10975 1 0.697965 0.431543 0.00305932
6364 1 0.10231 0.438124 0.00305402
6975 1 0.134103 0.440329 0.0212669
6974 2 0.126466 0.440077 0.0223368
8567 2 0.297981 0.461705 0.00520032
8568 1 0.295931 0.465685 0.0113654
2508 1 0.513857 0.44382 0.00458676
1945 1 0.598357 0.464968 0.0249762
11570 3 0.692619 0.453117 0.00934175
11569 1 0.691142 0.457599 0.00295606
11571 1 0.689979 0.447999 0.0156218
13278 1 0.908169 0.440413 0.0150166
13277 3 0.907691 0.443158 0.0230687
13276 1 0.903323 0.439763 0.0278883
4888 1 0.0829001 0.49589 0.0215461
4889 3 0.086654 0.489078 0.0200718
4351 1 0.105567 0.481201 0.0054252
4352 3 0.102821 0.481612 0.0129382
4890 1 0.0921871 0.484632 0.0171087
4353 1 0.0949078 0.483331 0.0161307
12867 1 0.541703 0.495013 6.57656e-07
19872 1 0.719222 0.469224 0.00679661
19871 3 0.7141 0.469794 0.000352816
7582 1 0.860091 0.496648 0.0183864
11505 1 0.882168 0.481789 0.000350938
11504 3 0.883076 0.484519 0.00883681
12144 1 0.887327 0.496688 0.0230859
19993 1 0.889519 0.497257 0.0225711
12143 3 0.880405 0.494494 0.0255283
12142 1 0.880596 0.490049 0.0180428
11503 1 0.881239 0.48858 0.0150571
16996 1 0.920603 0.496971 0.0236999
8860 1 0.0854935 0.0222791 0.0425921
8862 1 0.0967472 0.0288094 0.0498151
13860 1 0.0987452 0.030606 0.0512689
8861 3 0.0922476 0.0241521 0.0450926
6654 1 0.571171 0.0255163 0.0427468
19045 1 0.572429 0.0229264 0.0424263
19046 2 0.575165 0.0149358 0.0415505
17107 1 0.594908 0.0217654 0.0555871
17108 2 0.590874 0.0158872 0.0507082
19047 1 0.581822 0.0147778 0.0452525
17109 1 0.584307 0.0146329 0.0469068
18793 1 0.596145 0.0241407 0.0568205
10891 1 0.741865 0.00675173 0.0458895
11710 1 0.771172 0.00491434 0.0502012
11711 2 0.763646 0.00824104 0.0501221
11712 1 0.758496 0.0119424 0.0551103
1479 1 0.794113 0.0120294 0.0581848
1478 3 0.793575 0.00341932 0.0586099
1658 3 0.794134 0.02297 0.0580989
1657 1 0.790322 0.0288426 0.0609089
1659 1 0.794265 0.0152295 0.0581585
17752 1 0.788763 0.0308157 0.062151
11790 1 0.842632 0.00448333 0.0603948
16504 1 0.967618 0.0245755 0.0332688
16505 2 0.97229 0.0273643 0.0397803
16506 1 0.97579 0.0222727 0.0452563
5628 1 0.000759043 0.0475335 0.0547165
968 2 0.0268948 0.0588843 0.0458812
4055 3 0.0362761 0.0442965 0.0536508
4056 1 0.0322105 0.0388529 0.0552351
969 1 0.0308577 0.0526824 0.0495366
4054 1 0.0324746 0.0502015 0.0508076
13859 2 0.104486 0.0351905 0.0559612
10816 1 0.51314 0.0355222 0.0325629
6770 3 0.537031 0.0325561 0.0555028
6769 1 0.529237 0.0325924 0.0543121
6771 1 0.544115 0.0366608 0.0561444
7964 3 0.573706 0.0582912 0.0339077
6653 3 0.567943 0.0338698 0.0438122
7965 1 0.571346 0.0515168 0.0315859
6652 1 0.563026 0.0399461 0.0446252
18794 2 0.599355 0.0316756 0.0600464
13621 1 0.832483 0.0583359 0.031354
11438 3 0.884642 0.0363116 0.0439022
11439 1 0.882675 0.0431535 0.0413734
11437 1 0.887371 0.0323927 0.0507718
5516 2 0.950945 0.0593158 0.0544182
5515 1 0.94779 0.0509836 0.052465
5627 2 0.995238 0.0441966 0.0590273
20259 1 0.0176576 0.080381 0.0424929
20449 1 0.0197882 0.0822555 0.0400418
20450 3 0.0252549 0.0869829 0.0353572
20257 1 0.0103711 0.0723584 0.0541505
20258 2 0.013218 0.0766201 0.0481468
967 1 0.0241488 0.0640534 0.041457
13794 1 0.388285 0.0836051 0.0568552
13793 3 0.394855 0.0868117 0.0607881
12153 1 0.430464 0.0787816 0.0590947
12151 1 0.440763 0.0704142 0.0516772
12152 2 0.436164 0.0757971 0.0550842
7963 1 0.571329 0.0651044 0.0383111
5517 1 0.94756 0.0662806 0.0575352
20451 1 0.0295882 0.0944625 0.0352705
3315 1 0.062729 0.12281 0.0571299
10063 1 0.0619979 0.1242 0.0536281
5173 1 0.420891 0.124599 0.0566794
18145 1 0.671129 0.1204 0.0506683
18146 3 0.668996 0.118221 0.0570092
10064 3 0.0601977 0.126082 0.0461878
10065 1 0.0553393 0.127653 0.0402255
1772 2 0.089205 0.152889 0.0321792
1773 1 0.0950848 0.151759 0.0375373
2059 1 0.122474 0.126647 0.0447843
2061 1 0.128281 0.139799 0.0431295
2060 2 0.126091 0.133315 0.0426054
18178 1 0.128989 0.142255 0.0436741
18179 2 0.131457 0.148794 0.0459562
18180 1 0.13616 0.155228 0.0458157
12617 3 0.711258 0.156173 0.0590033
7395 1 0.0756384 0.177097 0.0606031
9911 2 0.143617 0.164382 0.0449903
9912 1 0.137662 0.157942 0.0456329
9910 1 0.14713 0.169177 0.0418676
246 1 0.133711 0.179666 0.0583117
20229 1 0.683151 0.163814 0.0344458
20228 2 0.685406 0.169271 0.0388922
20227 1 0.688729 0.169306 0.0465126
20923 1 0.689933 0.169235 0.0496452
20924 3 0.693573 0.169784 0.0567112
12616 1 0.710161 0.157926 0.0515051
1137 1 0.709804 0.158509 0.048713
20925 1 0.698422 0.174744 0.0602352
11955 1 0.70093 0.176812 0.0617279
1136 3 0.708416 0.159955 0.0402465
15787 1 0.712912 0.167261 0.0342361
1135 1 0.711604 0.164926 0.0360842
18414 1 0.730515 0.167389 0.0508781
18412 1 0.738516 0.180385 0.0538194
18413 3 0.736851 0.173325 0.0516984
10667 2 0.76816 0.183063 0.0547132
10666 1 0.7695 0.174921 0.0568742
13819 1 0.899602 0.172523 0.0485465
13821 1 0.908322 0.178607 0.0592454
13820 3 0.90412 0.17586 0.0528585
5791 1 0.909095 0.17998 0.0619342
15239 2 0.135966 0.203095 0.0509914
15238 1 0.134022 0.195679 0.0532659
15240 1 0.141788 0.208705 0.0486969
19693 1 0.730504 0.19769 0.0624192
19694 3 0.738255 0.19951 0.061024
19695 1 0.745274 0.198352 0.0570219
14665 1 0.748082 0.198486 0.0552565
14666 3 0.755213 0.197312 0.0510967
14667 1 0.761087 0.191999 0.0519204
10668 1 0.762795 0.189515 0.0529406
3060 1 0.857475 0.203365 0.0478193
3059 3 0.860028 0.202101 0.0567285
5489 2 0.959499 0.197793 0.0373966
5488 1 0.960499 0.19017 0.0396156
5490 1 0.957689 0.206463 0.034563
1698 1 0.95139 0.215014 0.0548472
17244 1 0.574309 0.248754 0.0564956
9325 1 0.571792 0.249006 0.0546404
17243 2 0.579396 0.246845 0.0613359
13424 3 0.786188 0.227704 0.0391879
13423 1 0.782388 0.228709 0.0317317
13425 1 0.789163 0.223255 0.0439102
1697 3 0.95452 0.22094 0.049963
1696 1 0.954765 0.227792 0.0456173
20232 1 0.955275 0.230391 0.0438824
20231 3 0.957243 0.235817 0.0384769
3748 1 0.959084 0.246326 0.0384266
20230 1 0.958134 0.243924 0.0387641
14650 1 0.991972 0.245989 0.0368369
1059 1 0.262103 0.259116 0.0551894
1058 3 0.268702 0.257943 0.0600917
12706 1 0.267032 0.280801 0.0420358
2955 1 0.269956 0.2805 0.0429154
12707 2 0.259252 0.279281 0.0400186
1057 1 0.276535 0.257685 0.0602528
13942 1 0.293713 0.26074 0.0526625
2954 3 0.277517 0.279182 0.0445676
13943 3 0.292017 0.267293 0.0490402
13944 1 0.286113 0.271388 0.0464154
2953 1 0.283603 0.273144 0.0457955
17963 2 0.453761 0.268842 0.0519947
17962 1 0.448629 0.272715 0.0473442
17964 1 0.456112 0.264427 0.0598542
10113 1 0.456355 0.263023 0.0620294
9326 2 0.564863 0.251172 0.0492885
9327 1 0.557375 0.251602 0.0512376
3749 3 0.96194 0.253492 0.0371276
3750 1 0.962815 0.261153 0.0336265
14652 1 0.983883 0.260062 0.0325846
14651 2 0.987404 0.252282 0.0330768
6758 3 0.0532837 0.301866 0.051615
6757 1 0.0447218 0.301463 0.0492083
6759 1 0.0598558 0.305442 0.055911
942 1 0.108063 0.283407 0.0570147
16177 1 0.120666 0.298422 0.0450936
16178 3 0.124078 0.297856 0.0376572
18907 1 0.16404 0.29301 0.0326264
18908 2 0.161399 0.294087 0.0402088
18909 1 0.162261 0.300512 0.0462083
4791 1 0.161739 0.303026 0.0481611
4790 2 0.158727 0.309672 0.0540677
12708 1 0.252558 0.281905 0.0365265
5731 1 0.287227 0.309955 0.0596793
13004 2 0.343497 0.310444 0.040818
13005 1 0.335852 0.311238 0.0428643
13003 1 0.350874 0.309918 0.0401041
1493 2 0.439561 0.310879 0.0436221
21003 1 0.68775 0.285266 0.0506745
21002 2 0.683697 0.283204 0.0445049
21001 1 0.685272 0.285807 0.0372113
8327 2 0.693527 0.287976 0.0584452
8328 1 0.689412 0.285689 0.0528972
1904 3 0.733307 0.301664 0.0553406
1905 1 0.732169 0.296887 0.0622629
1903 1 0.732301 0.306514 0.0493124
17102 2 0.0533538 0.334119 0.0622582
17101 1 0.0541728 0.327578 0.0572022
8659 1 0.0722041 0.31879 0.0474112
8660 3 0.0737285 0.326629 0.0502236
8661 1 0.0746189 0.334209 0.0508455
2179 1 0.0741351 0.336877 0.0517167
16360 1 0.153902 0.318597 0.0614102
4789 1 0.155216 0.316116 0.0595429
19247 3 0.17332 0.332261 0.0609385
19246 1 0.165823 0.33015 0.0599079
19248 1 0.181104 0.332718 0.0614667
1856 2 0.265418 0.321265 0.0493659
1855 1 0.271842 0.325487 0.0525977
1857 1 0.258285 0.316811 0.0501159
10427 2 0.377797 0.324054 0.0432764
10428 1 0.380921 0.322619 0.0506821
10426 1 0.37379 0.330809 0.0415163
4508 3 0.389429 0.334904 0.062442
1492 1 0.441025 0.312748 0.0517033
1494 1 0.444823 0.312999 0.0379967
10527 1 0.586697 0.313615 0.0553486
10526 3 0.583989 0.320197 0.0597571
8824 1 0.723922 0.328712 0.0447094
8826 1 0.712595 0.319097 0.040281
8825 2 0.71726 0.324161 0.0430902
6006 1 0.888844 0.342507 0.0579094
6474 1 0.966663 0.338592 0.0397535
2579 3 0.963189 0.341037 0.0505153
2580 1 0.965316 0.339022 0.0422441
6473 3 0.970795 0.338751 0.0327702
14648 2 0.983918 0.326765 0.0508237
14647 1 0.978939 0.323119 0.0441629
14649 1 0.98834 0.323969 0.0564715
18936 1 0.989197 0.323062 0.0587347
10008 1 0.0257718 0.369529 0.044147
2180 3 0.073692 0.344851 0.0535619
8354 3 0.0742619 0.36374 0.0583109
8353 1 0.0736993 0.355583 0.0560695
2181 1 0.0737429 0.352934 0.0553685
8355 1 0.0767204 0.37181 0.0590845
12943 1 0.077312 0.374408 0.0595733
10209 1 0.144797 0.355185 0.0617636
19437 1 0.122571 0.36637 0.0360791
19436 3 0.125025 0.373575 0.0380148
10208 3 0.144403 0.362898 0.0595294
10207 1 0.150183 0.368713 0.0572111
5428 1 0.360125 0.365113 0.033824
5429 2 0.353725 0.370368 0.0331657
13751 2 0.408327 0.365335 0.0584372
13750 1 0.402244 0.359011 0.0622965
13752 1 0.414152 0.370814 0.0548677
6005 2 0.892029 0.349928 0.0600153
6004 1 0.891057 0.357121 0.061131
2578 1 0.960466 0.347699 0.0527564
20340 1 0.960679 0.363227 0.0581729
20338 1 0.95981 0.349877 0.0532251
20339 3 0.958206 0.357168 0.0542109
17923 1 0.987723 0.350431 0.033723
10007 3 0.0248061 0.375388 0.0406343
10006 1 0.0308911 0.377931 0.0355331
9875 3 0.0574093 0.404513 0.0439333
12944 3 0.0789795 0.381915 0.0614706
12945 1 0.0762129 0.389057 0.0600942
8975 3 0.072063 0.399567 0.0576257
8976 1 0.0752911 0.391792 0.059434
8974 1 0.066479 0.401029 0.0513714
9874 1 0.0643244 0.402263 0.0489965
19435 1 0.121919 0.380904 0.0369372
5430 1 0.350467 0.377714 0.0330405
4065 1 0.465314 0.38003 0.043025
4064 2 0.462801 0.376747 0.0497696
16848 1 0.457886 0.383062 0.0570936
4063 1 0.459049 0.381279 0.0555683
16847 2 0.454777 0.387977 0.0615011
9573 1 0.862629 0.38341 0.0525631
9572 2 0.867939 0.380723 0.0469809
9571 1 0.872904 0.379321 0.0415239
3511 1 0.961791 0.393044 0.0462074
3512 2 0.969193 0.391032 0.0434356
3513 1 0.975227 0.392346 0.0450586
5818 1 0.0249794 0.433267 0.050328
5820 1 0.021814 0.42081 0.0439965
5819 2 0.0225325 0.427853 0.0450942
18309 1 0.0503105 0.433473 0.0328018
18308 2 0.0568571 0.428057 0.0322587
9876 1 0.0540559 0.407493 0.0369453
10027 1 0.273861 0.424689 0.0597509
18708 1 0.334621 0.425226 0.0599032
12368 2 0.439214 0.436407 0.0505627
12369 1 0.440283 0.428659 0.0476393
16114 1 0.518536 0.430089 0.0563984
16859 2 0.595675 0.436056 0.0466157
16858 1 0.591951 0.431371 0.0521855
9635 3 0.117891 0.444998 0.0556541
9636 1 0.125135 0.44624 0.0508609
18081 1 0.355728 0.454834 0.0568369
12367 1 0.445331 0.438827 0.0546478
9505 1 0.558754 0.451518 0.0443852
9506 2 0.553301 0.448215 0.039044
9507 1 0.548014 0.442043 0.0388925
16860 1 0.593446 0.444143 0.0462603
1946 3 0.596096 0.461875 0.03255
1947 1 0.596304 0.464377 0.0400899
3332 3 0.627384 0.481779 0.0500788
3331 1 0.620818 0.487385 0.0504214
3333 1 0.633867 0.480635 0.0460326
15526 1 0.885613 0.471355 0.0435548
15528 1 0.895767 0.470707 0.054315
16284 1 0.898001 0.470204 0.0570035
15527 3 0.891479 0.473568 0.0487502
16997 3 0.922407 0.496945 0.0317323
16998 1 0.926825 0.493733 0.0384021
4835 3 0.944818 0.496234 0.0566468
4834 1 0.942714 0.489192 0.058355
10944 1 0.122002 0.0160847 0.0828637
10943 2 0.130167 0.0169357 0.0847845
10942 1 0.137541 0.0163604 0.0872452
18130 1 0.140162 0.0165744 0.0892305
8336 2 0.186753 0.0016849 0.0888078
8337 1 0.190156 0.00402821 0.0822679
3412 1 0.238265 0.013056 0.0741931
3413 2 0.241249 0.00754757 0.079693
13912 1 0.247342 0.000549645 0.083631
3414 1 0.24555 0.00291638 0.0819073
13858 1 0.104832 0.0374792 0.0631661
18127 1 0.104604 0.0379954 0.0655042
18128 3 0.103851 0.0391424 0.0721701
18129 1 0.107117 0.0391368 0.0801431
17757 1 0.570862 0.0495343 0.0765786
17756 3 0.57339 0.048529 0.0696089
18795 1 0.59861 0.0387339 0.0631763
17755 1 0.576655 0.0489545 0.0628498
17754 1 0.779846 0.0421017 0.0686465
17753 3 0.783798 0.0364371 0.0654392
9315 1 0.809615 0.0375434 0.0877365
9314 3 0.815067 0.0358272 0.0820047
9313 1 0.820715 0.0342496 0.0783956
5626 1 0.990559 0.0468608 0.0658622
6061 1 0.0554913 0.0892434 0.0813098
6062 3 0.0597536 0.0891981 0.0876657
6063 1 0.0646702 0.0830179 0.0892482
13365 1 0.361047 0.0719668 0.0936195
13792 1 0.40067 0.0857128 0.066126
9206 3 0.395519 0.0910864 0.0916755
9207 1 0.402386 0.0891142 0.0886392
9583 1 0.404744 0.088114 0.0874823
9584 3 0.412292 0.0855562 0.085154
9585 1 0.417401 0.081135 0.0805309
8338 1 0.570085 0.0818994 0.0904247
8339 3 0.576517 0.0867039 0.0910979
12514 1 0.602158 0.0928436 0.0831313
12516 1 0.59518 0.0882935 0.092539
12515 3 0.595587 0.0894223 0.0852481
20293 1 0.682696 0.0908618 0.0896392
2754 1 0.785933 0.0833441 0.063141
2752 1 0.795401 0.0898256 0.0650393
2753 2 0.78954 0.0875295 0.069975
3313 1 0.0711069 0.116483 0.0692429
3314 2 0.0649594 0.119688 0.0654078
16713 1 0.0724266 0.0965467 0.0896465
1634 3 0.272167 0.12306 0.0835083
1633 1 0.263999 0.123862 0.0810461
21210 1 0.261661 0.124745 0.0799827
1635 1 0.280159 0.121098 0.0841497
20939 2 0.425811 0.114129 0.0799587
20940 1 0.429868 0.112469 0.0868186
5174 2 0.424369 0.123098 0.0627189
20938 1 0.42589 0.117856 0.0737223
5175 1 0.425759 0.119249 0.0707247
15013 1 0.563175 0.119163 0.0917516
8664 1 0.60497 0.0938379 0.0820411
8448 1 0.583356 0.123119 0.0812971
8340 1 0.577442 0.0953111 0.0912418
8447 3 0.583301 0.117886 0.0876277
8662 1 0.617159 0.100415 0.0736555
8663 3 0.612857 0.0954917 0.079124
20294 3 0.689358 0.0948738 0.0918669
16447 1 0.672024 0.103923 0.079941
16448 2 0.668615 0.110343 0.0758439
18147 1 0.668942 0.11439 0.0648151
16449 1 0.66865 0.113538 0.0676686
12666 1 0.710474 0.106326 0.090397
16495 1 0.716785 0.119152 0.0691823
10272 1 0.907564 0.107219 0.0853162
10270 1 0.907826 0.12236 0.086228
10271 2 0.909938 0.114804 0.0852218
10266 1 0.0296376 0.156154 0.0797687
10264 1 0.0329462 0.151279 0.0668569
4530 1 0.133182 0.144958 0.0835226
4529 2 0.129591 0.141012 0.0887139
1642 1 0.160945 0.126582 0.0935831
5285 3 0.24061 0.137662 0.0805527
5284 1 0.236999 0.143196 0.0849915
21209 3 0.255282 0.127136 0.0760613
21208 1 0.24904 0.131146 0.0767433
5286 1 0.246678 0.133428 0.077729
7619 3 0.347372 0.155212 0.0898612
7620 1 0.350872 0.151535 0.0836991
21072 1 0.574309 0.138749 0.0746926
21071 2 0.568317 0.142855 0.0770979
15180 1 0.565194 0.152413 0.0803468
21070 1 0.56655 0.150405 0.0792652
12618 1 0.710239 0.15009 0.0639227
16496 3 0.719843 0.125481 0.0731223
16497 1 0.716034 0.132469 0.071519
11630 3 0.711363 0.14278 0.0729475
11631 1 0.714278 0.135266 0.0718016
11629 1 0.709765 0.147958 0.0661968
10265 2 0.0311632 0.156813 0.0722271
7394 2 0.0769312 0.174936 0.0683519
7393 1 0.0766386 0.17427 0.0758429
20866 1 0.0763058 0.17445 0.0789733
20868 1 0.0813396 0.173195 0.0910934
20867 2 0.074976 0.17496 0.0864265
12766 1 0.121635 0.177434 0.0746424
12767 2 0.121969 0.172126 0.0814752
12768 1 0.122932 0.170968 0.0898944
244 1 0.138412 0.181378 0.0704207
245 2 0.131809 0.182179 0.0659233
3960 1 0.123438 0.17059 0.0930683
9511 1 0.233526 0.175908 0.0887575
9512 3 0.239913 0.173431 0.0912765
15178 1 0.563239 0.161954 0.0759024
15179 2 0.562795 0.159216 0.0821505
1246 1 0.683102 0.17609 0.0912333
11954 3 0.706825 0.181328 0.0651531
11953 1 0.711736 0.187442 0.0658362
18694 1 0.75814 0.175909 0.0779581
18695 2 0.763075 0.171943 0.0834016
18696 1 0.768949 0.174244 0.0869098
19218 1 0.771402 0.174961 0.0882951
19217 2 0.778383 0.175892 0.0915742
5793 1 0.905624 0.187279 0.0760098
5792 3 0.909126 0.182949 0.0699753
19900 1 0.258617 0.196102 0.0811092
19901 2 0.25189 0.195614 0.0807716
19902 1 0.244501 0.193876 0.0799264
4494 1 0.587649 0.21389 0.0870735
16021 1 0.714226 0.189771 0.0659342
16022 3 0.720313 0.195127 0.0657541
16023 1 0.727847 0.196376 0.0631861
5941 1 0.876126 0.210144 0.0794467
10077 1 0.87452 0.209147 0.0776281
10076 3 0.870304 0.206149 0.0719399
10075 1 0.865541 0.205013 0.0660251
3058 1 0.86407 0.204373 0.0639069
13489 1 0.904371 0.189169 0.0780984
13491 1 0.903805 0.193909 0.0890414
13490 3 0.900789 0.194194 0.0822271
10425 1 0.904879 0.192813 0.0918223
5942 3 0.879592 0.214745 0.084844
15928 1 0.989755 0.215499 0.0747557
15929 2 0.983201 0.216149 0.0718521
20778 1 0.0874164 0.247161 0.0847203
15580 1 0.24466 0.243544 0.0860188
553 1 0.434629 0.249645 0.0782132
17242 1 0.586051 0.247572 0.0668028
17403 1 0.587903 0.247851 0.0687932
17402 3 0.594102 0.247676 0.0728953
4493 2 0.587487 0.220087 0.0804869
4492 1 0.592554 0.222636 0.0739801
7801 1 0.872863 0.241787 0.0818717
7802 3 0.879847 0.24601 0.0833232
5943 1 0.884462 0.219363 0.0889118
15930 1 0.975699 0.21895 0.0697297
20777 2 0.082351 0.253758 0.0861122
20776 1 0.0773593 0.260562 0.0872824
15582 1 0.247881 0.251968 0.0743657
15581 3 0.246528 0.250552 0.082812
10111 1 0.450119 0.255687 0.0742006
555 1 0.447806 0.254618 0.0761459
554 2 0.44169 0.253329 0.08041
10112 2 0.455055 0.25904 0.068844
6775 1 0.482042 0.271654 0.0724036
6776 2 0.47563 0.27607 0.071396
17401 1 0.59842 0.251342 0.0676684
16427 2 0.757517 0.269928 0.0863651
16426 1 0.752576 0.270574 0.0800325
16428 1 0.760809 0.263349 0.0882762
16035 1 0.823334 0.266034 0.0718239
16034 2 0.820383 0.258338 0.0707636
11515 1 0.839162 0.269612 0.0830766
11516 2 0.836801 0.274026 0.0889411
16033 1 0.819514 0.250804 0.069338
7803 1 0.884979 0.250903 0.0807889
4880 3 0.905644 0.27058 0.0680746
4879 1 0.899815 0.270119 0.0625223
19817 3 0.926544 0.272926 0.0666795
19818 1 0.925048 0.268302 0.0731123
19816 1 0.932334 0.275679 0.0634538
4881 1 0.912494 0.272889 0.0708568
2513 3 0.921644 0.26046 0.0802973
2512 1 0.924242 0.266371 0.0751594
2514 1 0.917711 0.257971 0.0879852
20752 1 0.916389 0.2569 0.0904124
1140 1 0.0620506 0.308877 0.0709301
1139 2 0.0642278 0.301069 0.0722482
1138 1 0.0654878 0.292716 0.073294
941 2 0.106754 0.282567 0.0643511
940 1 0.106504 0.286966 0.070243
7205 2 0.288662 0.283534 0.0814866
7206 1 0.284457 0.282067 0.0746682
5493 1 0.294916 0.286212 0.0917855
7204 1 0.293243 0.285771 0.0882768
6777 1 0.470117 0.282579 0.0707279
8326 1 0.694444 0.29146 0.0661593
10330 1 0.67725 0.28626 0.0747437
10331 2 0.671846 0.289469 0.0717421
10332 1 0.669004 0.294853 0.0685647
3846 1 0.731936 0.295245 0.0644434
3845 2 0.73138 0.289583 0.0713625
3844 1 0.731242 0.283296 0.0760825
16972 1 0.772469 0.308057 0.0811658
16973 3 0.780107 0.306172 0.0788495
16974 1 0.784119 0.29936 0.0802402
10255 1 0.000649831 0.336129 0.0824454
17103 1 0.0546933 0.33837 0.0687299
4242 1 0.0563819 0.34236 0.0860118
4241 3 0.0582487 0.342064 0.0783331
4240 1 0.0557312 0.339368 0.0711745
16362 1 0.148957 0.331961 0.065923
20897 3 0.145856 0.343079 0.0660865
20896 1 0.148194 0.334175 0.0660639
16361 3 0.151527 0.325419 0.0659833
5732 2 0.284411 0.313181 0.0653691
5733 1 0.283801 0.320806 0.0667356
17323 1 0.305985 0.337639 0.0894592
4507 1 0.388979 0.326508 0.0634143
4509 1 0.392011 0.342036 0.0634291
17903 3 0.574793 0.334251 0.0706744
11787 1 0.565908 0.340692 0.0700582
17904 1 0.568505 0.338756 0.0694591
17902 1 0.579295 0.328825 0.0662412
10525 1 0.580628 0.326556 0.064539
10256 3 0.999298 0.331008 0.076824
18934 1 0.995082 0.324838 0.069318
10257 1 0.996187 0.326299 0.0709684
18935 3 0.992288 0.321042 0.0640066
20898 1 0.145251 0.35182 0.0630598
6045 1 0.123176 0.348377 0.0859463
6043 1 0.133883 0.360809 0.0855306
6044 3 0.129492 0.354204 0.0847261
9639 1 0.311814 0.355276 0.0665377
9637 1 0.306825 0.351174 0.0805063
9638 3 0.307271 0.354796 0.0734599
17324 3 0.304391 0.345319 0.0896664
17325 1 0.306377 0.349795 0.0832492
17236 1 0.392543 0.344605 0.064096
2032 1 0.371305 0.367642 0.0809497
2033 2 0.373803 0.369973 0.0885033
17238 1 0.400316 0.356997 0.0630122
17237 3 0.394621 0.351749 0.0651909
11758 1 0.418441 0.363042 0.0921601
11759 3 0.412516 0.361307 0.087241
11760 1 0.404726 0.361833 0.0894933
20578 1 0.44654 0.371853 0.0770077
20579 2 0.454773 0.370427 0.0760815
20580 1 0.461364 0.373891 0.0788873
11785 1 0.554153 0.346494 0.0774744
11786 3 0.559082 0.345175 0.0709439
8214 1 0.805871 0.362133 0.0725526
8213 2 0.806919 0.366446 0.0798256
8212 1 0.807173 0.366922 0.0887311
7774 1 0.835089 0.367925 0.0742633
1155 1 0.836882 0.369591 0.0735441
7775 2 0.82902 0.362177 0.0770997
7776 1 0.824015 0.360925 0.0818632
20267 3 0.967948 0.352653 0.0734412
20266 1 0.963729 0.359716 0.0724587
1587 1 0.962175 0.362114 0.0722492
1585 1 0.9487 0.367988 0.0719778
1586 3 0.95624 0.367725 0.0745619
20268 1 0.972486 0.347541 0.0689556
18234 1 0.354477 0.397424 0.0887002
18233 2 0.349919 0.40275 0.0872896
2034 1 0.373775 0.376588 0.0936394
18796 1 0.442033 0.382364 0.0801053
18797 2 0.438825 0.379332 0.0866818
1044 1 0.425098 0.375043 0.0937006
16846 1 0.456586 0.395496 0.0628594
4252 1 0.457146 0.399123 0.0635441
6231 1 0.463999 0.375123 0.0800713
6230 2 0.4688 0.380803 0.0836453
2985 1 0.47431 0.391066 0.0808411
6229 1 0.472973 0.388243 0.0818744
4253 2 0.458099 0.405367 0.0644076
2984 2 0.476325 0.398763 0.0773744
2983 1 0.476104 0.405881 0.0733577
20469 1 0.792571 0.391656 0.0884908
1533 1 0.794849 0.39103 0.0871459
1532 2 0.801637 0.390145 0.0824904
1531 1 0.808827 0.387093 0.0770362
3181 1 0.811526 0.385787 0.0758313
1153 1 0.845107 0.380384 0.065998
1154 3 0.841495 0.375337 0.0720225
3182 2 0.818308 0.382782 0.0715063
3183 1 0.824981 0.377876 0.0716888
7746 1 0.116096 0.435689 0.0816534
10029 1 0.265518 0.419462 0.069376
7015 1 0.270716 0.429276 0.0896051
10028 3 0.269572 0.419082 0.0633129
18707 2 0.335371 0.423006 0.0680768
8894 2 0.343897 0.420906 0.0849296
8893 1 0.339283 0.42164 0.0776768
18706 1 0.338408 0.421927 0.0754451
18232 1 0.34767 0.410328 0.0864743
8895 1 0.346724 0.413354 0.0863408
4254 1 0.464109 0.409827 0.0652131
16116 1 0.514957 0.425817 0.0721871
16115 2 0.516056 0.42883 0.0641501
16500 1 0.0889632 0.448048 0.0697464
16498 1 0.0967664 0.460723 0.0650116
16499 2 0.0927619 0.455152 0.0671241
7745 2 0.114998 0.438586 0.0741903
9634 1 0.115377 0.442513 0.0639654
7744 1 0.11529 0.441328 0.0669037
10781 2 0.226572 0.44358 0.079034
10780 1 0.231033 0.450489 0.0789951
10782 1 0.218358 0.446494 0.0784509
18080 3 0.357461 0.456905 0.0639533
18079 1 0.363779 0.457214 0.0688031
16283 3 0.901765 0.468567 0.0645598
15491 3 0.889987 0.465992 0.090826
15490 1 0.89674 0.464427 0.0866997
12822 1 0.899443 0.463601 0.0854808
12821 3 0.906615 0.462205 0.0827246