ITEM: TIMESTEP
0
ITEM: NUMBER OF ATOMS
17820
ITEM: BOX BOUNDS pp pp pp
0.0000000000000000e+00 5.0000000000000000e+01
0.0000000000000000e+00 5.0000000000000000e+01
0.0000000000000000e+00 5.0000000000000000e+01
ITEM: ATOMS id type 
1 1 
2 3 
3 1 
4 1 
5 3 
6 1 
10 1 
11 2 
12 1 
16 1 
17 2 
18 1 
22 1 
23 3 
24 1 
61 1 
62 3 
63 1 
64 1 
65 3 
66 1 
67 1 
68 2 
69 1 
70 1 
71 2 
72 1 
73 1 
74 3 
75 1 
79 1 
80 3 
81 1 
82 1 
83 2 
84 1 
85 1 
86 2 
87 1 
88 1 
89 3 
90 1 
121 1 
122 2 
123 1 
124 1 
125 2 
126 1 
127 1 
128 3 
129 1 
130 1 
131 2 
132 1 
139 1 
140 3 
141 1 
142 1 
143 3 
144 1 
145 1 
146 3 
147 1 
148 1 
149 3 
150 1 
181 1 
182 2 
183 1 
184 1 
185 3 
186 1 
187 1 
188 2 
189 1 
193 1 
194 2 
195 1 
196 1 
197 2 
198 1 
199 1 
200 3 
201 1 
202 1 
203 3 
204 1 
205 1 
206 3 
207 1 
208 1 
209 3 
210 1 
241 1 
242 2 
243 1 
244 1 
245 2 
246 1 
247 1 
248 2 
249 1 
250 1 
251 3 
252 1 
253 1 
254 2 
255 1 
256 1 
257 2 
258 1 
259 1 
260 2 
261 1 
262 1 
263 2 
264 1 
265 1 
266 2 
267 1 
268 1 
269 2 
270 1 
301 1 
302 3 
303 1 
304 1 
305 3 
306 1 
307 1 
308 2 
309 1 
310 1 
311 2 
312 1 
313 1 
314 3 
315 1 
316 1 
317 2 
318 1 
319 1 
320 2 
321 1 
325 1 
326 2 
327 1 
328 1 
329 3 
330 1 
361 1 
362 3 
363 1 
364 1 
365 3 
366 1 
367 1 
368 2 
369 1 
373 1 
374 3 
375 1 
376 1 
377 2 
378 1 
379 1 
380 2 
381 1 
385 1 
386 3 
387 1 
388 1 
389 2 
390 1 
421 1 
422 3 
423 1 
424 1 
425 3 
426 1 
430 1 
431 2 
432 1 
433 1 
434 2 
435 1 
436 1 
437 3 
438 1 
442 1 
443 3 
444 1 
445 1 
446 3 
447 1 
448 1 
449 2 
450 1 
490 1 
491 2 
492 1 
493 1 
494 3 
495 1 
496 1 
497 2 
498 1 
499 1 
500 3 
501 1 
502 1 
503 2 
504 1 
505 1 
506 3 
507 1 
508 1 
509 2 
510 1 
1141 1 
1142 2 
1143 1 
1144 1 
1145 3 
1146 1 
1147 1 
1148 3 
1149 1 
1150 1 
1151 2 
1152 1 
1153 1 
1154 3 
1155 1 
1156 1 
1157 2 
1158 1 
1159 1 
1160 3 
1161 1 
1162 1 
1163 2 
1164 1 
1165 1 
1166 2 
1167 1 
1201 1 
1202 3 
1203 1 
1204 1 
1205 3 
1206 1 
1207 1 
1208 2 
1209 1 
1213 1 
1214 2 
1215 1 
1216 1 
1217 3 
1218 1 
1219 1 
1220 2 
1221 1 
1222 1 
1223 2 
1224 1 
1225 1 
1226 3 
1227 1 
1228 1 
1229 3 
1230 1 
1261 1 
1262 3 
1263 1 
1264 1 
1265 3 
1266 1 
1267 1 
1268 2 
1269 1 
1270 1 
1271 3 
1272 1 
1273 1 
1274 3 
1275 1 
1276 1 
1277 2 
1278 1 
1282 1 
1283 3 
1284 1 
1285 1 
1286 2 
1287 1 
1321 1 
1322 2 
1323 1 
1327 1 
1328 3 
1329 1 
1330 1 
1331 2 
1332 1 
1333 1 
1334 3 
1335 1 
1336 1 
1337 2 
1338 1 
1342 1 
1343 2 
1344 1 
1345 1 
1346 3 
1347 1 
1381 1 
1382 2 
1383 1 
1384 1 
1385 3 
1386 1 
1387 1 
1388 2 
1389 1 
1390 1 
1391 3 
1392 1 
1393 1 
1394 3 
1395 1 
1396 1 
1397 2 
1398 1 
1399 1 
1400 3 
1401 1 
1405 1 
1406 2 
1407 1 
1441 1 
1442 2 
1443 1 
1444 1 
1445 2 
1446 1 
1447 1 
1448 2 
1449 1 
1450 1 
1451 3 
1452 1 
1453 1 
1454 2 
1455 1 
1456 1 
1457 3 
1458 1 
1459 1 
1460 2 
1461 1 
1462 1 
1463 2 
1464 1 
1465 1 
1466 2 
1467 1 
1468 1 
1469 2 
1470 1 
1501 1 
1502 3 
1503 1 
1507 1 
1508 3 
1509 1 
1510 1 
1511 3 
1512 1 
1519 1 
1520 2 
1521 1 
1522 1 
1523 2 
1524 1 
1525 1 
1526 3 
1527 1 
1561 1 
1562 2 
1563 1 
1564 1 
1565 2 
1566 1 
1567 1 
1568 2 
1569 1 
1570 1 
1571 2 
1572 1 
1579 1 
1580 3 
1581 1 
1582 1 
1583 3 
1584 1 
1585 1 
1586 3 
1587 1 
1588 1 
1589 2 
1590 1 
1621 1 
1622 2 
1623 1 
1627 1 
1628 3 
1629 1 
1630 1 
1631 2 
1632 1 
1633 1 
1634 3 
1635 1 
1636 1 
1637 3 
1638 1 
1639 1 
1640 2 
1641 1 
1642 1 
1643 3 
1644 1 
1645 1 
1646 2 
1647 1 
1648 1 
1649 2 
1650 1 
2221 1 
2222 3 
2223 1 
2224 1 
2225 3 
2226 1 
2227 1 
2228 2 
2229 1 
2230 1 
2231 3 
2232 1 
2233 1 
2234 2 
2235 1 
2239 1 
2240 3 
2241 1 
2242 1 
2243 3 
2244 1 
2245 1 
2246 3 
2247 1 
2248 1 
2249 2 
2250 1 
2281 1 
2282 2 
2283 1 
2287 1 
2288 2 
2289 1 
2290 1 
2291 3 
2292 1 
2293 1 
2294 2 
2295 1 
2296 1 
2297 2 
2298 1 
2299 1 
2300 3 
2301 1 
2302 1 
2303 2 
2304 1 
2305 1 
2306 3 
2307 1 
2308 1 
2309 2 
2310 1 
2341 1 
2342 2 
2343 1 
2344 1 
2345 2 
2346 1 
2347 1 
2348 3 
2349 1 
2350 1 
2351 2 
2352 1 
2353 1 
2354 2 
2355 1 
2356 1 
2357 2 
2358 1 
2359 1 
2360 3 
2361 1 
2362 1 
2363 3 
2364 1 
2365 1 
2366 3 
2367 1 
2368 1 
2369 2 
2370 1 
2401 1 
2402 3 
2403 1 
2404 1 
2405 3 
2406 1 
2407 1 
2408 3 
2409 1 
2410 1 
2411 2 
2412 1 
2413 1 
2414 2 
2415 1 
2416 1 
2417 2 
2418 1 
2419 1 
2420 3 
2421 1 
2425 1 
2426 2 
2427 1 
2428 1 
2429 2 
2430 1 
2464 1 
2465 2 
2466 1 
2467 1 
2468 3 
2469 1 
2470 1 
2471 3 
2472 1 
2473 1 
2474 2 
2475 1 
2476 1 
2477 3 
2478 1 
2479 1 
2480 2 
2481 1 
2488 1 
2489 2 
2490 1 
2521 1 
2522 2 
2523 1 
2524 1 
2525 3 
2526 1 
2527 1 
2528 2 
2529 1 
2530 1 
2531 2 
2532 1 
2533 1 
2534 3 
2535 1 
2536 1 
2537 3 
2538 1 
2539 1 
2540 2 
2541 1 
2545 1 
2546 2 
2547 1 
2548 1 
2549 2 
2550 1 
2581 1 
2582 2 
2583 1 
2587 1 
2588 3 
2589 1 
2596 1 
2597 3 
2598 1 
2599 1 
2600 2 
2601 1 
2602 1 
2603 2 
2604 1 
2605 1 
2606 2 
2607 1 
2608 1 
2609 2 
2610 1 
3181 1 
3182 2 
3183 1 
3184 1 
3185 3 
3186 1 
3187 1 
3188 3 
3189 1 
3190 1 
3191 2 
3192 1 
3193 1 
3194 2 
3195 1 
3196 1 
3197 2 
3198 1 
3199 1 
3200 3 
3201 1 
3202 1 
3203 2 
3204 1 
3205 1 
3206 2 
3207 1 
3241 1 
3242 2 
3243 1 
3244 1 
3245 2 
3246 1 
3247 1 
3248 2 
3249 1 
3250 1 
3251 2 
3252 1 
3262 1 
3263 2 
3264 1 
3265 1 
3266 2 
3267 1 
3268 1 
3269 2 
3270 1 
3301 1 
3302 2 
3303 1 
3304 1 
3305 3 
3306 1 
3307 1 
3308 2 
3309 1 
3310 1 
3311 2 
3312 1 
3313 1 
3314 2 
3315 1 
3322 1 
3323 3 
3324 1 
3325 1 
3326 3 
3327 1 
3328 1 
3329 3 
3330 1 
3361 1 
3362 2 
3363 1 
3364 1 
3365 3 
3366 1 
3367 1 
3368 3 
3369 1 
3370 1 
3371 3 
3372 1 
3373 1 
3374 3 
3375 1 
3376 1 
3377 3 
3378 1 
3379 1 
3380 3 
3381 1 
3382 1 
3383 3 
3384 1 
3385 1 
3386 2 
3387 1 
3421 1 
3422 2 
3423 1 
3424 1 
3425 3 
3426 1 
3427 1 
3428 2 
3429 1 
3430 1 
3431 3 
3432 1 
3433 1 
3434 3 
3435 1 
3436 1 
3437 2 
3438 1 
3439 1 
3440 3 
3441 1 
3448 1 
3449 2 
3450 1 
3481 1 
3482 2 
3483 1 
3487 1 
3488 3 
3489 1 
3493 1 
3494 3 
3495 1 
3502 1 
3503 3 
3504 1 
3508 1 
3509 3 
3510 1 
3541 1 
3542 3 
3543 1 
3544 1 
3545 3 
3546 1 
3550 1 
3551 2 
3552 1 
3553 1 
3554 2 
3555 1 
3556 1 
3557 3 
3558 1 
3559 1 
3560 3 
3561 1 
3562 1 
3563 3 
3564 1 
3565 1 
3566 2 
3567 1 
3568 1 
3569 2 
3570 1 
3601 1 
3602 3 
3603 1 
3604 1 
3605 2 
3606 1 
3607 1 
3608 3 
3609 1 
3613 1 
3614 2 
3615 1 
3616 1 
3617 2 
3618 1 
3619 1 
3620 2 
3621 1 
3622 1 
3623 2 
3624 1 
3625 1 
3626 3 
3627 1 
3628 1 
3629 2 
3630 1 
3661 1 
3662 3 
3663 1 
3664 1 
3665 2 
3666 1 
3667 1 
3668 3 
3669 1 
3670 1 
3671 3 
3672 1 
3673 1 
3674 2 
3675 1 
3676 1 
3677 2 
3678 1 
3679 1 
3680 2 
3681 1 
3721 1 
3722 2 
3723 1 
3724 1 
3725 2 
3726 1 
3727 1 
3728 2 
3729 1 
3730 1 
3731 2 
3732 1 
3733 1 
3734 3 
3735 1 
3739 1 
3740 2 
3741 1 
3742 1 
3743 3 
3744 1 
3748 1 
3749 3 
3750 1 
4321 1 
4322 3 
4323 1 
4324 1 
4325 3 
4326 1 
4327 1 
4328 2 
4329 1 
4330 1 
4331 2 
4332 1 
4333 1 
4334 3 
4335 1 
4336 1 
4337 2 
4338 1 
4339 1 
4340 2 
4341 1 
4342 1 
4343 3 
4344 1 
4345 1 
4346 2 
4347 1 
4348 1 
4349 3 
4350 1 
4381 1 
4382 3 
4383 1 
4384 1 
4385 2 
4386 1 
4387 1 
4388 3 
4389 1 
4390 1 
4391 2 
4392 1 
4393 1 
4394 3 
4395 1 
4396 1 
4397 3 
4398 1 
4399 1 
4400 2 
4401 1 
4402 1 
4403 2 
4404 1 
4405 1 
4406 2 
4407 1 
4408 1 
4409 2 
4410 1 
4441 1 
4442 3 
4443 1 
4447 1 
4448 2 
4449 1 
4450 1 
4451 3 
4452 1 
4453 1 
4454 2 
4455 1 
4456 1 
4457 2 
4458 1 
4459 1 
4460 3 
4461 1 
4462 1 
4463 2 
4464 1 
4465 1 
4466 3 
4467 1 
4468 1 
4469 2 
4470 1 
4501 1 
4502 3 
4503 1 
4504 1 
4505 3 
4506 1 
4507 1 
4508 3 
4509 1 
4513 1 
4514 3 
4515 1 
4516 1 
4517 2 
4518 1 
4519 1 
4520 3 
4521 1 
4522 1 
4523 3 
4524 1 
4528 1 
4529 2 
4530 1 
4561 1 
4562 2 
4563 1 
4564 1 
4565 2 
4566 1 
4567 1 
4568 2 
4569 1 
4570 1 
4571 3 
4572 1 
4573 1 
4574 2 
4575 1 
4576 1 
4577 2 
4578 1 
4579 1 
4580 2 
4581 1 
4585 1 
4586 3 
4587 1 
4588 1 
4589 2 
4590 1 
4624 1 
4625 2 
4626 1 
4627 1 
4628 2 
4629 1 
4633 1 
4634 3 
4635 1 
4636 1 
4637 2 
4638 1 
4639 1 
4640 2 
4641 1 
4642 1 
4643 2 
4644 1 
4645 1 
4646 2 
4647 1 
4648 1 
4649 2 
4650 1 
4681 1 
4682 2 
4683 1 
4687 1 
4688 2 
4689 1 
4690 1 
4691 2 
4692 1 
4693 1 
4694 3 
4695 1 
4696 1 
4697 3 
4698 1 
4699 1 
4700 3 
4701 1 
4702 1 
4703 2 
4704 1 
4705 1 
4706 2 
4707 1 
4708 1 
4709 3 
4710 1 
4741 1 
4742 3 
4743 1 
4744 1 
4745 3 
4746 1 
4750 1 
4751 3 
4752 1 
4753 1 
4754 2 
4755 1 
4756 1 
4757 2 
4758 1 
4762 1 
4763 2 
4764 1 
4765 1 
4766 3 
4767 1 
4801 1 
4802 2 
4803 1 
4804 1 
4805 3 
4806 1 
4807 1 
4808 2 
4809 1 
4810 1 
4811 3 
4812 1 
4813 1 
4814 3 
4815 1 
4816 1 
4817 2 
4818 1 
4819 1 
4820 3 
4821 1 
4822 1 
4823 2 
4824 1 
4825 1 
4826 3 
4827 1 
4861 1 
4862 3 
4863 1 
4864 1 
4865 2 
4866 1 
4867 1 
4868 3 
4869 1 
4870 1 
4871 2 
4872 1 
4873 1 
4874 3 
4875 1 
4876 1 
4877 2 
4878 1 
4879 1 
4880 3 
4881 1 
4882 1 
4883 2 
4884 1 
4885 1 
4886 3 
4887 1 
4888 1 
4889 3 
4890 1 
5464 1 
5465 3 
5466 1 
5467 1 
5468 2 
5469 1 
5470 1 
5471 2 
5472 1 
5473 1 
5474 2 
5475 1 
5476 1 
5477 2 
5478 1 
5485 1 
5486 2 
5487 1 
5488 1 
5489 2 
5490 1 
5524 1 
5525 3 
5526 1 
5527 1 
5528 2 
5529 1 
5530 1 
5531 2 
5532 1 
5533 1 
5534 3 
5535 1 
5536 1 
5537 2 
5538 1 
5539 1 
5540 3 
5541 1 
5542 1 
5543 3 
5544 1 
5545 1 
5546 3 
5547 1 
5548 1 
5549 3 
5550 1 
5581 1 
5582 2 
5583 1 
5584 1 
5585 3 
5586 1 
5590 1 
5591 2 
5592 1 
5593 1 
5594 3 
5595 1 
5596 1 
5597 3 
5598 1 
5599 1 
5600 3 
5601 1 
5602 1 
5603 3 
5604 1 
5605 1 
5606 2 
5607 1 
5608 1 
5609 2 
5610 1 
5644 1 
5645 3 
5646 1 
5647 1 
5648 3 
5649 1 
5650 1 
5651 3 
5652 1 
5656 1 
5657 3 
5658 1 
5659 1 
5660 2 
5661 1 
5662 1 
5663 3 
5664 1 
5665 1 
5666 3 
5667 1 
5668 1 
5669 2 
5670 1 
5701 1 
5702 2 
5703 1 
5704 1 
5705 2 
5706 1 
5707 1 
5708 2 
5709 1 
5710 1 
5711 3 
5712 1 
5716 1 
5717 2 
5718 1 
5719 1 
5720 3 
5721 1 
5722 1 
5723 2 
5724 1 
5725 1 
5726 2 
5727 1 
5728 1 
5729 2 
5730 1 
5761 1 
5762 3 
5763 1 
5764 1 
5765 2 
5766 1 
5770 1 
5771 2 
5772 1 
5773 1 
5774 2 
5775 1 
5782 1 
5783 2 
5784 1 
5785 1 
5786 3 
5787 1 
5788 1 
5789 3 
5790 1 
5821 1 
5822 3 
5823 1 
5824 1 
5825 3 
5826 1 
5830 1 
5831 3 
5832 1 
5833 1 
5834 2 
5835 1 
5836 1 
5837 2 
5838 1 
5839 1 
5840 2 
5841 1 
5884 1 
5885 2 
5886 1 
5887 1 
5888 3 
5889 1 
5893 1 
5894 2 
5895 1 
5896 1 
5897 2 
5898 1 
5899 1 
5900 3 
5901 1 
5902 1 
5903 3 
5904 1 
5905 1 
5906 2 
5907 1 
5908 1 
5909 2 
5910 1 
5941 1 
5942 3 
5943 1 
5944 1 
5945 3 
5946 1 
5947 1 
5948 2 
5949 1 
5950 1 
5951 3 
5952 1 
5953 1 
5954 3 
5955 1 
5956 1 
5957 3 
5958 1 
5959 1 
5960 3 
5961 1 
5962 1 
5963 2 
5964 1 
5965 1 
5966 3 
5967 1 
5968 1 
5969 3 
5970 1 
6004 1 
6005 2 
6006 1 
6007 1 
6008 3 
6009 1 
6010 1 
6011 3 
6012 1 
6013 1 
6014 2 
6015 1 
6019 1 
6020 2 
6021 1 
6025 1 
6026 3 
6027 1 
6028 1 
6029 3 
6030 1 
6661 1 
6662 2 
6663 1 
6664 1 
6665 2 
6666 1 
6667 1 
6668 3 
6669 1 
6670 1 
6671 2 
6672 1 
6673 1 
6674 3 
6675 1 
6676 1 
6677 2 
6678 1 
6679 1 
6680 2 
6681 1 
6682 1 
6683 2 
6684 1 
6685 1 
6686 2 
6687 1 
6688 1 
6689 3 
6690 1 
6724 1 
6725 3 
6726 1 
6727 1 
6728 2 
6729 1 
6730 1 
6731 3 
6732 1 
6733 1 
6734 2 
6735 1 
6736 1 
6737 3 
6738 1 
6739 1 
6740 2 
6741 1 
6742 1 
6743 3 
6744 1 
6745 1 
6746 2 
6747 1 
6748 1 
6749 2 
6750 1 
6781 1 
6782 2 
6783 1 
6784 1 
6785 3 
6786 1 
6790 1 
6791 3 
6792 1 
6793 1 
6794 2 
6795 1 
6796 1 
6797 3 
6798 1 
6799 1 
6800 3 
6801 1 
6805 1 
6806 3 
6807 1 
6844 1 
6845 3 
6846 1 
6850 1 
6851 3 
6852 1 
6853 1 
6854 2 
6855 1 
6856 1 
6857 3 
6858 1 
6859 1 
6860 3 
6861 1 
6862 1 
6863 2 
6864 1 
6868 1 
6869 2 
6870 1 
6901 1 
6902 2 
6903 1 
6907 1 
6908 2 
6909 1 
6910 1 
6911 3 
6912 1 
6913 1 
6914 2 
6915 1 
6916 1 
6917 2 
6918 1 
6919 1 
6920 3 
6921 1 
6922 1 
6923 3 
6924 1 
6925 1 
6926 3 
6927 1 
6964 1 
6965 3 
6966 1 
6967 1 
6968 3 
6969 1 
6973 1 
6974 2 
6975 1 
6976 1 
6977 3 
6978 1 
6979 1 
6980 2 
6981 1 
6982 1 
6983 2 
6984 1 
6985 1 
6986 3 
6987 1 
6988 1 
6989 2 
6990 1 
7021 1 
7022 2 
7023 1 
7024 1 
7025 2 
7026 1 
7027 1 
7028 2 
7029 1 
7030 1 
7031 2 
7032 1 
7039 1 
7040 3 
7041 1 
7042 1 
7043 3 
7044 1 
7081 1 
7082 3 
7083 1 
7084 1 
7085 3 
7086 1 
7087 1 
7088 3 
7089 1 
7090 1 
7091 2 
7092 1 
7093 1 
7094 2 
7095 1 
7099 1 
7100 2 
7101 1 
7102 1 
7103 2 
7104 1 
7105 1 
7106 3 
7107 1 
7108 1 
7109 3 
7110 1 
7141 1 
7142 3 
7143 1 
7144 1 
7145 2 
7146 1 
7147 1 
7148 3 
7149 1 
7150 1 
7151 2 
7152 1 
7153 1 
7154 3 
7155 1 
7156 1 
7157 2 
7158 1 
7159 1 
7160 3 
7161 1 
7162 1 
7163 3 
7164 1 
7165 1 
7166 3 
7167 1 
7168 1 
7169 3 
7170 1 
7204 1 
7205 2 
7206 1 
7207 1 
7208 3 
7209 1 
7210 1 
7211 3 
7212 1 
7213 1 
7214 3 
7215 1 
7216 1 
7217 2 
7218 1 
7219 1 
7220 3 
7221 1 
7222 1 
7223 2 
7224 1 
7225 1 
7226 2 
7227 1 
7228 1 
7229 2 
7230 1 
7741 1 
7742 2 
7743 1 
7744 1 
7745 2 
7746 1 
7747 1 
7748 2 
7749 1 
7750 1 
7751 2 
7752 1 
7753 1 
7754 3 
7755 1 
7756 1 
7757 2 
7758 1 
7759 1 
7760 2 
7761 1 
7762 1 
7763 2 
7764 1 
7765 1 
7766 3 
7767 1 
7768 1 
7769 2 
7770 1 
7801 1 
7802 3 
7803 1 
7804 1 
7805 2 
7806 1 
7807 1 
7808 3 
7809 1 
7810 1 
7811 3 
7812 1 
7813 1 
7814 3 
7815 1 
7816 1 
7817 2 
7818 1 
7819 1 
7820 2 
7821 1 
7822 1 
7823 3 
7824 1 
7825 1 
7826 2 
7827 1 
7828 1 
7829 2 
7830 1 
7861 1 
7862 3 
7863 1 
7864 1 
7865 3 
7866 1 
7870 1 
7871 3 
7872 1 
7873 1 
7874 2 
7875 1 
7876 1 
7877 2 
7878 1 
7879 1 
7880 2 
7881 1 
7882 1 
7883 3 
7884 1 
7885 1 
7886 3 
7887 1 
7888 1 
7889 2 
7890 1 
7921 1 
7922 2 
7923 1 
7924 1 
7925 2 
7926 1 
7930 1 
7931 2 
7932 1 
7933 1 
7934 2 
7935 1 
7936 1 
7937 3 
7938 1 
7942 1 
7943 2 
7944 1 
7948 1 
7949 3 
7950 1 
7981 1 
7982 3 
7983 1 
7984 1 
7985 2 
7986 1 
7987 1 
7988 3 
7989 1 
7990 1 
7991 3 
7992 1 
7996 1 
7997 3 
7998 1 
7999 1 
8000 3 
8001 1 
8002 1 
8003 2 
8004 1 
8005 1 
8006 2 
8007 1 
8008 1 
8009 3 
8010 1 
8041 1 
8042 2 
8043 1 
8044 1 
8045 2 
8046 1 
8047 1 
8048 3 
8049 1 
8050 1 
8051 3 
8052 1 
8053 1 
8054 3 
8055 1 
8056 1 
8057 3 
8058 1 
8059 1 
8060 2 
8061 1 
8062 1 
8063 2 
8064 1 
8065 1 
8066 2 
8067 1 
8068 1 
8069 3 
8070 1 
8101 1 
8102 3 
8103 1 
8104 1 
8105 3 
8106 1 
8107 1 
8108 2 
8109 1 
8110 1 
8111 3 
8112 1 
8113 1 
8114 2 
8115 1 
8116 1 
8117 2 
8118 1 
8119 1 
8120 3 
8121 1 
8125 1 
8126 3 
8127 1 
8128 1 
8129 2 
8130 1 
8161 1 
8162 2 
8163 1 
8167 1 
8168 2 
8169 1 
8170 1 
8171 2 
8172 1 
8173 1 
8174 2 
8175 1 
8182 1 
8183 2 
8184 1 
8188 1 
8189 3 
8190 1 
8221 1 
8222 3 
8223 1 
8224 1 
8225 3 
8226 1 
8227 1 
8228 3 
8229 1 
8230 1 
8231 2 
8232 1 
8233 1 
8234 3 
8235 1 
8236 1 
8237 2 
8238 1 
8239 1 
8240 2 
8241 1 
8242 1 
8243 2 
8244 1 
8245 1 
8246 2 
8247 1 
8281 1 
8282 3 
8283 1 
8287 1 
8288 2 
8289 1 
8290 1 
8291 3 
8292 1 
8293 1 
8294 2 
8295 1 
8299 1 
8300 3 
8301 1 
8302 1 
8303 2 
8304 1 
8308 1 
8309 2 
8310 1 
8881 1 
8882 3 
8883 1 
8884 1 
8885 3 
8886 1 
8887 1 
8888 2 
8889 1 
8890 1 
8891 2 
8892 1 
8893 1 
8894 2 
8895 1 
8896 1 
8897 2 
8898 1 
8899 1 
8900 2 
8901 1 
8905 1 
8906 2 
8907 1 
8908 1 
8909 3 
8910 1 
8941 1 
8942 3 
8943 1 
8953 1 
8954 2 
8955 1 
8956 1 
8957 2 
8958 1 
8959 1 
8960 3 
8961 1 
8962 1 
8963 3 
8964 1 
8965 1 
8966 2 
8967 1 
8968 1 
8969 3 
8970 1 
9001 1 
9002 3 
9003 1 
9004 1 
9005 2 
9006 1 
9007 1 
9008 2 
9009 1 
9010 1 
9011 2 
9012 1 
9013 1 
9014 3 
9015 1 
9019 1 
9020 3 
9021 1 
9022 1 
9023 2 
9024 1 
9025 1 
9026 2 
9027 1 
9061 1 
9062 3 
9063 1 
9064 1 
9065 3 
9066 1 
9067 1 
9068 3 
9069 1 
9070 1 
9071 2 
9072 1 
9073 1 
9074 2 
9075 1 
9076 1 
9077 2 
9078 1 
9079 1 
9080 3 
9081 1 
9082 1 
9083 2 
9084 1 
9088 1 
9089 2 
9090 1 
9121 1 
9122 2 
9123 1 
9124 1 
9125 3 
9126 1 
9127 1 
9128 3 
9129 1 
9130 1 
9131 3 
9132 1 
9133 1 
9134 3 
9135 1 
9139 1 
9140 2 
9141 1 
9142 1 
9143 2 
9144 1 
9145 1 
9146 3 
9147 1 
9148 1 
9149 3 
9150 1 
9181 1 
9182 2 
9183 1 
9187 1 
9188 2 
9189 1 
9190 1 
9191 3 
9192 1 
9196 1 
9197 2 
9198 1 
9202 1 
9203 3 
9204 1 
9205 1 
9206 3 
9207 1 
9244 1 
9245 2 
9246 1 
9247 1 
9248 3 
9249 1 
9256 1 
9257 3 
9258 1 
9259 1 
9260 3 
9261 1 
9262 1 
9263 3 
9264 1 
9265 1 
9266 3 
9267 1 
9268 1 
9269 2 
9270 1 
9301 1 
9302 3 
9303 1 
9304 1 
9305 2 
9306 1 
9310 1 
9311 2 
9312 1 
9313 1 
9314 3 
9315 1 
9316 1 
9317 2 
9318 1 
9319 1 
9320 2 
9321 1 
9322 1 
9323 2 
9324 1 
9325 1 
9326 2 
9327 1 
9328 1 
9329 2 
9330 1 
9961 1 
9962 3 
9963 1 
9964 1 
9965 2 
9966 1 
9970 1 
9971 2 
9972 1 
9973 1 
9974 3 
9975 1 
9976 1 
9977 3 
9978 1 
9979 1 
9980 2 
9981 1 
9982 1 
9983 2 
9984 1 
9985 1 
9986 3 
9987 1 
9988 1 
9989 2 
9990 1 
10021 1 
10022 3 
10023 1 
10024 1 
10025 3 
10026 1 
10027 1 
10028 3 
10029 1 
10030 1 
10031 3 
10032 1 
10036 1 
10037 2 
10038 1 
10039 1 
10040 3 
10041 1 
10042 1 
10043 3 
10044 1 
10045 1 
10046 3 
10047 1 
10081 1 
10082 3 
10083 1 
10084 1 
10085 2 
10086 1 
10087 1 
10088 3 
10089 1 
10090 1 
10091 3 
10092 1 
10093 1 
10094 3 
10095 1 
10096 1 
10097 2 
10098 1 
10099 1 
10100 2 
10101 1 
10102 1 
10103 3 
10104 1 
10105 1 
10106 3 
10107 1 
10108 1 
10109 2 
10110 1 
10141 1 
10142 3 
10143 1 
10144 1 
10145 2 
10146 1 
10147 1 
10148 3 
10149 1 
10150 1 
10151 3 
10152 1 
10153 1 
10154 2 
10155 1 
10156 1 
10157 3 
10158 1 
10159 1 
10160 3 
10161 1 
10162 1 
10163 3 
10164 1 
10165 1 
10166 2 
10167 1 
10168 1 
10169 2 
10170 1 
10204 1 
10205 2 
10206 1 
10207 1 
10208 3 
10209 1 
10210 1 
10211 3 
10212 1 
10213 1 
10214 3 
10215 1 
10216 1 
10217 3 
10218 1 
10219 1 
10220 2 
10221 1 
10222 1 
10223 3 
10224 1 
10225 1 
10226 3 
10227 1 
10228 1 
10229 2 
10230 1 
10261 1 
10262 3 
10263 1 
10264 1 
10265 2 
10266 1 
10267 1 
10268 2 
10269 1 
10270 1 
10271 2 
10272 1 
10273 1 
10274 2 
10275 1 
10276 1 
10277 3 
10278 1 
10279 1 
10280 3 
10281 1 
10282 1 
10283 2 
10284 1 
10285 1 
10286 3 
10287 1 
10288 1 
10289 3 
10290 1 
10321 1 
10322 3 
10323 1 
10324 1 
10325 3 
10326 1 
10327 1 
10328 3 
10329 1 
10330 1 
10331 2 
10332 1 
10333 1 
10334 3 
10335 1 
10336 1 
10337 2 
10338 1 
10339 1 
10340 3 
10341 1 
10342 1 
10343 2 
10344 1 
10348 1 
10349 3 
10350 1 
10384 1 
10385 3 
10386 1 
10387 1 
10388 2 
10389 1 
10390 1 
10391 3 
10392 1 
10393 1 
10394 3 
10395 1 
10396 1 
10397 3 
10398 1 
10399 1 
10400 2 
10401 1 
10402 1 
10403 2 
10404 1 
10405 1 
10406 3 
10407 1 
10408 1 
10409 3 
10410 1 
10441 1 
10442 2 
10443 1 
10444 1 
10445 3 
10446 1 
10450 1 
10451 2 
10452 1 
10453 1 
10454 3 
10455 1 
10456 1 
10457 3 
10458 1 
10459 1 
10460 3 
10461 1 
10462 1 
10463 2 
10464 1 
10465 1 
10466 2 
10467 1 
10468 1 
10469 3 
10470 1 
10501 1 
10502 3 
10503 1 
10504 1 
10505 3 
10506 1 
10507 1 
10508 3 
10509 1 
10510 1 
10511 2 
10512 1 
10513 1 
10514 2 
10515 1 
10516 1 
10517 2 
10518 1 
10519 1 
10520 2 
10521 1 
10522 1 
10523 3 
10524 1 
10525 1 
10526 3 
10527 1 
11101 1 
11102 2 
11103 1 
11104 1 
11105 2 
11106 1 
11107 1 
11108 2 
11109 1 
11110 1 
11111 2 
11112 1 
11113 1 
11114 2 
11115 1 
11116 1 
11117 3 
11118 1 
11119 1 
11120 3 
11121 1 
11122 1 
11123 3 
11124 1 
11128 1 
11129 3 
11130 1 
11161 1 
11162 3 
11163 1 
11164 1 
11165 3 
11166 1 
11167 1 
11168 3 
11169 1 
11170 1 
11171 3 
11172 1 
11173 1 
11174 2 
11175 1 
11179 1 
11180 3 
11181 1 
11182 1 
11183 3 
11184 1 
11185 1 
11186 2 
11187 1 
11221 1 
11222 3 
11223 1 
11224 1 
11225 2 
11226 1 
11227 1 
11228 2 
11229 1 
11230 1 
11231 2 
11232 1 
11236 1 
11237 3 
11238 1 
11239 1 
11240 3 
11241 1 
11248 1 
11249 2 
11250 1 
11281 1 
11282 2 
11283 1 
11284 1 
11285 3 
11286 1 
11290 1 
11291 2 
11292 1 
11293 1 
11294 2 
11295 1 
11296 1 
11297 2 
11298 1 
11299 1 
11300 3 
11301 1 
11302 1 
11303 2 
11304 1 
11305 1 
11306 2 
11307 1 
11308 1 
11309 2 
11310 1 
11341 1 
11342 3 
11343 1 
11344 1 
11345 2 
11346 1 
11347 1 
11348 3 
11349 1 
11353 1 
11354 2 
11355 1 
11356 1 
11357 3 
11358 1 
11359 1 
11360 3 
11361 1 
11362 1 
11363 3 
11364 1 
11365 1 
11366 2 
11367 1 
11368 1 
11369 3 
11370 1 
11401 1 
11402 2 
11403 1 
11404 1 
11405 3 
11406 1 
11407 1 
11408 3 
11409 1 
11410 1 
11411 3 
11412 1 
11413 1 
11414 3 
11415 1 
11416 1 
11417 3 
11418 1 
11419 1 
11420 3 
11421 1 
11422 1 
11423 2 
11424 1 
11461 1 
11462 3 
11463 1 
11467 1 
11468 2 
11469 1 
11470 1 
11471 3 
11472 1 
11473 1 
11474 3 
11475 1 
11476 1 
11477 3 
11478 1 
11479 1 
11480 3 
11481 1 
11482 1 
11483 3 
11484 1 
11485 1 
11486 2 
11487 1 
11488 1 
11489 3 
11490 1 
12061 1 
12062 2 
12063 1 
12064 1 
12065 2 
12066 1 
12067 1 
12068 3 
12069 1 
12070 1 
12071 2 
12072 1 
12073 1 
12074 3 
12075 1 
12076 1 
12077 3 
12078 1 
12082 1 
12083 2 
12084 1 
12085 1 
12086 2 
12087 1 
12088 1 
12089 2 
12090 1 
12121 1 
12122 3 
12123 1 
12124 1 
12125 2 
12126 1 
12127 1 
12128 3 
12129 1 
12130 1 
12131 3 
12132 1 
12133 1 
12134 3 
12135 1 
12136 1 
12137 2 
12138 1 
12139 1 
12140 2 
12141 1 
12142 1 
12143 3 
12144 1 
12148 1 
12149 2 
12150 1 
12181 1 
12182 3 
12183 1 
12184 1 
12185 2 
12186 1 
12187 1 
12188 2 
12189 1 
12190 1 
12191 2 
12192 1 
12193 1 
12194 3 
12195 1 
12196 1 
12197 3 
12198 1 
12199 1 
12200 3 
12201 1 
12202 1 
12203 3 
12204 1 
12205 1 
12206 3 
12207 1 
12244 1 
12245 2 
12246 1 
12247 1 
12248 3 
12249 1 
12253 1 
12254 3 
12255 1 
12256 1 
12257 2 
12258 1 
12259 1 
12260 3 
12261 1 
12262 1 
12263 3 
12264 1 
12265 1 
12266 2 
12267 1 
12268 1 
12269 3 
12270 1 
12301 1 
12302 2 
12303 1 
12304 1 
12305 3 
12306 1 
12307 1 
12308 2 
12309 1 
12310 1 
12311 2 
12312 1 
12316 1 
12317 3 
12318 1 
12325 1 
12326 3 
12327 1 
12328 1 
12329 3 
12330 1 
12364 1 
12365 3 
12366 1 
12367 1 
12368 2 
12369 1 
12370 1 
12371 3 
12372 1 
12376 1 
12377 2 
12378 1 
12382 1 
12383 3 
12384 1 
12385 1 
12386 3 
12387 1 
12388 1 
12389 2 
12390 1 
12421 1 
12422 3 
12423 1 
12424 1 
12425 3 
12426 1 
12427 1 
12428 3 
12429 1 
12430 1 
12431 3 
12432 1 
12433 1 
12434 3 
12435 1 
12436 1 
12437 2 
12438 1 
12439 1 
12440 3 
12441 1 
12442 1 
12443 2 
12444 1 
12445 1 
12446 3 
12447 1 
12448 1 
12449 3 
12450 1 
12484 1 
12485 2 
12486 1 
12487 1 
12488 3 
12489 1 
12493 1 
12494 3 
12495 1 
12496 1 
12497 3 
12498 1 
12499 1 
12500 2 
12501 1 
12505 1 
12506 2 
12507 1 
12544 1 
12545 2 
12546 1 
12547 1 
12548 3 
12549 1 
12550 1 
12551 3 
12552 1 
12556 1 
12557 3 
12558 1 
12559 1 
12560 3 
12561 1 
12562 1 
12563 2 
12564 1 
12565 1 
12566 3 
12567 1 
12568 1 
12569 2 
12570 1 
12601 1 
12602 2 
12603 1 
12604 1 
12605 3 
12606 1 
12607 1 
12608 3 
12609 1 
12610 1 
12611 3 
12612 1 
12616 1 
12617 3 
12618 1 
12622 1 
12623 3 
12624 1 
12625 1 
12626 3 
12627 1 
12628 1 
12629 3 
12630 1 
13141 1 
13142 2 
13143 1 
13147 1 
13148 2 
13149 1 
13153 1 
13154 2 
13155 1 
13156 1 
13157 3 
13158 1 
13162 1 
13163 2 
13164 1 
13165 1 
13166 2 
13167 1 
13168 1 
13169 2 
13170 1 
13201 1 
13202 3 
13203 1 
13204 1 
13205 3 
13206 1 
13207 1 
13208 3 
13209 1 
13213 1 
13214 3 
13215 1 
13216 1 
13217 3 
13218 1 
13219 1 
13220 2 
13221 1 
13222 1 
13223 2 
13224 1 
13225 1 
13226 3 
13227 1 
13264 1 
13265 2 
13266 1 
13267 1 
13268 3 
13269 1 
13270 1 
13271 2 
13272 1 
13276 1 
13277 3 
13278 1 
13279 1 
13280 2 
13281 1 
13282 1 
13283 2 
13284 1 
13285 1 
13286 2 
13287 1 
13288 1 
13289 2 
13290 1 
13321 1 
13322 2 
13323 1 
13324 1 
13325 2 
13326 1 
13327 1 
13328 2 
13329 1 
13330 1 
13331 2 
13332 1 
13336 1 
13337 2 
13338 1 
13345 1 
13346 2 
13347 1 
13384 1 
13385 2 
13386 1 
13390 1 
13391 2 
13392 1 
13396 1 
13397 2 
13398 1 
13399 1 
13400 3 
13401 1 
13405 1 
13406 2 
13407 1 
13408 1 
13409 2 
13410 1 
13441 1 
13442 3 
13443 1 
13444 1 
13445 3 
13446 1 
13450 1 
13451 2 
13452 1 
13453 1 
13454 2 
13455 1 
13459 1 
13460 3 
13461 1 
13462 1 
13463 3 
13464 1 
13465 1 
13466 3 
13467 1 
13468 1 
13469 2 
13470 1 
13501 1 
13502 3 
13503 1 
13504 1 
13505 2 
13506 1 
13507 1 
13508 2 
13509 1 
13510 1 
13511 2 
13512 1 
13513 1 
13514 3 
13515 1 
13519 1 
13520 3 
13521 1 
13522 1 
13523 2 
13524 1 
13525 1 
13526 2 
13527 1 
13528 1 
13529 2 
13530 1 
13561 1 
13562 3 
13563 1 
13564 1 
13565 2 
13566 1 
13567 1 
13568 2 
13569 1 
13570 1 
13571 3 
13572 1 
13573 1 
13574 2 
13575 1 
13576 1 
13577 2 
13578 1 
13579 1 
13580 2 
13581 1 
13588 1 
13589 3 
13590 1 
14221 1 
14222 2 
14223 1 
14224 1 
14225 3 
14226 1 
14227 1 
14228 3 
14229 1 
14230 1 
14231 3 
14232 1 
14233 1 
14234 2 
14235 1 
14236 1 
14237 2 
14238 1 
14239 1 
14240 3 
14241 1 
14242 1 
14243 2 
14244 1 
14245 1 
14246 2 
14247 1 
14248 1 
14249 3 
14250 1 
14281 1 
14282 2 
14283 1 
14284 1 
14285 3 
14286 1 
14287 1 
14288 3 
14289 1 
14290 1 
14291 3 
14292 1 
14293 1 
14294 3 
14295 1 
14296 1 
14297 2 
14298 1 
14302 1 
14303 3 
14304 1 
14305 1 
14306 2 
14307 1 
14308 1 
14309 2 
14310 1 
14341 1 
14342 2 
14343 1 
14347 1 
14348 3 
14349 1 
14353 1 
14354 2 
14355 1 
14356 1 
14357 3 
14358 1 
14359 1 
14360 2 
14361 1 
14365 1 
14366 2 
14367 1 
14368 1 
14369 2 
14370 1 
14401 1 
14402 3 
14403 1 
14404 1 
14405 3 
14406 1 
14407 1 
14408 3 
14409 1 
14410 1 
14411 3 
14412 1 
14413 1 
14414 3 
14415 1 
14416 1 
14417 2 
14418 1 
14419 1 
14420 2 
14421 1 
14422 1 
14423 2 
14424 1 
14425 1 
14426 3 
14427 1 
14464 1 
14465 3 
14466 1 
14470 1 
14471 3 
14472 1 
14473 1 
14474 3 
14475 1 
14479 1 
14480 3 
14481 1 
14482 1 
14483 3 
14484 1 
14485 1 
14486 2 
14487 1 
14488 1 
14489 2 
14490 1 
14521 1 
14522 2 
14523 1 
14524 1 
14525 3 
14526 1 
14527 1 
14528 3 
14529 1 
14530 1 
14531 3 
14532 1 
14533 1 
14534 2 
14535 1 
14536 1 
14537 3 
14538 1 
14539 1 
14540 3 
14541 1 
14542 1 
14543 3 
14544 1 
14545 1 
14546 3 
14547 1 
14548 1 
14549 3 
14550 1 
14581 1 
14582 3 
14583 1 
14584 1 
14585 2 
14586 1 
14587 1 
14588 2 
14589 1 
14590 1 
14591 2 
14592 1 
14593 1 
14594 3 
14595 1 
14602 1 
14603 3 
14604 1 
14605 1 
14606 3 
14607 1 
14641 1 
14642 3 
14643 1 
14644 1 
14645 2 
14646 1 
14647 1 
14648 2 
14649 1 
14650 1 
14651 2 
14652 1 
14653 1 
14654 3 
14655 1 
14656 1 
14657 2 
14658 1 
14659 1 
14660 2 
14661 1 
14662 1 
14663 3 
14664 1 
14665 1 
14666 3 
14667 1 
15301 1 
15302 3 
15303 1 
15304 1 
15305 3 
15306 1 
15307 1 
15308 3 
15309 1 
15313 1 
15314 3 
15315 1 
15316 1 
15317 2 
15318 1 
15319 1 
15320 3 
15321 1 
15322 1 
15323 2 
15324 1 
15325 1 
15326 2 
15327 1 
15361 1 
15362 2 
15363 1 
15364 1 
15365 3 
15366 1 
15373 1 
15374 3 
15375 1 
15376 1 
15377 2 
15378 1 
15379 1 
15380 2 
15381 1 
15382 1 
15383 3 
15384 1 
15385 1 
15386 2 
15387 1 
15388 1 
15389 2 
15390 1 
15421 1 
15422 3 
15423 1 
15424 1 
15425 2 
15426 1 
15427 1 
15428 2 
15429 1 
15430 1 
15431 3 
15432 1 
15433 1 
15434 3 
15435 1 
15436 1 
15437 3 
15438 1 
15439 1 
15440 3 
15441 1 
15442 1 
15443 2 
15444 1 
15445 1 
15446 2 
15447 1 
15448 1 
15449 3 
15450 1 
15481 1 
15482 3 
15483 1 
15484 1 
15485 2 
15486 1 
15487 1 
15488 2 
15489 1 
15490 1 
15491 3 
15492 1 
15496 1 
15497 2 
15498 1 
15499 1 
15500 2 
15501 1 
15505 1 
15506 2 
15507 1 
15508 1 
15509 3 
15510 1 
15541 1 
15542 2 
15543 1 
15544 1 
15545 2 
15546 1 
15547 1 
15548 3 
15549 1 
15550 1 
15551 2 
15552 1 
15556 1 
15557 3 
15558 1 
15559 1 
15560 3 
15561 1 
15562 1 
15563 3 
15564 1 
15565 1 
15566 3 
15567 1 
15568 1 
15569 3 
15570 1 
15601 1 
15602 3 
15603 1 
15604 1 
15605 3 
15606 1 
15610 1 
15611 2 
15612 1 
15613 1 
15614 2 
15615 1 
15616 1 
15617 2 
15618 1 
15622 1 
15623 3 
15624 1 
15625 1 
15626 2 
15627 1 
15628 1 
15629 2 
15630 1 
15664 1 
15665 2 
15666 1 
15667 1 
15668 3 
15669 1 
15673 1 
15674 2 
15675 1 
15676 1 
15677 2 
15678 1 
15679 1 
15680 3 
15681 1 
15682 1 
15683 2 
15684 1 
15685 1 
15686 2 
15687 1 
15688 1 
15689 3 
15690 1 
15721 1 
15722 2 
15723 1 
15724 1 
15725 3 
15726 1 
15727 1 
15728 2 
15729 1 
15730 1 
15731 2 
15732 1 
15733 1 
15734 3 
15735 1 
15736 1 
15737 3 
15738 1 
15739 1 
15740 3 
15741 1 
15742 1 
15743 2 
15744 1 
15745 1 
15746 3 
15747 1 
15748 1 
15749 2 
15750 1 
16321 1 
16322 3 
16323 1 
16327 1 
16328 2 
16329 1 
16330 1 
16331 2 
16332 1 
16333 1 
16334 3 
16335 1 
16336 1 
16337 2 
16338 1 
16342 1 
16343 2 
16344 1 
16345 1 
16346 3 
16347 1 
16381 1 
16382 2 
16383 1 
16390 1 
16391 3 
16392 1 
16396 1 
16397 2 
16398 1 
16399 1 
16400 2 
16401 1 
16402 1 
16403 3 
16404 1 
16405 1 
16406 2 
16407 1 
16408 1 
16409 3 
16410 1 
16441 1 
16442 2 
16443 1 
16444 1 
16445 2 
16446 1 
16447 1 
16448 2 
16449 1 
16450 1 
16451 2 
16452 1 
16453 1 
16454 3 
16455 1 
16456 1 
16457 3 
16458 1 
16462 1 
16463 2 
16464 1 
16465 1 
16466 3 
16467 1 
16468 1 
16469 3 
16470 1 
16501 1 
16502 3 
16503 1 
16504 1 
16505 2 
16506 1 
16507 1 
16508 2 
16509 1 
16510 1 
16511 3 
16512 1 
16516 1 
16517 3 
16518 1 
16519 1 
16520 3 
16521 1 
16522 1 
16523 2 
16524 1 
16528 1 
16529 3 
16530 1 
16561 1 
16562 2 
16563 1 
16564 1 
16565 2 
16566 1 
16567 1 
16568 2 
16569 1 
16570 1 
16571 2 
16572 1 
16573 1 
16574 3 
16575 1 
16576 1 
16577 2 
16578 1 
16579 1 
16580 2 
16581 1 
16582 1 
16583 2 
16584 1 
16588 1 
16589 3 
16590 1 
16621 1 
16622 3 
16623 1 
16624 1 
16625 2 
16626 1 
16627 1 
16628 2 
16629 1 
16630 1 
16631 3 
16632 1 
16633 1 
16634 3 
16635 1 
16636 1 
16637 2 
16638 1 
16642 1 
16643 3 
16644 1 
16645 1 
16646 2 
16647 1 
16648 1 
16649 3 
16650 1 
16681 1 
16682 3 
16683 1 
16684 1 
16685 2 
16686 1 
16687 1 
16688 2 
16689 1 
16690 1 
16691 2 
16692 1 
16693 1 
16694 2 
16695 1 
16702 1 
16703 3 
16704 1 
16705 1 
16706 3 
16707 1 
17281 1 
17282 2 
17283 1 
17287 1 
17288 3 
17289 1 
17290 1 
17291 2 
17292 1 
17293 1 
17294 3 
17295 1 
17296 1 
17297 3 
17298 1 
17302 1 
17303 3 
17304 1 
17305 1 
17306 2 
17307 1 
17341 1 
17342 3 
17343 1 
17347 1 
17348 3 
17349 1 
17353 1 
17354 3 
17355 1 
17356 1 
17357 3 
17358 1 
17359 1 
17360 3 
17361 1 
17362 1 
17363 2 
17364 1 
17365 1 
17366 2 
17367 1 
17368 1 
17369 2 
17370 1 
17401 1 
17402 3 
17403 1 
17404 1 
17405 2 