ITEM: TIMESTEP
20000000
ITEM: NUMBER OF ATOMS
435
ITEM: BOX BOUNDS pp pp pp
0.0000000000000000e+00 5.0000000000000000e+01
0.0000000000000000e+00 5.0000000000000000e+01
0.0000000000000000e+00 5.0000000000000000e+01
ITEM: ATOMS id type xs ys zs
8349 1 0.688407 0.460687 0.0308892
8348 3 0.692218 0.467493 0.0294782
3420 1 0.675544 0.489216 0.0170224
12374 3 0.694466 0.475942 0.0113592
12375 1 0.689697 0.471026 0.00659166
3419 3 0.671754 0.496561 0.0207848
8347 1 0.698963 0.471217 0.0256157
20431 1 0.709561 0.489128 0.018541
19125 1 0.723823 0.478897 0.0222941
20433 1 0.721004 0.480399 0.0229484
20432 3 0.714627 0.483562 0.0225976
12490 1 0.70754 0.490919 0.0176219
17100 1 0.723289 0.49348 0.00631561
12373 1 0.698096 0.48158 0.0165855
19158 1 0.720786 0.49226 0.00499613
19157 3 0.714214 0.489964 0.00111988
12491 3 0.702405 0.495918 0.0160167
15146 3 0.74413 0.478461 9.06294e-05
19124 3 0.730791 0.475186 0.0216315
19123 1 0.738528 0.473497 0.0195193
15145 1 0.74918 0.483093 0.00406965
17099 3 0.730927 0.496724 0.0091486
14705 3 0.754077 0.49876 0.0288957
17098 1 0.737989 0.499249 0.00695546
21084 1 0.782876 0.469542 0.028974
21083 3 0.777448 0.475275 0.0303968
21082 1 0.769598 0.478407 0.0311162
10174 1 0.746935 0.467593 0.037717
10175 3 0.742445 0.461153 0.0370863
10176 1 0.740313 0.453738 0.035382
1480 1 0.727852 0.462017 0.059925
1481 3 0.729571 0.467492 0.0539881
5219 3 0.743815 0.447515 0.0536091
5218 1 0.746302 0.440566 0.0554177
16248 1 0.750665 0.454908 0.0580265
5220 1 0.748586 0.453205 0.0573417
11002 1 0.727721 0.460149 0.0621661
16247 3 0.756612 0.460087 0.0607978
16246 1 0.76337 0.463598 0.0586507
487 1 0.661467 0.489071 0.0477536
488 2 0.667138 0.487557 0.0423926
489 1 0.674971 0.486487 0.040921
439 1 0.677507 0.486079 0.040381
441 1 0.694703 0.489546 0.0369288
440 3 0.686223 0.485813 0.0385533
3962 3 0.696764 0.488479 0.0623231
9600 1 0.697691 0.490522 0.0368271
20913 1 0.714194 0.479624 0.0481299
20912 3 0.711604 0.481098 0.0557555
17779 1 0.726727 0.487063 0.0389096
9599 3 0.704701 0.492244 0.0379108
20911 1 0.706078 0.484146 0.0590455
3961 1 0.703734 0.485178 0.0602062
172 1 0.72461 0.497765 0.0599357
838 1 0.723086 0.497724 0.0624242
9598 1 0.706797 0.498858 0.0417158
174 1 0.737314 0.498993 0.0563624
173 3 0.730012 0.499501 0.0542527
17781 1 0.730318 0.474924 0.045198
1482 1 0.730222 0.472659 0.0473126
17780 3 0.730294 0.481815 0.0408931
11425 1 0.748112 0.470029 0.0380325
11426 3 0.752164 0.47605 0.0383561
5390 3 0.748104 0.496011 0.0569425
5389 1 0.755252 0.498744 0.0566331
5391 1 0.740397 0.498686 0.056886
20079 1 0.758087 0.499993 0.0570701
11427 1 0.758368 0.480294 0.0383502
2726 3 0.764888 0.479114 0.0577528
2727 1 0.765336 0.475324 0.0513214
9028 1 0.908449 0.487232 0.0473387
9029 3 0.912324 0.482543 0.0528368
9030 1 0.917179 0.475816 0.0514442
8012 3 0.70382 0.466305 0.090515
4482 1 0.737965 0.442467 0.0879767
4481 2 0.734888 0.44736 0.0830845
4480 1 0.732608 0.449912 0.0764358
11004 1 0.731513 0.451226 0.0736581
11003 3 0.727654 0.454771 0.067604
2171 3 0.69984 0.494156 0.0814138
2172 1 0.697556 0.491739 0.0735794
3963 1 0.697088 0.491201 0.0701675
8011 1 0.711184 0.469756 0.0924154
18582 1 0.714365 0.470478 0.0930374
10996 1 0.725111 0.476613 0.0858846
18580 1 0.724677 0.475285 0.0884664
2170 1 0.706123 0.496065 0.0860596
839 3 0.718993 0.496728 0.070722
20027 3 0.740787 0.495499 0.0792302
10998 1 0.733374 0.485622 0.0791894
20026 1 0.735108 0.487598 0.0790898
10997 3 0.727707 0.479143 0.0792698
8512 1 0.779476 0.499058 0.0714711
2725 1 0.764335 0.483071 0.0647286
3111 1 0.763837 0.484002 0.0671576
8513 3 0.784462 0.493349 0.070636
3110 3 0.762007 0.487327 0.0734882
3109 1 0.759593 0.490181 0.0806925
19067 3 0.758495 0.492835 0.0918394
19068 1 0.759386 0.491042 0.0834011
8514 1 0.792895 0.490952 0.0691453
18974 2 0.693807 0.452067 0.0982367
18975 1 0.695004 0.444159 0.0955672
18973 1 0.698386 0.458012 0.0948745
8013 1 0.69979 0.460178 0.0939011
18581 3 0.72202 0.472795 0.0945959
5796 1 0.713183 0.486434 0.113585
5795 3 0.707793 0.485463 0.119426
5794 1 0.702235 0.488774 0.123514
808 1 0.728503 0.493445 0.114143
12288 1 0.752998 0.488494 0.113624
12287 3 0.753996 0.48641 0.121563
810 1 0.730651 0.498361 0.102115
4630 1 0.727843 0.493159 0.117231
809 3 0.730286 0.492789 0.106885
19066 1 0.764808 0.494521 0.096842
4631 3 0.726003 0.494003 0.125368
4632 1 0.729464 0.491376 0.132557
12286 1 0.757793 0.481203 0.126162
21088 1 0.731937 0.45516 0.995686
21089 3 0.733801 0.446682 0.997148
15017 3 0.732434 0.465368 0.994177
15016 1 0.732294 0.458438 0.995476
21090 1 0.73614 0.439026 0.999503
11392 1 0.696407 0.488003 0.982927
11393 3 0.700525 0.492188 0.987507
19156 1 0.709586 0.490647 0.994083
11394 1 0.707301 0.490967 0.991867
15147 1 0.739895 0.472001 0.997019
15018 1 0.737825 0.470175 0.99603
3745 1 0.665744 0.530032 0.0201572
12161 3 0.679801 0.508027 0.0079649
14609 3 0.696248 0.513254 0.0260675
14608 1 0.694152 0.520524 0.0232338
3418 1 0.674474 0.50182 0.0154072
3746 3 0.667262 0.524265 0.0260715
3747 1 0.67195 0.520089 0.0303459
12160 1 0.684028 0.512815 0.00369557
12162 1 0.676019 0.503708 0.0135671
12492 1 0.696196 0.500937 0.018168
14610 1 0.698705 0.505314 0.0261798
15994 1 0.71351 0.511254 0.0108533
10662 1 0.714863 0.510865 0.0138284
15995 3 0.710281 0.512461 0.00349373
10661 3 0.718949 0.510293 0.0211099
10660 1 0.724375 0.506421 0.0260641
2794 1 0.72647 0.504798 0.0272234
2795 3 0.732847 0.501284 0.0298728
2838 1 0.755398 0.505267 0.0072553
2837 3 0.748707 0.503136 0.00396015
2756 3 0.737493 0.521886 0.0210105
2757 1 0.731449 0.523368 0.0262067
2755 1 0.744186 0.522772 0.0148224
8206 1 0.746644 0.523147 0.0122696
8207 3 0.752087 0.525179 0.00702334
2796 1 0.74174 0.500663 0.0302656
2836 1 0.740849 0.500519 0.00611401
14706 1 0.74496 0.500562 0.03022
788 3 0.764745 0.506963 0.0123791
789 1 0.758272 0.505723 0.00850004
3595 1 0.77101 0.515431 0.0110902
787 1 0.769465 0.51309 0.0113972
3596 3 0.774562 0.522317 0.0102946
14704 1 0.760739 0.500866 0.0305162
3597 1 0.775683 0.53022 0.00758351
8208 1 0.759527 0.523101 0.00805862
763 1 0.66508 0.531674 0.0173948
764 3 0.663252 0.537591 0.0119449
765 1 0.669695 0.542654 0.00812176
20169 1 0.671966 0.544952 0.00710335
20168 3 0.679235 0.549652 0.00593623
15632 3 0.695667 0.536167 0.026506
8903 3 0.719779 0.533732 0.0190719
8902 1 0.719262 0.53355 0.0117022
20362 1 0.720029 0.532707 0.00863466
8904 1 0.725369 0.536594 0.0246741
20244 1 0.727198 0.537549 0.0262832
12343 1 0.704548 0.54381 0.0307854
15631 1 0.702066 0.541651 0.0294025
20363 3 0.722432 0.532235 0.00152456
13161 1 0.744326 0.553955 0.0132329
8323 1 0.743266 0.551193 0.0121645
8324 3 0.740466 0.543956 0.00953028
13160 3 0.748967 0.560693 0.0161607
20243 3 0.733395 0.540139 0.0292593
427 1 0.756841 0.533014 0.0266178
428 3 0.752852 0.537245 0.0308541
8325 1 0.742909 0.535246 0.00778075
7341 1 0.768013 0.56023 0.0232656
11877 1 0.805724 0.545587 0.0124707
11876 3 0.806203 0.545174 0.0204435
11875 1 0.809408 0.54243 0.0275867
13159 1 0.754168 0.563702 0.0219296
3505 1 0.773344 0.578426 0.00171788
3506 3 0.772128 0.581176 0.00849707
7339 1 0.772011 0.57221 0.0164929
3507 1 0.771844 0.574736 0.0142315
7340 3 0.772241 0.565836 0.020588
14337 1 0.673471 0.518251 0.0320596
14336 3 0.677538 0.51345 0.0363356
14335 1 0.678698 0.514572 0.0445383
11190 1 0.679458 0.514556 0.0479289
11189 3 0.68115 0.514129 0.0552342
11188 1 0.683333 0.518464 0.0613121
6109 1 0.712963 0.513527 0.0439994
6110 3 0.7111 0.506984 0.0485639
10719 1 0.713722 0.515956 0.0427452
10718 3 0.713955 0.523925 0.0406549
6111 1 0.707696 0.501386 0.0434705
1291 1 0.722449 0.517321 0.0532807
19328 3 0.747941 0.512605 0.0419849
19327 1 0.741699 0.508994 0.0399568
19329 1 0.754835 0.515653 0.0413926
1292 3 0.729663 0.517831 0.0584801
20209 1 0.755509 0.523086 0.0620353
20211 1 0.739828 0.520378 0.0602224
20210 3 0.7482 0.522982 0.0623443
1293 1 0.737287 0.519615 0.0596035
11810 3 0.783153 0.504047 0.050378
8 3 0.763012 0.522179 0.0396291
7 1 0.757616 0.516985 0.0409045
11811 1 0.775647 0.503704 0.0520932
12039 1 0.77322 0.526531 0.0395063
9 1 0.770347 0.525043 0.0395789
20078 3 0.766066 0.503349 0.0564541
12038 3 0.780298 0.529511 0.038657
8220 1 0.758211 0.523074 0.062055
120 1 0.787138 0.529454 0.0583144
20068 1 0.772236 0.51149 0.0373457
20069 3 0.770013 0.503501 0.0336846
20077 1 0.772795 0.50354 0.0534369
20070 1 0.763379 0.500963 0.0313428
11809 1 0.788501 0.507663 0.0451097
13152 1 0.790119 0.509277 0.0431229
3259 1 0.804941 0.516059 0.0403174
13150 1 0.801776 0.515556 0.0400048
13151 3 0.794001 0.513921 0.038327
3260 2 0.812898 0.517475 0.041299
118 1 0.798027 0.522346 0.0616619
119 3 0.790975 0.522915 0.0574168
3210 1 0.815489 0.523026 0.0609841
3261 1 0.820484 0.52043 0.0408879
15633 1 0.694233 0.531498 0.0337086
14022 1 0.714715 0.533655 0.0612317
10717 1 0.716605 0.531606 0.0389882
14021 3 0.712272 0.540283 0.0573217
12345 1 0.71722 0.554418 0.0338023
12344 3 0.711021 0.549036 0.0331289
14020 1 0.711079 0.547221 0.0550389
8950 1 0.710627 0.550332 0.0541628
21228 1 0.719897 0.55698 0.0342236
8951 3 0.709733 0.558257 0.0513785
20242 1 0.732272 0.542232 0.0372282
9087 1 0.73234 0.542917 0.0405806
9086 3 0.732683 0.54175 0.0485295
1703 3 0.749165 0.553408 0.0396842
18238 1 0.746381 0.558371 0.0492821
1702 1 0.747196 0.556945 0.0466538
9085 1 0.732437 0.540698 0.0566834
18148 1 0.732396 0.540621 0.0596625
429 1 0.751061 0.543682 0.0350287
1704 1 0.749988 0.546238 0.0366734
13517 3 0.756356 0.541624 0.0564343
13516 1 0.752552 0.536467 0.0617074
13518 1 0.758279 0.548072 0.0504916
2089 1 0.771475 0.562368 0.0447924
20644 1 0.771774 0.559467 0.0458189
20646 1 0.778128 0.547876 0.0541196
20645 3 0.774321 0.552675 0.0490577
7077 1 0.779434 0.545274 0.055801
12037 1 0.787624 0.532634 0.0373337
7076 3 0.781728 0.538512 0.060671
7075 1 0.785914 0.531468 0.0585276
8952 1 0.707758 0.564039 0.0465995
21227 3 0.724772 0.562905 0.0337495
21226 1 0.724698 0.570018 0.038104
19563 1 0.707476 0.566402 0.044214
19562 3 0.705655 0.573117 0.0391514
19561 1 0.707659 0.581091 0.0401175
18239 3 0.743197 0.563419 0.0555144
18240 1 0.737622 0.565863 0.0607281
2090 3 0.769968 0.570258 0.0430576
2091 1 0.771785 0.578258 0.0425827
21478 1 0.772498 0.581277 0.0426625
21479 3 0.774139 0.588408 0.0431634
21480 1 0.778745 0.591208 0.0492082
2134 1 0.768852 0.59012 0.060353
820 1 0.550504 0.609697 0.0605662
21553 1 0.717506 0.631457 0.0598615
14025 1 0.720663 0.63255 0.0589264
12889 1 0.748507 0.647768 0.0497043
12890 3 0.745806 0.639894 0.0505143
14023 1 0.735994 0.636328 0.052989
12891 1 0.739189 0.637217 0.0527013
14024 3 0.728698 0.635426 0.056627
2773 1 0.670478 0.510358 0.0774395
21437 3 0.682133 0.527251 0.0893949
18171 1 0.683567 0.519779 0.0636142
18170 2 0.683964 0.523161 0.0708542
21436 1 0.682403 0.525655 0.0811309
18169 1 0.682785 0.52525 0.0782685
2775 1 0.668658 0.505411 0.0904665
2774 3 0.673396 0.507057 0.0838385
4995 1 0.718918 0.501212 0.0809069
4994 3 0.718561 0.503312 0.0890147
4100 3 0.714371 0.524255 0.0728746
4099 1 0.722013 0.522365 0.0763822
12331 1 0.724589 0.521603 0.0769954
4101 1 0.713076 0.525312 0.0655082
840 1 0.718901 0.500262 0.0780644
20028 1 0.745126 0.501386 0.0763808
15530 3 0.751652 0.509503 0.0762329
12333 1 0.734622 0.51368 0.0861921
12332 3 0.731792 0.518068 0.0801656
15529 1 0.746568 0.504076 0.0760643
15531 1 0.754812 0.512325 0.0707059
14761 1 0.749618 0.527842 0.0781603
6643 1 0.73526 0.512324 0.0884447
17724 1 0.767868 0.513442 0.0760887
8219 3 0.766486 0.524083 0.0631535
8218 1 0.772237 0.519118 0.065682
17723 3 0.772538 0.50764 0.0752368
13720 1 0.78692 0.517519 0.0871366
17722 1 0.777392 0.501636 0.0722827
3209 3 0.808919 0.522496 0.0652987
3208 1 0.801212 0.522353 0.0633057
13722 1 0.790877 0.527007 0.0808666
11449 1 0.791264 0.530546 0.0813248
13721 3 0.790378 0.519718 0.0800098
10488 1 0.693218 0.547379 0.0781605
10487 3 0.698895 0.542955 0.0814646
10486 1 0.705891 0.542975 0.0830564
841 1 0.719526 0.556482 0.0696807
843 1 0.717508 0.560199 0.0840728
842 3 0.720302 0.556406 0.0772775
18149 3 0.73039 0.53999 0.0684839
18150 1 0.731151 0.538693 0.0760764
10576 1 0.731352 0.538428 0.0798681
10577 3 0.731949 0.538504 0.0879572
15030 1 0.751274 0.554697 0.0725152
15029 3 0.753114 0.562072 0.0759588
14762 3 0.753192 0.535146 0.0790883
7455 1 0.773089 0.549649 0.0729313
7454 3 0.767692 0.544857 0.0740556
14763 1 0.759338 0.539398 0.0767971
7453 1 0.761547 0.541018 0.0761485
11451 1 0.787299 0.54415 0.0857001
15255 1 0.767405 0.550366 0.0930791
16384 1 0.769777 0.55105 0.0926112
16385 3 0.777855 0.552283 0.0918171
16386 1 0.784925 0.549071 0.091527
11450 3 0.79185 0.539167 0.0822143
16515 1 0.724003 0.581326 0.0755499
2188 1 0.722664 0.584206 0.0766879
16514 3 0.727238 0.575285 0.0723009
2189 3 0.719693 0.590619 0.0779595
16513 1 0.733911 0.571976 0.0701906
778 1 0.764341 0.566032 0.0766569
15028 1 0.760941 0.564911 0.07699
779 3 0.771354 0.567494 0.0745921
2135 3 0.768525 0.585249 0.0672206
780 1 0.769879 0.574745 0.0714057
2136 1 0.769441 0.577536 0.0703768
821 3 0.552779 0.616466 0.0635343
822 1 0.552632 0.623787 0.066544
4623 1 0.690727 0.619808 0.0790631
3632 2 0.719923 0.60582 0.0910447
3633 1 0.71986 0.598789 0.0868614
2190 1 0.719712 0.596485 0.0846088
4622 3 0.698428 0.621158 0.0757627
4621 1 0.702385 0.62487 0.0706496
2542 1 0.546964 0.640929 0.0769512
2543 3 0.54552 0.645928 0.0838066
13986 1 0.547648 0.638875 0.0745346
13985 3 0.549719 0.633787 0.0686577
13984 1 0.552232 0.626417 0.0674328
2544 1 0.547773 0.644162 0.0912112
21554 3 0.711025 0.627775 0.063415
21555 1 0.704777 0.625867 0.0688137
11584 1 0.678087 0.529864 0.115767
11585 2 0.679165 0.52802 0.10784
21438 1 0.680651 0.528262 0.0970867
11586 1 0.680622 0.528539 0.0998431
17847 1 0.680944 0.513728 0.111462
17845 1 0.695707 0.506284 0.105557
17846 3 0.688984 0.510178 0.107926
15775 1 0.710431 0.501354 0.0966664
4993 1 0.712588 0.501163 0.0948198
15776 3 0.705367 0.500281 0.102406
15777 1 0.698081 0.504883 0.104617
5714 3 0.712567 0.522943 0.0976552
5715 1 0.71944 0.518643 0.0968536
5713 1 0.705376 0.526753 0.0953014
15461 3 0.743722 0.511247 0.11336
6644 3 0.738297 0.508539 0.0954413
15460 1 0.740895 0.510029 0.105729
6645 1 0.74015 0.509515 0.10282
2055 1 0.739144 0.524643 0.109951
2054 3 0.735085 0.530846 0.104805
15462 1 0.748356 0.508472 0.119545
10578 1 0.733258 0.534806 0.0945645
2053 1 0.733653 0.533831 0.0971213
15253 1 0.754481 0.554303 0.0945253
5751 1 0.775841 0.535627 0.104934
5749 1 0.761814 0.532154 0.109351
5750 3 0.768345 0.533205 0.104801
15254 3 0.759538 0.548444 0.0947721
3631 1 0.717382 0.613038 0.0948965
15996 1 0.706983 0.513426 0.995843
9736 1 0.706387 0.513758 0.992862
9737 3 0.705958 0.512739 0.984751
9738 1 0.709121 0.511562 0.977001
15635 2 0.690095 0.551897 0.989725
15636 1 0.685132 0.550564 0.996502
20167 1 0.683321 0.550123 0.999349
3696 1 0.701621 0.552047 0.989912
15634 1 0.698387 0.552415 0.989848
3694 1 0.716341 0.55215 0.989923
92 2 0.725815 0.557696 0.985569
3695 2 0.708703 0.550515 0.993119
93 1 0.719064 0.553058 0.988938
20364 1 0.729013 0.533904 0.996219
8251 1 0.737567 0.53975 0.98103
8252 3 0.738281 0.535078 0.988889
8253 1 0.731603 0.534308 0.993978
91 1 0.730541 0.562385 0.9904
5842 1 0.745348 0.572335 0.996327
7038 1 0.748046 0.573345 0.996402
7037 3 0.7552 0.577067 0.993697
5844 1 0.73208 0.56403 0.991868
5843 3 0.737518 0.569033 0.994998
3031 1 0.777746 0.572645 0.984845
7036 1 0.759481 0.579187 0.987334
3032 3 0.775276 0.572689 0.992712
3033 1 0.773724 0.57667 0.999165
