ITEM: TIMESTEP
20000000
ITEM: NUMBER OF ENTRIES
387
ITEM: BOX BOUNDS pp pp pp
0 50
0 50
0 50
ITEM: ENTRIES c_binfo[1] c_binfo[2] c_binfo[3] 
3 8348 8349 
3 12374 12375 
3 3419 3420 
3 8347 8348 
3 20431 20432 
1 19125 20433 
3 20432 20433 
3 12490 12491 
1 12490 20431 
1 17100 19158 
3 12373 12374 
3 19157 19158 
3 12491 12492 
3 15146 15147 
3 19124 19125 
3 19123 19124 
3 15145 15146 
3 17099 17100 
3 14705 14706 
3 17098 17099 
3 21083 21084 
3 21082 21083 
3 10174 10175 
1 10174 11425 
3 10175 10176 
3 1480 1481 
1 1480 11002 
3 1481 1482 
3 5219 5220 
3 5218 5219 
1 5220 16248 
3 11002 11003 
3 16247 16248 
3 16246 16247 
2 487 488 
2 488 489 
3 439 440 
1 439 489 
1 441 9600 
3 440 441 
3 3962 3963 
3 20912 20913 
3 17779 17780 
3 9599 9600 
3 20911 20912 
3 3961 3962 
1 3961 20911 
3 172 173 
1 172 838 
3 838 839 
3 9598 9599 
1 174 5391 
3 173 174 
1 1482 17781 
3 17780 17781 
3 11425 11426 
3 11426 11427 
3 5390 5391 
3 5389 5390 
1 5389 20079 
3 2726 2727 
3 9028 9029 
3 9029 9030 
3 8012 8013 
2 4481 4482 
2 4480 4481 
1 4480 11004 
3 11003 11004 
3 2171 2172 
1 2172 3963 
3 8011 8012 
1 8011 18582 
3 10996 10997 
1 10996 18580 
3 18580 18581 
3 2170 2171 
3 839 840 
3 20027 20028 
1 10998 20026 
3 20026 20027 
3 10997 10998 
3 8512 8513 
1 8512 17722 
3 2725 2726 
1 2725 3111 
3 8513 8514 
3 3110 3111 
3 3109 3110 
1 3109 19068 
3 19067 19068 
2 18974 18975 
2 18973 18974 
1 8013 18973 
3 18581 18582 
3 5795 5796 
3 5794 5795 
3 808 809 
1 808 4630 
3 12287 12288 
3 4630 4631 
3 809 810 
3 19066 19067 
3 4631 4632 
3 12286 12287 
3 21088 21089 
3 21089 21090 
3 15017 15018 
3 15016 15017 
1 15016 21088 
3 11392 11393 
3 11393 11394 
3 19156 19157 
1 11394 19156 
1 15018 15147 
3 3745 3746 
3 12161 12162 
3 14609 14610 
3 14608 14609 
3 3418 3419 
1 3418 12162 
3 3746 3747 
1 3747 14337 
3 12160 12161 
3 15994 15995 
1 10662 15994 
3 15995 15996 
3 10661 10662 
3 10660 10661 
3 2794 2795 
1 2794 10660 
3 2795 2796 
3 2837 2838 
3 2756 2757 
3 2755 2756 
1 2755 8206 
3 8206 8207 
3 8207 8208 
1 2796 14706 
3 2836 2837 
1 2836 17098 
3 788 789 
1 789 2838 
3 3595 3596 
3 787 788 
1 787 3595 
3 3596 3597 
3 14704 14705 
1 14704 20070 
3 763 764 
1 763 3745 
3 764 765 
1 765 20169 
3 20168 20169 
3 15632 15633 
3 8903 8904 
3 8902 8903 
1 8902 20362 
3 20362 20363 
1 8904 20244 
3 12343 12344 
1 12343 15631 
3 15631 15632 
3 20363 20364 
3 8323 8324 
1 8323 13161 
3 8324 8325 
3 13160 13161 
3 20243 20244 
3 427 428 
3 428 429 
3 11876 11877 
3 11875 11876 
3 13159 13160 
3 3505 3506 
3 3506 3507 
3 7339 7340 
1 3507 7339 
3 7340 7341 
3 14336 14337 
3 14335 14336 
1 11190 14335 
3 11189 11190 
3 11188 11189 
1 11188 18171 
3 6109 6110 
1 6109 10719 
3 6110 6111 
3 10718 10719 
1 6111 9598 
3 1291 1292 
3 19328 19329 
3 19327 19328 
3 1292 1293 
3 20209 20210 
3 20210 20211 
1 1293 20211 
3 11810 11811 
3 8 9 
3 7 8 
1 7 19329 
1 11811 20077 
1 9 12039 
3 20078 20079 
3 12038 12039 
1 8220 20209 
1 120 7075 
3 20068 20069 
3 20069 20070 
3 20077 20078 
3 11809 11810 
1 11809 13152 
2 3259 3260 
1 3259 13150 
3 13150 13151 
3 13151 13152 
2 3260 3261 
3 118 119 
1 118 3208 
3 119 120 
3 10717 10718 
3 14021 14022 
1 12345 21228 
3 12344 12345 
3 14020 14021 
3 8950 8951 
1 8950 14020 
3 8951 8952 
3 20242 20243 
1 9087 20242 
3 9086 9087 
3 1703 1704 
3 18238 18239 
3 1702 1703 
1 1702 18238 
3 9085 9086 
1 9085 18148 
3 18148 18149 
1 429 1704 
3 13517 13518 
3 13516 13517 
3 2089 2090 
1 2089 20644 
3 20644 20645 
3 20645 20646 
1 7077 20646 
3 12037 12038 
3 7076 7077 
3 7075 7076 
1 8952 19563 
3 21227 21228 
3 21226 21227 
3 19562 19563 
3 19561 19562 
3 18239 18240 
3 2090 2091 
1 2091 21478 
3 21478 21479 
3 21479 21480 
3 2134 2135 
3 820 821 
3 21553 21554 
1 14025 21553 
3 12889 12890 
3 12890 12891 
3 14023 14024 
1 12891 14023 
3 14024 14025 
3 2773 2774 
3 21437 21438 
2 18170 18171 
3 21436 21437 
2 18169 18170 
1 18169 21436 
3 2774 2775 
3 4994 4995 
3 4100 4101 
3 4099 4100 
1 4099 12331 
3 12331 12332 
1 840 4995 
3 15530 15531 
3 12332 12333 
3 15529 15530 
1 15529 20028 
3 14761 14762 
3 6643 6644 
1 6643 12333 
3 8219 8220 
3 8218 8219 
3 17723 17724 
3 13720 13721 
3 17722 17723 
3 3209 3210 
3 3208 3209 
3 11449 11450 
1 11449 13722 
3 13721 13722 
3 10487 10488 
3 10486 10487 
3 841 842 
3 842 843 
3 18149 18150 
3 10576 10577 
1 10576 18150 
3 10577 10578 
3 15029 15030 
3 14762 14763 
3 7454 7455 
3 7453 7454 
1 7453 14763 
1 15255 16384 
3 16384 16385 
3 16385 16386 
3 11450 11451 
3 2188 2189 
1 2188 16515 
3 16514 16515 
3 2189 2190 
3 16513 16514 
3 778 779 
1 778 15028 
3 15028 15029 
3 779 780 
3 2135 2136 
1 780 2136 
3 821 822 
1 822 13984 
2 3632 3633 
1 2190 3633 
3 4622 4623 
3 4621 4622 
1 4621 21555 
3 2542 2543 
1 2542 13986 
3 2543 2544 
3 13985 13986 
3 13984 13985 
3 21554 21555 
2 11584 11585 
2 11585 11586 
1 11586 21438 
3 17845 17846 
3 17846 17847 
3 15775 15776 
3 4993 4994 
1 4993 15775 
3 15776 15777 
1 15777 17845 
3 5714 5715 
3 5713 5714 
3 15461 15462 
3 6644 6645 
3 15460 15461 
1 6645 15460 
3 2054 2055 
3 2053 2054 
1 2053 10578 
3 15253 15254 
3 5749 5750 
3 5750 5751 
3 15254 15255 
2 3631 3632 
3 9736 9737 
1 9736 15996 
3 9737 9738 
2 15635 15636 
1 15636 20167 
3 20167 20168 
1 3696 15634 
2 15634 15635 
2 3694 3695 
2 92 93 
2 3695 3696 
1 93 3694 
3 8251 8252 
3 8252 8253 
1 8253 20364 
2 91 92 
1 91 5844 
3 5842 5843 
1 5842 7038 
3 7037 7038 
3 5843 5844 
3 3031 3032 
3 7036 7037 
3 3032 3033 
1 3033 3505 
