ITEM: TIMESTEP
20000000
ITEM: NUMBER OF ATOMS
435
ITEM: BOX BOUNDS pp pp pp
0.0000000000000000e+00 5.0000000000000000e+01
0.0000000000000000e+00 5.0000000000000000e+01
0.0000000000000000e+00 5.0000000000000000e+01
ITEM: ATOMS id type vx vy vz 
8349 1 -3.34522 -3.21713 2.65564 
8348 3 1.03998 1.52715 3.60856 
3420 1 -0.895045 -6.16407 -3.44201 
12374 3 -2.1509 -1.18626 -2.46225 
12375 1 -1.58113 3.39467 1.52211 
3419 3 3.38284 0.738949 1.6221 
8347 1 1.32972 -0.815702 0.523755 
20431 1 5.53734 1.62633 2.34955 
19125 1 2.1045 4.4686 1.78286 
20433 1 1.65223 0.499716 3.79244 
20432 3 0.902432 6.55283 0.734729 
12490 1 -4.72613 -0.661557 -3.27834 
17100 1 4.39613 -0.821317 -1.18832 
12373 1 -0.0263231 3.03398 -5.39083 
19158 1 2.83352 -0.268464 0.593631 
19157 3 -0.110529 0.230131 0.707369 
12491 3 0.275813 0.50048 1.22041 
15146 3 3.86651 8.17545 -0.0810063 
19124 3 0.224606 -1.15387 -2.91307 
19123 1 -4.4363 -6.63346 -2.46477 
15145 1 -3.60845 2.36894 4.6672 
17099 3 -5.44493 -2.2961 -1.53725 
14705 3 1.52573 0.438504 1.78504 
17098 1 1.35216 6.374 -2.42445 
21084 1 -0.12688 -0.867309 1.85971 
21083 3 -0.986223 -0.429332 -1.09511 
21082 1 -4.02166 8.66265 -2.62734 
10174 1 0.78757 -1.18266 1.81573 
10175 3 -0.175059 -0.323983 0.0615944 
10176 1 -1.17 -1.95033 -3.53843 
1480 1 0.843345 5.26561 -2.77465 
1481 3 -0.345029 1.32918 -2.73813 
5219 3 3.19816 -2.37064 -0.0632259 
5218 1 -2.12334 -2.06199 6.30357 
16248 1 -0.126118 -1.4302 -7.02113 
5220 1 6.57519 1.53992 6.03355 
11002 1 -4.63722 1.53112 -4.79246 
16247 3 -2.25564 5.5317 -3.59523 
16246 1 0.533806 1.86499 -2.65106 
487 1 -1.87869 3.67777 4.76299 
488 2 3.77446 0.954575 -0.157225 
489 1 -1.78672 -1.87954 -3.52742 
439 1 2.47388 1.02667 3.62434 
441 1 -1.27842 3.59364 0.0724815 
440 3 -1.02262 4.03359 0.32842 
3962 3 2.17491 1.49576 0.0822987 
9600 1 0.467801 1.8706 -3.28824 
20913 1 4.1185 -8.32953 -1.63015 
20912 3 0.212559 2.15756 -2.09926 
17779 1 -6.05096 -6.55847 -3.57286 
9599 3 -0.0951024 -2.90969 1.5317 
20911 1 -1.70986 -6.30228 -1.9786 
3961 1 1.29568 -4.08656 -4.34188 
172 1 1.94867 -2.06872 2.02771 
838 1 1.23593 -3.9001 -2.19651 
9598 1 2.42729 3.47838 -0.425846 
174 1 -1.30885 1.27598 -0.00405691 
173 3 -3.48 -0.612347 2.68099 
17781 1 0.887675 3.48833 1.45049 
1482 1 -5.6543 1.52424 -4.03274 
17780 3 0.992908 0.313634 4.92412 
11425 1 -0.553151 -4.06326 4.88904 
11426 3 -5.22148 -1.60236 -0.606673 
5390 3 -0.683389 -2.4455 -1.32666 
5389 1 3.18547 1.10075 -4.72344 
5391 1 5.15128 3.76846 4.19594 
20079 1 -1.07456 1.10737 -8.93472 
11427 1 -2.84518 3.51527 -2.75469 
2726 3 2.12463 -1.64674 0.9448 
2727 1 -0.748103 -6.59839 -0.445536 
9028 1 4.74204 0.876904 3.97712 
9029 3 -0.690153 -2.30927 -1.46733 
9030 1 -2.61736 0.376432 1.5032 
8012 3 -0.195701 -1.05013 3.16219 
4482 1 -1.8501 -0.973744 1.11716 
4481 2 1.39613 -0.15058 2.07449 
4480 1 0.126033 -0.514289 3.51659 
11004 1 0.35081 -2.90868 2.59645 
11003 3 -0.686258 -2.00328 -2.9724 
2171 3 4.84352 -0.030117 1.96325 
2172 1 2.97701 0.412846 2.5303 
3963 1 2.61455 -1.4232 6.18297 
8011 1 9.74285 -0.248244 -1.06792 
18582 1 -3.83593 -5.61007 2.16224 
10996 1 0.785541 4.15407 1.56015 
18580 1 -1.10833 -2.80347 1.03263 
2170 1 -2.89665 -1.7684 -7.8239 
839 3 1.92207 -0.987974 -1.13835 
20027 3 2.60052 -1.537 1.83254 
10998 1 -2.13288 2.48578 -3.83074 
20026 1 0.0955748 -1.0368 4.01853 
10997 3 -4.56041 1.43889 -1.6577 
8512 1 1.10296 -4.53022 0.903568 
2725 1 -2.18228 0.226158 0.38562 
3111 1 1.81931 -0.805925 -3.64248 
8513 3 -5.15425 -2.48342 -4.31817 
3110 3 1.09222 1.01133 -1.09663 
3109 1 -0.420022 -1.28461 3.54476 
19067 3 -3.85626 2.19086 1.3024 
19068 1 -3.9276 0.0838704 -1.42866 
8514 1 -1.71218 1.05778 -1.46277 
18974 2 -1.26153 2.41988 1.54243 
18975 1 4.79039 1.01827 -1.20257 
18973 1 1.80184 3.14106 4.00379 
8013 1 -2.00332 2.23476 4.81637 
18581 3 -0.104141 0.951164 -0.0277354 
5796 1 1.31843 6.60869 -2.03575 
5795 3 0.625985 3.37362 2.04627 
5794 1 3.11404 -5.39158 -0.03891 
808 1 2.60349 2.72046 -5.47622 
12288 1 3.81149 1.04187 4.50866 
12287 3 -2.06809 2.61531 1.92503 
810 1 -3.61938 0.669022 -0.472439 
4630 1 -2.39946 -2.35697 -1.6932 
809 3 -2.72298 4.26376 1.49342 
19066 1 -2.16331 1.80466 -1.59811 
4631 3 3.92498 1.51621 1.37801 
4632 1 3.76475 -0.767619 -0.733135 
12286 1 -0.240527 2.10323 2.51341 
21088 1 -3.71297 2.93767 1.96229 
21089 3 -2.19908 -2.01422 -0.259087 
15017 3 4.26842 -2.19102 -0.609007 
15016 1 -0.875973 3.45113 0.986721 
21090 1 -0.327842 -1.58274 -5.41958 
11392 1 -3.90696 -4.67797 4.96169 
11393 3 4.32673 -0.26762 -1.0977 
19156 1 -1.68286 -3.09625 2.17831 
11394 1 6.49219 1.49146 1.13889 
15147 1 -4.12875 1.37598 6.6976 
15018 1 -3.65264 -1.647 3.75833 
3745 1 1.75429 4.70383 -3.23915 
12161 3 -0.187799 2.30703 -0.950755 
14609 3 3.16993 2.93684 2.05893 
14608 1 -0.615793 4.21625 7.06358 
3418 1 2.9908 0.842672 0.55349 
3746 3 -1.65232 0.153879 1.29702 
3747 1 1.7285 0.290647 -0.766997 
12160 1 -4.07816 3.45312 -6.6699 
12162 1 -1.34378 -8.074 1.07835 
12492 1 0.421792 4.02051 -5.6928 
14610 1 -6.18064 -1.32899 4.1645 
15994 1 -1.43828 -2.81998 2.05766 
10662 1 -2.26703 -0.958978 4.7403 
15995 3 -3.37405 1.27438 -1.98756 
10661 3 1.4683 -2.01539 4.13984 
10660 1 0.416225 -1.05674 -3.0611 
2794 1 2.30848 -0.0898444 5.0132 
2795 3 -0.0435414 -1.86968 1.75611 
2838 1 1.81639 -1.49205 0.547365 
2837 3 -4.23576 -2.57493 -2.79489 
2756 3 0.77508 -3.28317 0.0708449 
2757 1 2.21793 -1.32702 2.54114 
2755 1 2.27788 -2.2875 0.755957 
8206 1 0.435115 2.32325 -1.45548 
8207 3 1.1089 -4.23945 1.27937 
2796 1 0.258418 3.32172 -0.417018 
2836 1 -2.06052 0.683588 -3.72666 
14706 1 4.76121 4.61953 -2.43334 
788 3 -3.48852 6.47416 -2.1215 
789 1 -4.25846 -7.7897 3.26062 
3595 1 -4.10985 1.84688 5.91177 
787 1 -5.6759 -2.13144 2.19893 
3596 3 7.3425 5.06338 -4.66733 
14704 1 7.67914 -0.991724 -0.601814 
3597 1 -3.84243 1.19144 0.0434918 
8208 1 -3.04635 1.88521 -2.61537 
763 1 1.58606 -2.41947 -0.920591 
764 3 -0.882631 -0.0152969 -2.18495 
765 1 -5.68 5.54452 7.78669 
20169 1 0.728071 4.01255 -0.779933 
20168 3 -3.18819 4.76038 -2.8285 
15632 3 0.392628 1.59014 0.396311 
8903 3 1.6049 -1.82678 -3.52239 
8902 1 6.33517 4.409 4.42356 
20362 1 0.662516 2.62748 0.153777 
8904 1 2.37824 -2.497 0.94223 
20244 1 -4.34703 2.44059 0.930419 
12343 1 -2.42512 1.63101 -1.74009 
15631 1 2.93124 -3.28548 2.72414 
20363 3 2.03029 0.556958 -3.67191 
13161 1 -0.871278 2.93295 -2.45713 
8323 1 -5.92811 -2.7596 0.0985708 
8324 3 2.56142 -1.93001 2.25875 
13160 3 4.56658 -0.202765 3.10168 
20243 3 2.45648 -2.13481 -3.0576 
427 1 -9.90447 6.92995 1.48571 
428 3 -0.659036 0.0216084 3.77273 
8325 1 -3.09793 -4.27877 -2.63939 
7341 1 3.55637 -1.54765 3.3405 
11877 1 -5.07715 2.07807 -0.79061 
11876 3 -1.37145 -1.3962 2.2834 
11875 1 4.28518 -1.80755 -0.452432 
13159 1 1.49266 6.48727 -2.86264 
3505 1 3.1983 0.665421 4.28498 
3506 3 -4.22799 -6.91541 1.27609 
7339 1 -1.05126 -2.9462 -2.39124 
3507 1 4.96769 5.79119 6.78755 
7340 3 -1.57179 0.761308 -0.816837 
14337 1 3.98915 -0.747787 2.82603 
14336 3 0.467394 -2.82678 -2.81284 
14335 1 5.8781 -2.20053 -4.32265 
11190 1 -1.88914 2.03497 1.93798 
11189 3 -0.701072 2.91524 -0.661895 
11188 1 1.32647 -3.44028 6.82637 
6109 1 -2.05225 -1.74274 -4.39368 
6110 3 4.81272 0.536805 0.0994346 
10719 1 -6.55699 -4.18239 2.23384 
10718 3 -2.37886 -1.42437 -2.91432 
6111 1 -5.35176 -2.61173 -0.315665 
1291 1 5.03295 -5.11169 -2.92395 
19328 3 1.70589 1.03492 3.66795 
19327 1 2.6549 4.42148 -0.848493 
19329 1 3.85278 2.71159 3.66791 
1292 3 2.8194 -2.0004 -1.1609 
20209 1 -1.05837 -3.80042 -2.50911 
20211 1 -1.75589 5.55149 -3.03292 
20210 3 -2.79812 0.561372 0.281138 
1293 1 1.04147 2.10476 0.187828 
11810 3 1.53489 1.75904 2.28667 
8 3 1.18897 -1.95871 -1.24411 
7 1 -0.418867 1.02202 0.233604 
11811 1 -2.72595 -3.32557 2.98617 
12039 1 0.449857 2.15248 -5.89999 
9 1 0.545169 0.659128 -6.95517 
20078 3 1.13208 -3.08735 -0.412546 
12038 3 3.57781 1.10054 0.129209 
8220 1 -2.36886 2.09834 -0.051938 
120 1 -0.728144 2.02537 -0.740823 
20068 1 -1.12805 -3.83753 2.26392 
20069 3 2.00643 0.580123 0.580448 
20077 1 -1.87739 -0.208262 5.1037 
20070 1 0.843005 -1.44016 5.43385 
11809 1 -1.1212 5.87455 1.52195 
13152 1 0.84809 9.23516 -2.01287 
3259 1 -1.6402 -4.4234 -1.39053 
13150 1 -0.872611 0.679858 -2.87887 
13151 3 -0.606309 -0.106766 2.84443 
3260 2 2.20852 -3.12277 -0.0300275 
118 1 -4.93963 -3.02084 0.748703 
119 3 -0.473512 3.67912 -1.53888 
3210 1 -1.5314 -1.89036 2.52964 
3261 1 -0.963939 -3.81122 -2.34093 
15633 1 -2.35551 0.51562 -4.87299 
14022 1 -1.10588 -7.75798 0.970985 
10717 1 4.13696 0.576488 8.06691 
14021 3 3.12541 -0.419266 2.87172 
12345 1 2.69555 2.29246 -1.95867 
12344 3 0.0568978 4.08862 6.29419 
14020 1 0.695534 1.34817 -5.77649 
8950 1 3.05092 0.221744 -2.83333 
21228 1 5.44396 -2.71927 -5.54921 
8951 3 1.54007 1.46495 3.48973 
20242 1 0.671183 3.31991 3.28957 
9087 1 0.3003 -3.57074 -1.06239 
9086 3 1.42252 -0.412243 -2.4305 
1703 3 0.449105 -3.07929 2.88703 
18238 1 -0.622719 -4.043 0.360474 
1702 1 -2.52917 -0.989189 -3.7221 
9085 1 -0.439702 1.84826 0.860094 
18148 1 -0.535582 -0.576693 -1.52299 
429 1 0.124226 3.46448 -1.88476 
1704 1 3.63012 -0.621858 -2.08192 
13517 3 -2.63118 4.07054 -0.393986 
13516 1 1.83171 1.26704 1.9974 
13518 1 -6.17919 3.94944 5.80568 
2089 1 -2.82966 0.926708 0.109694 
20644 1 1.77487 -2.65228 -1.37031 
20646 1 -2.63561 0.841789 0.500978 
20645 3 1.58272 -2.43185 2.11541 
7077 1 0.51882 0.0703934 2.40237 
12037 1 -5.07354 2.51554 -1.02961 
7076 3 -2.43515 -1.65367 -1.64731 
7075 1 -2.61461 5.70069 -1.81407 
8952 1 -3.21848 -0.271485 4.00243 
21227 3 2.33256 -1.16889 -0.755834 
21226 1 7.59546 3.54316 -2.30801 
19563 1 0.397954 0.489796 3.07876 
19562 3 1.91114 2.65381 -0.491526 
19561 1 -1.72847 -0.545097 -1.75249 
18239 3 1.09443 -2.67375 5.42557 
18240 1 2.21709 -3.88615 -2.73109 
2090 3 -0.677733 2.80595 -2.36263 
2091 1 -1.0931 5.65265 0.103605 
21478 1 -2.21599 0.531039 2.0377 
21479 3 -5.56934 -2.50894 1.97517 
21480 1 1.12116 -5.04719 1.23249 
2134 1 -7.93319 1.3455 -8.22868 
820 1 -8.24728 0.796143 -0.932481 
21553 1 -0.193429 -0.76716 3.8898 
14025 1 4.43876 -2.69312 1.01228 
12889 1 -1.67476 -1.87243 4.76686 
12890 3 3.32113 4.93409 -0.547398 
14023 1 -2.95089 4.73346 2.37422 
12891 1 2.96945 -0.486721 3.02271 
14024 3 -2.76187 0.600464 0.704747 
2773 1 -3.55701 0.29621 -4.66681 
21437 3 -4.24221 2.52627 -1.74226 
18171 1 -1.07782 4.03407 3.23236 
18170 2 3.06494 0.922157 -2.36785 
21436 1 0.901357 1.68579 -9.24423 
18169 1 -4.21366 -2.19536 -7.19819 
2775 1 2.20333 9.75329 2.64987 
2774 3 -2.22505 -1.87878 4.32541 
4995 1 5.09917 2.85533 2.98294 
4994 3 0.971385 4.37975 0.80284 
4100 3 1.10092 -2.32796 0.446051 
4099 1 -0.817063 -1.83942 -1.12121 
12331 1 -0.334301 -1.68207 0.576458 
4101 1 -3.11633 -2.37655 3.27247 
840 1 7.02978 0.334255 -0.111189 
20028 1 5.2125 0.364151 1.04389 
15530 3 -2.92378 2.99354 -1.27025 
12333 1 -5.64129 -3.06588 -1.42205 
12332 3 -1.5408 1.02454 4.86631 
15529 1 0.61155 5.63556 -2.37004 
15531 1 -0.803823 8.21157 -3.34763 
14761 1 -3.06522 3.34729 -3.51087 
6643 1 -5.07365 5.05341 -3.97554 
17724 1 0.439586 3.03458 -5.72179 
8219 3 6.23895 -4.54033 1.90035 
8218 1 2.38821 3.24035 -2.17654 
17723 3 -1.50529 0.655002 0.200978 
13720 1 2.72895 -2.69215 5.20439 
17722 1 2.36072 5.63137 2.43762 
3209 3 2.58121 1.87653 1.7718 
3208 1 -2.32187 -0.425892 0.283522 
13722 1 3.49669 1.8125 -5.93216 
11449 1 -5.2852 2.83974 2.7133 
13721 3 0.135527 -0.426233 0.239654 
10488 1 2.31796 -5.88427 -0.957076 
10487 3 0.208985 2.07141 -0.812181 
10486 1 1.12927 0.427229 -1.82996 
841 1 -4.34515 -2.64807 0.20423 
843 1 2.92374 -3.88753 -2.21474 
842 3 -3.99374 3.36551 2.86196 
18149 3 1.60098 -1.10507 -2.59347 
18150 1 0.447776 2.37476 1.93388 
10576 1 0.316711 -3.46283 -7.44835 
10577 3 0.0308596 -1.27473 -2.63707 
15030 1 -2.1897 3.59007 -3.69969 
15029 3 -4.99595 0.887184 4.24908 
14762 3 0.534577 4.04341 0.809336 
7455 1 -1.46458 -0.7676 -1.70208 
7454 3 2.97597 -4.10977 2.18583 
14763 1 3.76295 0.778453 -1.2171 
7453 1 1.8662 3.34021 1.57387 
11451 1 8.02744 1.48446 5.2504 
15255 1 -2.83601 4.06191 0.136818 
16384 1 -1.83252 -2.50313 5.22252 
16385 3 -1.99736 3.35701 0.286248 
16386 1 -4.08219 -2.1784 -6.52222 
11450 3 -2.58743 1.79726 -2.30664 
16515 1 7.49349 2.89409 -3.57578 
2188 1 -3.27031 1.81795 3.34494 
16514 3 -0.995776 1.38172 -2.0066 
2189 3 3.7612 5.92927 -0.566477 
16513 1 1.52026 -6.53955 2.47424 
778 1 -1.45012 -2.41032 0.202258 
15028 1 -0.653899 4.17605 3.98827 
779 3 1.73526 -3.14631 2.95015 
2135 3 -2.65487 -2.23026 1.3552 
780 1 4.37048 -1.23324 -2.46441 
2136 1 4.42797 -0.0680976 -4.68956 
821 3 -0.391969 1.0011 0.603182 
822 1 0.985552 -0.639859 -2.54442 
4623 1 0.079084 3.62562 3.07867 
3632 2 1.44184 2.41043 -0.566839 
3633 1 2.45684 4.05944 5.4506 
2190 1 -2.84562 0.760409 -1.40746 
4622 3 -4.19499 -0.454327 -0.559255 
4621 1 -0.00616905 -3.76807 2.4798 
2542 1 -0.983429 -3.19823 1.79479 
2543 3 -0.162033 2.57812 -0.38837 
13986 1 0.574719 -2.76509 0.628617 
13985 3 2.5938 1.21287 -1.6089 
13984 1 -2.32418 1.69517 -2.76069 
2544 1 -0.386575 -1.66836 -2.61514 
21554 3 -3.62202 1.12234 -0.462152 
21555 1 6.19817 2.97389 0.862794 
11584 1 -6.14847 4.67018 -3.99854 
11585 2 -1.0258 3.06166 2.88774 
21438 1 -2.83256 -4.0545 2.80333 
11586 1 -0.44807 2.0672 -0.941064 
17847 1 -2.95371 -1.95485 0.663403 
17845 1 2.21187 0.459133 1.23913 
17846 3 -3.02428 -3.83379 -2.23071 
15775 1 5.87939 1.19924 -0.227938 
4993 1 -0.944032 -6.49611 1.58532 
15776 3 1.21921 -1.35921 5.16452 
15777 1 2.79175 0.168152 4.29194 
5714 3 -0.694809 -0.235792 -0.936429 
5715 1 -1.24996 -2.69596 -1.94346 
5713 1 -0.656579 -3.54499 -7.52643 
15461 3 4.03231 -2.96895 2.1157 
6644 3 -1.85702 4.34094 -2.17333 
15460 1 6.41942 4.31258 5.94117 
6645 1 -0.909295 -0.71114 0.254226 
2055 1 2.72334 -6.4806 1.30306 
2054 3 -2.87584 -3.22725 0.859742 
15462 1 -0.924547 3.59153 -2.73787 
10578 1 4.91858 -4.2163 -5.07791 
2053 1 -4.4531 -6.78335 0.297307 
15253 1 -2.24059 -2.89496 -0.868295 
5751 1 -3.52019 2.55927 -3.27958 
5749 1 -4.37296 -1.27615 1.36999 
5750 3 1.63443 3.62633 3.13052 
15254 3 -3.57467 2.35683 4.34254 
3631 1 1.5295 1.13858 -1.16091 
15996 1 0.347111 -0.101193 -1.58469 
9736 1 0.185873 -1.94128 -0.500645 
9737 3 -1.14474 -1.80925 1.31117 
9738 1 0.742488 2.35167 -2.7308 
15635 2 -0.0700244 3.70458 1.73634 
15636 1 -0.810111 -1.93922 0.240771 
20167 1 -3.9604 -4.41196 -4.97071 
3696 1 -0.942838 -3.67641 -2.6678 
15634 1 -4.56557 4.9659 -3.19128 
3694 1 -5.22295 -0.965265 2.09263 
92 2 0.0618587 -2.5115 -0.835215 
3695 2 0.724388 -3.48862 -0.646259 
93 1 -3.31347 -0.827779 2.94181 
20364 1 -0.859226 -1.27823 -0.0248468 
8251 1 -0.54485 -0.820286 -0.185518 
8252 3 -1.87588 1.98908 -1.37113 
8253 1 4.90023 3.84488 -1.94153 
91 1 -2.03339 -0.00220056 -1.37732 
5842 1 4.0945 4.22363 0.994835 
7038 1 2.77597 6.40147 -2.49419 
7037 3 1.42308 -2.20466 -2.73807 
5844 1 4.65952 4.58802 -1.80421 
5843 3 -5.75407 1.12662 4.78656 
3031 1 -1.09025 -4.24716 -2.22044 
7036 1 1.25402 1.42469 1.80073 
3032 3 -2.55342 -3.31749 1.93786 
3033 1 0.682909 2.9554 6.26663 
