ITEM: TIMESTEP
20000000
ITEM: NUMBER OF ATOMS
495
ITEM: BOX BOUNDS pp pp pp
0.0000000000000000e+00 5.0000000000000000e+01
0.0000000000000000e+00 5.0000000000000000e+01
0.0000000000000000e+00 5.0000000000000000e+01
ITEM: ATOMS id type vx vy vz 
4262 2 -2.59844 0.594641 5.09761 
4263 1 -1.05018 -0.490425 1.6971 
4261 1 2.78195 2.12423 -2.75039 
13210 1 -2.46946 3.26617 -0.692083 
13211 2 1.404 4.91552 -2.37079 
16850 2 4.87425 -0.152685 -1.07515 
16851 1 5.26806 -2.68642 1.8195 
16849 1 1.31935 1.115 -6.60629 
11078 2 -0.568646 2.50104 0.200385 
11079 1 4.15142 -2.38874 0.693752 
11077 1 -8.05596 1.80996 -0.10822 
11091 1 -1.40958 2.67623 2.44962 
19925 2 -2.17933 -2.63276 2.38361 
11090 2 -0.891101 3.0172 2.67607 
11089 1 -3.61582 -0.449295 0.478691 
2901 1 5.48111 4.36293 -7.52468 
19924 1 1.82238 2.98418 7.16201 
637 1 -0.0835648 0.415787 -4.15625 
13456 1 -0.447125 0.305059 3.93663 
2900 2 -2.08623 -2.03738 -3.93411 
12900 1 2.52552 1.99303 1.94119 
2899 1 -6.47483 -3.37668 -3.15392 
19926 1 1.03854 0.871228 -4.63761 
12899 2 -2.73563 -0.713343 -0.403027 
21477 1 -2.41813 -5.96671 2.72595 
12898 1 -4.96748 -7.57258 -0.604452 
21476 2 -3.63516 2.44857 -0.0256693 
21475 1 0.909894 5.47227 -0.0501459 
8859 1 -2.83421 -5.23088 5.16518 
14462 2 1.68044 -0.787767 -0.0869848 
14461 1 5.18627 -2.96624 1.73793 
14463 1 1.43946 -5.42444 -1.42722 
11040 1 1.79623 2.59522 4.33804 
12675 1 2.26904 0.269152 1.40439 
12674 3 1.59346 1.00737 -2.28168 
12673 1 1.12045 -1.37371 -7.05132 
16350 1 -4.44574 0.454126 1.84236 
17626 1 2.54479 -3.99999 2.16817 
17598 1 4.25471 -3.54871 1.08106 
17596 1 -4.49376 -7.00281 -3.0883 
17628 1 -2.09828 2.27365 -0.887441 
17627 2 -4.22699 4.87273 0.0372562 
17597 2 2.7789 1.83139 -1.13791 
16349 2 1.6608 -1.42339 2.28979 
16348 1 0.717863 -3.24917 -5.52134 
16236 1 0.223937 -2.92302 -1.87351 
16235 3 -4.59247 -0.341573 -0.695045 
20437 1 -6.08158 -2.10447 4.06563 
20438 2 -0.787518 1.41813 0.138703 
20439 1 2.03129 -3.37623 0.931389 
15367 1 -5.35827 -0.333414 3.88923 
15369 1 -3.08592 -1.1459 -0.716207 
15368 2 -5.59921 -0.553308 2.69983 
20594 2 -4.58357 -0.157313 -0.876723 
16234 1 0.477904 1.1985 2.68411 
3124 1 3.80454 -3.93865 -1.91518 
3126 1 5.08708 -4.82568 3.63319 
3125 3 -1.61907 -2.78775 -3.52165 
14191 1 -0.956832 -3.58705 -6.79356 
14192 2 0.270283 -0.948852 0.484771 
20593 1 4.07988 1.91853 -0.828048 
14193 1 -9.20543 -2.97646 -2.78766 
10861 1 2.73193 2.87024 2.43426 
1815 1 -2.10544 -0.475099 -3.18102 
1814 2 -1.8939 0.674563 -0.0886221 
1813 1 -1.3925 -4.62559 5.18233 
18285 1 -0.315748 5.25384 -3.31469 
9184 1 -3.67227 -3.49448 7.28903 
18283 1 1.56969 1.90536 1.88508 
18284 2 -1.81765 -1.76969 -0.55728 
16766 2 -0.425109 -5.30414 4.5123 
16765 1 1.27938 5.12799 4.36675 
16620 1 -3.30011 -1.88869 -4.44439 
12079 1 3.13249 1.93356 -0.125421 
12081 1 -0.44649 8.03908 -5.60223 
12080 2 2.06832 1.43833 -3.84585 
20595 1 -2.07013 -3.98821 0.441798 
9185 2 1.64838 0.457737 2.37271 
1575 1 -1.68671 -0.00966371 -2.79701 
16698 1 1.9564 3.01136 0.75978 
1574 2 -1.51534 -1.76795 -0.278902 
1573 1 1.30613 1.03206 5.78013 
9186 1 -6.85241 2.27162 -3.44807 
10862 2 2.13128 0.738887 -3.04515 
2778 1 -1.15255 6.0474 4.93321 
10863 1 -1.7139 2.80377 3.57267 
2777 2 4.65474 -6.42756 -0.411568 
2776 1 1.47577 -2.312 5.58816 
16697 3 -3.95199 -2.41405 -2.60514 
16696 1 0.100046 -4.10303 -2.91642 
16767 1 0.404449 0.742049 -0.0721563 
4235 2 -0.302597 0.314365 0.147216 
4234 1 2.57666 -3.89799 2.60096 
4236 1 -0.00646876 -7.45087 1.39315 
14090 2 -1.35367 -1.98705 -2.57266 
6064 1 -4.60724 -0.838184 0.678369 
6065 2 -2.81389 1.93356 1.06315 
6066 1 -1.66133 -2.52906 6.73527 
14089 1 -2.80055 -6.15852 4.55544 
14091 1 -1.36782 2.00348 -0.315599 
16618 1 -1.27348 -2.11022 -4.18927 
16619 2 0.311507 0.19623 2.75867 
1774 1 -0.873958 2.09574 -3.05583 
1775 2 2.18598 3.27358 -2.31598 
1776 1 7.72864 -3.08805 -2.30061 
16891 1 0.068555 -1.49732 -1.53255 
2150 3 -0.52031 -1.96394 0.206471 
14378 3 2.06248 -2.64375 -3.54693 
14377 1 -3.94222 -4.78017 -2.82642 
2149 1 2.30681 -0.70958 -0.00823492 
1807 1 -2.71855 -8.25339 2.99737 
14379 1 2.99579 0.440831 0.558049 
1808 3 1.2246 2.94548 -2.09579 
11176 1 4.78226 1.41869 -1.65205 
11177 2 3.22212 0.482603 -1.5723 
2151 1 1.73938 -6.6194 1.06373 
7173 1 -2.01959 -3.75328 2.07298 
7172 2 1.12188 -2.56286 4.09116 
5094 1 0.0371706 4.34912 4.05232 
5092 1 4.14556 5.12398 -2.96135 
7171 1 -1.11455 -0.508814 0.908874 
16892 2 0.631664 0.403848 -3.71351 
16893 1 -2.21794 -0.860566 -5.01926 
811 1 1.78138 -4.05502 4.28322 
812 2 1.66126 -2.54758 2.15581 
813 1 0.898894 -4.42047 6.28044 
1809 1 -2.48177 4.59465 -2.51449 
11593 1 -2.08601 0.419664 -2.54689 
3849 1 -2.6778 4.20755 3.98051 
3848 2 -1.48353 0.837908 -2.32654 
3847 1 1.24969 -0.0759974 3.17723 
11178 1 -6.94705 2.19704 -1.999 
13381 1 2.75796 -1.98261 2.80221 
3065 2 -0.180638 -1.79426 -0.270145 
2482 1 3.00721 5.89449 0.968884 
3064 1 3.93818 3.00086 -3.70029 
2483 2 -2.11496 -1.448 1.63423 
3066 1 -3.61004 2.48616 -5.70086 
2484 1 1.4385 -0.61165 3.44418 
11851 1 -0.905994 2.69167 -0.781532 
20488 1 2.76417 6.32143 -2.01308 
20489 2 -1.26947 2.46352 1.56672 
20490 1 -1.28495 6.67791 -3.29699 
10659 1 8.02725 -1.87444 3.84385 
5849 2 3.8755 -0.597379 0.216617 
5848 1 0.869829 5.76616 0.0339224 
5850 1 0.145084 0.411305 -2.85748 
3835 1 -7.00713 -1.25803 0.241785 
3836 3 2.32157 -0.974479 -0.879507 
12504 1 0.709517 1.65375 -6.45085 
11853 1 -1.69502 -0.518768 -6.70699 
11852 2 6.15947 1.89403 1.86484 
10658 2 -2.66892 -1.2715 -0.78965 
10657 1 3.58733 -3.34718 -3.38675 
2197 1 -0.696031 -0.610278 -2.73609 
2198 2 -5.30256 0.0730458 -0.6934 
2199 1 -2.27554 -6.27025 1.58292 
16868 2 0.699245 -3.60243 3.16778 
18881 2 0.519616 0.67996 0.980173 
18882 1 3.52876 -2.23546 -2.06014 
18629 2 -4.18834 -2.28317 0.263499 
18628 1 -3.91898 2.35043 -2.83623 
18880 1 -7.18997 0.906088 -1.66379 
4611 1 -2.35568 -5.43417 -5.92988 
5093 2 -0.485507 -1.03111 -2.38902 
14273 2 1.16413 -3.03193 1.36793 
14274 1 2.45214 0.32029 0.180802 
14272 1 -2.4924 4.12193 2.20363 
18630 1 -1.12222 -2.59298 3.43967 
17073 1 -1.43411 2.21701 0.0374848 
12503 2 0.0513907 2.47182 -5.33446 
4583 2 -1.8725 -3.84287 -1.45815 
4582 1 -4.64302 3.33679 -2.48106 
17072 2 -0.0031195 -3.8575 1.50909 
17071 1 -0.0046971 1.26636 2.69826 
12502 1 -1.14218 2.58625 0.43296 
5017 1 3.44195 0.625007 6.99101 
6996 1 -5.73036 0.937581 -2.44916 
6995 2 -1.61198 2.2457 0.748103 
7188 1 -8.05452 0.37363 -4.74543 
6994 1 0.111924 0.63816 2.99865 
20448 1 -1.24698 1.99995 -0.408576 
7187 2 0.0248034 -0.663291 1.9531 
7186 1 -1.36223 5.17622 0.423742 
14855 2 -1.56109 -0.590124 4.46334 
14856 1 -4.55941 0.42742 -5.49781 
16601 2 -2.22187 1.20997 0.923694 
16600 1 5.70015 -5.14849 4.02831 
16112 2 0.729689 -0.704992 -4.57557 
16113 1 -2.2121 0.758351 -2.80269 
16869 1 3.11856 -0.239408 -3.26666 
12646 1 -0.993566 -4.76156 -1.64861 
12647 2 -1.55496 -3.48956 4.43323 
12648 1 -5.28305 -6.87296 -0.508987 
16111 1 0.499674 -2.55228 0.643572 
4610 2 0.790546 1.13022 -2.37433 
762 1 1.60917 -3.24491 -0.360052 
4609 1 0.748402 1.1215 2.68601 
761 2 1.52198 -2.67952 6.76641 
760 1 -0.698922 -0.973335 -0.450427 
21027 1 4.35615 -3.7064 -2.33372 
16708 1 -2.32524 -2.68161 -1.17709 
4584 1 -3.28996 2.63074 -1.06273 
14321 2 6.51536 6.77332 -0.166494 
14322 1 5.25326 5.45165 5.20272 
8505 1 0.489458 -7.30901 1.78075 
11594 2 3.83808 2.10246 0.6384 
8504 2 1.29557 -0.134877 -0.291526 
8503 1 1.65937 6.93144 2.93008 
11595 1 -1.55301 1.96412 -5.9635 
16709 2 -1.97196 -5.24448 0.0581852 
16844 2 1.59785 -1.53138 2.06386 
20446 1 4.72051 3.92161 0.111172 
20447 3 -2.05953 -0.439569 1.28355 
10933 1 -0.060489 2.55089 2.80835 
10934 2 4.31053 -1.62847 5.64261 
10935 1 -1.84371 0.81155 -1.97764 
10773 1 6.69627 0.366785 -0.606727 
10772 2 -3.87978 1.58093 -1.67058 
11839 1 -2.42555 3.49304 -1.80394 
13212 1 3.39972 -6.50638 -2.14752 
16602 1 -3.23706 -0.167454 -2.24404 
11763 1 -4.61598 3.39464 1.39141 
13383 1 5.27158 -0.665809 -3.98907 
11761 1 -6.22865 -2.20358 0.692942 
11762 2 2.02464 -3.4248 1.4691 
13382 2 2.23904 1.33274 1.7334 
11841 1 -1.97775 2.69361 -0.0424192 
11840 2 -1.1154 0.208143 -0.389586 
21026 2 4.30666 -0.668537 -1.22042 
21025 1 2.91274 1.13279 1.2999 
2875 1 0.0734127 1.67385 -2.27564 
1063 1 2.21708 5.48163 -0.379169 
16845 1 -2.57796 2.23138 -1.85616 
2877 1 -0.254388 1.12696 -8.61704 
2876 2 2.31148 2.25278 2.20926 
1064 2 -0.516438 0.00177047 -4.52894 
1065 1 -4.1096 5.09222 2.92173 
12018 1 -3.56877 -2.71485 -4.19529 
12016 1 -5.01033 4.18498 3.47403 
12017 3 -2.3252 2.92986 2.80794 
19940 3 -1.55171 1.20395 -0.798509 
19941 1 -0.206508 1.19689 3.74593 
19939 1 -1.56314 -2.29781 4.59138 
20223 1 2.70257 2.97281 -3.33705 
16324 1 0.691839 -3.27183 -1.24726 
8306 2 1.06425 2.01972 3.80896 
8305 1 -5.93987 6.78227 -2.03093 
16903 1 2.31056 2.59498 -2.23078 
8307 1 3.29441 -2.89937 -1.6899 
16326 1 2.249 -0.157271 -1.10952 
16325 2 0.473523 -4.39459 -2.71187 
3837 1 3.41105 6.18999 -3.18525 
2088 1 -0.196148 -1.20763 3.20084 
1977 1 5.29159 -3.19627 -0.117839 
2087 2 1.29457 0.462161 0.903635 
2086 1 -2.45104 0.276144 10.546 
3051 1 -3.06693 -4.79461 4.4885 
3050 2 -1.97694 -1.97385 -2.18057 
16867 1 -2.17533 3.76139 -2.19578 
17841 1 1.23017 0.417291 0.305814 
17839 1 -3.84381 2.4032 1.35512 
17840 2 0.588458 -1.75419 -5.90502 
6470 2 -2.04828 -3.83576 -1.00197 
5865 1 -1.57789 -8.33997 2.02378 
6469 1 -10.4889 4.31176 1.69965 
5776 1 -2.55655 0.644431 3.07431 
5777 2 -3.58668 -1.43122 -0.240881 
5778 1 -1.70323 -6.45394 1.56536 
19675 1 -3.36859 1.93124 -0.87497 
19676 2 -0.683397 -1.16721 2.42837 
5019 1 -4.62605 -5.59528 11.4036 
5018 2 1.60743 0.8367 1.60516 
5864 2 2.62032 1.08868 1.27142 
14320 1 -5.68886 2.70177 -10.434 
5863 1 -1.99191 -0.436567 -4.48127 
13746 1 5.17176 -1.73551 2.7666 
13745 2 0.831822 -1.48397 1.06169 
11685 1 -2.62551 0.542067 -2.42278 
20052 1 -5.47104 -2.77809 0.552848 
20050 1 -4.95907 -0.692078 -0.475028 
3049 1 -2.50525 -7.8929 0.140362 
20051 2 -2.35624 -1.99482 -0.598367 
14854 1 1.72742 2.93389 -0.787282 
5377 1 0.938687 2.46291 -2.43484 
852 1 -4.59998 -1.74797 3.45576 
851 2 -4.15037 0.657816 1.46215 
850 1 4.69525 -1.77292 -10.0875 
781 1 0.358546 -0.645672 6.93798 
782 2 -1.40661 -2.98731 -4.38809 
783 1 2.6453 -1.801 4.05266 
6190 1 -0.622079 -0.503563 0.976503 
7704 1 -0.879274 4.05138 2.52716 
7703 2 1.09108 -1.89242 0.934956 
7702 1 -0.0136045 -5.24262 -1.13901 
2911 1 0.701751 -5.4141 -5.30339 
14890 1 4.70034 -4.62765 -0.0863606 
14891 2 0.687583 1.73638 1.03621 
16843 1 -0.452625 3.25463 -3.97628 
5892 1 -4.62766 1.73928 -2.93699 
11683 1 -2.48603 -0.260469 -0.759099 
5891 2 1.83074 1.63471 0.459096 
5890 1 7.16928 -2.18794 2.57738 
11684 2 2.37219 -7.018 -0.643009 
2912 2 -2.65513 3.88561 1.31492 
10800 1 -1.26027 -3.65009 -0.144124 
10799 2 1.88906 1.74174 -0.555742 
13809 1 5.01067 -1.45688 -0.416696 
13808 2 0.152381 -0.703967 3.69648 
10771 1 -1.70647 5.69302 0.170149 
13807 1 1.23733 -0.353117 4.59449 
890 2 3.07971 0.490032 0.0884997 
14468 2 -1.08514 -2.87788 2.38295 
14467 1 -0.835798 -1.2344 -0.22585 
891 1 0.210481 2.2297 0.400731 
17156 2 0.928712 1.48526 -6.3296 
889 1 4.40673 1.44206 -4.94435 
5378 2 -0.936565 -0.0634357 -1.207 
17157 1 -2.49442 -7.25955 4.94104 
5379 1 -0.44323 -7.1881 0.735076 
17117 2 1.38355 -3.06575 1.65171 
17118 1 6.50079 7.50975 -1.62018 
17116 1 5.60818 -0.646117 -1.3863 
6406 1 -2.59695 -0.418987 -0.0853309 
15961 1 -5.86616 -4.0513 2.54837 
2739 1 1.09148 3.62538 2.17318 
638 2 2.05104 0.142221 0.193427 
639 1 -1.95439 1.38725 5.55195 
2737 1 -3.88056 2.40599 -1.69907 
2738 2 -2.70492 3.00654 -1.47133 
6191 2 -1.25118 -1.03633 4.13828 
6407 2 1.34597 -3.38243 1.11348 
16710 1 -6.94117 -5.41537 -3.85419 
15963 1 3.31276 2.13747 -3.27618 
15962 2 -0.367295 -0.590829 -0.552931 
3115 1 6.42338 5.55317 0.559223 
3117 1 -2.16978 -0.37892 5.01452 
3116 2 -2.88275 -5.1518 0.311835 
21382 1 1.73955 -4.22632 -1.08998 
13457 2 1.05429 3.88907 -5.22315 
13458 1 0.578366 -2.02285 -0.200523 
20222 2 2.25228 -1.78428 -1.82116 
19728 1 0.765842 0.719314 3.58814 
21383 2 0.682203 0.919643 2.91094 
21384 1 4.23436 0.195791 0.644409 
20221 1 2.11339 3.45799 2.36555 
13418 3 1.56852 5.61424 1.62164 
13417 1 -1.28093 -3.92664 1.72904 
8181 1 -0.330465 -1.69197 -6.11922 
20930 3 3.04758 0.230607 1.26069 
20929 1 -3.40446 -0.0948927 5.94089 
13419 1 0.0530336 -7.49946 -1.47754 
16905 1 -7.31514 -5.5062 3.59251 
16904 2 -0.365077 -1.02158 1.39311 
10792 1 2.61667 0.241774 1.91991 
8580 1 4.11318 1.33547 2.15749 
8578 1 1.43223 2.66894 2.83002 
8579 2 -2.5289 -0.790201 3.73111 
10793 2 -1.98638 -0.488054 -0.195412 
10794 1 -0.340574 2.78353 3.4034 
7311 1 -8.87558 -0.052508 0.341812 
7310 2 0.23473 -4.03323 -1.89911 
1975 1 -0.90146 3.2558 -2.98029 
1976 2 -1.26737 -2.0048 -2.76097 
19677 1 0.874872 -2.17871 -1.98226 
6471 1 -0.620093 -0.679267 3.38163 
4714 1 4.54727 -7.33011 -1.32384 
4715 2 1.50018 1.74177 1.35907 
4716 1 0.500192 -0.104958 1.61326 
19467 1 1.95787 -5.85612 2.57845 
19783 1 2.91176 -3.70224 0.175455 
19466 2 -2.09853 2.4915 -0.75167 
7309 1 -4.51662 1.4023 -2.3043 
19785 1 0.252051 1.59268 6.99344 
4081 1 0.514801 -1.3932 3.85019 
13744 1 2.2536 5.25268 -3.05179 
4083 1 3.54482 0.722703 -3.84182 
4082 2 -0.392786 0.0275615 -0.478139 
13596 1 -6.68998 2.70181 -0.0521358 
3638 2 2.77525 -0.488762 -0.837405 
3637 1 -5.57564 -2.12136 -0.759219 
13431 1 7.1016 -1.26215 2.2614 
3639 1 -2.13312 -1.95516 -0.0504314 
13595 2 -3.8447 6.20393 0.529531 
19784 2 -5.83766 1.73182 1.98729 
9255 1 4.13526 -2.96609 -5.5502 
3410 2 2.08146 -2.05829 5.03618 
14892 1 -0.343549 1.29347 6.26326 
3411 1 2.69577 -1.34247 -2.48043 
19465 1 1.35291 1.02577 -2.62533 
3409 1 -5.83692 -0.985588 0.539035 
18045 1 4.45089 2.3361 -2.1709 
18044 2 0.0229694 -1.33545 2.33578 
18043 1 -1.18383 -3.31965 -1.24408 
5172 1 7.16908 -2.81769 -7.17799 
5171 2 0.322632 -1.52173 -4.8993 
13594 1 -2.70673 7.16523 -1.37976 
2913 1 -0.90383 -5.55673 -3.95017 
10798 1 0.456113 -3.26843 -0.713717 
2567 2 3.18102 7.31222 -1.70397 
2566 1 -0.640586 5.73367 -1.57047 
2568 1 -0.133326 1.52285 0.541634 
9120 1 -1.34699 -6.01092 0.452902 
9119 2 -3.17414 -0.910665 2.5682 
9118 1 1.87318 -3.99171 -4.89707 
9254 2 -1.26118 0.478255 -3.74518 
17317 1 3.05432 0.777448 0.347659 
19726 1 4.75876 -2.03151 -3.38247 
19727 2 4.55797 -0.175883 -0.0165073 
9253 1 0.813 2.71499 -0.688001 
12402 1 -3.26235 7.96827 -4.92313 
12401 2 -0.456119 1.14088 -3.95924 
12400 1 -0.39335 0.684225 1.12504 
19003 1 1.84516 2.69452 3.80625 
17319 1 0.0203447 0.316654 3.91904 
17318 2 1.68652 1.57163 3.52908 
14469 1 0.744595 1.33611 0.519231 
17155 1 0.896836 0.231492 -5.24058 
9097 1 -3.49914 -2.05057 2.60671 
9098 2 -5.19153 1.25039 -0.518474 
9099 1 0.483739 -0.850425 -0.419085 
6192 1 -1.68417 -0.114846 -2.0562 
17919 1 -0.63505 -0.0417088 -1.64287 
5170 1 -5.26566 8.13789 0.553164 
6408 1 -5.28659 -1.1749 -0.0252736 
17918 2 -1.56055 1.01739 -3.8866 
17917 1 2.07365 -4.0867 8.43268 
13351 1 -5.75749 3.10114 -0.331303 
13352 2 0.984424 -0.873159 2.97809 
17944 1 -8.69729 -3.2443 3.12603 
17945 2 -3.49251 0.665917 -4.77423 
11038 1 2.01327 0.551163 -1.89639 
17946 1 3.093 0.664329 -5.27318 
582 1 -3.18848 -4.46016 -3.29087 
581 2 0.416013 3.74252 -1.7872 
8858 2 -5.49134 -1.74001 3.62818 
11039 2 -0.667926 0.660124 3.55529 
9878 2 -0.304923 -3.64487 -0.96369 
9879 1 0.688183 -2.93656 3.32647 
9877 1 6.78805 5.59568 3.20266 
19004 2 0.635789 -1.56689 -2.38733 
580 1 4.17297 -4.83871 0.201358 
19005 1 -0.0750099 -3.873 4.35773 
20723 2 -0.292331 0.706777 -5.39277 
20722 1 4.84341 -1.36548 1.85739 
12586 1 1.39041 -1.91058 -3.34681 
12587 2 1.57844 -0.942133 0.884577 
12588 1 -2.95219 -3.02579 0.849401 
20931 1 3.46458 2.03231 2.20734 
20724 1 -3.29492 0.32081 -2.80728 
8180 2 -2.65392 0.213388 4.54714 
8179 1 -0.64217 3.32167 0.207306 
10677 1 0.541648 -2.27921 -0.637409 
14478 1 0.902175 -3.69171 1.7082 
14477 3 0.273991 -0.0322856 2.73744 
14476 1 4.00591 3.041 3.67377 
13430 2 -0.989051 0.058719 0.0153312 
10676 3 -1.10646 -3.52789 -2.22328 
13429 1 3.42653 4.8302 -3.49597 
10675 1 -1.50357 -1.48347 3.21778 
775 1 -4.35644 -1.21479 -4.94417 
776 3 2.46312 -1.20163 -0.762694 
777 1 -0.0449164 3.7032 4.82801 
21252 1 3.65181 -1.76866 -2.18577 
21251 2 -2.63273 2.06822 1.51809 
13353 1 -7.9322 -10.9885 0.825092 
8857 1 1.44302 0.315358 1.58825 
21250 1 -6.17988 -2.96382 3.20624 
13144 1 0.132972 -5.47407 2.94564 
13145 2 -1.3616 -0.541392 -4.54604 
13146 1 3.58006 -10.6732 -1.5569 
21157 1 -3.12217 -0.435399 5.69815 
21158 3 4.37591 -3.20655 2.00605 
4932 1 -7.75506 3.70108 -0.650044 
4931 2 -4.12022 -3.83502 0.650577 
4930 1 -1.58595 0.680458 -0.338525 
13818 1 3.33621 -6.32899 -3.09437 
19933 1 3.06845 0.368745 -5.60882 
19935 1 0.910864 -3.35105 3.77138 
19934 3 5.74545 2.3303 -2.23149 
13817 3 -4.13559 -0.627874 -0.244311 
8433 1 6.48688 -3.27637 0.045167 
13816 1 -4.33389 2.83731 0.765559 
8432 3 1.61132 3.51391 1.57797 
20538 1 0.757955 1.79623 -0.181657 
8431 1 -5.80923 -2.18966 0.145888 
20537 3 -0.397063 4.66538 1.73957 
21159 1 -1.61092 0.35912 2.43872 
17274 1 -2.23468 1.27048 -3.82458 
20536 1 -7.01779 -3.75987 -3.37858 
17272 1 3.29844 -0.0894052 -6.22914 
17273 2 0.366665 0.972689 0.128374 
15672 1 4.20922 -0.508039 -2.73745 
15670 1 1.46435 -2.53979 1.03876 
15671 3 3.62669 -0.779446 -2.49048 
