ITEM: TIMESTEP
20000000
ITEM: NUMBER OF ATOMS
75
ITEM: BOX BOUNDS pp pp pp
0.0000000000000000e+00 5.0000000000000000e+01
0.0000000000000000e+00 5.0000000000000000e+01
0.0000000000000000e+00 5.0000000000000000e+01
ITEM: ATOMS id type vx vy vz 
20814 1 -3.56992 2.23606 -0.9581 
20812 1 0.320896 5.74542 -0.144517 
20813 2 -1.80653 5.91486 -3.18946 
17024 3 -1.57937 0.398297 3.06296 
17023 1 -2.40643 -1.01805 3.15627 
9551 3 -3.94203 1.41882 1.20887 
9550 1 3.19819 1.02892 2.89077 
8731 1 1.23212 5.92293 2.71259 
4830 1 -2.70517 -3.30068 1.41274 
15162 1 1.00902 0.342601 0.917204 
8732 3 1.0502 3.35761 -1.20193 
8733 1 -4.1665 -5.34403 2.84296 
7443 1 0.629963 -2.6817 3.9002 
7442 3 1.08864 5.50373 -2.07941 
15160 1 0.937608 -1.00243 -3.62275 
15161 3 -1.5398 1.69081 -2.39335 
7441 1 -5.53216 -1.08122 2.07562 
8248 1 2.84839 -4.51903 1.98691 
4828 1 -6.76309 -2.57241 6.22886 
4829 3 -0.361142 -3.26603 -3.06275 
13232 3 2.65394 -0.371013 -1.07476 
13231 1 -0.398692 -3.62002 -0.438045 
13404 1 -0.481266 0.533398 -1.85117 
13402 1 -0.526825 9.22188 -2.23553 
13403 3 0.531776 1.60294 2.22116 
19813 1 2.3268 -1.08351 3.21339 
4748 3 -3.56881 2.648 1.7929 
4749 1 -1.18848 -1.18461 3.59135 
19814 2 -3.00831 1.01679 0.980516 
19815 1 -4.2688 1.15436 0.650822 
20043 1 -5.46667 -2.50019 2.96576 
21201 1 -4.26792 1.28976 -2.39498 
4747 1 -6.43284 -0.965947 -1.79535 
15372 1 2.21655 2.13243 7.04161 
13233 1 0.854729 0.832238 -6.07402 
20041 1 -8.99292 -1.11642 -0.0863095 
20042 3 -0.313251 0.201979 0.689943 
21200 3 -3.01759 -1.07611 3.47868 
1777 1 -1.69059 -1.94217 3.45577 
1683 1 -0.703554 2.42886 -0.133087 
13339 1 3.32657 -1.4087 -4.30175 
13341 1 1.98287 -2.13232 1.13353 
1779 1 1.71175 5.91467 1.99322 
1778 3 1.32942 0.551219 4.89006 
13340 3 0.621491 -3.255 -2.33746 
21199 1 3.6928 -4.59635 1.56993 
17025 1 -0.482401 -3.44165 2.27221 
1681 1 11.4607 1.2539 -2.02806 
1682 3 0.690208 0.783695 -2.45982 
18106 1 1.23345 2.49137 -7.30695 
18107 2 0.0261578 -0.658225 0.45013 
18108 1 -6.43728 -3.20656 -2.29384 
9552 1 1.39616 2.76906 -1.53113 
9909 1 3.00449 0.113159 -0.47688 
9908 3 -4.113 4.82909 -0.782388 
9907 1 -1.64224 -3.9051 -2.23608 
8249 3 3.01877 -1.9535 -0.880193 
8250 1 2.4445 -1.61737 -1.91369 
5162 2 -2.8041 4.9377 3.0627 
5163 1 6.5956 1.50225 1.07786 
5161 1 3.18745 3.73905 3.2166 
5975 3 -1.25028 -1.09394 3.88535 
5974 1 2.46539 -3.29836 0.162205 
1932 1 4.26285 -3.71115 0.478264 
15371 2 2.12802 -0.873118 -4.59075 
15370 1 0.556109 -0.644895 -2.7036 
16393 1 5.4751 -1.33708 1.57659 
16394 3 -2.05722 2.34611 0.811214 
20008 1 2.15029 -7.24687 3.39 
20009 3 1.11354 -4.1372 -0.83572 
16395 1 -4.24464 -3.45239 -7.23886 
20010 1 -4.82273 -3.27238 -0.0808246 
1930 1 2.42648 3.0629 -2.58852 
1931 3 -0.65316 -0.985126 -1.60818 
5976 1 1.22702 -4.11702 1.05488 
