ITEM: TIMESTEP
0
ITEM: NUMBER OF ATOMS
705
ITEM: BOX BOUNDS pp pp pp
0.0000000000000000e+00 5.0000000000000000e+01
0.0000000000000000e+00 5.0000000000000000e+01
0.0000000000000000e+00 5.0000000000000000e+01
ITEM: ATOMS id type 
133 1 
134 3 
135 1 
136 1 
137 2 
138 1 
190 1 
191 2 
192 1 
322 1 
323 2 
324 1 
382 1 
383 2 
384 1 
1279 1 
1280 2 
1281 1 
1288 1 
1289 2 
1290 1 
1516 1 
1517 2 
1518 1 
3496 1 
3497 2 
3498 1 
3547 1 
3548 2 
3549 1 
3610 1 
3611 2 
3612 1 
3685 1 
3686 3 
3687 1 
3736 1 
3737 2 
3738 1 
4510 1 
4511 2 
4512 1 
5587 1 
5588 2 
5589 1 
5881 1 
5882 2 
5883 1 
6787 1 
6788 2 
6789 1 
6808 1 
6809 3 
6810 1 
7945 1 
7946 2 
7947 1 
7993 1 
7994 2 
7995 1 
8122 1 
8123 2 
8124 1 
8176 1 
8177 2 
8178 1 
8185 1 
8186 2 
8187 1 
9016 1 
9017 3 
9018 1 
9307 1 
9308 3 
9309 1 
9967 1 
9968 2 
9969 1 
10048 1 
10049 2 
10050 1 
10201 1 
10202 2 
10203 1 
10345 1 
10346 2 
10347 1 
11287 1 
11288 2 
11289 1 
11464 1 
11465 2 
11466 1 
12241 1 
12242 2 
12243 1 
12322 1 
12323 2 
12324 1 
12379 1 
12380 2 
12381 1 
12508 1 
12509 2 
12510 1 
12553 1 
12554 2 
12555 1 
13228 1 
13229 2 
13230 1 
13348 1 
13349 2 
13350 1 
13447 1 
13448 2 
13449 1 
13582 1 
13583 2 
13584 1 
13585 1 
13586 2 
13587 1 
14428 1 
14429 2 
14430 1 
14599 1 
14600 2 
14601 1 
14668 1 
14669 2 
14670 1 
15493 1 
15494 2 
15495 1 
16339 1 
16340 2 
16341 1 
16699 1 
16700 2 
16701 1 
17344 1 
17345 2 
17346 1 
17413 1 
17414 2 
17415 1 
18784 1 
18785 2 
18786 1 
18790 1 
18791 2 
18792 1 
18868 1 
18869 2 
18870 1 
19522 1 
19523 2 
19524 1 
19699 1 
19700 2 
19701 1 
20527 1 
20528 2 
20529 1 
20653 1 
20654 2 
20655 1 
20947 1 
20948 2 
20949 1 
223 1 
224 2 
225 1 
1411 1 
1412 2 
1413 1 
1543 1 
1544 2 
1545 1 
2257 1 
2258 2 
2259 1 
2491 1 
2492 2 
2493 1 
2626 1 
2627 2 
2628 1 
3211 1 
3212 2 
3213 1 
4549 1 
4550 2 
4551 1 
4603 1 
4604 2 
4605 1 
5569 1 
5570 2 
5571 1 
5614 1 
5615 2 
5616 1 
5623 1 
5624 2 
5625 1 
5629 1 
5630 3 
5631 1 
7174 1 
7175 2 
7176 1 
7249 1 
7250 2 
7251 1 
7915 1 
7916 2 
7917 1 
8140 1 
8141 3 
8142 1 
8143 1 
8144 2 
8145 1 
8272 1 
8273 2 
8274 1 
10009 1 
10010 2 
10011 1 
10060 1 
10061 2 
10062 1 
10237 1 
10238 2 
10239 1 
11518 1 
11519 2 
11520 1 
12163 1 
12164 2 
12165 1 
12235 1 
12236 2 
12237 1 
12295 1 
12296 2 
12297 1 
12397 1 
12398 2 
12399 1 
12412 1 
12413 3 
12414 1 
12457 1 
12458 2 
12459 1 
12598 1 
12599 2 
12600 1 
13309 1 
13310 2 
13311 1 
14338 1 
14339 2 
14340 1 
14491 1 
14492 2 
14493 1 
14614 1 
14615 2 
14616 1 
15706 1 
15707 2 
15708 1 
16366 1 
16367 2 
16368 1 
16369 1 
16370 2 
16371 1 
17314 1 
17315 2 
17316 1 
17338 1 
17339 2 
17340 1 
17380 1 
17381 2 
17382 1 
17614 1 
17615 2 
17616 1 
17737 1 
17738 2 
17739 1 
17803 1 
17804 2 
17805 1 
19483 1 
19484 2 
19485 1 
19789 1 
19790 2 
19791 1 
20569 1 
20570 2 
20571 1 
20677 1 
20678 2 
20679 1 
20686 1 
20687 3 
20688 1 
20869 1 
20870 2 
20871 1 
20878 1 
20879 2 
20880 1 
20926 1 
20927 2 
20928 1 
21043 1 
21044 2 
21045 1 
21055 1 
21056 2 
21057 1 
568 1 
569 3 
570 1 
844 1 
845 2 
846 1 
859 1 
860 2 
861 1 
913 1 
914 2 
915 1 
2167 1 
2168 2 
2169 1 
3001 1 
3002 2 
3003 1 
3922 1 
3923 2 
3924 1 
5005 1 
5006 2 
5007 1 
5053 1 
5054 2 
5055 1 
5233 1 
5234 3 
5235 1 
5356 1 
5357 2 
5358 1 
5362 1 
5363 2 
5364 1 
6181 1 
6182 2 
6183 1 
6541 1 
6542 2 
6543 1 
8473 1 
8474 2 
8475 1 
8647 1 
8648 2 
8649 1 
8722 1 
8723 3 
8724 1 
8848 1 
8849 2 
8850 1 
9610 1 
9611 2 
9612 1 
9745 1 
9746 2 
9747 1 
10705 1 
10706 2 
10707 1 
10864 1 
10865 2 
10866 1 
10984 1 
10985 2 
10986 1 
11668 1 
11669 2 
11670 1 
11707 1 
11708 2 
11709 1 
11950 1 
11951 2 
11952 1 
12019 1 
12020 2 
12021 1 
12844 1 
12845 2 
12846 1 
12961 1 
12962 2 
12963 1 
13705 1 
13706 2 
13707 1 
13924 1 
13925 3 
13926 1 
14041 1 
14042 2 
14043 1 
14896 1 
14897 2 
14898 1 
14965 1 
14966 2 
14967 1 
15148 1 
15149 2 
15150 1 
15193 1 
15194 2 
15195 1 
16756 1 
16757 2 
16758 1 
16804 1 
16805 2 
16806 1 
16876 1 
16877 2 
16878 1 
16924 1 
16925 2 
16926 1 
17113 1 
17114 2 
17115 1 
17161 1 
17162 3 
17163 1 
17230 1 
17231 2 
17232 1 
17821 1 
17822 2 
17823 1 
18016 1 
18017 2 
18018 1 
18910 1 
18911 3 
18912 1 
18928 1 
18929 2 
18930 1 
19027 1 
19028 2 
19029 1 
19108 1 
19109 2 
19110 1 
19384 1 
19385 2 
19386 1 
19945 1 
19946 3 
19947 1 
21442 1 
21443 2 
21444 1 
592 1 
593 2 
594 1 
751 1 
752 2 
753 1 
952 1 
953 2 
954 1 
1075 1 
1076 2 
1077 1 
2749 1 
2750 3 
2751 1 
2803 1 
2804 2 
2805 1 
2914 1 
2915 2 
2916 1 
2929 1 
2930 2 
2931 1 
2995 1 
2996 2 
2997 1 
3100 1 
3101 2 
3102 1 
3157 1 
3158 2 
3159 1 
3163 1 
3164 2 
3165 1 
3169 1 
3170 2 
3171 1 
3178 1 
3179 2 
3180 1 
3940 1 
3941 3 
3942 1 
4066 1 
4067 2 
4068 1 
4135 1 
4136 2 
4137 1 
4318 1 
4319 2 
4320 1 
4957 1 
4958 2 
4959 1 
5131 1 
5132 2 
5133 1 
5149 1 
5150 2 
5151 1 
5338 1 
5339 2 
5340 1 
6274 1 
6275 2 
6276 1 
6571 1 
6572 3 
6573 1 
6574 1 
6575 2 
6576 1 
6577 1 
6578 3 
6579 1 
7354 1 
7355 2 
7356 1 
7360 1 
7361 2 
7362 1 
7549 1 
7550 2 
7551 1 
7555 1 
7556 2 
7557 1 
8563 1 
8564 2 
8565 1 
8677 1 
8678 2 
8679 1 
9409 1 
9410 2 
9411 1 
9700 1 
9701 2 
9702 1 
9889 1 
9890 2 
9891 1 
9898 1 
9899 2 
9900 1 
10594 1 
10595 2 
10596 1 
11092 1 
11093 2 
11094 1 
11680 1 
11681 2 
11682 1 
11857 1 
11858 2 
11859 1 
11971 1 
11972 2 
11973 1 
13120 1 
13121 2 
13122 1 
13126 1 
13127 2 
13128 1 
13666 1 
13667 2 
13668 1 
13672 1 
13673 2 
13674 1 
13711 1 
13712 2 
13713 1 
13714 1 
13715 2 
13716 1 
13903 1 
13904 2 
13905 1 
13954 1 
13955 2 
13956 1 
14032 1 
14033 2 
14034 1 
14098 1 
14099 3 
14100 1 
14797 1 
14798 2 
14799 1 
14917 1 
14918 2 
14919 1 
15877 1 
15878 3 
15879 1 
16132 1 
16133 3 
16134 1 
16786 1 
16787 2 
16788 1 
16957 1 
16958 2 
16959 1 
17038 1 
17039 2 
17040 1 
18049 1 
18050 2 
18051 1 
18175 1 
18176 2 
18177 1 
18295 1 
18296 2 
18297 1 
19075 1 
19076 2 
19077 1 
19180 1 
19181 2 
19182 1 
19183 1 
19184 2 
19185 1 
19360 1 
19361 2 
19362 1 
20098 1 
20099 2 
20100 1 
20317 1 
20318 2 
20319 1 
20500 1 
20501 2 
20502 1 
21151 1 
21152 2 
21153 1 
21289 1 
21290 2 
21291 1 
21400 1 
21401 2 
21402 1 
21538 1 
21539 2 
21540 1 
21580 1 
21581 2 
21582 1 
