ITEM: TIMESTEP
0
ITEM: NUMBER OF ATOMS
165
ITEM: BOX BOUNDS pp pp pp
0.0000000000000000e+00 5.0000000000000000e+01
0.0000000000000000e+00 5.0000000000000000e+01
0.0000000000000000e+00 5.0000000000000000e+01
ITEM: ATOMS id type 
1324 1 
1325 2 
1326 1 
5461 1 
5462 2 
5463 1 
5641 1 
5642 2 
5643 1 
5653 1 
5654 2 
5655 1 
5779 1 
5780 2 
5781 1 
5827 1 
5828 2 
5829 1 
5845 1 
5846 2 
5847 1 
6841 1 
6842 2 
6843 1 
6865 1 
6866 2 
6867 1 
8944 1 
8945 2 
8946 1 
11233 1 
11234 2 
11235 1 
12145 1 
12146 2 
12147 1 
12361 1 
12362 2 
12363 1 
12481 1 
12482 3 
12483 1 
13387 1 
13388 2 
13389 1 
14344 1 
14345 2 
14346 1 
15502 1 
15503 2 
15504 1 
15661 1 
15662 2 
15663 1 
18724 1 
18725 2 
18726 1 
271 1 
272 2 
273 1 
3757 1 
3758 2 
3759 1 
4363 1 
4364 2 
4365 1 
5692 1 
5693 2 
5694 1 
6877 1 
6878 2 
6879 1 
7018 1 
7019 2 
7020 1 
7798 1 
7799 2 
7800 1 
9100 1 
9101 3 
9102 1 
10315 1 
10316 2 
10317 1 
11374 1 
11375 3 
11376 1 
11389 1 
11390 2 
11391 1 
11497 1 
11498 2 
11499 1 
11506 1 
11507 2 
11508 1 
13360 1 
13361 2 
13362 1 
14566 1 
14567 2 
14568 1 
16378 1 
16379 2 
16380 1 
16483 1 
16484 2 
16485 1 
17431 1 
17432 2 
17433 1 
20572 1 
20573 2 
20574 1 
20797 1 
20798 2 
20799 1 
3853 1 
3854 2 
3855 1 
8761 1 
8762 2 
8763 1 
11782 1 
11783 3 
11784 1 
13108 1 
13109 2 
13110 1 
14782 1 
14783 2 
14784 1 
16099 1 
16100 2 
16101 1 
18247 1 
18248 3 
18249 1 
19387 1 
19388 2 
19389 1 
1054 1 
1055 2 
1056 1 
5212 1 
5213 2 
5214 1 
10972 1 
10973 2 
10974 1 
12760 1 
12761 2 
12762 1 
15229 1 
15230 3 
15231 1 
20038 1 
20039 2 
20040 1 
20149 1 
20150 2 
20151 1 
21391 1 
21392 2 
21393 1 
