ITEM: TIMESTEP
20000000
ITEM: NUMBER OF ATOMS
312
ITEM: BOX BOUNDS pp pp pp
0.0000000000000000e+00 5.0000000000000000e+01
0.0000000000000000e+00 5.0000000000000000e+01
0.0000000000000000e+00 5.0000000000000000e+01
ITEM: ATOMS id type vx vy vz 
19714 1 -7.79984 -1.65438 -4.91058 
19716 1 4.5003 -4.57765 0.290122 
20674 1 -0.0190115 2.9872 -3.16115 
19715 2 1.83917 -1.58681 2.13769 
20675 3 -0.979753 0.0667298 3.01059 
20676 1 2.03449 -0.664171 4.29793 
8562 1 -2.01895 6.33075 1.42143 
19735 1 0.206699 -1.36787 -1.13178 
19736 3 -1.15367 1.22161 0.406261 
4923 1 -5.76235 1.91481 -2.17222 
4921 1 -5.07506 2.9926 -6.09418 
4922 3 -2.02239 -0.65336 -0.652322 
3500 3 -1.34348 -3.10185 5.37535 
3499 1 2.53889 -5.46444 -6.48404 
7503 1 3.43625 7.33246 0.0461596 
5056 1 -2.24105 -4.46185 2.54972 
5058 1 1.10561 1.48664 -3.13376 
5057 3 2.99065 1.30315 1.52412 
7033 1 -6.09586 1.48548 -6.34943 
6160 1 2.67374 -0.331755 2.4723 
6161 3 3.03232 -0.422081 0.786822 
6162 1 2.28829 -5.44641 -2.27164 
7502 3 4.77027 6.90701 2.40179 
14196 1 -3.12088 -3.32722 2.58495 
14195 3 1.14536 -1.29463 1.75042 
14194 1 6.11258 -0.0339015 3.76029 
19048 1 -1.10578 -1.49679 -2.98915 
9398 3 -0.369598 -0.555381 -1.14681 
9397 1 1.6223 -0.415355 -1.57413 
8560 1 -1.75056 -1.2766 0.00327851 
8561 3 -0.219457 -1.35971 -4.54646 
9399 1 -4.98966 -2.69311 -7.09547 
7034 3 0.596527 1.26338 0.437731 
7035 1 -1.9112 0.243399 1.17641 
17562 1 -3.09654 1.94962 -3.45402 
15910 1 -2.08283 2.84247 -3.61604 
452 3 2.07002 0.0332663 0.780755 
451 1 -5.35771 0.554778 -1.85235 
2251 1 -1.92553 -2.90188 -1.20068 
15911 3 2.21285 -1.43497 2.49132 
15912 1 -3.61191 -5.00473 0.158763 
12765 1 -4.11 -2.47709 -0.371001 
12764 3 3.2194 1.79564 2.44142 
19737 1 3.37133 0.325532 -1.25837 
453 1 -3.33269 -3.01502 1.42456 
13051 1 0.00690263 3.56836 4.93341 
13053 1 -0.104399 3.97983 -1.79235 
13052 3 1.15179 -1.39229 0.851344 
19828 1 -4.99527 0.909996 2.07255 
18286 1 0.865826 2.95766 5.12477 
18287 3 0.794239 -3.17424 4.9371 
18288 1 -1.51866 2.81752 -6.09412 
482 3 -3.77296 0.0760673 -1.07641 
481 1 5.22642 3.58322 3.49472 
17561 3 -2.26824 -1.68496 -1.06875 
483 1 2.66745 -1.36766 -2.49134 
17560 1 -1.89016 0.0519736 4.75545 
4149 1 4.05103 -2.83673 -1.20003 
12763 1 4.87914 1.65926 -1.9558 
2252 3 1.97025 -1.49721 -1.25605 
4245 1 -2.78672 -1.77738 1.79166 
3501 1 2.91302 6.21724 -3.04614 
2253 1 1.97489 0.404108 1.49043 
5632 1 4.58499 -2.68951 5.48967 
5633 3 1.70232 -2.44912 1.98851 
4244 3 3.78958 0.813984 4.79283 
4243 1 -3.5523 1.17632 -2.31085 
11058 1 -0.982586 -0.356997 -2.02869 
11057 3 1.01683 0.967416 2.13995 
5634 1 -0.0896104 0.919014 1.41858 
11056 1 3.54364 -2.15136 -1.62173 
3957 1 -1.6663 0.575407 -0.899507 
3956 3 -0.870124 -5.18452 4.15727 
3955 1 -5.70971 -5.50232 5.17659 
11827 1 6.68323 0.0715526 0.787836 
18693 1 2.67822 3.08728 -3.04386 
18692 3 2.60906 -2.41558 1.30151 
18691 1 -2.96793 -4.53389 -2.39461 
5994 1 -1.63531 -0.68376 2.17113 
5992 1 8.32301 2.6084 -1.52801 
13843 1 1.98635 -0.92085 -0.202564 
5993 2 0.074505 0.771536 -2.86331 
13844 3 0.693899 2.37544 -4.07896 
13845 1 -0.0411159 2.54926 0.449277 
14362 1 0.729612 -4.23064 -2.41617 
15608 3 6.19668 -2.25603 1.557 
15607 1 5.09053 2.29115 1.56556 
15609 1 1.22103 3.90775 4.81642 
15009 1 6.58952 -0.959867 -2.67108 
7501 1 0.68084 6.63079 5.2867 
6876 1 -6.09789 -1.9472 -1.23242 
6874 1 -1.24998 4.47731 7.54824 
17065 1 5.88441 -0.191998 2.56898 
6875 3 -2.25177 -3.5008 2.2831 
3396 1 -10.787 5.86079 1.52721 
19049 3 -1.0066 2.43655 -3.18609 
3395 3 -0.151363 1.52734 0.992648 
7693 1 -1.29825 0.454318 6.70459 
7694 3 -0.736047 2.39913 2.29385 
1909 1 3.05783 -5.1296 0.899948 
11075 3 -0.900535 0.212558 2.92256 
11074 1 -0.359312 -3.5421 -3.24111 
7695 1 2.76051 0.534005 -2.88282 
10914 1 -5.37099 1.0242 -1.45558 
18585 1 4.04619 -1.15578 3.52126 
18584 3 -0.94221 -6.08457 -0.578123 
18583 1 -2.88929 -3.12101 1.34704 
16038 1 8.65451 2.75241 -0.32002 
16037 3 -0.825507 -0.156164 -1.74682 
16036 1 -0.345922 6.37588 1.23717 
4525 1 7.17411 -2.37124 3.25791 
4527 1 0.940546 5.02627 -2.68924 
10912 1 -5.52766 1.38173 3.37103 
4526 3 -3.53076 2.96305 0.0359686 
20996 3 -2.81259 1.55388 3.36634 
20997 1 0.427178 -5.32087 1.20076 
20995 1 0.160539 -0.818453 1.14376 
3219 1 3.52085 -1.69453 9.33343 
3218 3 0.901995 -3.3282 -0.705099 
10913 3 0.071075 0.207527 1.21156 
3217 1 1.87094 1.10549 2.1803 
21542 3 -2.26411 -3.83416 1.12754 
14364 1 2.86934 2.14415 -4.16457 
14363 3 -0.279932 0.473757 1.74169 
12873 1 -1.80712 -3.0896 -1.33449 
12872 3 5.12167 0.821733 2.67996 
935 3 0.51045 -0.402206 -2.55179 
934 1 -0.149096 1.5399 -5.40076 
936 1 -5.3802 3.72287 -2.77742 
15574 1 -1.62576 -1.69167 -2.7192 
19829 3 -0.789164 0.670276 -0.969517 
11428 1 -1.02266 1.94272 -0.781339 
19830 1 0.303834 0.825383 3.30575 
19050 1 -1.16587 3.36639 -2.85343 
2975 3 2.343 -1.93053 1.26637 
2976 1 1.2804 -0.223457 -0.687849 
2974 1 -2.74341 6.9583 0.106453 
16764 1 -1.23187 4.5138 4.03609 
1612 1 5.87205 -1.75964 -1.04653 
11076 1 -0.660952 3.86888 4.99258 
1614 1 -6.61139 -0.575216 -1.11845 
1613 3 -1.13725 -0.497431 0.533377 
2463 1 3.57714 2.74324 -3.78098 
2677 1 0.0217105 -0.297577 4.18048 
7683 1 -5.59986 -1.70123 3.24696 
4147 1 2.78345 1.57304 -0.440921 
12391 1 0.896351 -1.07824 3.8231 
12392 3 -3.67277 8.51396 0.715192 
11803 1 0.65203 1.92968 0.16645 
12393 1 -0.947294 -5.05264 1.59179 
2462 3 1.92313 -0.550317 0.469611 
7682 3 -1.54453 -1.41674 1.91353 
7681 1 -3.94013 0.0802103 1.39021 
16734 1 -1.80668 -1.12852 -1.49446 
2461 1 -0.00895924 -2.85133 3.02574 
16733 3 2.20454 2.5435 0.0844693 
11804 3 -0.609119 2.59858 -1.53143 
4148 3 -0.359285 1.36151 1.08129 
4895 3 -3.14187 -1.29935 5.58144 
16732 1 3.65051 -0.638471 3.10083 
4896 1 -1.41339 2.30284 0.643872 
1295 3 2.29596 0.311596 1.29029 
1296 1 0.0392849 2.03009 -0.362339 
11430 1 2.97162 -3.556 -1.11056 
4894 1 1.50642 -2.91084 -1.62315 
17809 1 0.713784 -0.439047 8.58832 
17811 1 2.57944 -5.28836 1.27267 
17810 3 1.97114 -0.702977 -0.541012 
11429 3 -0.113606 0.134606 -3.38494 
11828 3 -0.998053 -2.30932 -0.997132 
7543 1 -3.49127 3.73018 -3.68914 
7544 3 0.254463 0.0422466 1.17882 
11829 1 -4.87983 1.74242 3.13601 
3684 1 3.91591 -3.50947 1.11773 
3682 1 -4.52787 1.5224 -3.66356 
3683 3 -2.71033 -0.0860224 1.1433 
21 1 -0.783801 4.60328 1.75621 
5248 1 -4.68417 -3.01224 -2.67481 
20 3 2.70641 -1.46751 -4.64836 
5249 3 -0.355338 0.290807 1.88907 
19 1 -1.15134 -3.38497 -4.26945 
5250 1 -1.13578 0.981587 4.47255 
11244 1 -7.9797 -2.92073 -5.38093 
11243 3 -1.88547 -3.58148 -3.74571 
19895 3 0.217758 2.78551 -3.05164 
19896 1 5.60042 -0.875336 5.09286 
11242 1 -1.987 -0.627255 2.62032 
19894 1 2.88849 -1.05216 -1.79723 
17247 1 -1.28333 -4.27607 -2.44042 
17246 3 1.69896 -0.203277 -5.86852 
17245 1 -6.01688 -0.532981 -6.01347 
1294 1 -1.30328 -1.31979 0.830847 
8527 1 5.61345 -3.43055 -0.955933 
984 1 5.02023 1.94318 -7.82504 
15007 1 -0.389036 2.45897 4.57828 
17674 1 7.78628 -0.696063 5.22924 
17675 3 0.400298 4.75241 -1.68805 
15008 3 1.9306 1.0242 -3.11965 
17676 1 -5.00026 -0.269997 -3.23446 
6885 1 -8.83252 -1.52025 -3.94676 
17067 1 2.02166 -0.472828 0.516477 
6883 1 -3.79743 -12.269 1.22117 
6884 3 -2.46834 -5.52052 -4.8675 
8845 1 -5.9903 -2.14683 0.200375 
3394 1 -1.0327 5.48325 5.18283 
17066 3 1.39394 4.55761 -1.35171 
1008 1 4.26974 2.38901 8.07337 
1911 1 -2.90142 -1.14368 -3.00392 
1910 3 0.267387 0.120715 -0.588087 
6017 3 -1.52771 0.963425 -2.80795 
6018 1 -2.59525 1.00001 -2.84542 
983 3 -6.53652 -5.81207 -3.2893 
982 1 -0.465362 -2.78477 -1.15093 
2617 1 -0.128263 -3.54996 2.76837 
391 1 0.687199 -7.24528 0.205023 
392 3 -1.09396 -0.636985 6.41811 
2618 3 2.70055 -2.0019 -6.40719 
393 1 3.9705 2.79012 0.104361 
21543 1 -3.32356 -0.0862197 -2.58101 
21541 1 -1.85634 -2.59993 0.913446 
16615 1 0.776011 -0.672408 -0.968784 
2619 1 -1.05274 -0.0338128 1.17551 
14740 1 0.716699 0.397934 5.42751 
14742 1 5.62047 -0.239952 2.94285 
14741 3 -0.601029 -0.163687 2.21587 
12871 1 0.341851 -0.62408 1.01809 
18688 1 0.885313 -4.80792 4.02661 
18689 3 -0.664646 2.50439 1.81844 
18690 1 -2.44388 -0.320306 -1.38956 
15576 1 -2.09837 6.14755 -5.29096 
15575 3 -1.72607 -0.996134 0.669536 
13001 3 3.01933 -1.77023 3.13193 
16763 3 -3.037 -0.918253 0.89294 
6286 1 1.60065 0.687946 -0.130167 
6287 3 2.82334 -1.70417 -1.65555 
6288 1 -2.47231 -2.83194 -4.99106 
16762 1 -0.823555 -0.527807 1.66925 
1195 1 -2.4985 2.80795 1.23995 
1196 3 0.0814621 -1.24777 -1.48581 
1197 1 2.53649 4.1426 0.422675 
6947 3 -2.83608 3.62557 6.82733 
16461 1 1.43125 4.39788 4.58256 
6948 1 1.69689 1.45078 -0.930092 
16460 3 1.48695 0.90703 0.530705 
6946 1 -2.93586 2.10048 3.65878 
2678 3 -0.626757 3.75172 -7.10688 
2679 1 10.4923 6.17447 1.65198 
171 1 -0.0156151 1.89625 -0.479774 
170 3 4.42336 -3.25987 3.74337 
16616 3 -1.68423 1.96319 3.6173 
16617 1 -1.2595 9.17999 6.63073 
1212 1 2.00059 3.86265 2.07186 
5002 1 -4.26907 1.08161 4.05439 
5003 3 5.15648 -0.820585 -2.44667 
11805 1 0.948921 -1.54948 5.79803 
5004 1 3.9363 -1.42859 8.0924 
13002 1 0.356487 -2.09274 2.17134 
1210 1 1.21482 1.05726 0.782529 
1211 3 -4.69274 -1.90459 -2.18799 
12541 1 0.642892 2.36419 3.71667 
12542 3 -1.27735 0.279674 -4.8986 
12543 1 -0.828749 2.08346 6.9276 
17176 1 -7.26028 -3.45698 0.332171 
17177 3 -0.762147 -0.223307 -0.835759 
17178 1 -1.73508 -0.237456 -1.97916 
16459 1 3.15151 2.37099 -4.69061 
7545 1 -1.76874 1.7635 3.62037 
169 1 1.66048 6.00323 0.797356 
8529 1 1.38936 2.7875 1.48398 
8528 3 0.645801 -2.86431 -2.9333 
4725 1 3.22097 -2.16188 -4.61621 
4724 2 -0.727646 -0.649673 1.81876 
7734 1 -3.41158 -5.20708 -5.73029 
4723 1 0.84685 0.483975 -5.01059 
8846 3 2.40008 1.38629 -3.02841 
12992 2 -2.77344 0.591726 7.62901 
12993 1 0.545031 1.9747 3.5534 
2690 2 1.19414 2.54995 -1.33176 
2689 1 0.519194 -2.33622 -0.948731 
12991 1 2.19604 -3.10492 0.00758792 
2691 1 -6.21339 4.69833 1.67801 
6016 1 2.50725 -1.0304 0.10836 
3811 1 -0.69029 1.95615 10.313 
7732 1 0.621334 0.0469843 -0.101911 
7733 3 0.449679 2.17331 -0.582442 
3812 3 -0.64624 -0.316679 -3.17191 
3813 1 -0.51771 6.18637 0.213043 
13000 1 2.88174 -5.45055 -6.70242 
8847 1 -3.58138 -4.66529 1.0888 
2643 1 -6.19107 -4.07337 4.13107 
2641 1 1.88924 -2.18958 6.34803 
2642 3 -1.04802 2.75385 1.26872 
27 1 8.24395 -6.14713 0.452037 
4446 1 1.48238 6.52317 -4.67818 
1006 1 -2.12867 4.1465 2.68406 
1007 3 -1.93669 -0.789058 0.570028 
3909 1 0.237229 -0.0370909 1.69652 
3908 3 1.3382 2.51879 2.31016 
14637 1 1.90992 1.6257 2.67395 
3907 1 -1.69553 4.39059 2.98546 
14636 3 -4.58966 -0.102291 -1.1486 
6196 1 -0.32682 1.56801 4.08839 
6494 3 1.1632 2.23712 -5.83311 
6495 1 -3.77643 2.86114 2.01585 
6197 3 -3.64286 0.580455 3.74185 
6198 1 -5.93758 -1.12153 1.27688 
6493 1 -0.106738 4.61604 3.42904 
4444 1 0.959353 -2.27201 0.0154754 
4445 3 -0.26625 2.12642 0.895953 
14635 1 -1.03916 -0.84888 0.362178 
26 2 -1.73881 1.58718 -0.714192 
25 1 -4.92971 3.23033 2.5798 
