ITEM: TIMESTEP
20000000
ITEM: NUMBER OF ENTRIES
365
ITEM: BOX BOUNDS pp pp pp
0 50
0 50
0 50
ITEM: ENTRIES c_binfo[1] c_binfo[2] c_binfo[3] 
3 8164 8165 
1 8166 13090 
3 8165 8166 
3 13090 13091 
3 13091 13092 
2 16388 16389 
2 19669 19670 
2 19670 19671 
3 2584 2585 
2 10528 10529 
2 10529 10530 
2 7244 7245 
2 7243 7244 
1 7243 10528 
1 13056 13092 
3 13055 13056 
3 13054 13055 
1 7245 13054 
3 12220 12221 
3 16213 16214 
3 16214 16215 
1 3903 16215 
3 16613 16614 
3 16612 16613 
2 16387 16388 
3 15619 15620 
3 15620 15621 
3 9727 9728 
1 9727 15621 
3 11332 11333 
1 11332 15619 
3 6721 6722 
1 6721 16612 
3 544 545 
1 544 12981 
3 12980 12981 
3 545 546 
3 20458 20459 
3 20459 20460 
3 10714 10715 
1 10714 20460 
3 16121 16122 
3 10715 10716 
3 12221 12222 
2 2503 2504 
1 2503 12222 
2 2504 2505 
1 2505 16594 
2 16594 16595 
3 739 740 
1 739 16596 
3 740 741 
2 16595 16596 
1 909 19671 
3 908 909 
3 907 908 
1 907 12813 
3 5767 5768 
3 5768 5769 
1 741 5767 
3 12812 12813 
3 11333 11334 
3 8948 8949 
1 8949 11334 
3 8947 8948 
3 2585 2586 
1 2586 12979 
3 12979 12980 
3 9412 9413 
1 12615 17736 
3 9413 9414 
3 17735 17736 
3 12614 12615 
1 10716 14770 
3 14770 14771 
3 12613 12614 
1 12613 16120 
3 14771 14772 
3 11035 11036 
1 11035 14772 
3 16120 16121 
3 19268 19269 
3 19267 19268 
3 3442 3443 
1 3444 18697 
3 18698 18699 
3 18697 18698 
3 3443 3444 
3 11036 11037 
3 1918 1919 
3 8026 8027 
3 8936 8937 
3 13987 13988 
3 13927 13928 
3 13928 13929 
3 3902 3903 
3 3901 3902 
3 5804 5805 
3 8027 8028 
3 11615 11616 
3 11678 11679 
3 11614 11615 
1 11614 11677 
3 11677 11678 
1 5805 20157 
3 9728 9729 
3 8935 8936 
1 8935 9729 
1 2595 8937 
1 11616 15174 
3 6722 6723 
3 1981 1982 
1 1981 6723 
3 1982 1983 
3 13988 13989 
3 2594 2595 
3 2593 2594 
1 2593 12015 
1 10254 13989 
3 10253 10254 
3 10252 10253 
3 12014 12015 
3 6088 6089 
1 6088 13929 
3 6089 6090 
1 6090 21303 
3 4898 4899 
2 2924 2925 
3 3530 3531 
3 6269 6270 
3 3529 3530 
3 20155 20156 
3 20156 20157 
1 5769 11679 
3 1099 1100 
3 4076 4077 
3 12811 12812 
3 4075 4076 
1 4075 12811 
3 14350 14351 
3 14351 14352 
3 11149 11150 
1 11149 12091 
3 12091 12092 
3 12092 12093 
1 12093 18748 
3 11150 11151 
3 18748 18749 
3 11618 11619 
1 11151 20944 
3 17734 17735 
3 18749 18750 
3 8098 8099 
3 8099 8100 
1 4899 21351 
3 4897 4898 
1 4897 8098 
3 3254 3255 
3 21301 21302 
3 3253 3254 
1 3253 21301 
3 21302 21303 
1 3255 4686 
3 21350 21351 
3 21349 21350 
3 21508 21509 
2 2923 2924 
1 2923 21417 
3 21416 21417 
3 21509 21510 
3 21415 21416 
1 21415 21510 
1 1920 9549 
3 9547 9548 
1 9547 11617 
3 11617 11618 
3 9548 9549 
3 20945 20946 
3 20944 20945 
1 19809 20946 
3 17687 17688 
3 19808 19809 
1 15330 18699 
3 15647 15648 
3 17686 17687 
3 15329 15330 
3 15646 15647 
1 7119 15646 
3 4684 4685 
1 4684 15328 
3 15328 15329 
3 4685 4686 
3 18184 18185 
3 18185 18186 
3 1919 1920 
3 19807 19808 
3 18451 18452 
1 18451 19807 
3 18452 18453 
3 19162 19163 
3 18304 18305 
3 18305 18306 
3 19163 19164 
1 3273 21492 
2 21491 21492 
2 21490 21491 
3 13475 13476 
1 5037 13476 
3 18053 18054 
3 18052 18053 
1 18052 20425 
3 20425 20426 
3 20426 20427 
3 17174 17175 
3 17173 17174 
3 1577 1578 
3 1576 1577 
1 1576 7422 
3 5803 5804 
3 5920 5921 
3 5921 5922 
3 5036 5037 
3 15173 15174 
3 15172 15173 
3 5035 5036 
1 5035 15172 
3 19133 19134 
3 19132 19133 
1 11643 19132 
3 11642 11643 
3 17987 17988 
3 11641 11642 
1 11641 17986 
3 17986 17987 
3 12013 12014 
3 12334 12335 
1 12334 17988 
3 12335 12336 
3 1534 1535 
1 1534 12336 
3 1535 1536 
1 1536 5484 
1 5481 19449 
3 5480 5481 
3 5479 5480 
1 5479 6268 
3 6268 6269 
3 1100 1101 
3 7421 7422 
1 1101 10917 
2 10915 10916 
3 6325 6326 
1 6325 10915 
2 10916 10917 
3 16585 16586 
1 16585 19134 
3 16586 16587 
3 8599 8600 
3 8600 8601 
1 7929 12013 
3 19406 19407 
3 19405 19406 
3 7927 7928 
1 7927 19405 
3 7928 7929 
3 16874 16875 
3 16873 16874 
3 7045 7046 
1 7045 16873 
3 7046 7047 
3 19448 19449 
3 16730 16731 
3 9283 9284 
1 9283 16731 
3 9284 9285 
3 16729 16730 
3 7118 7119 
3 15311 15312 
3 7117 7118 
3 3688 3689 
1 3688 7117 
3 15310 15311 
1 15310 20974 
3 20974 20975 
3 18854 18855 
3 3689 3690 
3 7469 7470 
3 20975 20976 
3 15902 15903 
3 15901 15902 
1 15901 18306 
3 18853 18854 
3 13394 13395 
3 13393 13394 
2 3271 3272 
1 3271 13393 
2 3272 3273 
3 13474 13475 
3 3256 3257 
1 3256 13474 
3 3257 3258 
1 3258 7242 
3 7241 7242 
3 4978 4979 
3 4979 4980 
3 3052 3053 
1 3052 4980 
3 17423 17424 
3 18506 18507 
3 18505 18506 
1 16131 18507 
3 16130 16131 
3 16129 16130 
3 13333 13334 
1 13333 16129 
3 13334 13335 
3 5483 5484 
3 5482 5483 
3 6326 6327 
3 7420 7421 
3 3053 3054 
3 13687 13688 
3 13688 13689 
3 10361 10362 
3 12313 12314 
3 10360 10361 
1 10360 12313 
3 7468 7469 
1 7468 10035 
1 10362 17422 
1 78 13689 
3 10034 10035 
3 10033 10034 
3 17422 17423 
3 13171 13172 
3 9209 9210 
3 9208 9209 
1 9208 16875 
3 13172 13173 
3 19447 19448 
3 15887 15888 
3 15886 15887 
3 7559 7560 
3 7558 7559 
1 7558 17634 
3 17633 17634 
3 17632 17633 
3 15778 15779 
1 15778 17632 
3 77 78 
1 15720 15780 
3 76 77 
1 76 6622 
3 6622 6623 
3 15779 15780 
2 15719 15720 
2 15718 15719 
3 10192 10193 
3 10193 10194 
3 7240 7241 
3 12314 12315 
3 6623 6624 
1 6075 6624 
2 6073 6074 
2 6074 6075 
