ITEM: TIMESTEP
0
ITEM: NUMBER OF ATOMS
1284
ITEM: BOX BOUNDS pp pp pp
0.0000000000000000e+00 5.0000000000000000e+01
0.0000000000000000e+00 5.0000000000000000e+01
0.0000000000000000e+00 5.0000000000000000e+01
ITEM: ATOMS id type 
4 1 
5 3 
6 1 
19 1 
20 3 
21 1 
25 1 
26 2 
27 1 
304 1 
305 3 
306 1 
421 1 
422 3 
423 1 
433 1 
434 2 
435 1 
1165 1 
1166 2 
1167 1 
1204 1 
1205 3 
1206 1 
1273 1 
1274 3 
1275 1 
1510 1 
1511 3 
1512 1 
1585 1 
1586 3 
1587 1 
1633 1 
1634 3 
1635 1 
2362 1 
2363 3 
2364 1 
2521 1 
2522 2 
2523 1 
2542 1 
2543 3 
2544 1 
3301 1 
3302 2 
3303 1 
3325 1 
3326 3 
3327 1 
3439 1 
3440 3 
3441 1 
3502 1 
3503 3 
3504 1 
3508 1 
3509 3 
3510 1 
3682 1 
3683 3 
3684 1 
4342 1 
4343 3 
4344 1 
4348 1 
4349 3 
4350 1 
4441 1 
4442 3 
4443 1 
4525 1 
4526 3 
4527 1 
4876 1 
4877 2 
4878 1 
5593 1 
5594 3 
5595 1 
5662 1 
5663 3 
5664 1 
5785 1 
5786 3 
5787 1 
5887 1 
5888 3 
5889 1 
5941 1 
5942 3 
5943 1 
5944 1 
5945 3 
5946 1 
5947 1 
5948 2 
5949 1 
6016 1 
6017 3 
6018 1 
6730 1 
6731 3 
6732 1 
6799 1 
6800 3 
6801 1 
6805 1 
6806 3 
6807 1 
7042 1 
7043 3 
7044 1 
7153 1 
7154 3 
7155 1 
7810 1 
7811 3 
7812 1 
7882 1 
7883 3 
7884 1 
7885 1 
7886 3 
7887 1 
7948 1 
7949 3 
7950 1 
7996 1 
7997 3 
7998 1 
8047 1 
8048 3 
8049 1 
10141 1 
10142 3 
10143 1 
10150 1 
10151 3 
10152 1 
10210 1 
10211 3 
10212 1 
10384 1 
10385 3 
10386 1 
10405 1 
10406 3 
10407 1 
10459 1 
10460 3 
10461 1 
11122 1 
11123 3 
11124 1 
11125 1 
11126 3 
11127 1 
11179 1 
11180 3 
11181 1 
11242 1 
11243 3 
11244 1 
11479 1 
11480 3 
11481 1 
12133 1 
12134 3 
12135 1 
12196 1 
12197 3 
12198 1 
12199 1 
12200 3 
12201 1 
12202 1 
12203 3 
12204 1 
12250 1 
12251 3 
12252 1 
12304 1 
12305 3 
12306 1 
12328 1 
12329 3 
12330 1 
12493 1 
12494 3 
12495 1 
12541 1 
12542 3 
12543 1 
12550 1 
12551 3 
12552 1 
12607 1 
12608 3 
12609 1 
12622 1 
12623 3 
12624 1 
12628 1 
12629 3 
12630 1 
13339 1 
13340 3 
13341 1 
13465 1 
13466 3 
13467 1 
14290 1 
14291 3 
14292 1 
14605 1 
14606 3 
14607 1 
15550 1 
15551 2 
15552 1 
15604 1 
15605 3 
15606 1 
15610 1 
15611 2 
15612 1 
16345 1 
16346 3 
16347 1 
16459 1 
16460 3 
16461 1 
16624 1 
16625 2 
16626 1 
16702 1 
16703 3 
16704 1 
17470 1 
17471 3 
17472 1 
17587 1 
17588 3 
17589 1 
17725 1 
17726 3 
17727 1 
18373 1 
18374 3 
18375 1 
18688 1 
18689 3 
18690 1 
18841 1 
18842 3 
18843 1 
19441 1 
19442 2 
19443 1 
19510 1 
19511 3 
19512 1 
19696 1 
19697 3 
19698 1 
19768 1 
19769 3 
19770 1 
20590 1 
20591 3 
20592 1 
20599 1 
20600 3 
20601 1 
20659 1 
20660 3 
20661 1 
20842 1 
20843 3 
20844 1 
20953 1 
20954 3 
20955 1 
21004 1 
21005 3 
21006 1 
21022 1 
21023 3 
21024 1 
21028 1 
21029 3 
21030 1 
103 1 
104 3 
105 1 
169 1 
170 3 
171 1 
391 1 
392 3 
393 1 
454 1 
455 2 
456 1 
463 1 
464 3 
465 1 
1195 1 
1196 3 
1197 1 
1237 1 
1238 2 
1239 1 
1294 1 
1295 3 
1296 1 
1654 1 
1655 3 
1656 1 
2323 1 
2324 3 
2325 1 
2335 1 
2336 3 
2337 1 
2377 1 
2378 2 
2379 1 
2389 1 
2390 2 
2391 1 
2617 1 
2618 3 
2619 1 
2632 1 
2633 3 
2634 1 
3217 1 
3218 3 
3219 1 
3337 1 
3338 3 
3339 1 
3397 1 
3398 3 
3399 1 
3475 1 
3476 2 
3477 1 
4366 1 
4367 3 
4368 1 
4615 1 
4616 3 
4617 1 
4852 1 
4853 2 
4854 1 
4855 1 
4856 3 
4857 1 
4894 1 
4895 3 
4896 1 
5512 1 
5513 3 
5514 1 
5572 1 
5573 3 
5574 1 
5737 1 
5738 3 
5739 1 
5911 1 
5912 3 
5913 1 
5974 1 
5975 3 
5976 1 
5992 1 
5993 2 
5994 1 
6046 1 
6047 3 
6048 1 
6832 1 
6833 3 
6834 1 
6874 1 
6875 3 
6876 1 
6883 1 
6884 3 
6885 1 
6946 1 
6947 3 
6948 1 
7066 1 
7067 3 
7068 1 
7177 1 
7178 3 
7179 1 
7246 1 
7247 3 
7248 1 
7777 1 
7778 3 
7779 1 
7858 1 
7859 3 
7860 1 
8014 1 
8015 3 
8016 1 
8074 1 
8075 3 
8076 1 
8194 1 
8195 3 
8196 1 
8917 1 
8918 3 
8919 1 
8992 1 
8993 3 
8994 1 
9058 1 
9059 3 
9060 1 
9109 1 
9110 3 
9111 1 
9112 1 
9113 3 
9114 1 
9352 1 
9353 3 
9354 1 
10051 1 
10052 3 
10053 1 
10066 1 
10067 3 
10068 1 
10075 1 
10076 3 
10077 1 
10171 1 
10172 3 
10173 1 
10180 1 
10181 3 
10182 1 
10363 1 
10364 3 
10365 1 
10435 1 
10436 3 
10437 1 
10489 1 
10490 3 
10491 1 
10534 1 
10535 3 
10536 1 
11209 1 
11210 3 
11211 1 
11215 1 
11216 3 
11217 1 
11272 1 
11273 3 
11274 1 
11311 1 
11312 3 
11313 1 
11512 1 
11513 3 
11514 1 
12103 1 
12104 3 
12105 1 
12340 1 
12341 2 
12342 1 
12391 1 
12392 3 
12393 1 
12511 1 
12512 3 
12513 1 
13378 1 
13379 3 
13380 1 
13432 1 
13433 2 
13434 1 
13534 1 
13535 3 
13536 1 
13591 1 
13592 3 
13593 1 
14251 1 
14252 3 
14253 1 
14374 1 
14375 2 
14376 1 
14503 1 
14504 3 
14505 1 
14512 1 
14513 2 
14514 1 
14578 1 
14579 3 
14580 1 
14677 1 
14678 3 
14679 1 
14695 1 
14696 3 
14697 1 
15355 1 
15356 3 
15357 1 
15574 1 
15575 3 
15576 1 
15598 1 
15599 3 
15600 1 
15694 1 
15695 2 
15696 1 
16615 1 
16616 3 
16617 1 
16732 1 
16733 3 
16734 1 
17323 1 
17324 3 
17325 1 
17512 1 
17513 3 
17514 1 
17518 1 
17519 3 
17520 1 
17674 1 
17675 3 
17676 1 
17797 1 
17798 3 
17799 1 
17809 1 
17810 3 
17811 1 
18466 1 
18467 2 
18468 1 
18583 1 
18584 3 
18585 1 
18598 1 
18599 3 
18600 1 
18691 1 
18692 3 
18693 1 
18712 1 
18713 3 
18714 1 
18751 1 
18752 3 
18753 1 
18826 1 
18827 3 
18828 1 
18886 1 
18887 3 
18888 1 
19492 1 
19493 2 
19494 1 
19534 1 
19535 3 
19536 1 
19837 1 
19838 3 
19839 1 
19894 1 
19895 3 
19896 1 
20632 1 
20633 3 
20634 1 
20995 1 
20996 3 
20997 1 
628 1 
629 3 
630 1 
982 1 
983 3 
984 1 
1681 1 
1682 3 
1683 1 
1930 1 
1931 3 
1932 1 
2101 1 
2102 3 
2103 1 
2161 1 
2162 3 
2163 1 
2164 1 
2165 3 
2166 1 
2641 1 
2642 3 
2643 1 
2656 1 
2657 3 
2658 1 
2701 1 
2702 3 
2703 1 
2881 1 
2882 3 
2883 1 
3025 1 
3026 3 
3027 1 
3082 1 
3083 3 
3084 1 
3088 1 
3089 3 
3090 1 
3988 1 
3989 3 
3990 1 
4042 1 
4043 3 
4044 1 
4087 1 
4088 3 
4089 1 
4090 1 
4091 3 
4092 1 
4147 1 
4148 3 
4149 1 
4150 1 
4151 3 
4152 1 
4984 1 
4985 3 
4986 1 
5002 1 
5003 3 
5004 1 
5059 1 
5060 3 
5061 1 
5161 1 
5162 2 
5163 1 
5239 1 
5240 3 
5241 1 
5248 1 
5249 3 
5250 1 
5284 1 
5285 3 
5286 1 
5344 1 
5345 2 
5346 1 
6124 1 
6125 3 
6126 1 
6196 1 
6197 3 
6198 1 
6367 1 
6368 3 
6369 1 
6547 1 
6548 3 
6549 1 
6562 1 
6563 3 
6564 1 
7345 1 
7346 3 
7347 1 
7447 1 
7448 3 
7449 1 
7459 1 
7460 3 
7461 1 
7501 1 
7502 3 
7503 1 
7681 1 
7682 3 
7683 1 
7693 1 
7694 3 
7695 1 
8419 1 
8420 3 
8421 1 
8479 1 
8480 3 
8481 1 
8482 1 
8483 3 
8484 1 
8521 1 
8522 3 
8523 1 
8536 1 
8537 3 
8538 1 
8644 1 
8645 3 
8646 1 
8701 1 
8702 3 
8703 1 
8845 1 
8846 3 
8847 1 
9361 1 
9362 3 
9363 1 
9376 1 
9377 3 
9378 1 
9847 1 
9848 2 
9849 1 
10582 1 
10583 3 
10584 1 
10744 1 
10745 3 
10746 1 
10819 1 
10820 3 
10821 1 
10999 1 
11000 3 
11001 1 
11056 1 
11057 3 
11058 1 
11068 1 
11069 3 
11070 1 
11596 1 
11597 3 
11598 1 
11656 1 
11657 3 
11658 1 
11827 1 
11828 3 
11829 1 
11830 1 
11831 3 
11832 1 
11902 1 
11903 3 
11904 1 
12025 1 
12026 3 
12027 1 
12928 1 
12929 3 
12930 1 
12967 1 
12968 3 
12969 1 
13033 1 
13034 3 
13035 1 
13036 1 
13037 3 
13038 1 
13828 1 
13829 3 
13830 1 
13864 1 
13865 3 
13866 1 
13945 1 
13946 3 
13947 1 
13984 1 
13985 3 
13986 1 
14113 1 
14114 3 
14115 1 
14824 1 
14825 3 
14826 1 
14830 1 
14831 3 
14832 1 
14845 1 
14846 3 
14847 1 
15007 1 
15008 3 
15009 1 
15070 1 
15071 3 
15072 1 
15121 1 
15122 3 
15123 1 
15901 1 
15902 3 
15903 1 
15910 1 
15911 3 
15912 1 
16024 1 
16025 3 
16026 1 
16036 1 
16037 3 
16038 1 
16147 1 
16148 3 
16149 1 
16168 1 
16169 3 
16170 1 
16216 1 
16217 3 
16218 1 
16288 1 
16289 3 
16290 1 
16762 1 
16763 3 
16764 1 
17065 1 
17066 3 
17067 1 
17176 1 
17177 3 
17178 1 
17221 1 
17222 3 
17223 1 
17245 1 
17246 3 
17247 1 
17887 1 
17888 3 
17889 1 
18013 1 
18014 3 
18015 1 
18184 1 
18185 3 
18186 1 
18196 1 
18197 2 
18198 1 
18208 1 
18209 3 
18210 1 
18304 1 
18305 3 
18306 1 
18964 1 
18965 3 
18966 1 
18967 1 
18968 3 
18969 1 
18976 1 
18977 3 
18978 1 
18979 1 
18980 3 
18981 1 
19042 1 
19043 3 
19044 1 
19048 1 
19049 3 
19050 1 
19942 1 
19943 2 
19944 1 
19990 1 
19991 3 
19992 1 
20101 1 
20102 3 
20103 1 
20125 1 
20126 3 
20127 1 
20128 1 
20129 3 
20130 1 
20425 1 
20426 3 
20427 1 
21208 1 
21209 3 
21210 1 
21256 1 
21257 3 
21258 1 
21319 1 
21320 2 
21321 1 
21388 1 
21389 3 
21390 1 
21541 1 
21542 3 
21543 1 
21547 1 
21548 3 
21549 1 
21550 1 
21551 3 
21552 1 
574 1 
575 3 
576 1 
631 1 
632 3 
633 1 
820 1 
821 3 
822 1 
934 1 
935 3 
936 1 
1006 1 
1007 3 
1008 1 
1066 1 
1067 3 
1068 1 
1132 1 
1133 3 
1134 1 
1777 1 
1778 3 
1779 1 
1849 1 
1850 3 
1851 1 
1906 1 
1907 3 
1908 1 
1951 1 
1952 3 
1953 1 
1978 1 
1979 3 
1980 1 
2077 1 
2078 2 
2079 1 
2860 1 
2861 3 
2862 1 
2974 1 
2975 3 
2976 1 
3058 1 
3059 3 
3060 1 
3895 1 
3896 3 
3897 1 
3955 1 
3956 3 
3957 1 
4951 1 
4952 3 
4953 1 
5014 1 
5015 3 
5016 1 
5023 1 
5024 3 
5025 1 
5137 1 
5138 3 
5139 1 
5323 1 
5324 3 
5325 1 
5392 1 
5393 3 
5394 1 
6238 1 
6239 3 
6240 1 
6346 1 
6347 3 
6348 1 
6451 1 
6452 3 
6453 1 
6580 1 
6581 3 
6582 1 
7351 1 
7352 3 
7353 1 
7366 1 
7367 3 
7368 1 
7477 1 
7478 3 
7479 1 
7486 1 
7487 3 
7488 1 
7543 1 
7544 3 
7545 1 
7600 1 
7601 3 
7602 1 
8551 1 
8552 3 
8553 1 
8635 1 
8636 3 
8637 1 
8806 1 
8807 2 
8808 1 
8818 1 
8819 3 
8820 1 
8866 1 
8867 3 
8868 1 
9397 1 
9398 3 
9399 1 
9460 1 
9461 3 
9462 1 
9514 1 
9515 3 
9516 1 
9523 1 
9524 3 
9525 1 
9529 1 
9530 2 
9531 1 
9637 1 
9638 3 
9639 1 
9643 1 
9644 3 
9645 1 
9655 1 
9656 3 
9657 1 
9775 1 
9776 3 
9777 1 
9883 1 
9884 3 
9885 1 
10606 1 
10607 3 
10608 1 
10837 1 
10838 3 
10839 1 
10912 1 
10913 3 
10914 1 
11074 1 
11075 3 
11076 1 
11551 1 
11552 3 
11553 1 
11803 1 
11804 3 
11805 1 
11935 1 
11936 3 
11937 1 
11995 1 
11996 3 
11997 1 
12763 1 
12764 3 
12765 1 
12871 1 
12872 3 
12873 1 
13000 1 
13001 3 
13002 1 
13078 1 
13079 3 
13080 1 
13774 1 
13775 3 
13776 1 
13789 1 
13790 3 
13791 1 
13840 1 
13841 3 
13842 1 
13843 1 
13844 3 
13845 1 
13915 1 
13916 3 
13917 1 
14137 1 
14138 3 
14139 1 
14194 1 
14195 3 
14196 1 
14740 1 
14741 3 
14742 1 
14857 1 
14858 3 
14859 1 
14995 1 
14996 3 
14997 1 
15034 1 
15035 3 
15036 1 
15106 1 
15107 2 
15108 1 
15154 1 
15155 3 
15156 1 
15217 1 
15218 3 
15219 1 
15223 1 
15224 3 
15225 1 
15235 1 
15236 3 
15237 1 
15286 1 
15287 3 
15288 1 
16018 1 
16019 3 
16020 1 
16054 1 
16055 3 
16056 1 
16231 1 
16232 3 
16233 1 
16297 1 
16298 3 
16299 1 
16783 1 
16784 2 
16785 1 
17011 1 
17012 3 
17013 1 
17017 1 
17018 3 
17019 1 
17023 1 
17024 3 
17025 1 
17257 1 
17258 3 
17259 1 
17260 1 
17261 3 
17262 1 
18052 1 
18053 3 
18054 1 
18277 1 
18278 3 
18279 1 
18289 1 
18290 3 
18291 1 
18955 1 
18956 3 
18957 1 
19117 1 
19118 3 
19119 1 
19129 1 
19130 3 
19131 1 
19300 1 
19301 3 
19302 1 
19429 1 
19430 3 
19431 1 
19432 1 
19433 3 
19434 1 
19954 1 
19955 3 
19956 1 
19978 1 
19979 3 
19980 1 
20023 1 
20024 3 
20025 1 
20140 1 
20141 3 
20142 1 
20266 1 
20267 3 
20268 1 
20314 1 
20315 3 
20316 1 
20320 1 
20321 3 
20322 1 
20323 1 
20324 3 
20325 1 
20509 1 
20510 3 
20511 1 
21160 1 
21161 3 
21162 1 
21217 1 
21218 3 
21219 1 
21223 1 
21224 3 
21225 1 
21352 1 
21353 3 
21354 1 
21403 1 
21404 3 
21405 1 
