ITEM: TIMESTEP
30000000
ITEM: NUMBER OF ATOMS
1344
ITEM: BOX BOUNDS pp pp pp
0.0000000000000000e+00 5.0000000000000000e+01
0.0000000000000000e+00 5.0000000000000000e+01
0.0000000000000000e+00 5.0000000000000000e+01
ITEM: ATOMS id type vx vy vz 
17255 3 -0.68288 3.26744 -2.23298 
17254 1 0.838684 -2.69133 -0.184286 
9076 1 0.80766 5.16211 0.881931 
9077 2 -3.25705 -0.426542 -2.25972 
1004 3 0.578117 0.782559 1.27879 
1005 1 -4.56542 -2.50527 1.05761 
14880 1 0.823329 -3.14095 -2.4979 
14879 3 4.08732 -2.90724 2.06204 
17256 1 0.740554 1.03532 3.71862 
14878 1 5.89532 2.96578 -1.54679 
14123 2 -2.02995 -3.34602 -0.272638 
14124 1 3.09779 4.14361 -4.66175 
1130 3 1.13372 -3.18301 -0.733612 
1131 1 -4.95674 0.802819 -1.53413 
15203 3 1.19022 0.970434 2.26447 
15204 1 -5.09029 -1.72072 -2.14881 
8589 1 -8.66058 3.0949 -5.88701 
8588 2 2.01008 -0.229878 2.76284 
15202 1 -3.10409 6.87753 3.83607 
18877 1 1.1329 0.0116969 5.56552 
6448 1 -1.98247 3.85388 -5.01873 
3834 1 5.51451 0.515405 -1.14622 
6449 3 0.429411 3.98388 4.71158 
14122 1 4.97518 1.08731 -0.560622 
6450 1 1.0587 0.235873 -3.54357 
3833 2 3.1691 -1.65757 -1.92359 
18878 3 -1.12337 0.54925 3.92489 
18879 1 0.854203 3.28689 -1.49333 
3832 1 4.4527 4.7153 -3.59137 
4122 1 0.122139 -2.98732 -7.54711 
4121 2 1.19737 4.42431 0.596222 
4120 1 1.25575 -1.819 2.77481 
8296 1 0.710759 -0.961751 -6.92909 
20469 1 -1.38885 -2.26023 -0.489849 
8297 2 -1.43147 -1.19465 -0.477596 
1532 2 2.10571 0.858025 -2.99104 
1533 1 -1.91147 1.36467 -1.62064 
20467 1 4.74876 -0.578514 -0.914614 
20468 3 3.15146 -2.38245 1.64056 
9078 1 4.06477 -2.705 -1.30271 
7150 1 0.691591 -0.278655 -5.3171 
9215 2 3.69956 -0.194625 0.513535 
9216 1 0.221531 -4.84689 -3.17684 
7152 1 1.82314 -1.17218 3.06151 
7151 2 0.553149 -3.59158 3.3969 
20738 2 -0.862424 3.28647 4.92019 
20739 1 1.64553 -1.53593 0.63976 
1003 1 2.14517 -2.77338 0.643567 
13410 1 0.604912 3.31183 3.33513 
13409 2 -2.78886 -4.21487 2.73844 
13408 1 5.67592 -2.25412 2.46041 
241 1 4.2413 0.710017 3.59599 
5846 2 -2.2827 0.238845 1.32678 
242 2 0.947243 -1.15265 0.0833683 
243 1 -6.88844 3.96963 -0.0413176 
13885 1 4.97602 -3.34208 -3.27228 
13886 2 0.332623 1.55086 5.09828 
6877 1 0.477124 -7.88726 -2.71297 
1349 2 0.678237 -0.37145 3.28805 
6878 2 5.25383 -0.133997 -1.98089 
6879 1 -0.117507 7.15379 -4.8142 
3296 2 -1.42869 4.12336 0.505568 
3295 1 -0.834781 1.63655 1.14279 
3297 1 -5.55466 3.97687 2.4081 
1348 1 4.16421 -4.26271 2.88494 
6108 1 -3.28091 3.67546 2.94678 
6107 2 -0.583231 2.94043 3.10662 
6106 1 6.78794 1.93305 -0.965462 
14533 1 1.70232 -0.112913 -3.02163 
20737 1 3.46728 2.15752 -0.629011 
5847 1 2.56894 -5.98085 6.89101 
13773 1 4.05632 -2.31251 -5.88196 
20840 2 3.68168 1.87922 -2.30602 
20841 1 -0.787632 -0.753597 -1.74003 
20839 1 0.729876 -5.96462 -7.03563 
2637 1 -3.95441 2.462 -2.63418 
2636 2 3.44792 3.18538 4.01372 
13772 2 1.244 -0.576816 -0.545113 
13771 1 1.26711 -3.97257 -3.38628 
2065 1 -4.83765 -5.25 4.11165 
12919 1 -0.851221 -7.07185 -5.30817 
2635 1 7.06376 -0.162316 2.09664 
13665 1 -3.33738 0.808987 2.08725 
1590 1 -2.59539 -0.327706 -0.0516449 
1589 2 0.836569 0.015113 -0.736871 
9025 1 1.52903 2.21419 2.35588 
13887 1 4.51486 5.68981 -0.344805 
1588 1 -2.79305 -0.830703 -2.04605 
9026 2 1.46948 -2.36211 1.86455 
19810 1 0.140898 4.7506 -1.142 
19811 2 -0.0529682 -0.579396 -1.95164 
19812 1 -1.60875 3.67848 -0.668578 
8461 1 -0.221808 4.20641 3.5267 
17444 2 -0.712896 -2.63326 -0.360538 
17443 1 0.880475 3.57241 3.7347 
9027 1 -0.800798 -2.71937 -9.15613 
17445 1 -0.297244 1.11503 -7.13056 
1129 1 0.0456054 -0.667728 1.76787 
8463 1 0.429955 -3.28208 2.59858 
15391 1 0.300369 -5.31693 0.291031 
8587 1 -2.79324 -2.83568 -3.01443 
6273 1 2.08398 -4.23845 2.73285 
14535 1 -3.92454 -4.77164 0.120833 
6272 2 -1.79335 -1.52538 1.54715 
14534 2 -2.61308 -1.3007 1.61736 
15392 2 -1.62326 -3.92575 -2.30272 
8718 1 -2.36379 0.533645 0.191948 
8817 1 -3.40266 -4.08227 -0.54953 
372 1 3.1747 1.97724 1.02722 
6271 1 0.695109 -6.08014 1.44314 
13664 2 -3.13713 0.97207 1.00986 
13663 1 -0.92411 4.55612 6.69279 
15393 1 -0.549068 1.00005 3.59556 
4848 1 3.58045 0.753813 0.467347 
4847 2 -2.9789 1.31007 -0.666857 
19399 1 -1.29136 7.14199 -1.93389 
8462 2 -5.60909 -0.226503 1.86193 
603 1 5.45494 -4.48364 -4.72429 
602 2 2.29994 -2.44818 0.160331 
601 1 4.24104 -1.23538 1.38231 
8717 2 -1.64453 5.07409 0.912157 
8716 1 4.77427 1.26832 -0.248051 
17149 1 0.362545 1.77376 0.546008 
17150 2 1.42876 -6.44597 0.948502 
17151 1 -1.07611 -1.45633 -6.17746 
12208 1 -4.606 -7.81405 -1.25437 
16463 2 -1.14309 -2.32902 2.1391 
21100 1 -0.219981 -2.24787 3.1609 
21102 1 -2.6479 -0.845063 0.815792 
14827 1 1.5595 -2.50851 1.44025 
21101 2 0.414536 3.32461 -1.47208 
4757 2 4.15194 0.194978 -1.21905 
4756 1 -2.70746 5.41437 -2.55106 
19961 2 6.34099 -1.40406 1.46013 
19960 1 -0.784681 5.4569 -1.59417 
19962 1 2.59597 -6.32784 -0.244895 
14829 1 -0.817836 -3.39591 6.24118 
9923 2 -1.3055 -1.84997 -5.49603 
9922 1 4.58075 1.08548 0.168086 
9924 1 2.94086 2.15584 -1.34969 
13180 1 -1.46211 -6.34157 1.78463 
3664 1 0.380401 -3.91468 -2.2184 
13181 2 -3.58804 -0.339025 -0.978558 
14828 2 2.54887 -0.373658 -3.22597 
2790 1 1.13141 3.14961 3.87778 
3657 1 0.354947 7.03892 3.53198 
3656 2 -4.21583 0.322955 -1.37507 
2788 1 4.98439 -3.05073 1.67261 
2789 2 3.90512 3.97568 4.02307 
8298 1 -5.42936 -1.16618 -0.412542 
3665 2 2.02607 3.72772 -1.57708 
3183 1 -0.398086 -3.12418 0.264814 
13962 1 -0.232672 -4.06442 -0.741267 
13961 2 3.08917 -0.891725 0.282681 
15135 1 -0.43965 0.750451 5.1226 
15134 2 -2.23229 -2.22359 -1.10356 
4758 1 -4.6687 4.30199 3.54868 
15133 1 1.75854 9.41113 1.37363 
19366 1 4.36205 -2.5422 1.0855 
19367 2 2.597 -5.16326 -2.73545 
1531 1 -0.735471 7.71533 -3.31082 
3181 1 -4.06556 7.75044 -3.26778 
3182 2 -2.22669 -1.79594 1.80184 
19368 1 2.99959 0.778021 1.94224 
15986 2 -1.4303 -1.1728 -4.22699 
15985 1 0.893375 4.15941 2.54495 
14091 1 -3.24848 2.17633 -2.35206 
14090 2 2.38618 -1.84386 -1.23171 
14089 1 2.944 5.17255 3.27106 
6066 1 2.31212 -1.17369 -1.93723 
6065 2 -2.21716 0.240427 1.94342 
21054 1 -1.3632 0.676744 3.03578 
21053 2 0.419318 2.767 -4.08041 
6064 1 -2.75058 3.24158 0.874433 
8128 1 2.61403 -4.95518 -4.17658 
8129 2 2.78778 -0.824818 -1.92198 
8130 1 1.89456 -8.65049 -4.96771 
9214 1 0.0526387 5.03036 -5.97765 
195 1 -0.368905 -4.27616 8.46654 
194 2 -0.396574 1.31743 0.8539 
16619 2 -0.655261 -2.11057 -0.224265 
12081 1 -1.23861 5.5785 -5.26277 
16620 1 0.431251 -9.22001 -0.662662 
14315 2 -2.60012 0.377509 -2.79716 
16383 1 -0.606979 -3.10337 1.36937 
14314 1 1.48347 0.50064 3.29268 
4556 2 3.50441 -2.26023 0.554324 
16618 1 2.76542 -3.2018 -1.36162 
5845 1 -1.78678 0.149734 -2.20842 
11235 1 -2.25229 -3.43436 0.992827 
11234 2 -1.13028 0.311267 1.48516 
11233 1 5.11712 5.03351 2.6981 
5463 1 -2.75438 -0.105007 1.63814 
5462 2 -3.1403 5.47709 3.47762 
4236 1 -0.446989 3.54769 1.48816 
4235 2 -1.23415 -4.08233 -2.5425 
4234 1 3.09942 -0.192789 1.37697 
7940 2 -0.892944 -2.8675 -3.5139 
7941 1 -6.00287 -10.2819 4.04732 
7939 1 0.500735 -3.26589 -1.19853 
5461 1 -3.05042 -1.71837 -8.4814 
15786 1 -0.954834 -0.225285 -1.26115 
15785 2 0.0330532 0.0250268 -2.95775 
15784 1 -0.236211 -3.40717 -6.52342 
2938 1 -1.88536 -4.89532 -1.89462 
2939 2 -0.0737223 -2.68127 -2.75634 
2940 1 1.50386 -0.0972519 -3.89357 
14316 1 -1.86365 2.55608 -0.946899 
4534 1 -6.61312 5.41697 -2.69228 
4535 2 -0.0358319 5.59351 -0.954519 
3346 1 -1.36803 -4.18434 -0.721212 
4536 1 -2.77393 -5.8809 5.33466 
3347 2 -1.32668 -0.594229 -1.06973 
3348 1 2.89573 2.83982 -2.00872 
16627 1 0.176359 -2.68926 1.52164 
193 1 -2.71331 4.68497 -4.28596 
16628 2 0.22672 -3.78967 0.0853066 
2066 2 -2.59252 -0.896905 0.413517 
2067 1 0.220196 3.23825 -0.116848 
4095 1 -3.26659 -2.43719 8.69369 
4094 2 2.47915 2.37825 -2.30852 
4093 1 1.10924 3.56181 3.12775 
12920 2 1.10589 -2.62046 1.21229 
12921 1 -4.82107 -2.22627 5.69172 
19616 2 1.29063 -6.36963 0.168486 
19615 1 1.87541 -1.07339 2.06076 
19617 1 0.140445 3.51729 -3.75054 
912 1 -4.94146 2.00934 3.37507 
19241 2 3.28161 3.33464 1.19178 
19240 1 -2.37418 -3.75511 3.39654 
911 2 -3.20208 -2.17735 2.51703 
910 1 0.461457 -0.438869 -2.68062 
5704 1 -1.68405 -6.49071 2.18103 
19242 1 0.766102 -0.953101 -3.75079 
17580 1 -0.865881 0.816959 1.9418 
17578 1 -0.387981 -0.906158 1.1407 
17579 3 2.26022 0.497683 -0.257177 
4775 2 -2.90053 -1.18541 -0.82971 
2210 2 4.15524 0.462663 1.16114 
2209 1 2.8275 4.04004 -6.48054 
4776 1 2.49025 -3.47323 -2.02223 
12209 2 2.03884 -4.08663 2.3198 
12210 1 -5.25273 -0.793365 1.03846 
946 1 4.46101 -0.735543 -5.54065 
411 1 4.73555 -1.92676 0.464059 
1506 1 -5.30901 -3.12329 0.214077 
2211 1 -6.73302 2.16677 -1.65758 
4846 1 2.02626 2.43555 -2.6341 
14307 1 3.1015 -2.27741 2.08917 
4774 1 2.81348 6.43743 3.73716 
7115 2 -2.83822 -1.77616 0.160706 
14306 2 3.09719 0.562289 -1.12277 
14305 1 -5.15639 -0.871475 4.2151 
7114 1 2.07016 -3.00922 2.04989 
947 2 -1.22967 -2.14211 4.18636 
19400 2 -4.18801 -0.733507 1.90587 
5705 2 0.0876652 0.419151 -2.82996 
5706 1 -1.01958 0.480742 4.0951 
7116 1 1.28078 2.81586 -4.80196 
17805 1 -9.20359 -1.801 3.55561 
17804 2 1.71782 -0.9786 3.71008 
18882 1 5.07811 4.55623 -3.89474 
5054 2 4.0245 0.192631 1.274 
17803 1 2.85019 -2.80022 -0.793731 
5053 1 -1.09601 2.33338 5.80623 
18880 1 1.77304 -5.10674 -0.374064 
18628 1 -5.21879 1.22203 5.05747 
18881 2 1.14207 -1.89093 1.90672 
16607 2 -0.317891 -1.9863 4.57986 
8088 1 1.29675 -3.10598 -0.609865 
16606 1 -1.69112 -6.6435 -0.959331 
16608 1 -4.05828 2.25336 0.118545 
13013 2 2.60036 -1.89375 -1.10541 
13799 2 -0.772751 0.50745 3.33112 
21034 1 2.40467 1.21872 0.540437 
21035 2 1.39733 -0.941494 2.31009 
21036 1 3.94565 0.525937 4.39623 
21271 1 3.55123 -0.573389 -2.6732 
21272 2 -1.64643 4.18786 -3.63201 
13800 1 -1.86921 -1.43783 -1.0638 
13012 1 -1.53664 -1.09451 6.7273 
13014 1 -2.94396 2.30568 3.72241 
16462 1 2.93231 0.683777 -2.9159 
7515 1 -1.5112 6.93108 3.46424 
7513 1 -3.79359 -0.86491 -1.17101 
7514 2 1.74441 1.76607 -0.43675 
19401 1 -0.850099 -5.12015 -9.93656 
20194 1 1.88229 -0.10769 6.60759 
13863 1 0.343583 -0.345133 -0.0226229 
948 1 -1.96004 -1.92565 0.140535 
1117 1 -2.252 3.71442 2.33366 
1118 2 0.609055 -1.1911 1.34426 
20195 2 0.397899 5.32978 1.32338 
5055 1 1.61303 1.85814 1.98519 
5261 2 -1.80064 -1.9016 -0.77579 
5262 1 1.0185 5.15635 3.32538 
20196 1 1.55682 -3.32595 -0.35229 
6717 1 -5.29892 1.8005 -2.64228 
21273 1 0.618399 4.11098 0.873828 
20476 1 1.54782 4.97327 -4.3926 
8682 1 5.33902 -0.969761 4.8563 
309 1 -1.50559 4.52529 1.62837 
308 2 1.59295 1.15184 5.51053 
307 1 -2.76383 -1.93627 -1.31742 
8385 1 -3.88466 0.730879 3.29022 
20477 2 0.965212 -2.74265 3.71644 
20478 1 -3.10061 0.351168 0.686932 
13861 1 -2.93543 2.50342 -1.3908 
13862 2 0.544916 3.94855 1.35246 
3666 1 3.29837 -1.51023 -3.01343 
3655 1 -1.86633 -6.56853 -2.91903 
8681 2 -1.58074 -2.50332 -1.33901 
8998 1 -0.868217 0.0383579 0.276855 
8680 1 -6.88201 5.06776 4.22715 
11664 1 0.313212 2.02288 0.157045 
11663 2 0.584376 2.15482 -2.24136 
2651 2 -5.27221 0.432616 3.00223 
2652 1 5.15355 -3.18698 -0.585621 
13960 1 4.27665 -2.60617 -7.3264 
2650 1 0.767611 6.0102 2.20334 
6706 1 -0.499019 0.442637 -6.08184 
5260 1 3.17733 1.76364 7.27695 
9595 1 -3.66107 2.89475 1.92205 
6707 2 2.0146 1.35512 0.925741 
6708 1 5.91446 1.82174 3.94553 
9596 2 2.90354 -0.697062 0.717371 
5193 1 -2.3116 -0.908377 3.27197 
5192 2 -2.50286 0.0668712 0.494329 
3370 1 -0.538638 -2.53759 -6.11985 
5191 1 2.51731 2.78175 4.9608 
3371 3 -1.08771 -0.559643 3.21664 
3372 1 8.07884 -2.26374 0.0627157 
20991 1 2.55559 4.78669 2.9357 
20990 2 -4.07715 -3.11961 -0.495928 
9597 1 2.67379 0.0065359 -3.19421 
20989 1 1.41075 0.357706 3.80314 
17337 1 -3.49689 -1.15198 -0.985985 
17336 2 5.72115 1.02216 -0.612521 
6010 1 3.66208 0.545338 3.34869 
17335 1 -1.9662 -5.16841 4.06917 
6011 3 0.371988 5.47946 3.75353 
4248 1 -0.68562 2.38051 -0.248726 
6012 1 2.10752 -1.69256 -2.37836 
15987 1 -0.0537843 -5.76334 -1.97573 
13508 2 5.77752 -0.728149 -1.26206 
13509 1 -3.46352 -1.78467 3.13651 
8878 1 0.0248727 -2.09766 3.88969 
8879 2 -5.0981 -2.26327 -0.10881 
8880 1 -1.04397 0.349742 3.57655 
17212 1 2.19185 -6.3544 4.20901 
17213 2 0.302265 -2.57588 3.30767 
21052 1 -4.17207 2.37078 -2.55191 
17214 1 3.28308 1.12693 -5.39686 
5364 1 -3.81192 -3.93791 -10.1574 
9271 1 3.27748 1.59504 3.93065 
9211 1 -3.52244 0.702407 0.231039 
9212 2 3.55373 0.723568 -1.48421 
13507 1 -4.63567 -3.37168 -0.190268 
11968 1 0.521984 6.73031 -6.6224 
11669 2 1.0298 3.48059 -2.19403 
11668 1 0.217559 0.471757 -2.72164 
11670 1 2.01445 -1.49734 2.75139 
4555 1 8.45542 0.289722 4.54394 
12079 1 1.43374 -7.37857 -2.20662 
12080 2 2.62726 2.0036 2.53602 
4557 1 4.65226 -7.11322 7.89632 
6277 1 -2.41296 0.420088 -0.716674 
1691 2 -1.50926 -2.03945 1.86554 
43 1 3.40137 -3.53445 -0.617467 
1692 1 1.45285 2.47086 2.01197 
1690 1 -2.81582 1.46108 -6.94415 
6672 1 -5.47419 -0.197758 0.747408 
16382 2 -2.94352 -2.94163 -0.0621206 
5363 2 -2.89597 0.378082 -0.286511 
5362 1 3.42724 1.89882 3.71761 
9272 2 2.52951 0.159095 1.50284 
44 2 -2.19873 -0.789158 1.32638 
8272 1 0.589283 -2.23576 6.39294 
16381 1 3.32891 2.38851 -2.38053 
9250 1 4.0971 6.8652 2.85729 
9251 2 -4.58158 -3.20658 0.506507 
9252 1 1.73354 2.98344 1.90109 
10305 1 -2.89576 1.59902 3.52328 
45 1 9.54606 -0.477123 2.59541 
9273 1 -1.00731 2.8094 -3.09288 
8273 2 -0.975194 0.632592 -0.820742 
11112 1 -5.97658 1.24174 2.09746 
10304 2 -0.0624039 2.13432 -4.80191 
8274 1 4.68897 -0.0989676 0.874797 
10303 1 -3.82682 -1.45623 1.85453 
28 1 -4.10685 -4.52576 4.91395 
29 2 -4.76795 2.52244 0.168374 
30 1 -0.692861 -0.395092 -2.1506 
3930 1 -3.55322 2.64332 -5.4635 
13198 1 1.87949 -7.07234 2.54676 
13199 2 -2.02458 -1.70686 2.30447 
13200 1 9.62913 1.60695 8.70063 
3929 2 1.68239 -1.66621 3.51165 
6278 2 -0.472823 4.96676 -2.58787 
6279 1 1.22408 -2.34382 -4.75545 
14370 1 -0.538908 4.3326 -1.17864 
10380 1 4.57686 2.82531 0.633816 
11029 1 -3.01296 -1.2421 -3.01654 
3207 1 -0.519917 0.832726 -0.997556 
10379 2 -2.17463 -2.97171 -2.1226 
10378 1 -3.77898 -0.65002 -0.409691 
14369 2 -1.10999 -4.24791 -1.67345 
14368 1 6.31428 1.23039 -0.88788 
2982 1 1.68625 0.585762 0.0863739 
2981 2 -1.46504 1.2276 1.28838 
3206 2 -2.15121 4.74434 -1.56163 
11030 2 -0.42906 -3.80003 0.630483 
2980 1 -1.63197 -0.427899 0.733492 
19610 2 1.29457 -5.05305 -1.29171 
19611 1 -5.85584 -0.0577088 4.48019 
19609 1 -2.76441 -1.38628 1.90269 
13614 1 3.03454 -0.185715 0.906708 
15651 1 -2.56487 1.50203 1.78547 
15650 2 -1.4664 -0.757738 2.3567 
11111 2 -2.32464 2.23823 -2.59724 
11110 1 12.4367 3.28228 -3.64012 
21397 1 -3.11116 4.05667 2.7353 
21398 2 -1.14205 3.17886 0.876806 
4816 1 -0.657251 3.65496 3.62457 
21399 1 -6.45593 -2.25336 2.97115 
15834 1 -3.90014 -5.33431 -2.92275 
15833 2 -2.13531 -4.06436 1.05669 
15832 1 2.3701 -1.53372 -4.87929 
8086 1 -1.67123 -0.345559 2.78684 
8336 2 0.796576 2.77189 0.108291 
9276 1 -1.72426 -2.88095 -2.4812 
409 1 -6.21778 3.63385 -0.371705 
4768 1 -5.58273 -1.77179 2.43535 
410 2 2.53048 -0.487281 1.07397 
4769 2 0.0734373 3.83013 -1.71604 
13798 1 -0.927308 -0.752916 3.00556 
14058 1 4.50828 4.13352 2.52861 
14057 2 -0.0971032 -0.434856 1.64744 
14056 1 -1.73092 2.66168 0.017881 
16629 1 1.23102 -1.67305 1.75661 
8335 1 3.30211 2.56869 1.62531 
17276 2 -2.49953 2.67304 -1.17465 
9178 1 -4.49751 2.52322 4.28606 
17277 1 -3.33479 -1.38805 -0.640271 
17275 1 0.589277 3.91118 -0.587632 
2282 2 2.27111 0.334483 1.95954 
9422 2 6.76505 0.169395 -4.10083 
9423 1 0.857297 -1.98404 2.20111 
18630 1 -0.0732244 0.391516 -0.451785 
18629 2 4.62886 1.70991 -4.52574 
17090 2 -2.49208 4.33311 -2.34115 
17089 1 -2.69375 0.402826 8.32886 
6715 1 0.874932 -0.445535 -0.286447 
2281 1 -0.616498 -0.617254 0.637808 
9421 1 -3.02016 -2.29988 -9.4617 
8087 2 -1.23614 0.00730048 5.93723 
5256 1 -7.04651 -1.16354 -1.87042 
5254 1 3.71944 -3.67783 -2.15609 
5255 2 1.6052 -1.9547 -1.30644 
3516 1 -4.56753 -4.6236 -3.29116 
6619 1 0.627379 -1.34308 -3.03782 
6620 2 2.21422 1.73379 2.2489 
3515 2 4.30616 -3.29147 2.79904 
5232 1 3.42067 2.23559 5.39831 
3514 1 7.70706 0.314023 2.68222 
6171 1 3.69809 -3.43892 -0.956919 
14938 1 -6.90916 2.32777 -3.04477 
4770 1 -2.43975 -0.425427 -0.270998 
11247 1 0.593896 -3.90674 4.22909 
1119 1 2.76766 -1.22507 -1.33028 
11245 1 1.85971 1.10811 -0.737197 
11246 2 -2.12967 -2.68815 -0.331109 
14940 1 -1.5911 -0.321904 1.31175 
14558 2 2.35407 3.31552 1.75176 
20484 1 0.90213 -1.36657 0.57757 
20483 2 0.378898 3.09025 4.69667 
6716 2 4.48443 2.71705 5.062 
3710 2 -2.02103 -2.1004 4.14756 
3709 1 -7.05171 -0.720281 5.98663 
5080 1 -3.35267 -4.92599 -3.71444 
5081 2 -2.5739 5.0481 -1.45745 
5082 1 0.78513 -4.20598 -0.402503 
19338 1 2.10734 -3.6059 -1.32827 
15010 1 5.0767 -9.9459 1.12283 
15011 2 0.701374 0.663675 -1.45199 
3711 1 -0.683664 1.54192 5.38179 
15012 1 -2.98218 -5.08891 0.114952 
8384 2 -3.0605 -2.24905 2.42547 
3277 1 -2.34314 0.205946 -3.79529 
17669 2 0.608901 -0.421076 -1.80182 
17668 1 5.18169 0.179118 -2.72614 
17670 1 3.49096 -0.344319 -0.478141 
8383 1 -1.9862 1.93199 -5.11049 
21356 2 -2.20311 0.391667 -0.924629 
13300 1 3.23457 0.965183 0.422927 
21357 1 1.76265 2.01355 -2.09977 
5230 1 -3.14183 -2.45758 -0.334947 
5231 2 -1.04001 -1.97806 3.05431 
14939 2 -2.25732 0.377387 -0.983939 
8999 2 -1.02428 -2.16311 -0.450285 
9000 1 -2.21376 -0.979542 0.0423177 
21355 1 -2.45451 -0.872164 -2.97419 
11662 1 -1.09278 -3.74635 0.444959 
15907 1 -2.22766 -0.378792 -1.1782 
15908 2 -1.38189 1.73084 -2.44171 
15909 1 2.77992 2.99739 3.09209 
8518 1 -4.8316 3.85974 -1.04795 
9322 1 0.5235 -1.961 1.05597 
9323 2 2.85927 -1.22684 -2.22905 
19592 2 -1.8981 0.160935 -0.549226 
19593 1 -3.9612 -5.0144 4.31696 
19591 1 2.85542 -3.54157 -5.23277 
5670 1 -1.2151 -2.52356 4.06375 
5669 2 -0.458857 3.19246 0.613659 
19531 1 -1.37067 3.96016 1.35121 
5668 1 0.682705 -2.0721 2.34602 
7099 1 -4.96893 0.422684 -7.40081 
9916 1 1.75862 3.00731 4.664 
9917 2 3.7971 -2.65868 0.991818 
7101 1 -3.47994 -9.52996 4.5615 
7100 2 1.4976 2.6544 0.46234 
20441 2 3.17198 -1.36125 2.0178 
20442 1 -6.88583 2.18581 6.03873 
18774 1 -3.39065 -1.74602 -4.35347 
18772 1 0.742367 1.23075 1.59645 
9918 1 3.16834 -6.024 -2.41136 
18773 2 0.408248 1.09462 0.39889 
8519 2 5.73973 0.489169 0.282826 
20440 1 1.98908 -1.46354 -4.10825 
5883 1 -3.9697 1.97753 2.41377 
1076 2 0.269718 -2.6029 3.63305 
1075 1 -0.622797 1.87995 -4.65506 
1077 1 -0.586249 -0.276593 2.7026 
5882 2 -0.740375 -1.9495 -0.776207 
11607 1 -3.91468 6.74251 -6.76514 
1995 1 0.756361 -5.5189 -4.92053 
1994 3 0.0663682 2.13826 1.36048 
4246 1 5.24325 -6.12901 -0.370085 
4247 2 2.08797 -0.924165 -0.756169 
11605 1 1.64843 -2.67097 7.1357 
11606 2 -0.00290688 1.70722 -2.31422 
10348 1 0.460471 -0.864353 -2.01838 
10349 3 -0.414396 2.13278 -2.78308 
10350 1 5.76484 -4.17759 5.02449 
13124 2 0.561508 0.580283 3.81037 
16994 2 0.527937 -1.77496 -4.51062 
11969 2 -0.952615 -1.96817 2.85869 
11970 1 -4.12269 7.78381 -1.57432 
17074 1 -1.22062 3.63408 -5.1885 
17075 2 -2.73608 0.46567 -0.252084 
17076 1 -0.380202 -4.81092 1.68737 
14388 1 -5.64289 5.10394 -1.07664 
16993 1 3.94694 2.61874 0.89487 
13123 1 -0.86395 -6.28954 3.96971 
14387 2 0.500033 1.98587 0.331356 
14386 1 -4.63557 0.343835 2.54306 
9213 1 -0.325196 -4.33167 5.93452 
4164 1 2.42749 -3.13817 7.89507 
4163 2 2.00646 1.71626 2.2356 
4162 1 -1.72309 8.79314 -4.99356 
7518 1 -3.09449 -0.578269 -2.42817 
12321 1 0.873127 5.59088 -4.46347 
6320 2 -0.565496 -2.99346 1.49339 
10669 1 -2.65367 -0.749166 1.58592 
16995 1 0.0856019 -0.475287 1.59945 
6319 1 -5.50408 3.86005 1.47448 
1753 1 -0.54658 -1.68473 0.92529 
1754 2 -1.92786 0.274057 0.79285 
1755 1 -4.40286 -1.67695 5.18376 
5869 1 2.7679 4.08653 4.64342 
6321 1 2.99518 -0.178202 2.50211 
13125 1 -8.42656 0.387044 2.30942 
10670 2 2.33522 2.53239 1.22382 
11031 1 3.63962 -4.72145 3.45565 
7234 1 5.57504 -1.01982 1.1081 
5870 2 -2.97733 2.93455 1.32091 
7236 1 3.63082 -1.80495 -6.52782 
12985 1 -8.31703 1.59835 1.71054 
12986 2 -0.59102 -0.853878 -0.390084 
7235 2 4.17807 3.6445 2.90994 
12987 1 -3.37326 -3.21928 3.08155 
8728 1 1.38931 3.23907 1.38812 
17035 1 -1.74611 -3.29764 1.75053 
10271 2 -2.01428 3.90571 -6.1446 
10270 1 7.21637 0.848938 -3.84853 
12320 2 3.35723 -1.17024 -0.0470674 
6751 1 7.78357 5.57585 -6.91773 
12319 1 -3.18967 -6.75295 -1.14925 
6753 1 -0.618696 4.56897 0.832137 
6752 2 5.78567 -0.821282 0.938327 
13612 1 5.99483 -1.44892 -0.850947 
12501 1 -1.31119 0.231732 1.07297 
12500 2 1.30744 -0.17161 0.0407296 
13613 2 0.0751742 1.93962 1.69783 
15649 1 0.860684 0.133024 -6.96661 
3492 1 -3.33398 1.83273 -3.95645 
3491 2 1.89702 -2.43649 0.0439688 
3490 1 0.618654 0.654741 -2.52317 
19998 1 -2.22894 1.74114 -1.87196 
19997 2 3.33092 1.40885 -0.74572 
21371 2 1.25035 -3.41555 0.56331 
17037 1 3.4935 -3.6775 4.8994 
10272 1 6.119 2.96272 -0.254453 
4817 2 2.25008 0.388469 0.462991 
17036 2 0.970588 2.06807 1.19505 
4818 1 -1.47139 4.84802 -3.98476 
3928 1 1.05148 0.145583 3.94869 
9274 1 0.961831 -1.62647 -1.33158 
9275 2 1.80676 2.00009 4.68735 
15742 1 -0.231663 -2.68968 2.81613 
15744 1 -0.553505 5.24111 -1.43223 
15743 2 -2.12028 1.8434 -0.0958186 
12499 1 -4.38148 -1.25784 -0.793351 
21468 1 0.879832 -5.95239 0.187307 
21467 2 3.77116 0.631306 -0.702085 
261 1 0.44893 5.19673 4.98681 
1156 1 2.99163 0.783919 1.21316 
14727 1 3.69224 -4.24677 -0.93757 
260 2 -2.14472 -1.09206 -1.51757 
21466 1 3.77755 7.89348 -2.84023 
9180 1 -1.53199 -4.94064 -5.92885 
9179 2 1.27544 2.22397 0.0267986 
2283 1 3.62202 -1.6861 0.634853 
17537 2 0.965227 -1.7052 1.43507 
17536 1 2.11903 -1.10587 -0.958407 
13 1 -0.420764 1.91862 -3.70337 
14 2 1.63081 1.29635 0.655832 
17538 1 -2.8362 1.04286 -2.03683 
2075 2 1.88651 -2.48308 2.34827 
17091 1 1.62236 5.65865 3.99092 
2074 1 4.6443 5.03921 -4.35601 
10375 1 2.01451 1.10536 2.79131 
10376 2 -1.68897 3.22401 2.54325 
10377 1 3.70932 1.98721 -4.53801 
769 1 -6.13523 -0.635126 -2.04337 
14900 2 -3.14278 1.43096 -0.0844398 
154 1 -1.27471 -4.42027 -1.33862 
1157 2 -0.303799 1.2186 2.45381 
1158 1 2.82473 2.70465 -0.673445 
14901 1 0.264567 1.62044 4.44723 
7199 2 5.03692 1.1372 1.62598 
7200 1 0.306691 2.89184 0.0911461 
21421 1 7.41938 3.82643 -0.203437 
6621 1 -3.67992 -2.69264 6.42082 
14559 1 5.98284 0.417974 -1.87506 
20482 1 2.17613 0.555748 -1.5938 
9195 1 -1.61529 -3.16271 -1.7393 
9942 1 0.838383 3.86471 5.60486 
14557 1 -2.50335 -0.165896 -3.98197 
15 1 2.2403 -0.2266 2.28044 
9941 2 0.714098 -0.39684 1.30191 
21507 1 -0.734257 6.19267 0.777325 
9940 1 -1.75301 3.06481 -2.25642 
9194 2 -2.14878 0.14029 0.791863 
9193 1 -1.08577 -1.168 -0.299514 
21506 2 -3.24232 -2.07092 0.486733 
19337 2 -0.0544832 3.59151 -0.674558 
9138 1 -2.94411 6.42127 -3.85645 
19336 1 -0.666904 -7.53491 -0.689839 
770 2 -1.8379 0.0971965 1.96216 
9137 2 -1.30432 -1.14716 1.52536 
9136 1 0.431748 -8.24923 2.27479 
13555 1 -3.05454 -1.36226 -1.68031 
13556 2 0.178827 1.3978 -4.40694 
14976 1 -1.78907 0.000833724 0.233138 
13557 1 -3.88489 -2.67322 -1.71633 
14975 3 1.03226 3.31534 1.43708 
13301 2 -3.6277 -3.07577 -2.24497 
13302 1 -6.31779 -0.946275 -0.34811 
18410 2 -0.126532 3.87996 2.80093 
18411 1 3.3705 -2.55853 -0.639972 
7198 1 -5.16342 4.28006 1.38274 
3278 2 1.39319 -4.83424 1.63748 
3279 1 -2.89887 -2.20374 4.70988 
11295 1 2.79002 -1.2798 4.4731 
11294 2 -1.53773 1.13887 2.58567 
7316 2 -5.96312 -3.45451 -0.590931 
9324 1 -0.140233 1.724 0.257077 
8734 1 3.25734 3.46295 -9.57722 
13641 1 0.468974 -0.26999 1.60259 
11293 1 2.17275 -0.870085 -2.18304 
8736 1 -4.38658 1.88245 4.71251 
8735 2 -2.81868 -1.02886 -2.18814 
13640 2 1.17928 2.13699 -1.35594 
13639 1 5.70679 -1.08901 -1.18708 
7317 1 -3.38346 -0.946088 5.28636 
19532 2 -0.67076 0.66488 4.04452 
20281 1 -1.75054 -9.01182 -0.970202 
20283 1 -0.977528 0.973284 -9.20657 
19533 1 -5.03719 5.76103 3.88999 
20282 3 -3.63817 0.610011 0.742542 
14974 1 1.99978 3.15909 -3.34002 
899 2 -4.43832 0.538978 -2.3169 
900 1 -6.22467 -2.39447 2.7627 
898 1 1.53214 3.56087 1.0681 
8520 1 -2.74732 -4.83814 -3.01693 
5881 1 -2.48376 -2.62108 -3.61019 
1993 1 1.25004 0.158745 4.05837 
8730 1 1.33083 4.97714 -3.89252 
14234 2 -2.10385 2.85523 2.40032 
14233 1 3.08046 6.74496 -3.7983 
8729 2 1.35336 1.34571 4.17039 
9053 2 -3.55166 1.96566 1.92563 
9052 1 -1.2166 5.15486 -5.24923 
5871 1 -5.50606 0.865042 0.602167 
14235 1 -3.9311 -6.46139 -2.84517 
8811 1 -0.039315 3.07457 6.95309 
8810 2 -1.49408 -1.71318 0.247796 
18817 1 -0.71382 -5.09057 -2.84503 
18818 2 -3.313 -0.413642 1.48667 
18819 1 -3.14656 0.47604 -2.65679 
4300 1 0.967081 0.335733 1.38461 
4301 2 -2.84451 1.93893 1.24285 
8139 1 3.57227 0.716533 -0.315919 
8809 1 5.39397 -0.64203 3.22936 
21372 1 -0.262215 -7.24906 -0.551897 
9288 1 -2.15633 7.06017 -1.38662 
9054 1 -2.75639 -0.940508 -1.87378 
19996 1 -1.70647 0.0250974 2.77116 
9287 2 2.1434 1.7034 -1.90765 
9286 1 -2.00614 -2.97058 4.22186 
259 1 0.368904 2.53496 -1.6962 
5776 1 6.98493 0.437076 -3.58185 
18440 2 4.57773 2.65676 1.3604 
5777 2 -4.62399 3.36671 2.17754 
6405 1 -2.72132 -0.493758 -3.55114 
4302 1 1.81457 -1.79197 7.55608 
13413 1 0.460764 -3.12471 -4.2751 
6403 1 0.476657 -2.27003 0.69302 
6404 2 3.27769 -2.65192 1.64251 
18439 1 3.64813 3.63979 5.18414 
12916 1 -2.1004 2.30671 5.31323 
12917 2 0.494274 0.532881 3.12954 
21370 1 0.487267 3.33332 1.61989 
7048 1 0.310445 3.13759 1.4086 
7049 2 -1.13079 -0.747717 0.00424965 
2076 1 1.58919 2.30146 -2.43246 
7050 1 -1.97184 -1.4616 0.206798 
12918 1 0.741838 -0.122798 -0.834972 
2041 1 -0.945058 3.07769 -5.517 
2043 1 0.64881 -5.72896 2.15559 
18441 1 3.67131 1.12517 -0.847713 
2042 2 0.546398 2.49058 1.53996 
21422 2 0.783336 -3.55592 -2.02128 
21505 1 1.61686 -0.277135 -6.02288 
3740 2 -2.01489 1.19004 1.4032 
3741 1 -0.55436 5.83082 -5.40511 
771 1 -1.22959 -5.11223 1.17753 
3739 1 -0.783897 3.65709 -1.3167 
2464 1 -0.438022 -2.87493 3.65181 
2465 2 0.0641097 -4.71688 -0.704185 
6211 1 -2.40815 -1.71483 2.94042 
6212 2 1.36551 2.10322 1.25663 
6213 1 5.62374 0.294247 4.73146 
7315 1 0.494245 -3.67553 3.32175 
15376 1 2.51294 -2.49046 -1.36294 
7852 1 0.427843 -3.84848 -13.4735 
7853 3 0.194624 -0.624198 1.51948 
15377 2 -0.299283 -4.37609 1.34055 
15378 1 0.550558 1.44264 -2.11946 
2466 1 0.234857 0.276421 -8.21413 
2279 2 0.00835964 4.80001 -1.57195 
2278 1 4.90936 -1.30317 3.54218 
5658 1 -3.44507 0.739587 3.11419 
15484 1 0.522549 1.60761 4.61826 
2280 1 -0.710138 3.92771 -4.62432 
7854 1 -0.869765 3.4807 2.84167 
15486 1 3.46064 2.40326 1.11714 
15485 2 0.0512128 1.34108 -1.16693 
13412 2 -3.59381 1.63722 -1.09789 
13411 1 -1.80299 0.30299 2.71398 
2145 1 5.29321 -1.08137 -4.8565 
2144 3 -1.81344 -0.568988 -0.525925 
2143 1 -7.47824 -1.37528 -3.78768 
16074 1 -4.48938 -0.163146 2.70991 
16073 3 -2.72308 -2.60077 -0.137207 
17181 1 0.192918 1.83663 -2.50174 
6465 1 2.49944 -0.955 0.327163 
6464 3 -0.691451 -4.16214 5.16429 
6463 1 -1.24727 -0.145501 0.230005 
17179 1 -3.60018 -3.95037 5.2223 
17180 2 0.852425 0.47095 4.04399 
16072 1 2.41199 -3.20423 0.0361209 
17742 1 1.13732 -3.74961 7.86845 
17741 3 -1.659 -2.97214 -2.95367 
15937 1 3.22573 1.0966 2.35735 
17740 1 4.37366 2.42442 3.43303 
15938 2 -1.35424 3.70751 0.461715 
15939 1 4.77403 -0.206309 -0.404785 
15515 3 -0.0106778 -0.739085 -0.790476 
15516 1 4.95496 5.06985 1.14918 
15514 1 -0.236096 3.66605 -0.448486 
4735 1 6.11781 -4.53111 0.677615 
8043 1 -4.4013 1.97133 -0.989076 
17858 2 -1.06221 1.09756 -1.49345 
17859 1 -6.28748 -4.5867 2.34335 
8041 1 1.08897 3.03778 -6.1201 
8042 2 -2.05126 -0.511802 -2.37846 
33 1 1.01226 5.73862 -2.63015 
32 3 -4.13578 0.874977 -3.38343 
4737 1 -1.32234 -0.422535 1.95162 
31 1 -0.320114 -1.33286 -3.73536 
4736 3 2.59229 -1.12927 2.02776 
2644 1 2.48114 1.16243 -0.549969 
9688 1 3.57656 4.73076 -6.84958 
1419 1 -1.30285 -2.61552 0.823846 
9689 3 -1.11819 -1.57142 -2.51148 
9690 1 -5.40584 -0.822913 3.45893 
10138 1 -5.16986 2.34868 3.21581 
10139 2 -1.65371 -0.0788746 -0.630906 
2298 1 2.32443 -8.86041 0.2317 
16102 1 1.28233 -0.135341 2.78695 
16103 2 -0.25279 -3.25372 -4.84651 
2297 2 -3.93596 1.17744 -2.81962 
16104 1 -0.32475 -2.53621 -1.90233 
2670 1 -3.16567 -0.744935 4.05146 
1684 1 1.11336 1.11072 2.7821 
1685 2 -2.64442 -0.0889963 1.13367 
13716 1 -3.3166 -0.67041 1.54793 
1686 1 -1.21025 -5.73784 4.23716 
13715 2 0.456613 3.24464 0.995866 
13714 1 6.48725 1.03421 3.94989 
15401 2 -2.58971 -1.82171 2.07355 
20181 1 2.66043 -6.6164 1.13942 
9919 1 -3.1373 -0.367427 2.76367 
9920 2 -0.843383 1.56281 1.34083 
2296 1 -7.46792 -2.66491 2.69791 
6533 2 -3.05808 1.88789 -1.17035 
6532 1 -2.44434 -1.75127 -1.6085 
6534 1 0.149755 1.85664 -2.78968 
2238 1 -1.63209 -1.21072 -0.938917 
1350 1 -2.47681 2.38624 3.08997 
9921 1 0.905016 -0.507596 -2.81869 
15400 1 -0.499638 0.688619 1.61925 
20855 3 0.90231 2.26226 -0.270769 
8816 2 4.23844 -0.938425 -0.421448 
8815 1 -1.28581 -0.816984 -5.20133 
7806 1 0.926062 -5.69971 1.39512 
2237 2 -0.381107 -1.50829 -2.55714 
371 2 -0.214377 -3.05028 -3.72358 
370 1 -5.13967 -4.11187 2.05447 
20180 2 1.19061 5.9364 -3.22286 
20179 1 3.30134 -2.54311 -2.55607 
1368 1 -0.981214 6.64641 4.31922 
19864 1 -5.12055 4.24282 -1.25436 
1367 2 0.0579976 2.19087 0.138654 
19865 2 6.21626 3.54074 -0.535106 
20856 1 -1.75258 2.65277 0.90372 
19866 1 -1.67344 6.01838 -5.97752 
7805 2 3.03848 1.6234 -1.80113 
17857 1 2.40118 -6.40511 0.801387 
460 1 0.860841 7.67994 4.36892 
1366 1 0.680694 2.15754 -2.41074 
461 2 -3.85957 -3.42784 -1.60716 
462 1 0.236124 2.67848 -2.78278 
7804 1 -5.93946 0.191699 -3.97379 
18778 1 8.32945 -1.56543 -0.80636 
16464 1 -2.89423 -5.81449 2.03304 
14932 1 -0.0157572 3.38556 -2.05859 
14934 1 -3.78754 6.84644 -2.25728 
14933 2 0.0393966 0.703214 -0.302661 
7712 2 0.5331 -3.07662 -3.98693 
17138 2 1.00037 0.588345 -2.6673 
7713 1 -1.86502 0.644279 -0.944948 
17137 1 -0.0168285 2.63931 3.00978 