ITEM: TIMESTEP
30000000
ITEM: NUMBER OF ATOMS
1794
ITEM: BOX BOUNDS pp pp pp
0.0000000000000000e+00 5.0000000000000000e+01
0.0000000000000000e+00 5.0000000000000000e+01
0.0000000000000000e+00 5.0000000000000000e+01
ITEM: ATOMS id type xs ys zs
18255 1 0.205813 0.0197175 0.563923
12650 2 0.19797 0.0139689 0.567709
12649 1 0.203987 0.0177037 0.564881
18254 3 0.211131 0.0240704 0.56114
18253 1 0.21596 0.0298561 0.561479
10501 1 0.217902 0.0320564 0.561796
10502 3 0.220685 0.0394372 0.564784
16913 3 0.201225 0.0462986 0.573056
16912 1 0.19784 0.0509506 0.566458
10503 1 0.223061 0.0398148 0.571909
5094 1 0.266745 0.0626091 0.572172
19105 1 0.126035 0.0248656 0.601184
247 1 0.123777 0.0273648 0.602647
19106 2 0.131011 0.0191233 0.598254
18022 1 0.150691 0.0255996 0.60104
19107 1 0.134505 0.0119287 0.596688
17959 1 0.135873 0.00951714 0.596559
17960 3 0.138859 0.00250757 0.596562
16122 1 0.173025 0.00359311 0.577911
16121 3 0.171746 0.00984216 0.583039
16120 1 0.170694 0.0167277 0.586405
12613 1 0.170326 0.0192243 0.588161
12615 1 0.174111 0.0292219 0.598751
12614 3 0.17088 0.0252803 0.593056
2190 1 0.210544 0.00138304 0.575956
3632 2 0.219985 0.00780064 0.576574
12651 1 0.196694 0.0159826 0.57677
3633 1 0.212916 0.00330034 0.576162
16988 3 0.217414 0.00466714 0.605628
6113 2 0.251741 0.00731979 0.587178
16989 1 0.223843 0.00652731 0.60079
6112 1 0.244735 0.00872801 0.590338
19959 1 0.226835 0.00757464 0.599154
19958 3 0.233701 0.00801209 0.594131
19957 1 0.241781 0.00902368 0.591719
3631 1 0.226064 0.0141242 0.577465
6114 1 0.255862 0.00579676 0.580726
248 2 0.119795 0.0335914 0.604329
18023 3 0.151115 0.0329857 0.602494
18024 1 0.145533 0.0371578 0.598076
17735 3 0.179439 0.0366483 0.605693
17736 1 0.17566 0.031034 0.600694
16914 1 0.206862 0.0427054 0.576922
7245 1 0.232582 0.0344473 0.604476
7244 2 0.236843 0.034993 0.598008
7243 1 0.244932 0.0337463 0.595112
10528 1 0.247914 0.0332084 0.593862
10530 1 0.256571 0.031425 0.583058
10529 2 0.254925 0.0331722 0.590016
11265 1 0.126989 0.0848679 0.605024
11994 1 0.158019 0.0722782 0.605899
11264 2 0.127568 0.0901363 0.598889
8598 1 0.177021 0.0694439 0.596364
475 1 0.182965 0.0822564 0.605735
8597 2 0.182297 0.075027 0.598101
8596 1 0.183424 0.0795856 0.603679
9262 1 0.227223 0.0808674 0.596558
1641 1 0.228329 0.0785301 0.59482
9263 3 0.225061 0.0875899 0.601093
1639 1 0.236636 0.0668392 0.586582
1640 2 0.232282 0.0734647 0.589246
7171 1 0.251781 0.0631793 0.602992
1809 1 0.250012 0.0637085 0.605511
7172 2 0.256576 0.0630422 0.597553
7173 1 0.261018 0.0627403 0.590688
5093 2 0.266067 0.0632629 0.58007
5092 1 0.262318 0.0623576 0.588008
11263 1 0.131764 0.0961407 0.595255
15745 1 0.210842 0.113775 0.591116
15746 3 0.206078 0.110909 0.597007
15747 1 0.204313 0.104267 0.600305
9264 1 0.224504 0.0960863 0.601702
16416 1 0.225368 0.0988185 0.602193
16415 3 0.228543 0.105827 0.603636
12382 1 0.276911 0.119874 0.597551
12383 3 0.279157 0.119849 0.605427
3282 1 0.0832487 0.024425 0.618064
3281 2 0.0905318 0.0264205 0.618876
3240 1 0.126381 0.00488028 0.618391
1555 1 0.116297 0.0252704 0.626052
3280 1 0.0983855 0.0283196 0.620729
1557 1 0.100769 0.0286094 0.621574
1556 3 0.107721 0.0283876 0.624685
19638 1 0.118794 0.0236472 0.627138
19637 3 0.125985 0.0196859 0.629188
3239 3 0.118585 0.00227782 0.614954
10423 1 0.144982 0.00906811 0.625068
19636 1 0.132844 0.0250532 0.631122
10827 1 0.134943 0.0270456 0.632408
10424 3 0.14085 0.00172257 0.625384
7615 1 0.188968 0.000660585 0.631527
209 3 0.168799 0.0124798 0.613438
208 1 0.161753 0.0139573 0.611717
210 1 0.175093 0.0139958 0.61649
1078 1 0.177576 0.014388 0.618132
1079 3 0.183361 0.0148511 0.624225
1080 1 0.181326 0.0145205 0.631372
13103 3 0.216535 0.000730135 0.631751
13102 1 0.213763 0.00873835 0.632397
16987 1 0.210267 0.00857896 0.607659
8166 1 0.201821 0.0189894 0.613131
13090 1 0.202511 0.021728 0.614047
8165 3 0.201299 0.0117175 0.611545
8164 1 0.20822 0.00961444 0.608568
13091 3 0.206289 0.028228 0.616194
16109 3 0.220687 0.0232753 0.631656
13092 1 0.213726 0.0286296 0.613917
13056 1 0.216356 0.0288216 0.613051
16108 1 0.212884 0.0237227 0.63117
3879 1 0.247109 0.000677995 0.611424
13055 3 0.224016 0.0299195 0.611064
8266 1 0.232094 0.00980062 0.611213
19396 1 0.245481 0.0250383 0.614237
8268 1 0.243483 0.0224169 0.614723
8267 3 0.237209 0.0163364 0.615127
24 1 0.249345 0.00252571 0.611413
22 1 0.264893 0.00465978 0.612072
2405 3 0.25681 0.00518787 0.632067
23 3 0.256621 0.00694216 0.61094
12896 2 0.308756 0.0282034 0.635665
20416 1 0.123431 0.0390383 0.61316
249 1 0.122249 0.0373168 0.610923
6500 3 0.113039 0.0513151 0.63377
6501 1 0.110858 0.0568991 0.628334
2590 1 0.109743 0.0587811 0.626315
20417 3 0.127299 0.043746 0.618814
15196 1 0.134305 0.0582682 0.631394
15936 1 0.1583 0.0482361 0.622865
15935 3 0.150169 0.0485282 0.624818
15934 1 0.145092 0.0538838 0.621286
10826 3 0.141143 0.0329387 0.634941
20418 1 0.132357 0.0465862 0.623586
9858 1 0.143598 0.0558143 0.620197
10825 1 0.144633 0.0396322 0.635834
7717 1 0.173781 0.0419628 0.613065
17734 1 0.175904 0.0406027 0.611409
7719 1 0.161134 0.0474275 0.621684
7718 3 0.167305 0.0449872 0.61723
11195 3 0.169251 0.0570217 0.635763
18437 3 0.188667 0.0362335 0.627826
18436 1 0.185443 0.0301544 0.632648
18438 1 0.19264 0.0406939 0.62233
15769 1 0.194149 0.0424105 0.620713
15770 3 0.197787 0.0470647 0.615878
2151 1 0.211225 0.0467662 0.633013
7633 1 0.209237 0.0454445 0.635112
2150 3 0.216147 0.0495432 0.627671
15771 1 0.204117 0.0485256 0.609638
13054 1 0.23017 0.033842 0.6068
2149 1 0.222542 0.0506047 0.621729
19397 3 0.251549 0.0309463 0.61425
14377 1 0.225304 0.0510561 0.619278
10938 1 0.252251 0.0492528 0.635929
14379 1 0.238293 0.057694 0.613449
1807 1 0.240388 0.0600823 0.613171
14378 3 0.231978 0.0515571 0.614412
15049 1 0.241138 0.0547004 0.627943
10936 1 0.252725 0.0419758 0.622558
4072 1 0.285335 0.0465933 0.615453
19398 1 0.25906 0.0356145 0.613792
1726 1 0.277236 0.0403771 0.633407
10937 3 0.254804 0.0446413 0.629668
12897 1 0.311921 0.033697 0.630218
4073 2 0.289609 0.0496891 0.621324
4074 1 0.291053 0.0559812 0.625468
7374 1 0.291867 0.0583822 0.626697
14496 1 0.0859296 0.0775128 0.63553
14495 2 0.0908276 0.0738985 0.631653
2592 1 0.0989857 0.0683998 0.62441
14494 1 0.0965488 0.069688 0.625993
2591 2 0.104924 0.0637302 0.621046
17957 3 0.130261 0.0778506 0.614091
17958 1 0.127687 0.0830283 0.607184
17956 1 0.13369 0.0710857 0.614636
9856 1 0.13536 0.068514 0.615444
9857 3 0.139036 0.0619329 0.616346
11993 3 0.162067 0.0663638 0.608253
11992 1 0.168385 0.064747 0.613119
11194 1 0.172985 0.0604972 0.629092
476 3 0.182592 0.0877731 0.6112
2070 1 0.17382 0.0616149 0.626676
2069 3 0.176639 0.064412 0.61929
2068 1 0.170432 0.0641171 0.614574
20156 3 0.172966 0.0812953 0.630734
20157 1 0.166781 0.0793299 0.634589
5805 1 0.164691 0.0791643 0.636022
20155 1 0.176619 0.0860972 0.625842
1240 1 0.169302 0.0894074 0.613569
14313 1 0.205853 0.0694946 0.612386
14311 1 0.209879 0.081403 0.621419
14312 3 0.209077 0.0758169 0.61593
15774 1 0.210459 0.0839762 0.623184
15050 3 0.239702 0.0606161 0.634203
1808 3 0.24637 0.0652078 0.612415
1261 1 0.255915 0.0791488 0.63569
1262 3 0.258212 0.0711375 0.63469
7373 2 0.294673 0.0637274 0.630996
12825 1 0.294462 0.0741605 0.636146
7372 1 0.294557 0.0714386 0.634804
12123 1 0.112313 0.114713 0.633281
12122 3 0.11956 0.116209 0.635879
12121 1 0.128115 0.113118 0.633781
12888 1 0.130979 0.11234 0.633645
12887 3 0.138705 0.110383 0.633972
17764 1 0.146994 0.104482 0.631288
17765 3 0.151871 0.0994451 0.628094
12886 1 0.144796 0.106383 0.632391
1242 1 0.157855 0.0937861 0.61999
17766 1 0.156361 0.095721 0.62215
477 1 0.18609 0.0911872 0.617061
1241 2 0.161441 0.0905944 0.614439
2194 1 0.187378 0.0930801 0.619149
2195 3 0.190413 0.0985395 0.625096
2196 1 0.195028 0.101172 0.632334
15773 3 0.211438 0.0910063 0.627054
15772 1 0.214044 0.0983038 0.629787
6478 1 0.21499 0.100352 0.629957
6479 3 0.217565 0.107878 0.631108
6480 1 0.217169 0.113482 0.63455
19498 1 0.236919 0.100621 0.630109
19499 3 0.233575 0.0956765 0.625359
16414 1 0.229509 0.112409 0.606913
18984 1 0.229401 0.11494 0.608741
19500 1 0.230531 0.0956062 0.617328
17997 1 0.275218 0.0927784 0.633649
3286 1 0.165812 0.121823 0.635447
3287 3 0.171653 0.124351 0.629631
3288 1 0.178295 0.128772 0.628866
19647 1 0.180671 0.130304 0.628951
19646 3 0.187567 0.134899 0.629015
19645 1 0.191238 0.139144 0.633904
14060 3 0.225601 0.133325 0.62793
14059 1 0.224808 0.13465 0.635083
18982 1 0.226754 0.127258 0.619868
14061 1 0.226373 0.129067 0.622581
18983 2 0.228513 0.123031 0.612618
11397 1 0.28048 0.121414 0.617231
12384 1 0.280241 0.121459 0.614036
11396 2 0.280638 0.121338 0.625389
9082 1 0.284388 0.13039 0.629907
11395 1 0.282855 0.127597 0.628037
9083 2 0.28718 0.136369 0.635108
17385 1 0.105187 0.000426632 0.655522
17384 2 0.105239 0.00173794 0.648551
20272 1 0.11897 0.0187642 0.654309
20273 3 0.123993 0.0141118 0.651052
17723 3 0.158179 0.020792 0.638803
20274 1 0.132105 0.0125935 0.651039
20558 3 0.14262 0.0104672 0.647801
20559 1 0.135361 0.0122303 0.650715
20557 1 0.148493 0.0111874 0.642349
18619 1 0.156017 0.0263963 0.661413
7906 1 0.136382 0.0145631 0.666222
17722 1 0.161032 0.027818 0.638965
14144 3 0.169968 0.0167513 0.663327
14143 1 0.17392 0.0233803 0.661234
12693 1 0.160742 0.00983665 0.63982
17724 1 0.160158 0.0130581 0.6395
10124 3 0.180237 0.0254387 0.646944
10125 1 0.181282 0.0224374 0.640609
12692 3 0.161433 0.00274055 0.640964
1687 1 0.214236 0.00882852 0.652134
1688 3 0.220261 0.0138264 0.653075
7616 3 0.194828 0.00365424 0.636871
11488 1 0.198947 0.0202464 0.65322
11489 3 0.201064 0.0205117 0.64619
7617 1 0.197526 0.0104367 0.640962
11490 1 0.198222 0.0128269 0.642812
15892 1 0.217544 0.0261705 0.659026
3798 1 0.198572 0.0197595 0.656299
3797 3 0.196729 0.0179108 0.663402
16110 1 0.22446 0.027941 0.636377
11655 1 0.225792 0.0297575 0.637997
20493 1 0.252717 0.0283608 0.646728
2831 3 0.241291 0.0039993 0.649747
2830 1 0.24268 0.0098376 0.656574
9444 1 0.243768 0.0121038 0.658344
9443 3 0.246915 0.0178513 0.664185
1689 1 0.228377 0.0174713 0.651895
4792 1 0.27022 0.00750102 0.654277
4793 3 0.263145 0.00300858 0.653342
2406 1 0.254791 0.0122824 0.637017
20491 1 0.254633 0.0144447 0.638577
20492 3 0.2545 0.020673 0.643634
10505 3 0.277373 0.0146131 0.656369
17691 1 0.284008 0.0215793 0.65855
10506 1 0.282203 0.0197755 0.658202
10504 1 0.272359 0.00932845 0.65463
12895 1 0.307257 0.023176 0.642066
17690 3 0.289275 0.0259504 0.661158
14693 3 0.307583 0.0167962 0.651441
14694 1 0.311725 0.010386 0.654788
1437 1 0.313799 0.00839953 0.655754
14692 1 0.307253 0.0211275 0.644548
1436 3 0.31998 0.00290808 0.657763
6499 1 0.115357 0.0461148 0.638559
13344 1 0.116745 0.0441438 0.641308
13343 3 0.120563 0.0403549 0.64705
3121 1 0.0985238 0.0498272 0.655006
3122 3 0.104866 0.0523957 0.658352
13048 1 0.114807 0.0541066 0.66191
13049 3 0.12065 0.0549337 0.665774
3123 1 0.112386 0.053519 0.660468
15197 3 0.137233 0.0599792 0.638786
18621 1 0.145523 0.0368351 0.661533
11205 1 0.143632 0.0388723 0.660257
11204 3 0.137835 0.0440086 0.656381
13342 1 0.128112 0.0414306 0.650999
11203 1 0.13085 0.0417984 0.652791
16614 1 0.144505 0.0602222 0.664879
18620 3 0.150721 0.0320275 0.665889
8512 1 0.161716 0.0306663 0.639281
8513 3 0.16356 0.0380025 0.638342
8514 1 0.166029 0.0442719 0.643359
11196 1 0.166717 0.0503129 0.639157
10105 1 0.174197 0.0326525 0.653214
10123 1 0.175603 0.0309744 0.651865
10106 3 0.169623 0.0370762 0.658563
2419 1 0.187185 0.0601281 0.647603
2420 3 0.184704 0.0596612 0.655194
10107 1 0.167724 0.0449497 0.656246
7634 3 0.204821 0.0436853 0.641713
15893 3 0.215854 0.0316416 0.663393
7635 1 0.199494 0.043359 0.648366
6286 1 0.197164 0.0427709 0.650946
6288 1 0.193327 0.0453439 0.664817
6287 3 0.193632 0.0411371 0.657366
11654 3 0.227828 0.0359203 0.64447
13335 1 0.251737 0.0313493 0.647611
10368 1 0.225844 0.0457889 0.648412
11653 1 0.226062 0.043114 0.647232
10367 3 0.224674 0.0529905 0.650881
16129 1 0.247052 0.0487681 0.653622
16130 3 0.247901 0.0561634 0.65769
13334 3 0.247756 0.038596 0.649574
13333 1 0.247035 0.0461274 0.652163
1727 3 0.277327 0.0376024 0.641283
1728 1 0.273285 0.0396254 0.648682
4585 1 0.271839 0.0401832 0.651472
4586 3 0.269765 0.0417355 0.658828
4587 1 0.265342 0.0463778 0.663716
21293 3 0.281438 0.0575775 0.663757
13186 1 0.27082 0.050274 0.644012
13187 3 0.266809 0.0570127 0.64279
17689 1 0.293457 0.0327732 0.660118
15483 1 0.295414 0.0353594 0.660045
15482 3 0.298859 0.0424251 0.658638
15481 1 0.300421 0.0494698 0.656964
8561 3 0.123253 0.0798901 0.654632
8560 1 0.124164 0.0729037 0.653904
8562 1 0.122177 0.0871724 0.656162
15198 1 0.141139 0.060719 0.645587
4153 1 0.132671 0.0866555 0.638602
4154 3 0.138418 0.0832186 0.641962
5803 1 0.152028 0.075156 0.643684
5804 3 0.15789 0.0775426 0.640388
14406 1 0.142429 0.0608443 0.648022
14405 3 0.147795 0.0627822 0.654694
14404 1 0.145356 0.060575 0.661929
4155 1 0.14181 0.0852358 0.649348
14443 1 0.143096 0.0861062 0.652283
14444 3 0.147077 0.0880944 0.659861
7650 1 0.183519 0.0637348 0.66522
2421 1 0.183909 0.0623892 0.662231
14662 1 0.188428 0.0604328 0.645095
3532 1 0.163817 0.0666537 0.654936
3533 3 0.167561 0.0729103 0.658939
16393 1 0.182647 0.0827904 0.651897
16394 3 0.180208 0.0899908 0.651955
3534 1 0.170014 0.0787804 0.663167
5368 1 0.170437 0.0811541 0.665657
14663 3 0.192775 0.0611798 0.638585
6528 1 0.204173 0.0635094 0.637335
14664 1 0.201179 0.0627719 0.637228
18897 1 0.220089 0.0723476 0.6403
6526 1 0.218091 0.0702394 0.640516
6527 3 0.21158 0.0658871 0.639976
534 1 0.208048 0.0744623 0.664029
1863 1 0.207834 0.0722608 0.665769
532 1 0.202242 0.0816023 0.651172
10159 1 0.200725 0.081832 0.64873
533 3 0.207511 0.0800117 0.657965
10160 3 0.196629 0.0826003 0.642153
10161 1 0.196615 0.0902016 0.643531
15051 1 0.243463 0.0628484 0.640797
10366 1 0.227217 0.0602982 0.654133
21525 1 0.227377 0.0629938 0.655767
16131 1 0.248002 0.0617222 0.6619
18896 3 0.226068 0.0770296 0.639226
21524 3 0.227983 0.0690783 0.659789
18507 1 0.248166 0.0636377 0.664005
18895 1 0.233697 0.080757 0.641971
21523 1 0.230409 0.0766698 0.663117
13225 1 0.235968 0.0815126 0.643955
13227 1 0.246883 0.0851122 0.654317
20212 1 0.248785 0.0871051 0.656004
13226 3 0.242421 0.0812793 0.649031
160 1 0.223161 0.0874143 0.651639
3405 1 0.230737 0.0794144 0.664637
12067 1 0.268547 0.0837164 0.646874
1263 1 0.261019 0.0648008 0.637548
13188 1 0.262431 0.0625641 0.638749
12069 1 0.264206 0.0743535 0.658179
21292 1 0.284755 0.0648593 0.664448
19518 1 0.285259 0.0676595 0.664533
12068 3 0.268623 0.0782703 0.652624
17995 1 0.268081 0.0860575 0.644274
12824 3 0.294739 0.0810707 0.640123
19517 3 0.287958 0.075912 0.665853
12823 1 0.292626 0.0866998 0.644044
14874 1 0.291826 0.0893756 0.646008
14445 1 0.152567 0.091195 0.666475
12797 3 0.151903 0.118006 0.660317
12798 1 0.148207 0.120442 0.653393
16395 1 0.173977 0.0939079 0.654029
20010 1 0.171718 0.095474 0.654394
15851 3 0.161726 0.113786 0.640958
15852 1 0.164011 0.120142 0.637221
15850 1 0.161821 0.10915 0.64689
20008 1 0.16254 0.106445 0.649145
20009 3 0.165431 0.100388 0.654288
11334 1 0.190532 0.108281 0.645515
11333 3 0.186576 0.115243 0.646561
11332 1 0.182696 0.119931 0.651461
8949 1 0.192283 0.105836 0.645134
8948 3 0.19832 0.100341 0.645363
8947 1 0.197049 0.0936597 0.643973
161 3 0.221514 0.0952045 0.653517
11320 1 0.218378 0.11641 0.657427
162 1 0.218947 0.0994048 0.660859
13938 1 0.218134 0.0999671 0.663334
20213 3 0.253597 0.0920369 0.659479
11321 3 0.226117 0.117128 0.657118
11322 1 0.2339 0.119606 0.656317
20697 1 0.237238 0.119865 0.655759
20214 1 0.251186 0.0988859 0.664164
17996 3 0.269295 0.0908627 0.638226
14873 3 0.289943 0.0943386 0.651962
11574 1 0.289721 0.101531 0.660453
14872 1 0.28972 0.0997449 0.657912
15620 3 0.17566 0.125726 0.659955
15619 1 0.181143 0.12156 0.653583
17328 1 0.203474 0.126732 0.659593
17061 1 0.212233 0.146683 0.666025
17060 3 0.204812 0.148186 0.663161
17327 3 0.205475 0.122038 0.66534
17059 1 0.199583 0.143453 0.666031
7108 1 0.224705 0.13565 0.637945
7109 3 0.226902 0.138291 0.645129
7110 1 0.229165 0.13894 0.652965
20696 3 0.245453 0.120626 0.655257
20695 1 0.25208 0.121908 0.659047
10402 1 0.258285 0.121522 0.659057
3743 3 0.283976 0.128824 0.664645
10404 1 0.274901 0.125131 0.660009
10403 2 0.266866 0.123458 0.659682
3744 1 0.277511 0.126038 0.660907
9084 1 0.290221 0.133125 0.642717
20862 1 0.184454 0.167629 0.663132
20861 3 0.183559 0.16066 0.662018
20042 3 0.259724 0.156628 0.663122
19813 1 0.26467 0.171272 0.641314
19814 2 0.265969 0.165427 0.646831
20043 1 0.261655 0.160394 0.655917
19815 1 0.263107 0.161548 0.65323
2947 1 0.0932198 0.0199683 0.686025
7484 3 0.116979 0.00445979 0.677313
2949 1 0.103816 0.0232143 0.676486
2948 2 0.0983966 0.0201194 0.680125
302 3 0.124795 0.0271434 0.6916
15023 3 0.113185 0.0271623 0.669241
15022 1 0.106442 0.0241348 0.674571
7483 1 0.123921 0.00789551 0.675867
7908 1 0.126258 0.00891616 0.675254
15024 1 0.121165 0.029366 0.669599
7907 3 0.13229 0.0122489 0.673099
13531 1 0.151339 0.016579 0.68754
13532 3 0.157142 0.0226088 0.685599
17284 1 0.149389 0.0147745 0.688275
17285 3 0.142331 0.0108827 0.691752
301 1 0.127974 0.0212807 0.689799
88 1 0.180213 0.00197788 0.691875
19267 1 0.164122 0.00451667 0.685011
19268 3 0.165917 0.00576192 0.677867
14145 1 0.166694 0.0119275 0.670061
19269 1 0.166467 0.00993648 0.6724
12927 1 0.176881 0.0139679 0.684744
12926 3 0.184552 0.0161776 0.6821
3810 1 0.198742 0.00741064 0.685833
12925 1 0.191446 0.0201935 0.681201
20961 1 0.19416 0.0214484 0.681707
20960 3 0.200843 0.0239726 0.683453
20959 1 0.19966 0.0291926 0.688848
3809 3 0.202291 0.000898652 0.690431
3796 1 0.19503 0.0163328 0.6718
20470 1 0.251934 0.00164444 0.675755
2741 3 0.224792 0.0149279 0.673684
2742 1 0.224217 0.0216368 0.676734
10261 1 0.223919 0.0239016 0.678652
6738 1 0.225298 0.00610631 0.679597
2740 1 0.225407 0.00842919 0.677725
9442 1 0.248666 0.022403 0.670364
21249 1 0.249391 0.02423 0.672439
10262 3 0.224061 0.0293544 0.684157
8732 3 0.242732 0.0174363 0.692134
8731 1 0.250156 0.0162742 0.688307
20471 3 0.243464 0.000187323 0.67464
21376 1 0.254771 0.0022198 0.675896
21378 1 0.270703 0.00281077 0.673993
4635 1 0.273389 0.00209753 0.67352
18452 3 0.264599 0.0210284 0.6906
18453 1 0.270115 0.0229322 0.684274
16663 1 0.272262 0.0244593 0.682167
16664 3 0.27722 0.0264917 0.676536
21377 3 0.262649 0.00538649 0.675866
4193 3 0.284889 0.00795624 0.695001
4192 1 0.284417 0.0158753 0.696214
10639 1 0.283742 0.018852 0.696838
20680 1 0.289373 0.00656819 0.674022
20681 3 0.296417 0.0120896 0.676627
20682 1 0.295187 0.0169915 0.682741
4633 1 0.286806 0.00511923 0.673423
13838 3 0.110349 0.0442843 0.683122
18414 1 0.1239 0.0301555 0.670028
13837 1 0.116336 0.0451557 0.687266
1735 1 0.118638 0.0453784 0.689193
1736 3 0.125084 0.0469038 0.6941
13839 1 0.105022 0.0488454 0.679972
16613 3 0.140924 0.0597022 0.671849
18413 3 0.130276 0.0342649 0.672371
18412 1 0.135589 0.0359523 0.677918
18684 1 0.137441 0.0369521 0.679831
16612 1 0.1472 0.0595701 0.673661
18683 3 0.143037 0.0387805 0.685787
18682 1 0.143721 0.042164 0.691855
21226 1 0.144153 0.0428673 0.694208
6721 1 0.150125 0.0588597 0.674297
6722 3 0.156529 0.0562319 0.676203
6723 1 0.158522 0.0492426 0.679095
13050 1 0.12869 0.0532942 0.668337
13533 1 0.160231 0.0307255 0.683661
1983 1 0.161527 0.0337156 0.683106
1982 3 0.163708 0.0411913 0.681165
1981 1 0.159686 0.0470014 0.679807
7720 1 0.186485 0.0550331 0.675514
7721 3 0.188658 0.0470816 0.677219
11412 1 0.174763 0.0558247 0.69415
2683 1 0.173757 0.0539925 0.695981
7722 1 0.186769 0.0420752 0.684068
19723 1 0.186218 0.0401507 0.686379
19724 3 0.186209 0.0348539 0.693387
15894 1 0.214404 0.0374661 0.667453
1861 1 0.21073 0.0590352 0.670518
9392 3 0.217665 0.0486444 0.681651
21087 1 0.210408 0.0473489 0.691356
9391 1 0.212548 0.04781 0.688516
11316 1 0.236725 0.0567122 0.669628
11315 3 0.231878 0.0500346 0.670827
11314 1 0.225711 0.0502271 0.675214
9393 1 0.22339 0.0498681 0.677031
10470 1 0.226763 0.0351283 0.693963
10263 1 0.225827 0.0334988 0.691418
4980 1 0.251 0.0539187 0.693817
3052 1 0.249262 0.0553177 0.692344
3053 3 0.245672 0.0588385 0.686435
21248 3 0.250852 0.0304579 0.677636
4708 1 0.283093 0.0499395 0.671148
21294 1 0.282748 0.0518353 0.669204
4709 3 0.284429 0.044122 0.676222
21247 1 0.25496 0.0368503 0.677485
2999 3 0.260734 0.0473718 0.677123
2998 1 0.256557 0.0393346 0.677394
3000 1 0.264727 0.0543176 0.676351
4710 1 0.281035 0.0359823 0.676371
15081 1 0.265602 0.0572052 0.676574
16665 1 0.279734 0.0332928 0.675975
20701 1 0.311261 0.0301572 0.681091
20702 3 0.317441 0.0357105 0.679904
15809 2 0.315217 0.055203 0.678735
15808 1 0.315709 0.0475785 0.6783
20703 1 0.315728 0.0441964 0.678808
11890 1 0.117804 0.0820351 0.684509
3078 1 0.114837 0.0821126 0.685577
3076 1 0.102746 0.0829849 0.694063
3077 2 0.107112 0.0815829 0.688275
11891 3 0.125473 0.0821949 0.682195
1761 1 0.152872 0.0722383 0.686032
7803 1 0.1357 0.0625677 0.686011
7802 3 0.13609 0.0654875 0.693607
11892 1 0.132688 0.0861941 0.682443
6840 1 0.135114 0.0872779 0.682308
7649 3 0.183818 0.0683668 0.671672
11411 3 0.17844 0.0610771 0.688296
11410 1 0.180124 0.0660984 0.681189
7648 1 0.181386 0.0670346 0.679122
1760 3 0.160738 0.0729006 0.685716
1759 1 0.1678 0.0697677 0.68423
5369 3 0.171446 0.0856427 0.672492
5370 1 0.176321 0.0854136 0.678578
6567 1 0.178319 0.0854576 0.680786
6566 3 0.18212 0.0839918 0.686944
6565 1 0.186872 0.0844993 0.693496
1862 3 0.209043 0.0658067 0.669156
10683 1 0.22242 0.0709763 0.688546
10682 3 0.216065 0.0709413 0.694165
10681 1 0.208254 0.0730356 0.696672
10779 1 0.237074 0.06492 0.683111
3054 1 0.239678 0.0632301 0.683973
10778 3 0.230742 0.0681105 0.680379
10777 1 0.225118 0.0704361 0.686616
3404 3 0.230744 0.0869214 0.668929
3403 1 0.229911 0.0871529 0.675975
18506 3 0.249002 0.0701153 0.669724
3603 1 0.229002 0.0883512 0.679263
3545 3 0.246008 0.0813442 0.68677
18505 1 0.247514 0.0751621 0.677034
3546 1 0.24701 0.0770542 0.679851
3544 1 0.241816 0.0777502 0.693471
18112 1 0.240829 0.0763706 0.695218
11986 1 0.282382 0.0844845 0.66789
19516 1 0.283834 0.0823649 0.667552
11987 3 0.276923 0.0900884 0.66787
15080 3 0.268023 0.0652199 0.678249
13768 1 0.275482 0.0720802 0.683228
13769 3 0.278951 0.0781178 0.68674
15079 1 0.273675 0.0705629 0.681616
9471 1 0.257833 0.065226 0.689766
9470 3 0.261387 0.0707208 0.695706
6615 1 0.291402 0.0614705 0.679327
6614 3 0.293901 0.0636538 0.686843
19341 1 0.298596 0.0666125 0.695932
6613 1 0.29701 0.0660448 0.693605
13918 1 0.312484 0.0650155 0.67326
15810 1 0.313243 0.0623954 0.674838
13770 1 0.28694 0.0815351 0.687234
1949 3 0.313669 0.0893528 0.673856
13920 1 0.313362 0.0797304 0.670708
1948 1 0.313562 0.0825149 0.671154
13919 3 0.311454 0.0715752 0.668954
12796 1 0.152294 0.113145 0.66702
7980 1 0.152243 0.110974 0.668956
7979 3 0.151762 0.103929 0.674781
7978 1 0.147216 0.0993775 0.678516
6838 1 0.145398 0.0972226 0.679883
6839 3 0.141618 0.091628 0.682268
2647 1 0.158904 0.11002 0.688459
13625 3 0.181521 0.10653 0.672036
2648 3 0.166721 0.106885 0.690453
543 1 0.189567 0.0990935 0.672475
16677 1 0.176582 0.105825 0.692818
16676 3 0.183703 0.102236 0.692097
2649 1 0.173771 0.106573 0.692811
13624 1 0.1869 0.101144 0.67176
13626 1 0.185529 0.113162 0.675301
6765 1 0.186492 0.115384 0.676375
16675 1 0.189114 0.0983057 0.695658
2597 3 0.204712 0.0915846 0.691476
13936 1 0.211119 0.107376 0.673893
542 3 0.196505 0.0934038 0.674539
541 1 0.19862 0.0922596 0.680832
2596 1 0.200451 0.0917618 0.684411
4505 3 0.208191 0.11861 0.683157
4504 1 0.21018 0.115233 0.690526
18028 1 0.211487 0.114203 0.693256
13937 3 0.215277 0.101598 0.670138
3601 1 0.228337 0.0922548 0.69342
7254 1 0.229 0.092937 0.696683
3602 3 0.226898 0.0904574 0.685858
6026 3 0.243715 0.103497 0.678622
10653 1 0.239419 0.112456 0.684274
10652 3 0.234921 0.117272 0.688527
6025 1 0.240749 0.110156 0.682678
6027 1 0.251816 0.0992226 0.677284
13402 1 0.251849 0.120321 0.686011
163 1 0.254646 0.0978089 0.677283
11988 1 0.269974 0.0912432 0.672302
165 1 0.267668 0.0919274 0.67342
164 3 0.26152 0.0944843 0.677179
1749 1 0.280302 0.11166 0.687459
11731 1 0.278127 0.110089 0.689186
1748 3 0.285571 0.114435 0.683232
11732 3 0.272491 0.106516 0.694595
11573 3 0.28973 0.105438 0.667439
1950 1 0.312463 0.0971406 0.672274
11572 1 0.288352 0.108651 0.674069
1747 1 0.287797 0.110345 0.676611
6764 3 0.188877 0.121726 0.679457
9728 3 0.170351 0.131707 0.677104
15621 1 0.173772 0.129055 0.667043
9729 1 0.17133 0.131069 0.685524
8935 1 0.171662 0.130963 0.688719
9727 1 0.17297 0.130196 0.670054
1137 1 0.186397 0.145902 0.691414
12616 1 0.187959 0.144877 0.693743
6763 1 0.189564 0.128863 0.675534
10039 1 0.189606 0.131418 0.673336
1136 3 0.183178 0.150573 0.685105
10860 1 0.215479 0.146159 0.667129
4506 1 0.207055 0.120931 0.675463
17326 1 0.20686 0.121578 0.672937
12521 3 0.208241 0.13989 0.682682
10041 1 0.197401 0.14214 0.666997
10040 3 0.190852 0.137672 0.668677
19381 1 0.218634 0.135157 0.682317
12520 1 0.21552 0.13643 0.682035
12522 1 0.205314 0.145806 0.679006
10651 1 0.231808 0.123256 0.687003
19383 1 0.230248 0.125735 0.686134
19382 3 0.225583 0.131459 0.68456
13403 3 0.253842 0.12798 0.685395
10859 3 0.22251 0.144666 0.66905
10858 1 0.227912 0.14549 0.674587
13404 1 0.255074 0.135495 0.682998
13231 1 0.256054 0.13818 0.681809
13232 3 0.258973 0.145782 0.6789
13233 1 0.258785 0.149898 0.672045
3742 1 0.280321 0.133527 0.66976
20860 1 0.184283 0.15514 0.668459
15789 1 0.176585 0.176417 0.684838
15787 1 0.178178 0.159646 0.684388
1135 1 0.179036 0.156768 0.684777
15788 2 0.17818 0.167878 0.681945
2157 1 0.240599 0.153119 0.69622
2156 3 0.241037 0.160675 0.691403
2155 1 0.244327 0.168329 0.690389
3268 1 0.245594 0.1707 0.690758
3269 2 0.250181 0.178265 0.692496
20041 1 0.258696 0.151848 0.669175
3270 1 0.255405 0.179769 0.696787
5576 3 0.138638 0.00225077 0.725782
6701 3 0.131516 0.00257679 0.702336
6702 1 0.136145 0.00696134 0.698897
17286 1 0.137678 0.00848588 0.697332
13894 1 0.143141 0.0213701 0.714588
12757 1 0.146367 0.0207946 0.714816
13895 3 0.13492 0.0220809 0.714712
12758 3 0.154554 0.0201499 0.714165
12759 1 0.158856 0.0238927 0.707882
5577 1 0.134012 0.00215561 0.718316
13896 1 0.129037 0.0211478 0.721529
12669 1 0.189647 0.00362687 0.715783
15509 3 0.163713 0.00464375 0.700376
15510 1 0.170791 0.00879043 0.700329
3561 1 0.187086 0.0265595 0.699453
19725 1 0.186935 0.0285584 0.697741
12418 1 0.160951 0.0256496 0.706356
12806 3 0.170936 0.00353744 0.721997
3560 3 0.187601 0.0196807 0.703375
12419 3 0.166228 0.0300704 0.702639
3559 1 0.190408 0.0124154 0.704442
15508 1 0.159279 0.00440016 0.706555
12668 3 0.196801 0.00476398 0.71849
12667 1 0.204758 0.00531692 0.721293
8089 1 0.207843 0.019109 0.698324
8090 3 0.212731 0.0235067 0.702209
10684 1 0.207973 0.00656473 0.72169
8091 1 0.21668 0.0261423 0.707994
2202 1 0.217409 0.0268754 0.710096
2201 3 0.219012 0.0299062 0.71637
10685 3 0.215793 0.00928631 0.722868
8733 1 0.238731 0.0162018 0.697562
7443 1 0.237338 0.015121 0.699372
7442 3 0.23356 0.0140087 0.704506
7441 1 0.227303 0.0138959 0.708893
20966 3 0.253503 0.0126593 0.723749
19808 3 0.253471 0.0264092 0.706357
11741 3 0.234658 0.0131561 0.726684
10686 1 0.224265 0.0112875 0.724736
11742 1 0.227465 0.0117246 0.725324
11740 1 0.242263 0.0126918 0.724976
20965 1 0.245969 0.0126767 0.724388
147 1 0.263452 0.00399239 0.703427
8341 1 0.261803 0.00177793 0.700934
8456 3 0.284792 0.0111531 0.718055
18451 1 0.259562 0.0224496 0.697503
19807 1 0.257722 0.023471 0.699768
146 3 0.267806 0.00864202 0.707453
145 1 0.275021 0.0107503 0.711703
20967 1 0.260399 0.0158911 0.726105
8455 1 0.277379 0.0112445 0.713438
10640 3 0.283836 0.0262288 0.697749
18738 1 0.263117 0.017152 0.727263
8457 1 0.287333 0.00710103 0.725103
14554 1 0.288971 0.00512782 0.727011
4194 1 0.287395 0.00272772 0.699983
4834 1 0.28816 0.000765537 0.702038
303 1 0.122041 0.0328223 0.697574
1737 1 0.127222 0.0535623 0.698551
21227 3 0.146679 0.0440928 0.701847
12345 1 0.151282 0.0430325 0.711473
21228 1 0.150279 0.0429305 0.708315
12344 3 0.154063 0.0430412 0.718453
12343 1 0.15303 0.039629 0.724804
16384 1 0.178426 0.0369935 0.724313
15255 1 0.178509 0.0395045 0.722869
2685 1 0.16932 0.0408473 0.70158
2684 3 0.171713 0.0484808 0.700199
12420 1 0.168412 0.0376186 0.701387
15254 3 0.178364 0.0468108 0.719632
15253 1 0.18025 0.0542947 0.717152
21108 1 0.180552 0.0577126 0.71609
8112 1 0.160874 0.0585713 0.703736
21085 1 0.199327 0.0508627 0.698689
21086 3 0.205602 0.0462703 0.697717
19354 1 0.203761 0.0493523 0.716452
3442 1 0.202304 0.0467687 0.717034
18697 1 0.198612 0.0320343 0.724263
3444 1 0.198367 0.0343305 0.722722
3443 3 0.198805 0.0399692 0.717889
19355 3 0.208157 0.0553027 0.715611
10469 3 0.229805 0.0381781 0.700717
2200 1 0.222483 0.0311834 0.722773
13500 1 0.223268 0.0317614 0.725709
10468 1 0.231883 0.0457557 0.702303
11980 1 0.232571 0.0480876 0.702925
11981 3 0.23589 0.054623 0.707262
19809 1 0.248232 0.0307214 0.711306
20946 1 0.24665 0.0322373 0.712711
20945 3 0.241492 0.0363959 0.718187
20944 1 0.244435 0.0384211 0.725759
13607 3 0.243589 0.0582903 0.727059
4979 3 0.255805 0.0482567 0.698055
4978 1 0.263468 0.045792 0.698249
18081 1 0.266188 0.0453754 0.698019
10641 1 0.281096 0.0337427 0.697809
18080 3 0.273974 0.0418404 0.698183
18079 1 0.279422 0.0364513 0.698126
18999 1 0.266801 0.0432511 0.723556
18998 3 0.265483 0.036922 0.719269
18997 1 0.258603 0.0348274 0.718561
18386 3 0.275962 0.0535651 0.714552
18387 1 0.269071 0.0580963 0.716613
18385 1 0.283219 0.0510623 0.712548
15373 1 0.285743 0.049865 0.711188
15374 3 0.292214 0.0463821 0.707041
15375 1 0.295609 0.0408218 0.702774
7801 1 0.138473 0.0699772 0.700386
10507 1 0.139597 0.0716836 0.702343
10508 3 0.141374 0.0752434 0.708596
17295 1 0.157248 0.071721 0.715952
10509 1 0.147188 0.0770222 0.713216
17293 1 0.149202 0.0771156 0.714882
17294 3 0.155497 0.0782348 0.71853
8110 1 0.158017 0.0690514 0.714136
8111 3 0.159628 0.0632614 0.709711