ITEM: TIMESTEP
0
ITEM: NUMBER OF ATOMS
10320
ITEM: BOX BOUNDS pp pp pp
0.0000000000000000e+00 5.0000000000000000e+01
0.0000000000000000e+00 5.0000000000000000e+01
0.0000000000000000e+00 5.0000000000000000e+01
ITEM: ATOMS id type 
1 1 
2 3 
3 1 
10 1 
11 2 
12 1 
16 1 
17 2 
18 1 
61 1 
62 3 
63 1 
64 1 
65 3 
66 1 
67 1 
68 2 
69 1 
70 1 
71 2 
72 1 
79 1 
80 3 
81 1 
121 1 
122 2 
123 1 
124 1 
125 2 
126 1 
127 1 
128 3 
129 1 
130 1 
131 2 
132 1 
142 1 
143 3 
144 1 
148 1 
149 3 
150 1 
181 1 
182 2 
183 1 
196 1 
197 2 
198 1 
202 1 
203 3 
204 1 
244 1 
245 2 
246 1 
250 1 
251 3 
252 1 
253 1 
254 2 
255 1 
262 1 
263 2 
264 1 
265 1 
266 2 
267 1 
268 1 
269 2 
270 1 
316 1 
317 2 
318 1 
319 1 
320 2 
321 1 
328 1 
329 3 
330 1 
361 1 
362 3 
363 1 
364 1 
365 3 
366 1 
373 1 
374 3 
375 1 
379 1 
380 2 
381 1 
388 1 
389 2 
390 1 
436 1 
437 3 
438 1 
442 1 
443 3 
444 1 
448 1 
449 2 
450 1 
481 1 
482 3 
483 1 
484 1 
485 2 
486 1 
490 1 
491 2 
492 1 
493 1 
494 3 
495 1 
499 1 
500 3 
501 1 
505 1 
506 3 
507 1 
508 1 
509 2 
510 1 
1141 1 
1142 2 
1143 1 
1144 1 
1145 3 
1146 1 
1147 1 
1148 3 
1149 1 
1153 1 
1154 3 
1155 1 
1159 1 
1160 3 
1161 1 
1168 1 
1169 2 
1170 1 
1207 1 
1208 2 
1209 1 
1210 1 
1211 3 
1212 1 
1216 1 
1217 3 
1218 1 
1219 1 
1220 2 
1221 1 
1228 1 
1229 3 
1230 1 
1267 1 
1268 2 
1269 1 
1327 1 
1328 3 
1329 1 
1330 1 
1331 2 
1332 1 
1333 1 
1334 3 
1335 1 
1342 1 
1343 2 
1344 1 
1345 1 
1346 3 
1347 1 
1381 1 
1382 2 
1383 1 
1384 1 
1385 3 
1386 1 
1387 1 
1388 2 
1389 1 
1390 1 
1391 3 
1392 1 
1402 1 
1403 3 
1404 1 
1405 1 
1406 2 
1407 1 
1441 1 
1442 2 
1443 1 
1447 1 
1448 2 
1449 1 
1456 1 
1457 3 
1458 1 
1462 1 
1463 2 
1464 1 
1468 1 
1469 2 
1470 1 
1501 1 
1502 3 
1503 1 
1507 1 
1508 3 
1509 1 
1519 1 
1520 2 
1521 1 
1522 1 
1523 2 
1524 1 
1561 1 
1562 2 
1563 1 
1567 1 
1568 2 
1569 1 
1570 1 
1571 2 
1572 1 
1579 1 
1580 3 
1581 1 
1582 1 
1583 3 
1584 1 
1627 1 
1628 3 
1629 1 
1642 1 
1643 3 
1644 1 
1645 1 
1646 2 
1647 1 
1648 1 
1649 2 
1650 1 
2221 1 
2222 3 
2223 1 
2224 1 
2225 3 
2226 1 
2230 1 
2231 3 
2232 1 
2233 1 
2234 2 
2235 1 
2239 1 
2240 3 
2241 1 
2248 1 
2249 2 
2250 1 
2284 1 
2285 2 
2286 1 
2287 1 
2288 2 
2289 1 
2290 1 
2291 3 
2292 1 
2293 1 
2294 2 
2295 1 
2305 1 
2306 3 
2307 1 
2308 1 
2309 2 
2310 1 
2341 1 
2342 2 
2343 1 
2344 1 
2345 2 
2346 1 
2350 1 
2351 2 
2352 1 
2353 1 
2354 2 
2355 1 
2356 1 
2357 2 
2358 1 
2359 1 
2360 3 
2361 1 
2401 1 
2402 3 
2403 1 
2410 1 
2411 2 
2412 1 
2416 1 
2417 2 
2418 1 
2422 1 
2423 3 
2424 1 
2461 1 
2462 3 
2463 1 
2467 1 
2468 3 
2469 1 
2470 1 
2471 3 
2472 1 
2473 1 
2474 2 
2475 1 
2476 1 
2477 3 
2478 1 
2485 1 
2486 2 
2487 1 
2527 1 
2528 2 
2529 1 
2536 1 
2537 3 
2538 1 
2539 1 
2540 2 
2541 1 
2545 1 
2546 2 
2547 1 
2548 1 
2549 2 
2550 1 
2605 1 
2606 2 
2607 1 
3184 1 
3185 3 
3186 1 
3199 1 
3200 3 
3201 1 
3241 1 
3242 2 
3243 1 
3247 1 
3248 2 
3249 1 
3262 1 
3263 2 
3264 1 
3304 1 
3305 3 
3306 1 
3313 1 
3314 2 
3315 1 
3319 1 
3320 2 
3321 1 
3322 1 
3323 3 
3324 1 
3361 1 
3362 2 
3363 1 
3367 1 
3368 3 
3369 1 
3376 1 
3377 3 
3378 1 
3385 1 
3386 2 
3387 1 
3388 1 
3389 3 
3390 1 
3421 1 
3422 2 
3423 1 
3424 1 
3425 3 
3426 1 
3427 1 
3428 2 
3429 1 
3430 1 
3431 3 
3432 1 
3433 1 
3434 3 
3435 1 
3445 1 
3446 2 
3447 1 
3481 1 
3482 2 
3483 1 
3487 1 
3488 3 
3489 1 
3493 1 
3494 3 
3495 1 
3541 1 
3542 3 
3543 1 
3550 1 
3551 2 
3552 1 
3553 1 
3554 2 
3555 1 
3556 1 
3557 3 
3558 1 
3562 1 
3563 3 
3564 1 
3565 1 
3566 2 
3567 1 
3568 1 
3569 2 
3570 1 
3604 1 
3605 2 
3606 1 
3607 1 
3608 3 
3609 1 
3613 1 
3614 2 
3615 1 
3616 1 
3617 2 
3618 1 
3619 1 
3620 2 
3621 1 
3661 1 
3662 3 
3663 1 
3670 1 
3671 3 
3672 1 
3676 1 
3677 2 
3678 1 
3679 1 
3680 2 
3681 1 
3688 1 
3689 3 
3690 1 
3724 1 
3725 2 
3726 1 
3727 1 
3728 2 
3729 1 
3730 1 
3731 2 
3732 1 
3748 1 
3749 3 
3750 1 
4324 1 
4325 3 
4326 1 
4327 1 
4328 2 
4329 1 
4330 1 
4331 2 
4332 1 
4333 1 
4334 3 
4335 1 
4336 1 
4337 2 
4338 1 
4339 1 
4340 2 
4341 1 
4345 1 
4346 2 
4347 1 
4381 1 
4382 3 
4383 1 
4384 1 
4385 2 
4386 1 
4393 1 
4394 3 
4395 1 
4402 1 
4403 2 
4404 1 
4405 1 
4406 2 
4407 1 
4450 1 
4451 3 
4452 1 
4453 1 
4454 2 
4455 1 
4456 1 
4457 2 
4458 1 
4459 1 
4460 3 
4461 1 
4462 1 
4463 2 
4464 1 
4465 1 
4466 3 
4467 1 
4507 1 
4508 3 
4509 1 
4513 1 
4514 3 
4515 1 
4516 1 
4517 2 
4518 1 
4519 1 
4520 3 
4521 1 
4528 1 
4529 2 
4530 1 
4561 1 
4562 2 
4563 1 
4573 1 
4574 2 
4575 1 
4576 1 
4577 2 
4578 1 
4588 1 
4589 2 
4590 1 
4624 1 
4625 2 
4626 1 
4627 1 
4628 2 
4629 1 
4639 1 
4640 2 
4641 1 
4642 1 
4643 2 
4644 1 
4645 1 
4646 2 
4647 1 
4648 1 
4649 2 
4650 1 
4681 1 
4682 2 
4683 1 
4693 1 
4694 3 
4695 1 
4696 1 
4697 3 
4698 1 
4699 1 
4700 3 
4701 1 
4702 1 
4703 2 
4704 1 
4741 1 
4742 3 
4743 1 
4744 1 
4745 3 
4746 1 
4762 1 
4763 2 
4764 1 
4765 1 
4766 3 
4767 1 
4801 1 
4802 2 
4803 1 
4804 1 
4805 3 
4806 1 
4807 1 
4808 2 
4809 1 
4810 1 
4811 3 
4812 1 
4813 1 
4814 3 
4815 1 
4819 1 
4820 3 
4821 1 
4825 1 
4826 3 
4827 1 
4828 1 
4829 3 
4830 1 
4861 1 
4862 3 
4863 1 
4864 1 
4865 2 
4866 1 
4867 1 
4868 3 
4869 1 
4870 1 
4871 2 
4872 1 
4873 1 
4874 3 
4875 1 
4879 1 
4880 3 
4881 1 
4882 1 
4883 2 
4884 1 
4885 1 
4886 3 
4887 1 
5470 1 
5471 2 
5472 1 
5473 1 
5474 2 
5475 1 
5476 1 
5477 2 
5478 1 
5521 1 
5522 2 
5523 1 
5524 1 
5525 3 
5526 1 
5527 1 
5528 2 
5529 1 
5530 1 
5531 2 
5532 1 
5533 1 
5534 3 
5535 1 
5536 1 
5537 2 
5538 1 
5539 1 
5540 3 
5541 1 
5548 1 
5549 3 
5550 1 
5596 1 
5597 3 
5598 1 
5599 1 
5600 3 
5601 1 
5602 1 
5603 3 
5604 1 
5644 1 
5645 3 
5646 1 
5647 1 
5648 3 
5649 1 
5650 1 
5651 3 
5652 1 
5659 1 
5660 2 
5661 1 
5665 1 
5666 3 
5667 1 
5701 1 
5702 2 
5703 1 
5710 1 
5711 3 
5712 1 
5713 1 
5714 3 
5715 1 
5716 1 
5717 2 
5718 1 
5728 1 
5729 2 
5730 1 
5761 1 
5762 3 
5763 1 
5764 1 
5765 2 
5766 1 
5770 1 
5771 2 
5772 1 
5773 1 
5774 2 
5775 1 
5824 1 
5825 3 
5826 1 
5830 1 
5831 3 
5832 1 
5833 1 
5834 2 
5835 1 
5839 1 
5840 2 
5841 1 
5848 1 
5849 2 
5850 1 
5902 1 
5903 3 
5904 1 
5905 1 
5906 2 
5907 1 
5950 1 
5951 3 
5952 1 
5953 1 
5954 3 
5955 1 
5962 1 
5963 2 
5964 1 
5968 1 
5969 3 
5970 1 
6001 1 
6002 3 
6003 1 
6004 1 
6005 2 
6006 1 
6013 1 
6014 2 
6015 1 
6019 1 
6020 2 
6021 1 
6028 1 
6029 3 
6030 1 
6661 1 
6662 2 
6663 1 
6667 1 
6668 3 
6669 1 
6673 1 
6674 3 
6675 1 
6676 1 
6677 2 
6678 1 
6679 1 
6680 2 
6681 1 
6682 1 
6683 2 
6684 1 
6688 1 
6689 3 
6690 1 
6724 1 
6725 3 
6726 1 
6727 1 
6728 2 
6729 1 
6739 1 
6740 2 
6741 1 
6742 1 
6743 3 
6744 1 
6745 1 
6746 2 
6747 1 
6748 1 
6749 2 
6750 1 
6787 1 
6788 2 
6789 1 
6790 1 
6791 3 
6792 1 
6793 1 
6794 2 
6795 1 
6796 1 
6797 3 
6798 1 
6802 1 
6803 2 
6804 1 
6808 1 
6809 3 
6810 1 
6844 1 
6845 3 
6846 1 
6850 1 
6851 3 
6852 1 
6859 1 
6860 3 
6861 1 
6865 1 
6866 2 
6867 1 
6868 1 
6869 2 
6870 1 
6904 1 
6905 2 
6906 1 
6907 1 
6908 2 
6909 1 
6913 1 
6914 2 
6915 1 
6916 1 
6917 2 
6918 1 
6919 1 
6920 3 
6921 1 
6961 1 
6962 3 
6963 1 
6964 1 
6965 3 
6966 1 
6973 1 
6974 2 
6975 1 
6979 1 
6980 2 
6981 1 
6985 1 
6986 3 
6987 1 
6988 1 
6989 2 
6990 1 
7027 1 
7028 2 
7029 1 
7030 1 
7031 2 
7032 1 
7039 1 
7040 3 
7041 1 
7045 1 
7046 3 
7047 1 
7084 1 
7085 3 
7086 1 
7087 1 
7088 3 
7089 1 
7090 1 
7091 2 
7092 1 
7093 1 
7094 2 
7095 1 
7096 1 
7097 2 
7098 1 
7141 1 
7142 3 
7143 1 
7144 1 
7145 2 
7146 1 
7156 1 
7157 2 
7158 1 
7159 1 
7160 3 
7161 1 
7162 1 
7163 3 
7164 1 
7165 1 
7166 3 
7167 1 
7204 1 
7205 2 
7206 1 
7213 1 
7214 3 
7215 1 
7216 1 
7217 2 
7218 1 
7222 1 
7223 2 
7224 1 
7225 1 
7226 2 
7227 1 
7741 1 
7742 2 
7743 1 
7744 1 
7745 2 
7746 1 
7747 1 
7748 2 
7749 1 
7750 1 
7751 2 
7752 1 
7753 1 
7754 3 
7755 1 
7756 1 
7757 2 
7758 1 
7762 1 
7763 2 
7764 1 
7765 1 
7766 3 
7767 1 
7807 1 
7808 3 
7809 1 
7813 1 
7814 3 
7815 1 
7816 1 
7817 2 
7818 1 
7825 1 
7826 2 
7827 1 
7828 1 
7829 2 
7830 1 
7864 1 
7865 3 
7866 1 
7870 1 
7871 3 
7872 1 
7873 1 
7874 2 
7875 1 
7876 1 
7877 2 
7878 1 
7879 1 
7880 2 
7881 1 
7921 1 
7922 2 
7923 1 
7936 1 
7937 3 
7938 1 
7942 1 
7943 2 
7944 1 
7987 1 
7988 3 
7989 1 
7999 1 
8000 3 
8001 1 
8002 1 
8003 2 
8004 1 
8008 1 
8009 3 
8010 1 
8053 1 
8054 3 
8055 1 
8056 1 
8057 3 
8058 1 
8059 1 
8060 2 
8061 1 
8068 1 
8069 3 
8070 1 
8101 1 
8102 3 
8103 1 
8104 1 
8105 3 
8106 1 
8107 1 
8108 2 
8109 1 
8113 1 
8114 2 
8115 1 
8116 1 
8117 2 
8118 1 
8119 1 
8120 3 
8121 1 
8122 1 
8123 2 
8124 1 
8125 1 
8126 3 
8127 1 
8167 1 
8168 2 
8169 1 
8170 1 
8171 2 
8172 1 
8182 1 
8183 2 
8184 1 
8188 1 
8189 3 
8190 1 
8227 1 
8228 3 
8229 1 
8230 1 
8231 2 
8232 1 
8233 1 
8234 3 
8235 1 
8236 1 
8237 2 
8238 1 
8245 1 
8246 2 
8247 1 
8248 1 
8249 3 
8250 1 
8281 1 
8282 3 
8283 1 
8287 1 
8288 2 
8289 1 
8290 1 
8291 3 
8292 1 
8293 1 
8294 2 
8295 1 
8299 1 
8300 3 
8301 1 
8302 1 
8303 2 
8304 1 
8881 1 
8882 3 
8883 1 
8884 1 
8885 3 
8886 1 
8887 1 
8888 2 
8889 1 
8890 1 
8891 2 
8892 1 
8899 1 
8900 2 
8901 1 
8905 1 
8906 2 
8907 1 
8941 1 
8942 3 
8943 1 
8956 1 
8957 2 
8958 1 
8962 1 
8963 3 
8964 1 
8968 1 
8969 3 
8970 1 
9004 1 
9005 2 
9006 1 
9007 1 
9008 2 
9009 1 
9013 1 
9014 3 
9015 1 
9019 1 
9020 3 
9021 1 
9028 1 
9029 3 
9030 1 
9067 1 
9068 3 
9069 1 
9070 1 
9071 2 
9072 1 
9073 1 
9074 2 
9075 1 
9079 1 
9080 3 
9081 1 
9121 1 
9122 2 
9123 1 
9124 1 
9125 3 
9126 1 
9133 1 
9134 3 
9135 1 
9142 1 
9143 2 
9144 1 
9145 1 
9146 3 
9147 1 
9190 1 
9191 3 
9192 1 
9196 1 
9197 2 
9198 1 
9199 1 
9200 2 
9201 1 
9208 1 
9209 3 
9210 1 
9241 1 
9242 2 
9243 1 
9244 1 
9245 2 
9246 1 
9247 1 
9248 3 
9249 1 
9259 1 
9260 3 
9261 1 
9301 1 
9302 3 
9303 1 
9310 1 
9311 2 
9312 1 
9313 1 
9314 3 
9315 1 
9328 1 
9329 2 
9330 1 
9961 1 
9962 3 
9963 1 
9976 1 
9977 3 
9978 1 
9979 1 
9980 2 
9981 1 
9982 1 
9983 2 
9984 1 
9985 1 
9986 3 
9987 1 
10021 1 
10022 3 
10023 1 
10024 1 
10025 3 
10026 1 
10030 1 
10031 3 
10032 1 
10033 1 
10034 3 
10035 1 
10042 1 
10043 3 
10044 1 
10081 1 
10082 3 
10083 1 
10090 1 
10091 3 
10092 1 
10093 1 
10094 3 
10095 1 
10099 1 
10100 2 
10101 1 
10102 1 
10103 3 
10104 1 
10144 1 
10145 2 
10146 1 
10153 1 
10154 2 
10155 1 
10156 1 
10157 3 
10158 1 
10168 1 
10169 2 
10170 1 
10204 1 
10205 2 
10206 1 
10207 1 
10208 3 
10209 1 
10222 1 
10223 3 
10224 1 
10225 1 
10226 3 
10227 1 
10228 1 
10229 2 
10230 1 
10264 1 
10265 2 
10266 1 
10273 1 
10274 2 
10275 1 
10276 1 
10277 3 
10278 1 
10279 1 
10280 3 
10281 1 
10285 1 
10286 3 
10287 1 
10321 1 
10322 3 
10323 1 
10324 1 
10325 3 
10326 1 
10327 1 
10328 3 
10329 1 
10330 1 
10331 2 
10332 1 
10336 1 
10337 2 
10338 1 
10339 1 
10340 3 
10341 1 
10342 1 
10343 2 
10344 1 
10390 1 
10391 3 
10392 1 
10393 1 
10394 3 
10395 1 
10396 1 
10397 3 
10398 1 
10399 1 
10400 2 
10401 1 
10441 1 
10442 2 
10443 1 
10456 1 
10457 3 
10458 1 
10510 1 
10511 2 
10512 1 
11116 1 
11117 3 
11118 1 
11128 1 
11129 3 
11130 1 
11164 1 
11165 3 
11166 1 
11170 1 
11171 3 
11172 1 
11173 1 
11174 2 
11175 1 
11185 1 
11186 2 
11187 1 
11236 1 
11237 3 
11238 1 
11248 1 
11249 2 
11250 1 
11284 1 
11285 3 
11286 1 
11290 1 
11291 2 
11292 1 
11302 1 
11303 2 
11304 1 
11341 1 
11342 3 
11343 1 
11344 1 
11345 2 
11346 1 
11356 1 
11357 3 
11358 1 
11359 1 
11360 3 
11361 1 
11362 1 
11363 3 
11364 1 
11368 1 
11369 3 
11370 1 
11401 1 
11402 2 
11403 1 
11404 1 
11405 3 
11406 1 
11416 1 
11417 3 
11418 1 
11419 1 
11420 3 
11421 1 
11422 1 
11423 2 
11424 1 
11467 1 
11468 2 
11469 1 
11470 1 
11471 3 
11472 1 
11482 1 
11483 3 
11484 1 
11485 1 
11486 2 
11487 1 
12064 1 
12065 2 
12066 1 
12070 1 
12071 2 
12072 1 
12073 1 
12074 3 
12075 1 
12076 1 
12077 3 
12078 1 
12082 1 
12083 2 
12084 1 
12085 1 
12086 2 
12087 1 
12088 1 
12089 2 
12090 1 
12124 1 
12125 2 
12126 1 
12127 1 
12128 3 
12129 1 
12130 1 
12131 3 
12132 1 
12139 1 
12140 2 
12141 1 
12142 1 
12143 3 
12144 1 
12181 1 
12182 3 
12183 1 
12184 1 
12185 2 
12186 1 
12190 1 
12191 2 
12192 1 
12193 1 
12194 3 
12195 1 
12205 1 
12206 3 
12207 1 
12244 1 
12245 2 
12246 1 
12247 1 
12248 3 
12249 1 
12253 1 
12254 3 
12255 1 
12259 1 
12260 3 
12261 1 
12262 1 
12263 3 
12264 1 
12265 1 
12266 2 
12267 1 
12268 1 
12269 3 
12270 1 
12301 1 
12302 2 
12303 1 
12307 1 
12308 2 
12309 1 
12310 1 
12311 2 
12312 1 
12316 1 
12317 3 
12318 1 
12364 1 
12365 3 
12366 1 
12367 1 
12368 2 
12369 1 
12370 1 
12371 3 
12372 1 
12385 1 
12386 3 
12387 1 
12424 1 
12425 3 
12426 1 
12427 1 
12428 3 
12429 1 
12430 1 
12431 3 
12432 1 
12436 1 
12437 2 
12438 1 
12439 1 
12440 3 
12441 1 
12442 1 
12443 2 
12444 1 
12445 1 
12446 3 
12447 1 
12448 1 
12449 3 
12450 1 
12484 1 
12485 2 
12486 1 
12487 1 
12488 3 
12489 1 
12505 1 
12506 2 
12507 1 
12547 1 
12548 3 
12549 1 
12553 1 
12554 2 
12555 1 
12556 1 
12557 3 
12558 1 
12568 1 
12569 2 
12570 1 
12604 1 
12605 3 
12606 1 
12610 1 
12611 3 
12612 1 
12625 1 
12626 3 
12627 1 
13153 1 
13154 2 
13155 1 
13165 1 
13166 2 
13167 1 
13201 1 
13202 3 
13203 1 
13204 1 
13205 3 
13206 1 
13213 1 
13214 3 
13215 1 
13219 1 
13220 2 
13221 1 
13222 1 
13223 2 
13224 1 
13261 1 
13262 2 
13263 1 
13264 1 
13265 2 
13266 1 
13267 1 
13268 3 
13269 1 
13270 1 
13271 2 
13272 1 
13276 1 
13277 3 
13278 1 
13285 1 
13286 2 
13287 1 
13321 1 
13322 2 
13323 1 
13330 1 
13331 2 
13332 1 
13345 1 
13346 2 
13347 1 
13384 1 
13385 2 
13386 1 
13393 1 
13394 3 
13395 1 
13399 1 
13400 3 
13401 1 
13405 1 
13406 2 
13407 1 
13444 1 
13445 3 
13446 1 
13456 1 
13457 2 
13458 1 
13462 1 
13463 3 
13464 1 
13501 1 
13502 3 
13503 1 
13513 1 
13514 3 
13515 1 
13522 1 
13523 2 
13524 1 
13528 1 
13529 2 
13530 1 
13567 1 
13568 2 
13569 1 
13570 1 
13571 3 
13572 1 
13576 1 
13577 2 
13578 1 
13579 1 
13580 2 
13581 1 
13588 1 
13589 3 
13590 1 
14221 1 
14222 2 
14223 1 
14224 1 
14225 3 
14226 1 
14236 1 
14237 2 
14238 1 
14239 1 
14240 3 
14241 1 
14242 1 
14243 2 
14244 1 
14245 1 
14246 2 
14247 1 
14281 1 
14282 2 
14283 1 
14293 1 
14294 3 
14295 1 
14302 1 
14303 3 
14304 1 
14350 1 
14351 3 
14352 1 
14359 1 
14360 2 
14361 1 
14362 1 
14363 3 
14364 1 
14365 1 
14366 2 
14367 1 
14407 1 
14408 3 
14409 1 
14410 1 
14411 3 
14412 1 
14416 1 
14417 2 
14418 1 
14422 1 
14423 2 
14424 1 
14425 1 
14426 3 
14427 1 
14464 1 
14465 3 
14466 1 
14470 1 
14471 3 
14472 1 
14473 1 
14474 3 
14475 1 
14476 1 
14477 3 
14478 1 
14479 1 
14480 3 
14481 1 
14485 1 
14486 2 
14487 1 
14488 1 
14489 2 
14490 1 
14521 1 
14522 2 
14523 1 
14530 1 
14531 3 
14532 1 
14539 1 
14540 3 
14541 1 
14545 1 
14546 3 
14547 1 
14584 1 
14585 2 
14586 1 
14587 1 
14588 2 
14589 1 
14596 1 
14597 2 
14598 1 
14608 1 
14609 3 
14610 1 
14641 1 
14642 3 
14643 1 
14644 1 
14645 2 
14646 1 
14650 1 
14651 2 
14652 1 
14653 1 
14654 3 
14655 1 
14665 1 
14666 3 
14667 1 
15301 1 
15302 3 
15303 1 
15310 1 
15311 3 
15312 1 
15313 1 
15314 3 
15315 1 
15316 1 
15317 2 
15318 1 
15325 1 
15326 2 
15327 1 
15379 1 
15380 2 
15381 1 
15382 1 
15383 3 
15384 1 
15385 1 
15386 2 
15387 1 
15424 1 
15425 2 
15426 1 
15433 1 
15434 3 
15435 1 
15439 1 
15440 3 
15441 1 
15442 1 
15443 2 
15444 1 
15445 1 
15446 2 
15447 1 
15448 1 
15449 3 
15450 1 
15496 1 
15497 2 
15498 1 
15499 1 
15500 2 
15501 1 
15505 1 
15506 2 
15507 1 
15541 1 
15542 2 
15543 1 
15547 1 
15548 3 
15549 1 
15559 1 
15560 3 
15561 1 
15565 1 
15566 3 
15567 1 
15568 1 
15569 3 
15570 1 
15607 1 
15608 3 
15609 1 
15613 1 
15614 2 
15615 1 
15616 1 
15617 2 
15618 1 
15664 1 
15665 2 
15666 1 
15676 1 
15677 2 
15678 1 
15679 1 
15680 3 
15681 1 
15685 1 
15686 2 
15687 1 
15688 1 
15689 3 
15690 1 
15724 1 
15725 3 
15726 1 
15730 1 
15731 2 
15732 1 
15733 1 
15734 3 
15735 1 
15736 1 
15737 3 
15738 1 
15739 1 
15740 3 
15741 1 
15748 1 
15749 2 
15750 1 
16333 1 
16334 3 
16335 1 
16387 1 
16388 2 
16389 1 
16399 1 
16400 2 
16401 1 
16441 1 
16442 2 
16443 1 
16444 1 
16445 2 
16446 1 
16447 1 
16448 2 
16449 1 
16501 1 
16502 3 
16503 1 
16516 1 
16517 3 
16518 1 
16522 1 
16523 2 
16524 1 
16561 1 
16562 2 
16563 1 
16564 1 
16565 2 
16566 1 
16567 1 
16568 2 
16569 1 
16570 1 
16571 2 
16572 1 
16573 1 
16574 3 
16575 1 
16579 1 
16580 2 
16581 1 
16582 1 
16583 2 
16584 1 
16588 1 
16589 3 
16590 1 
16621 1 
16622 3 
16623 1 
16630 1 
16631 3 
16632 1 
16633 1 
16634 3 
16635 1 
16636 1 
16637 2 
16638 1 
16642 1 
16643 3 
16644 1 
16648 1 
16649 3 
16650 1 
16681 1 
16682 3 
16683 1 
16687 1 
16688 2 
16689 1 
16690 1 
16691 2 
16692 1 
16699 1 
16700 2 
16701 1 
16705 1 
16706 3 
16707 1 
17287 1 
17288 3 
17289 1 
17305 1 
17306 2 
17307 1 
17347 1 
17348 3 
17349 1 
17350 1 
17351 2 
17352 1 
17353 1 
17354 3 
17355 1 
17359 1 
17360 3 
17361 1 
17362 1 
17363 2 
17364 1 
17365 1 
17366 2 
17367 1 
17368 1 
17369 2 
17370 1 
17404 1 
17405 2 
17406 1 
17410 1 
17411 2 
17412 1 
17425 1 
17426 3 
17427 1 
17461 1 
17462 2 
17463 1 
17473 1 
17474 2 
17475 1 
17476 1 
17477 3 
17478 1 
17479 1 
17480 2 
17481 1 
17485 1 
17486 3 
17487 1 
17488 1 
17489 2 
17490 1 
17521 1 
17522 2 
17523 1 
17524 1 
17525 2 
17526 1 
17527 1 
17528 3 
17529 1 
17530 1 
17531 2 
17532 1 
17533 1 
17534 2 
17535 1 
17539 1 
17540 2 
17541 1 
17542 1 
17543 3 
17544 1 
17548 1 
17549 3 
17550 1 
17584 1 
17585 3 
17586 1 
17590 1 
17591 3 
17592 1 
17599 1 
17600 2 
17601 1 
17602 1 
17603 2 
17604 1 
17605 1 
17606 3 
17607 1 
17608 1 
17609 3 
17610 1 
17641 1 
17642 2 
17643 1 
17644 1 
17645 3 
17646 1 
17650 1 
17651 2 
17652 1 
17653 1 
17654 3 
17655 1 
17659 1 
17660 2 
17661 1 
17701 1 
17702 3 
17703 1 
17704 1 
17705 3 
17706 1 
17707 1 
17708 2 
17709 1 
17710 1 
17711 3 
17712 1 
17713 1 
17714 3 
17715 1 
17716 1 
17717 3 
17718 1 
17719 1 
17720 2 
17721 1 
17728 1 
17729 2 
17730 1 
17761 1 
17762 3 
17763 1 
17770 1 
17771 2 
17772 1 
17773 1 
17774 3 
17775 1 
17776 1 
17777 3 
17778 1 
17779 1 
17780 3 
17781 1 
17785 1 
17786 3 
17787 1 
17788 1 
17789 3 
17790 1 
18361 1 
18362 2 
18363 1 
18364 1 
18365 3 
18366 1 
18367 1 
18368 2 
18369 1 
18379 1 
18380 2 
18381 1 
18388 1 
18389 2 
18390 1 
18421 1 
18422 2 
18423 1 
18427 1 
18428 3 
18429 1 
18430 1 
18431 3 
18432 1 
18433 1 
18434 2 
18435 1 
18442 1 
18443 3 
18444 1 
18445 1 
18446 2 
18447 1 
18448 1 
18449 2 
18450 1 
18484 1 
18485 2 
18486 1 
18487 1 
18488 3 
18489 1 
18493 1 
18494 3 
18495 1 
18499 1 
18500 2 
18501 1 
18508 1 
18509 3 
18510 1 
18541 1 
18542 2 
18543 1 
18544 1 
18545 3 
18546 1 
18547 1 
18548 2 
18549 1 
18550 1 
18551 2 
18552 1 
18553 1 
18554 3 
18555 1 
18556 1 
18557 2 
18558 1 
18565 1 
18566 2 
18567 1 
18568 1 
18569 3 
18570 1 
18601 1 
18602 3 
18603 1 
18604 1 
18605 3 
18606 1 
18607 1 
18608 3 
18609 1 
18610 1 
18611 2 
18612 1 
18613 1 
18614 3 
18615 1 
18616 1 
18617 3 
18618 1 
18622 1 
18623 3 
18624 1 
18664 1 
18665 3 
18666 1 
18667 1 
18668 3 
18669 1 
18670 1 
18671 3 
18672 1 
18676 1 
18677 2 
18678 1 
18679 1 
18680 2 
18681 1 
18685 1 
18686 3 
18687 1 
18730 1 
18731 2 
18732 1 
18733 1 
18734 3 
18735 1 
18739 1 
18740 3 
18741 1 
18742 1 
18743 2 
18744 1 
18796 1 
18797 2 
18798 1 
18799 1 
18800 3 
18801 1 
18802 1 
18803 3 
18804 1 
18805 1 
18806 3 
18807 1 
18808 1 
18809 2 
18810 1 
18847 1 
18848 2 
18849 1 
18853 1 
18854 3 
18855 1 
18856 1 
18857 2 
18858 1 
18859 1 
18860 2 
18861 1 
18862 1 
18863 2 
18864 1 
18865 1 
18866 2 
18867 1 
19444 1 
19445 3 
19446 1 
19450 1 
19451 3 
19452 1 
19453 1 
19454 3 
19455 1 
19456 1 
19457 3 
19458 1 
19459 1 
19460 3 
19461 1 
19462 1 
19463 2 
19464 1 
19507 1 
19508 3 
19509 1 
19525 1 
19526 2 
19527 1 
19528 1 
19529 3 
19530 1 
19567 1 
19568 2 
19569 1 
19573 1 
19574 2 
19575 1 
19582 1 
19583 3 
19584 1 
19588 1 
19589 2 
19590 1 
19621 1 
19622 3 
19623 1 
19624 1 
19625 2 
19626 1 
19627 1 
19628 2 
19629 1 
19633 1 
19634 3 
19635 1 
19642 1 
19643 3 
19644 1 
19648 1 
19649 2 
19650 1 
19681 1 
19682 3 
19683 1 
19684 1 
19685 2 
19686 1 
19687 1 
19688 3 
19689 1 
19693 1 
19694 3 
19695 1 
19747 1 
19748 3 
19749 1 
19750 1 
19751 3 
19752 1 
19756 1 
19757 2 
19758 1 
19759 1 
19760 3 
19761 1 
19801 1 
19802 2 
19803 1 
19819 1 
19820 3 
19821 1 
19822 1 
19823 2 
19824 1 
19861 1 
19862 3 
19863 1 
19867 1 
19868 3 
19869 1 
19870 1 
19871 3 
19872 1 
19873 1 
19874 2 
19875 1 
19876 1 
19877 2 
19878 1 
19882 1 
19883 2 
19884 1 
19885 1 
19886 3 
19887 1 
19888 1 
19889 3 
19890 1 
20524 1 
20525 3 
20526 1 
20527 1 
20528 2 
20529 1 
20533 1 
20534 2 
20535 1 
20536 1 
20537 3 
20538 1 
20539 1 
20540 2 
20541 1 
20542 1 
20543 2 
20544 1 
20545 1 
20546 3 
20547 1 
20581 1 
20582 3 
20583 1 
20584 1 
20585 3 
20586 1 
20587 1 
20588 3 
20589 1 
20593 1 
20594 2 
20595 1 
20602 1 
20603 3 
20604 1 
20605 1 
20606 2 
20607 1 
20641 1 
20642 2 
20643 1 
20647 1 
20648 2 
20649 1 
20650 1 
20651 2 
20652 1 
20662 1 
20663 3 
20664 1 
20665 1 
20666 2 
20667 1 
20668 1 
20669 2 
20670 1 
20704 1 
20705 3 
20706 1 
20710 1 
20711 2 
20712 1 
20713 1 
20714 3 
20715 1 
20716 1 
20717 2 
20718 1 
20722 1 
20723 2 
20724 1 
20767 1 
20768 2 
20769 1 
20770 1 
20771 3 
20772 1 
20773 1 
20774 2 
20775 1 
20788 1 
20789 2 
20790 1 
20824 1 
20825 2 
20826 1 
20830 1 
20831 2 
20832 1 
20833 1 
20834 2 
20835 1 
20848 1 
20849 3 
20850 1 
20884 1 
20885 2 
20886 1 
20887 1 
20888 2 
20889 1 
20890 1 
20891 3 
20892 1 
20893 1 
20894 3 
20895 1 
20896 1 
20897 3 
20898 1 
20899 1 
20900 3 
20901 1 
20902 1 
20903 3 
20904 1 
20908 1 
20909 3 
20910 1 
20941 1 
20942 2 
20943 1 
20950 1 
20951 3 
20952 1 
20956 1 
20957 2 
20958 1 
21001 1 
21002 2 
21003 1 
21007 1 
21008 3 
21009 1 
21010 1 
21011 2 
21012 1 
21013 1 
21014 3 
21015 1 
21016 1 
21017 3 
21018 1 
21019 1 
21020 2 
21021 1 
34 1 
35 3 
36 1 
46 1 
47 2 
48 1 
49 1 
50 3 
51 1 
52 1 
53 2 
54 1 
55 1 
56 2 
57 1 
58 1 
59 3 
60 1 
94 1 
95 3 
96 1 
97 1 
98 3 
99 1 
100 1 
101 2 
102 1 
109 1 
110 3 
111 1 
151 1 
152 2 
153 1 
166 1 
167 2 
168 1 
175 1 
176 3 
177 1 
178 1 
179 2 
180 1 
211 1 
212 3 
213 1 
220 1 
221 2 
222 1 
223 1 
224 2 
225 1 
226 1 
227 2 
228 1 
229 1 
230 2 
231 1 
232 1 
233 2 
234 1 
235 1 
236 2 
237 1 
277 1 
278 3 
279 1 
295 1 
296 2 
297 1 
298 1 
299 3 
300 1 
331 1 
332 2 
333 1 
334 1 
335 2 
336 1 
337 1 
338 2 
339 1 
343 1 
344 3 
345 1 
352 1 
353 3 
354 1 
355 1 
356 2 
357 1 
358 1 
359 3 
360 1 
394 1 
395 3 
396 1 
397 1 
398 3 
399 1 
400 1 
401 2 
402 1 
406 1 
407 3 
408 1 
412 1 
413 2 
414 1 
415 1 
416 3 
417 1 
418 1 
419 2 
420 1 
457 1 
458 2 
459 1 
466 1 
467 3 
468 1 
478 1 
479 2 
480 1 
511 1 
512 2 
513 1 
514 1 
515 3 
516 1 
517 1 
518 3 
519 1 
523 1 
524 2 
525 1 
526 1 
527 2 
528 1 
529 1 
530 3 
531 1 
535 1 
536 3 
537 1 
538 1 
539 3 
540 1 
1171 1 
1172 3 
1173 1 
1177 1 
1178 3 
1179 1 
1183 1 
1184 2 
1185 1 
1186 1 
1187 3 
1188 1 
1189 1 
1190 3 
1191 1 
1192 1 
1193 3 
1194 1 
1231 1 
1232 3 
1233 1 
1234 1 
1235 3 
1236 1 
1243 1 
1244 2 
1245 1 
1246 1 
1247 2 
1248 1 
1249 1 
1250 2 
1251 1 
1252 1 
1253 2 
1254 1 
1258 1 
1259 2 
1260 1 
1300 1 
1301 2 
1302 1 
1303 1 
1304 3 
1305 1 
1312 1 
1313 2 
1314 1 
1351 1 
1352 3 
1353 1 
1354 1 
1355 2 
1356 1 
1360 1 
1361 3 
1362 1 
1375 1 
1376 2 
1377 1 
1378 1 
1379 3 
1380 1 
1414 1 
1415 3 
1416 1 
1420 1 
1421 3 
1422 1 
1426 1 
1427 3 
1428 1 
1429 1 
1430 3 
1431 1 
1432 1 
1433 2 
1434 1 
1438 1 
1439 2 
1440 1 
1471 1 
1472 3 
1473 1 
1474 1 
1475 3 
1476 1 
1480 1 
1481 3 
1482 1 
1483 1 
1484 3 
1485 1 
1495 1 
1496 2 
1497 1 
1498 1 
1499 3 
1500 1 
1549 1 
1550 3 
1551 1 
1558 1 
1559 3 
1560 1 
1591 1 
1592 2 
1593 1 
1597 1 
1598 3 
1599 1 
1600 1 
1601 3 
1602 1 
1612 1 
1613 3 
1614 1 
1651 1 
1652 3 
1653 1 
1660 1 
1661 2 
1662 1 
1669 1 
1670 2 
1671 1 
1675 1 
1676 2 
1677 1 
2266 1 
2267 2 
2268 1 
2272 1 
2273 2 
2274 1 
2275 1 
2276 2 
2277 1 
2311 1 
2312 3 
2313 1 
2314 1 
2315 2 
2316 1 
2317 1 
2318 3 
2319 1 
2320 1 
2321 3 
2322 1 
2326 1 
2327 3 
2328 1 
2329 1 
2330 3 
2331 1 
2332 1 
2333 2 
2334 1 
2338 1 
2339 2 
2340 1 
2374 1 
2375 2 
2376 1 
2380 1 
2381 2 
2382 1 
2392 1 
2393 3 
2394 1 
2398 1 
2399 2 
2400 1 
2431 1 
2432 3 
2433 1 
2437 1 
2438 2 
2439 1 
2440 1 
2441 3 
2442 1 
2455 1 
2456 3 
2457 1 
2497 1 
2498 3 
2499 1 
2506 1 
2507 3 
2508 1 
2515 1 
2516 2 
2517 1 
2551 1 
2552 3 
2553 1 
2563 1 
2564 2 
2565 1 
2569 1 
2570 3 
2571 1 
2572 1 
2573 2 
2574 1 
2575 1 
2576 2 
2577 1 
2611 1 
2612 2 
2613 1 
2620 1 
2621 2 
2622 1 
3211 1 
3212 2 
3213 1 
3214 1 
3215 3 
3216 1 
3223 1 
3224 3 
3225 1 
3232 1 
3233 2 
3234 1 
3235 1 
3236 3 
3237 1 
3271 1 
3272 2 
3273 1 
3274 1 
3275 3 
3276 1 
3298 1 
3299 3 
3300 1 
3331 1 
3332 3 
3333 1 
3343 1 
3344 2 
3345 1 
3355 1 
3356 2 
3357 1 
3358 1 
3359 2 
3360 1 
3394 1 
3395 3 
3396 1 
3400 1 
3401 3 
3402 1 
3451 1 
3452 3 
3453 1 
3454 1 
3455 2 
3456 1 
3457 1 
3458 2 
3459 1 
3460 1 
3461 3 
3462 1 
3463 1 
3464 2 
3465 1 
3466 1 
3467 2 
3468 1 
3469 1 
3470 3 
3471 1 
3472 1 
3473 3 
3474 1 
3511 1 
3512 2 
3513 1 
3535 1 
3536 3 
3537 1 
3538 1 
3539 3 
3540 1 
3571 1 
3572 3 
3573 1 
3574 1 
3575 2 
3576 1 
3577 1 
3578 3 
3579 1 
3580 1 
3581 2 
3582 1 
3583 1 
3584 3 
3585 1 
3586 1 
3587 3 
3588 1 
3589 1 
3590 2 
3591 1 
3592 1 
3593 2 
3594 1 
3634 1 
3635 2 
3636 1 
3640 1 
3641 2 
3642 1 
3658 1 
3659 3 
3660 1 
3697 1 
3698 2 
3699 1 
3700 1 
3701 3 
3702 1 
3703 1 
3704 3 
3705 1 
3706 1 
3707 2 
3708 1 
3718 1 
3719 2 
3720 1 
3751 1 
3752 3 
3753 1 
3760 1 
3761 3 
3762 1 
3763 1 
3764 2 
3765 1 
3772 1 
3773 3 
3774 1 
3775 1 
3776 2 
3777 1 
3778 1 
3779 3 
3780 1 
4357 1 
4358 3 
4359 1 
4360 1 
4361 3 
4362 1 
4369 1 
4370 2 
4371 1 
4372 1 
4373 3 
4374 1 
4375 1 
4376 2 
4377 1 
4411 1 
4412 3 
4413 1 
4414 1 
4415 3 
4416 1 
4426 1 
4427 3 
4428 1 
4429 1 
4430 3 
4431 1 
4432 1 
4433 2 
4434 1 
4438 1 
4439 3 
4440 1 
4471 1 
4472 3 
4473 1 
4477 1 
4478 2 
4479 1 
4480 1 
4481 2 
4482 1 
4486 1 
4487 2 
4488 1 
4492 1 
4493 2 
4494 1 
4531 1 
4532 3 
4533 1 
4543 1 
4544 2 
4545 1 
4558 1 
4559 3 
4560 1 
4591 1 
4592 3 
4593 1 
4594 1 
4595 2 
4596 1 
4597 1 
4598 2 
4599 1 
4612 1 
4613 3 
4614 1 
4618 1 
4619 2 
4620 1 
4660 1 
4661 2 
4662 1 
4663 1 
4664 2 
4665 1 
4666 1 
4667 2 
4668 1 
4669 1 
4670 2 
4671 1 
4672 1 
4673 2 
4674 1 
4675 1 
4676 2 
4677 1 
4678 1 
4679 3 
4680 1 
4711 1 
4712 3 
4713 1 
4720 1 
4721 2 
4722 1 
4723 1 
4724 2 
4725 1 
4732 1 
4733 3 
4734 1 
4738 1 
4739 3 
4740 1 
4771 1 
4772 3 
4773 1 
4777 1 
4778 2 
4779 1 
4780 1 
4781 3 
4782 1 
4783 1 
4784 3 
4785 1 
4789 1 
4790 2 
4791 1 
4795 1 
4796 3 
4797 1 
4831 1 
4832 3 
4833 1 
4843 1 
4844 2 
4845 1 
4849 1 
4850 2 
4851 1 
4858 1 
4859 3 
4860 1 
4900 1 
4901 3 
4902 1 
4906 1 
4907 3 
4908 1 
4912 1 
4913 2 
4914 1 
5491 1 
5492 2 
5493 1 
5506 1 
5507 2 
5508 1 
5509 1 
5510 3 
5511 1 
5515 1 
5516 2 
5517 1 
5551 1 
5552 2 
5553 1 
5560 1 
5561 3 
5562 1 
5563 1 
5564 2 
5565 1 
5566 1 
5567 2 
5568 1 
5611 1 
5612 3 
5613 1 
5617 1 
5618 2 
5619 1 
5620 1 
5621 2 
5622 1 
5626 1 
5627 2 
5628 1 
5635 1 
5636 2 
5637 1 
5638 1 
5639 2 
5640 1 
5677 1 
5678 3 
5679 1 
5680 1 
5681 3 
5682 1 
5683 1 
5684 3 
5685 1 
5695 1 
5696 2 
5697 1 
5698 1 
5699 3 
5700 1 
5731 1 
5732 2 
5733 1 
5734 1 
5735 3 
5736 1 
5743 1 
5744 3 
5745 1 
5749 1 
5750 3 
5751 1 
5752 1 
5753 2 
5754 1 
5755 1 
5756 3 
5757 1 
5758 1 
5759 3 
5760 1 
5794 1 
5795 3 
5796 1 
5797 1 
5798 2 
5799 1 
5800 1 
5801 2 
5802 1 
5806 1 
5807 2 
5808 1 
5812 1 
5813 2 
5814 1 
5818 1 
5819 2 
5820 1 
5857 1 
5858 2 
5859 1 
5860 1 
5861 2 
5862 1 
5866 1 
5867 3 
5868 1 
5875 1 
5876 2 
5877 1 
5878 1 
5879 3 
5880 1 
5917 1 
5918 2 
5919 1 
5920 1 
5921 3 
5922 1 
5923 1 
5924 3 
5925 1 
5929 1 
5930 2 
5931 1 
5935 1 
5936 3 
5937 1 
5980 1 
5981 3 
5982 1 
5986 1 
5987 3 
5988 1 
5989 1 
5990 2 
5991 1 
6031 1 
6032 2 
6033 1 
6034 1 
6035 2 
6036 1 
6037 1 
6038 3 
6039 1 
6043 1 
6044 3 
6045 1 
6055 1 
6056 3 
6057 1 
6058 1 
6059 2 
6060 1 
6691 1 
6692 2 
6693 1 
6694 1 
6695 3 
6696 1 
6697 1 
6698 2 
6699 1 
6703 1 
6704 3 
6705 1 
6709 1 
6710 3 
6711 1 
6718 1 
6719 3 
6720 1 
6754 1 
6755 3 
6756 1 
6757 1 
6758 3 
6759 1 
6772 1 
6773 2 
6774 1 
6775 1 
6776 2 
6777 1 
6778 1 
6779 2 
6780 1 
6826 1 
6827 3 
6828 1 
6829 1 
6830 2 
6831 1 
6835 1 
6836 2 
6837 1 
6880 1 
6881 3 
6882 1 
6886 1 
6887 2 
6888 1 
6889 1 
6890 3 
6891 1 
6898 1 
6899 3 
6900 1 
6937 1 
6938 2 
6939 1 
6943 1 
6944 3 
6945 1 
6949 1 
6950 3 
6951 1 
6955 1 
6956 3 
6957 1 
7006 1 
7007 3 
7008 1 
7009 1 
7010 3 
7011 1 
7015 1 
7016 2 
7017 1 
7054 1 
7055 3 
7056 1 
7057 1 
7058 2 
7059 1 
7060 1 
7061 3 
7062 1 
7063 1 
7064 2 
7065 1 
7072 1 
7073 2 
7074 1 
7078 1 
7079 2 
7080 1 
7117 1 
7118 3 
7119 1 
7123 1 
7124 2 
7125 1 
7129 1 
7130 3 
7131 1 
7135 1 
7136 2 
7137 1 
7138 1 
7139 3 
7140 1 
7183 1 
7184 3 
7185 1 
7189 1 
7190 2 
7191 1 
7192 1 
7193 2 
7194 1 
7195 1 
7196 3 
7197 1 
7255 1 
7256 2 
7257 1 
7258 1 
7259 3 
7260 1 
7774 1 
7775 2 
7776 1 
7783 1 
7784 2 
7785 1 
7789 1 
7790 2 
7791 1 
7792 1 
7793 2 
7794 1 
7795 1 
7796 2 
7797 1 
7834 1 
7835 3 
7836 1 
7837 1 
7838 3 
7839 1 
7846 1 
7847 2 
7848 1 
7849 1 
7850 2 
7851 1 
7894 1 
7895 3 
7896 1 
7897 1 
7898 3 
7899 1 
7903 1 
7904 3 
7905 1 
7912 1 
7913 3 
7914 1 
7918 1 
7919 3 
7920 1 
7951 1 
7952 3 
7953 1 
7954 1 
7955 3 
7956 1 
7957 1 
7958 3 
7959 1 
7960 1 
7961 3 
7962 1 
7963 1 
7964 3 
7965 1 
7975 1 
7976 2 
7977 1 
8017 1 
8018 2 
8019 1 
8026 1 
8027 3 
8028 1 
8029 1 
8030 3 
8031 1 
8032 1 
8033 3 
8034 1 
8038 1 
8039 3 
8040 1 
8071 1 
8072 2 
8073 1 
8080 1 
8081 3 
8082 1 
8092 1 
8093 2 
8094 1 
8131 1 
8132 3 
8133 1 
8134 1 
8135 3 
8136 1 
8146 1 
8147 3 
8148 1 
8149 1 
8150 3 
8151 1 
8158 1 
8159 2 
8160 1 
8191 1 
8192 2 
8193 1 
8200 1 
8201 2 
8202 1 
8203 1 
8204 3 
8205 1 
8209 1 
8210 2 
8211 1 
8212 1 
8213 2 