ITEM: TIMESTEP
0
ITEM: NUMBER OF ATOMS
1344
ITEM: BOX BOUNDS pp pp pp
0.0000000000000000e+00 5.0000000000000000e+01
0.0000000000000000e+00 5.0000000000000000e+01
0.0000000000000000e+00 5.0000000000000000e+01
ITEM: ATOMS id type 
13 1 
14 2 
15 1 
28 1 
29 2 
30 1 
136 1 
137 2 
138 1 
193 1 
194 2 
195 1 
241 1 
242 2 
243 1 
259 1 
260 2 
261 1 
307 1 
308 2 
309 1 
370 1 
371 2 
372 1 
1150 1 
1151 2 
1152 1 
1156 1 
1157 2 
1158 1 
1288 1 
1289 2 
1290 1 
1348 1 
1349 2 
1350 1 
1504 1 
1505 2 
1506 1 
1573 1 
1574 2 
1575 1 
1588 1 
1589 2 
1590 1 
2236 1 
2237 2 
2238 1 
2281 1 
2282 2 
2283 1 
2296 1 
2297 2 
2298 1 
2428 1 
2429 2 
2430 1 
2464 1 
2465 2 
2466 1 
2530 1 
2531 2 
2532 1 
3181 1 
3182 2 
3183 1 
3205 1 
3206 2 
3207 1 
3370 1 
3371 3 
3372 1 
3490 1 
3491 2 
3492 1 
3622 1 
3623 2 
3624 1 
3628 1 
3629 2 
3630 1 
3664 1 
3665 2 
3666 1 
3739 1 
3740 2 
3741 1 
4501 1 
4502 3 
4503 1 
4579 1 
4580 2 
4581 1 
4636 1 
4637 2 
4638 1 
4756 1 
4757 2 
4758 1 
4768 1 
4769 2 
4770 1 
4816 1 
4817 2 
4818 1 
5461 1 
5462 2 
5463 1 
5542 1 
5543 3 
5544 1 
5584 1 
5585 3 
5586 1 
5656 1 
5657 3 
5658 1 
5668 1 
5669 2 
5670 1 
5704 1 
5705 2 
5706 1 
5776 1 
5777 2 
5778 1 
5845 1 
5846 2 
5847 1 
5881 1 
5882 2 
5883 1 
6010 1 
6011 3 
6012 1 
6670 1 
6671 2 
6672 1 
7021 1 
7022 2 
7023 1 
7048 1 
7049 2 
7050 1 
7099 1 
7100 2 
7101 1 
7150 1 
7151 2 
7152 1 
7804 1 
7805 2 
7806 1 
7924 1 
7925 2 
7926 1 
7939 1 
7940 2 
7941 1 
8041 1 
8042 2 
8043 1 
8128 1 
8129 2 
8130 1 
8296 1 
8297 2 
8298 1 
9022 1 
9023 2 
9024 1 
9025 1 
9026 2 
9027 1 
9076 1 
9077 2 
9078 1 
9136 1 
9137 2 
9138 1 
9184 1 
9185 2 
9186 1 
9187 1 
9188 2 
9189 1 
9193 1 
9194 2 
9195 1 
9250 1 
9251 2 
9252 1 
9322 1 
9323 2 
9324 1 
10219 1 
10220 2 
10221 1 
10270 1 
10271 2 
10272 1 
10348 1 
10349 3 
10350 1 
10387 1 
10388 2 
10389 1 
11110 1 
11111 2 
11112 1 
11230 1 
11231 2 
11232 1 
11233 1 
11234 2 
11235 1 
11245 1 
11246 2 
11247 1 
11293 1 
11294 2 
11295 1 
12079 1 
12080 2 
12081 1 
12208 1 
12209 2 
12210 1 
12319 1 
12320 2 
12321 1 
12361 1 
12362 2 
12363 1 
12499 1 
12500 2 
12501 1 
12619 1 
12620 2 
12621 1 
13408 1 
13409 2 
13410 1 
13507 1 
13508 2 
13509 1 
13510 1 
13511 2 
13512 1 
14233 1 
14234 2 
14235 1 
14305 1 
14306 2 
14307 1 
14368 1 
14369 2 
14370 1 
14419 1 
14420 2 
14421 1 
14533 1 
14534 2 
14535 1 
14581 1 
14582 3 
14583 1 
15376 1 
15377 2 
15378 1 
15484 1 
15485 2 
15486 1 
15553 1 
15554 2 
15555 1 
15622 1 
15623 3 
15624 1 
15628 1 
15629 2 
15630 1 
15661 1 
15662 2 
15663 1 
15742 1 
15743 2 
15744 1 
16381 1 
16382 2 
16383 1 
16396 1 
16397 2 
16398 1 
16462 1 
16463 2 
16464 1 
16519 1 
16520 3 
16521 1 
16627 1 
16628 2 
16629 1 
16696 1 
16697 3 
16698 1 
17281 1 
17282 2 
17283 1 
17467 1 
17468 2 
17469 1 
17482 1 
17483 2 
17484 1 
17536 1 
17537 2 
17538 1 
17545 1 
17546 2 
17547 1 
17662 1 
17663 2 
17664 1 
17668 1 
17669 2 
17670 1 
18439 1 
18440 2 
18441 1 
18628 1 
18629 2 
18630 1 
19579 1 
19580 2 
19581 1 
19810 1 
19811 2 
19812 1 
19864 1 
19865 2 
19866 1 
20608 1 
20609 2 
20610 1 
20764 1 
20765 2 
20766 1 
20779 1 
20780 3 
20781 1 
20839 1 
20840 2 
20841 1 
31 1 
32 3 
33 1 
43 1 
44 2 
45 1 
154 1 
155 2 
156 1 
409 1 
410 2 
411 1 
460 1 
461 2 
462 1 
1174 1 
1175 2 
1176 1 
1366 1 
1367 2 
1368 1 
1417 1 
1418 3 
1419 1 
1486 1 
1487 2 
1488 1 
1531 1 
1532 2 
1533 1 
1618 1 
1619 2 
1620 1 
2278 1 
2279 2 
2280 1 
2443 1 
2444 2 
2445 1 
2446 1 
2447 2 
2448 1 
2614 1 
2615 2 
2616 1 
2635 1 
2636 2 
2637 1 
3277 1 
3278 2 
3279 1 
3289 1 
3290 2 
3291 1 
3295 1 
3296 2 
3297 1 
3346 1 
3347 2 
3348 1 
3514 1 
3515 2 
3516 1 
3655 1 
3656 2 
3657 1 
3709 1 
3710 2 
3711 1 
4498 1 
4499 2 
4500 1 
4534 1 
4535 2 
4536 1 
4555 1 
4556 2 
4557 1 
4654 1 
4655 2 
4656 1 
4735 1 
4736 3 
4737 1 
4774 1 
4775 2 
4776 1 
4846 1 
4847 2 
4848 1 
5815 1 
5816 2 
5817 1 
5869 1 
5870 2 
5871 1 
5983 1 
5984 2 
5985 1 
6706 1 
6707 2 
6708 1 
6715 1 
6716 2 
6717 1 
6751 1 
6752 2 
6753 1 
6877 1 
6878 2 
6879 1 
6940 1 
6941 2 
6942 1 
7003 1 
7004 2 
7005 1 
7114 1 
7115 2 
7116 1 
7126 1 
7127 3 
7128 1 
7198 1 
7199 2 
7200 1 
7234 1 
7235 2 
7236 1 
7852 1 
7853 3 
7854 1 
8020 1 
8021 2 
8022 1 
8035 1 
8036 2 
8037 1 
8086 1 
8087 2 
8088 1 
8137 1 
8138 2 
8139 1 
8197 1 
8198 2 
8199 1 
8272 1 
8273 2 
8274 1 
8335 1 
8336 2 
8337 1 
8998 1 
8999 2 
9000 1 
9052 1 
9053 2 
9054 1 
9178 1 
9179 2 
9180 1 
9211 1 
9212 2 
9213 1 
9214 1 
9215 2 
9216 1 
9271 1 
9272 2 
9273 1 
9274 1 
9275 2 
9276 1 
9286 1 
9287 2 
9288 1 
10138 1 
10139 2 
10140 1 
10303 1 
10304 2 
10305 1 
10306 1 
10307 2 
10308 1 
10375 1 
10376 2 
10377 1 
10378 1 
10379 2 
10380 1 
10531 1 
10532 2 
10533 1 
11155 1 
11156 2 
11157 1 
11434 1 
11435 2 
11436 1 
11506 1 
11507 2 
11508 1 
12280 1 
12281 2 
12282 1 
12466 1 
12467 2 
12468 1 
13180 1 
13181 2 
13182 1 
13198 1 
13199 2 
13200 1 
13300 1 
13301 2 
13302 1 
13411 1 
13412 2 
13413 1 
13555 1 
13556 2 
13557 1 
13612 1 
13613 2 
13614 1 
13615 1 
13616 2 
13617 1 
14314 1 
14315 2 
14316 1 
14326 1 
14327 3 
14328 1 
14386 1 
14387 2 
14388 1 
14458 1 
14459 2 
14460 1 
14557 1 
14558 2 
14559 1 
15346 1 
15347 2 
15348 1 
15391 1 
15392 2 
15393 1 
15400 1 
15401 2 
15402 1 
15514 1 
15515 3 
15516 1 
15649 1 
15650 2 
15651 1 
16477 1 
16478 2 
16479 1 
16606 1 
16607 2 
16608 1 
16618 1 
16619 2 
16620 1 
17335 1 
17336 2 
17337 1 
17440 1 
17441 2 
17442 1 
17443 1 
17444 2 
17445 1 
17578 1 
17579 3 
17580 1 
17638 1 
17639 2 
17640 1 
17740 1 
17741 3 
17742 1 
17803 1 
17804 2 
17805 1 
18409 1 
18410 2 
18411 1 
18415 1 
18416 2 
18417 1 
18772 1 
18773 2 
18774 1 
18778 1 
18779 2 
18780 1 
18817 1 
18818 2 
18819 1 
18877 1 
18878 3 
18879 1 
18880 1 
18881 2 
18882 1 
19531 1 
19532 2 
19533 1 
19591 1 
19592 2 
19593 1 
19609 1 
19610 2 
19611 1 
19615 1 
19616 2 
19617 1 
19675 1 
19676 2 
19677 1 
19909 1 
19910 2 
19911 1 
19915 1 
19916 2 
19917 1 
20737 1 
20738 2 
20739 1 
20791 1 
20792 2 
20793 1 
20854 1 
20855 3 
20856 1 
20989 1 
20990 2 
20991 1 
21034 1 
21035 2 
21036 1 
21052 1 
21053 2 
21054 1 
601 1 
602 2 
603 1 
688 1 
689 3 
690 1 
910 1 
911 2 
912 1 
1021 1 
1022 2 
1023 1 
1684 1 
1685 2 
1686 1 
1690 1 
1691 2 
1692 1 
1699 1 
1700 2 
1701 1 
1741 1 
1742 2 
1743 1 
1753 1 
1754 2 
1755 1 
1993 1 
1994 3 
1995 1 
2041 1 
2042 2 
2043 1 
2065 1 
2066 2 
2067 1 
2644 1 
2645 2 
2646 1 
2650 1 
2651 2 
2652 1 
2668 1 
2669 2 
2670 1 
2788 1 
2789 2 
2790 1 
3793 1 
3794 2 
3795 1 
3859 1 
3860 2 
3861 1 
3928 1 
3929 2 
3930 1 
4033 1 
4034 2 
4035 1 
4093 1 
4094 2 
4095 1 
4159 1 
4160 2 
4161 1 
4162 1 
4163 2 
4164 1 
4927 1 
4928 2 
4929 1 
4939 1 
4940 2 
4941 1 
5044 1 
5045 2 
5046 1 
5053 1 
5054 2 
5055 1 
5119 1 
5120 2 
5121 1 
5230 1 
5231 2 
5232 1 
5362 1 
5363 2 
5364 1 
6064 1 
6065 2 
6066 1 
6139 1 
6140 3 
6141 1 
6319 1 
6320 2 
6321 1 
6448 1 
6449 3 
6450 1 
6619 1 
6620 2 
6621 1 
7402 1 
7403 2 
7404 1 
7513 1 
7514 2 
7515 1 
7516 1 
7517 2 
7518 1 
7639 1 
7640 2 
7641 1 
8416 1 
8417 2 
8418 1 
8425 1 
8426 2 
8427 1 
8461 1 
8462 2 
8463 1 
8488 1 
8489 2 
8490 1 
8587 1 
8588 2 
8589 1 
8716 1 
8717 2 
8718 1 
8728 1 
8729 2 
8730 1 
8770 1 
8771 3 
8772 1 
9421 1 
9422 2 
9423 1 
9499 1 
9500 2 
9501 1 
9565 1 
9566 2 
9567 1 
9685 1 
9686 2 
9687 1 
9688 1 
9689 3 
9690 1 
9916 1 
9917 2 
9918 1 
9919 1 
9920 2 
9921 1 
9922 1 
9923 2 
9924 1 
11539 1 
11540 3 
11541 1 
11605 1 
11606 2 
11607 1 
11662 1 
11663 2 
11664 1 
11668 1 
11669 2 
11670 1 
11968 1 
11969 2 
11970 1 
12913 1 
12914 2 
12915 1 
12916 1 
12917 2 
12918 1 
12919 1 
12920 2 
12921 1 
12985 1 
12986 2 
12987 1 
13621 1 
13622 2 
13623 1 
13639 1 
13640 2 
13641 1 
13684 1 
13685 2 
13686 1 
13861 1 
13862 2 
13863 1 
13885 1 
13886 2 
13887 1 
14008 1 
14009 2 
14010 1 
14056 1 
14057 2 
14058 1 
14104 1 
14105 2 
14106 1 
14122 1 
14123 2 
14124 1 
14179 1 
14180 3 
14181 1 
14725 1 
14726 2 
14727 1 
14827 1 
14828 2 
14829 1 
14899 1 
14900 2 
14901 1 
14902 1 
14903 3 
14904 1 
15010 1 
15011 2 
15012 1 
15133 1 
15134 2 
15135 1 
15199 1 
15200 2 
15201 1 
15202 1 
15203 3 
15204 1 
15784 1 
15785 2 
15786 1 
15907 1 
15908 2 
15909 1 
15913 1 
15914 2 
15915 1 
15985 1 
15986 2 
15987 1 
16048 1 
16049 2 
16050 1 
16102 1 
16103 2 
16104 1 
16744 1 
16745 2 
16746 1 
16765 1 
16766 2 
16767 1 
16993 1 
16994 2 
16995 1 
17179 1 
17180 2 
17181 1 
18025 1 
18026 2 
18027 1 
19336 1 
19337 2 
19338 1 
19399 1 
19400 2 
19401 1 
19996 1 
19997 2 
19998 1 
20179 1 
20180 2 
20181 1 
20281 1 
20282 3 
20283 1 
20347 1 
20348 2 
20349 1 
20464 1 
20465 3 
20466 1 
20467 1 
20468 3 
20469 1 
20476 1 
20477 2 
20478 1 
20482 1 
20483 2 
20484 1 
21361 1 
21362 2 
21363 1 
21370 1 
21371 2 
21372 1 
21421 1 
21422 2 
21423 1 
21505 1 
21506 2 
21507 1 
649 1 
650 3 
651 1 
703 1 
704 2 
705 1 
769 1 
770 2 
771 1 
898 1 
899 2 
900 1 
946 1 
947 2 
948 1 
1003 1 
1004 3 
1005 1 
1075 1 
1076 2 
1077 1 
1117 1 
1118 2 
1119 1 
1129 1 
1130 3 
1131 1 
1714 1 
1715 3 
1716 1 
2074 1 
2075 2 
2076 1 
2098 1 
2099 2 
2100 1 
2143 1 
2144 3 
2145 1 
2209 1 
2210 2 
2211 1 
2863 1 
2864 2 
2865 1 
2938 1 
2939 2 
2940 1 
2971 1 
2972 2 
2973 1 
2980 1 
2981 2 
2982 1 
3106 1 
3107 2 
3108 1 
3832 1 
3833 2 
3834 1 
4120 1 
4121 2 
4122 1 
4234 1 
4235 2 
4236 1 
4246 1 
4247 2 
4248 1 
4300 1 
4301 2 
4302 1 
5080 1 
5081 2 
5082 1 
5191 1 
5192 2 
5193 1 
5254 1 
5255 2 
5256 1 
5260 1 
5261 2 
5262 1 
6106 1 
6107 2 
6108 1 
6169 1 
6170 2 
6171 1 
6211 1 
6212 2 
6213 1 
6271 1 
6272 2 
6273 1 
6277 1 
6278 2 
6279 1 
6340 1 
6341 2 
6342 1 
6400 1 
6401 3 
6402 1 
6403 1 
6404 2 
6405 1 
6463 1 
6464 3 
6465 1 
6532 1 
6533 2 
6534 1 
6655 1 
6656 2 
6657 1 
7315 1 
7316 2 
7317 1 
7555 1 
7556 2 
7557 1 
7711 1 
7712 2 
7713 1 
8383 1 
8384 2 
8385 1 
8395 1 
8396 2 
8397 1 
8494 1 
8495 2 
8496 1 
8518 1 
8519 2 
8520 1 
8572 1 
8573 2 
8574 1 
8680 1 
8681 2 
8682 1 
8734 1 
8735 2 
8736 1 
8791 1 
8792 3 
8793 1 
8809 1 
8810 2 
8811 1 
8815 1 
8816 2 
8817 1 
8878 1 
8879 2 
8880 1 
9589 1 
9590 2 
9591 1 
9595 1 
9596 2 
9597 1 
9940 1 
9941 2 
9942 1 
10669 1 
10670 2 
10671 1 
10975 1 
10976 3 
10977 1 
11029 1 
11030 2 
11031 1 
11086 1 
11087 2 
11088 1 
11794 1 
11795 2 
11796 1 
13012 1 
13013 2 
13014 1 
13123 1 
13124 2 
13125 1 
13663 1 
13664 2 
13665 1 
13714 1 
13715 2 
13716 1 
13771 1 
13772 2 
13773 1 
13795 1 
13796 3 
13797 1 
13798 1 
13799 2 
13800 1 
13960 1 
13961 2 
13962 1 
14026 1 
14027 2 
14028 1 
14089 1 
14090 2 
14091 1 
14878 1 
14879 3 
14880 1 
14932 1 
14933 2 
14934 1 
14938 1 
14939 2 
14940 1 
14974 1 
14975 3 
14976 1 
15094 1 
15095 3 
15096 1 
15826 1 
15827 3 
15828 1 
15832 1 
15833 2 
15834 1 
15937 1 
15938 2 
15939 1 
16072 1 
16073 3 
16074 1 
16123 1 
16124 2 
16125 1 
16966 1 
16967 2 
16968 1 
16978 1 
16979 2 
16980 1 
17035 1 
17036 2 
17037 1 
17074 1 
17075 2 
17076 1 
17089 1 
17090 2 
17091 1 
17137 1 
17138 2 
17139 1 
17149 1 
17150 2 
17151 1 
17212 1 
17213 2 
17214 1 
17254 1 
17255 3 
17256 1 
17275 1 
17276 2 
17277 1 
17854 1 
17855 2 
17856 1 
17857 1 
17858 2 
17859 1 
18157 1 
18158 2 
18159 1 
18283 1 
18284 2 
18285 1 
19240 1 
19241 2 
19242 1 
19366 1 
19367 2 
19368 1 
19960 1 
19961 2 
19962 1 
20194 1 
20195 2 
20196 1 
20440 1 
20441 2 
20442 1 
21100 1 
21101 2 
21102 1 
21154 1 
21155 2 
21156 1 
21271 1 
21272 2 
21273 1 
21355 1 
21356 2 
21357 1 
21397 1 
21398 2 
21399 1 
21466 1 
21467 2 
21468 1 
