ITEM: TIMESTEP
30000000
ITEM: NUMBER OF ATOMS
1026
ITEM: BOX BOUNDS pp pp pp
0.0000000000000000e+00 5.0000000000000000e+01
0.0000000000000000e+00 5.0000000000000000e+01
0.0000000000000000e+00 5.0000000000000000e+01
ITEM: ATOMS id type xs ys zs
17875 1 0.0396731 0.618535 0.0040753
17876 2 0.045687 0.623838 0.0069281
17877 1 0.049267 0.627372 0.000494071
1016 2 0.0116447 0.656916 0.0236467
1017 1 0.0178275 0.662084 0.0225238
12922 1 0.020221 0.663579 0.0226155
1015 1 0.00297639 0.659336 0.0239152
13164 1 0.0587352 0.66262 0.0217292
19425 1 0.0606826 0.662817 0.0241984
13163 2 0.0542969 0.66189 0.0145929
13162 1 0.0483105 0.659114 0.00966256
12923 2 0.0271643 0.668223 0.0226837
9577 1 0.0202913 0.692125 0.0151875
13966 1 0.0186153 0.692446 0.0178624
9578 2 0.0263585 0.693024 0.00839667
13967 2 0.0136166 0.693378 0.0253831
19371 1 0.0421545 0.676459 0.000128548
15100 1 0.0409931 0.67538 0.00260981
15101 2 0.0377741 0.673661 0.00978312
15102 1 0.0337172 0.671166 0.0153733
12924 1 0.0320526 0.670411 0.0174297
14861 2 0.0498759 0.679961 0.0261949
14860 1 0.0478491 0.687404 0.0222611
6155 2 0.0665324 0.678081 0.00505097
6156 1 0.0660183 0.684518 0.00135421
6154 1 0.0672306 0.674233 0.0124349
2372 3 0.0952394 0.674976 0.0287329
2371 1 0.097577 0.67373 0.0209851
18889 1 0.098454 0.673924 0.0179355
18890 3 0.100197 0.674468 0.0103749
18891 1 0.100479 0.681393 0.00756695
12802 1 0.100645 0.683682 0.00680697
12803 3 0.100095 0.689795 0.0023952
9579 1 0.0306379 0.699216 0.0059676
6933 1 0.0233592 0.723369 0.0177242
14733 1 0.0250677 0.721458 0.019639
7283 2 0.00140844 0.717424 0.0122387
14732 2 0.0290227 0.716797 0.0257395
7284 1 0.00252177 0.717743 0.00274305
7282 1 0.00445774 0.722258 0.0170582
7930 1 0.0322359 0.701592 0.00508422
7931 2 0.0370744 0.706995 0.00194768
7202 2 0.0466394 0.701051 0.0182628
7201 1 0.0496211 0.708996 0.0171127
9838 1 0.051076 0.712004 0.0164226
7203 1 0.0409702 0.697619 0.0230256
9839 2 0.0556413 0.717516 0.0156574
9840 1 0.0555287 0.7248 0.0124898
14811 1 0.0391498 0.696794 0.0249162
5167 1 0.0801022 0.712786 0.0118461
11922 1 0.0818422 0.715102 0.0119606
11921 2 0.088078 0.720582 0.0132568
6665 2 0.0725595 0.722646 0.027749
5169 1 0.0726462 0.703172 0.00226758
5168 2 0.0746137 0.705803 0.0101534
21170 2 0.103556 0.71866 0.0275377
12804 1 0.101096 0.696166 0.00701623
1256 2 0.102362 0.704242 0.0129742
1257 1 0.101805 0.698807 0.00876175
1255 1 0.101334 0.709088 0.0196353
21171 1 0.10167 0.711425 0.0220767
21169 1 0.108088 0.723415 0.0258243
21359 2 0.13061 0.71674 0.00176447
21358 1 0.127858 0.72101 0.00879241
17146 1 0.126645 0.722723 0.0108699
6932 2 0.0207473 0.729238 0.01264
6931 1 0.0142901 0.734168 0.0119421
4909 1 0.0245193 0.75117 0.00623499
4910 2 0.0179339 0.75459 0.00719458
1624 1 0.0269661 0.749428 0.00651996
5486 2 0.0198045 0.752976 0.0279783
2730 1 0.0556814 0.727631 0.0114876
3944 2 0.0397786 0.739863 0.0271179
3943 1 0.038291 0.743393 0.0191311
1626 1 0.0372456 0.744664 0.015795
19000 1 0.0591403 0.74713 0.0106069
2728 1 0.0583847 0.744342 0.0103258
2729 2 0.0561553 0.736683 0.0101632
19001 2 0.0608353 0.754915 0.011571
1625 2 0.0342144 0.746517 0.00831342
11920 1 0.0904096 0.728606 0.0146694
20136 1 0.0910602 0.731371 0.0146781
20135 2 0.0929767 0.739061 0.0141661
20134 1 0.0884298 0.745349 0.0168826
6762 1 0.086689 0.747729 0.0181142
6761 2 0.0825519 0.752983 0.0219947
970 1 0.0684577 0.733485 0.0298241
6666 1 0.0698938 0.730946 0.0291645
6760 1 0.0797302 0.755819 0.0289663
17147 2 0.123667 0.727747 0.0175236
17148 1 0.121283 0.732149 0.0237616
6873 1 0.120542 0.734432 0.0256773
3017 2 0.113437 0.748679 0.010164
3018 1 0.109569 0.74332 0.00737199
6872 2 0.116603 0.740087 0.0298684
6782 2 0.133987 0.743827 0.00323445
6783 1 0.134157 0.74399 0.011018
17971 1 0.134338 0.744746 0.0145246
17972 2 0.136013 0.746499 0.0226253
17973 1 0.134944 0.748574 0.0293987
13847 3 0.160059 0.751053 0.0183317
13848 1 0.157758 0.745848 0.0138952
13846 1 0.158524 0.751299 0.0263234
14343 1 0.158013 0.751235 0.0291548
4911 1 0.0129894 0.758242 0.00219557
5487 1 0.0249135 0.757838 0.0247627
16531 1 0.0268578 0.759161 0.0236138
19291 1 0.0114744 0.759668 0.000199605
2434 1 0.0272982 0.781475 0.00347302
10467 1 0.0268634 0.778789 0.000947916
13366 1 0.00923546 0.776989 0.0207943
13367 2 0.0125833 0.770017 0.0200636
13368 1 0.0103985 0.763795 0.0161976
19576 1 0.00782033 0.78026 0.0213575
16251 1 0.015536 0.784338 0.0288731
16533 1 0.0363791 0.769683 0.0192164
16532 2 0.0319431 0.763862 0.0189424
19179 1 0.0383074 0.77171 0.0201755
19002 1 0.0559518 0.761181 0.00856547
11010 1 0.0542902 0.763867 0.00734291
11009 2 0.0495348 0.769433 0.00474494
11008 1 0.0505675 0.776327 0.00110471
19178 2 0.0441163 0.777612 0.0221252
19177 1 0.0452932 0.780805 0.0289348
39 1 0.0535138 0.782522 0.0113745
14660 2 0.0748726 0.765672 0.00132057
5188 1 0.0649256 0.775818 0.0207174
5189 2 0.0719588 0.773539 0.0210867
5190 1 0.0799336 0.773821 0.0202188
17656 1 0.083186 0.774022 0.0199264
17657 2 0.0923912 0.773924 0.0190616
14659 1 0.0745126 0.759032 0.00586236
3016 1 0.11174 0.756589 0.0111812
17658 1 0.0996827 0.770791 0.0171161
11778 1 0.1024 0.769661 0.0167416
11777 2 0.109632 0.766668 0.0148494
11776 1 0.111307 0.759197 0.0120773
17415 1 0.116821 0.768623 0.0260214
17414 2 0.122341 0.766172 0.0297908
2435 2 0.0290557 0.78665 0.00761536
4251 1 0.0264191 0.794622 0.0159557
2436 1 0.0268813 0.792196 0.013781
4250 2 0.0243183 0.800481 0.020721
4249 1 0.0190096 0.804353 0.0258822
7867 1 0.0171987 0.805553 0.0279403
19577 2 0.00483856 0.788429 0.0212141
19578 1 0.00691457 0.793878 0.0182061
38 2 0.0604476 0.787078 0.0115175
37 1 0.0668833 0.791929 0.0146693
12564 1 0.0660367 0.814036 0.0205426
5496 1 0.0667952 0.811504 0.0207368
4409 2 0.0827775 0.792563 0.0153202
5495 2 0.0706756 0.803966 0.020845
5494 1 0.0745852 0.799085 0.0178942
4408 1 0.0768664 0.797504 0.0169295
4410 1 0.0885797 0.793435 0.0184443
5467 1 0.0812113 0.808547 0.015769
11779 1 0.0913196 0.793508 0.0197251
5468 2 0.0866286 0.814093 0.0124751
11780 2 0.0988467 0.794701 0.0231087
11781 1 0.101446 0.801513 0.0279045
4608 1 0.102469 0.803764 0.0294049
20161 1 0.0537659 0.826487 0.0186435
12562 1 0.0565804 0.825181 0.0193717
20162 2 0.0460719 0.82837 0.0191497
20163 1 0.0425458 0.82676 0.0264754
17064 1 0.0416966 0.825975 0.0296034
12563 2 0.063403 0.821797 0.0208264
6129 1 0.08199 0.828242 0.0163102
6128 2 0.0799763 0.8367 0.016447
6127 1 0.0796226 0.845077 0.0130554
2785 1 0.0938403 0.820265 0.00643012
5469 1 0.0916289 0.818942 0.00764539
2786 2 0.0996138 0.825449 0.00255518
2819 2 0.102466 0.839149 0.0268622
2820 1 0.104137 0.832766 0.0219034
15572 2 0.082863 0.854401 0.00835695
15571 1 0.0801308 0.848154 0.0117944
15573 1 0.0808751 0.861266 0.00490293
3756 1 0.0785267 0.876646 0.006245
3754 1 0.0803935 0.863786 0.00341049
3755 3 0.0800435 0.871832 7.44744e-05
9505 1 0.0223396 0.660952 0.0504403
9507 1 0.0132461 0.653333 0.0497105
9506 2 0.0180207 0.656473 0.0558457
1936 1 0.0385861 0.663192 0.0441649
20725 1 0.0178388 0.684652 0.0539975
2140 1 0.0201391 0.685351 0.0520266
2141 2 0.0264012 0.686639 0.046236
2142 1 0.0298015 0.690122 0.0391731
14809 1 0.0308228 0.691193 0.0362946
20726 2 0.0122557 0.683919 0.0599258
1938 1 0.0459083 0.672177 0.034312
14862 1 0.0463987 0.673866 0.0321387
1937 2 0.0453005 0.66862 0.0420603
14810 2 0.0344402 0.694179 0.0303607
4212 1 0.0589812 0.692739 0.043315
3485 2 0.0624355 0.6847 0.0493366
3484 1 0.0599012 0.690948 0.0446086
14456 2 0.0807809 0.671089 0.0407822
14455 1 0.0732863 0.668159 0.0366308
19424 2 0.0649482 0.66462 0.0310659
19423 1 0.0710977 0.667333 0.0352239
14457 1 0.0879127 0.673825 0.0362902
2373 1 0.0900769 0.674718 0.0342066
5431 1 0.0754322 0.686522 0.0477398
5432 2 0.0800802 0.690807 0.04285
3486 1 0.06366 0.677696 0.0544141
12814 1 0.0654167 0.675544 0.0562079
14731 1 0.0288293 0.71342 0.0331429
19084 1 0.00715426 0.702556 0.0494464
9781 1 0.00636518 0.703807 0.0519865
11983 1 0.0291461 0.712536 0.0359217
11984 2 0.0313616 0.709408 0.0433924
13968 1 0.0110858 0.696132 0.0325231
19086 1 0.0102322 0.697147 0.0349201
9782 2 0.00574481 0.708801 0.059567
19085 2 0.00855694 0.699497 0.0419648
7596 1 0.00823045 0.713249 0.0393791
7595 2 0.00806644 0.720785 0.0404584
11985 1 0.0358816 0.707051 0.0487475
20613 1 0.0382063 0.706709 0.0508245
9650 2 0.051366 0.715074 0.0384735
4210 1 0.052594 0.705164 0.0381522
9651 1 0.0521532 0.707737 0.0380405
4211 2 0.05574 0.698258 0.0374928
9649 1 0.0529382 0.720109 0.0438204
20612 2 0.0447059 0.706085 0.0563297
4117 1 0.0535424 0.722318 0.0458662
5433 1 0.0804276 0.698191 0.0406117
18527 2 0.080982 0.70801 0.036087
6664 1 0.0757992 0.718309 0.0323488
18526 1 0.0774277 0.716106 0.0333137
18528 1 0.0805115 0.700878 0.0394949
16793 2 0.0940161 0.719718 0.0520871
16794 1 0.0902759 0.714515 0.0569791
2631 1 0.0888907 0.71234 0.0591274
12633 1 0.0968552 0.698024 0.0430377
16792 1 0.100503 0.723715 0.0500902
12632 2 0.10382 0.697734 0.0421611
12631 1 0.110194 0.701484 0.0405382
1278 1 0.112318 0.702834 0.0400027
1277 2 0.118376 0.708111 0.0389299
1276 1 0.124471 0.712926 0.0401102
11565 1 0.119763 0.718006 0.0603231
11564 2 0.12185 0.725494 0.0576126
11115 1 0.126809 0.714691 0.0402991
11114 2 0.1336 0.719432 0.0396083
11113 1 0.140783 0.721904 0.0434257
8500 1 0.143719 0.722586 0.0443793
8501 2 0.151358 0.724978 0.046082
5485 1 0.015258 0.747968 0.0314835
10098 1 0.0137077 0.746065 0.0321899
2006 2 0.0184982 0.73387 0.0592123
2005 1 0.0235301 0.733885 0.0519237
1869 1 0.0251647 0.734384 0.0485123
1868 2 0.0299612 0.73427 0.0417402
10097 2 0.00960576 0.739233 0.0344531
10096 1 0.00862943 0.731108 0.0371193
7594 1 0.00846055 0.72825 0.0380299
21203 2 0.00709979 0.754427 0.0545943
3945 1 0.0349942 0.737753 0.0337907
972 1 0.0609571 0.746473 0.0311405
4118 2 0.0553562 0.727232 0.0507192
4119 1 0.06174 0.726498 0.055654
1867 1 0.0336269 0.736843 0.0358868
14887 1 0.0422678 0.746957 0.0587193
14888 2 0.0406137 0.752734 0.0537446
17299 1 0.0624412 0.746328 0.0596671
971 2 0.063886 0.740271 0.0319286
17300 2 0.0633435 0.749998 0.0529403
17301 1 0.0692208 0.754711 0.0477969
6051 1 0.07093 0.755422 0.0454348
18765 1 0.0836513 0.74231 0.0478266
15703 1 0.0833661 0.743336 0.049803
15704 2 0.0835754 0.746162 0.0568705
15705 1 0.0883274 0.751995 0.0567379
6930 1 0.0901039 0.75406 0.0567498
18764 2 0.0847191 0.738002 0.0407887
18763 1 0.0824178 0.734984 0.0349883
13327 1 0.0643688 0.726555 0.0574674
759 1 0.102986 0.725684 0.0482742
758 2 0.107079 0.731512 0.0425448
6871 1 0.112659 0.736378 0.0358088
757 1 0.111486 0.734904 0.0374422
21119 2 0.112461 0.750557 0.0491557
21118 1 0.114695 0.75254 0.0559515
21120 1 0.106466 0.750823 0.0423556
11350 1 0.104809 0.75176 0.0397068
11351 2 0.101674 0.754636 0.0327829
21581 2 0.131682 0.751682 0.0394541
21582 1 0.134213 0.749321 0.0324458
19289 2 0.131468 0.744275 0.059632
19288 1 0.131999 0.751938 0.0605917
11281 1 0.153433 0.749999 0.0469949
14342 2 0.156748 0.750041 0.0372666
14341 1 0.154596 0.749618 0.0442956
11282 2 0.150141 0.751275 0.0540231
4176 1 0.132197 0.755091 0.0604796
11563 1 0.126145 0.733421 0.0585051
19290 1 0.127994 0.736695 0.0589293
8502 1 0.158558 0.729061 0.0487773
6901 1 0.160868 0.730265 0.0495153
6902 2 0.167458 0.733491 0.0510403
6903 1 0.170091 0.7403 0.0531228
282 1 0.171668 0.743102 0.0540511
281 2 0.173412 0.750241 0.0562529
16250 2 0.0137928 0.78216 0.0372771
16249 1 0.00967258 0.781574 0.0439798
14383 1 0.00859969 0.781482 0.0468707
626 2 0.0294891 0.777424 0.0591817
21204 1 0.00170981 0.757205 0.0496283
14384 2 0.00623243 0.781684 0.0543304
21202 1 0.0069019 0.759343 0.0606019
15060 1 0.0458514 0.781785 0.031844
11720 2 0.034632 0.768974 0.0452269
11721 1 0.032964 0.771752 0.0511498
11719 1 0.0364853 0.761419 0.0481467
14889 1 0.0375101 0.759439 0.0495483
15465 1 0.0552695 0.765488 0.0471019
14501 2 0.0540496 0.760813 0.0363552
14502 1 0.0551813 0.763613 0.0439349
14500 1 0.0494535 0.759713 0.0305661
15464 2 0.055066 0.770536 0.0544432
15059 2 0.0472915 0.784481 0.0398728
625 1 0.0325871 0.773394 0.0534766
6049 1 0.0791171 0.756482 0.0308997
6050 2 0.0756254 0.757878 0.0387407
6929 2 0.093269 0.760621 0.0552517
9382 1 0.0961011 0.77164 0.0588397
6928 1 0.0956301 0.768748 0.0575196
8585 2 0.102369 0.772932 0.0396127
11352 1 0.100825 0.761888 0.0361319
8584 1 0.101226 0.764688 0.0371909
8586 1 0.105578 0.7793 0.0415223
5854 1 0.114723 0.771756 0.0503331
12903 1 0.106562 0.782012 0.0421422
5855 2 0.115565 0.774876 0.0577495
21580 1 0.127702 0.758666 0.0368816
17413 1 0.126468 0.760835 0.0344232
4175 2 0.132335 0.763535 0.0591162
6811 1 0.136053 0.772902 0.054903
6812 3 0.139557 0.779984 0.0528169
4174 1 0.134504 0.769829 0.0560804
11283 1 0.148614 0.758348 0.058352
6813 1 0.134634 0.785863 0.0504614
7868 2 0.0126023 0.808717 0.0332421
10590 1 0.0200347 0.795718 0.0483894
10589 2 0.0270483 0.795113 0.0439519
7869 1 0.0158719 0.812271 0.0403152
12573 1 0.0215341 0.813137 0.0600375
10358 2 0.0219781 0.815949 0.0494213
10359 1 0.0217384 0.814254 0.0574542
10357 1 0.0174316 0.813385 0.0428956
7585 1 0.0361401 0.798304 0.0497628
10588 1 0.0337538 0.797563 0.0482336
7586 2 0.0411209 0.800446 0.0549605
2910 1 0.0479907 0.79775 0.0329894
2909 2 0.0428283 0.803496 0.0336621
2908 1 0.0429925 0.811929 0.0344156
15058 1 0.0538919 0.78727 0.0416935
877 1 0.0563211 0.78827 0.0421689
878 2 0.0624093 0.792195 0.0436131
879 1 0.0619972 0.799851 0.0438177
5916 1 0.0618061 0.803276 0.0442101
5915 2 0.0611331 0.810067 0.0453022
586 1 0.0807212 0.791409 0.0502154
587 2 0.085965 0.79615 0.0439006
18933 1 0.0857712 0.806839 0.0406107
588 1 0.0861827 0.804132 0.0415785
18932 2 0.0837362 0.812817 0.0375363
18179 2 0.085027 0.815638 0.058488
12902 2 0.108977 0.789617 0.0435874
8923 1 0.125432 0.806306 0.0464492
9537 1 0.105013 0.795773 0.0530792
12901 1 0.105549 0.794024 0.050219
8924 2 0.120793 0.812707 0.045501
8925 1 0.114576 0.813472 0.0402693
4606 1 0.103501 0.815485 0.0398151
9910 1 0.103086 0.816488 0.0427061
4607 2 0.103897 0.810845 0.0324857
9536 2 0.103009 0.79952 0.0588956
21033 1 0.127296 0.803402 0.0463602
21032 2 0.130565 0.795918 0.0457209
21031 1 0.133593 0.78899 0.0492451
10658 2 0.0202631 0.837012 0.0467991
2197 1 0.0304486 0.840128 0.0519495
10657 1 0.0274275 0.839151 0.050204
20490 1 0.0108625 0.834995 0.0431878
10659 1 0.0134948 0.835702 0.044142
20489 2 0.00468852 0.832293 0.0412504
13453 1 0.0350487 0.82446 0.0563469
2198 2 0.0366135 0.842461 0.056917
17062 1 0.0401952 0.823326 0.0452561
13455 1 0.0407835 0.822462 0.047768
17063 2 0.0396499 0.8241 0.0371058
13454 2 0.0425243 0.821044 0.0543875
2199 1 0.0428166 0.840564 0.052033
16143 1 0.0454824 0.840015 0.0504209
16142 2 0.0519424 0.839131 0.0466286
16141 1 0.0589475 0.841792 0.0440402
14353 1 0.0614176 0.843713 0.0422678
5914 1 0.0639794 0.817339 0.0486959
15333 1 0.0647593 0.81966 0.0496732
15332 2 0.0684219 0.826467 0.0519887
18180 1 0.0917658 0.817507 0.0552956
18931 1 0.0842824 0.821554 0.0366172
19859 2 0.0859224 0.83197 0.0381174
19858 1 0.0847928 0.824519 0.036943
19860 1 0.0883952 0.839281 0.0401074
6588 1 0.0890362 0.842017 0.0411816
9912 1 0.0944544 0.818259 0.0540881
15331 1 0.0732763 0.830364 0.056466
13834 1 0.0748264 0.831665 0.0580742
8940 1 0.112776 0.82917 0.0440574
9911 2 0.101147 0.820488 0.0503846
8939 2 0.115087 0.835525 0.0492312
2818 1 0.0988756 0.842191 0.0332635
8938 1 0.115773 0.842405 0.0513517
14355 1 0.0729576 0.852301 0.0377294
6587 2 0.0902284 0.849803 0.043365
14354 2 0.0667819 0.84798 0.039065
12242 2 0.0704096 0.855859 0.0567198
12243 1 0.0743599 0.853819 0.05024
6586 1 0.0960086 0.852989 0.0475912
7414 1 0.110904 0.86485 0.040975
7415 2 0.111657 0.857413 0.0402342
7416 1 0.107473 0.85052 0.0405938
12148 1 0.119443 0.858422 0.0588981
1374 1 0.0587164 0.662077 0.0732993
20393 2 0.0689718 0.653021 0.0624712
20392 1 0.0713412 0.648757 0.0690076
2185 1 0.0727295 0.646889 0.0713955
2186 2 0.075696 0.642537 0.0762037
2187 1 0.0778179 0.644578 0.0841741
5032 1 0.0778902 0.644807 0.0872632
12816 1 0.070278 0.662566 0.062846
20394 1 0.0702963 0.660265 0.0628939
6553 1 0.00600086 0.667339 0.0833698
6554 3 0.0109606 0.670789 0.0892891
20727 1 0.0120254 0.687004 0.0675033
9816 1 0.0120075 0.687715 0.0708925
9814 1 0.0192314 0.688234 0.0838507
9815 3 0.0122764 0.689162 0.0792434
13824 1 0.0216469 0.687919 0.0858575
13823 3 0.0285036 0.68857 0.0898728
1373 2 0.050908 0.665844 0.0733504
1372 1 0.050559 0.672583 0.0687445
1513 1 0.0505956 0.67484 0.0673611
1514 2 0.0486957 0.683172 0.064851
1515 1 0.0470368 0.687671 0.0706526
1093 1 0.0466459 0.68996 0.0724384
3520 1 0.0767954 0.669459 0.0771219
3521 2 0.0760894 0.66904 0.083812
3522 1 0.0708377 0.66636 0.0897621
12815 2 0.0688557 0.670165 0.0618089
15983 2 0.0905817 0.690749 0.0742174
15982 1 0.0901555 0.686507 0.0806198
10560 1 0.0902945 0.685241 0.08372
12473 2 0.0692652 0.690026 0.0778404
10559 2 0.0911329 0.681815 0.0899821
4311 1 0.113322 0.673453 0.0794052
4310 2 0.112 0.676289 0.0732826
4309 1 0.111162 0.681957 0.0675954
18064 1 0.110768 0.684089 0.0659932
18065 2 0.110177 0.690517 0.0615318
9783 1 0.0116684 0.707747 0.0636042
432 1 0.0142028 0.70739 0.0651015
431 2 0.0206645 0.709079 0.068574
430 1 0.0256784 0.711478 0.0745719
10218 1 0.026928 0.711921 0.0770466
10217 3 0.0296983 0.712971 0.0840117
20611 1 0.0455642 0.711138 0.0623627
8509 1 0.0452824 0.712988 0.0642545
11355 1 0.0581184 0.709183 0.0640373
8510 2 0.0447232 0.719019 0.0695171
1094 2 0.0454283 0.696376 0.0766598
1095 1 0.049068 0.702169 0.0788045
6022 1 0.0510488 0.704106 0.0802855
6023 2 0.0555192 0.709601 0.0856867
6024 1 0.0610675 0.716047 0.0868377
2629 1 0.0872707 0.70033 0.0683417
2630 2 0.0861165 0.707545 0.0643556
15984 1 0.08835 0.697721 0.0696179
20371 1 0.0631235 0.718287 0.087087
11354 2 0.0637032 0.70342 0.0669031
12472 1 0.0681727 0.696033 0.0737941
11353 1 0.0674389 0.697967 0.0721051
12810 1 0.0769646 0.698519 0.0834029
12474 1 0.074701 0.695393 0.0821371
12809 2 0.0803535 0.70548 0.0846618
12808 1 0.087364 0.707995 0.0853082
5085 1 0.0890963 0.708953 0.0852811
13328 2 0.0717176 0.725469 0.0610551
20372 2 0.0691678 0.723836 0.0880125
20251 1 0.0912326 0.722263 0.0880907
5084 2 0.0951016 0.712249 0.0832944
1623 1 0.11397 0.700505 0.0632467
18066 1 0.112931 0.697875 0.0626217
1622 2 0.117634 0.707741 0.0653522
1621 1 0.118708 0.715005 0.0614955
9761 2 0.114857 0.723357 0.0808039
9760 1 0.112032 0.715455 0.0773851
5083 1 0.0978216 0.719424 0.0872819
6733 1 0.135755 0.71611 0.0818975
6734 2 0.142147 0.719739 0.0873621
2007 1 0.0142752 0.735844 0.0653561
13189 1 0.0125162 0.736742 0.0679881
4132 1 0.0213458 0.75244 0.0724016
13190 2 0.00769288 0.739483 0.0730385
13191 1 0.00769503 0.735897 0.0796627
10755 1 0.00779771 0.734624 0.0825363
10754 2 0.00861769 0.730576 0.0894172
14592 1 0.0164611 0.755369 0.0895733
14591 2 0.00901482 0.753368 0.0886219
14590 1 0.00209493 0.752345 0.0849263
11750 2 0.0406116 0.737387 0.0644322
11751 1 0.0422466 0.744493 0.0606556
11749 1 0.0424528 0.729504 0.0666869
8511 1 0.043056 0.726482 0.0673179
12977 2 0.0534871 0.740967 0.0841799
12978 1 0.0573759 0.74007 0.077964
16836 1 0.058887 0.740386 0.0754321
12976 1 0.04591 0.739352 0.0885918
16835 2 0.0624223 0.74099 0.0687814
16834 1 0.0621181 0.744774 0.0621951
1632 1 0.0428563 0.738414 0.0908052
13329 1 0.0774172 0.727132 0.0649345
2383 1 0.0800802 0.728102 0.0661791
2384 2 0.0868074 0.731061 0.0697882
11080 1 0.0906132 0.752568 0.0840326
11081 2 0.0841014 0.754536 0.0801128
2385 1 0.0939592 0.734501 0.0697636
20373 1 0.0719452 0.730926 0.0903206
13303 1 0.0728638 0.733896 0.0907351
6361 1 0.0964192 0.735483 0.0699507
6362 2 0.103264 0.73718 0.0702766
6363 1 0.10319 0.744536 0.07266
10968 1 0.104045 0.747366 0.0736538
10967 2 0.105019 0.754389 0.0756291
7842 1 0.119116 0.733803 0.0848047
9762 1 0.117894 0.731052 0.0835565
7841 2 0.123644 0.739989 0.086618
7840 1 0.13147 0.73965 0.0885133
280 1 0.17707 0.75487 0.0617388
4133 2 0.0277089 0.757187 0.0742307
12742 1 0.0193158 0.756273 0.0902719
627 1 0.0275866 0.783204 0.0649814
4839 1 0.0272236 0.785297 0.0668542
18312 1 0.0269417 0.775525 0.08321
13132 1 0.0237688 0.775762 0.0837001
13133 2 0.0157961 0.775733 0.0848681
13134 1 0.00921093 0.78021 0.085687
13115 2 0.00816402 0.766576 0.0689714
13114 1 0.00697663 0.761442 0.0630665
13116 1 0.00303923 0.771849 0.0735627
20118 1 0.003168 0.780462 0.0850125
4134 1 0.0358316 0.758995 0.07449
12684 1 0.0383545 0.759949 0.0741803
12683 2 0.0457011 0.761056 0.0740808
18311 2 0.0349286 0.775523 0.0829066
18310 1 0.0403162 0.777001 0.0779479
3316 1 0.0421453 0.777314 0.0756712
3318 1 0.0510881 0.77545 0.063812
12682 1 0.0519119 0.762219 0.0770974
7122 1 0.0545971 0.76306 0.0783999
3317 2 0.0473467 0.779726 0.0697119
7121 2 0.061315 0.765217 0.0830433
15463 1 0.0522556 0.773974 0.0618618
13250 2 0.0533963 0.783019 0.0895241
5221 1 0.0602846 0.7853 0.0818148
13251 1 0.0583002 0.784514 0.0841487
9384 1 0.090316 0.785545 0.0624345
15213 1 0.0731021 0.774216 0.0735619
7120 1 0.0668274 0.768732 0.0869063
13804 1 0.0685485 0.77046 0.0883445
15212 2 0.0776433 0.768014 0.0712657
15211 1 0.0793596 0.762315 0.0743857
11082 1 0.0803501 0.759675 0.0762523
13806 1 0.0800913 0.777563 0.0907653
21178 1 0.0819012 0.779186 0.090455
21179 2 0.0874718 0.784268 0.0893181
9383 2 0.0955587 0.779032 0.0620268
16527 1 0.10456 0.757782 0.0867721
10966 1 0.104593 0.757428 0.083286
5856 1 0.114135 0.775518 0.0658528
9735 1 0.11351 0.776069 0.0687931
9733 1 0.109838 0.780359 0.0844064
9734 2 0.111135 0.77807 0.0770461
20577 1 0.109532 0.780917 0.0879074
4390 1 0.121652 0.786196 0.0616359
6508 1 0.178066 0.756659 0.0638396
6510 1 0.184468 0.768393 0.0727418
6509 3 0.180728 0.763047 0.0683383
14346 1 0.0116535 0.809743 0.0833964
4838 2 0.0269979 0.791334 0.071114
12571 1 0.0224482 0.800872 0.068716
4837 1 0.0232222 0.798304 0.0692685
14345 2 0.017448 0.808972 0.0886673
12572 2 0.0215914 0.80868 0.0671704
14783 2 0.00484668 0.811912 0.0779238
14782 1 0.00966946 0.809969 0.0814805
19720 1 0.0450392 0.805022 0.0789893
7587 1 0.0399532 0.804006 0.0620805
9897 1 0.0472002 0.805424 0.0764033
9896 2 0.0530139 0.805485 0.0714112
9895 1 0.0603403 0.809155 0.0680127
19721 2 0.0405233 0.803861 0.0851086
1299 1 0.040759 0.816498 0.076297
10381 1 0.0872214 0.786982 0.0628772
10382 2 0.0789186 0.789666 0.0636042
5222 2 0.066007 0.788628 0.076449
10383 1 0.0747881 0.789017 0.0697561
5223 1 0.0726971 0.788783 0.0715921
2059 1 0.0630417 0.810192 0.0674203
2060 2 0.0700646 0.812292 0.0668477
9317 2 0.0811126 0.807959 0.0855359
5691 1 0.0902952 0.80812 0.0795859
9316 1 0.0879311 0.808294 0.0812932
2061 1 0.0765982 0.814459 0.0631667
18178 1 0.0787619 0.815059 0.0619872
8217 1 0.0709359 0.809306 0.0884222
9318 1 0.0735714 0.80873 0.0870639
9535 1 0.0999933 0.803167 0.0651856
5689 1 0.0990087 0.804245 0.0676981
5690 2 0.0954379 0.807646 0.0734171
6983 2 0.113342 0.802063 0.0783059
4392 1 0.11781 0.796493 0.0715628
6982 1 0.116265 0.798086 0.0737397
6984 1 0.110601 0.806994 0.0851974
4391 2 0.121109 0.792508 0.067148
1297 1 0.0307279 0.825555 0.0710406
14163 1 0.0278799 0.826509 0.0703916
14162 2 0.0208721 0.828587 0.0679307
14161 1 0.0139598 0.830921 0.0653291
9613 1 0.0111863 0.832164 0.064855
9701 2 0.0276492 0.837222 0.0878659
9614 3 0.00487254 0.834936 0.064313
9615 1 0.00026481 0.841263 0.0635814
1298 2 0.0377748 0.824402 0.0745596
11952 1 0.0382009 0.840821 0.0852398
9700 1 0.0349784 0.839499 0.0852872
16593 1 0.0548887 0.831846 0.0650206
931 1 0.0593172 0.829392 0.0818111
16591 1 0.0592553 0.829359 0.0789287
16592 2 0.058748 0.830417 0.0718042
932 2 0.0603016 0.829849 0.0896511
11951 2 0.0444378 0.845192 0.0840173
11950 1 0.0496847 0.847226 0.0777916
13835 2 0.0790358 0.835533 0.0646848
13836 1 0.0859026 0.833795 0.0691099
17419 1 0.0887685 0.832947 0.071226
17420 2 0.0944165 0.829155 0.075383
17421 1 0.0979607 0.825106 0.0816288
12858 1 0.0990339 0.823502 0.0841475
12857 2 0.101555 0.818715 0.0906177
4549 1 0.0620037 0.853566 0.0636113
4550 2 0.0566156 0.851153 0.0698753
4551 1 0.0515612 0.848102 0.0760046
12241 1 0.0639479 0.854343 0.0618067
16753 1 0.0927588 0.852196 0.0825767
2034 1 0.0911214 0.853398 0.0793129
16754 2 0.0942738 0.848271 0.0890052
2033 2 0.0871366 0.858649 0.073184
2032 1 0.0836887 0.865381 0.0702069
12150 1 0.116052 0.856276 0.0743805
12149 2 0.11851 0.855529 0.0662182
12298 1 0.058245 0.659843 0.10411
18727 1 0.0556865 0.659661 0.105636
18728 2 0.0488988 0.659005 0.109841
14789 3 0.0826252 0.647607 0.112318
14788 1 0.0809183 0.646672 0.104545
5034 1 0.0801923 0.645977 0.101364
5033 3 0.0793913 0.645079 0.0940406
14790 1 0.0829207 0.648628 0.120998
12299 2 0.0649235 0.662335 0.0991763
6555 1 0.0148696 0.671997 0.0965158
20563 1 0.0158298 0.671808 0.0995784
20564 2 0.0182591 0.67159 0.106704
20565 1 0.0184719 0.675751 0.114202
5893 1 0.0185026 0.677095 0.116756
18729 1 0.0501835 0.665822 0.112349
15639 1 0.0508704 0.668303 0.113842
14051 2 0.0382695 0.68488 0.106455
14050 1 0.0457977 0.687188 0.105768
2092 1 0.0485226 0.688495 0.105483
2093 2 0.0553522 0.691164 0.104256
13822 1 0.0321291 0.686987 0.0970263
14052 1 0.0337789 0.686007 0.0999988
15637 1 0.0583127 0.679219 0.118956
15638 2 0.0528429 0.673961 0.116749
11103 1 0.0612369 0.680802 0.11959
12300 1 0.069326 0.665257 0.091931
10558 1 0.0872691 0.682509 0.0968026
20784 1 0.086141 0.682251 0.0993777
20783 2 0.0836626 0.68205 0.106787
20782 1 0.0912069 0.681313 0.109785
17097 1 0.0938824 0.681224 0.110529
11933 2 0.109137 0.693352 0.0914576
11934 1 0.103989 0.687195 0.0923054
17096 2 0.103115 0.6823 0.112716
17095 1 0.111153 0.685723 0.111257
19231 1 0.114517 0.686759 0.110655
19232 2 0.122383 0.690117 0.108943
19233 1 0.131186 0.688623 0.110854
10216 1 0.0315131 0.711997 0.0919282
19071 1 0.0140125 0.722913 0.114449
5676 1 0.015079 0.721756 0.116513
15411 1 0.0290077 0.699082 0.110074
15410 2 0.0269199 0.701144 0.118211
15409 1 0.0218776 0.695488 0.119656
13939 1 0.0327044 0.711462 0.094739
13941 1 0.0388074 0.711336 0.107792
13940 2 0.0350527 0.708734 0.101143
2094 1 0.0624432 0.696645 0.102637
4705 1 0.0396584 0.712031 0.110245
4706 2 0.0430764 0.715614 0.117299
14916 1 0.0646688 0.698239 0.102452
14016 1 0.0653221 0.720487 0.117809
7563 1 0.0647019 0.718785 0.120192
14015 2 0.0654268 0.723827 0.110248
14915 2 0.0682762 0.703476 0.101767
14914 1 0.0745869 0.706581 0.102778
13119 1 0.0771787 0.707204 0.103469
13118 2 0.0846142 0.709828 0.106223
13117 1 0.0925878 0.714024 0.107486
11932 1 0.115153 0.698147 0.093064
4546 1 0.0957788 0.715898 0.108249
12603 1 0.1175 0.700808 0.0934609
12602 2 0.122599 0.706219 0.0940327
4547 2 0.103344 0.719074 0.11012
4548 1 0.109655 0.72395 0.109621
14925 1 0.112303 0.725184 0.109433
21310 1 0.11931 0.700085 0.118754
12601 1 0.128453 0.711125 0.0932543
6735 1 0.141217 0.721908 0.0950269
16423 1 0.141522 0.714736 0.106207
16425 1 0.152368 0.713724 0.118221
16424 2 0.146384 0.715118 0.113263
10753 1 0.00864916 0.728598 0.0978469
18089 2 0.0179671 0.745339 0.107987
1810 1 0.0085559 0.747977 0.114858
18090 1 0.0108765 0.746982 0.112948
18088 1 0.0258915 0.74428 0.110831
15799 1 0.0287842 0.743987 0.112778
19069 1 0.00909279 0.727664 0.100686
1630 1 0.0289655 0.738895 0.0967476
19070 2 0.00965196 0.726647 0.107933
1811 2 0.00251686 0.749416 0.119088
1631 2 0.0369174 0.737128 0.0960656
15800 2 0.0361284 0.743449 0.116963
15801 1 0.043343 0.743889 0.11678
15673 1 0.0457306 0.744367 0.117075
15674 2 0.0527736 0.746715 0.118546
15675 1 0.0608051 0.747307 0.119847
3438 1 0.0590378 0.753997 0.106781
14014 1 0.0656765 0.729092 0.103188
13305 1 0.0713123 0.746909 0.0975977
3436 1 0.0696356 0.748995 0.0988688
13304 2 0.0752865 0.741556 0.0922935
20252 2 0.0905894 0.729171 0.0925199
20076 1 0.0786037 0.754446 0.107285
20074 1 0.0876222 0.747549 0.106296
20075 2 0.086331 0.75416 0.102682
18241 1 0.0883349 0.745425 0.107405
15723 1 0.0642439 0.747909 0.120523
18242 2 0.0896033 0.739031 0.111689
3437 2 0.0653302 0.754067 0.102066
18243 1 0.087942 0.734435 0.117679
3949 1 0.0868069 0.731992 0.119717
20918 2 0.104869 0.741116 0.0957966
14924 2 0.120491 0.729121 0.108997
20253 1 0.0969306 0.734365 0.0937011
1564 1 0.110924 0.748215 0.118205
1566 1 0.120346 0.745622 0.108104
20917 1 0.0988749 0.736094 0.0944671
20919 1 0.106931 0.748939 0.0956492
1565 2 0.115823 0.748441 0.112796
16525 1 0.107063 0.751976 0.0947973
14923 1 0.129444 0.730565 0.108468
18384 1 0.132177 0.731025 0.108274
18383 2 0.140592 0.73369 0.108085
18382 1 0.149041 0.732372 0.110571
12743 2 0.0263711 0.758561 0.0939073
12598 1 0.0255402 0.773299 0.109084
12599 2 0.0223566 0.778445 0.104747
14965 1 0.0272957 0.771305 0.110515
12600 1 0.0259575 0.7841 0.100827
15511 1 0.0272169 0.78573 0.0999124
14967 1 0.0266488 0.757972 0.113616
14966 2 0.0306281 0.764907 0.114421
12744 1 0.0331047 0.757269 0.0975438
14853 1 0.036465 0.756927 0.0989387
14852 2 0.0434796 0.75799 0.100899
14851 1 0.0482957 0.764282 0.104931
21132 1 0.0497715 0.767282 0.106009
21131 2 0.0539333 0.773556 0.109078
21130 1 0.0575059 0.780338 0.109097
3312 1 0.0587163 0.783213 0.108637
13249 1 0.0593752 0.781206 0.0956152
13805 2 0.0738701 0.774043 0.0918531
16332 1 0.0684399 0.769718 0.108147
469 1 0.0843866 0.771955 0.110088
16330 1 0.0813511 0.771976 0.111207
16331 2 0.0738682 0.772327 0.113541
470 2 0.0929036 0.773841 0.108408
16526 2 0.106211 0.759006 0.093849
20576 2 0.108271 0.782795 0.0961903
471 1 0.100187 0.770883 0.108523
12874 1 0.103185 0.77046 0.108835
12876 1 0.11585 0.763263 0.114007
12875 2 0.110875 0.768781 0.111574
14344 1 0.0229863 0.812534 0.0935969
21280 1 0.0250633 0.813599 0.0956287
20117 2 0.00104264 0.786745 0.0909618
20116 1 0.000847913 0.792344 0.0966184
15512 2 0.0321404 0.791775 0.0973584
19722 1 0.0366677 0.799738 0.091618
15513 1 0.035078 0.798104 0.0939775
3311 2 0.0628662 0.789261 0.106452
1832 2 0.0490727 0.814269 0.103569
1833 1 0.0554598 0.811352 0.0995113
8215 1 0.057668 0.811014 0.097178
21180 1 0.0906859 0.791356 0.0928821
4497 1 0.0921836 0.793846 0.0938562
8216 2 0.0639061 0.810646 0.0918223
3310 1 0.0684232 0.794488 0.108568