ITEM: TIMESTEP
30000000
ITEM: NUMBER OF ATOMS
10320
ITEM: BOX BOUNDS pp pp pp
0.0000000000000000e+00 5.0000000000000000e+01
0.0000000000000000e+00 5.0000000000000000e+01
0.0000000000000000e+00 5.0000000000000000e+01
ITEM: ATOMS id type xs ys zs
13215 1 0.0800088 0.0273347 0.0254615
13214 3 0.0786273 0.019482 0.0256675
13213 1 0.0806936 0.0141822 0.0213621
16535 2 0.167441 0.00659872 0.0293613
16534 1 0.163511 0.00130015 0.0250293
5596 1 0.34926 0.00561475 0.00272267
11851 1 0.24348 0.0363882 0.00657907
8258 3 0.403905 0.0417326 0.0123802
8257 1 0.403222 0.034353 0.00810169
3979 1 0.397597 0.0497042 0.018163
8259 1 0.399321 0.0474487 0.016227
3980 2 0.394182 0.0543924 0.0238688
7475 3 0.473628 0.0462476 0.0178553
7474 1 0.477234 0.043786 0.0112354
7476 1 0.476976 0.0486359 0.0250044
11725 1 0.478169 0.04953 0.0279141
8348 3 0.496239 0.0474794 0.0102335
8349 1 0.503716 0.0505631 0.0080978
8347 1 0.494599 0.0466608 0.0182094
5373 1 0.249703 0.0631522 0.0181059
5372 2 0.244046 0.0657935 0.0248471
7765 1 0.111439 0.148515 0.0192362
10981 1 0.11063 0.146062 0.0210573
10982 3 0.109365 0.139988 0.0269521
8667 1 0.261273 0.129252 0.00611253
8666 3 0.266328 0.125852 0.0119994
8665 1 0.272626 0.130543 0.0123888
9948 1 0.40988 0.132112 0.0258648
9947 2 0.41519 0.138752 0.0246154
9946 1 0.422771 0.141138 0.0278303
16977 1 0.425236 0.142335 0.0289827
9663 1 0.430348 0.121469 0.0299777
7767 1 0.110734 0.160717 0.0118115
7766 3 0.113704 0.155277 0.0151351
14619 1 0.153977 0.167073 0.00546453
14618 2 0.161193 0.163555 0.00667307
14617 1 0.167646 0.160333 0.00626919
15354 1 0.409691 0.197045 0.0184819
15352 1 0.423047 0.203977 0.0187835
15353 3 0.418127 0.197913 0.0193326
4308 1 0.0706113 0.246809 0.0264038
4306 1 0.0849874 0.244163 0.0252332
4307 3 0.077697 0.246751 0.022463
14011 1 0.378736 0.291978 0.0110995
14012 2 0.381978 0.290406 0.00431223
9071 2 0.151759 0.328669 0.0134564
9070 1 0.153939 0.321836 0.0144005
12531 1 0.142525 0.353376 0.0205226
19056 1 0.143075 0.350432 0.0214484
19055 3 0.145067 0.343106 0.0233238
9072 1 0.149291 0.334622 0.0183425
19054 1 0.1481 0.337 0.0201895
21196 1 0.279668 0.357558 0.00131223
12530 3 0.143658 0.361486 0.0200882
12529 1 0.146106 0.36784 0.0183417
1783 1 0.171863 0.415881 0.0207406
1784 2 0.167157 0.415598 0.0280162
8450 3 0.172933 0.437791 0.00894669
8451 1 0.173513 0.443599 0.0143782
8449 1 0.178357 0.431782 0.00569497
1472 3 0.483917 0.437553 0.000268999
1471 1 0.477271 0.436703 0.00417849
18854 3 0.0771317 0.488824 0.00109988
18853 1 0.0809549 0.487987 0.00767597
18915 1 0.163424 0.504084 0.0231446
3572 3 0.0605774 0.0281368 0.0546648
3573 1 0.0569918 0.0251416 0.0598576
9985 1 0.0345502 0.00308834 0.0515182
9498 1 0.158825 0.0295935 0.0344261
19774 1 0.176739 0.0299302 0.0355958
19775 3 0.182994 0.027631 0.0322783
16536 1 0.171597 0.011629 0.0315756
19776 1 0.191699 0.02567 0.0331178
19626 1 0.0238407 0.0330783 0.0564073
3571 1 0.0596048 0.0307667 0.0475344
9496 1 0.173914 0.0309325 0.0364388
9497 2 0.166196 0.0335908 0.0362885
8533 1 0.321228 0.0527487 0.052973
8534 3 0.325014 0.0489732 0.0470252
8535 1 0.327452 0.0459526 0.0405223
3981 1 0.396168 0.0580928 0.0317007
11051 2 0.400711 0.0401201 0.0566899
11052 1 0.402676 0.0340814 0.0515189
11727 1 0.475271 0.051587 0.0426129
11726 3 0.48031 0.051928 0.0354978
5371 1 0.245136 0.0680433 0.0337975
18775 1 0.339357 0.0820982 0.042995
18776 3 0.33299 0.0829169 0.0467561
18777 1 0.328816 0.088359 0.0500512
20391 1 0.423993 0.0829818 0.0433885
20390 3 0.430442 0.0848611 0.0390973
8920 1 0.314199 0.108599 0.04053
8921 3 0.312918 0.102613 0.0375218
8922 1 0.304853 0.0994641 0.0377691
20399 3 0.323171 0.0971109 0.0568659
20398 1 0.327084 0.0903762 0.0521642
20389 1 0.435462 0.0913281 0.0389489
8985 1 0.437387 0.0931366 0.0395258
8984 3 0.441747 0.0982747 0.0425108
8983 1 0.445963 0.10345 0.0468706
18665 3 0.0948717 0.126346 0.0589554
599 3 0.103513 0.132945 0.04334
598 1 0.101855 0.12954 0.0496162
10983 1 0.106061 0.137431 0.0331213
600 1 0.105071 0.136416 0.0358513
18664 1 0.100261 0.128134 0.0524826
9662 2 0.438993 0.122323 0.0303267
16976 2 0.432448 0.146135 0.0318723
16443 1 0.448114 0.12889 0.0315452
9661 1 0.445604 0.127213 0.0314303
16442 2 0.455703 0.134293 0.0324182
3636 1 0.475607 0.149509 0.0369905
3635 2 0.470385 0.142907 0.0361227
16441 1 0.462057 0.137957 0.0346441
3634 1 0.464283 0.139267 0.035141
16975 1 0.436634 0.15219 0.0344447
9819 1 0.0187642 0.207654 0.0556488
9818 3 0.0144688 0.209193 0.0498722
9817 1 0.0162232 0.210652 0.0424534
14184 1 0.314282 0.189045 0.0466245
14183 2 0.321084 0.18552 0.0475658
14182 1 0.329196 0.185479 0.0456756
7428 1 0.136834 0.234602 0.0594289
7427 2 0.131972 0.228626 0.0565149
1049 3 0.182667 0.254218 0.059723
1050 1 0.187833 0.260774 0.0596861
9555 1 0.189987 0.262913 0.0599851
9554 3 0.194392 0.269704 0.0597485
17908 1 0.218726 0.26257 0.0535624
17909 3 0.221792 0.268402 0.0570958
17910 1 0.220255 0.27582 0.0572695
21583 1 0.132377 0.307281 0.032936
21585 1 0.142227 0.310989 0.0392861
21584 2 0.133849 0.311776 0.0388897
17406 1 0.250752 0.374582 0.0500784
16801 1 0.248026 0.374405 0.0493186
16803 1 0.235281 0.378022 0.0523923
16802 2 0.239928 0.374724 0.0475843
17405 2 0.258252 0.3759 0.0517181
17404 1 0.263853 0.378714 0.0548329
6243 1 0.334741 0.390037 0.0358381
6505 1 0.147705 0.413866 0.0576001
1785 1 0.166041 0.420485 0.0340615
6242 3 0.328321 0.393999 0.0384994
6241 1 0.322374 0.399649 0.0420805
3868 1 0.39094 0.396497 0.0372311
3869 2 0.394375 0.403703 0.039072
3870 1 0.393117 0.412809 0.0390088
6344 3 0.10529 0.445265 0.0602322
6345 1 0.107655 0.452156 0.0556096
9799 1 0.170547 0.511776 0.0537138
9801 1 0.164986 0.511061 0.0402887
18913 1 0.164654 0.510168 0.0380694
18914 3 0.163795 0.506667 0.0303267
17720 2 0.0129985 0.00459126 0.0654591
19625 2 0.0226088 0.0290658 0.0627974
19624 1 0.0223289 0.0201113 0.0643231
17719 1 0.0194921 0.00859594 0.0688662
12709 1 0.0694594 0.0070656 0.0845796
12658 1 0.199412 0.00394099 0.0879989
12057 1 0.359558 0.0282972 0.0850396
17048 3 0.412289 0.019464 0.0826976
17049 1 0.40949 0.0156804 0.0889632
17047 1 0.413238 0.0208888 0.0752265
11050 1 0.400112 0.0422562 0.0635487
7293 1 0.27437 0.0813587 0.0701489
7291 1 0.26931 0.0851505 0.0853761
7292 2 0.272918 0.0869609 0.0778909
7783 1 0.287833 0.0700374 0.0831683
8691 1 0.305573 0.100779 0.0780499
21481 1 0.30806 0.0995604 0.0767309
21482 3 0.314504 0.0965115 0.0742563
8689 1 0.294496 0.107631 0.0856232
8690 2 0.299167 0.104604 0.0810129
20400 1 0.319785 0.0969745 0.0651492
21483 1 0.318761 0.0970985 0.0678812
6280 1 0.0410635 0.137895 0.0907711
18181 1 0.0430505 0.136802 0.0895948
18182 3 0.0495785 0.133611 0.0857768
18183 1 0.0522286 0.126021 0.0838518
19652 3 0.0881485 0.129167 0.0757154
19651 1 0.0915007 0.12818 0.0688652
18666 1 0.0930055 0.128138 0.0660523
19653 1 0.0922854 0.131128 0.0820228
3429 1 0.094198 0.132753 0.0842968
3428 2 0.0980284 0.136314 0.0895887
1581 1 0.311385 0.132322 0.0770506
18732 1 0.31311 0.134819 0.0762194
18731 2 0.317808 0.141295 0.0741768
1580 3 0.306532 0.12622 0.0784243
1579 1 0.3023 0.123351 0.0855689
18730 1 0.326262 0.143845 0.0753137
7500 1 0.202732 0.172093 0.0696383
7499 2 0.200215 0.177132 0.0659231
7498 1 0.194112 0.180805 0.0648079
7163 3 0.321251 0.206819 0.0707716
7162 1 0.326765 0.202795 0.0660067
20951 3 0.410339 0.209495 0.0704973
9241 1 0.443047 0.18217 0.0867768
19938 1 0.441986 0.183522 0.08483
19937 3 0.438593 0.188632 0.0788305
19936 1 0.433884 0.196051 0.0793234
20950 1 0.416278 0.205009 0.0661845
3389 3 0.424942 0.199066 0.0631181
3390 1 0.425153 0.191383 0.067713
3388 1 0.418665 0.203689 0.0652088
21050 2 0.120778 0.212334 0.0878642
12731 3 0.12617 0.216593 0.0704667
12730 1 0.123404 0.214386 0.0776682
21051 1 0.122591 0.213861 0.0804263
7426 1 0.130326 0.223166 0.0611718
12732 1 0.129406 0.221294 0.0637746
13369 1 0.190617 0.23202 0.0691675
13370 3 0.18667 0.239264 0.0709637
14069 2 0.25364 0.226612 0.0729977
14068 1 0.25417 0.225548 0.0645027
14070 1 0.258562 0.224997 0.0795614
7164 1 0.318829 0.213871 0.0706831
20952 1 0.406117 0.214119 0.0727247
13371 1 0.183635 0.246026 0.0664233
1048 1 0.183214 0.248211 0.0645642
6651 1 0.190025 0.268756 0.0707472
6650 2 0.186484 0.267833 0.07854
9553 1 0.191108 0.269055 0.0680206
6649 1 0.186594 0.271641 0.0856428
6609 1 0.231634 0.32855 0.086529
6506 2 0.14932 0.421372 0.0613455
6343 1 0.104239 0.438883 0.0643941
6515 2 0.157751 0.438211 0.065621
6507 1 0.152406 0.428089 0.0626068
6514 1 0.153959 0.431213 0.0632657
6516 1 0.165319 0.437578 0.0676848
16418 3 0.44659 0.445783 0.0905421
5731 1 0.227324 0.462785 0.0881586
21193 1 0.295712 0.476941 0.087568
16417 1 0.443603 0.45224 0.0887532
18129 1 0.506888 0.480559 0.083084
12711 1 0.0649764 0.00729041 0.0973154
12710 3 0.0696853 0.00437499 0.0912198
20980 1 0.0673722 0.020678 0.110265
20981 3 0.0726312 0.0146328 0.110967
20982 1 0.0795288 0.0127888 0.106434
12659 2 0.20043 0.00147534 0.0964785
12056 3 0.362699 0.0224301 0.0911623
12055 1 0.366229 0.0205287 0.0976569
5745 1 0.392696 0.0101079 0.113876
5744 3 0.398454 0.0130107 0.107529
5743 1 0.406234 0.0156275 0.10635
6105 1 0.408688 0.0170796 0.106367
4104 1 0.438164 0.0175388 0.100008
5277 1 0.441672 0.0297932 0.113737
5276 2 0.439478 0.0271193 0.11985
6104 2 0.414963 0.0216942 0.106347
6103 1 0.422423 0.0194874 0.104806
4102 1 0.425371 0.0177774 0.103987
4103 2 0.431194 0.0134366 0.10184
2392 1 0.284005 0.0553608 0.114351
2393 3 0.28786 0.0584502 0.10889
18798 1 0.0197731 0.0897983 0.109293
7784 2 0.290231 0.0680348 0.0916719
7785 1 0.290364 0.0640111 0.099239
2394 1 0.289794 0.062741 0.102184
18797 2 0.0225661 0.0957815 0.114331
18796 1 0.0277438 0.102471 0.116412
11802 1 0.186349 0.115302 0.104653
6220 1 0.186307 0.0970459 0.110994
6221 3 0.18526 0.0938907 0.118193
183 1 0.276266 0.092131 0.1017
182 2 0.282037 0.0972024 0.103614
181 1 0.287531 0.100707 0.0997418
6282 1 0.0267094 0.144122 0.0951514
6281 2 0.0337158 0.140714 0.0929337
3427 1 0.105636 0.139124 0.0911915
11801 3 0.189622 0.122937 0.103407
11800 1 0.195369 0.128164 0.103342
15472 1 0.316594 0.132168 0.113391
15473 2 0.309759 0.134445 0.117426
9242 2 0.445875 0.176665 0.093303
9243 1 0.446282 0.173247 0.100829
21049 1 0.120826 0.210106 0.0962105
6246 1 0.116886 0.20366 0.113604
6244 1 0.121149 0.208691 0.0989219
6245 3 0.11854 0.204673 0.105817
13548 1 0.112859 0.21331 0.118877
13547 3 0.105351 0.216267 0.116078
13546 1 0.102622 0.219129 0.109757
13435 1 0.204035 0.293953 0.116402
13436 3 0.196761 0.296327 0.111475
13437 1 0.195767 0.302105 0.105418
10570 1 0.212697 0.32538 0.110246
6608 3 0.227082 0.326316 0.0928112
6607 1 0.229171 0.322673 0.100513
20302 1 0.392506 0.321681 0.115523
9295 1 0.415454 0.317882 0.117158
13900 1 0.200253 0.336948 0.115705
10572 1 0.201738 0.33606 0.113838
10571 2 0.20658 0.331604 0.107677
16419 1 0.443098 0.439092 0.0922881
5733 1 0.23135 0.472518 0.0997966
5732 2 0.229056 0.468247 0.0949272
11855 3 0.284122 0.455533 0.0932164
11854 1 0.280158 0.456794 0.0996011
204 1 0.278488 0.45677 0.101854
203 3 0.274624 0.458922 0.106445
202 1 0.269743 0.464934 0.107488
21194 2 0.290723 0.472557 0.0927338
21195 1 0.288645 0.465332 0.0932944
11856 1 0.28781 0.462544 0.0935583
6081 1 0.312242 0.470375 0.115586
6079 1 0.324452 0.476567 0.112851
6080 3 0.318336 0.475749 0.118131
11034 1 0.484718 0.46146 0.111231
11033 3 0.482953 0.457697 0.117917
20204 3 0.310791 0.49111 0.0977196
20205 1 0.316124 0.491957 0.104507
20203 1 0.305528 0.488911 0.103717
11964 1 0.307915 0.501988 0.119181
9491 2 0.317199 0.497624 0.116287
9492 1 0.310283 0.500898 0.118364
6316 1 0.325243 0.500101 0.109771
9490 1 0.323439 0.499061 0.111478
6318 1 0.332918 0.504278 0.0961772
6317 2 0.330332 0.501403 0.104066
13699 1 0.383631 0.507453 0.107762
8841 1 0.354581 0.0130958 0.142394
8839 1 0.35406 0.0271443 0.13701
8840 3 0.354404 0.0190991 0.137569
5275 1 0.440509 0.020961 0.126014
2222 3 0.465446 0.0592893 0.148579
2221 1 0.465097 0.051376 0.145918
18104 3 0.183373 0.0705818 0.135938
18103 1 0.183197 0.0704349 0.127806
18105 1 0.179595 0.0748689 0.142583
8881 1 0.178678 0.076374 0.144951
8883 1 0.169294 0.077854 0.14789
8882 3 0.176344 0.0805042 0.151383
2223 1 0.466126 0.0664151 0.145928
9861 1 0.152314 0.099028 0.126635
9860 3 0.158774 0.102353 0.126524
8775 1 0.190587 0.0943391 0.128104
9477 1 0.168207 0.108109 0.129428
9859 1 0.165608 0.106731 0.12813
9476 3 0.173785 0.1141 0.13184
6222 1 0.188533 0.0939614 0.125869
9475 1 0.178008 0.119181 0.130993
8773 1 0.19486 0.101905 0.139178
8774 3 0.194619 0.0969221 0.133057
11379 1 0.429423 0.11405 0.130982
11377 1 0.42732 0.0989636 0.130739
11378 3 0.428395 0.106807 0.131089
15474 1 0.307365 0.137561 0.125218
3805 1 0.376561 0.140545 0.140366
3807 1 0.38874 0.139488 0.133579
5640 1 0.390841 0.138955 0.13153
5639 2 0.397722 0.137844 0.126598
5638 1 0.398753 0.142797 0.121446
3806 3 0.383798 0.140992 0.139393
17948 3 0.430948 0.121588 0.149649
10072 1 0.433743 0.132628 0.147676
17949 1 0.432855 0.129452 0.148122
10074 1 0.437012 0.146291 0.141735
10073 2 0.436783 0.140893 0.14722
17353 1 0.0164796 0.177797 0.146542
21190 1 0.462799 0.20372 0.144645
21192 1 0.457932 0.204126 0.130082
21191 2 0.457386 0.202985 0.138533
10722 1 0.0644642 0.235442 0.138259
10721 2 0.0688504 0.234841 0.143845
10720 1 0.0747596 0.231953 0.147953
9297 1 0.40416 0.321259 0.125846
20304 1 0.401592 0.321679 0.12553
9296 2 0.412495 0.320137 0.125275
20303 2 0.394237 0.325303 0.123096
19112 2 0.0619827 0.360072 0.146223
18542 2 0.181614 0.342059 0.133423
18541 1 0.188022 0.341737 0.128211
18543 1 0.178031 0.343271 0.140665
13901 3 0.196578 0.339373 0.122158
13902 1 0.190838 0.341095 0.126594
1428 1 0.0284349 0.374577 0.130048
1426 1 0.0236279 0.38413 0.140887
1427 3 0.0238019 0.379298 0.135269
15687 1 0.0238 0.38587 0.14295
15686 2 0.024596 0.390597 0.149834
9431 3 0.0594935 0.373578 0.133119
9432 1 0.0562025 0.376459 0.125426
9430 1 0.0612551 0.367735 0.137875
19111 1 0.0616381 0.365305 0.139982
14265 1 0.328511 0.385641 0.138784
14264 3 0.329252 0.385694 0.146491
4465 1 0.307384 0.401791 0.129386
4466 3 0.313242 0.405262 0.134597
4467 1 0.319147 0.409039 0.137964
1650 1 0.195674 0.450904 0.126796
1649 2 0.193469 0.447389 0.134249
11011 1 0.195093 0.44079 0.143062
1648 1 0.194103 0.442521 0.140567
11012 2 0.198452 0.437098 0.148804
13957 1 0.206229 0.428641 0.149943
11013 1 0.204127 0.430839 0.149462
13958 3 0.210562 0.423268 0.151388
11032 1 0.478739 0.454252 0.12418
18944 3 0.274101 0.493322 0.148088
18945 1 0.281415 0.495923 0.148802
20584 1 0.308392 0.4878 0.149528
11963 2 0.301056 0.506381 0.122379
8423 3 0.468493 0.489364 0.129463
8424 1 0.474653 0.490466 0.124902
8422 1 0.461762 0.491922 0.132638
8583 1 0.325311 0.00114804 0.179247
868 1 0.0584788 0.117965 0.16204
869 2 0.0572424 0.111273 0.161784
870 1 0.0612681 0.10487 0.164073
8527 1 0.2209 0.108467 0.178456
8528 3 0.224677 0.108053 0.173052
8529 1 0.228471 0.108693 0.165934
17947 1 0.431945 0.114951 0.153757
18837 1 0.110279 0.176675 0.164972
10204 1 0.27077 0.174694 0.164806
10206 1 0.268157 0.165942 0.178712
4407 1 0.268275 0.164781 0.180876
10205 2 0.269787 0.169109 0.170471
17355 1 0.0128476 0.185422 0.157566
17354 3 0.0173082 0.183968 0.151694
18836 2 0.108861 0.184615 0.164165
18835 1 0.108601 0.193458 0.165774
1185 1 0.18993 0.225318 0.167394
1183 1 0.202695 0.226675 0.175607
14479 1 0.205038 0.227909 0.176885
14480 3 0.211106 0.231551 0.180354
1184 2 0.195995 0.222413 0.172962
4948 1 0.469887 0.241775 0.173965
4949 3 0.470856 0.247415 0.167502
4950 1 0.475842 0.248116 0.161195
9079 1 0.495897 0.330325 0.163091
19113 1 0.0651809 0.354384 0.15156
17166 1 0.101588 0.357758 0.165884
17165 3 0.0960701 0.357845 0.169476
9080 3 0.49528 0.336036 0.168952
9081 1 0.492894 0.335822 0.176743
16434 1 0.49194 0.336027 0.179293
10618 1 0.0315087 0.387028 0.156035
15685 1 0.0295053 0.387975 0.154173
10619 2 0.0348794 0.383785 0.162717
10620 1 0.0356514 0.384163 0.170697
1060 1 0.0365958 0.384668 0.173597
17164 1 0.0928174 0.365523 0.168693
18486 1 0.180143 0.381177 0.181117
18485 2 0.172027 0.379929 0.178508
18484 1 0.165146 0.376004 0.175637
14263 1 0.329548 0.387312 0.154311
13959 1 0.217918 0.420885 0.154015
21565 1 0.322761 0.403755 0.157333
21567 1 0.325938 0.394022 0.163516
21566 3 0.32893 0.400922 0.160505
2536 1 0.276661 0.481851 0.176243
5875 1 0.276318 0.479612 0.178291
5429 2 0.337395 0.479942 0.164405
5428 1 0.329827 0.480071 0.166535
7225 1 0.340373 0.473383 0.172481
5430 1 0.33948 0.475209 0.170754
7226 2 0.342646 0.46894 0.176691
7227 1 0.349172 0.464213 0.176209
2175 1 0.352272 0.462284 0.176195
2174 3 0.359786 0.458794 0.177624
2173 1 0.364097 0.453285 0.181558
12937 1 0.462847 0.480393 0.166452
18943 1 0.269681 0.489487 0.152339
2538 1 0.273659 0.494094 0.166393
2537 3 0.277262 0.488102 0.17151
20585 3 0.313247 0.49313 0.152693
20586 1 0.315001 0.500183 0.157089
619 1 0.315722 0.502503 0.159182
620 3 0.317438 0.507607 0.164734
8214 1 0.433419 0.488482 0.16974
8213 2 0.430744 0.48648 0.176788
12938 2 0.464046 0.486333 0.171344
12939 1 0.465031 0.49581 0.168858
9350 2 0.468133 0.507282 0.169228
9351 1 0.465571 0.498656 0.168612
19223 3 0.106805 0.0296184 0.187663
19224 1 0.108466 0.0242072 0.193709
14797 1 0.226902 0.00170206 0.192368
14798 2 0.234303 0.00438425 0.190093
8582 2 0.327676 0.00538469 0.186509
16388 2 0.336404 0.0102656 0.201925
8581 1 0.330965 0.00716903 0.19337
16389 1 0.332386 0.00804699 0.195461
16387 1 0.340848 0.0134399 0.208159
18379 1 0.389377 0.0294909 0.20528
19343 3 0.0877331 0.0358826 0.205385
19342 1 0.0915889 0.0419826 0.202058
19222 1 0.103228 0.0346478 0.181867
4956 1 0.21162 0.0538065 0.187309
4954 1 0.197229 0.0477505 0.188764
4955 3 0.204663 0.0501413 0.19098
6355 1 0.317772 0.038688 0.19309
6356 2 0.317266 0.0455705 0.196185
6357 1 0.311662 0.0501564 0.199429
18381 1 0.376918 0.038827 0.201464
18380 2 0.382125 0.0331651 0.204436
16990 1 0.42986 0.0343011 0.199913
16992 1 0.436166 0.0311203 0.191396
16991 2 0.431395 0.0378537 0.193096
14210 3 0.157622 0.0858863 0.191666
14211 1 0.157213 0.0881499 0.198739
13930 1 0.157567 0.0893749 0.201899
14209 1 0.156283 0.0861517 0.183965
2333 2 0.235898 0.0763027 0.20734
2332 1 0.233352 0.0694804 0.211535
2334 1 0.229484 0.0792134 0.203894
5473 1 0.26736 0.0729059 0.203897
5475 1 0.281634 0.0769916 0.210302
5474 2 0.274764 0.074577 0.20751
11746 1 0.399841 0.0826593 0.196044
11747 3 0.399086 0.0888983 0.200765
17574 1 0.0909489 0.0995396 0.2074
17572 1 0.103718 0.0926111 0.204382
17573 2 0.0989189 0.0998691 0.205024
13931 2 0.158345 0.0909302 0.209465
11748 1 0.397804 0.0970081 0.202849
4405 1 0.261191 0.160236 0.19192
4406 2 0.268521 0.160764 0.187607
9759 1 0.396614 0.163475 0.189891
9758 3 0.39552 0.171755 0.189376
9757 1 0.394845 0.180057 0.190589
10081 1 0.237309 0.185892 0.210721
10083 1 0.223616 0.187183 0.210867
2225 3 0.487899 0.201423 0.209537
2226 1 0.492492 0.207721 0.207456
2224 1 0.482278 0.197338 0.210031
13629 1 0.219273 0.228532 0.188138
14481 1 0.217155 0.229043 0.185611
13628 3 0.225032 0.227261 0.19348
13627 1 0.226695 0.224298 0.200306
6420 1 0.401274 0.267847 0.195322
6418 1 0.392015 0.258436 0.190748
6419 3 0.395241 0.262676 0.196082
5384 2 0.00624951 0.296468 0.188001
5383 1 0.0139677 0.294664 0.188084
9769 1 0.0911068 0.281011 0.182528
9771 1 0.096025 0.287227 0.189923
9770 2 0.0986792 0.28157 0.183478
1483 1 0.09936 0.300358 0.210881
18401 3 0.146973 0.287807 0.1946
10801 1 0.145297 0.298331 0.212099
1188 1 0.143911 0.296303 0.211668
1187 3 0.138926 0.290186 0.209932
1186 1 0.143633 0.28759 0.204463
18400 1 0.144756 0.287182 0.201585
18402 1 0.152119 0.285158 0.189056
12177 1 0.315113 0.279914 0.199399
12176 3 0.320893 0.27786 0.204804
12175 1 0.317966 0.275434 0.212054
16307 2 0.470029 0.272683 0.209589
5385 1 0.000587338 0.302916 0.188019
3014 2 0.276637 0.318151 0.211579
21425 3 0.327191 0.316719 0.211622
16432 1 0.487793 0.32959 0.191497
5667 1 0.0595996 0.343135 0.190106
5666 3 0.0661702 0.345713 0.195316
5665 1 0.0667946 0.348317 0.202515
10188 1 0.142532 0.359167 0.193594
11647 1 0.172612 0.36075 0.210931
20631 1 0.311533 0.347252 0.192569
20630 2 0.318887 0.343112 0.193936
20629 1 0.323046 0.336944 0.191578
7871 3 0.461474 0.357838 0.208648
16433 3 0.488796 0.336481 0.186414
1061 2 0.0385484 0.386486 0.181996
10187 2 0.149 0.361779 0.19682
10186 1 0.155294 0.362519 0.200774
18136 1 0.157962 0.362854 0.202384
18137 3 0.165177 0.364721 0.206583
18138 1 0.170595 0.361909 0.209674
7870 1 0.460087 0.362151 0.203491
1062 1 0.0418254 0.393562 0.185801
17814 1 0.185772 0.439609 0.198796
17813 2 0.180774 0.436033 0.204326
17812 1 0.176854 0.435371 0.211389
10330 1 0.325704 0.435444 0.182531
10331 2 0.324146 0.441695 0.186796
10332 1 0.317909 0.448423 0.187124
19760 3 0.368556 0.444468 0.186225
19761 1 0.365777 0.451436 0.183001
19759 1 0.370859 0.436887 0.185587
14156 3 0.266217 0.475307 0.198458
14157 1 0.269256 0.472974 0.191319
14155 1 0.261619 0.472171 0.204268
5877 1 0.270903 0.47282 0.188916
5876 2 0.275489 0.473268 0.183082
17397 1 0.0967087 0.508885 0.192695
13173 1 0.163547 0.488082 0.195803
13172 3 0.162515 0.490549 0.187954
13171 1 0.167133 0.48705 0.182588
8212 1 0.431061 0.482876 0.183444
18350 3 0.0308236 0.0137613 0.227504
18351 1 0.0284175 0.0173479 0.234607
10292 3 0.0431641 0.00411024 0.216799
10291 1 0.0370086 0.00819624 0.220048
18349 1 0.0347598 0.00962225 0.221742
9036 1 0.423718 0.0298455 0.23791
9035 3 0.432277 0.0297759 0.23695
9034 1 0.438118 0.0250871 0.233768
8387 2 0.47346 0.0274822 0.230186
8386 1 0.469794 0.0219578 0.224827
19344 1 0.0849644 0.0312051 0.21222
19869 1 0.237476 0.0544243 0.220028
12151 1 0.30427 0.0420864 0.228557
12152 2 0.301307 0.0375413 0.222096
12153 1 0.299407 0.0344837 0.214964
19886 3 0.413531 0.0317069 0.240908
19885 1 0.420458 0.0302729 0.238385
8388 1 0.476915 0.033703 0.234224
19868 3 0.232766 0.0612021 0.218886
19867 1 0.233023 0.067552 0.212909
14868 1 0.00337462 0.10743 0.228037
14866 1 0.0184185 0.106692 0.219853
14867 3 0.0115911 0.10759 0.224381
19335 1 0.000627706 0.10736 0.229225
13932 1 0.158856 0.0923964 0.216825
10009 1 0.245809 0.107141 0.220454
10010 2 0.254562 0.105065 0.21957
20529 1 0.280799 0.106557 0.225052
16701 1 0.264509 0.104753 0.224456
10011 1 0.262124 0.1044 0.223153
16700 2 0.270874 0.10399 0.228426
16699 1 0.277734 0.105453 0.226047
13120 1 0.295178 0.118049 0.219931
20527 1 0.293376 0.115685 0.22111
20528 2 0.288104 0.109803 0.223708
13121 2 0.297958 0.124664 0.217116
13122 1 0.298452 0.131963 0.213965
10082 3 0.229817 0.182817 0.21296
398 3 0.384308 0.235883 0.230702
397 1 0.388863 0.237191 0.224002
399 1 0.382499 0.236064 0.238725
16306 1 0.473977 0.265614 0.214601
12697 1 0.461875 0.269591 0.235044
1485 1 0.112323 0.300206 0.217915
9329 2 0.285878 0.27344 0.24102
9328 1 0.287471 0.274548 0.233556
7389 1 0.288143 0.275482 0.231051
15806 2 0.313036 0.273479 0.22156
15805 1 0.316564 0.275058 0.214696
13590 1 0.317636 0.281614 0.228039
15807 1 0.31623 0.279555 0.226169
7388 2 0.290299 0.277687 0.223682
7387 1 0.294729 0.2825 0.220948
17704 1 0.296715 0.284569 0.219374
17705 3 0.301381 0.288767 0.215484
17706 1 0.307515 0.292969 0.213464
19872 1 0.309914 0.295106 0.213661
19871 3 0.315147 0.300641 0.213016
13589 3 0.320292 0.286043 0.233507
13588 1 0.325095 0.279977 0.237677
16308 1 0.462902 0.272244 0.213423
12698 2 0.466752 0.2751 0.234771
1252 1 0.475525 0.28199 0.236796
12699 1 0.472672 0.279727 0.236891
1253 2 0.482438 0.286543 0.233936
1254 1 0.487868 0.288463 0.228577
14147 3 0.0849454 0.31459 0.216126
14148 1 0.0875191 0.321182 0.213414
14146 1 0.0824024 0.306713 0.221115
1484 3 0.104487 0.301803 0.215901
10803 1 0.151169 0.313799 0.218521
10802 2 0.150492 0.306112 0.214483
3015 1 0.271625 0.312588 0.214461
3013 1 0.280163 0.324724 0.215302
2987 2 0.299887 0.312438 0.222688
2986 1 0.302702 0.307797 0.218799
8854 1 0.29998 0.314391 0.234268
2988 1 0.299597 0.314348 0.230961
21426 1 0.322323 0.309989 0.212394
19870 1 0.320455 0.30704 0.212509
21424 1 0.333362 0.319596 0.21661
11649 1 0.182474 0.355037 0.220796
11648 3 0.178268 0.358211 0.215989
7872 1 0.463584 0.361444 0.214318
2038 1 0.213482 0.381663 0.231568
17379 1 0.215649 0.380335 0.229727
2039 3 0.208714 0.384869 0.236676
17378 2 0.221995 0.375357 0.225621
11587 1 0.245622 0.386662 0.228644
11588 2 0.239494 0.381098 0.225972
11589 1 0.232473 0.377613 0.226283
17377 1 0.229833 0.376819 0.226326
671 3 0.189783 0.411537 0.229316
672 1 0.189771 0.404511 0.225132
12447 1 0.192797 0.419242 0.23635
670 1 0.191708 0.416929 0.234666
2549 2 0.282306 0.398759 0.235043
2550 1 0.285179 0.394253 0.228287
2548 1 0.278697 0.401367 0.241645
12784 1 0.18568 0.450799 0.223443
12785 2 0.191468 0.447893 0.227827
12446 3 0.195588 0.425218 0.240738
12786 1 0.197663 0.445714 0.23293
14435 3 0.206934 0.442694 0.237398
14434 1 0.200002 0.44508 0.234312
14436 1 0.215104 0.442118 0.23776
18952 1 0.183233 0.452042 0.222392
18954 1 0.171332 0.458944 0.214765
18953 2 0.176945 0.454361 0.218388
18990 1 0.23356 0.473811 0.235677
7827 1 0.235804 0.474619 0.237876
18989 2 0.228388 0.471987 0.229806
18988 1 0.226772 0.470605 0.222489
4113 1 0.148894 0.500232 0.241525
16225 1 0.436829 0.00563215 0.260164
16226 2 0.443904 0.00315722 0.262603
16227 1 0.451713 0.00418669 0.263059
11142 1 0.401237 0.0372535 0.264023
16318 1 0.398838 0.0365611 0.26612
11141 2 0.407971 0.0381012 0.257972
11140 1 0.410034 0.0359078 0.251037
19887 1 0.411176 0.0347453 0.248214
8356 1 0.163393 0.0865779 0.269774
8357 2 0.161565 0.0872023 0.261891
5011 1 0.135468 0.107256 0.249995
5012 3 0.141853 0.10379 0.24664
5013 1 0.147799 0.0981821 0.243881
8358 1 0.163495 0.0931337 0.256272
5211 1 0.299048 0.107678 0.266494
15039 1 0.303484 0.127602 0.258821
15038 2 0.310688 0.128699 0.258869
15037 1 0.315012 0.130117 0.265524
17829 1 0.471313 0.127616 0.271119
17828 2 0.473349 0.1294 0.263506
17827 1 0.473539 0.124575 0.255908
15316 1 0.429492 0.171054 0.259474
15317 2 0.425728 0.169407 0.266892
535 1 0.173839 0.238578 0.257432
536 3 0.16558 0.239234 0.25857
1599 1 0.409381 0.225509 0.254315
1598 3 0.408367 0.23432 0.253678
537 1 0.160061 0.244849 0.261209
1597 1 0.403393 0.241291 0.252654
3720 1 0.457456 0.248476 0.27217
2731 1 0.456506 0.251346 0.272221
2732 3 0.454341 0.25923 0.272214
2733 1 0.456564 0.265487 0.270174
9330 1 0.28047 0.274229 0.246534
15582 1 0.141953 0.330914 0.263864
15581 3 0.139036 0.32547 0.26751
15580 1 0.134707 0.319178 0.27074
8855 3 0.302554 0.315486 0.242758
8856 1 0.304067 0.3183 0.249896
4804 1 0.057233 0.352252 0.258612
4805 3 0.0512356 0.351643 0.263267
4806 1 0.0492564 0.344807 0.260543
2040 1 0.206179 0.389605 0.243934
5226 1 0.20528 0.391272 0.246724
15872 3 0.196582 0.398343 0.2718
5225 3 0.203769 0.393223 0.254127
15873 1 0.199729 0.395502 0.264364
5224 1 0.20109 0.394561 0.261251
2213 3 0.239142 0.419412 0.265768
2212 1 0.243871 0.413341 0.264064
6981 1 0.0170103 0.449761 0.257574
7222 1 0.0914588 0.433121 0.267984
321 1 0.137567 0.445008 0.271778
12445 1 0.198774 0.426593 0.24849
510 1 0.200136 0.427661 0.251418
509 2 0.203795 0.428821 0.258528
508 1 0.20615 0.428938 0.265608
7588 1 0.230026 0.446435 0.268516
9559 1 0.230375 0.443215 0.267653
9560 2 0.231378 0.435757 0.265858
9561 1 0.23419 0.428522 0.266816
2214 1 0.235752 0.425402 0.266591
6979 1 0.0112175 0.463052 0.260603
6980 2 0.015768 0.456816 0.25591
7825 1 0.247187 0.471471 0.24592
7826 2 0.239942 0.474638 0.244515
7590 1 0.227209 0.462534 0.271914
7589 2 0.228312 0.454947 0.271005
4112 2 0.152774 0.494333 0.246446
4111 1 0.156265 0.494242 0.25378
16320 1 0.38907 0.0288661 0.27842
16319 2 0.394001 0.0339716 0.273023
14653 1 0.219345 0.0686266 0.274827
14654 3 0.220255 0.0745012 0.280146
14655 1 0.2237 0.0783059 0.285082
8402 2 0.289127 0.0881273 0.303027
3676 1 0.469661 0.0758462 0.290776
3677 2 0.472033 0.0693365 0.286143
3678 1 0.47943 0.0669401 0.286603
8401 1 0.282782 0.0908375 0.299158
5209 1 0.299986 0.103834 0.279383
5210 2 0.301583 0.108437 0.274334
8314 1 0.4682 0.0999767 0.298756
8315 2 0.465774 0.104459 0.292993
8316 1 0.45938 0.108845 0.289652
2011 1 0.252307 0.128899 0.279423
2012 3 0.244311 0.130436 0.277398
18918 1 0.223371 0.150071 0.281239
12088 1 0.225596 0.147713 0.280447
12089 2 0.231215 0.141681 0.279428
2013 1 0.239069 0.135044 0.279349
12090 1 0.236795 0.136671 0.279398
12777 1 0.470803 0.127298 0.273588
10022 3 0.451667 0.148846 0.298837
12776 2 0.469062 0.127146 0.28159
12775 1 0.462469 0.129251 0.28463
18848 2 0.453231 0.132663 0.289047
18847 1 0.459939 0.129993 0.286302
10021 1 0.452305 0.14212 0.294332
18849 1 0.452638 0.139909 0.292863
18917 3 0.219255 0.155226 0.283761
18916 1 0.221492 0.159934 0.290156
13203 1 0.410582 0.16428 0.28668
14247 1 0.432946 0.155192 0.293659
15318 1 0.422187 0.168297 0.273386
13201 1 0.420209 0.168247 0.276007
13202 3 0.415946 0.168069 0.282829
15268 1 0.440037 0.170197 0.294068
14245 1 0.438745 0.167886 0.294385
15269 3 0.443457 0.176748 0.293495
14246 2 0.43434 0.161788 0.296035
10023 1 0.453076 0.155766 0.302038
15270 1 0.444516 0.181181 0.300072
3719 2 0.459513 0.240169 0.272879
3718 1 0.463691 0.233651 0.274039
1251 1 0.0691693 0.322789 0.286104
1250 2 0.0683412 0.330408 0.284598
17924 3 0.442134 0.329565 0.286763
17925 1 0.45012 0.326728 0.288068
8962 1 0.0383788 0.351158 0.297603
8963 3 0.0344901 0.345143 0.295684
8964 1 0.0331656 0.337929 0.295774
1249 1 0.0653578 0.338096 0.285255
17923 1 0.435158 0.333941 0.283619
16654 1 0.476317 0.378674 0.28827
16655 2 0.470896 0.384146 0.284356
16656 1 0.467796 0.386891 0.277341
21007 1 0.0693569 0.41575 0.273758
21008 3 0.0744103 0.410404 0.276527
21009 1 0.077322 0.403336 0.279625
14486 2 0.193218 0.403935 0.290166
14485 1 0.191172 0.404331 0.297475
14487 1 0.194992 0.402192 0.282155
15871 1 0.195712 0.401455 0.279188
7223 2 0.0963469 0.43995 0.272956
7224 1 0.0966155 0.446865 0.276696
320 2 0.139253 0.451648 0.274406
319 1 0.142565 0.459275 0.275004
4507 1 0.378096 0.025574 0.325211
17238 1 0.410405 0.0282928 0.326009
13750 1 0.412904 0.026485 0.326329
4508 3 0.385406 0.0246729 0.325728