ITEM: TIMESTEP
0
ITEM: NUMBER OF ATOMS
2298
ITEM: BOX BOUNDS pp pp pp
0.0000000000000000e+00 5.0000000000000000e+01
0.0000000000000000e+00 5.0000000000000000e+01
0.0000000000000000e+00 5.0000000000000000e+01
ITEM: ATOMS id type 
7 1 
8 3 
9 1 
76 1 
77 3 
78 1 
85 1 
86 2 
87 1 
139 1 
140 3 
141 1 
184 1 
185 3 
186 1 
190 1 
191 2 
192 1 
199 1 
200 3 
201 1 
205 1 
206 3 
207 1 
385 1 
386 3 
387 1 
424 1 
425 3 
426 1 
439 1 
440 3 
441 1 
445 1 
446 3 
447 1 
487 1 
488 2 
489 1 
496 1 
497 2 
498 1 
1162 1 
1163 2 
1164 1 
1225 1 
1226 3 
1227 1 
1270 1 
1271 3 
1272 1 
1339 1 
1340 2 
1341 1 
1450 1 
1451 3 
1452 1 
2242 1 
2243 3 
2244 1 
2299 1 
2300 3 
2301 1 
2347 1 
2348 3 
2349 1 
2407 1 
2408 3 
2409 1 
2524 1 
2525 3 
2526 1 
2587 1 
2588 3 
2589 1 
2608 1 
2609 2 
2610 1 
3193 1 
3194 2 
3195 1 
3208 1 
3209 3 
3210 1 
3259 1 
3260 2 
3261 1 
3307 1 
3308 2 
3309 1 
3364 1 
3365 3 
3366 1 
3373 1 
3374 3 
3375 1 
3379 1 
3380 3 
3381 1 
3382 1 
3383 3 
3384 1 
3499 1 
3500 3 
3501 1 
3505 1 
3506 3 
3507 1 
3625 1 
3626 3 
3627 1 
3667 1 
3668 3 
3669 1 
3745 1 
3746 3 
3747 1 
4387 1 
4388 3 
4389 1 
4447 1 
4448 2 
4449 1 
4468 1 
4469 2 
4470 1 
4522 1 
4523 3 
4524 1 
4630 1 
4631 3 
4632 1 
4747 1 
4748 3 
4749 1 
4750 1 
4751 3 
4752 1 
5464 1 
5465 3 
5466 1 
5545 1 
5546 3 
5547 1 
5641 1 
5642 2 
5643 1 
5719 1 
5720 3 
5721 1 
5821 1 
5822 3 
5823 1 
5842 1 
5843 3 
5844 1 
5884 1 
5885 2 
5886 1 
5899 1 
5900 3 
5901 1 
5956 1 
5957 3 
5958 1 
5959 1 
5960 3 
5961 1 
6007 1 
6008 3 
6009 1 
6685 1 
6686 2 
6687 1 
6841 1 
6842 2 
6843 1 
6910 1 
6911 3 
6912 1 
6967 1 
6968 3 
6969 1 
7036 1 
7037 3 
7038 1 
7081 1 
7082 3 
7083 1 
7105 1 
7106 3 
7107 1 
7207 1 
7208 3 
7209 1 
7219 1 
7220 3 
7221 1 
7768 1 
7769 2 
7770 1 
7822 1 
7823 3 
7824 1 
7861 1 
7862 3 
7863 1 
7981 1 
7982 3 
7983 1 
8044 1 
8045 2 
8046 1 
8050 1 
8051 3 
8052 1 
8221 1 
8222 3 
8223 1 
8902 1 
8903 3 
8904 1 
8908 1 
8909 3 
8910 1 
8950 1 
8951 3 
8952 1 
8965 1 
8966 2 
8967 1 
9016 1 
9017 3 
9018 1 
9061 1 
9062 3 
9063 1 
9064 1 
9065 3 
9066 1 
9085 1 
9086 3 
9087 1 
9127 1 
9128 3 
9129 1 
9130 1 
9131 3 
9132 1 
9148 1 
9149 3 
9150 1 
9202 1 
9203 3 
9204 1 
9265 1 
9266 3 
9267 1 
9307 1 
9308 3 
9309 1 
9964 1 
9965 2 
9966 1 
9973 1 
9974 3 
9975 1 
9988 1 
9989 2 
9990 1 
10147 1 
10148 3 
10149 1 
10444 1 
10445 3 
10446 1 
10453 1 
10454 3 
10455 1 
11119 1 
11120 3 
11121 1 
11182 1 
11183 3 
11184 1 
11188 1 
11189 3 
11190 1 
11407 1 
11408 3 
11409 1 
11413 1 
11414 3 
11415 1 
11425 1 
11426 3 
11427 1 
11428 1 
11429 3 
11430 1 
11461 1 
11462 3 
11463 1 
11473 1 
11474 3 
11475 1 
12061 1 
12062 2 
12063 1 
12145 1 
12146 2 
12147 1 
12421 1 
12422 3 
12423 1 
12433 1 
12434 3 
12435 1 
12490 1 
12491 3 
12492 1 
13150 1 
13151 3 
13152 1 
13159 1 
13160 3 
13161 1 
13207 1 
13208 3 
13209 1 
13216 1 
13217 3 
13218 1 
13282 1 
13283 2 
13284 1 
13324 1 
13325 2 
13326 1 
13387 1 
13388 2 
13389 1 
13441 1 
13442 3 
13443 1 
13450 1 
13451 2 
13452 1 
13516 1 
13517 3 
13518 1 
13564 1 
13565 2 
13566 1 
14227 1 
14228 3 
14229 1 
14230 1 
14231 3 
14232 1 
14287 1 
14288 3 
14289 1 
14401 1 
14402 3 
14403 1 
14527 1 
14528 3 
14529 1 
14536 1 
14537 3 
14538 1 
14542 1 
14543 3 
14544 1 
14548 1 
14549 3 
14550 1 
14593 1 
14594 3 
14595 1 
14602 1 
14603 3 
14604 1 
15304 1 
15305 3 
15306 1 
15307 1 
15308 3 
15309 1 
15319 1 
15320 3 
15321 1 
15364 1 
15365 3 
15366 1 
15370 1 
15371 2 
15372 1 
15430 1 
15431 3 
15432 1 
15490 1 
15491 3 
15492 1 
15502 1 
15503 2 
15504 1 
15556 1 
15557 3 
15558 1 
15601 1 
15602 3 
15603 1 
15625 1 
15626 2 
15627 1 
15667 1 
15668 3 
15669 1 
16327 1 
16328 2 
16329 1 
16390 1 
16391 3 
16392 1 
16405 1 
16406 2 
16407 1 
16408 1 
16409 3 
16410 1 
16453 1 
16454 3 
16455 1 
16468 1 
16469 3 
16470 1 
16528 1 
16529 3 
16530 1 
17341 1 
17342 3 
17343 1 
17356 1 
17357 3 
17358 1 
17416 1 
17417 2 
17418 1 
17428 1 
17429 3 
17430 1 
17593 1 
17594 3 
17595 1 
17665 1 
17666 3 
17667 1 
17767 1 
17768 3 
17769 1 
17782 1 
17783 3 
17784 1 
18370 1 
18371 3 
18372 1 
18490 1 
18491 3 
18492 1 
18502 1 
18503 3 
18504 1 
18559 1 
18560 2 
18561 1 
18673 1 
18674 3 
18675 1 
18745 1 
18746 2 
18747 1 
19465 1 
19466 2 
19467 1 
19519 1 
19520 3 
19521 1 
19561 1 
19562 3 
19563 1 
19630 1 
19631 3 
19632 1 
19708 1 
19709 3 
19710 1 
19762 1 
19763 3 
19764 1 
19804 1 
19805 3 
19806 1 
19825 1 
19826 3 
19827 1 
19828 1 
19829 3 
19830 1 
19879 1 
19880 2 
19881 1 
20521 1 
20522 3 
20523 1 
20530 1 
20531 3 
20532 1 
20644 1 
20645 3 
20646 1 
20656 1 
20657 3 
20658 1 
20707 1 
20708 3 
20709 1 
20728 1 
20729 3 
20730 1 
20836 1 
20837 3 
20838 1 
20845 1 
20846 3 
20847 1 
20962 1 
20963 2 
20964 1 
91 1 
92 2 
93 1 
106 1 
107 2 
108 1 
118 1 
119 3 
120 1 
172 1 
173 3 
174 1 
214 1 
215 3 
216 1 
217 1 
218 3 
219 1 
238 1 
239 3 
240 1 
271 1 
272 2 
273 1 
292 1 
293 3 
294 1 
346 1 
347 3 
348 1 
451 1 
452 3 
453 1 
472 1 
473 3 
474 1 
1180 1 
1181 2 
1182 1 
1291 1 
1292 3 
1293 1 
1369 1 
1370 3 
1371 1 
1423 1 
1424 2 
1425 1 
1477 1 
1478 3 
1479 1 
1546 1 
1547 3 
1548 1 
1606 1 
1607 3 
1608 1 
1657 1 
1658 3 
1659 1 
1663 1 
1664 2 
1665 1 
1666 1 
1667 3 
1668 1 
1678 1 
1679 2 
1680 1 
2251 1 
2252 3 
2253 1 
2254 1 
2255 3 
2256 1 
2263 1 
2264 3 
2265 1 
2386 1 
2387 3 
2388 1 
2395 1 
2396 2 
2397 1 
2509 1 
2510 3 
2511 1 
2554 1 
2555 3 
2556 1 
2578 1 
2579 3 
2580 1 
2623 1 
2624 3 
2625 1 
3226 1 
3227 3 
3228 1 
3352 1 
3353 3 
3354 1 
3406 1 
3407 3 
3408 1 
3415 1 
3416 3 
3417 1 
3517 1 
3518 3 
3519 1 
3526 1 
3527 3 
3528 1 
3595 1 
3596 3 
3597 1 
3598 1 
3599 3 
3600 1 
3643 1 
3644 2 
3645 1 
3649 1 
3650 2 
3651 1 
3691 1 
3692 3 
3693 1 
3694 1 
3695 2 
3696 1 
3757 1 
3758 2 
3759 1 
4363 1 
4364 2 
4365 1 
4423 1 
4424 3 
4425 1 
4435 1 
4436 3 
4437 1 
4537 1 
4538 2 
4539 1 
4552 1 
4553 3 
4554 1 
4600 1 
4601 3 
4602 1 
4717 1 
4718 3 
4719 1 
4729 1 
4730 2 
4731 1 
4786 1 
4787 2 
4788 1 
4798 1 
4799 3 
4800 1 
4840 1 
4841 3 
4842 1 
4897 1 
4898 3 
4899 1 
4918 1 
4919 3 
4920 1 
5518 1 
5519 3 
5520 1 
5578 1 
5579 2 
5580 1 
5632 1 
5633 3 
5634 1 
5686 1 
5687 3 
5688 1 
5692 1 
5693 2 
5694 1 
5740 1 
5741 2 
5742 1 
5932 1 
5933 3 
5934 1 
5977 1 
5978 3 
5979 1 
5998 1 
5999 3 
6000 1 
6766 1 
6767 3 
6768 1 
6895 1 
6896 3 
6897 1 
6991 1 
6992 3 
6993 1 
7018 1 
7019 2 
7020 1 
7069 1 
7070 3 
7071 1 
7075 1 
7076 3 
7077 1 
7132 1 
7133 3 
7134 1 
7780 1 
7781 3 
7782 1 
7786 1 
7787 2 
7788 1 
7798 1 
7799 2 
7800 1 
7843 1 
7844 3 
7845 1 
7891 1 
7892 2 
7893 1 
7909 1 
7910 3 
7911 1 
7915 1 
7916 2 
7917 1 
8011 1 
8012 3 
8013 1 
8098 1 
8099 3 
8100 1 
8155 1 
8156 3 
8157 1 
8206 1 
8207 3 
8208 1 
8218 1 
8219 3 
8220 1 
8251 1 
8252 3 
8253 1 
8260 1 
8261 3 
8262 1 
8275 1 
8276 3 
8277 1 
8320 1 
8321 3 
8322 1 
8323 1 
8324 3 
8325 1 
8332 1 
8333 2 
8334 1 
8977 1 
8978 3 
8979 1 
9037 1 
9038 3 
9039 1 
9040 1 
9041 2 
9042 1 
9106 1 
9107 2 
9108 1 
9115 1 
9116 2 
9117 1 
9151 1 
9152 3 
9153 1 
9154 1 
9155 3 
9156 1 
9220 1 
9221 3 
9222 1 
9280 1 
9281 3 
9282 1 
10006 1 
10007 3 
10008 1 
10114 1 
10115 3 
10116 1 
10174 1 
10175 3 
10176 1 
10240 1 
10241 3 
10242 1 
10351 1 
10352 3 
10353 1 
10540 1 
10541 3 
10542 1 
10555 1 
10556 3 
10557 1 
11197 1 
11198 3 
11199 1 
11206 1 
11207 3 
11208 1 
11260 1 
11261 3 
11262 1 
11329 1 
11330 3 
11331 1 
11338 1 
11339 3 
11340 1 
11392 1 
11393 3 
11394 1 
11437 1 
11438 3 
11439 1 
11494 1 
11495 2 
11496 1 
11509 1 
11510 2 
11511 1 
12094 1 
12095 2 
12096 1 
12154 1 
12155 3 
12156 1 
12271 1 
12272 2 
12273 1 
12331 1 
12332 3 
12333 1 
12394 1 
12395 2 
12396 1 
12514 1 
12515 3 
12516 1 
12595 1 
12596 2 
12597 1 
13174 1 
13175 2 
13176 1 
13237 1 
13238 2 
13239 1 
13258 1 
13259 3 
13260 1 
13357 1 
13358 3 
13359 1 
13483 1 
13484 3 
13485 1 
13609 1 
13610 3 
13611 1 
13618 1 
13619 3 
13620 1 
14257 1 
14258 2 
14259 1 
14260 1 
14261 3 
14262 1 
14335 1 
14336 3 
14337 1 
14398 1 
14399 3 
14400 1 
14551 1 
14552 2 
14553 1 
14629 1 
14630 2 
14631 1 
15403 1 
15404 3 
15405 1 
15415 1 
15416 2 
15417 1 
15418 1 
15419 3 
15420 1 
15451 1 
15452 2 
15453 1 
15460 1 
15461 3 
15462 1 
15520 1 
15521 3 
15522 1 
15526 1 
15527 3 
15528 1 
15529 1 
15530 3 
15531 1 
15592 1 
15593 3 
15594 1 
15634 1 
15635 2 
15636 1 
15706 1 
15707 2 
15708 1 
15712 1 
15713 2 
15714 1 
15718 1 
15719 2 
15720 1 
15754 1 
15755 3 
15756 1 
15763 1 
15764 3 
15765 1 
15775 1 
15776 3 
15777 1 
15778 1 
15779 3 
15780 1 
16378 1 
16379 2 
16380 1 
16540 1 
16541 3 
16542 1 
16597 1 
16598 3 
16599 1 
16669 1 
16670 3 
16671 1 
16723 1 
16724 3 
16725 1 
17374 1 
17375 3 
17376 1 
17389 1 
17390 3 
17391 1 
17455 1 
17456 3 
17457 1 
17509 1 
17510 3 
17511 1 
17551 1 
17552 3 
17553 1 
17611 1 
17612 3 
17613 1 
17632 1 
17633 3 
17634 1 
17686 1 
17687 3 
17688 1 
17698 1 
17699 3 
17700 1 
17752 1 
17753 3 
17754 1 
17806 1 
17807 3 
17808 1 
17818 1 
17819 3 
17820 1 
18472 1 
18473 3 
18474 1 
18580 1 
18581 3 
18582 1 
18595 1 
18596 3 
18597 1 
18646 1 
18647 3 
18648 1 
18694 1 
18695 2 
18696 1 
18760 1 
18761 3 
18762 1 
18829 1 
18830 3 
18831 1 
18838 1 
18839 3 
18840 1 
19477 1 
19478 2 
19479 1 
19537 1 
19538 3 
19539 1 
19552 1 
19553 2 
19554 1 
19555 1 
19556 3 
19557 1 
19606 1 
19607 3 
19608 1 
19612 1 
19613 3 
19614 1 
19672 1 
19673 3 
19674 1 
19678 1 
19679 3 
19680 1 
19729 1 
19730 3 
19731 1 
19732 1 
19733 2 
19734 1 
19735 1 
19736 3 
19737 1 
19780 1 
19781 3 
19782 1 
19783 1 
19784 2 
19785 1 
19786 1 
19787 2 
19788 1 
19912 1 
19913 3 
19914 1 
20638 1 
20639 3 
20640 1 
20686 1 
20687 3 
20688 1 
20746 1 
20747 2 
20748 1 
20749 1 
20750 3 
20751 1 
20797 1 
20798 2 
20799 1 
20803 1 
20804 3 
20805 1 
20911 1 
20912 3 
20913 1 
20986 1 
20987 2 
20988 1 
21040 1 
21041 3 
21042 1 
562 1 
563 3 
564 1 
673 1 
674 3 
675 1 
676 1 
677 2 
678 1 
787 1 
788 3 
789 1 
805 1 
806 2 
807 1 
808 1 
809 3 
810 1 
856 1 
857 2 
858 1 
862 1 
863 3 
864 1 
865 1 
866 2 
867 1 
904 1 
905 2 
906 1 
919 1 
920 3 
921 1 
1036 1 
1037 2 
1038 1 
1042 1 
1043 3 
1044 1 
1087 1 
1088 3 
1089 1 
1744 1 
1745 3 
1746 1 
1801 1 
1802 2 
1803 1 
1822 1 
1823 3 
1824 1 
1882 1 
1883 3 
1884 1 
1921 1 
1922 3 
1923 1 
1987 1 
1988 2 
1989 1 
1999 1 
2000 2 
2001 1 
2044 1 
2045 3 
2046 1 
2050 1 
2051 3 
2052 1 
2053 1 
2054 3 
2055 1 
2056 1 
2057 3 
2058 1 
2128 1 
2129 3 
2130 1 
2170 1 
2171 3 
2172 1 
2662 1 
2663 3 
2664 1 
2725 1 
2726 3 
2727 1 
2764 1 
2765 3 
2766 1 
2767 1 
2768 2 
2769 1 
2836 1 
2837 3 
2838 1 
2959 1 
2960 3 
2961 1 
3022 1 
3023 3 
3024 1 
3073 1 
3074 3 
3075 1 
3124 1 
3125 3 
3126 1 
3148 1 
3149 2 
3150 1 
3862 1 
3863 3 
3864 1 
3901 1 
3902 3 
3903 1 
3913 1 
3914 3 
3915 1 
3961 1 
3962 3 
3963 1 
4099 1 
4100 3 
4101 1 
4105 1 
4106 3 
4107 1 
4216 1 
4217 3 
4218 1 
4225 1 
4226 3 
4227 1 
4276 1 
4277 3 
4278 1 
4282 1 
4283 3 
4284 1 
4942 1 
4943 2 
4944 1 
4945 1 
4946 3 
4947 1 
4987 1 
4988 2 
4989 1 
4990 1 
4991 3 
4992 1 
4993 1 
4994 3 
4995 1 
5062 1 
5063 3 
5064 1 
5104 1 
5105 3 
5106 1 
5125 1 
5126 3 
5127 1 
5185 1 
5186 3 
5187 1 
5227 1 
5228 3 
5229 1 
5293 1 
5294 3 
5295 1 
5299 1 
5300 3 
5301 1 
5305 1 
5306 2 
5307 1 
5365 1 
5366 3 
5367 1 
5425 1 
5426 3 
5427 1 
6073 1 
6074 2 
6075 1 
6082 1 
6083 3 
6084 1 
6142 1 
6143 3 
6144 1 
6145 1 
6146 3 
6147 1 
6148 1 
6149 3 
6150 1 
6247 1 
6248 3 
6249 1 
6265 1 
6266 3 
6267 1 
6301 1 
6302 3 
6303 1 
6307 1 
6308 3 
6309 1 
6310 1 
6311 3 
6312 1 
6370 1 
6371 3 
6372 1 
6541 1 
6542 2 
6543 1 
6601 1 
6602 2 
6603 1 
6622 1 
6623 3 
6624 1 
7267 1 
7268 2 
7269 1 
7339 1 
7340 3 
7341 1 
7396 1 
7397 2 
7398 1 
7465 1 
7466 3 
7467 1 
7519 1 
7520 3 
7521 1 
7525 1 
7526 3 
7527 1 
7624 1 
7625 3 
7626 1 
7684 1 
7685 3 
7686 1 
7687 1 
7688 3 
7689 1 
8542 1 
8543 3 
8544 1 
8650 1 
8651 3 
8652 1 
8662 1 
8663 3 
8664 1 
8707 1 
8708 3 
8709 1 
8821 1 
8822 3 
8823 1 
9448 1 
9449 3 
9450 1 
9481 1 
9482 3 
9483 1 
9487 1 
9488 3 
9489 1 
9502 1 
9503 2 
9504 1 
9550 1 
9551 3 
9552 1 
9604 1 
9605 2 
9606 1 
9682 1 
9683 3 
9684 1 
9736 1 
9737 3 
9738 1 
9850 1 
9851 3 
9852 1 
9913 1 
9914 2 
9915 1 
10576 1 
10577 3 
10578 1 
10585 1 
10586 3 
10587 1 
10636 1 
10637 3 
10638 1 
10750 1 
10751 3 
10752 1 
10867 1 
10868 3 
10869 1 
10996 1 
10997 3 
10998 1 
11062 1 
11063 3 
11064 1 
11524 1 
11525 3 
11526 1 
11536 1 
11537 3 
11538 1 
11548 1 
11549 3 
11550 1 
11584 1 
11585 2 
11586 1 
11602 1 
11603 3 
11604 1 
11608 1 
11609 3 
11610 1 
11665 1 
11666 2 
11667 1 
11704 1 
11705 3 
11706 1 
11956 1 
11957 3 
11958 1 
12721 1 
12722 2 
12723 1 
12787 1 
12788 3 
12789 1 
12841 1 
12842 2 
12843 1 
12910 1 
12911 2 
12912 1 
13039 1 
13040 3 
13041 1 
13042 1 
13043 3 
13044 1 
13081 1 
13082 2 
13083 1 
13108 1 
13109 2 
13110 1 
13642 1 
13643 3 
13644 1 
13687 1 
13688 3 
13689 1 
13696 1 
13697 3 
13698 1 
13759 1 
13760 3 
13761 1 
13801 1 
13802 3 
13803 1 
13981 1 
13982 3 
13983 1 
14188 1 
14189 3 
14190 1 
14704 1 
14705 3 
14706 1 
14710 1 
14711 3 
14712 1 
14842 1 
14843 3 
14844 1 
14848 1 
14849 3 
14850 1 
14905 1 
14906 3 
14907 1 
14908 1 
14909 2 
14910 1 
14956 1 
14957 3 
14958 1 
15016 1 
15017 3 
15018 1 
15061 1 
15062 2 
15063 1 
15130 1 
15131 3 
15132 1 
15136 1 
15137 2 
15138 1 
15145 1 
15146 3 
15147 1 
15244 1 
15245 2 
15246 1 
15256 1 
15257 3 
15258 1 
15841 1 
15842 3 
15843 1 
15922 1 
15923 3 
15924 1 
15970 1 
15971 3 
15972 1 
16042 1 
16043 3 
16044 1 
16084 1 
16085 3 
16086 1 
16099 1 
16100 2 
16101 1 
16159 1 
16160 3 
16161 1 
16213 1 
16214 3 
16215 1 
16222 1 
16223 3 
16224 1 
16282 1 
16283 3 
16284 1 
16810 1 
16811 2 
16812 1 
16861 1 
16862 3 
16863 1 
16888 1 
16889 3 
16890 1 
16927 1 
16928 3 
16929 1 
16984 1 
16985 3 
16986 1 
17233 1 
17234 2 
17235 1 
17845 1 
17846 3 
17847 1 
17899 1 
17900 3 
17901 1 
17905 1 
17906 2 
17907 1 
18007 1 
18008 3 
18009 1 
18019 1 
18020 3 
18021 1 
18070 1 
18071 3 
18072 1 
18076 1 
18077 3 
18078 1 
18082 1 
18083 3 
18084 1 
18085 1 
18086 2 
18087 1 
18121 1 
18122 3 
18123 1 
18148 1 
18149 3 
18150 1 
18205 1 
18206 2 
18207 1 
18262 1 
18263 3 
18264 1 
18919 1 
18920 2 
18921 1 
18925 1 
18926 2 
18927 1 
18973 1 
18974 2 
18975 1 
19156 1 
19157 3 
19158 1 
19165 1 
19166 3 
19167 1 
19207 1 
19208 3 
19209 1 
19216 1 
19217 2 
19218 1 
19276 1 
19277 2 
19278 1 
19327 1 
19328 3 
19329 1 
19408 1 
19409 3 
19410 1 
19930 1 
19931 2 
19932 1 
19981 1 
19982 2 
19983 1 
19984 1 
19985 3 
19986 1 
20068 1 
20069 3 
20070 1 
20119 1 
20120 3 
20121 1 
20167 1 
20168 3 
20169 1 
20242 1 
20243 3 
20244 1 
20287 1 
20288 3 
20289 1 
20290 1 
20291 2 
20292 1 
20299 1 
20300 3 
20301 1 
20305 1 
20306 3 
20307 1 
20362 1 
20363 3 
20364 1 
21064 1 
21065 3 
21066 1 
21088 1 
21089 3 
21090 1 
21124 1 
21125 3 
21126 1 
21133 1 
21134 3 
21135 1 
21187 1 
21188 2 
21189 1 
21199 1 
21200 3 
21201 1 
21367 1 
21368 2 
21369 1 
21430 1 
21431 3 
21432 1 
21436 1 
21437 3 
21438 1 
21487 1 
21488 3 
21489 1 
655 1 
656 3 
657 1 
763 1 
764 3 
765 1 
775 1 
776 3 
777 1 
829 1 
830 3 
831 1 
838 1 
839 3 
840 1 
886 1 
887 2 
888 1 
1114 1 
1115 3 
1116 1 
1729 1 
1730 3 
1731 1 
1840 1 
1841 3 
1842 1 
1957 1 
1958 2 
1959 1 
2020 1 
2021 3 
2022 1 
2035 1 
2036 3 
2037 1 
2071 1 
2072 3 
2073 1 
2080 1 
2081 3 
2082 1 
2089 1 
2090 3 
2091 1 
2692 1 
2693 3 
2694 1 
2746 1 
2747 3 
2748 1 
2755 1 
2756 3 
2757 1 
2794 1 
2795 3 
2796 1 
2800 1 
2801 3 
2802 1 
2854 1 
2855 3 
2856 1 
2866 1 
2867 3 
2868 1 
2992 1 
2993 3 
2994 1 
3031 1 
3032 3 
3033 1 
3109 1 
3110 3 
3111 1 
3166 1 
3167 2 
3168 1 
3826 1 
3827 3 
3828 1 
3829 1 
3830 3 
3831 1 
3871 1 
3872 2 
3873 1 
3898 1 
3899 3 
3900 1 
3940 1 
3941 3 
3942 1 
4000 1 
4001 3 
4002 1 
4009 1 
4010 3 
4011 1 
4171 1 
4172 3 
4173 1 
4243 1 
4244 3 
4245 1 
5029 1 
5030 2 
5031 1 
5086 1 
5087 3 
5088 1 
5155 1 
5156 3 
5157 1 
5194 1 
5195 3 
5196 1 
5203 1 
5204 2 
5205 1 
5257 1 
5258 2 
5259 1 
5269 1 
5270 3 
5271 1 
5311 1 
5312 3 
5313 1 
5326 1 
5327 2 
5328 1 
5389 1 
5390 3 
5391 1 
6109 1 
6110 3 
6111 1 
6118 1 
6119 3 
6120 1 
6151 1 
6152 3 
6153 1 
6157 1 
6158 3 
6159 1 
6166 1 
6167 3 
6168 1 
6172 1 
6173 3 
6174 1 
6331 1 
6332 3 
6333 1 
6349 1 
6350 3 
6351 1 
6472 1 
6473 3 
6474 1 
6523 1 
6524 3 
6525 1 
6529 1 
6530 2 
6531 1 
6592 1 
6593 3 
6594 1 
6598 1 
6599 3 
6600 1 
6637 1 
6638 3 
6639 1 
6643 1 
6644 3 
6645 1 
7303 1 
7304 3 
7305 1 
7309 1 
7310 2 
7311 1 
7369 1 
7370 3 
7371 1 
7534 1 
7535 2 
7536 1 
7540 1 
7541 2 
7542 1 
7558 1 
7559 3 
7560 1 
7714 1 
7715 3 
7716 1 
8374 1 
8375 2 
8376 1 
8380 1 
8381 3 
8382 1 
8398 1 
8399 2 
8400 1 
8437 1 
8438 3 
8439 1 
8497 1 
8498 2 
8499 1 
8578 1 
8579 2 
8580 1 
8614 1 
8615 2 
8616 1 
8629 1 
8630 3 
8631 1 
8671 1 
8672 3 
8673 1 
8698 1 
8699 3 
8700 1 
8746 1 
8747 2 
8748 1 
9580 1 
9581 3 
9582 1 
9586 1 
9587 2 
9588 1 
9598 1 
9599 3 
9600 1 
9709 1 
9710 3 
9711 1 
9772 1 
9773 2 
9774 1 
9820 1 
9821 3 
9822 1 
9835 1 
9836 2 
9837 1 
9952 1 
9953 2 
9954 1 
9955 1 
9956 2 
9957 1 
10660 1 
10661 3 
10662 1 
10717 1 
10718 3 
10719 1 
10831 1 
10832 2 
10833 1 
10852 1 
10853 3 
10854 1 
10918 1 
10919 2 
10920 1 
10954 1 
10955 3 
10956 1 
10963 1 
10964 3 
10965 1 
10972 1 
10973 2 
10974 1 
11623 1 
11624 2 
11625 1 
11737 1 
11738 3 
11739 1 
11752 1 
11753 3 
11754 1 
11755 1 
11756 2 
11757 1 
11758 1 
11759 3 
11760 1 
11806 1 
11807 3 
11808 1 
11809 1 
11810 3 
11811 1 
11929 1 
11930 3 
11931 1 
11977 1 
11978 2 
11979 1 
11989 1 
11990 3 
11991 1 
11998 1 
11999 3 
12000 1 
12037 1 
12038 3 
12039 1 
12058 1 
12059 2 
12060 1 
12820 1 
12821 3 
12822 1 
12826 1 
12827 3 
12828 1 
12835 1 
12836 3 
12837 1 
12934 1 
12935 2 
12936 1 
13051 1 
13052 3 
13053 1 
13072 1 
13073 2 
13074 1 
13660 1 
13661 3 
13662 1 
13675 1 
13676 3 
13677 1 
13678 1 
13679 3 
13680 1 
14020 1 
14021 3 
14022 1 
14215 1 
14216 3 
14217 1 
14812 1 
14813 3 
14814 1 
14875 1 
14876 3 
14877 1 
15043 1 
15044 3 
15045 1 
15160 1 
15161 3 
15162 1 
15163 1 
15164 2 
15165 1 
15823 1 
15824 3 
15825 1 
15943 1 
15944 3 
15945 1 
15994 1 
15995 3 
15996 1 
16183 1 
16184 3 
16185 1 
16192 1 
16193 3 
16194 1 
16234 1 
16235 3 
16236 1 
16243 1 
16244 3 
16245 1 
16918 1 
16919 3 
16920 1 
16963 1 
16964 3 
16965 1 
17098 1 
17099 3 
17100 1 
17200 1 
17201 3 
17202 1 
17215 1 
17216 2 
17217 1 
17263 1 
17264 3 
17265 1 
17929 1 
17930 3 
17931 1 
17935 1 
17936 3 
17937 1 
18106 1 
18107 2 
18108 1 
18118 1 
18119 2 
18120 1 
18163 1 
18164 2 
18165 1 
18169 1 
18170 2 
18171 1 
18214 1 
18215 3 
18216 1 
18343 1 
18344 3 
18345 1 
18355 1 
18356 3 
18357 1 
18991 1 
18992 3 
18993 1 
19051 1 
19052 3 
19053 1 
19066 1 
19067 3 
19068 1 
19123 1 
19124 3 
19125 1 
19138 1 
19139 3 
19140 1 
19174 1 
19175 3 
19176 1 
19192 1 
19193 3 
19194 1 
19195 1 
19196 2 
19197 1 
19237 1 
19238 3 
19239 1 
19294 1 
19295 3 
19296 1 
19312 1 
19313 3 
19314 1 
19375 1 
19376 3 
19377 1 
20026 1 
20027 3 
20028 1 
20077 1 
20078 3 
20079 1 
20086 1 
20087 3 
20088 1 
20209 1 
20210 3 
20211 1 
20338 1 
20339 3 
20340 1 
20395 1 
20396 3 
20397 1 
20431 1 
20432 3 
20433 1 
20437 1 
20438 2 
20439 1 
20455 1 
20456 3 
20457 1 
21094 1 
21095 3 
21096 1 
21172 1 
21173 3 
21174 1 
21175 1 
21176 3 
21177 1 
21232 1 
21233 3 
21234 1 
21343 1 
21344 3 
21345 1 
21349 1 
21350 3 
21351 1 
21391 1 
21392 2 
21393 1 
21478 1 
21479 3 
21480 1 
21589 1 
21590 3 
21591 1 
21592 1 
21593 2 
21594 1 
