ITEM: TIMESTEP
30000000
ITEM: NUMBER OF ENTRIES
1847
ITEM: BOX BOUNDS pp pp pp
0 50
0 50
0 50
ITEM: ENTRIES c_binfo[1] c_binfo[2] c_binfo[3] 
2 10847 10848 
2 10846 10847 
1 10846 19585 
2 19184 19185 
2 5005 5006 
1 5005 19185 
2 13705 13706 
1 8475 13705 
2 8474 8475 
2 5873 5874 
2 13706 13707 
1 8526 16138 
2 7726 7727 
2 7727 7728 
1 7728 10642 
2 10643 10644 
2 10642 10643 
2 8524 8525 
2 16138 16139 
2 8525 8526 
2 5872 5873 
1 5872 8524 
1 10644 16053 
2 16052 16053 
2 16051 16052 
2 3037 3038 
2 1939 1940 
1 1939 3037 
2 1940 1941 
3 9226 9227 
1 9226 17133 
3 9227 9228 
2 17132 17133 
2 10774 10775 
1 10774 17131 
2 17131 17132 
2 19601 19602 
2 5174 5175 
2 14087 14088 
1 14088 15856 
2 19585 19586 
2 19586 19587 
3 21253 21254 
3 21254 21255 
2 5608 5609 
1 5608 21255 
2 20617 20618 
2 5609 5610 
2 2917 2918 
1 2917 5610 
2 10775 10776 
2 20618 20619 
2 2978 2979 
2 2977 2978 
1 2977 20619 
2 19057 19058 
1 2979 19057 
2 17345 17346 
2 8473 8474 
1 8473 17344 
2 17344 17345 
1 2493 17346 
2 14086 14087 
2 20939 20940 
1 5175 20938 
2 20938 20939 
2 15856 15857 
1 16140 20940 
2 15857 15858 
2 14896 14897 
2 14897 14898 
2 3038 3039 
2 19483 19484 
1 14898 19483 
3 8788 8789 
2 19600 19601 
2 17101 17102 
3 4240 4241 
1 4240 17103 
2 17102 17103 
2 5173 5174 
2 18788 18789 
2 18787 18788 
2 4567 4568 
1 4567 15084 
2 19031 19032 
2 19030 19031 
1 6894 19032 
2 20185 20186 
2 20186 20187 
2 2492 2493 
2 2491 2492 
1 2491 2628 
2 2627 2628 
2 2626 2627 
1 2626 18327 
2 18325 18326 
2 18326 18327 
2 17230 17231 
1 17230 18325 
2 4568 4569 
2 7819 7820 
1 7819 15421 
3 15422 15423 
3 15421 15422 
2 7820 7821 
2 2458 2459 
3 10027 10028 
3 10028 10029 
3 8789 8790 
1 8487 20368 
3 20368 20369 
3 20369 20370 
1 8790 20370 
3 7670 7671 
3 7669 7670 
1 7669 14484 
2 187 188 
1 187 15168 
3 8621 8622 
3 8620 8621 
2 188 189 
3 15284 15285 
1 15285 15535 
3 15535 15536 
1 14172 14269 
2 14269 14270 
2 14171 14172 
3 15283 15284 
2 14170 14171 
1 14170 15283 
2 16778 16779 
2 16777 16778 
1 16777 20343 
2 9626 9627 
3 17465 17466 
3 4241 4242 
3 10408 10409 
1 10408 17464 
3 10409 10410 
1 4398 10410 
3 4397 4398 
3 17464 17465 
3 15083 15084 
3 15082 15083 
3 4322 4323 
3 4321 4322 
1 4321 13459 
3 13459 13460 
2 14270 14271 
3 2501 2502 
3 12635 12636 
3 17939 17940 
1 2502 6999 
3 12634 12635 
1 12634 17940 
3 17938 17939 
2 9625 9626 
1 9625 17938 
1 8367 10650 
2 8366 8367 
3 10649 10650 
3 10648 10649 
2 3610 3611 
2 3611 3612 
2 8365 8366 
1 7761 8365 
1 3612 10705 
2 10705 10706 
1 10707 18792 
2 10706 10707 
2 18791 18792 
2 18790 18791 
1 18790 20679 
2 8558 8559 
2 8557 8558 
1 8557 11901 
3 4396 4397 
1 4396 11899 
2 11899 11900 
2 11900 11901 
2 13361 13362 
2 17231 17232 
1 12165 17232 
2 12163 12164 
2 12164 12165 
3 2500 2501 
1 2500 20256 
3 20255 20256 
3 20254 20255 
3 2749 2750 
1 2749 12163 
1 15423 20254 
3 2774 2775 
3 2773 2774 
3 11044 11045 
3 11045 11046 
3 8486 8487 
3 8485 8486 
3 1702 1703 
1 1702 18238 
3 18238 18239 
3 1703 1704 
3 18239 18240 
1 7671 18240 
3 14483 14484 
3 9172 9173 
1 9172 14482 
3 14482 14483 
3 11786 11787 
1 11787 17904 
3 11785 11786 
3 2666 2667 
3 3733 3734 
1 2667 3733 
3 2665 2666 
1 2665 20341 
1 8079 10614 
3 10613 10614 
3 8078 8079 
3 15167 15168 
3 15166 15167 
1 15166 20598 
3 20597 20598 
3 13754 13755 
3 13753 13754 
3 18424 18425 
3 18425 18426 
3 10612 10613 
1 10612 18426 
1 8622 9633 
3 9632 9633 
3 15536 15537 
3 9631 9632 
3 9173 9174 
1 9174 15537 
1 10527 18202 
3 18202 18203 
3 18203 18204 
3 20342 20343 
3 20341 20342 
3 6922 6923 
3 7364 7365 
1 7365 8077 
3 8077 8078 
3 7363 7364 
1 9723 18424 
3 7168 7169 
1 7168 13755 
3 7169 7170 
1 3222 7170 
3 9722 9723 
3 9721 9722 
1 6978 9721 
3 3221 3222 
3 3220 3221 
1 3220 14082 
3 3820 3821 
1 3820 18094 
3 18094 18095 
1 11097 18204 
3 13460 13461 
3 11096 11097 
3 11095 11096 
3 6997 6998 
1 6997 11095 
3 6998 6999 
3 3524 3525 
1 3525 6924 
3 3523 3524 
3 6923 6924 
3 275 276 
3 1552 1553 
3 1553 1554 
1 1554 15700 
3 15700 15701 
2 7760 7761 
2 7759 7760 
1 7759 8752 
2 8752 8753 
2 8753 8754 
3 3187 3188 
3 403 404 
1 403 3189 
3 14081 14082 
3 404 405 
3 3188 3189 
3 3821 3822 
3 15230 15231 
3 14080 14081 
3 6304 6305 
1 6304 14080 
3 6305 6306 
3 5926 5927 
1 5926 6306 
3 11299 11300 
3 11300 11301 
3 19946 19947 
3 5927 5928 
3 2750 2751 
1 2751 19947 
3 19945 19946 
1 3294 5928 
3 12412 12413 
1 12412 19945 
3 12413 12414 
1 429 1704 
3 20596 20597 
3 427 428 
3 428 429 
1 798 20596 
3 10525 10526 
1 10525 17902 
3 17903 17904 
3 17902 17903 
3 15292 15293 
1 15294 16761 
3 15293 15294 
3 16760 16761 
3 21469 21470 
3 21470 21471 
3 11239 11240 
1 11239 21471 
3 11240 11241 
3 3734 3735 
1 3735 11046 
1 3177 10162 
3 3176 3177 
3 3175 3176 
2 2932 2933 
1 2932 3175 
3 20753 20754 
3 1310 1311 
3 1309 1310 
3 796 797 
1 796 1309 
3 797 798 
3 13058 13059 
1 13059 20550 
3 13057 13058 
3 6487 6488 
1 6487 13057 
3 10526 10527 
3 17002 17003 
1 114 17002 
3 113 114 
3 16759 16760 
1 4287 16759 
3 4285 4286 
3 4286 4287 
3 10162 10163 
1 1083 4285 
3 1082 1083 
3 10163 10164 
3 12287 12288 
1 9519 12288 
3 9517 9518 
1 9517 11241 
3 9518 9519 
3 2513 2514 
3 2512 2513 
1 2512 19818 
3 20752 20753 
1 2514 20752 
3 19817 19818 
3 6977 6978 
3 20549 20550 
3 20548 20549 
1 18096 20548 
3 18095 18096 
3 112 113 
1 112 12756 
3 12754 12755 
3 12755 12756 
3 6160 6161 
1 6160 7033 
3 7033 7034 
3 6161 6162 
3 274 275 
3 1081 1082 
3 2494 2495 
1 2494 15105 
3 15103 15104 
1 6162 15103 
3 15104 15105 
3 12286 12287 
3 15701 15702 
3 19816 19817 
3 6976 6977 
3 18334 18335 
3 1265 1266 
3 18335 18336 
3 7034 7035 
3 18248 18249 
3 18247 18248 
1 4293 18247 
3 16027 16028 
3 5788 5789 
1 5788 16027 
3 4292 4293 
3 12482 12483 
3 8602 8603 
1 4761 8602 
3 4760 4761 
3 3292 3293 
1 2208 4653 
3 4651 4652 
1 4651 16029 
3 3293 3294 
3 4652 4653 
3 16028 16029 
3 6934 6935 
1 6934 8604 
3 8603 8604 
3 6824 6825 
3 6823 6824 
3 2206 2207 
1 2206 15702 
3 2207 2208 
2 18661 18662 
1 18661 19411 
2 19411 19412 
3 9001 9002 
1 9001 10929 
3 10928 10929 
3 10927 10928 
1 9171 14508 
3 14507 14508 
2 18662 18663 
3 13949 13950 
3 13948 13949 
1 13948 18663 
1 12849 13950 
3 10088 10089 
3 10087 10088 
1 2934 10087 
3 21205 21206 
2 2933 2934 
2 7000 7001 
2 7001 7002 
3 8710 8711 
1 1311 7002 
3 9170 9171 
3 8711 8712 
1 6489 9169 
3 9169 9170 
3 6488 6489 
3 17003 17004 
3 12847 12848 
1 10047 12847 
3 12848 12849 
3 10046 10047 
3 11570 11571 
3 11569 11570 
3 21206 21207 
1 10497 19971 
2 19970 19971 
3 16457 16458 
2 19969 19970 
3 16456 16457 
1 16456 19969 
3 1603 1604 
1 1603 16458 
3 10522 10523 
3 10523 10524 
1 3978 10522 
3 5789 5790 
3 1604 1605 
1 1605 10045 
3 10045 10046 
3 18922 18923 
1 5790 18922 
3 18923 18924 
3 3977 3978 
3 2495 2496 
3 11153 11154 
3 11152 11153 
1 11154 13648 
3 13648 13649 
3 13649 13650 
3 6847 6848 
1 6847 11152 
1 13650 19230 
2 20777 20778 
2 20776 20777 
3 1264 1265 
1 1264 2008 
3 2008 2009 
3 2009 2010 
3 4291 4292 
3 17498 17499 
3 17497 17498 
3 6935 6936 
3 6848 6849 
3 2890 2891 
1 2890 6936 
1 2892 6849 
3 2891 2892 
2 17458 17459 
2 17459 17460 
2 19229 19230 
2 19228 19229 
1 11049 19228 
3 11048 11049 
3 11047 11048 
2 19412 19413 
3 9002 9003 
2 14017 14018 
1 9003 14017 
2 14018 14019 
3 14506 14507 
3 19505 19506 
3 19504 19505 
2 10496 10497 
2 10495 10496 
3 3976 3977 
1 3976 5505 
3 6100 6101 
3 5504 5505 
3 5503 5504 
1 5503 6100 
3 6101 6102 
2 15238 15239 
2 7181 7182 
2 7180 7181 
3 10768 10769 
3 10769 10770 
2 16876 16877 
2 3157 3158 
1 3157 16878 
2 16877 16878 
2 7360 7361 
1 7360 13924 
1 3159 13926 
3 13925 13926 
3 13924 13925 
2 553 554 
2 20099 20100 
2 5149 5150 
1 5149 20098 
2 20098 20099 
2 5150 5151 
2 3158 3159 
2 11501 11502 
2 11500 11501 
2 13574 13575 
2 13573 13574 
2 13390 13391 
2 6616 6617 
2 13391 13392 
2 16241 16242 
2 6617 6618 
2 16240 16241 
1 6618 16242 
2 2488 2489 
1 2488 12376 
2 12376 12377 
2 2489 2490 
2 2674 2675 
2 2675 2676 
2 14869 14870 
2 19469 19470 
2 19468 19469 
1 12390 13573 
2 12389 12390 
2 12388 12389 
1 12388 19470 
2 15728 15729 
2 19120 19121 
2 1780 1781 
1 1780 15727 
2 1781 1782 
1 1782 19120 
2 15727 15728 
2 19121 19122 
3 9739 9740 
3 9740 9741 
1 9741 9880 
2 9880 9881 
2 9881 9882 
1 9882 15642 
1 11106 19468 
2 20507 20508 
2 20506 20507 
2 10450 10451 
2 10451 10452 
2 13976 13977 
2 10427 10428 
2 15760 15761 
2 10426 10427 
1 10426 15760 
2 15761 15762 
1 10452 15762 
2 1790 1791 
2 1789 1790 
1 1789 13786 
2 12137 12138 
2 13787 13788 
2 12136 12137 
1 12136 13788 
2 13786 13787 
2 7102 7103 
1 7102 12138 
2 7103 7104 
2 15149 15150 
2 15148 15149 
1 7104 15148 
3 134 135 
3 133 134 
2 10603 10604 
1 10603 15397 
1 6396 15399 
2 6395 6396 
2 15398 15399 
2 6394 6395 
1 6394 18939 
2 15397 15398 
2 18938 18939 
2 13310 13311 
2 13309 13310 
1 1791 13309 
2 18937 18938 
1 18937 19188 
2 19186 19187 
2 4205 4206 
2 15259 15260 
2 15260 15261 
2 15239 15240 
2 19187 19188 
2 18050 18051 
2 13733 13734 
2 13732 13733 
2 16715 16716 
2 19183 19184 
1 5874 20506 
1 5589 13707 
2 5588 5589 
2 18131 18132 
2 5587 5588 
1 5587 10866 
2 5347 5348 
2 13975 13976 
1 13975 18465 
2 10942 10943 
1 10942 18130 
2 18130 18131 
2 10943 10944 
2 17407 17408 
1 17407 18463 
2 18463 18464 
2 18464 18465 
2 17408 17409 
2 19384 19385 
2 19385 19386 
1 19386 19485 
2 19484 19485 
1 4959 19384 
2 4958 4959 
2 8761 8762 
1 10449 20811 
2 10448 10449 
2 20810 20811 
2 8762 8763 
2 10112 10113 
1 10113 17964 
2 10865 10866 
2 16714 16715 
2 10447 10448 
1 10447 16714 
2 8677 8678 
1 8677 13584 
2 8678 8679 
2 10864 10865 
1 8679 10864 
2 7237 7238 
2 7238 7239 
1 7239 13026 
2 5348 5349 
2 11218 11219 
1 2877 11218 
2 2876 2877 
2 2875 2876 
1 2875 21043 
2 13447 13448 
2 4957 4958 
1 4957 15150 
1 16959 17380 
2 17380 17381 
2 17381 17382 
2 13448 13449 
3 16132 16133 
1 135 16132 
3 16133 16134 
1 16134 17823 
1 13542 20353 
2 13294 13295 
1 13294 13540 
2 13540 13541 
2 20809 20810 
1 13296 20809 
2 13295 13296 
2 11708 11709 
2 17969 17970 
2 11707 11708 
1 10605 11707 
2 10604 10605 
2 4510 4511 
1 4510 11709 
1 13311 13582 
2 13582 13583 
2 13583 13584 
1 915 21153 
2 21152 21153 
2 914 915 
2 913 914 
2 322 323 
1 322 913 
2 13541 13542 
2 13025 13026 
2 4204 4205 
2 13024 13025 
1 13024 20014 
2 20014 20015 
2 10513 10514 
2 21044 21045 
2 21043 21044 
1 11466 21045 
2 14168 14169 
2 14167 14168 
2 10268 10269 
2 10267 10268 
2 9787 9788 
1 9787 13449 
2 9788 9789 
2 6817 6818 
1 6817 9789 
2 20354 20355 
2 20353 20354 
1 7362 11094 
1 11973 15240 
2 7361 7362 
2 323 324 
2 18049 18050 
1 324 18049 
1 14043 17970 
2 14041 14042 
2 12457 12458 
1 12457 14041 
2 14042 14043 
2 10514 10515 
2 6853 6854 
1 6853 14169 
2 6854 6855 
1 6855 9343 
2 9343 9344 
2 9344 9345 
2 16280 16281 
2 16279 16280 
2 2743 2744 
1 2743 16279 
2 11972 11973 
2 11971 11972 
1 11971 16924 
2 16924 16925 
2 16925 16926 
2 16366 16367 
1 16366 16926 
2 16367 16368 
1 7995 16368 
2 7994 7995 
2 7993 7994 
1 7993 14340 
1 7632 9345 
2 7631 7632 
2 7630 7631 
1 7630 15052 
2 15052 15053 
2 15053 15054 
3 10289 10290 
3 10288 10289 
2 2918 2919 
2 21184 21185 
1 2919 13905 
2 21185 21186 
2 20807 20808 
2 8240 8241 
2 8239 8240 
1 8239 20617 
2 115 116 
1 115 16716 
2 116 117 
1 117 871 
2 13904 13905 
2 13903 13904 
1 13903 16786 
2 16786 16787 
2 16787 16788 
2 871 872 
2 5006 5007 
1 5007 12510 
2 12508 12509 
1 12508 20199 
2 20198 20199 
2 643 644 
1 643 20502 
2 872 873 
1 873 17226 
2 19058 19059 
2 12509 12510 
2 11306 11307 
2 20197 20198 
1 11298 20197 
2 11297 11298 
2 11296 11297 
1 11296 12582 
2 16139 16140 
2 3838 3839 
2 11305 11306 
1 11305 19711 
2 7933 7934 
2 7934 7935 
2 19711 19712 
2 5279 5280 
2 5278 5279 
1 5278 16492 
2 3839 3840 
1 3840 13935 
2 3284 3285 
2 3283 3284 
1 3283 16494 
2 16493 16494 
2 16492 16493 
1 555 10111 
1 8763 18726 
2 17963 17964 
2 18724 18725 
1 18724 20808 
2 17038 17039 
1 17038 17616 
2 17039 17040 
1 5151 17040 
2 18725 18726 
2 10111 10112 
2 554 555 
2 1594 1595 
1 1594 17962 
2 17962 17963 
2 1595 1596 
1 1596 17983 
2 17983 17984 
2 19789 19790 
2 8563 8564 
1 8563 19789 
1 19791 20500 
2 20500 20501 
2 20501 20502 
2 17225 17226 
2 17984 17985 
2 16813 16814 
1 16813 17985 
2 16814 16815 
2 17224 17225 
2 1072 1073 
1 1072 17224 
2 11219 11220 
1 11220 12580 
2 4399 4400 
1 4399 16815 
2 12580 12581 
2 10903 10904 
1 10903 19701 
2 12581 12582 
2 10904 10905 
2 4400 4401 
1 4401 10905 
2 16958 16959 
2 19700 19701 
2 19699 19700 
2 16957 16958 
1 16957 19699 
2 502 503 
1 502 15265 
2 15265 15266 
2 503 504 
1 504 13933 
2 17821 17822 
1 17821 18295 
2 13934 13935 
2 13933 13934 
2 17822 17823 
1 6177 9012 
2 6176 6177 
2 6175 6176 
1 6175 17968 
2 17968 17969 
2 9011 9012 
2 953 954 
2 952 953 
1 952 19182 
1 954 4512 
2 4511 4512 
2 4066 4067 
1 4066 8850 
2 8564 8565 
2 8849 8850 
1 8565 8848 
2 8848 8849 
2 16369 16370 
2 20015 20016 
1 14055 20016 
2 21151 21152 
2 4318 4319 
1 4318 21151 
2 4319 4320 
1 4320 10048 
2 10049 10050 
2 10048 10049 
2 6605 6606 
1 6606 17340 
1 6252 6604 
2 6604 6605 
2 11465 11466 
2 11464 11465 
2 14054 14055 
1 7731 11464 
2 17338 17339 
1 17338 20928 
2 17339 17340 
2 7730 7731 
2 7729 7730 
1 7729 21147 
2 18295 18296 
2 18296 18297 
1 13713 18297 
2 6818 6819 
2 4726 4727 
1 4726 6819 
2 4727 4728 
1 4728 5118 
2 15113 15114 
2 15112 15113 
1 9327 15112 
2 9326 9327 
2 9325 9326 
1 9325 17244 
1 10710 13392 
2 11093 11094 
2 11092 11093 
2 2995 2996 
1 2995 11092 
2 10709 10710 
2 2996 2997 
2 12458 12459 
1 2997 16371 
2 3736 3737 
1 3736 12459 
2 16370 16371 
1 8649 19362 
2 8648 8649 
2 19361 19362 
2 8647 8648 
2 13274 13275 
2 13273 13274 
1 13273 14623 
2 4067 4068 
1 4068 13275 
2 14623 14624 
2 14624 14625 
1 14625 16695 
2 16694 16695 
2 16693 16694 
2 3769 3770 
1 3769 16693 
2 14053 14054 
1 9090 14053 
2 9089 9090 
2 9088 9089 
1 9088 16476 
2 16475 16476 
2 16474 16475 
1 16474 16645 
2 21146 21147 
2 2744 2745 
1 2745 16720 
2 21145 21146 
2 2203 2204 
1 2203 21145 
2 16720 16721 
2 16721 16722 
2 2204 2205 
1 16722 18721 
2 18721 18722 
2 18722 18723 
2 5089 5090 
1 5089 21286 
2 5090 5091 
2 21286 21287 
1 5091 11884 
2 11884 11885 
2 9745 9746 
2 9746 9747 
1 9747 16756 
2 16756 16757 
2 16757 16758 
2 3737 3738 
2 19360 19361 
2 12962 12963 
2 12961 12962 
1 12961 19360 
1 12963 14658 
1 3738 7551 
2 7550 7551 
2 14339 14340 
2 14338 14339 
2 7174 7175 
1 7174 14338 
2 7175 7176 
2 7549 7550 
2 859 860 
1 859 7176 
2 16340 16341 
1 10290 11319 
2 16645 16646 
2 11318 11319 
2 11317 11318 
2 16646 16647 
2 2915 2916 
1 2916 16339 
2 2914 2915 
1 2914 5356 
2 5356 5357 
2 16339 16340 
1 16647 20308 
2 20308 20309 
2 20309 20310 
2 3196 3197 
1 3196 20310 
1 3198 7969 
3 7969 7970 
3 7970 7971 
2 7832 7833 
2 7831 7832 
1 7831 7971 
2 14657 14658 
2 14656 14657 
2 4421 4422 
2 4420 4421 
2 5357 5358 
1 5358 21402 
3 6571 6572 
3 6572 6573 
2 3197 3198 
1 6573 12324 
2 12377 12378 
2 18313 18314 
1 12378 18313 
2 2638 2639 
2 18850 18851 
2 18851 18852 
1 16941 18850 
2 2639 2640 
1 2640 8241 
2 6892 6893 
2 6893 6894 
1 10986 16788 
2 10985 10986 
2 644 645 
1 645 19059 
2 16604 16605 
2 16603 16604 
2 9730 9731 
2 4687 4688 
1 4687 9730 
2 17738 17739 
1 10596 18784 
2 18785 18786 
2 18784 18785 
2 17737 17738 
1 17737 21538 
2 21538 21539 
2 21539 21540 
2 13348 13349 
1 13348 21540 
2 19712 19713 
1 5280 7821 
2 10595 10596 
2 10594 10595 
2 2167 2168 
1 2167 10594 
2 2168 2169 
2 6275 6276 
2 6274 6275 
1 6274 13350 
1 6276 7251 
2 7250 7251 
2 2459 2460 
2 7565 7566 
1 12021 19180 
2 5335 5336 
1 5335 16939 
2 16939 16940 
2 16940 16941 
2 17615 17616 
2 12020 12021 
2 11326 11327 
2 12019 12020 
2 5336 5337 
1 5337 11326 
2 20806 20807 
2 19790 19791 
2 10984 10985 
2 9182 9183 
2 9181 9182 
2 17614 17615 
2 2803 2804 
1 2803 17614 
2 9731 9732 
2 6250 6251 
2 1073 1074 
2 6251 6252 
2 14918 14919 
1 9183 9732 
1 1074 9420 
2 13349 13350 
2 1412 1413 
2 9419 9420 
2 9418 9419 
1 8361 9418 
2 18815 18816 
2 18814 18815 
2 15266 15267 
1 3192 15267 
2 3191 3192 
2 3190 3191 
1 3190 16450 
2 16450 16451 
2 7249 7250 
1 7249 13228 
2 13228 13229 
2 13229 13230 
2 19180 19181 
2 991 992 
1 991 11328 
2 11327 11328 
2 992 993 
2 19181 19182 
2 14390 14391 
1 14391 16369 
2 9010 9011 
2 14389 14390 
1 3804 14389 
2 2804 2805 
2 13397 13398 
2 13396 13397 
2 14917 14918 
1 9900 14917 
2 3803 3804 
2 3802 3803 
2 9899 9900 
2 9898 9899 
1 3771 15835 
2 15835 15836 
2 13672 13673 
1 5616 13672 
2 3101 3102 
2 8360 8361 
2 20927 20928 
2 15205 15206 
1 15205 15837 
2 20926 20927 
2 3100 3101 
1 3100 20926 
2 15836 15837 
2 8359 8360 
1 8359 21502 
2 21502 21503 
2 15206 15207 
2 13712 13713 
2 13711 13712 
1 6183 13711 
2 6182 6183 
2 6181 6182 
2 5131 5132 
1 5131 6181 
2 5117 5118 
2 5116 5117 
1 5116 16935 
2 17243 17244 
2 17242 17243 
1 17242 17403 
3 17402 17403 
3 17401 17402 
2 21287 21288 
2 10708 10709 
1 10708 19795 
2 19795 19796 
2 14870 14871 
1 2304 14871 
2 2303 2304 
2 2302 2303 
1 2302 10086 
2 8023 8024 
2 8024 8025 
2 4915 4916 
1 4915 19797 
1 5571 8647 
2 4916 4917 
1 4917 15120 
2 15119 15120 
2 15118 15119 
2 5615 5616 
2 5570 5571 
2 3770 3771 
2 5614 5615 
2 5569 5570 
1 5569 5614 
2 19522 19523 
2 9611 9612 
2 19523 19524 
2 9610 9611 
2 6575 6576 
1 6576 9610 
2 1280 1281 
1 1281 19522 
1 3102 20947 
2 20947 20948 
2 6574 6575 
1 6574 20949 
2 20948 20949 
1 12846 15207 
2 3340 3341 
1 3340 6822 
2 6821 6822 
2 1516 1517 
1 1516 12844 
2 12844 12845 
2 1517 1518 
1 1518 12397 
2 12397 12398 
2 12398 12399 
1 11886 20380 
2 16934 16935 
2 11885 11886 
2 15493 15494 
1 15493 16758 
2 19796 19797 
2 21346 21347 
2 21347 21348 
2 18017 18018 
2 16804 16805 
1 16804 18018 
2 18016 18017 
2 5398 5399 
1 5398 18016 
2 5399 5400 
2 15494 15495 
2 1279 1280 
1 1279 7549 
2 14032 14033 
1 14032 16341 
2 14033 14034 
1 14034 15195 
1 861 5338 
2 5338 5339 
2 5339 5340 
2 860 861 
2 3341 3342 
2 10202 10203 
2 10201 10202 
2 10345 10346 
1 10345 15684 
1 6315 10201 
2 6314 6315 
2 20381 20382 
2 6313 6314 
1 6313 20382 
2 20380 20381 
2 11857 11858 
3 3685 3686 
1 3685 11857 
2 11858 11859 
1 11859 12399 
1 19122 20200 
2 20200 20201 
2 20201 20202 
1 15495 21444 
2 21443 21444 
2 3721 3722 
1 3721 5400 
2 21442 21443 
2 3722 3723 
1 3717 3723 
2 3716 3717 
1 4422 9091 
2 9091 9092 
2 9092 9093 
2 21401 21402 
2 21400 21401 
1 10347 21400 
2 10346 10347 
3 3686 3687 
2 14951 14952 
1 3165 12322 
2 3164 3165 
2 12322 12323 
2 12323 12324 
2 3163 3164 
1 3163 3687 
2 14950 14951 
3 14348 14349 
3 14347 14348 
2 8780 8781 
2 16639 16640 
2 8779 8780 
1 8779 16639 
2 11390 11391 
2 6646 6647 
1 6646 18315 
2 18314 18315 
1 5214 13360 
2 5213 5214 
2 16483 16484 
1 11391 16483 
2 5212 5213 
1 5212 16485 
2 16484 16485 
2 16343 16344 
2 20678 20679 
2 13360 13361 
2 1054 1055 
1 1054 13362 
2 1055 1056 
1 2025 16603 
2 2024 2025 
2 4688 4689 
2 4064 4065 
2 4063 4064 
1 4063 16848 
1 1056 15229 
1 8559 18786 
1 4689 9670 
2 9670 9671 
2 9671 9672 
2 1411 1412 
1 1411 18175 
1 9672 11161 
3 11161 11162 
2 18175 18176 
2 18176 18177 
1 18177 20869 
2 20869 20870 
2 20870 20871 
3 5629 5630 
1 5629 20871 
2 7564 7565 
2 11389 11390 
2 6647 6648 
2 4975 4976 
1 4975 20827 
2 4976 4977 
2 20827 20828 
2 1364 1365 
2 1363 1364 
1 1363 14565 
2 16342 16343 
2 14564 14565 
2 14563 14564 
2 20002 20003 
1 20002 20829 
2 20828 20829 
2 2023 2024 
1 2023 10060 
2 10061 10062 
1 10062 14919 
2 10060 10061 
2 9991 9992 
1 6237 9991 
2 6236 6237 
2 6235 6236 
1 3924 6235 
2 16847 16848 
1 1413 2931 
2 2930 2931 
2 2929 2930 
1 2929 3922 
2 3922 3923 
2 3923 3924 
2 1493 1494 
1 1494 4903 
2 4903 4904 
2 4904 4905 
2 1492 1493 
1 1492 5623 
1 13587 18816 
2 16451 16452 
2 13586 13587 
2 13585 13586 
1 13585 13956 
2 13318 13319 
1 13318 16452 
2 13955 13956 
2 13319 13320 
2 15640 15641 
1 597 15640 
2 595 596 
2 596 597 
2 2219 2220 
2 2218 2219 
1 2218 8025 
2 158 159 
2 15641 15642 
2 6439 6440 
1 6439 14563 
2 13673 13674 
2 6440 6441 
2 4126 4127 
1 4126 20653 
2 20653 20654 
1 13674 20655 
2 20654 20655 
2 15086 15087 
1 7947 9612 
2 14063 14064 
2 7945 7946 
1 7945 14064 
2 7946 7947 
2 21503 21504 
2 5623 5624 
2 1544 1545 
2 5624 5625 
1 1545 5625 
2 13954 13955 
2 382 383 
1 382 13954 
2 383 384 
1 384 8308 
2 8308 8309 
2 5132 5133 
1 5133 9889 
2 9889 9890 
2 9890 9891 
1 8310 17401 
2 8309 8310 
2 157 158 
1 157 11104 
2 11105 11106 
1 7506 12409 
2 12409 12410 
2 7505 7506 
2 7504 7505 
2 11104 11105 
2 12410 12411 
1 12258 15118 
2 12257 12258 
2 12256 12257 
1 12256 15087 
1 12411 13504 
2 1028 1029 
2 20879 20880 
2 12379 12380 
1 12379 19524 
2 12380 12381 
1 12381 20878 
2 20878 20879 
2 4474 4475 
2 4475 4476 
1 7704 15193 
2 7703 7704 
2 6820 6821 
2 1543 1544 
1 1543 8145 
2 8144 8145 
2 7702 7703 
2 8143 8144 
1 8143 18868 
2 18868 18869 
2 18869 18870 
2 16933 16934 
2 12845 12846 
2 11518 11519 
1 9891 11518 
1 3267 16933 
2 14884 14885 
2 3265 3266 
1 3265 14884 
2 14885 14886 
2 3266 3267 
1 18870 21459 
1 1461 15487 
2 15487 15488 
2 10085 10086 
2 10084 10085 
1 10084 12295 
1 12297 14491 
2 12296 12297 
2 12295 12296 
2 14491 14492 
2 14492 14493 
2 16805 16806 
2 9902 9903 
2 1027 1028 
1 1027 14515 
2 13504 13505 
1 14493 16806 
2 14515 14516 
2 13505 13506 
1 9903 13506 
2 14614 14615 
2 9967 9968 
1 9967 14614 
2 14516 14517 
1 14517 16230 
2 15194 15195 
2 18950 18951 
2 18949 18950 
2 13882 13883 
1 13882 18949 
2 15193 15194 
1 10203 11289 
2 13883 13884 
1 13884 15682 
2 11288 11289 
2 11287 11288 
1 11287 21291 
2 21290 21291 
2 12188 12189 
2 15683 15684 
2 15682 15683 
2 21458 21459 
2 21457 21458 
2 6214 6215 
1 6214 21457 
2 6215 6216 
1 6216 15955 
2 15488 15489 
2 8444 8445 
2 9901 9902 
1 9901 15322 
2 15322 15323 
2 15323 15324 
2 8443 8444 
2 9968 9969 
2 3715 3716 
1 3715 9969 
2 2453 2454 
2 2452 2453 
2 20317 20318 
2 20318 20319 
2 16228 16229 
2 16229 16230 
2 10283 10284 
2 10282 10283 
1 10282 15957 
1 10284 19702 
3 19703 19704 
3 19702 19703 
2 15956 15957 
2 15955 15956 
3 19547 19548 
3 19546 19547 
2 16640 16641 
2 20677 20678 
2 826 827 
1 826 20677 
2 827 828 
1 8007 8754 
2 4295 4296 
1 4296 16641 
2 4294 4295 
3 289 290 
1 289 4294 
3 290 291 
1 828 4065 
3 15229 15230 
3 11782 11783 
1 11782 15231 
1 11784 12483 
3 12653 12654 
3 11162 11163 
1 8373 11163 
3 8372 8373 
3 11783 11784 
3 1408 1409 
1 1408 4759 
3 1409 1410 
3 4759 4760 
3 12652 12653 
1 12654 13738 
2 13738 13739 
3 5630 5631 
1 5631 9640 
2 9640 9641 
2 9641 9642 
1 9642 16404 
1 5811 6648 
2 5810 5811 
2 5809 5810 
1 1200 5809 
2 1199 1200 
2 3250 3251 
1 9993 20004 
2 19471 19472 
2 1198 1199 
1 1198 10941 
2 20003 20004 
2 10940 10941 
2 5827 5828 
2 10939 10940 
2 9268 9269 
1 9268 10939 
2 9269 9270 
2 5828 5829 
2 9992 9993 
1 5829 19389 
2 16846 16847 
2 4252 4253 
1 4252 16846 
2 4253 4254 
2 19388 19389 
1 4254 10251 
2 10250 10251 
2 10249 10250 
1 13320 18781 
2 13739 13740 
2 18781 18782 
2 8161 8162 
1 8161 13740 
2 18782 18783 
1 8163 18783 
2 8162 8163 
2 13876 13877 
1 12180 19473 
2 12179 12180 
2 12178 12179 
1 2604 12178 
2 13877 13878 
2 19472 19473 
2 4127 4128 
1 4128 18795 
2 17107 17108 
1 17107 18793 
2 18793 18794 
2 18794 18795 
2 14062 14063 
2 12040 12041 
1 12040 14062 
2 12041 12042 
2 13477 13478 
1 12042 13477 
1 2562 5851 
2 2258 2259 
2 2257 2258 
1 2257 12750 
1 2259 20880 
2 2561 2562 
2 2227 2228 
2 2228 2229 
1 2229 20905 
2 20905 20906 
2 5851 5852 
2 1357 1358 
1 1357 2227 
2 1358 1359 
2 5852 5853 
2 3638 3639 
1 1359 4476 
2 20906 20907 
2 14519 14520 
2 14518 14519 
1 14520 20907 
1 3639 13431 
1 3894 14518 
2 13430 13431 
2 3892 3893 
2 3893 3894 
2 2603 2604 
2 2602 2603 
2 1466 1467 
1 1467 7378 
2 15085 15086 
2 1465 1466 
1 1465 15085 
2 19928 19929 
2 15340 15341 
2 12749 12750 
2 12748 12749 
1 12748 15340 
2 7378 7379 
2 15341 15342 
2 10318 10319 
1 10318 19929 
2 8242 8243 
1 8242 15342 
2 17582 17583 
2 19927 19928 
2 5746 5747 
1 5746 17583 
2 5747 5748 
2 2560 2561 
1 2560 5748 
2 14219 14220 
2 11519 11520 
2 2911 2912 
1 2911 7702 
1 2913 13594 
2 13595 13596 
2 13594 13595 
2 2912 2913 
2 3637 3638 
1 3637 13596 
1 3003 11520 
2 3002 3003 
2 4109 4110 
2 3001 3002 
1 3001 7356 
2 4108 4109 
2 7355 7356 
2 1459 1460 
1 1459 4110 
2 1460 1461 
2 8243 8244 
2 14615 14616 
1 10320 14616 
2 10319 10320 
2 4603 4604 
2 13850 13851 
2 13849 13850 
2 17581 17582 
1 17581 18951 
1 342 13849 
2 341 342 
2 3496 3497 
2 3497 3498 
2 21289 21290 
1 3180 21289 
2 3179 3180 
2 3178 3179 
1 3178 3498 
2 7664 7665 
2 7663 7664 
2 14065 14066 
1 7665 14067 
2 14066 14067 
2 1315 1316 
2 1316 1317 
2 4604 4605 
1 4605 20319 
2 5908 5909 
2 5909 5910 
2 12187 12188 
2 3151 3152 
1 3151 12187 
2 3152 3153 
2 8006 8007 
3 1070 1071 
3 1069 1070 
1 1071 8005 
2 8005 8006 
3 8371 8372 
3 12481 12482 
1 12481 18249 
3 20122 20123 
3 11201 11202 
3 11200 11201 
1 11200 20124 
3 16403 16404 
3 20123 20124 
3 9101 9102 
1 9102 20038 
2 20038 20039 
2 19387 19388 
1 19387 20040 
2 20039 20040 
2 7399 7400 
2 7400 7401 
3 16402 16403 
1 585 16402 
2 584 585 
2 583 584 
1 583 19660 
2 19660 19661 
2 19661 19662 
1 14961 19662 
2 3251 3252 
1 6654 19045 
2 19045 19046 
2 19046 19047 
3 6653 6654 
3 6652 6653 
3 9100 9101 
1 9100 17433 
1 17109 19047 
2 17108 17109 
2 5782 5783 
2 17432 17433 
2 15152 15153 
2 15151 15152 
2 13478 13479 
2 11144 11145 
2 11143 11144 
1 5940 11143 
2 5938 5939 
1 5938 13479 
2 5939 5940 
2 4114 4115 
1 4114 5853 
2 4115 4116 
2 13429 13430 
3 10675 10676 
1 10675 13429 
2 7379 7380 
1 5784 7380 
2 5783 5784 
2 8407 8408 
3 7480 7481 
1 7480 8407 
2 8408 8409 
2 5582 5583 
2 5581 5582 
1 5581 13719 
1 5583 14220 
2 14218 14219 
2 13717 13718 
2 1285 1286 
1 1285 13717 
2 1286 1287 
2 13718 13719 
2 20821 20822 
2 20822 20823 
2 20276 20277 
2 20275 20276 
3 10676 10677 
2 7354 7355 
1 7354 8140 
3 8140 8141 
2 340 341 
3 7481 7482 
1 7482 14218 
3 8141 8142 
3 15865 15866 
3 15866 15867 
3 14959 14960 
3 14960 14961 
2 17431 17432 
2 11227 11228 
1 11227 17431 
2 11228 11229 
