ITEM: TIMESTEP
30000000
ITEM: NUMBER OF ATOMS
1992
ITEM: BOX BOUNDS pp pp pp
0.0000000000000000e+00 5.0000000000000000e+01
0.0000000000000000e+00 5.0000000000000000e+01
0.0000000000000000e+00 5.0000000000000000e+01
ITEM: ATOMS id type vx vy vz 
10847 2 -1.65977 3.01714 0.626773 
10846 1 0.825756 -7.90915 -0.614401 
19184 2 0.831916 -2.04262 1.3822 
19185 1 3.21093 4.27117 0.566416 
5005 1 4.04283 -9.31415 1.61647 
13705 1 7.8133 -2.41795 -4.74432 
8475 1 -1.0668 -6.83412 -1.71724 
8474 2 2.74833 -1.12167 -0.684976 
5873 2 -1.91943 0.488768 5.94419 
13706 2 1.96273 2.10637 -3.25957 
8526 1 3.45605 1.89607 -2.77291 
7726 1 3.87664 0.176886 0.411119 
7727 2 0.995001 1.1718 -0.894884 
7728 1 8.03877 1.21374 -0.131147 
10643 2 -0.921605 -3.3232 -2.01914 
10642 1 1.20677 -1.45492 2.66562 
8524 1 5.30236 -0.542704 0.0842646 
16138 1 5.22264 3.84732 2.52981 
8525 2 -2.30764 -0.222037 -1.64298 
5872 1 -0.989778 -1.73429 8.36189 
10848 1 4.03677 -1.21552 -3.26277 
16053 1 0.369901 0.0343066 0.440064 
10644 1 -1.09031 -0.0764488 -5.84372 
16052 2 -2.69275 -2.14876 -0.132382 
16051 1 3.23069 -5.63462 0.294036 
3037 1 -4.45243 -4.38218 1.24246 
1941 1 3.1523 -1.55019 -3.10865 
1939 1 -1.5444 3.25095 -0.935317 
1940 2 1.66205 -1.78775 -5.23565 
9228 1 -2.52937 0.93163 0.763198 
9226 1 -0.482491 -1.15672 3.64868 
9227 3 3.52322 0.091756 -1.25258 
17133 1 1.82534 -0.26981 1.67328 
17132 2 -0.782085 -3.44716 -1.97001 
10774 1 -3.28486 -3.51881 3.52148 
17131 1 6.05712 -8.41174 -7.54451 
19601 2 -1.9273 1.21207 -1.72552 
5174 2 1.90378 -0.503348 2.83075 
14087 2 5.88405 -1.39103 0.303531 
14088 1 -0.069821 -2.89528 -4.11254 
19585 1 -4.42538 -2.86924 -2.58435 
19586 2 4.48741 -3.57391 4.03339 
19587 1 -4.187 -3.34618 6.07436 
21253 1 6.5981 -1.76378 -0.712517 
21255 1 0.634668 -4.77573 0.138416 
21254 3 -1.1741 -3.66012 0.931975 
5608 1 -2.31585 -3.69611 1.31976 
20617 1 -0.820939 -0.247111 -0.2156 
5610 1 -1.37114 0.609117 -1.66176 
5609 2 -5.16224 -1.21134 1.72767 
2917 1 2.99535 -0.189224 3.05239 
19602 1 5.35509 2.46021 2.06856 
10776 1 -1.01804 -1.65357 -3.69284 
10775 2 1.17875 -0.253315 0.91087 
20618 2 1.82 -0.398479 4.17175 
2978 2 2.50209 1.27388 0.181724 
20619 1 -8.34345 2.70389 -1.75239 
2977 1 -7.54884 1.61153 -4.43681 
19057 1 1.08085 -2.25658 0.9722 
2979 1 3.41968 -0.969305 -7.93163 
17345 2 -1.95197 3.94399 4.37686 
8473 1 0.571833 2.49764 4.54302 
17344 1 -4.9266 5.46312 4.49457 
17346 1 -4.27368 5.24096 3.2958 
2493 1 -3.74292 1.94968 -0.228874 
14086 1 0.387975 3.95372 1.30102 
20939 2 -1.00141 -0.381429 0.434099 
5175 1 2.86046 -0.380814 -2.32847 
20938 1 -3.06051 -1.57264 -2.44584 
15856 1 -5.99058 -2.77352 -0.416151 
16140 1 2.78267 -0.46349 -3.74104 
20940 1 -1.94063 -0.0972028 -0.860358 
15857 2 -0.0460415 -5.21342 -4.03015 
3039 1 -2.89318 4.38371 0.122671 
14896 1 -2.85255 1.76737 2.55833 
14897 2 -0.301183 -1.36181 -0.0753758 
3038 2 -4.41809 -0.646121 1.86582 
19483 1 -0.500631 -5.26323 2.52145 
14898 1 1.82832 5.39669 4.28186 
8788 1 0.426453 2.9944 -0.567724 
19600 1 1.80885 -3.78999 -0.123097 
17101 1 -7.06 3.58596 -2.68336 
17103 1 1.83789 -0.687407 3.05806 
4240 1 4.36215 0.782388 -2.9848 
17102 2 3.89281 0.0864341 1.97192 
5173 1 1.83076 -1.80483 -0.336541 
18788 2 5.28075 -1.13201 1.69401 
18789 1 6.03681 -2.50421 -0.145762 
18787 1 -1.43117 0.186029 1.26957 
15084 1 -1.85081 2.77262 -3.38796 
4567 1 -1.58854 7.56683 -0.345732 
19031 2 -5.85116 0.746293 -0.653405 
19030 1 6.2162 6.6437 6.63075 
6894 1 -4.37647 0.16726 -0.67672 
19032 1 -0.854296 -0.49726 1.79558 
20185 1 -3.26421 2.15906 -8.18225 
20186 2 1.35061 0.0931628 -0.798611 
2492 2 3.231 0.278838 0.961926 
2491 1 6.9138 -4.7208 -2.54753 
2628 1 -2.31633 -0.799997 -0.898221 
20187 1 -2.62042 0.783536 -6.07697 
15858 1 1.63837 -7.68673 -4.48375 
2627 2 0.432002 1.98235 -1.10753 
2626 1 -6.12079 3.52267 -5.03604 
18325 1 -3.49361 7.64426 2.98243 
18327 1 1.4401 -1.09132 0.494477 
18326 2 1.42537 0.0979048 -0.156118 
17230 1 0.409965 1.31501 0.103112 
4568 2 -6.08779 -4.52619 1.66318 
4569 1 -6.56054 3.59541 -1.74202 
7819 1 -0.49439 3.93542 -4.0592 
15422 3 0.894239 1.3597 -4.05386 
15421 1 2.36642 -1.72901 -4.55321 
7820 2 0.496847 1.02428 -0.283881 
2458 1 1.38703 -1.26992 2.6439 
10029 1 -2.5863 -1.95973 -1.58543 
10027 1 -3.40754 5.76314 -0.737369 
10028 3 -0.205349 2.80198 0.223389 
8789 3 -5.80673 -2.07184 2.80103 
8487 1 -5.5969 -1.6546 0.326119 
20368 1 -2.8819 -3.6279 -4.55666 
20369 3 0.665268 -3.82048 1.7838 
20370 1 1.58386 -2.38243 4.94626 
8790 1 -6.26989 2.50734 2.78208 
7670 3 1.01178 -0.701912 -1.52591 
7669 1 -4.12534 1.52682 -0.412953 
189 1 1.52061 -3.62098 -3.68158 
187 1 -1.65979 -4.54363 -8.51551 
8621 3 0.966458 4.25305 -0.394066 
8620 1 3.73244 1.4621 -5.28814 
188 2 0.592391 1.92777 -1.52942 
15284 3 3.89707 3.93727 -5.38971 
15285 1 -1.29983 0.863032 -4.88353 
15535 1 1.48224 0.00133678 0.338823 
4323 1 4.25478 -0.047283 0.166784 
14172 1 -2.56032 2.02581 3.94034 
14269 1 1.97208 0.0504069 -0.795462 
14171 2 0.0263136 -2.02198 -1.46959 
15283 1 -1.01705 -3.29618 3.03434 
14170 1 -0.497821 6.55613 -4.19437 
16778 2 0.452152 3.33886 -0.559813 
16779 1 -0.4098 -8.59253 -4.23238 
16777 1 4.57488 -0.591174 1.46526 
20343 1 4.67791 -4.89225 -3.27814 
9626 2 -0.360581 -0.342802 -0.570488 
9627 1 -0.531318 -3.20953 1.10594 
17465 3 -0.266953 5.39902 -0.913991 
17466 1 -5.01518 -0.335219 0.914235 
4241 3 2.58538 0.839174 -1.4884 
4242 1 1.10451 -0.724539 -0.257214 
10408 1 1.13928 1.19279 -5.59549 
10409 3 3.76866 3.00599 -2.99228 
4398 1 -0.841946 0.589089 0.0154455 
10410 1 -1.92836 -1.38663 3.33237 
4397 3 -0.305983 0.987686 -1.44802 
17464 1 4.32897 3.01741 2.87564 
15083 3 -2.43647 0.579259 -2.25123 
15082 1 -1.09138 1.31631 0.610465 
4322 3 0.931661 -1.48488 0.566633 
4321 1 -2.17791 -0.609502 0.440661 
13459 1 7.56126 0.613835 -1.8271 
14270 2 2.13856 0.676856 1.17984 
2501 3 -3.31987 0.386904 0.735958 
12635 3 -1.34588 -1.57485 1.33688 
17939 3 3.58764 0.481813 -1.61651 
2502 1 -0.260528 0.685322 -1.21037 
6999 1 -0.872553 3.54147 -2.37762 
12636 1 3.74537 -2.55761 10.367 
17940 1 5.90295 -1.8501 -9.95198 
12634 1 0.947629 -0.725198 1.78995 
14271 1 -6.87291 3.9793 -0.00576733 
17938 1 3.31396 8.24266 -0.318039 
9625 1 1.33696 3.31759 -0.211088 
8367 1 -2.12873 1.37753 -1.03472 
10650 1 -2.89581 3.93249 -0.0923973 
8366 2 -1.9258 -2.5117 -2.38981 
10649 3 -2.18256 -1.60896 -5.18991 
10648 1 -6.77691 -1.13355 3.99516 
3610 1 -2.13947 -0.749015 -5.73336 
3611 2 1.2325 1.90384 -3.19315 
8365 1 -0.507206 2.26461 1.11778 
7761 1 1.89417 1.72026 -1.73231 
3612 1 2.94038 3.76677 -1.73594 
10705 1 -2.31932 4.45382 3.60377 
10707 1 2.38339 0.616631 -0.166702 
10706 2 0.526117 0.789957 1.87212 
18792 1 -0.814246 2.33448 -1.15246 
18791 2 2.42093 -0.912513 2.77844 
18790 1 -2.26273 -1.1419 0.692454 
8558 2 -0.0736321 0.654101 4.00087 
8557 1 -0.729432 3.98679 2.51437 
4396 1 -0.673836 0.0780046 -2.81213 
11901 1 -3.93755 -1.40391 0.0532556 
11899 1 6.47322 -1.07818 1.96552 
11900 2 -0.340587 -0.00274779 0.946324 
405 1 -1.40431 -0.474013 -3.77906 
13361 2 2.13187 0.353055 -1.35368 
17231 2 -0.953203 -0.927262 0.551624 
17232 1 0.66544 1.25284 0.47073 
12165 1 -4.75728 3.70585 -2.9549 
12163 1 -0.584265 -0.908375 0.430106 
12164 2 0.589903 -0.709138 1.28065 
2500 1 -0.477023 -0.201823 -0.712853 
20256 1 0.654137 -2.50486 4.03793 
20255 3 -0.377272 3.16885 -1.55498 
20254 1 1.00108 1.33672 0.368736 
2749 1 -0.448102 -0.571143 -4.04016 
15423 1 7.24762 0.247856 4.91195 
2775 1 1.73949 -0.973021 5.64621 
2774 3 1.86996 2.44989 -0.00422129 
2773 1 3.57136 0.686581 2.46301 
11044 1 1.36794 1.22702 2.08997 
11045 3 -0.504083 2.89991 -1.17473 
8486 3 -3.49813 -4.31217 1.24379 
8485 1 3.28759 -0.872196 -0.31495 
1704 1 -6.8151 -4.52684 2.83858 
1702 1 1.00525 -0.307957 7.28795 
18238 1 -1.21948 0.748931 1.21615 
1703 3 5.28047 0.64428 -4.38342 
14484 1 3.33605 -4.38755 -0.407684 
18239 3 3.44112 -0.597564 -6.16156 
18240 1 -0.741691 2.52322 -3.91457 
7671 1 5.01285 -1.15029 -1.24493 
14483 3 -1.62754 -0.606633 3.61792 
9172 1 1.26078 -1.08191 -2.13817 
14482 1 1.43998 4.55532 -1.10495 
11786 3 0.00377875 -2.65118 4.27295 
11787 1 5.26703 3.83638 1.49111 
17904 1 3.88773 2.25187 4.3892 
11785 1 3.85606 -3.26763 2.255 
2666 3 2.7948 -3.11671 -1.68813 
3733 1 5.85571 0.465243 1.78336 
2667 1 -0.515271 -5.15312 -0.146622 
2665 1 11.0337 -3.66231 -0.908035 
11046 1 -2.33888 0.464306 -7.20359 
8079 1 -3.0475 -0.666492 4.69106 
10614 1 -0.275623 -0.467405 3.2052 
10613 3 -0.323489 2.57852 -0.0852676 
8078 3 1.91554 -0.344164 0.850976 
15168 1 -0.780216 -1.33067 0.277417 
15167 3 2.12457 -1.65635 -2.66226 
15166 1 -5.09218 4.26787 -0.334674 
20598 1 2.04664 3.84455 0.557632 
20597 3 0.778033 0.152994 0.747599 
13754 3 -3.66227 1.69946 -0.644155 
13753 1 0.374506 0.626753 -1.09479 
18424 1 -5.89955 -3.38937 4.00938 
18425 3 4.90789 1.13541 -2.05982 
13755 1 4.96911 -3.2685 -2.26402 
10612 1 3.72121 1.82459 -2.03605 
18426 1 4.83379 -1.75758 -5.02174 
8622 1 -3.4472 0.373726 -1.10928 
9633 1 8.15973 3.92373 2.26047 
9632 3 -2.50842 0.88566 2.16231 
15536 3 -4.25973 -1.20152 -0.700199 
9631 1 -0.235462 5.19097 1.98734 
9173 3 0.312519 -0.498643 -1.56142 
9174 1 2.82615 -3.35147 -4.63165 
15537 1 0.321777 -5.2804 -6.43159 
10527 1 -6.16005 -1.1228 5.11689 
18202 1 -0.837534 -1.59711 0.102473 
18203 3 0.815506 -4.23644 -0.298476 
20342 3 -4.55229 -2.51114 -1.91812 
20341 1 8.58495 0.526751 -3.85779 
6922 1 1.23475 1.2025 -0.745258 
7364 3 -2.60362 -0.438518 -1.43999 
7365 1 7.09103 -5.71793 -3.46952 
8077 1 3.45511 0.380949 1.44509 
7363 1 -7.69653 -0.493939 -4.0943 
9723 1 8.30653 0.360007 -11.5967 
7168 1 -2.45855 -1.42289 2.28647 
7169 3 0.950961 -2.91473 -4.44906 
3222 1 -6.50937 -1.15664 7.80839 
7170 1 5.37093 -1.68773 0.71164 
9722 3 -2.56742 0.662996 -1.27167 
9721 1 3.92411 4.90092 -3.47871 
6978 1 -2.47179 3.57773 -2.02575 
3221 3 1.78287 4.56071 -0.25472 
3220 1 0.401435 5.64258 -3.15844 
3820 1 -0.94005 0.403366 -3.78704 
18094 1 -0.664367 -1.90738 -2.49301 
18204 1 2.9707 0.978708 -1.02426 
11097 1 0.32923 -3.60641 5.15573 
13460 3 -0.420392 1.30184 3.72277 
11096 3 1.46093 2.56224 2.90422 
11095 1 -6.47156 -2.85483 -1.19956 
6997 1 -1.36071 1.87974 3.98035 
6998 3 -0.4334 0.640838 -1.89447 
13461 1 -2.87241 -1.49276 5.25285 
11301 1 5.69542 -1.29103 7.22739 
3524 3 -0.677756 -4.18505 1.80619 
3525 1 0.491755 -3.63762 -6.35087 
3523 1 1.12435 10.0876 -0.620861 
6924 1 4.01368 1.09085 -2.97421 
6923 3 0.38508 3.39813 -0.158339 
275 3 -2.32254 1.6958 -2.30844 
1552 1 3.52615 5.16349 2.47079 
1553 3 0.93286 4.28666 -1.17813 
1554 1 -1.47045 -2.54269 1.89665 
15700 1 -4.173 -2.8809 -0.0525081 
7760 2 1.32107 2.61153 3.4749 
7759 1 -2.49748 5.04096 0.316453 
8752 1 0.923259 -0.792768 3.47201 
8753 2 -0.362029 1.30155 -0.35065 
3187 1 1.20538 -0.547836 2.59475 
3189 1 -0.181843 5.18827 -1.58865 
403 1 -3.83846 -1.50719 -2.18389 
14082 1 -1.66874 -1.87459 -0.8599 
14081 3 -0.454123 0.759828 0.00451815 
404 3 5.63547 1.95251 3.58027 
3188 3 -2.9924 -4.82594 1.43848 
3822 1 -0.6769 -3.5569 -0.306149 
3821 3 -2.9301 -4.11139 0.711727 
15230 3 3.32873 -2.64356 -2.06862 
14080 1 -3.53797 -4.77669 2.29146 
6304 1 2.85154 2.04476 -5.26443 
6305 3 -3.54227 -0.920526 2.22774 
6306 1 -0.809891 1.23735 -4.09339 
5926 1 -7.55038 -2.01043 4.92603 
18336 1 -5.46341 -7.96246 2.62696 
11299 1 1.46595 3.53639 -1.33524 
11300 3 4.38995 -1.35081 -0.882442 
19946 3 2.12193 -0.868239 1.25849 
5927 3 -2.07844 0.436513 -2.82662 
2750 3 0.250283 -0.0812343 3.23548 
276 1 3.19851 -0.803852 6.92585 
2751 1 -0.714319 3.01406 -3.5212 
19947 1 -2.38451 0.493841 -8.13866 
5928 1 -1.31949 -3.88241 3.07361 
19945 1 0.617787 -2.14276 2.49081 
3294 1 -7.12028 -3.99308 0.393154 
12412 1 1.48519 5.00028 -3.70766 
12413 3 0.124841 -0.643908 -2.23289 
12414 1 3.29348 -3.58967 -4.89497 
6825 1 -1.03254 1.52182 -0.229163 
429 1 9.11661 -1.59351 -1.768 
20596 1 3.13978 0.543266 -5.57951 
427 1 5.58435 -1.33622 7.06142 
428 3 -0.1232 6.03092 -0.420191 
798 1 4.72677 -1.09498 0.373634 
10525 1 -4.24286 0.227895 -4.43409 
17903 3 -2.86747 -1.94697 2.48018 
17902 1 -4.69405 -1.4597 1.26705 
15292 1 0.994294 -2.77133 0.999016 
15294 1 -2.66979 4.86315 3.69336 
15293 3 3.10347 -0.279174 0.459784 
16761 1 0.683061 -7.70379 3.12075 
16760 3 1.69644 4.37015 2.39669 
21469 1 2.63852 -6.11332 -2.41425 
21470 3 2.04 -0.174303 -1.26709 
21471 1 2.081 -1.04272 0.564742 
11239 1 2.96095 2.46965 -2.69562 
11240 3 -0.506166 0.193374 1.69539 
3734 3 2.30777 2.69419 -3.29767 
3735 1 -6.41651 -1.53995 -0.448386 
3177 1 0.051503 -1.52149 1.52499 
3176 3 -1.93666 -1.3172 1.18196 
3175 1 -6.44651 4.21383 1.23658 
2932 1 -5.4726 0.135022 -5.47815 
20753 3 -2.2257 -3.96642 -0.499103 
1310 3 1.98249 2.21149 -1.54266 
1309 1 -3.27814 1.7606 0.491645 
796 1 -1.78026 -7.96489 -2.56366 
797 3 1.72377 2.43755 1.97394 
13058 3 0.614663 1.02049 0.99383 
20550 1 -3.75551 0.224818 2.00204 
13059 1 0.0757181 -6.57719 3.26055 
13057 1 5.09264 -3.53792 -5.3436 
6487 1 -1.66046 -2.16188 -0.315421 
10526 3 1.15744 -0.938296 2.29773 
17002 1 -2.94919 3.67085 -0.0430421 
114 1 -0.652 -1.1795 -0.897957 
113 3 1.09901 0.447752 1.86542 
16759 1 -1.55309 1.76349 -0.670958 
4287 1 0.456908 4.6756 -1.80135 
4285 1 -0.0881775 -0.737622 -0.936078 
4286 3 2.36112 5.47707 2.93292 
10164 1 -5.20337 -3.41073 -1.03899 
10162 1 -1.49857 4.05897 -0.868605 
1083 1 -0.985096 0.733104 1.2148 
1082 3 -2.25955 -3.56309 4.45664 
10163 3 1.00007 -0.18394 -2.06755 
12288 1 0.178126 2.52938 5.10868 
12287 3 -2.01096 1.23389 -0.520476 
9519 1 -2.59361 -1.86659 5.4938 
9517 1 4.36352 -6.64974 -0.895486 
11241 1 0.950999 2.11803 -1.86677 
9518 3 -0.130351 -2.33988 1.81773 
2513 3 -1.34452 -2.1043 3.20919 
2512 1 -0.867444 2.24278 -1.40869 
19818 1 -0.392939 1.45097 -3.19979 
20752 1 -0.686474 3.5804 -2.72609 
2514 1 -1.99843 -0.689449 -4.25548 
19817 3 1.60456 -1.69593 -0.244692 
6977 3 -2.33037 -3.53157 0.119634 
20549 3 5.34441 -2.80665 -1.7269 
20548 1 -1.44759 4.18561 3.39861 
18096 1 1.59857 4.13748 -3.0278 
18095 3 0.700929 0.966423 1.70672 
1266 1 -1.46479 -2.48975 2.01994 
112 1 2.56692 2.79714 3.47834 
12756 1 -3.49066 -7.42297 -4.38002 
12754 1 2.12998 -0.015949 0.702935 
12755 3 -3.20416 -1.04877 1.27428 
6160 1 -0.487541 2.25877 7.51536 
7033 1 0.476979 -4.83384 2.5215 
6161 3 -0.0608574 0.876603 0.168729 
274 1 5.47066 4.90745 -2.28948 
1081 1 -0.125163 2.98238 -0.0400122 
2494 1 -3.77431 2.60713 -0.771277 
15105 1 -3.14993 -1.14027 1.53373 
15103 1 2.04388 1.21627 0.824473 
6162 1 3.92021 -2.85288 1.02824 
15104 3 3.27069 1.53062 -3.51234 
12286 1 0.00155839 1.09338 0.659586 
15701 3 3.22803 3.17413 0.366741 
15702 1 2.86187 -3.13162 -3.42987 
19816 1 -5.14241 3.55383 0.160983 
6976 1 -0.822273 7.0955 -4.11297 
18334 1 3.09136 -3.08475 -3.82104 
1265 3 -1.33569 1.00446 5.16358 
7035 1 5.16983 3.80151 -0.864584 
18335 3 -1.86797 4.14143 -0.864004 
18249 1 5.59537 -0.152579 5.98525 
7034 3 -0.766281 -2.97115 3.49525 
18248 3 -0.858766 -2.37142 4.26384 
18247 1 1.74792 1.9053 -0.841436 
4293 1 4.22285 2.43182 -2.06298 
16027 1 -0.881927 3.34623 6.68968 
5788 1 -3.77861 -1.44644 -1.5961 
4292 3 0.61109 4.84179 2.25285 
12482 3 3.48743 2.44305 1.054 
8602 1 -3.85882 -2.9496 0.227893 
8604 1 4.5211 3.96879 -1.6046 
4761 1 1.80008 0.00377576 0.238298 
4760 3 -0.998625 0.905155 0.153249 
3292 1 0.467877 1.43896 -0.787914 
4653 1 -1.27753 2.78002 -0.837164 
2208 1 -2.17001 -1.47722 3.81441 
16029 1 -0.187882 2.6114 0.381175 
4651 1 0.613444 -4.87045 -4.60623 
3293 3 -1.31269 1.5336 -0.214184 
4652 3 1.53473 1.77489 -3.48835 
16028 3 -3.54854 -2.04806 -0.229426 
6934 1 3.99428 3.04868 5.1287 
8603 3 -0.0454898 -0.661419 -2.15965 
6824 3 -0.559447 1.88738 5.78511 
6823 1 7.32148 2.40487 1.57763 
2206 1 -2.97236 -4.28563 5.16494 
2207 3 -0.622948 1.61878 -5.19952 
18661 1 5.02708 0.172927 -7.62945 
19411 1 4.47851 -2.76469 1.94662 
10929 1 2.47744 1.39246 -7.3103 
9001 1 3.81447 1.70269 1.78746 
10928 3 -2.03854 1.80109 0.990729 
10927 1 0.615872 4.40451 -5.4221 
9171 1 -1.27509 -5.11191 -7.34931 
14507 3 2.09848 -3.15722 0.330054 
14508 1 3.57 -2.4108 1.81392 
18662 2 -0.912309 -1.08683 -5.17782 
18663 1 2.9924 1.06452 -0.841933 
13949 3 -1.10762 2.19071 1.45096 
13948 1 -1.91661 -2.20549 -4.97897 
13950 1 0.309968 1.30713 3.21186 
12849 1 -1.54835 -4.39122 2.26719 
10088 3 1.66126 -2.00709 0.224494 
10089 1 0.274211 4.93334 0.463352 
10087 1 0.637564 2.36851 -0.601552 
2934 1 -5.74941 -4.93264 0.214801 
21205 1 2.36829 1.55061 -5.37336 
2933 2 0.612432 3.76004 1.43516 
7000 1 4.44053 0.0538677 -4.61385 
7001 2 1.25113 0.328957 -2.98647 
7002 1 5.49967 4.31263 4.04448 
8710 1 0.970237 1.29488 5.88325 
1311 1 -3.18334 2.43738 0.67053 
20754 1 -4.67422 -0.483917 2.38288 
9170 3 0.439454 -1.39467 -3.02306 
8712 1 -4.71215 -2.93423 -4.33821 
8711 3 0.744852 -2.71207 0.913438 
6489 1 1.56361 -2.73072 4.71422 
9169 1 1.44427 2.28521 -3.2799 
6488 3 1.36404 0.990399 0.39286 
17004 1 -0.874822 1.41651 0.844526 
17003 3 0.823129 2.05552 2.60842 
12847 1 -2.1004 -0.495079 -2.89045 
10047 1 3.53938 2.14408 -3.19621 
12848 3 1.08594 -2.44317 5.73603 
10046 3 0.157991 2.32113 0.550924 
18924 1 0.020802 0.216836 -2.04783 
11571 1 4.29211 3.98573 -2.47985 
11570 3 2.27271 -0.937758 0.0448906 
11569 1 7.44465 3.94561 -1.248 
21206 3 -0.329403 -2.72387 -0.359768 
21207 1 3.83231 -6.60413 0.88107 
10497 1 1.57759 -0.492931 -0.402363 
19971 1 1.99484 0.747162 -5.96272 
19970 2 -0.676036 2.62245 -6.63706 
16457 3 1.6197 1.4177 4.19457 
16458 1 -1.25956 -2.34965 -2.48829 
19969 1 2.43565 1.51859 -7.1944 
16456 1 -3.03897 -4.01975 2.43729 
1603 1 3.17895 2.8575 -1.40852 
10524 1 2.22151 4.30702 2.47258 
10522 1 -0.466763 -1.56232 3.91929 
10523 3 4.7595 0.420996 -0.107433 
3978 1 -0.815233 1.59688 -2.71801 
5789 3 1.93128 -1.87815 0.928001 
1604 3 -3.22236 -0.115112 -1.2815 
1605 1 2.18896 1.47367 -3.18116 
10045 1 0.994285 -5.70755 3.73799 
18922 1 -3.42237 3.12404 1.00717 
5790 1 -3.18553 -1.97839 -6.43308 
18923 3 -2.24406 1.51364 -3.79532 
3977 3 -0.703568 1.61981 2.48878 
2495 3 -1.1006 -2.0744 -3.19067 
11153 3 -3.26512 -2.28646 3.06154 
11152 1 -7.96002 -0.812615 1.79401 
11154 1 2.58541 -1.64402 -2.92863 
13648 1 -2.65794 0.165328 2.63243 
13649 3 1.86327 3.2635 -2.29193 
2496 1 0.739969 0.883061 -4.07409 
6847 1 0.929212 -7.43984 0.107814 
13650 1 -3.19636 3.81014 0.940649 
19230 1 2.16139 5.33045 -0.34875 
20778 1 6.21174 7.66559 -3.41379 
20777 2 1.13539 -0.24617 -3.7102 
20776 1 6.85633 -0.0858896 3.66348 
1264 1 -2.51676 6.44781 5.40196 
2008 1 -5.02745 -3.56091 3.29909 
2009 3 -0.135648 0.73876 0.468571 
2010 1 1.66575 -0.852296 4.91454 
4291 1 -3.14719 6.37771 1.75118 
17499 1 -2.89133 2.73976 -0.630865 
17498 3 0.528009 4.3295 4.12479 
17497 1 -1.12165 0.334973 0.71679 
6935 3 1.55621 0.485974 -0.44329 
6936 1 -9.60561 0.67457 5.02105 
6848 3 1.96169 1.81246 -0.855905 
2890 1 -2.57383 3.57399 -4.52394 
2892 1 0.65363 2.95788 3.03606 
6849 1 0.854592 -1.99719 4.53184 
2891 3 -1.46874 0.789585 3.4092 
17458 1 3.00843 0.908597 0.304613 
17459 2 -4.62991 0.260709 1.59426 
17460 1 2.66052 6.07959 -3.51361 
19229 2 -1.68375 -1.22779 -1.27469 
19228 1 -2.80137 0.383977 -0.908884 
11049 1 -3.16477 -3.08968 2.13133 
11048 3 -1.38499 4.22055 -0.819629 
11047 1 -0.417174 4.88021 3.49985 
19412 2 2.73577 1.82954 -1.65625 
19413 1 1.91897 -5.03222 1.56247 
9002 3 -1.65689 1.18425 0.258671 
14017 1 5.31764 0.821861 2.08739 
9003 1 -2.41685 -0.22236 -0.448757 
14018 2 0.861812 -2.35896 2.66174 
14019 1 1.55464 -0.12813 -3.51183 
14506 1 4.95064 -5.34428 2.62935 
19505 3 -0.323339 -5.76619 5.09728 
19504 1 0.0918888 5.53762 4.19717 
19506 1 6.07586 0.52019 -3.65159 
10496 2 2.79032 -4.59338 -0.92043 
10495 1 -0.748069 -1.84279 -0.521438 
3976 1 -1.71157 -0.935619 -0.899083 
5505 1 4.08785 0.055254 -2.62616 
6102 1 -0.938275 -1.0753 0.519498 
6100 1 -4.44671 -4.7625 -0.688215 
5504 3 2.77778 -2.05277 2.1075 
5503 1 -1.22026 0.87884 0.593115 
6101 3 -0.819787 4.82126 -2.21062 
15261 1 1.38756 1.34212 3.29059 
15238 1 5.94757 -1.90559 -3.56465 
7181 2 0.158878 1.0974 5.52428 
7180 1 4.54446 9.18799 5.54625 
10768 1 5.72456 -2.64028 -3.13521 
10769 3 3.96646 1.22069 1.07025 
10770 1 4.49896 -2.14683 -1.11326 
16876 1 -0.0391719 -2.00787 3.21301 
16878 1 0.504018 1.11016 -2.29533 
3157 1 0.558281 -0.938101 0.642551 
16877 2 -5.49142 -0.21486 -2.05715 
7360 1 1.35759 0.49495 -9.31874 
3159 1 4.05225 6.4456 2.78312 
13926 1 0.74009 1.7956 0.0759242 
13925 3 1.92785 -1.55687 -0.0874718 
13924 1 -2.37857 -1.29392 1.244 
553 1 -3.53986 3.34098 -1.50449 
20099 2 -1.23837 1.8476 0.0766961 
20100 1 -1.92569 4.62411 -4.73481 
5149 1 1.52693 -1.715 -3.63961 
20098 1 1.01526 -2.51631 -1.3829 
2490 1 -1.73026 3.0409 0.318453 
5150 2 -3.52625 -2.09506 3.12725 
3158 2 -0.670749 -0.677414 4.50928 
11502 1 -0.379274 -1.12875 -2.4422 
11501 2 -0.89439 5.18448 -1.51212 
11500 1 4.05346 -0.23149 5.13667 
13575 1 -3.3527 -0.971183 -0.837523 
13574 2 -3.13919 2.17554 -1.10674 
13573 1 -2.32349 0.851024 5.31959 
13390 1 -3.01177 -0.279395 0.437942 
6616 1 -2.68903 -0.677308 2.28254 
13391 2 -0.616076 -0.356125 -3.29737 
16241 2 -4.26432 2.84685 -1.13464 
6617 2 -3.24477 -1.94589 1.68722 
16242 1 -2.57662 0.513613 1.35168 
16240 1 -0.675248 -3.48585 0.629456 
6618 1 -3.15177 5.53705 -0.270904 
2488 1 7.52292 -1.26011 -9.9578 
12376 1 -4.39277 1.41921 -2.35274 
2489 2 0.12616 -1.7954 0.548186 
2676 1 -0.678068 -2.77307 -5.65247 
2674 1 4.49833 5.06414 -5.84093 
2675 2 1.39786 3.10217 -0.772318 
15729 1 -1.06853 0.39073 -4.72936 
14869 1 -3.37045 -2.70263 3.10554 
19469 2 2.58118 4.6539 -2.01372 
19468 1 0.121449 -2.10911 -0.815075 
12390 1 -3.66822 1.17694 -2.63921 
12389 2 0.744033 -4.41377 2.71803 
12388 1 1.01486 3.71995 -0.0240616 
19470 1 0.412195 2.39584 2.85904 
15728 2 2.48484 -0.378101 2.08746 
19120 1 1.23443 -0.746806 5.15074 
1780 1 -1.08753 -7.20962 -2.68215 
1781 2 4.82945 1.5828 3.6646 
1782 1 -3.15645 7.73395 0.308439 
15727 1 -1.31519 -1.30217 1.9839 
19121 2 0.232069 1.76641 -1.54602 
15642 1 1.05848 6.18537 5.06065 
9739 1 4.25336 -5.19284 0.0573818 
9740 3 -1.55656 -0.616917 2.49273 
9741 1 -3.28363 0.372068 3.81026 
9880 1 4.97541 2.90763 -6.90084 
9881 2 2.21925 1.0496 -3.25125 
9882 1 2.47318 7.85421 3.20807 
11106 1 -5.15899 -1.00207 -2.51296 
8445 1 0.586398 -0.176275 -1.75419 
19548 1 2.66026 3.38672 -0.0387839 
20508 1 7.31207 -0.909532 -7.98496 
20507 2 0.696967 -2.89263 -1.76402 
20506 1 -0.41425 -1.89657 3.78247 
10450 1 0.529656 2.62872 1.78177 
10451 2 2.06225 -4.19647 -3.51118 
13976 2 0.209668 2.209 1.73546 
13977 1 0.0841123 2.58926 -3.09206 
10428 1 -3.79545 1.23778 -1.13614 
10427 2 -0.955089 0.949122 5.85411 
15760 1 -5.38818 0.898138 3.41194 
10426 1 -1.68425 2.13078 -0.620229 
15761 2 0.768481 -1.83252 0.879688 
10452 1 0.419228 5.58441 -1.08306 
15762 1 2.57087 -5.87032 -2.51397 
1790 2 -0.0511855 2.42363 0.518202 
1789 1 2.7495 1.31452 -4.66175 
12137 2 1.79786 -5.63206 -1.35182 
13787 2 5.81669 -1.46462 -1.80238 
13788 1 -1.07937 -0.288393 -3.75491 
12136 1 -0.591102 0.289341 -0.130609 
12138 1 -1.78269 -0.857481 6.15603 
13786 1 -0.619836 2.44117 1.43661 
7102 1 -3.26741 1.95774 6.1761 
7103 2 -0.462532 1.19127 -0.347888 
15149 2 4.04054 -4.93073 -3.80667 
15148 1 -0.297991 3.1667 -3.71999 
7104 1 6.93978 -4.71899 -0.0437056 
134 3 4.76198 0.637332 -0.596055 
133 1 -6.94945 0.141091 -1.59788 
10603 1 -1.58595 6.19239 -2.97211 
6396 1 -5.37675 -0.542801 -5.51891 
6395 2 2.92781 3.54354 -1.86604 
15399 1 -1.07659 -1.74868 -1.35551 
15398 2 -3.54916 -3.29349 -1.66275 
6394 1 4.96331 -0.900482 2.0838 
15397 1 2.42687 3.91543 -1.03106 
18939 1 5.63956 -2.8966 2.76214 
18938 2 -0.221132 1.75385 1.84944 
13310 2 -0.857591 0.140637 -0.848194 
13309 1 -3.18426 3.6632 -1.98168 
1791 1 -0.216692 -2.85168 0.530474 
18937 1 -4.52565 -0.711208 -1.49094 
19188 1 1.03893 -0.417318 -0.624757 
19186 1 -0.0174981 -0.173949 8.1975 
4205 2 4.7341 1.82392 -0.0240177 
4206 1 -1.30339 3.16715 -2.10825 
15259 1 -2.19117 -1.80706 1.65606 
15260 2 -2.38719 -2.17084 1.22788 
15239 2 -2.72535 3.40926 -0.363858 
19187 2 1.97541 -0.51338 2.17406 
18050 2 8.2402 1.36158 -0.494168 
18051 1 4.78796 -0.330755 3.42149 
13734 1 5.44454 3.75727 -1.33206 
13733 2 5.01745 -0.288639 0.00620862 
13732 1 3.97803 2.90319 -4.28266 
16716 1 1.35241 2.06096 -4.314 
16715 2 0.205181 0.144752 -0.158205 
10866 1 -1.28752 0.93931 -0.533916 
19183 1 -0.28414 -0.57749 6.46955 
5874 1 -3.92708 -1.19946 1.02237 
5589 1 1.26643 -6.68259 -2.91514 
13707 1 2.7904 2.96521 -2.36372 
5588 2 2.47665 -1.76471 0.364837 
18131 2 3.91218 -0.89311 -1.63753 
5587 1 -6.78249 3.54973 -5.12004 
18132 1 -0.413783 0.0840689 0.252793 
5347 1 1.77069 0.159748 -0.377893 
13975 1 -2.78805 -1.68192 -2.43386 
10942 1 1.20691 1.24069 -1.48092 
18130 1 -4.39217 7.86305 -0.570076 
10943 2 3.75014 1.80863 2.08895 
17407 1 -3.18051 -1.0769 -4.90492 
18463 1 -5.39572 0.670687 -1.44889 
18465 1 -0.131516 -5.9242 -7.59226 
18464 2 0.908274 -3.44158 1.665 
10944 1 -4.63231 4.75668 0.181458 
17408 2 4.10801 -7.1648 2.47129 
19384 1 2.89859 -1.9899 -5.81382 
19385 2 0.024409 -4.60688 -1.68538 
19386 1 -2.63883 -0.306407 3.10886 
19485 1 2.76547 -4.0667 -0.0772882 
19484 2 2.2553 3.57038 -3.68103 
4959 1 -2.62269 -1.59138 7.04867 
4958 2 3.00884 1.75442 1.2746 
8761 1 -5.31605 -0.540473 4.59907 
20811 1 4.57267 1.29306 2.94651 
10449 1 -3.22366 -4.0298 -1.73515 
10448 2 -2.30616 -0.356635 2.05277 
20810 2 -0.0466062 -0.0345725 3.79539 
8762 2 -3.21322 -1.99154 2.33113 
10112 2 0.750597 -0.691156 0.685043 
10113 1 -4.57309 -7.81488 2.28354 
7182 1 -5.64842 5.13488 -2.24185 
10865 2 -2.90658 -0.113172 -1.0242 
16714 1 -0.684831 0.683898 4.72958 
10447 1 0.993179 3.78584 -2.43266 
13584 1 -2.43182 8.97405 -0.684555 
8677 1 0.42411 -4.11871 1.66014 
8678 2 -4.02859 0.759436 -2.21498 
10864 1 1.51219 -0.953924 3.7726 
8679 1 8.02278 4.56782 -7.09989 
7237 1 -5.13681 4.16415 2.7548 
7238 2 -0.610797 -1.84411 2.9176 
7239 1 -1.15701 3.46387 4.91311 
13026 1 1.41261 -5.98273 -1.60049 
5348 2 -1.58183 4.71223 -1.33082 
5349 1 -1.03799 -6.66548 -2.05565 
11218 1 -1.92915 -3.96029 1.45749 
2877 1 3.28428 -1.5634 -4.32609 
2876 2 1.52871 4.25474 2.86493 
2875 1 6.06941 0.54031 -4.65987 
13447 1 1.30138 6.03263 -0.961963 
4957 1 -4.3819 -5.56378 4.83636 
15150 1 5.31012 1.75366 2.82864 
16959 1 -0.902676 0.533733 -5.61145 
17380 1 -1.92806 -2.17556 -2.43681 
17381 2 -1.12962 1.53373 2.34301 
13448 2 0.100844 -1.47153 -2.99747 
13449 1 -0.903307 3.52092 4.02593 
17382 1 8.12781 -6.22069 0.483402 
16132 1 -1.35282 -1.83853 1.09649 
135 1 0.444478 1.37278 -3.01293 
16133 3 -0.0337161 0.153431 -0.273582 
16134 1 -0.537618 2.90117 -2.16956 
17823 1 -5.68527 -4.46496 -0.532351 
13542 1 -0.738991 0.712183 7.05568 
17970 1 3.77473 1.86468 -2.06978 
13294 1 -3.41109 -8.36301 5.92926 
13540 1 -1.97441 3.2777 0.168891 
20809 1 -3.96362 0.936908 5.96363 
13296 1 2.01945 -10.8316 -0.994784 
13295 2 1.76153 6.10182 2.43608 
11708 2 -1.26754 2.61201 0.0438231 
17969 2 -1.107 1.77063 4.92363 
11707 1 1.8057 5.59088 -4.10935 
10605 1 -1.72919 0.723872 -1.7126 
10604 2 -2.07385 2.69734 -5.70171 
11709 1 5.4748 4.35516 0.609571 
4510 1 0.265571 -4.28826 4.08943 
13311 1 2.43364 2.80384 -5.0809 
13582 1 -1.06649 -4.57856 -1.6641 
13583 2 3.4262 -0.360251 -1.13317 
21153 1 -1.31903 0.675391 2.09943 
915 1 2.09501 3.29653 -3.86412 
21152 2 -1.39649 -3.32688 2.61579 
914 2 0.865475 3.03136 2.03657 
913 1 0.556785 2.85202 0.974279 
322 1 -4.27277 2.84602 -1.42869 
13541 2 -0.982191 0.103611 -1.03871 
13025 2 -1.02067 1.49131 2.14773 
4204 1 -0.0064731 2.61016 -0.477998 
13024 1 7.13443 1.05861 -4.16081 
20014 1 4.03865 9.49497 2.38724 
10513 1 3.78104 1.22033 2.15412 
21044 2 -4.20883 -4.11088 -2.683 
21045 1 -0.872944 0.145227 3.64318 
21043 1 -0.094889 -1.21522 9.11526 
11466 1 -3.91095 3.04278 3.30881 
14168 2 -1.67721 0.53903 2.94392 
14169 1 1.25856 3.55147 -0.988656 
14167 1 0.554657 -0.148551 -1.88381 
10268 2 -2.83557 1.60069 -2.56233 
10267 1 2.22883 1.62145 1.28326 
9787 1 -4.70257 5.06793 3.66633 
9788 2 0.637847 -1.60949 -2.79583 
9789 1 -3.23218 -3.11334 -3.32932 
6817 1 -2.67882 0.681245 -2.94324 
10269 1 -0.0816657 0.848721 -0.887869 
20355 1 -0.402178 -2.78507 2.28841 
20354 2 0.0204171 0.835833 2.53627 
20353 1 5.4393 4.86488 -1.14284 
11094 1 0.902948 -3.45708 -1.36382 
7362 1 3.37387 -0.372531 1.00898 
11973 1 -2.48108 -5.01191 6.12417 
15240 1 0.728916 1.07909 1.80702 
7361 2 2.32943 3.16529 -4.34434 
323 2 -0.864012 1.33084 2.63265 
18049 1 -2.08081 -5.2114 -0.813321 
324 1 0.987078 1.37508 -3.09508 
14043 1 -1.72997 2.82998 4.32227 
14041 1 -1.14832 -0.16868 -3.55687 
12457 1 -4.40048 3.73674 -0.0526923 
14042 2 3.02145 1.14971 -2.51849 
10515 1 -0.0918095 0.0906658 -0.374461 
10514 2 1.42877 3.73755 0.603533 
6853 1 0.204747 -2.47804 -0.238828 
6854 2 2.44796 0.934275 -1.67315 
6855 1 -2.44546 5.47035 2.51522 
9343 1 1.18602 0.393474 3.67928 
9344 2 -2.49254 -1.58786 -1.72268 
16281 1 -1.84663 1.22217 -0.18006 
16280 2 0.322797 -2.21907 -0.68331 
16279 1 -0.949543 -3.87027 -3.56237 
2743 1 -4.14579 -1.36344 -2.31258 
11972 2 0.74406 -0.226028 -0.681656 
11971 1 2.2578 5.81122 0.772906 
16924 1 -1.03744 -1.5703 4.969 
16925 2 2.73679 -1.71142 1.79006 
16926 1 -1.83809 4.19806 1.58958 
16366 1 1.30265 -4.18822 0.639388 
16367 2 -1.38071 -1.0685 -0.0158226 
16368 1 -4.863 -3.66609 0.990306 
7995 1 1.75079 3.68213 -5.1268 
7994 2 2.06411 -0.809205 3.11324 
7993 1 -0.762973 1.58279 -1.945 
14340 1 -1.89667 -0.273255 2.00469 
9345 1 -2.32076 0.703605 1.03174 
7632 1 -0.194603 1.91054 -1.70989 
7631 2 -0.888478 -1.67623 -3.86468 
7630 1 4.10758 -1.86285 -1.84716 
15052 1 2.2558 2.46704 -6.52541 
15053 2 -2.11951 -0.840733 2.72287 
10289 3 0.077005 -4.28899 -1.58153 
10288 1 2.03852 0.510254 -2.57683 
7833 1 0.166549 -6.05494 -0.439487 
15054 1 -1.98048 -3.89749 -5.75021 
2918 2 0.351872 -0.254341 3.11613 
21184 1 1.00426 -3.34934 -4.38438 