ITEM: TIMESTEP
30000000
ITEM: NUMBER OF ATOMS
10320
ITEM: BOX BOUNDS pp pp pp
0.0000000000000000e+00 5.0000000000000000e+01
0.0000000000000000e+00 5.0000000000000000e+01
0.0000000000000000e+00 5.0000000000000000e+01
ITEM: ATOMS id type vx vy vz 
13215 1 -4.82893 -2.54003 -3.08291 
13214 3 -4.35935 2.41076 1.92658 
13213 1 0.347321 -1.87392 -5.28415 
16535 2 -0.843585 5.74018 -4.16985 
16534 1 -1.60115 5.02694 4.10253 
5596 1 -6.56034 1.76958 -1.21368 
11851 1 -3.93429 -4.75301 0.274637 
8258 3 0.372557 0.307824 -2.20779 
8257 1 -0.324219 -1.24039 -2.63977 
3979 1 4.54906 4.57764 0.296847 
8259 1 1.06459 -4.37026 0.820458 
3980 2 -0.0622108 1.3228 0.454932 
7475 3 0.681604 -4.36287 -2.79151 
7474 1 -3.12112 0.223493 6.27258 
7476 1 -5.82767 -1.18871 0.0864865 
11725 1 -0.420005 0.993256 3.46872 
8348 3 -0.589338 5.04556 1.0928 
8349 1 -4.18871 -3.95256 -2.6623 
8347 1 2.26033 1.14309 -0.85615 
5373 1 -1.26433 -2.73806 -0.0484093 
5372 2 0.89705 0.859219 0.310694 
7765 1 1.31575 -7.39637 3.41127 
10981 1 2.4721 8.15388 -1.34704 
10982 3 -1.47971 -3.07893 -2.28879 
8667 1 -0.0681572 4.45249 5.8698 
8666 3 2.3897 -3.12043 4.7141 
8665 1 -0.654514 3.79916 2.03791 
9948 1 -0.0802608 -1.69044 -5.09875 
9947 2 0.105126 -1.26483 1.28716 
9946 1 -5.19962 -1.09591 -2.11368 
16977 1 -4.43425 -1.61287 0.688763 
9663 1 6.05221 -4.13558 8.22387 
7767 1 -2.70403 4.12951 1.56963 
7766 3 0.432727 -5.8487 -3.28764 
14619 1 1.03189 -1.63906 -1.0358 
14618 2 -4.13519 1.3443 -1.03813 
14617 1 0.952183 -3.69469 2.15954 
15354 1 1.09566 -3.09328 7.12085 
15352 1 -2.17367 3.0408 1.16306 
15353 3 -6.40106 1.94166 1.25257 
4308 1 2.77193 -1.59296 2.34784 
4306 1 0.922439 1.98428 0.0620399 
4307 3 -2.9381 -1.39479 1.34348 
14011 1 -3.1825 -1.9697 -5.36017 
14012 2 -4.50976 -1.26839 0.25032 
9071 2 0.341849 -0.539507 1.33468 
9070 1 -0.707641 4.04279 3.67726 
12531 1 -0.304505 3.84823 2.25176 
19056 1 1.1392 -2.84895 -2.40661 
19055 3 -1.09687 -1.5056 -0.0938402 
9072 1 3.06686 -3.22512 -2.12469 
19054 1 1.93281 -4.51818 4.29592 
21196 1 -0.568315 -8.66603 2.43816 
12530 3 3.98798 -0.371501 1.89534 
12529 1 -1.09746 0.498193 -5.70503 
1783 1 -4.77178 -2.003 3.35159 
1784 2 1.45359 -0.670111 1.77914 
8450 3 2.35975 -2.97807 -1.06106 
8451 1 3.6071 3.8317 3.85028 
8449 1 -3.19139 -7.53917 -2.33917 
1472 3 -3.63423 1.01945 -3.94045 
1471 1 -3.68285 1.76589 1.6022 
18854 3 2.62007 -0.78607 2.68501 
18853 1 -2.84885 -2.269 -1.51359 
18915 1 6.58852 7.96231 5.65287 
3572 3 0.263594 0.891044 -1.62154 
3573 1 -4.42766 0.434072 2.84942 
9985 1 2.41326 1.668 -3.83766 
9498 1 -1.51138 -1.7158 0.200526 
19774 1 0.177777 2.54426 7.50273 
19775 3 1.73462 -4.81421 1.08372 
16536 1 -4.07173 -1.3224 -2.89464 
19776 1 -3.68361 -0.747053 6.74869 
19626 1 -3.68192 0.436656 -6.35195 
3571 1 3.52379 1.3333 -2.35352 
9496 1 -1.73432 -0.504408 3.39878 
9497 2 -0.0111676 -0.625013 2.31357 
8533 1 -5.9725 -2.29907 -4.85833 
8534 3 -0.658651 -1.97397 -1.17544 
8535 1 3.47015 -1.30159 -0.023402 
3981 1 -1.23151 -2.25479 -3.80309 
11051 2 3.89946 -4.53156 -1.56535 
11052 1 -6.33498 -0.990986 2.11624 
11727 1 0.349773 -1.01679 -1.73335 
11726 3 -2.17769 2.88458 -0.83382 
5371 1 -1.82748 -0.408633 2.36663 
18775 1 1.11691 5.45268 0.293106 
18776 3 1.38851 -3.32468 2.41188 
18777 1 -7.27434 1.35353 3.92163 
20391 1 -1.59427 -0.845347 4.81991 
20390 3 0.93382 -0.614721 1.6205 
8920 1 -4.23928 -0.20845 -2.02775 
8921 3 0.123574 1.05996 -0.76151 
8922 1 -0.445931 4.34419 0.47957 
20399 3 -3.22732 0.849448 1.21756 
20398 1 0.210672 -3.42707 2.87073 
20389 1 -3.95737 -5.27837 0.106655 
8985 1 -2.37058 0.585274 4.44317 
8984 3 2.51315 -1.54056 -2.50354 
8983 1 0.513855 1.53293 -2.63802 
18665 3 2.48746 -0.648582 -1.69021 
599 3 0.0571901 0.81649 0.543509 
598 1 0.549286 0.394661 -0.596053 
10983 1 -0.332337 3.9319 5.21082 
600 1 -3.92781 1.18907 3.59553 
18664 1 -4.6009 -5.24295 3.94915 
9662 2 1.48822 1.47349 5.14601 
16976 2 -2.44629 1.18705 -0.746215 
16443 1 -0.0514824 4.92974 3.32864 
9661 1 -2.31491 0.123076 2.02 
16442 2 0.466761 1.64877 -3.10926 
3636 1 -2.11152 -0.166205 0.874816 
3635 2 2.88871 2.22287 1.11661 
16441 1 -4.71208 6.4146 5.77121 
3634 1 -5.06366 1.37092 -1.19669 
16975 1 2.08795 0.427215 5.14332 
9819 1 -5.92648 7.63512 2.95114 
9818 3 -0.498805 -0.14949 3.22707 
9817 1 -4.08298 -1.9647 -1.7758 
14184 1 -3.78624 -6.64182 -2.51825 
14183 2 -0.903769 0.165654 -3.39108 
14182 1 -0.901758 -0.45151 3.98036 
7428 1 -3.14427 -1.22763 -5.79323 
7427 2 -2.49572 0.509074 2.7595 
1049 3 -1.00363 0.244602 2.89296 
1050 1 -0.017278 -2.78192 4.21004 
9555 1 -4.32427 11.5887 1.36757 
9554 3 2.07631 -1.87015 1.97116 
17908 1 -1.10802 1.73225 -2.27179 
17909 3 1.69618 -4.77037 1.35895 
17910 1 -5.58477 0.752497 1.01245 
21583 1 0.964095 -7.10722 0.239669 
21585 1 -4.90005 3.75338 0.217354 
21584 2 -3.95249 -0.0261902 2.37482 
17406 1 -2.49373 5.19363 4.66881 
16801 1 -5.67235 -0.235614 5.65678 
16803 1 0.934711 -2.07889 0.698471 
16802 2 1.07219 -3.47636 -0.0139553 
17405 2 0.427669 -3.52264 0.737949 
17404 1 2.7799 -4.30779 -4.76677 
6243 1 -0.994642 -2.32927 -1.24752 
6505 1 -3.84101 2.73338 3.30394 
1785 1 0.309142 -4.16859 -3.60173 
6242 3 -0.437414 3.20701 -3.67918 
6241 1 2.83757 -1.49832 -1.142 
3868 1 0.118674 2.52795 3.30995 
3869 2 1.27112 -0.3834 -0.414122 
3870 1 3.1862 -2.24452 -5.72232 
6344 3 1.20432 -3.26181 0.133828 
6345 1 3.01239 -1.84868 1.98062 
9799 1 1.322 1.66613 -3.07783 
9801 1 -1.58936 -0.361405 5.03256 
18913 1 -1.97963 -1.70515 1.07565 
18914 3 3.36576 4.18217 2.56744 
17720 2 -0.0153551 -1.58468 -1.07281 
19625 2 -0.248214 0.282432 0.00382936 
19624 1 -0.760661 1.58432 -0.316204 
17719 1 -1.38631 1.96506 -2.84208 
12709 1 -4.32122 -1.06 1.81742 
12658 1 7.7795 -2.0857 4.06219 
12057 1 -0.0136778 1.78621 2.80371 
17048 3 -1.00879 3.65174 0.907721 
17049 1 8.28899 1.89896 -5.2018 
17047 1 1.9854 -0.487225 -2.08469 
11050 1 -3.80817 1.28707 -1.84779 
7293 1 -0.403614 -1.76505 -0.71242 
7291 1 -2.80087 -0.261125 0.361424 
7292 2 -1.64744 -2.01779 -1.45678 
7783 1 -3.63649 2.7385 -2.96744 
8691 1 4.2758 -1.59031 -0.168714 
21481 1 9.54978 -5.3079 -1.17794 
21482 3 -1.55186 3.60161 -1.62282 
8689 1 1.23527 0.789156 -0.88024 
8690 2 -2.66954 6.01523 -0.284357 
20400 1 7.36825 3.32872 -4.28062 
21483 1 0.193438 0.799888 0.342377 
6280 1 2.07009 1.48812 -2.12299 
18181 1 -0.862021 1.22788 -3.0086 
18182 3 -0.372493 0.572417 -1.59675 
18183 1 -0.660527 0.85904 -3.77122 
19652 3 -0.472381 -0.230582 -1.30129 
19651 1 2.94037 -5.36197 -0.0645878 
18666 1 3.01224 -8.9243 -4.38933 
19653 1 0.224084 0.694865 1.36768 
3429 1 -7.66272 1.54886 -5.72121 
3428 2 -3.20641 -5.84451 2.5438 
1581 1 -5.47676 2.77129 -3.69282 
18732 1 -3.59211 4.54743 9.23372 
18731 2 -1.52567 -6.40394 2.87884 
1580 3 -2.79634 6.64778 -1.28556 
1579 1 3.82492 0.54576 -2.53394 
18730 1 4.90106 -0.322352 7.94916 
7500 1 -1.17508 3.5481 -1.03559 
7499 2 -3.03473 3.67061 0.810217 
7498 1 0.946058 2.03521 7.5366 
7163 3 3.36213 -1.19845 1.32477 
7162 1 -2.32447 -3.5454 -1.53959 
20951 3 1.96585 -0.0420687 -1.96675 
9241 1 0.882198 0.630353 -8.15921 
19938 1 -0.152136 4.20299 -1.57748 
19937 3 -1.31437 -0.842814 -0.0523165 
19936 1 -4.25128 -7.08472 4.9279 
20950 1 4.88291 -1.35532 1.07284 
3389 3 0.218488 -1.10795 -3.98504 
3390 1 4.57118 -9.1923 -2.87194 
3388 1 3.38607 -2.05422 2.03884 
21050 2 0.608966 -1.94726 -0.67257 
12731 3 0.252858 0.0983378 0.109892 
12730 1 4.6124 1.93115 -2.42118 
21051 1 6.44904 4.71387 -6.00458 
7426 1 -2.47067 -0.809421 -5.46635 
12732 1 -0.924751 -3.29555 -1.69948 
13369 1 6.18314 4.22825 -2.70604 
13370 3 -3.75746 4.99938 0.471188 
14069 2 -1.46853 2.5949 0.747447 
14068 1 -0.904638 4.43669 2.56558 
14070 1 -1.30297 1.55657 1.04764 
7164 1 4.82668 -7.20747 1.11921 
20952 1 -0.623526 -1.48183 -4.76906 
13371 1 -3.33891 -5.50207 -2.27032 
1048 1 2.13894 -4.19677 1.78999 
6651 1 -1.22607 1.84205 -9.40535 
6650 2 1.74113 0.924456 2.18893 
9553 1 2.673 1.06373 -1.07535 
6649 1 -4.83884 -7.83808 1.66663 
6609 1 -1.81839 3.05423 1.09532 
6506 2 -0.296944 -2.02309 1.45145 
6343 1 -1.17674 1.19479 -1.7755 
6515 2 -3.31838 0.898939 -2.76454 
6507 1 4.58819 1.49336 2.04215 
6514 1 -5.81581 -8.71843 -4.46094 
6516 1 3.92168 -0.241293 -0.857704 
16418 3 1.11577 0.0422553 1.54808 
5731 1 5.59483 -4.80381 4.18481 
21193 1 3.6326 5.64337 -0.656962 
16417 1 3.03267 2.09647 -1.61186 
18129 1 0.340516 -4.56397 -0.496393 
12711 1 0.92673 2.53593 -0.0105156 
12710 3 -0.122419 2.35282 3.51311 
20980 1 -6.68101 -0.985962 0.56077 
20981 3 -3.59287 -3.10996 -0.645675 
20982 1 3.94072 -1.02248 -5.10481 
12659 2 4.63607 -0.882979 -2.35787 
12056 3 0.0617622 -3.66668 -1.3532 
12055 1 0.753213 -0.560003 2.20724 
5745 1 -1.97705 -0.430993 -3.00612 
5744 3 -3.15174 0.0863984 2.31064 
5743 1 -0.091817 5.08833 -0.053027 
6105 1 1.27342 0.82614 1.51982 
4104 1 1.53446 -0.646164 2.88668 
5277 1 -4.91068 -4.08408 -1.03878 
5276 2 -0.801323 -0.850791 1.62214 
6104 2 -2.32411 -1.23302 -0.422331 
6103 1 -1.42547 1.37421 0.881628 
4102 1 -2.48714 4.29809 2.00555 
4103 2 0.488971 -0.970857 2.40692 
2392 1 -3.22676 0.17455 -2.81107 
2393 3 1.82126 1.01175 -2.91106 
18798 1 1.59041 -1.09419 -1.20528 
7784 2 -1.5176 -1.35757 4.1042 
7785 1 -2.80914 -2.93974 6.30243 
2394 1 1.56321 -3.29189 1.23599 
18797 2 -2.45381 -1.71024 0.01617 
18796 1 -3.34933 2.39812 3.2697 
11802 1 3.61186 -0.188157 3.54699 
6220 1 1.24189 -0.842826 6.17232 
6221 3 0.469689 -3.7535 2.205 
183 1 1.14354 -2.26694 -2.60266 
182 2 -1.9786 -2.43553 -1.36233 
181 1 -1.04064 -0.259359 -1.22516 
6282 1 -2.95878 3.90565 -4.08195 
6281 2 -1.02991 -4.32 -0.216459 
3427 1 -1.737 -0.715549 -2.95731 
11801 3 -3.07282 -1.199 3.58473 
11800 1 -3.09594 0.830989 2.26605 
15472 1 9.58178 -6.70739 -0.199753 
15473 2 0.536358 -4.51832 -0.623906 
9242 2 0.13644 -1.61893 0.785525 
9243 1 1.86428 0.138026 2.31196 
21049 1 6.94031 2.73591 3.39007 
6246 1 -1.72869 -0.694162 2.37537 
6244 1 -0.446982 -3.36688 3.71379 
6245 3 -2.11628 0.322175 -1.6938 
13548 1 3.01065 -4.27962 4.70571 
13547 3 -0.36259 2.10637 -2.09584 
13546 1 6.3264 0.744498 -6.38367 
13435 1 -0.784157 -4.51796 -0.852342 
13436 3 1.28427 -4.93629 -1.53773 
13437 1 -6.49319 -1.89499 -0.585033 
10570 1 0.134552 4.45604 2.66472 
6608 3 -4.28827 -0.6131 -0.704312 
6607 1 -1.75231 -1.87702 2.17761 
20302 1 -1.09496 4.85951 0.472873 
9295 1 -1.66046 -7.62766 -0.467278 
13900 1 -7.29075 7.63721 -0.813525 
10572 1 4.05929 -2.89542 -6.10952 
10571 2 2.05441 -1.33103 -2.5107 
16419 1 -2.00606 -0.905043 4.51973 
5733 1 2.69701 1.1703 -3.5306 
5732 2 -1.64337 -1.85616 -0.579613 
11855 3 -1.22633 -1.36594 -7.82841 
11854 1 3.54211 -1.71657 -2.72735 
204 1 -0.0564304 -6.30669 1.31485 
203 3 -2.05096 -3.04313 -5.08529 
202 1 1.14856 1.50963 -1.5105 
21194 2 1.44931 -0.196114 0.189705 
21195 1 2.12809 -3.11712 4.021 
11856 1 -4.81494 -5.23279 2.73715 
6081 1 -1.83695 4.30394 -1.27597 
6079 1 0.655071 4.42861 -5.5232 
6080 3 -2.74038 2.26511 1.10101 
11034 1 -0.365336 3.16058 1.75335 
11033 3 4.48647 3.62005 -1.87033 
20204 3 1.12329 -1.1396 -2.86131 
20205 1 -9.99911 -5.42789 -1.09031 
20203 1 0.599136 -4.05202 -2.87608 
11964 1 0.061672 4.33972 4.36774 
9491 2 -1.01388 0.681983 3.40934 
9492 1 -7.41412 0.339662 -1.76638 
6316 1 5.12121 -1.05252 3.05624 
9490 1 0.997087 1.38009 2.41697 
6318 1 3.31709 2.67772 -1.39982 
6317 2 0.561772 -1.28186 0.504003 
13699 1 0.766532 0.494967 3.85673 
8841 1 -1.41539 4.86772 -0.260972 
8839 1 2.07444 1.94673 -4.02757 
8840 3 3.71135 -1.88193 2.12501 
5275 1 5.16688 2.48669 3.25496 
2222 3 -5.67277 -3.85778 2.19376 
2221 1 0.365196 1.83649 -2.54813 
18104 3 -4.81598 3.69779 3.1077 
18103 1 1.60956 1.07235 0.169351 
18105 1 0.868329 -6.97888 1.91461 
8881 1 2.37709 0.364192 -6.37579 
8883 1 -6.154 4.39541 9.2929 
8882 3 0.621706 -3.04321 0.758489 
2223 1 -3.48126 -0.420825 -3.86942 
9861 1 5.41678 -7.58037 -5.29048 
9860 3 -2.17513 0.823641 -2.99086 
8775 1 1.12673 -7.51094 7.25992 
9477 1 2.24577 4.35016 0.508545 
9859 1 -0.033005 1.70373 4.40727 
9476 3 -3.1784 1.14307 1.63997 
6222 1 -1.65933 3.7334 -2.10133 
9475 1 6.65546 -1.33013 0.183252 
8773 1 4.33705 2.94898 -4.80787 
8774 3 -3.29559 -3.23983 2.28936 
11379 1 -7.63489 -0.887749 0.721526 
11377 1 3.76342 -6.96363 0.496642 
11378 3 -2.69346 -0.113614 -4.60818 
15474 1 2.65865 -2.31164 7.26433 
3805 1 0.394719 1.83716 -0.749432 
3807 1 0.289628 -6.59258 -1.68694 
5640 1 -0.987486 -0.0896959 -0.0560464 
5639 2 -1.10297 -5.02236 -0.280489 
5638 1 3.48718 1.06002 4.43596 
3806 3 0.0295979 -1.65171 -1.17389 
17948 3 -4.02872 -5.23458 -1.03981 
10072 1 5.37027 -1.40326 -0.995849 
17949 1 2.0339 1.58023 0.612858 
10074 1 5.13333 -2.82166 -5.62276 
10073 2 -0.442847 -4.10368 -1.61894 
17353 1 -4.37943 1.6487 -3.3833 
21190 1 -0.151736 1.51234 -4.99094 
21192 1 -4.53691 -4.5092 0.177413 
21191 2 -1.12952 -0.668328 0.283221 
10722 1 2.62196 1.30913 0.697557 
10721 2 2.75161 -0.42035 4.96921 
10720 1 -4.31244 -4.16691 2.23575 
9297 1 -5.84038 1.38784 -1.87539 
20304 1 4.75845 -0.744797 2.57806 
9296 2 -3.92125 2.45282 4.9001 
20303 2 1.38461 0.6146 2.34898 
19112 2 -1.89229 1.3361 -3.02261 
18542 2 1.42314 3.36616 1.97617 
18541 1 -1.41805 -0.166754 0.192406 
18543 1 3.90559 7.62087 -5.14148 
13901 3 0.896634 1.43757 3.80584 
13902 1 -8.39924 -0.834282 -0.207191 
1428 1 -1.23408 1.33093 -1.45504 
1426 1 2.32807 8.53156 -1.61439 
1427 3 1.27431 -2.19836 -4.80227 
15687 1 -0.688241 1.92108 -0.348053 
15686 2 -3.58344 -0.420658 0.283514 
9431 3 2.23638 1.63906 -2.25595 
9432 1 -3.70371 -2.73177 -0.966206 
9430 1 1.68703 -2.38371 -4.66259 
19111 1 3.18028 1.01884 1.24589 
14265 1 1.84312 -1.89414 3.03664 
14264 3 1.32617 3.42289 1.07605 
4465 1 1.42626 1.21499 -2.38783 
4466 3 0.0378916 -2.43277 -3.61588 
4467 1 2.73337 -3.51035 2.06955 
1650 1 3.05027 4.32456 -3.95844 
1649 2 -0.123699 -3.42519 2.29904 
11011 1 -2.43719 -5.24327 3.44992 
1648 1 2.6575 -3.5608 2.95382 
11012 2 0.679513 -1.58381 2.92452 
13957 1 2.26795 9.06648 7.32372 
11013 1 -1.88008 -4.16353 -4.70102 
13958 3 -4.96003 -2.73725 -2.63432 
11032 1 7.7176 -4.24733 -3.71692 
18944 3 -4.31861 0.884756 2.46243 
18945 1 -0.465285 2.54621 -2.92855 
20584 1 -4.20558 -7.41734 -2.98147 
11963 2 3.17956 -1.47936 5.61318 
8423 3 -4.06307 -0.817255 4.45095 
8424 1 -3.0395 -0.244265 -3.57786 
8422 1 5.84686 0.557202 -4.79505 
8583 1 2.07026 1.0543 -2.2966 
868 1 -3.7917 -4.15288 -3.13567 
869 2 -0.642731 7.80664 -2.4743 
870 1 -0.463473 0.653214 -0.86898 
8527 1 -1.77049 2.38576 1.11094 
8528 3 -5.09598 -0.847007 -0.540779 
8529 1 -4.35113 8.17926 1.41482 
17947 1 -0.983293 1.35248 3.68892 
18837 1 6.28761 4.08553 3.84584 
10204 1 -0.889243 -2.47498 -7.28054 
10206 1 -4.40651 -1.95012 4.86734 
4407 1 -0.844449 0.500484 3.36185 
10205 2 -0.487438 1.75579 -3.63004 
17355 1 5.85102 4.59189 4.75144 
17354 3 -0.750964 1.54505 0.618561 
18836 2 -0.719257 -1.33479 1.19189 
18835 1 -9.04291 1.29095 -3.7949 
1185 1 2.05777 -1.99176 5.84909 
1183 1 -3.4105 -1.39385 6.47049 
14479 1 7.29182 1.34 -1.9494 
14480 3 -1.31843 1.96639 -0.806118 
1184 2 0.219881 -0.0448623 -3.73149 
4948 1 1.2481 -1.73704 -2.92515 
4949 3 2.28972 0.435297 0.75671 
4950 1 -0.0469575 3.06268 -8.41094 
9079 1 2.67038 -0.545196 5.55648 
19113 1 -1.51218 4.78743 -7.57425 
17166 1 -3.62625 -9.24237 -1.48826 
17165 3 -0.24915 -0.495922 -1.44216 
9080 3 2.93646 -0.966602 -0.0969043 
9081 1 5.3239 2.69519 0.607263 
16434 1 -2.19432 -1.71095 -0.109701 
10618 1 3.2023 0.429509 3.62332 
15685 1 -1.07397 -2.34465 3.40588 
10619 2 -3.70227 -1.19258 -3.10693 
10620 1 -4.7087 -3.32611 4.45581 
1060 1 2.60529 0.607859 3.47604 
17164 1 0.101216 -2.00404 -5.65673 
18486 1 -4.90271 6.33851 -6.93212 
18485 2 0.910094 -2.78023 -0.556601 
18484 1 -3.0378 4.4627 4.60032 
14263 1 -0.426645 -3.37221 0.683796 
13959 1 -1.65056 0.851395 -1.48207 
21565 1 -7.44278 0.566289 0.645221 
21567 1 2.97095 -1.3953 2.95602 
21566 3 -0.182051 -1.24292 1.78694 
2536 1 -2.1869 1.64269 2.7974 
5875 1 -2.88821 1.08865 -1.1823 
5429 2 3.51397 5.10075 -2.27697 
5428 1 -5.85185 -5.41397 5.96876 
7225 1 3.04742 2.72649 1.75431 
5430 1 -2.60191 -1.91439 6.50325 
7226 2 -1.41358 -0.480377 -0.719127 
7227 1 -7.76419 4.46618 -0.108116 
2175 1 -3.98682 0.692644 1.73866 
2174 3 0.0662616 -5.45597 -2.50482 
2173 1 -7.65146 5.85884 -0.159676 
12937 1 -0.968871 4.60053 -3.26763 
18943 1 -3.40465 0.0385141 0.926037 
2538 1 3.1942 4.08153 -4.26973 
2537 3 -0.482083 1.69121 0.875555 
20585 3 2.02034 2.73939 2.46484 
20586 1 5.24384 2.81677 0.304472 
619 1 -1.71556 -1.56087 -3.2621 
620 3 0.113539 -1.45573 -0.865898 
8214 1 -0.417135 -5.07688 -6.34464 
8213 2 -0.0539395 -1.21272 -0.901398 
12938 2 1.86532 -2.39216 2.32892 
12939 1 4.03353 1.85644 -5.77614 
9350 2 -0.652292 0.585621 2.5283 
9351 1 0.0462118 2.00485 6.44133 
19223 3 0.977961 -2.53772 3.36987 
19224 1 -3.67398 2.21663 0.252113 
14797 1 -1.04459 5.17424 -0.359049 
14798 2 2.15356 -0.215414 1.54025 
8582 2 -1.81329 0.34015 -1.1337 
16388 2 3.8301 -0.0450343 0.150129 
8581 1 -8.35418 1.65149 4.08073 
16389 1 -5.42204 -0.379694 0.207228 
16387 1 2.34682 -2.54743 8.35788 
18379 1 2.83416 1.62184 -0.561544 
19343 3 0.0163243 0.14359 1.49877 
19342 1 -8.03537 -7.0855 -3.72804 
19222 1 -5.68358 -0.349915 -1.18122 
4956 1 -3.52699 -4.22826 -2.04891 
4954 1 -4.73114 -2.62342 -0.0711247 
4955 3 -0.602019 0.0217863 2.16879 
6355 1 -1.65038 1.46543 7.12715 
6356 2 -5.72269 -1.57325 -4.28184 
6357 1 1.28795 4.94707 -3.5567 
18381 1 0.839363 -2.36165 5.73626 
18380 2 -4.91547 2.15311 1.1736 
16990 1 2.47164 -3.16996 1.05134 
16992 1 6.71167 -0.768889 3.92167 
16991 2 1.8335 -0.374136 2.20535 
14210 3 0.220261 -0.907919 -2.62184 
14211 1 0.0291088 1.61162 0.261554 
13930 1 -3.15648 2.4346 1.58327 
14209 1 5.29404 -6.17419 3.25108 
2333 2 -2.35908 -0.270164 1.49626 
2332 1 -0.655133 1.40268 5.06816 
2334 1 4.27281 -1.05899 -4.12629 
5473 1 -1.80545 0.670061 -2.44461 
5475 1 -5.42406 0.359155 -3.92915 
5474 2 1.83499 -0.601577 0.834062 
11746 1 3.85729 -0.91562 5.45513 
11747 3 -1.32973 -0.188509 -2.52496 
17574 1 -4.38134 -3.36779 3.94142 
17572 1 0.278747 -0.760709 -3.57577 
17573 2 2.74255 0.88597 -4.90834 
13931 2 3.01408 -1.94841 1.45407 
11748 1 -2.17648 -1.15461 -5.43165 
4405 1 1.10541 -0.652872 -3.03115 
4406 2 -1.16448 1.04145 2.56419 
9759 1 -2.89199 2.63354 -4.44255 
9758 3 -2.67654 -1.86405 -3.15558 
9757 1 -3.25689 -4.98079 -3.54903 
10081 1 2.40564 2.06468 -1.4468 
10083 1 4.15217 1.58793 -0.852719 
2225 3 1.42626 1.70997 -3.1372 
2226 1 -1.33966 3.25158 -0.227858 
2224 1 -1.97757 3.13826 6.42611 
13629 1 -2.65579 5.39737 -0.987781 
14481 1 0.370412 1.38816 -1.00056 
13628 3 0.920263 -1.75187 1.89953 
13627 1 3.00966 0.68472 -1.36037 
6420 1 4.05849 -0.0705591 4.76226 
6418 1 -1.02153 -1.86323 -0.233275 
6419 3 1.87736 0.396412 2.7346 
5384 2 0.318564 4.07058 -3.04163 
5383 1 4.47734 1.38026 0.818174 
9769 1 -0.429363 5.86048 -1.64315 
9771 1 -0.50078 -2.60012 2.94564 
9770 2 -0.610704 -1.05697 2.28408 
1483 1 -5.98234 -1.58021 1.93104 
18401 3 -2.47758 -2.61538 -0.173493 
10801 1 -5.21839 -0.691745 1.11363 
1188 1 -6.59661 2.33598 0.102499 
1187 3 0.51454 1.08246 -1.22457 
1186 1 3.28714 1.3455 -2.1605 
18400 1 -2.98612 1.6018 1.52106 
18402 1 4.24865 7.46007 6.40704 
12177 1 1.23957 -4.10839 -0.00719474 
12176 3 -3.08082 -5.13905 4.4831 
12175 1 4.44388 2.77775 1.09907 
16307 2 -2.32952 0.0289283 0.247478 
5385 1 1.86154 6.5717 -3.11465 
3014 2 -1.86788 -1.21971 -3.40662 
21425 3 3.82353 -2.98375 -0.73187 
16432 1 0.49878 0.814917 -2.32078 
5667 1 5.01676 1.59555 -5.96088 
5666 3 4.64697 -1.78655 -3.39842 
5665 1 -1.3178 2.93615 -0.682817 
10188 1 4.37415 5.20399 3.21608 
11647 1 4.98081 6.15056 2.05974 
20631 1 -3.15805 10.3171 -10.3959 
20630 2 2.05149 -0.55145 1.3909 
20629 1 -5.93101 -0.335489 -0.412389 
7871 3 2.70278 4.65178 -3.75088 
16433 3 3.40819 -2.51906 -1.2911 
1061 2 -2.02929 -4.74236 -1.68674 
10187 2 -0.0399487 0.223702 -0.420135 
10186 1 -0.847868 1.15147 -4.4919 
18136 1 -10.116 -6.79848 0.722009 
18137 3 -0.191589 0.121597 2.67244 
18138 1 5.04226 0.522822 -5.51497 
7870 1 -2.396 7.75503 1.04401 
1062 1 -2.71477 0.035155 2.75548 
17814 1 3.35915 1.56634 5.93319 
17813 2 1.02445 2.84751 0.139577 
17812 1 0.87035 0.711954 0.573104 
10330 1 -3.67428 4.25597 1.08651 
10331 2 0.811667 1.04854 -0.549991 
10332 1 -3.62085 1.01913 3.06149 
19760 3 -0.928009 -0.85856 0.959943 
19761 1 5.5377 1.06943 -3.36108 
19759 1 -3.42325 5.95434 -2.01379 
14156 3 2.98322 -0.967987 4.42111 
14157 1 5.08865 -0.157872 0.87211 
14155 1 -4.23572 3.13099 0.578069 
5877 1 -1.58175 0.0440266 8.39774 
5876 2 0.213173 -1.37491 3.18146 
17397 1 1.69201 0.273208 6.30576 
13173 1 -2.06155 0.940228 -5.91818 
13172 3 -0.58845 0.976784 -1.77783 
13171 1 1.30508 1.46989 -1.36356 
8212 1 0.212052 -5.43557 2.71598 
18350 3 2.24539 -0.218107 1.70719 
18351 1 1.60176 -0.151341 -3.54509 
10292 3 -0.907767 3.55958 -1.66316 
10291 1 1.17373 -4.82358 -4.90842 
18349 1 3.05473 -7.67127 3.99704 
9036 1 -1.05056 -1.4559 0.715287 
9035 3 -3.32827 -2.68295 -0.100343 
9034 1 -7.07609 -3.09928 -2.2128 
8387 2 -0.435827 -6.14311 -2.11523 
8386 1 2.28391 0.907005 -6.61395 
19344 1 -3.305 -6.63612 3.52345 
19869 1 -4.44387 -0.525995 4.39184 
12151 1 -0.0943347 -0.605724 5.00334 
12152 2 -0.480685 0.995866 2.28084 
12153 1 -1.12257 3.26522 -3.53964 
19886 3 -0.918023 -1.544 3.32163 
19885 1 -2.0759 3.43534 -0.218469 
8388 1 -1.00862 -1.5852 8.76121 
19868 3 1.16172 -0.405308 1.25365 
19867 1 -0.238213 -0.513596 1.06317 
14868 1 3.36649 -2.54304 -3.20158 
14866 1 -1.87522 -0.00499055 4.89524 
14867 3 -3.15367 1.0116 -3.2188 
19335 1 -6.63563 -1.87766 -2.05897 
13932 1 6.03925 4.8246 4.84884 
10009 1 1.69637 4.60661 4.20141 
10010 2 2.31995 -2.22047 0.457278 
20529 1 1.17675 0.866153 0.980418 
16701 1 -1.08728 2.26419 -2.53209 
10011 1 1.71202 3.41829 0.29715 
16700 2 -6.56692 3.92693 0.018653 
16699 1 1.69384 -2.58539 5.7433 
13120 1 -1.53112 -3.19994 -2.64533 
20527 1 -1.03172 -4.16571 0.121574 
20528 2 0.185039 -1.62881 3.36771 
13121 2 -0.857727 -2.34226 -0.802781 
13122 1 3.27315 1.16821 -1.72644 
10082 3 1.8021 1.19979 -0.736841 
398 3 -1.00225 5.93211 -4.12493 
397 1 2.14272 -0.404119 -5.24304 
399 1 2.11487 2.9862 -4.62533 
16306 1 1.29972 -5.98455 -2.40034 
12697 1 3.42134 -2.23735 7.10182 
1485 1 2.65279 0.387956 1.80489 
9329 2 2.09722 0.261853 -0.78937 
9328 1 -3.99862 -0.571945 -4.44096 
7389 1 2.21296 2.48767 -1.68416 
15806 2 -3.62888 5.14655 1.90765 
15805 1 5.15216 -4.74034 -4.21242 
13590 1 1.10556 0.183541 -0.19545 
15807 1 -1.09544 0.151832 -4.03392 
7388 2 -1.40819 2.76657 -0.738618 
7387 1 0.216892 -3.59284 5.42619 
17704 1 -2.019 -3.65711 1.50165 
17705 3 0.364625 1.92024 -3.07228 
17706 1 0.804749 -2.05606 -3.48033 
19872 1 -5.60314 -0.93066 7.44034 
19871 3 -1.272 0.479131 -0.0356 
13589 3 -3.27092 0.124347 3.28992 
13588 1 5.18608 3.29308 -2.97898 
16308 1 5.14759 -3.80029 3.39771 
12698 2 0.706972 -1.22966 -1.07747 
1252 1 -3.75202 -1.24818 1.66838 
12699 1 -3.11825 0.768722 0.203799 
1253 2 -2.07868 2.22318 -2.15657 
1254 1 -3.04343 2.12732 1.67477 
14147 3 -0.509854 0.296373 -0.628977 
14148 1 1.05401 -7.79288 0.553012 
14146 1 4.11822 4.97009 -8.23631 
1484 3 0.58511 2.25483 1.97421 
10803 1 0.210715 3.28946 -0.0291199 
10802 2 -1.5871 4.0222 -0.587293 
3015 1 3.30915 -3.49399 -1.19782 
3013 1 -0.000619083 3.91907 8.28921 
2987 2 1.72823 -2.8806 1.13716 
2986 1 -0.512033 -2.04324 1.68114 
8854 1 0.599996 1.16683 2.13667 
2988 1 4.70725 -4.32105 -1.5751 
21426 1 -0.486097 -5.69894 -1.08033 
19870 1 5.83017 -2.32673 6.18272 
21424 1 -4.79938 -6.39745 1.91613 
11649 1 -1.90238 2.7993 -0.505564 
11648 3 2.50241 -1.41461 -3.11662 
7872 1 7.25662 1.34258 -0.544379 
2038 1 1.79321 3.78532 -0.556284 
17379 1 6.757 -0.764464 -2.0262 
2039 3 2.99448 5.46478 1.70782 
17378 2 3.37978 4.42079 0.519153 
11587 1 8.459 4.03144 -3.51797 
11588 2 3.75515 -6.64837 2.80674 
11589 1 1.91077 -1.80195 4.41241 
17377 1 1.46105 -0.181721 1.50547 
671 3 -1.662 2.19755 0.323094 
672 1 2.92064 1.66787 -4.59899 
12447 1 -7.23869 -3.14257 -2.71145 
670 1 1.86535 0.10808 1.04131 
2549 2 -0.785795 3.4689 1.22418 
2550 1 -3.92736 7.0899 2.22479 
2548 1 -2.40629 1.06425 -1.2505 
12784 1 1.29948 -4.04543 5.26668 
12785 2 -2.94624 -0.00952071 -0.420551 
12446 3 -5.70778 1.07554 -3.20215 
12786 1 2.29823 2.49552 -2.78417 
14435 3 -0.961227 1.75721 -3.87203 
14434 1 0.123144 2.14342 3.25269 
14436 1 -2.56277 0.957692 -0.931353 
18952 1 3.07799 -1.84319 3.64758 
18954 1 0.585479 -0.70453 1.08876 
18953 2 -4.50166 -1.866 -1.18055 
18990 1 5.4365 -4.86832 4.22177 
7827 1 -0.716046 2.60047 -5.48142 
18989 2 -2.57748 -0.307274 1.53444 
18988 1 4.10037 -5.31534 3.36268 
4113 1 -5.98863 -3.18092 3.71792 
16225 1 0.335621 1.03112 3.74641 
16226 2 -2.15931 -3.72979 -1.00365 
16227 1 -3.99356 -3.96339 3.571 
11142 1 -0.485894 1.45596 -2.50762 
16318 1 2.46334 4.8176 -3.29278 
11141 2 0.883585 0.416385 -1.43136 
11140 1 6.66955 1.9841 1.80811 
19887 1 0.947951 -4.13106 1.95153 
8356 1 -2.35422 -5.15935 -0.637123 
8357 2 6.62397 -0.273817 -0.629734 
5011 1 4.39734 -1.61857 -1.02792 
5012 3 1.23001 -2.55322 3.18059 
5013 1 -1.57225 1.99441 9.32509 
8358 1 -4.61944 2.65854 3.58184 
5211 1 -1.56856 -3.1493 0.924535 
15039 1 -1.38192 -0.0207837 -4.50809 
15038 2 2.72304 1.70574 -1.0429 
15037 1 -0.251447 -1.11744 3.75124 
17829 1 -4.30788 -1.95587 3.89596 
17828 2 1.5248 0.69813 1.27945 
17827 1 0.00315214 1.52778 6.5108 
15316 1 0.481342 -2.62165 3.41765 
15317 2 1.61471 2.38911 -0.87786 
535 1 2.18197 -2.23248 -1.46373 
536 3 2.40707 0.952934 -3.25593 
1599 1 1.34346 -3.0636 4.84687 
1598 3 1.39981 0.840138 -1.09804 
537 1 0.0274001 7.46796 3.10419 
1597 1 -3.40156 -2.67897 0.805348 
3720 1 -0.624099 1.50881 7.25302 
2731 1 -3.39247 5.42584 -0.571655 
2732 3 4.40792 0.916979 -2.83883 
2733 1 -4.01937 -3.01919 -4.98509 
9330 1 -0.169168 1.93242 3.63943 
15582 1 -0.0314619 -1.99234 5.28339 
15581 3 3.28937 1.08583 0.0120283 
15580 1 4.31345 1.5796 2.54897 
8855 3 -1.96591 2.20845 1.21377 
8856 1 -2.16186 2.63539 0.621828 
4804 1 -2.34722 -5.1074 -2.10285 
4805 3 -0.464319 -1.24855 2.35139 
4806 1 1.06899 2.45135 -3.02998 
2040 1 -2.44167 -0.83285 -0.0820104 
5226 1 2.28464 0.395129 2.6508 
15872 3 1.76937 2.90407 -0.13222 
5225 3 2.15041 0.508891 -0.147414 
15873 1 -2.55426 -6.76663 -2.73846 
5224 1 0.837522 -3.47222 5.03468 
2213 3 2.73839 -0.718531 5.67739 
2212 1 -1.22661 -5.99177 -4.56051 
6981 1 -0.454543 -4.76286 4.78906 
7222 1 -4.3801 3.65936 2.11832 
321 1 1.25523 1.31722 7.25101 
12445 1 0.0273457 0.947899 2.11661 
510 1 -5.36021 -1.26433 -2.4011 
509 2 -0.327403 -1.9554 -6.16352 
508 1 2.24944 -1.93068 -4.13579 
7588 1 -3.40803 -0.439455 2.52048 
9559 1 1.5352 -0.382771 6.0533 
9560 2 3.60879 -0.634116 -3.20817 
9561 1 -3.43136 -4.19831 -3.51897 
2214 1 -0.581353 -0.866074 2.54195 
6979 1 6.72206 -3.30254 7.50814 
6980 2 -2.75143 1.45957 4.62484 
7825 1 -5.61549 -1.89487 -6.95353 
7826 2 -3.52795 2.00011 -2.20075 
7590 1 -2.64653 3.50521 1.7592 
7589 2 -2.72305 2.76403 0.414587 
4112 2 -0.70233 -0.505098 2.31847 
4111 1 -0.846925 -3.08769 -1.80089 
16320 1 -0.835453 5.62395 -4.62332 
16319 2 2.35302 3.29399 1.88485 
14653 1 2.214 -5.96239 0.777903 
14654 3 0.508403 5.28965 -3.0876 
14655 1 -3.207 2.93818 -0.679683 
8402 2 2.08171 -1.17647 3.19152 
3676 1 -5.47393 -4.20387 -0.120705 
3677 2 -1.69171 3.03335 -1.26623 
3678 1 -3.36649 7.94413 3.14762 
8401 1 -3.60143 -0.564105 4.18605 
5209 1 -3.16984 4.64903 3.40167 
5210 2 0.849511 -0.537159 -2.37206 
8314 1 4.50004 0.162086 -0.439977 
8315 2 2.09407 4.83605 -2.72024 
8316 1 -2.38919 -0.408948 0.0686148 
2011 1 5.82319 7.35092 1.77225 
2012 3 -1.85937 -0.731304 3.23482 
18918 1 -0.452544 -3.72164 0.199241 
12088 1 1.58512 5.4456 2.81527 
12089 2 1.64316 1.12427 -3.39555 
2013 1 2.22493 -3.17207 0.992346 
12090 1 -1.88085 2.65481 4.27951 
12777 1 -0.284729 0.477471 1.05516 
10022 3 1.23641 -2.99321 0.565829 
12776 2 -1.34112 0.92796 -0.0875812 
12775 1 2.47067 2.83071 -1.43913 
18848 2 -1.17497 2.65247 2.26274 
18847 1 -4.19233 0.986771 0.898938 
10021 1 -7.68332 -3.46718 0.664397 
18849 1 -4.09536 1.11577 -1.25671 
18917 3 -0.972776 4.00505 3.89068 
18916 1 -2.06142 3.61755 -0.0552501 
13203 1 4.20649 -4.29618 2.88846 
14247 1 3.66591 -6.18754 -3.14881 
15318 1 1.66669 -2.94556 1.27475 
13201 1 -2.59901 2.27447 -5.98128 
13202 3 1.78646 -2.0277 0.656828 
15268 1 4.27285 -1.78442 -0.320452 
14245 1 6.05513 2.07519 3.48594 
15269 3 1.47785 1.56925 0.128006 
14246 2 -2.34704 -0.350248 2.07799 
10023 1 0.708773 0.678224 3.68113 
15270 1 -6.23457 0.566076 -5.69219 
3719 2 -1.74391 1.43489 3.41102 
3718 1 -4.9139 -3.78627 0.107418 
1251 1 -4.87575 -0.837616 -1.48182 
1250 2 0.743108 0.181208 4.36449 
17924 3 -3.27085 0.751457 3.03475 
17925 1 -1.90073 3.00946 3.13141 
8962 1 7.52043 2.86945 1.18302 
8963 3 1.64709 -0.828348 -1.83778 
8964 1 -6.71718 2.64051 4.91212 
1249 1 0.318001 -1.05264 2.55117 
17923 1 -2.7922 2.97727 2.0945 
16654 1 2.51458 -2.09447 3.57172 
16655 2 1.40527 3.08089 3.26343 
16656 1 -1.26626 3.07336 0.68999 
21007 1 5.35157 0.232254 5.94714 
21008 3 -3.10015 -0.617587 -2.78787 
21009 1 -3.77009 3.46921 3.47868 
14486 2 -0.53268 5.02325 4.83592 
14485 1 0.0776157 -0.799157 2.36042 
14487 1 -6.49476 -0.518736 -0.298602 
15871 1 0.329674 0.276083 0.985044 
7223 2 0.264723 -1.10727 -5.91879 
7224 1 -0.329927 0.944734 4.77116 
320 2 1.6785 -0.92135 -6.16549 
319 1 -1.51794 -0.843788 2.62875 
4507 1 -3.1304 -0.262458 5.57277 
17238 1 5.62671 -4.82455 -0.26112 
13750 1 -2.15277 0.969416 2.19588 
4508 3 0.880193 2.13914 -6.09848 
4509 1 -0.967069 -7.37801 6.28896 
13751 2 -5.86523 0.187838 0.824995 
13752 1 -4.98625 -3.76857 0.486675 
3905 2 1.45651 5.95729 -2.0593 
3906 1 -4.66346 6.30623 6.13481 
3904 1 7.49892 -0.311979 1.90633 
10158 1 -0.00604567 -0.589293 3.57851 
17237 3 -10.012 2.30699 3.12628 
17236 1 2.07266 -2.14282 -0.220062 
4084 1 1.68587 2.02021 -1.38542 