ITEM: TIMESTEP
30000000
ITEM: NUMBER OF ENTRIES
1176
ITEM: BOX BOUNDS pp pp pp
0 50
0 50
0 50
ITEM: ENTRIES c_binfo[1] c_binfo[2] c_binfo[3] 
2 5161 5162 
2 5162 5163 
3 7778 7779 
3 7777 7778 
1 7777 9114 
1 5025 7779 
3 7682 7683 
3 5024 5025 
3 6346 6347 
1 1932 5161 
3 6347 6348 
3 8867 8868 
3 8866 8867 
3 10490 10491 
1 8868 10491 
3 19 20 
3 7448 7449 
3 17519 17520 
3 15605 15606 
3 7178 7179 
1 7179 15606 
3 7177 7178 
1 7177 18015 
1 8538 10489 
3 3082 3083 
1 3082 5250 
3 15604 15605 
1 6801 17518 
3 17518 17519 
3 5249 5250 
3 5248 5249 
1 21 5248 
3 10489 10490 
3 20 21 
3 17888 17889 
1 4149 17889 
3 9377 9378 
3 7447 7448 
1 7447 9378 
3 9376 9377 
1 9376 14997 
3 11902 11903 
1 11902 20142 
3 11903 11904 
3 3083 3084 
3 2101 2102 
1 2101 3084 
3 2102 2103 
1 2103 11832 
3 17887 17888 
3 20600 20601 
3 18827 18828 
3 18826 18827 
3 20599 20600 
1 13380 18828 
3 3989 3990 
3 13036 13037 
3 13037 13038 
3 20324 20325 
3 20323 20324 
1 20323 20632 
3 20632 20633 
3 11831 11832 
3 11830 11831 
1 10437 11830 
3 5572 5573 
1 5572 19536 
3 19535 19536 
3 19534 19535 
3 20843 20844 
3 13379 13380 
3 21029 21030 
3 21028 21029 
3 3502 3503 
1 3502 21030 
3 13378 13379 
1 13378 21004 
3 21004 21005 
3 20842 20843 
1 20842 21028 
3 3503 3504 
3 12629 12630 
3 12628 12629 
3 8482 8483 
3 8483 8484 
1 5139 8484 
3 5138 5139 
3 5573 5574 
3 9776 9777 
3 11243 11244 
1 5574 11244 
3 11242 11243 
1 11242 19896 
3 19895 19896 
3 15355 15356 
3 9775 9776 
3 9884 9885 
3 8917 8918 
1 8917 9885 
3 8918 8919 
1 8919 13434 
3 12134 12135 
1 12135 21390 
3 21389 21390 
3 21388 21389 
1 1134 11217 
3 11215 11216 
3 11216 11217 
2 12341 12342 
2 12340 12341 
1 12340 18714 
3 18713 18714 
3 7247 7248 
3 18712 18713 
3 7246 7247 
1 7246 18712 
1 7248 10365 
3 1931 1932 
3 1930 1931 
1 1930 13341 
3 18841 18842 
1 3027 18841 
3 13340 13341 
3 13339 13340 
1 1683 13339 
3 1682 1683 
3 18842 18843 
3 1681 1682 
1 1681 17025 
3 3026 3027 
3 9113 9114 
3 9112 9113 
3 3025 3026 
1 3025 9112 
3 20023 20024 
3 1007 1008 
3 20320 20321 
3 20321 20322 
3 1006 1007 
1 1006 20322 
3 1274 1275 
3 9352 9353 
1 1275 9352 
3 9353 9354 
3 8537 8538 
3 1273 1274 
1 1273 15604 
3 8536 8537 
3 6799 6800 
1 6799 8536 
3 7694 7695 
3 7693 7694 
1 7695 11074 
3 11074 11075 
3 6800 6801 
3 11075 11076 
3 20024 20025 
3 8551 8552 
1 8551 20025 
3 8552 8553 
1 8553 11997 
3 11996 11997 
3 11995 11996 
3 4856 4857 
3 14995 14996 
3 4855 4856 
1 4855 14995 
3 14996 14997 
3 3508 3509 
3 3509 3510 
3 422 423 
3 12608 12609 
3 12607 12608 
3 421 422 
3 629 630 
3 628 629 
1 628 3508 
3 1778 1779 
3 16168 16169 
3 16169 16170 
3 21352 21353 
3 21353 21354 
3 3988 3989 
1 3988 21354 
3 4615 4616 
1 4615 18826 
3 4616 4617 
1 1197 4344 
3 1196 1197 
3 1195 1196 
1 1195 11076 
3 4343 4344 
1 3990 9639 
3 12305 12306 
3 12304 12305 
3 10820 10821 
3 20633 20634 
3 10819 10820 
1 10819 20634 
1 10821 19698 
1 19131 19534 
3 19955 19956 
3 8015 8016 
1 1953 19129 
3 19129 19130 
3 1952 1953 
1 7488 8016 
3 8014 8015 
1 8014 20844 
3 391 392 
1 391 2617 
3 4042 4043 
1 4042 4617 
3 4043 4044 
1 4044 17797 
3 2617 2618 
3 392 393 
3 2618 2619 
3 17797 17798 
1 393 4525 
3 3325 3326 
3 3326 3327 
3 5137 5138 
1 5137 10386 
3 10385 10386 
3 19130 19131 
3 10384 10385 
1 10384 18691 
3 18691 18692 
3 18692 18693 
3 20101 20102 
3 20102 20103 
1 2619 14740 
3 4091 4092 
3 7859 7860 
3 4090 4091 
3 12133 12134 
2 13433 13434 
2 13432 13433 
3 21403 21404 
3 21404 21405 
3 13829 13830 
3 18374 18375 
3 13828 13829 
1 13828 18373 
3 18373 18374 
1 13830 13915 
3 13915 13916 
3 13916 13917 
1 4152 19300 
3 19300 19301 
3 4151 4152 
3 4150 4151 
1 4150 5344 
2 5344 5345 
1 5346 19944 
2 5345 5346 
2 19943 19944 
3 10363 10364 
3 2543 2544 
3 2542 2543 
1 2542 13986 
2 1238 1239 
2 1237 1238 
1 1237 12342 
3 10364 10365 
1 14697 18843 
3 14696 14697 
3 14695 14696 
1 14695 18981 
3 6946 6947 
3 6730 6731 
3 6731 6732 
3 1133 1134 
3 1132 1133 
1 1132 6196 
3 6196 6197 
1 6198 6946 
3 6197 6198 
3 14677 14678 
3 14678 14679 
3 18980 18981 
3 7883 7884 
1 9354 21549 
3 21548 21549 
3 4087 4088 
1 4087 21547 
3 21547 21548 
3 4088 4089 
3 17024 17025 
3 17023 17024 
1 17023 17260 
3 17261 17262 
3 17260 17261 
3 6947 6948 
3 16460 16461 
3 16459 16460 
1 6948 16461 
1 7545 16459 
1 6876 7501 
1 7503 11995 
3 7501 7502 
3 7502 7503 
3 6875 6876 
3 6874 6875 
1 6874 17065 
3 15008 15009 
3 15007 15008 
1 15007 17674 
3 103 104 
1 103 630 
3 1777 1778 
3 9110 9111 
3 9109 9110 
1 105 9109 
3 104 105 
3 12871 12872 
3 12202 12203 
1 12202 12873 
3 12872 12873 
3 12203 12204 
3 11935 11936 
3 18688 18689 
3 18689 18690 
3 7543 7544 
1 7543 18688 
3 7544 7545 
3 11936 11937 
3 13775 13776 
3 13774 13775 
3 19697 19698 
3 19696 19697 
3 1951 1952 
1 1951 7812 
3 7487 7488 
3 19954 19955 
3 18304 18305 
1 18304 19954 
3 18305 18306 
3 15901 15902 
1 15901 18306 
3 15902 15903 
3 7810 7811 
3 17177 17178 
1 2166 17178 
3 7486 7487 
1 15576 18690 
3 15575 15576 
3 15574 15575 
3 934 935 
1 934 15574 
3 17798 17799 
3 935 936 
3 10142 10143 
3 10141 10142 
1 10141 11937 
3 12928 12929 
1 12928 17799 
3 20314 20315 
3 20315 20316 
1 5913 20316 
3 5912 5913 
3 9362 9363 
3 9361 9362 
3 6548 6549 
1 6549 9361 
1 9363 21225 
3 7811 7812 
1 3399 18693 
3 3398 3399 
3 3397 3398 
3 2164 2165 
1 2164 3397 
3 2165 2166 
3 14740 14741 
3 14741 14742 
1 7461 14742 
3 7460 7461 
3 7459 7460 
3 574 575 
1 574 7459 
3 12929 12930 
2 3475 3476 
2 3476 3477 
3 5911 5912 
1 3477 5911 
3 21224 21225 
3 21223 21224 
1 21223 21403 
2 21320 21321 
3 1205 1206 
1 1206 18886 
3 18886 18887 
3 1204 1205 
1 1204 13917 
1 1068 11274 
3 1066 1067 
3 1067 1068 
3 19301 19302 
1 4092 19302 
3 15235 15236 
3 15236 15237 
3 12103 12104 
3 12104 12105 
2 19942 19943 
3 2882 2883 
3 2881 2882 
1 2881 19942 
1 2883 5974 
3 5974 5975 
3 5975 5976 
1 3060 6732 
3 15155 15156 
3 15154 15155 
1 15154 18600 
3 20267 20268 
3 18599 18600 
3 18598 18599 
1 18598 20268 
3 18979 18980 
3 1586 1587 
3 20266 20267 
1 1587 20266 
3 1585 1586 
1 1585 19429 
3 19429 19430 
3 6884 6885 
3 19430 19431 
1 2163 15156 
3 7478 7479 
3 7477 7478 
1 7477 8646 
3 8645 8646 
3 8644 8645 
3 2161 2162 
1 2161 4089 
3 2162 2163 
3 8701 8702 
1 8701 9111 
3 3059 3060 
3 3058 3059 
1 3058 10075 
3 10075 10076 
1 8703 17472 
3 17471 17472 
3 8702 8703 
3 17470 17471 
3 13789 13790 
1 13789 17470 
3 10076 10077 
3 17065 17066 
3 17066 17067 
3 6883 6884 
1 6883 17067 
3 5941 5942 
1 5941 10077 
3 5942 5943 
1 5943 10150 
3 10150 10151 
3 12622 12623 
2 2378 2379 
1 2379 15108 
2 15107 15108 
3 17674 17675 
3 8845 8846 
1 8845 17676 
3 8846 8847 
2 2377 2378 
1 2377 8644 
3 17675 17676 
3 15070 15071 
1 12204 15070 
1 16626 19992 
1 12624 15219 
3 15218 15219 
3 15217 15218 
1 15217 21219 
3 19990 19991 
3 19991 19992 
3 7997 7998 
3 21218 21219 
3 12623 12624 
3 19049 19050 
3 2975 2976 
1 2976 19050 
3 2974 2975 
1 2974 16764 
2 15106 15107 
3 14578 14579 
1 14578 15072 
3 14579 14580 
3 15071 15072 
3 3440 3441 
3 3439 3440 
3 7996 7997 
1 7996 14845 
3 14845 14846 
3 14846 14847 
3 2632 2633 
1 2632 14847 
3 19978 19979 
3 2633 2634 
3 21217 21218 
1 6453 21217 
1 936 8074 
3 8074 8075 
3 17176 17177 
3 16762 16763 
1 16762 17176 
3 16763 16764 
3 6452 6453 
3 6451 6452 
1 6451 21552 
3 21550 21551 
3 21551 21552 
3 6547 6548 
1 6547 14580 
3 3088 3089 
3 3089 3090 
1 3090 5016 
3 8818 8819 
3 5512 5513 
1 5512 8818 
3 6580 6581 
1 6580 19978 
3 5513 5514 
1 2634 5514 
1 576 9462 
3 6581 6582 
1 6582 8076 
3 8075 8076 
3 575 576 
3 2656 2657 
3 2657 2658 
1 5946 16297 
3 8819 8820 
1 8820 21319 
2 21319 21320 
3 14113 14114 
3 18887 18888 
1 18888 19512 
3 19511 19512 
3 19510 19511 
1 2658 11272 
3 11273 11274 
3 11272 11273 
1 5061 10053 
3 10052 10053 
3 11000 11001 
3 5059 5060 
1 5059 9525 
3 5060 5061 
3 9524 9525 
3 10999 11000 
2 25 26 
1 2643 8847 
2 26 27 
1 27 2641 
3 2641 2642 
3 2642 2643 
3 13790 13791 
3 6017 6018 
3 16702 16703 
2 16625 16626 
1 1167 16624 
2 16624 16625 
3 14137 14138 
3 1510 1511 
3 6016 6017 
3 16703 16704 
1 14139 16704 
3 14138 14139 
3 19048 19049 
3 14194 14195 
1 14194 19048 
2 455 456 
2 454 455 
1 454 1165 
2 1165 1166 
2 1166 1167 
2 2522 2523 
2 2521 2522 
1 2521 13591 
3 13591 13592 
3 14824 14825 
1 2523 14824 
3 19979 19980 
3 14825 14826 
3 18277 18278 
3 18278 18279 
3 2362 2363 
3 2363 2364 
3 5015 5016 
3 5014 5015 
3 10460 10461 
3 10459 10460 
3 6124 6125 
1 6124 10459 
3 6125 6126 
3 17512 17513 
1 6126 8194 
3 8194 8195 
3 5945 5946 
3 12199 12200 
1 2364 17514 
3 17513 17514 
3 5944 5945 
1 5944 8196 
3 8195 8196 
3 12200 12201 
3 14114 14115 
3 11122 11123 
1 11122 19510 
1 11124 16785 
2 16784 16785 
3 11123 11124 
3 10051 10052 
3 1849 1850 
1 1849 10051 
3 1850 1851 
1 1851 6046 
3 6046 6047 
3 6047 6048 
1 6048 11001 
2 16783 16784 
3 1511 1512 
3 18185 18186 
3 18184 18185 
3 13592 13593 
1 12201 13840 
3 13840 13841 
3 14605 14606 
1 14605 14832 
3 3896 3897 
3 14606 14607 
1 6 14607 
3 7154 7155 
3 20659 20660 
2 2077 2078 
1 2079 16020 
2 2078 2079 
2 14375 14376 
3 305 306 
3 18014 18015 
3 4349 4350 
3 304 305 
1 304 4348 
3 4348 4349 
3 18013 18014 
3 4 5 
3 5284 5285 
3 5 6 
3 21209 21210 
3 20141 20142 
3 11480 11481 
3 11479 11480 
3 20140 20141 
1 18969 20140 
3 11069 11070 
3 5887 5888 
1 5887 11479 
3 7153 7154 
1 5889 11070 
3 5888 5889 
3 2861 2862 
3 2860 2861 
1 5286 21208 
3 21208 21209 
3 11068 11069 
3 5285 5286 
3 8521 8522 
1 8521 20601 
1 8523 16018 
3 8522 8523 
3 16018 16019 
3 20660 20661 
3 5594 5595 
3 5593 5594 
1 5593 21160 
3 21160 21161 
3 16024 16025 
1 16024 21162 
3 18968 18969 
3 10435 10436 
1 10435 20590 
3 20590 20591 
3 18967 18968 
3 21161 21162 
3 10436 10437 
3 16025 16026 
1 12630 19837 
3 21005 21006 
1 11553 21006 
3 16019 16020 
3 20591 20592 
3 19837 19838 
1 6240 8482 
3 13465 13466 
1 13465 20661 
2 19441 19442 
1 13467 19441 
2 19442 19443 
3 6238 6239 
3 13466 13467 
3 6239 6240 
3 16345 16346 
2 14374 14375 
3 19894 19895 
3 19838 19839 
3 16346 16347 
1 16347 19839 
3 9883 9884 
1 9883 19443 
3 16732 16733 
3 16733 16734 
1 4896 16732 
3 7681 7682 
1 7681 16734 
3 5023 5024 
3 4895 4896 
3 4894 4895 
3 5392 5393 
3 5393 5394 
3 5662 5663 
1 13536 20125 
3 20125 20126 
3 20126 20127 
1 12765 15912 
3 13534 13535 
1 13534 19432 
3 19432 19433 
3 19433 19434 
1 6369 19434 
3 4147 4148 
1 4147 12391 
3 12391 12392 
3 17324 17325 
3 17323 17324 
3 4148 4149 
1 3339 5394 
3 13535 13536 
3 13078 13079 
1 13078 15121 
3 15121 15122 
1 12969 18210 
3 11125 11126 
1 11125 18208 
3 18208 18209 
3 18209 18210 
3 12764 12765 
3 11126 11127 
1 11058 12763 
1 3957 11056 
3 11056 11057 
3 11057 11058 
3 3956 3957 
3 12763 12764 
3 6368 6369 
3 6367 6368 
1 6367 19117 
3 10171 10172 
3 10172 10173 
3 6832 6833 
1 6832 10173 
3 6833 6834 
3 19117 19118 
3 12967 12968 
3 15122 15123 
3 8992 8993 
1 8992 15123 
3 8993 8994 
3 12968 12969 
3 3955 3956 
1 3955 19768 
3 19768 19769 
3 19769 19770 
3 15599 15600 
1 15600 19770 
1 1908 12628 
1 3504 10171 
1 6564 8994 
3 6563 6564 
3 6562 6563 
1 6562 18966 
3 18965 18966 
3 15598 15599 
1 15598 18466 
2 18466 18467 
2 18467 18468 
3 17222 17223 
3 17221 17222 
3 12493 12494 
3 1907 1908 
3 18964 18965 
3 11180 11181 
1 11181 18964 
3 17018 17019 
3 17017 17018 
3 5240 5241 
3 5239 5240 
1 5239 8049 
3 6805 6806 
3 8048 8049 
3 14291 14292 
3 6806 6807 
3 15034 15035 
3 2702 2703 
3 2701 2702 
1 2701 15034 
3 15035 15036 
3 5663 5664 
1 5664 6807 
3 15911 15912 
3 15910 15911 
3 17258 17259 
3 8047 8048 
1 8047 18289 
3 17257 17258 
3 631 632 
1 631 17257 
3 18289 18290 
3 9637 9638 
1 9637 17325 
3 14290 14291 
1 1980 14290 
3 1979 1980 
3 11803 11804 
1 11803 12393 
3 11804 11805 
3 12392 12393 
3 1978 1979 
1 1978 11127 
3 16615 16616 
1 16615 21541 
3 21541 21542 
3 21542 21543 
3 5002 5003 
1 5002 16617 
3 16616 16617 
3 983 984 
3 982 983 
1 982 21543 
3 9638 9639 
1 5004 9645 
3 9644 9645 
3 9643 9644 
3 5003 5004 
1 10914 18585 
3 4342 4343 
1 4342 9643 
3 14252 14253 
3 12196 12197 
1 12196 14251 
3 14251 14252 
3 12197 12198 
1 5739 6834 
3 5738 5739 
3 18583 18584 
1 16038 18583 
3 16037 16038 
3 18584 18585 
3 8479 8480 
1 8479 15694 
2 15694 15695 
2 15695 15696 
3 8480 8481 
3 7885 7886 
1 7885 8481 
3 7886 7887 
3 10913 10914 
3 4526 4527 
1 4527 10912 
3 10912 10913 
3 4525 4526 
1 3684 11829 
3 3683 3684 
3 5737 5738 
3 4984 4985 
1 4984 5737 
3 4985 4986 
3 16289 16290 
3 11828 11829 
3 11827 11828 
3 16288 16289 
3 15356 15357 
3 7858 7859 
3 5785 5786 
1 5785 7858 
3 5786 5787 
3 12494 12495 
3 1906 1907 
1 1906 7860 
3 3682 3683 
1 3682 14857 
3 14857 14858 
3 14858 14859 
3 4366 4367 
3 13033 13034 
1 13033 15357 
3 13034 13035 
1 4368 12495 
3 4367 4368 
1 822 13984 
3 13985 13986 
3 13984 13985 
3 10582 10583 
1 10582 13864 
3 10583 10584 
3 13864 13865 
3 13865 13866 
1 13866 14679 
1 10407 21022 
3 21022 21023 
3 21023 21024 
3 632 633 
1 633 11211 
3 18290 18291 
3 11210 11211 
3 11209 11210 
1 11209 19494 
1 171 11805 
3 10534 10535 
1 10534 11596 
3 10535 10536 
1 10536 19044 
3 11596 11597 
3 7601 7602 
3 7600 7601 
3 170 171 
3 7882 7883 
1 7882 11598 
3 11597 11598 
3 10406 10407 
1 9399 20997 
3 13843 13844 
2 19493 19494 
2 19492 19493 
2 8806 8807 
1 8806 19492 
2 5992 5993 
1 5992 13843 
2 5993 5994 
2 8807 8808 
3 169 170 
1 169 7068 
3 7067 7068 
3 7066 7067 
1 7066 12513 
3 12512 12513 
3 3217 3218 
1 3217 10746 
1 13845 16036 
3 16036 16037 
1 3219 20995 
3 20995 20996 
3 20996 20997 
3 3218 3219 
3 17725 17726 
1 17725 18978 
1 435 15696 
3 13844 13845 
3 17726 17727 
2 433 434 
1 433 9531 
2 9529 9530 
1 9529 17727 
2 434 435 
2 9530 9531 
3 18053 18054 
3 12511 12512 
1 12511 18054 
3 18052 18053 
1 18052 20425 
3 20425 20426 
3 20426 20427 
3 10745 10746 
3 9514 9515 
3 9515 9516 
1 5787 9657 
3 13946 13947 
1 10839 13947 
1 12930 13945 
3 13945 13946 
3 9656 9657 
3 10838 10839 
3 7345 7346 
3 9655 9656 
3 10837 10838 
1 10837 18753 
3 18752 18753 
3 9523 9524 
3 821 822 
3 820 821 
1 820 9060 
3 1655 1656 
1 10584 11656 
3 11656 11657 
3 11657 11658 
3 9059 9060 
3 7366 7367 
1 7366 19431 
3 9058 9059 
3 1654 1655 
3 4952 4953 
1 7368 10210 
1 5325 10212 
3 10210 10211 
3 10211 10212 
3 7367 7368 
3 9397 9398 
1 9397 10405 
3 10405 10406 
3 9398 9399 
3 20129 20130 
3 16217 16218 
3 16216 16217 
1 3303 16218 
2 3301 3302 
1 3301 4951 
3 4951 4952 
2 3302 3303 
3 19043 19044 
3 19042 19043 
3 16232 16233 
3 16231 16232 
3 12328 12329 
1 12328 16233 
3 12329 12330 
3 10151 10152 
1 10152 16231 
3 18977 18978 
3 18976 18977 
3 12025 12026 
1 12025 19042 
3 12026 12027 
3 12550 12551 
1 10143 12550 
3 12551 12552 
1 11313 16149 
3 11312 11313 
3 11311 11312 
3 10744 10745 
3 7352 7353 
3 7351 7352 
3 7346 7347 
1 7347 16299 
3 16298 16299 
3 9461 9462 
3 9460 9461 
1 9460 16056 
3 16055 16056 
3 16148 16149 
3 17810 17811 
3 16297 16298 
3 16054 16055 
3 16147 16148 
3 17809 17810 
3 18751 18752 
3 8635 8636 
1 8635 18751 
3 8636 8637 
1 8637 10180 
3 10180 10181 
3 1294 1295 
1 1294 17245 
3 17245 17246 
3 17246 17247 
2 2390 2391 
2 2389 2390 
3 5324 5325 
3 20128 20129 
3 5323 5324 
1 14196 14503 
3 14503 14504 
3 14195 14196 
1 12330 15550 
2 15550 15551 
2 18197 18198 
2 18196 18197 
2 15551 15552 
1 15552 18196 
3 14504 14505 
1 10608 14505 
1 2325 20953 
3 20954 20955 
3 20953 20954 
3 2324 2325 
3 13000 13001 
3 10607 10608 
3 10606 10607 
1 4854 10606 
2 4853 4854 
3 17587 17588 
2 4852 4853 
1 4852 17587 
3 17588 17589 
3 12541 12542 
1 12541 17811 
3 12542 12543 
1 12543 13002 
3 13001 13002 
3 18956 18957 
3 17012 17013 
3 17011 17012 
1 17011 18957 
3 7949 7950 
3 2323 2324 
1 2323 17013 
1 1296 17809 
3 1295 1296 
3 10181 10182 
1 10182 15288 
3 15287 15288 
3 18955 18956 
3 15286 15287 
1 15286 18955 
3 7948 7949 
3 13841 13842 
2 4876 4877 
1 4876 17589 
2 4877 4878 
3 14831 14832 
2 9848 9849 
3 14830 14831 
2 9847 9848 
1 9847 14830 
2 5948 5949 
2 5947 5948 
1 5949 9849 
3 3895 3896 
2 14513 14514 
2 14512 14513 
1 2337 14512 
3 2336 2337 
3 2335 2336 
3 464 465 
3 463 464 
1 463 7042 
3 7042 7043 
1 15225 15610 
2 15610 15611 
2 15611 15612 
3 3337 3338 
3 3338 3339 
3 20510 20511 
3 20509 20510 
3 1633 1634 
1 1633 21210 
3 1634 1635 
3 15224 15225 
3 13079 13080 
1 13080 15223 
3 15223 15224 
3 7043 7044 
3 19118 19119 
3 4441 4442 
3 4442 4443 
3 12250 12251 
1 12250 12967 
3 12251 12252 
3 21257 21258 
3 11512 11513 
1 11512 19119 
3 11513 11514 
1 11514 12252 
3 21256 21257 
1 4443 11551 
3 11552 11553 
3 11551 11552 
3 10067 10068 
3 8419 8420 
1 8419 14374 
3 10066 10067 
1 8421 10066 
3 8420 8421 
3 11179 11180 
