LAMMPS data file via write_data, version 5 Jun 2019, timestep = 120000000

1026 atoms
3 atom types
967 bonds
3 bond types
908 angles
3 angle types

0.0000000000000000e+00 5.0000000000000000e+01 xlo xhi
0.0000000000000000e+00 5.0000000000000000e+01 ylo yhi
0.0000000000000000e+00 5.0000000000000000e+01 zlo zhi

Masses

1 0.25
2 0.5
3 0.5

Bond Coeffs # harmonic

1 6000 0.15
2 2000 0.4
3 2000 0.4

Angle Coeffs # harmonic

1 100 180
2 5 180
3 5 180

Atoms # angle

9972 1 1 4.9844363437109415e+01 1.6559566509021280e+01 1.5456373046137459e+00
2770 1 1 4.9175224305656045e+01 1.9826271104473861e+01 1.2483877710571514e+00
8286 1 1 4.9234277742457436e+01 1.9764296838917868e+01 1.3913670177418538e+00
2772 1 1 4.8979461733341054e+01 2.0413043063839574e+01 8.7520933639615694e-01
2771 2 2 4.9014808180062005e+01 2.0057265317771652e+01 9.6749639419760292e-01
6155 2 2 2.2190467565636959e-03 1.4237983673138894e+01 2.3757730098072685e+00
6154 1 1 1.2020649341112589e-01 1.4383729752242745e+01 2.0044349025294257e+00
6156 1 1 4.9925107451570618e+01 1.4080714377423929e+01 2.6603342445477915e+00
9971 2 2 4.9820232457602785e+01 1.6827426820896619e+01 1.8911481896990958e+00
9970 1 1 4.9698087926377973e+01 1.7092184728073860e+01 2.1452883452395137e+00
21312 1 1 4.9687528792606400e+01 1.9626909629229516e+01 2.1344064838517136e+00
8284 1 1 4.9617235222530731e+01 1.9594198400230997e+01 2.0095857828380783e+00
8285 2 2 4.9315293110893208e+01 1.9642374591861056e+01 1.7786282915967577e+00
21311 2 2 4.9856911591248490e+01 1.9788093782281710e+01 2.4367174823587039e+00
21310 1 1 4.9965095972377640e+01 1.9886634142254181e+01 2.7574125189307455e+00
2819 2 2 3.1109834919449526e+01 1.8086924973495989e+01 4.5066980047072134e+00
2818 1 1 3.1323055345067015e+01 1.8207430897088202e+01 4.1844919093715083e+00
12149 2 2 4.8796816676728405e+01 1.8869518711032228e+01 3.8212095849117689e+00
12150 1 1 4.8735227156004541e+01 1.8956061110264585e+01 3.4666608323586541e+00
12148 1 1 4.8943806368646783e+01 1.8809043501485910e+01 4.2341329628033932e+00
13101 1 1 2.2846256821014968e+01 2.7643512710965044e+01 3.6567522445812557e+00
2820 1 1 3.1021782982286393e+01 1.7928906090440826e+01 4.8372224733800113e+00
7415 2 2 4.6162986898362249e+01 1.3411310227989976e+01 7.4856593623294652e+00
7414 1 1 4.6498183589318884e+01 1.3426774932288440e+01 7.3810804649279733e+00
3951 1 1 4.9780486767507760e+01 1.9468410012967723e+01 7.5211224298296466e+00
3950 2 2 4.9586786187924702e+01 1.9767920871188878e+01 7.7366645205521607e+00
2910 1 1 4.7822816446220976e+01 2.1060289625762241e+01 7.4694588548820695e+00
2909 2 2 4.7787873056408309e+01 2.1339808832800770e+01 7.7384323937989832e+00
7416 1 1 4.5882048135091040e+01 1.3384873907286288e+01 7.8231558021728054e+00
3949 1 1 4.9210242906934610e+01 1.9930856757949957e+01 7.8067604801440478e+00
20074 1 1 4.8194742893994103e+01 2.0265841379571416e+01 8.1213872098466684e+00
18241 1 1 4.8341045780582505e+01 2.0207250826252984e+01 8.0919381227580551e+00
20075 2 2 4.7816511920095088e+01 2.0414605207484705e+01 8.2077734149133690e+00
20076 1 1 4.7497901868078053e+01 2.0414256052950016e+01 8.4493992061816012e+00
2908 1 1 4.7601617927861838e+01 2.1429189064978274e+01 8.0760225774023464e+00
18242 2 2 4.8772372524415061e+01 2.0120783636624367e+01 8.0253661328764725e+00
18243 1 1 4.9084423126044037e+01 1.9992473974271800e+01 7.8671364326736954e+00
16425 1 1 3.1236483865997922e+01 2.5622850023668963e+01 2.3107063352532908e+01
16424 2 2 3.1028133860000768e+01 2.5791644933091295e+01 2.2792468008781146e+01
16423 1 1 3.0870798738402755e+01 2.6073842433688881e+01 2.2626646537798287e+01
7561 1 1 3.1956817228426683e+01 2.7632644621997276e+01 2.2291722044649742e+01
8940 1 1 3.4872535907696950e+01 2.5223762461101344e+01 2.4306209201075344e+01
8939 2 2 3.4993848117357544e+01 2.5357598296643175e+01 2.3941713457489840e+01
8938 1 1 3.4856501603713937e+01 2.5622510112615110e+01 2.3681779951338264e+01
7840 1 1 2.9100246272204775e+01 2.7379866863951808e+01 2.3549231695805965e+01
13368 1 1 2.5628922933368578e+01 3.2526903949354107e+01 2.0432824136318199e+00
13367 2 2 2.5919125824144086e+01 3.2610942083458070e+01 2.3173156125352161e+00
13366 1 1 2.5904596419481216e+01 3.2536735329951590e+01 2.7597835908860704e+00
19576 1 1 2.5889176774333912e+01 3.2514982562228099e+01 2.9106792617204129e+00
13099 1 1 2.3160327655624734e+01 2.7988849328165760e+01 4.2590691216032726e+00
13018 1 1 2.3172271723201181e+01 2.8033545282757210e+01 4.4309304754037129e+00
13100 3 3 2.3090303894741133e+01 2.7906913455641966e+01 3.8774662307550805e+00
19578 1 1 2.5886576777752122e+01 3.2381209872870649e+01 3.6871486765153487e+00
38 2 2 1.4838301378284655e+01 3.3663215014323811e+01 4.4507055375260194e+00
39 1 1 1.4996579468543132e+01 3.4033674800137838e+01 4.3268117406954376e+00
19577 2 2 2.5849247592100568e+01 3.2474855236636500e+01 3.2949552197031329e+00
13019 2 2 2.3161832805019468e+01 2.8209645360106922e+01 4.7997776114273369e+00
13020 1 1 2.3432987186634175e+01 2.8240804026556322e+01 5.0119312024998388e+00
20579 2 2 2.3804966980083783e+01 2.8431495323066887e+01 5.3913500970467059e+00
6231 1 1 2.3843489842630365e+01 2.8613564494093602e+01 5.9359731037960044e+00
20580 1 1 2.3840174143798421e+01 2.8552484111077547e+01 5.7732920870512263e+00
20578 1 1 2.3557602194044620e+01 2.8282977258136697e+01 5.1187709422306078e+00
37 1 1 1.4561947073062498e+01 3.3440698765752991e+01 4.6862110939199830e+00
15410 2 2 1.7222086098919632e+01 3.4377070608115950e+01 5.3821369649416635e+00
15411 1 1 1.6850647718126314e+01 3.4501067893565811e+01 5.4953434266517762e+00
15409 1 1 1.7562779147748266e+01 3.4414532607465468e+01 5.2012153983165827e+00
13115 2 2 2.2942925123860554e+01 3.8492296375374536e+01 5.8721611788051673e+00
13116 1 1 2.2789558202049022e+01 3.8228474793293493e+01 6.1335005695935410e+00
13114 1 1 2.3203179944288483e+01 3.8694874162449089e+01 5.6534150642327292e+00
21202 1 1 2.3293805143969212e+01 3.8759077532151387e+01 5.5583179700006218e+00
21203 2 2 2.3510980071850526e+01 3.8831876747117335e+01 5.2612432074161344e+00
21204 1 1 2.3846667582942281e+01 3.8676471169374643e+01 5.1824162031467109e+00
6054 1 1 2.3982735999647915e+01 3.8612978647751568e+01 5.1591790590192659e+00
19007 2 2 2.5244346038248089e+01 3.8616740555449198e+01 5.3973207229163025e+00
6053 2 2 2.4351570624581605e+01 3.8455522653976438e+01 5.1544271866918390e+00
19008 1 1 2.4880638353976135e+01 3.8565221025125581e+01 5.3059475474404953e+00
6052 1 1 2.4733232935273925e+01 3.8533171337962720e+01 5.2615507992367254e+00
15797 2 2 2.0135499181856979e+01 4.0042203257943882e+01 6.1345398374747750e+00
15798 1 1 2.0384272896943582e+01 4.0370900600352499e+01 6.0715450271482085e+00
19006 1 1 2.5449574420366552e+01 3.8946447415892550e+01 5.5095677875165299e+00
6447 1 1 2.5540525521303941e+01 3.9079841177630719e+01 5.5346766046686913e+00
8961 1 1 2.5559030764828336e+01 3.9933696819699172e+01 5.4087529309065632e+00
6446 3 3 2.5682122005622247e+01 3.9429191308986951e+01 5.6074501117516862e+00
6445 1 1 2.5604876440172056e+01 3.9799124148406122e+01 5.4455269345212827e+00
8960 3 3 2.5431383797176800e+01 4.0308302833839626e+01 5.3559982356224749e+00
8959 1 1 2.5019236490717788e+01 4.0268137678629301e+01 5.4121340129580835e+00
3970 1 1 2.0472345597496879e+01 4.0523448299188011e+01 6.0608818322545233e+00
3971 3 3 2.0639802333165431e+01 4.0861015356729951e+01 6.0698005818738379e+00
3972 1 1 2.0961329153604854e+01 4.1011261461958036e+01 6.1839521679218219e+00
6230 2 2 2.3787754168341589e+01 2.8723798841911695e+01 6.3367021156946857e+00
2985 1 1 2.3873496033243153e+01 2.8888992602044244e+01 6.8190905290925015e+00
6229 1 1 2.3849395789542768e+01 2.8863993399182686e+01 6.7024546851366855e+00
2984 2 2 2.3952204364881684e+01 2.8956866564912303e+01 7.1849644097582788e+00
2983 1 1 2.4033705613943095e+01 2.9015919288264737e+01 7.5598049320555605e+00
13093 1 1 2.4053264716772254e+01 2.9066615065338599e+01 7.7030168855070684e+00
1936 1 1 2.3708725856423310e+01 3.4993335585553567e+01 7.2951011398149603e+00
1937 2 2 2.3663529757309036e+01 3.4889139960833965e+01 7.6865098662598044e+00
15796 1 1 2.0003757878092316e+01 3.9670961930135050e+01 6.3146253194960966e+00
20143 1 1 1.9947003164959934e+01 3.9553530768019996e+01 6.3802932989440651e+00
20144 2 2 1.9745362331590027e+01 3.9333533569979210e+01 6.5887665483490734e+00
20145 1 1 1.9756991794621012e+01 3.9374230128157620e+01 7.0171422623634250e+00
13094 3 3 2.4047182514158077e+01 2.9232390235272948e+01 8.0589361468759151e+00
13095 1 1 2.4187286610125700e+01 2.9637734181643822e+01 8.1631034286147308e+00
1938 1 1 2.3604735031543967e+01 3.4635670130679820e+01 7.9806204287666054e+00
14860 1 1 2.3688987545823284e+01 3.4085056095233853e+01 8.6328394334608074e+00
14861 2 2 2.3597588793490303e+01 3.4241271931247184e+01 8.2946977724616282e+00
14862 1 1 2.3590294542789088e+01 3.4513382541636361e+01 8.0813354261545136e+00
20116 1 1 2.0973271850683904e+01 3.5205503882004621e+01 9.4145058363557581e+00
20117 2 2 2.1253334488876391e+01 3.5272402488743907e+01 9.7314924678704777e+00
20118 1 1 2.1595570446193495e+01 3.5513334801254132e+01 9.6812175558808899e+00
15213 1 1 2.0374364454306683e+01 3.6526317984640933e+01 9.6950116768594476e+00
15212 2 2 2.0379932248935901e+01 3.6800097704850160e+01 9.9749955753612838e+00
15211 1 1 2.0124463608400081e+01 3.7007291325017576e+01 1.0152535167535570e+01
11082 1 1 2.0011390185056293e+01 3.7071706304102229e+01 1.0229211004092425e+01
11081 2 2 1.9698157067027907e+01 3.7221202883160117e+01 1.0343710899606995e+01
11080 1 1 1.9326015034596029e+01 3.7361571613085736e+01 1.0325988675390700e+01
16755 1 1 3.1762971764585856e+01 2.8238144182000681e+01 1.9587638251525860e+01
16754 2 2 3.1800118269521310e+01 2.8585610396994909e+01 1.9468472001763310e+01
16753 1 1 3.1977619855398547e+01 2.8922546703867848e+01 1.9354069506312126e+01
2034 1 1 3.2008110292607419e+01 2.9061601810727101e+01 1.9343666960454751e+01
2032 1 1 3.2382613264266595e+01 2.9739230004606110e+01 1.9336925299447078e+01
2033 2 2 3.2113841693853139e+01 2.9418397312912766e+01 1.9240404579141355e+01
14015 2 2 3.1260649305665154e+01 2.8333893022045231e+01 2.1514550197319306e+01
14014 1 1 3.1310790498702016e+01 2.8715809828895356e+01 2.1616104836343649e+01
14016 1 1 3.1391137210763041e+01 2.8080095451972021e+01 2.1744168040778529e+01
7563 1 1 3.1467707849895248e+01 2.7957423052731752e+01 2.1832060600858672e+01
7562 2 2 3.1649938455300756e+01 2.7675118232114468e+01 2.2076106506393014e+01
7842 1 1 2.9307567402385757e+01 2.8101881204517550e+01 2.3581948445956517e+01
9762 1 1 2.9335953188256774e+01 2.8236254240123863e+01 2.3618540963633546e+01
9761 2 2 2.9416439400985130e+01 2.8592099186163363e+01 2.3720383790935795e+01
9760 1 1 2.9505397245256336e+01 2.8972235948678133e+01 2.3727335809959754e+01
7841 2 2 2.9175680973944051e+01 2.7749585363504853e+01 2.3415848661705169e+01
11283 1 1 3.8592190466761998e+01 2.8587225201921495e+01 2.4061990926348120e+01
11282 2 2 3.8787924080669050e+01 2.8855766927880087e+01 2.4234328507724289e+01
11281 1 1 3.8883370971884254e+01 2.9285234860724774e+01 2.4267033986906608e+01
14341 1 1 3.8921245928205067e+01 2.9427591457831799e+01 2.4294213482457121e+01
14342 2 2 3.9026124933366269e+01 2.9854814369710809e+01 2.4305906579317778e+01
14343 1 1 3.9240389456936278e+01 3.0163461890945698e+01 2.4155541482260979e+01
13846 1 1 3.9307989734267863e+01 3.0281270825241315e+01 2.4105388348354960e+01
13847 3 3 3.9515922935741429e+01 3.0629821657221182e+01 2.4005551750643747e+01
13848 1 1 3.9696567628859015e+01 3.0974189706124125e+01 2.4130418235539597e+01
1564 1 1 4.9100576053967238e+01 4.2784176130195270e+01 2.4306644217140121e+01
1565 2 2 4.9017555322517531e+01 4.2986816292621064e+01 2.4002481491331476e+01
1566 1 1 4.9000702795845186e+01 4.3376704714411495e+01 2.3850244450718549e+01
13968 1 1 4.6773795236578522e+01 2.9080140230734280e+01 2.6269555323719970e+01
7930 1 1 4.5371938395107769e+01 3.0374913772589327e+01 2.6031706725472223e+01
9579 1 1 4.5451756804178515e+01 3.0242072519857285e+01 2.6017909272377331e+01
7931 2 2 4.5125944760670166e+01 3.0686491443189826e+01 2.6090814638952295e+01
9578 2 2 4.5641640215367417e+01 2.9907929375895208e+01 2.6083644558413130e+01
9577 1 1 4.5907333451937284e+01 2.9620391928515655e+01 2.6075437028719278e+01
13967 2 2 4.6401518704638008e+01 2.9282401686676170e+01 2.6097296260134701e+01
13966 1 1 4.6020334276175987e+01 2.9502734340505448e+01 2.6077922595558576e+01
20575 1 1 4.4607994286419768e+01 3.3189121649148888e+01 2.6213608178888595e+01
11544 1 1 4.4564430454642093e+01 3.3008825220792495e+01 2.6222562857570772e+01
20577 1 1 4.4747194767353200e+01 3.4017770751534812e+01 2.6244272359369649e+01
20576 2 2 4.4633474619472629e+01 3.3584611220619117e+01 2.6244297033941727e+01
9733 1 1 4.4807688469633241e+01 3.4141109654732276e+01 2.6262049886896037e+01
9734 2 2 4.5016222472299724e+01 3.4434506930495516e+01 2.6260729117655874e+01
9735 1 1 4.5268582492011355e+01 3.4716641162151234e+01 2.6218763233683315e+01
5856 1 1 4.5367437294741819e+01 3.4853815183623666e+01 2.6213901359207899e+01
5855 2 2 4.5544859904627074e+01 3.5229791386071732e+01 2.6190023998141601e+01
5854 1 1 4.5617304459742144e+01 3.5566096384177179e+01 2.6018778691964744e+01
14501 2 2 2.9981094493523863e+00 2.9410366034200361e+01 2.7443324224937076e+01
14502 1 1 2.6447023696894951e+00 2.9626235525913916e+01 2.7441094995570470e+01
15465 1 1 2.5250075711228472e+00 2.9740092585822403e+01 2.7441618885888410e+01
15464 2 2 2.2198698488025972e+00 3.0098001785721419e+01 2.7399993768576291e+01
14500 1 1 3.3937241595928374e+00 2.9392690846845070e+01 2.7289392828443670e+01
3316 1 1 1.3573081679968260e+00 3.0774898923503731e+01 2.7651645314356951e+01
18310 1 1 1.2497627274542074e+00 3.0750804108807266e+01 2.7765506568720685e+01
3317 2 2 1.6513017765988345e+00 3.0833922666154585e+01 2.7419570004316714e+01
3318 1 1 1.9149732992921871e+00 3.0523979085874114e+01 2.7410064184983991e+01
15463 1 1 2.0070575644606237e+00 3.0421799476855092e+01 2.7418044150901363e+01
6553 1 1 1.3604745136123411e+00 3.8392961673839380e+01 2.7784266579201805e+01
6554 3 3 9.3804494748640344e-01 3.8365773875893602e+01 2.7906686694513084e+01
6508 1 1 2.7746220420941250e+00 2.8246419690454079e+01 2.9217799905049144e+01
280 1 1 2.8991995437886704e+00 2.8315884609963252e+01 2.9293770907940569e+01
6510 1 1 2.4479363192967352e+00 2.8126872823820033e+01 2.8640578436663368e+01
6509 3 3 2.4817318019524643e+00 2.8127397913638287e+01 2.9011080646166477e+01
13133 2 2 1.7526349498558239e-01 3.0527971214369028e+01 2.8514441324439655e+01
18311 2 2 1.0162227943049458e+00 3.0621939114786290e+01 2.8024912161141632e+01
18312 1 1 6.1766418796220779e-01 3.0634519823430516e+01 2.8213780071174220e+01
13132 1 1 5.0293313863244526e-01 3.0639077554224791e+01 2.8278951848235536e+01
14731 1 1 5.7232963693898453e-01 3.1344382735947800e+01 2.9288663801170568e+01
14732 2 2 3.0473660366576716e-01 3.1682906501425222e+01 2.9319379246857302e+01
11984 2 2 1.0077261087488814e+00 3.0933895956128662e+01 2.9367510547703471e+01
11983 1 1 6.9284677527689065e-01 3.1213902737044034e+01 2.9282159581682699e+01
10382 2 2 1.5110365986952914e-01 3.3044670426821042e+01 2.9382228801005603e+01
18527 2 2 2.5995738883475755e-01 3.3984775969065332e+01 2.8767740354236995e+01
5433 1 1 4.9099509817986942e-01 3.3988246619035948e+01 2.9282960643008508e+01
18526 1 1 1.2565525615173101e-02 3.4146108446162529e+01 2.8467367057179953e+01
18528 1 1 4.3470644685707999e-01 3.3975534692344105e+01 2.9121117389867827e+01
21118 1 1 2.2079437332811120e+00 3.5008449689039423e+01 2.8749551008030949e+01
21119 2 2 2.3611326574774347e+00 3.5003297410378430e+01 2.9167345267759170e+01
21120 1 1 2.3069272577441589e+00 3.5161320466380026e+01 2.9479406476751624e+01
5894 2 2 3.8844196736612130e-02 3.6875242050245539e+01 2.8696442948461286e+01
5893 1 1 2.5306736724973744e-01 3.7226381731899430e+01 2.8609666157879932e+01
20565 1 1 3.3285937541745403e-01 3.7341946646256183e+01 2.8583346449902681e+01
20564 2 2 5.1708152301680943e-01 3.7702166023511857e+01 2.8503913745279547e+01
20563 1 1 6.8904804930089236e-01 3.8001886836600811e+01 2.8287835408270528e+01
6555 1 1 7.3161373081015169e-01 3.8111443105715459e+01 2.8200034327345854e+01
7283 2 2 2.1905173503165344e+01 1.4028922630854623e+01 2.9950592867711723e+01
7284 1 1 2.1743523237787812e+01 1.3717679321993739e+01 3.0130616672152549e+01
7282 1 1 2.2219636043633272e+01 1.4162658949713538e+01 2.9792630005212697e+01
10096 1 1 1.5649763713141580e+00 2.8468008637829715e+01 3.0998383665947131e+01
10097 2 2 1.7430828952217436e+00 2.8702625116609013e+01 3.0736746592308791e+01
282 1 1 2.9503583294881017e+00 2.8693693891304683e+01 2.9822661009792842e+01
6903 1 1 2.9013565348986949e+00 2.8781754085813777e+01 2.9923111996536182e+01
281 2 2 3.1534031068217772e+00 2.8469808553079616e+01 2.9562073614932828e+01
10098 1 1 1.7828426918003055e+00 2.9036849894574434e+01 3.0573729204393729e+01
5485 1 1 1.7877637568028131e+00 2.9155909875898772e+01 3.0493342976138493e+01
6902 2 2 2.6630322579401189e+00 2.9061906506335752e+01 3.0151310946277750e+01
6901 1 1 2.6088413206081795e+00 2.9179932786683278e+01 3.0532138164068950e+01
8502 1 1 2.5955447139190753e+00 2.9227243317723566e+01 3.0693707270272373e+01
5486 2 2 1.7546540423852699e+00 2.9529561333137817e+01 3.0317808859024456e+01
5487 1 1 1.8654058647867469e+00 2.9841855802892329e+01 3.0540303433115078e+01
16531 1 1 1.8967266658738842e+00 2.9979320590587932e+01 3.0632696139902244e+01
16532 2 2 2.0186761138508098e+00 3.0268704644096257e+01 3.0811725056527408e+01
11985 1 1 1.2558639514993710e+00 3.0857559508198172e+01 2.9638199979318657e+01
20613 1 1 1.3296427570399945e+00 3.0835194080997525e+01 2.9729522659549581e+01
13250 2 2 1.1548519291606114e+00 3.1785151768764553e+01 3.0425459355285618e+01
12633 1 1 1.0492611699069152e+00 3.1330771765007508e+01 3.0698708649208616e+01
13249 1 1 1.0498396972621462e+00 3.1456629383804103e+01 3.0617089937567407e+01
12632 2 2 1.0495734427422361e+00 3.0992826573576924e+01 3.0912045444428106e+01
20612 2 2 1.5457519443546037e+00 3.0832325129521397e+01 3.0011569623157776e+01
8509 1 1 2.1120738559766434e+00 3.0788188207764303e+01 3.0003189684792464e+01
20611 1 1 1.9563217026130302e+00 3.0786247508685413e+01 3.0025542262026367e+01
8510 2 2 2.4949915088361543e+00 3.0814353619637977e+01 2.9903135743926711e+01
8511 1 1 2.8902819209344330e+00 3.0765156192971588e+01 2.9961469013099496e+01
1718 2 2 2.3737461096939900e+00 3.1676695323769472e+01 3.0697871256767925e+01
1719 1 1 2.0632377950575322e+00 3.1621547481012357e+01 3.0997044005444334e+01
1717 1 1 2.7344048963086780e+00 3.1656359482482863e+01 3.0657192916535134e+01
11749 1 1 3.0454647897788307e+00 3.0743137345355173e+01 3.0012662496150636e+01
3204 1 1 2.8780254287882507e+00 3.1653794409302769e+01 3.0650974361667370e+01
11750 2 2 3.4010049087803034e+00 3.0666459608668255e+01 3.0046905309840245e+01
11751 1 1 3.6620922689625304e+00 3.0743680324990212e+01 3.0427411719370465e+01
14887 1 1 3.7466272228372381e+00 3.0761382801742045e+01 3.0550274221603264e+01
14888 2 2 3.9552949506491548e+00 3.0730686859742725e+01 3.0833352256990111e+01
3202 1 1 3.6322024791491687e+00 3.1772741590883513e+01 3.0363021829641085e+01
16737 1 1 3.8007295344580942e+00 3.1765497801551756e+01 3.0318052383292137e+01
3203 2 2 3.2225661581444873e+00 3.1750907968284537e+01 3.0444407686588463e+01
16736 2 2 4.1374408276201828e+00 3.1688845294569720e+01 3.0211584821376807e+01
16735 1 1 4.5316183399086878e+00 3.1494779773757063e+01 3.0228489412218408e+01
5223 1 1 3.9834004827770131e-01 3.2724338303622218e+01 2.9804094308065043e+01
10383 1 1 3.1452771626381143e-01 3.2829532674634258e+01 2.9693400120553591e+01
13251 1 1 9.6687634762071673e-01 3.2077378113031664e+01 3.0257133256765428e+01
5221 1 1 9.1659239106293766e-01 3.2198847512261779e+01 3.0198519172300987e+01
5222 2 2 7.0091399080803030e-01 3.2534944999655139e+01 3.0065461298198745e+01
5432 2 2 6.4387716508954429e-01 3.3998883458717316e+01 2.9671005779455733e+01
5431 1 1 8.5403659479213356e-01 3.3887379998277211e+01 2.9983356310295122e+01
19425 1 1 2.6857538413776041e+00 3.4708055375973188e+01 3.0843126105545650e+01
19424 2 2 3.0727517853653619e+00 3.4679404887308763e+01 3.0749193455163436e+01
13164 1 1 2.5380285323341449e+00 3.4708956541535535e+01 3.0878841599310618e+01
13163 2 2 2.1719351576549832e+00 3.4745701161619820e+01 3.1051969618028195e+01
19423 1 1 3.4720988266028803e+00 3.4721537339967234e+01 3.0840056029720241e+01
14455 1 1 3.6109775953767795e+00 3.4771866550017499e+01 3.0862011437944162e+01
12803 3 3 5.3250974187861759e+00 3.4035560729939142e+01 3.0943215409760946e+01
12802 1 1 5.3819748704305859e+00 3.4346580226397613e+01 3.0874870595288478e+01
18891 1 1 5.4091722861930922e+00 3.4479956342564435e+01 3.0856159719533590e+01
12804 1 1 5.1990781010812173e+00 3.3678744572886650e+01 3.1064716405036148e+01
18890 3 3 5.5011976198086607e+00 3.4841734748209646e+01 3.0742262213538602e+01
8586 1 1 9.8375261186466589e-01 3.5931106869218503e+01 3.0497176180977618e+01
12903 1 1 8.2353535252750376e-01 3.5992210519829925e+01 3.0506388507422511e+01
8585 2 2 1.3557555452359080e+00 3.5745738411192377e+01 3.0442143930114803e+01
12902 2 2 4.9232695452631176e-01 3.6204122462090986e+01 3.0474145076249538e+01
12901 1 1 1.2246054041864628e-01 3.6165715998906698e+01 3.0569323843470531e+01
11350 1 1 2.2407409324771148e+00 3.5194134540157094e+01 2.9614727803222380e+01
11351 2 2 2.0015779911421463e+00 3.5262632570710480e+01 2.9918865451786573e+01
8584 1 1 1.6474470646140218e+00 3.5511048050222314e+01 3.0237848860849315e+01
11352 1 1 1.7272312244565031e+00 3.5444184436902127e+01 3.0158549518544543e+01
1812 1 1 2.4807864706809610e+00 3.6011997470053871e+01 3.1055900515778326e+01
1811 2 2 2.7327602785044767e+00 3.5685241781682038e+01 3.0937157081662029e+01
2372 3 3 4.6975362628343449e+00 3.5388834789107044e+01 3.0880173347357665e+01
14456 2 2 3.9689429146053268e+00 3.4936537500197495e+01 3.0955668526508244e+01
14457 1 1 4.3199859417938855e+00 3.5101316920889673e+01 3.0946525850283571e+01
2373 1 1 4.4435756738689554e+00 3.5192149023665266e+01 3.0919008988238406e+01
18889 1 1 5.2471883549988627e+00 3.5142926430396273e+01 3.0796158262020903e+01
2371 1 1 5.1088049036334757e+00 3.5206314290773214e+01 3.0824957777477497e+01
14790 1 1 4.3889463728283884e+00 3.7811361354999541e+01 3.0612499956449188e+01
14789 3 3 4.1549513108732938e+00 3.7711616064005362e+01 3.0841696060088537e+01
7594 1 1 1.4887037440489521e+00 2.8369544354175488e+01 3.1095135318258723e+01
7595 2 2 1.2451476900936158e+00 2.8156700739330319e+01 3.1390990025030174e+01
7596 1 1 1.0246821536317394e+00 2.8000729454577975e+01 3.1625182666199525e+01
1276 1 1 1.4199831955632416e+00 2.9896800738654399e+01 3.1529433892737476e+01
11115 1 1 1.5276896174562193e+00 2.9774335407929097e+01 3.1519668925931871e+01
1277 2 2 1.1570568209432830e+00 3.0187833753486792e+01 3.1489980348397289e+01
8501 2 2 2.5388671110127237e+00 2.9297764064061532e+01 3.1074916824895439e+01
8500 1 1 2.2339159718286634e+00 2.9307367443151808e+01 3.1272893529309822e+01
11113 1 1 2.1259788535757527e+00 2.9332008070626269e+01 3.1340183383600269e+01
11114 2 2 1.7944528782896279e+00 2.9463635373543326e+01 3.1559419743284632e+01
15059 2 2 1.7158118175590302e+00 3.0225668077835248e+01 3.2539821540093428e+01
1278 1 1 1.1355707159902868e+00 3.0557346008097227e+01 3.1232583170184682e+01
12631 1 1 1.1137507968271880e+00 3.0678835264965155e+01 3.1128860221601730e+01
20918 2 2 1.4433318742316961e+00 3.1318114574743905e+01 3.2388938148829098e+01
20917 1 1 1.5634989309497076e+00 3.1390419614338089e+01 3.1942659946526632e+01
20251 1 1 1.9759020015495661e+00 3.1607534212727582e+01 3.1077406526494087e+01
20252 2 2 1.7498958951083903e+00 3.1544492738487804e+01 3.1431932229078637e+01
15060 1 1 1.8211003166134307e+00 3.0345485602772740e+01 3.2188462588329493e+01
16533 1 1 2.1065695361368615e+00 3.0379311919739127e+01 3.1178071845253349e+01
19179 1 1 2.1503372451834428e+00 3.0433120922808211e+01 3.1307589220281095e+01
19178 2 2 2.1210172153252236e+00 3.0485149573777239e+01 3.1753940609523898e+01
19177 1 1 1.8848690328874023e+00 3.0392281918585457e+01 3.2038194305849814e+01
20253 1 1 1.6073191901153334e+00 3.1423082865378451e+01 3.1783174253468587e+01
626 2 2 2.9224813740115891e+00 3.1668753514712403e+01 3.1751358911011675e+01
14889 1 1 3.9134325537443231e+00 3.0981102616909400e+01 3.1129736959366266e+01
625 1 1 3.2909459631469540e+00 3.1563818625585967e+01 3.1670247996243205e+01
11719 1 1 3.8808284492350364e+00 3.1051965666404190e+01 3.1237118812645654e+01
11720 2 2 3.7144787966347841e+00 3.1269048141590570e+01 3.1523371539418349e+01
11721 1 1 3.4109600734711480e+00 3.1501172342559702e+01 3.1627512238467745e+01
627 1 1 2.5770208134830916e+00 3.1872686495164110e+01 3.1958789837764328e+01
4839 1 1 2.4711116827695032e+00 3.1927864498613651e+01 3.2056540930311684e+01
4838 2 2 2.2756621147535259e+00 3.2070194914998325e+01 3.2371757664471701e+01
1256 2 2 5.1132264516102444e+00 3.3126057587123505e+01 3.1203707272599345e+01
21170 2 2 5.3233857178924398e+00 3.2413752303394510e+01 3.1721293154391638e+01
21169 1 1 5.3653014446192167e+00 3.2348617239792176e+01 3.2093362048901469e+01
21171 1 1 5.2638022187129456e+00 3.2725742231365018e+01 3.1472163452443571e+01
8925 1 1 5.3562390266586037e+00 3.2323467328166728e+01 3.2239446491588154e+01
1255 1 1 5.2108931280347459e+00 3.2828461216874636e+01 3.1371242172611950e+01
8924 2 2 5.3223038414603572e+00 3.2337970732620910e+01 3.2639441425335420e+01
11775 1 1 6.9480034472693868e+00 3.2035867120800162e+01 3.2062515134764901e+01
11774 3 3 7.2318511099316050e+00 3.2146372797900881e+01 3.2322574746943523e+01
11773 1 1 7.2920417938692497e+00 3.2380211201109361e+01 3.2629336185515868e+01
2880 1 1 1.8431871173640527e-01 3.3998859680318660e+01 3.1126239993056551e+01
15722 2 2 1.3793385776706548e+00 3.3850635935340762e+01 3.1478397986115613e+01
2878 1 1 7.9799019501017654e-01 3.3862955072078343e+01 3.1413543139426686e+01
15721 1 1 9.4372335714915601e-01 3.3847000416534733e+01 3.1430109900863716e+01
2879 2 2 4.8351974971995426e-01 3.3993663363517257e+01 3.1378831970178560e+01
15723 1 1 1.6689273153307249e+00 3.4014090175875062e+01 3.1792850708839840e+01
15675 1 1 1.7788966659645835e+00 3.4083224241016076e+01 3.1865572936571283e+01
15674 2 2 2.1093637724752021e+00 3.4254205366177885e+01 3.2025681116978610e+01
15673 1 1 2.3605430372833842e+00 3.4457242186688035e+01 3.2152611910325611e+01
15801 1 1 2.4426473854005768e+00 3.4541479758704838e+01 3.2192229419880121e+01
15800 2 2 2.7491849354663831e+00 3.4791707924439947e+01 3.2355296694333362e+01
3520 1 1 3.9163647595266000e+00 3.3952790818067754e+01 3.1755788904312446e+01
3521 2 2 3.8497575858642392e+00 3.3930981732792411e+01 3.2173872493027915e+01
3522 1 1 3.8582628662673675e+00 3.4183806684925635e+01 3.2503102484098051e+01
12300 1 1 3.8685492768091394e+00 3.4263582218806064e+01 3.2607218099539679e+01
1257 1 1 5.1715965821445318e+00 3.3521602141317295e+01 3.1090648758408040e+01
18821 2 2 8.3426474982130988e-02 3.5727576579081969e+01 3.2370084669383566e+01
17876 2 2 9.2437647677872703e-01 3.6110697563473337e+01 3.2545566641480526e+01
17877 1 1 5.5610393196748698e-01 3.5947248964944798e+01 3.2472978222157465e+01
18820 1 1 4.1525684503985494e-01 3.5889820914396623e+01 3.2415687364285944e+01
15799 1 1 2.9420383086466306e+00 3.4953707402791132e+01 3.2029564716389935e+01
13162 1 1 1.9764306673743477e+00 3.5007623158369732e+01 3.1274763962667407e+01
1810 1 1 2.9517510543715448e+00 3.5477290077269465e+01 3.1222101626611050e+01
18088 1 1 3.0274271369699228e+00 3.5008712417836456e+01 3.1924123334091281e+01
18090 1 1 3.0350802852593168e+00 3.5396124252851990e+01 3.1366475674608584e+01
18089 2 2 3.2309863176953066e+00 3.5193570821640606e+01 3.1699157862213070e+01
7587 1 1 7.7785703010511520e-01 3.7542535286089063e+01 3.2494674855401037e+01
2185 1 1 2.8117709207240749e+00 3.7061498842329108e+01 3.2374885976015399e+01
2186 2 2 2.8312056694002812e+00 3.7287838266716513e+01 3.2090598373104150e+01
20392 1 1 2.8250937569680739e+00 3.6960735278623346e+01 3.2507882724920520e+01
2187 1 1 3.1643251891852446e+00 3.7368920555882497e+01 3.1892538919202146e+01
5032 1 1 3.2859422067628810e+00 3.7428412931412979e+01 3.1799848212429524e+01
5033 3 3 3.6147574162855758e+00 3.7579157139938602e+01 3.1548080518089876e+01
5034 1 1 3.8661015674926387e+00 3.7611831342678840e+01 3.1233579931468412e+01
14788 1 1 3.9388710606583439e+00 3.7639257725257544e+01 3.1134060070563415e+01
7586 2 2 8.8595835077870833e-01 3.7892048620287689e+01 3.2419097254127202e+01
7585 1 1 9.1301077681474474e-01 3.8223748110335748e+01 3.2226457944550859e+01
10589 2 2 8.4227591652042699e-01 3.8684659065206425e+01 3.1909085323535528e+01
10588 1 1 9.1838227418360219e-01 3.8321717921222742e+01 3.2144385369251381e+01
10590 1 1 8.3048598142594965e-01 3.9092087866361283e+01 3.1803460156497469e+01
3756 1 1 7.8051028752435192e-02 4.0570958785075533e+01 3.1795017162101971e+01
15332 2 2 1.3737225509763009e+00 2.8404910447592350e+01 3.4178221442830321e+01
15333 1 1 1.6871744357837690e+00 2.8601191709167235e+01 3.3950535670583200e+01
5914 1 1 1.8077845662374226e+00 2.8664046190482605e+01 3.3858580344631044e+01
5915 2 2 2.1063121726969882e+00 2.8758673757937601e+01 3.3603202802826701e+01
1630 1 1 3.2884620016116752e+00 2.8523161708349637e+01 3.3438285107272385e+01
1631 2 2 3.4039086213560652e+00 2.8558575311236122e+01 3.3841720317145551e+01
1632 1 1 3.2322836125190180e+00 2.8599730917490433e+01 3.4220988811385581e+01
4311 1 1 4.7914284822427761e-01 3.0265778516694489e+01 3.2925818470779383e+01
15058 1 1 1.7943417831772417e+00 2.9948986056691133e+01 3.2784548098135637e+01
877 1 1 1.8005253454188377e+00 2.9825370732281137e+01 3.2917918239141891e+01
878 2 2 1.8369624350697147e+00 2.9539744879915492e+01 3.3159310236358337e+01
5916 1 1 2.0410824924497755e+00 2.9122037219722188e+01 3.3442031657790338e+01
879 1 1 2.0029978598859031e+00 2.9217654540799547e+01 3.3382175907402349e+01
19289 2 2 4.0516410295359941e+00 3.0114544756479511e+01 3.4090283784668891e+01