ITEM: TIMESTEP
30000000
ITEM: NUMBER OF ATOMS
1794
ITEM: BOX BOUNDS pp pp pp
0.0000000000000000e+00 5.0000000000000000e+01
0.0000000000000000e+00 5.0000000000000000e+01
0.0000000000000000e+00 5.0000000000000000e+01
ITEM: ATOMS id type vx vy vz 
18255 1 0.489627 2.565 -6.5696 
12650 2 -0.726025 1.79388 -5.69702 
12649 1 -1.42535 1.75673 -1.32713 
18254 3 4.89913 4.9564 2.43716 
18253 1 1.47712 2.19904 -1.59992 
10501 1 -3.65092 -6.71053 3.47596 
10502 3 0.621708 -2.52919 -2.07083 
16913 3 -1.54804 -1.87912 -5.52862 
16912 1 -2.36294 2.28196 0.606302 
10503 1 -3.51013 -5.06838 -3.84693 
5094 1 -1.95561 -0.913961 -1.51239 
19105 1 -3.36711 -2.53803 2.80069 
247 1 -0.60966 0.850196 1.78626 
19106 2 0.805236 0.907439 -0.259421 
18022 1 1.70171 1.91705 -7.17633 
19107 1 -0.151918 -1.58596 -4.59612 
17959 1 4.87674 6.10148 0.251245 
17960 3 -1.85826 4.96139 -4.07598 
16122 1 -3.1559 -0.402956 0.172153 
16121 3 4.60562 0.745962 0.25652 
16120 1 0.0860055 0.0607485 1.67587 
12613 1 -0.0399673 -0.280987 0.961517 
12615 1 -3.71508 2.31322 0.646696 
12614 3 -4.8061 -2.87822 -0.501475 
2190 1 3.1177 -0.729122 -1.77571 
3632 2 3.2385 -0.62699 -0.0469971 
12651 1 -0.406575 2.55657 -0.766901 
3633 1 -5.6257 -0.347359 0.257283 
16988 3 -3.39403 -2.35658 2.26631 
6113 2 -2.22504 -3.38745 -4.75829 
16989 1 -3.08245 3.34211 -0.447635 
6112 1 2.62741 0.115482 -5.79487 
19959 1 0.574599 -2.33895 2.33994 
19958 3 0.975583 -0.94345 4.55265 
19957 1 0.729042 1.01923 -3.62286 
3631 1 0.304606 -2.49769 1.13223 
6114 1 -4.74151 -1.88584 2.29851 
248 2 -2.05871 2.79646 2.81064 
18023 3 -1.93825 1.57916 -0.0061411 
18024 1 7.03226 -0.366375 2.00933 
17735 3 0.553066 -1.89731 3.18399 
17736 1 -3.49471 3.11628 -0.340772 
16914 1 -3.78046 -2.67333 -1.01919 
7245 1 1.20209 2.11038 -0.988267 
7244 2 2.57121 0.841335 -0.788243 
7243 1 -2.79271 -2.61001 -3.62182 
10528 1 -0.269598 1.72996 -1.98793 
10530 1 2.29476 4.67157 0.0330548 
10529 2 -2.20258 -0.782518 -2.72622 
11265 1 3.70278 3.03259 3.77103 
11994 1 5.0094 -2.21145 3.00738 
11264 2 -7.28256 2.0171 -1.96405 
8598 1 -1.46931 4.1689 1.58245 
475 1 -10.6992 2.84904 2.55083 
8597 2 -0.207864 1.08024 1.01289 
8596 1 0.274255 -3.50741 0.88818 
9262 1 -0.546454 1.59406 -0.594595 
1641 1 -3.99817 0.812223 2.55768 
9263 3 -1.60625 0.584527 -1.20654 
1639 1 1.78602 4.84102 -5.04974 
1640 2 1.14329 0.102006 3.2368 
7171 1 -0.782013 -7.7302 1.04796 
1809 1 2.35127 0.0513936 1.59916 
7172 2 3.80848 -1.53818 -2.60302 
7173 1 -0.00554765 -0.893792 4.78649 
5093 2 -0.500285 -1.29929 -6.19617 
5092 1 -0.0821935 1.73465 -2.25922 
11263 1 0.689772 -1.62036 -2.39556 
15745 1 4.81437 2.25411 -7.02157 
15746 3 2.71104 0.251266 3.78122 
15747 1 1.06495 5.1929 -4.05662 
9264 1 3.14986 -7.23539 5.13856 
16416 1 -1.69745 1.1245 3.309 
16415 3 -2.46452 -3.19195 -3.06452 
12382 1 -4.10105 -2.55827 0.239656 
12383 3 -1.15634 -1.67013 -2.25428 
3282 1 2.73039 -4.16408 1.04408 
3281 2 5.6286 -2.19069 -1.1944 
3240 1 6.67294 -1.89957 -1.21839 
1555 1 -6.6526 -1.37983 0.109753 
3280 1 -1.06354 -1.93675 4.65286 
1557 1 3.54365 2.01431 1.43292 
1556 3 -1.00665 -1.34117 -4.01316 
19638 1 10.3724 -2.95209 -5.95902 
19637 3 -1.24759 -1.51722 -2.2352 
3239 3 7.14906 0.0241737 -1.68092 
10423 1 0.146605 8.46389 4.30122 
19636 1 7.62008 -0.69764 -2.51179 
10827 1 -5.06204 -0.00358412 0.911589 
10424 3 -1.3417 0.681165 -3.80125 
7615 1 -1.05566 -1.71531 0.683578 
209 3 2.93785 2.42397 -2.3071 
208 1 4.08367 -1.30155 1.62954 
210 1 -9.31012 2.82443 1.67035 
1078 1 1.32093 0.0709929 -4.51174 
1079 3 1.79323 -3.84229 -0.0255647 
1080 1 -3.38473 2.33547 0.34321 
13103 3 0.490978 -0.70333 -2.32362 
13102 1 8.06383 1.83041 -1.80843 
16987 1 -5.22267 1.32057 -0.700706 
8166 1 5.63611 -0.90378 4.05948 
13090 1 3.23306 -4.08898 0.427952 
8165 3 2.74032 1.91726 0.960264 
8164 1 -1.86499 -1.3296 4.56969 
13091 3 0.732237 2.87723 -0.0383841 
16109 3 2.25061 -1.25398 -0.785536 
13092 1 0.537796 7.66858 0.970601 
13056 1 -0.0641511 4.10042 -0.518667 
16108 1 0.687036 1.75522 2.38582 
3879 1 5.85428 -5.13078 -0.397964 
13055 3 1.84943 -3.72909 0.503081 
8266 1 2.59967 -2.68166 -0.868061 
19396 1 0.761091 5.22854 -4.28702 
8268 1 1.2981 -1.11413 2.00796 
8267 3 1.64567 -0.172073 -1.44162 
24 1 -0.435166 2.94746 6.83498 
22 1 -3.37352 4.2469 -0.819526 
2405 3 -2.01214 2.81228 1.22723 
23 3 0.671529 2.50992 3.27679 
12896 2 3.25646 0.792034 0.319902 
20416 1 -4.1573 -2.57183 -4.33008 
249 1 -1.9879 -0.926477 4.43149 
6500 3 -1.16488 3.05878 -1.60873 
6501 1 7.41531 0.306166 0.909405 
2590 1 -2.9395 -2.17416 -0.805803 
20417 3 0.486208 -3.1899 -0.907545 
15196 1 -4.36404 -3.64003 0.125448 
15936 1 -2.13692 1.64277 1.71194 
15935 3 -0.895582 -2.86104 -2.17387 
15934 1 -6.66949 4.51294 -3.64507 
10826 3 1.72419 2.14711 3.71933 
20418 1 -6.35463 -0.140713 -3.15381 
9858 1 3.8341 -0.694097 6.01838 
10825 1 -3.5607 -2.04954 -0.0897205 
7717 1 2.95399 -0.742891 2.85031 
17734 1 3.7608 2.62504 3.9029 
7719 1 1.46739 1.55242 -3.853 
7718 3 -1.94048 -4.21368 1.88913 
11195 3 0.386736 2.20396 0.596233 
18437 3 0.123718 -0.56686 -1.47488 
18436 1 4.42166 -2.54236 -5.51778 
18438 1 -2.04538 0.492386 4.88797 
15769 1 -1.26092 1.72279 0.0860714 
15770 3 1.18497 -2.52164 0.674185 
2151 1 -0.615237 -2.32034 6.79786 
7633 1 1.98864 -1.04119 0.330034 
2150 3 0.0499648 5.14693 0.922881 
15771 1 -2.14562 1.73975 -2.30784 
13054 1 -0.277993 0.43022 1.64639 
2149 1 2.6848 -3.98807 1.78253 
19397 3 -0.342627 -0.524428 -3.63388 
14377 1 9.00639 -2.47196 1.87608 
10938 1 -0.925638 -1.83921 4.00712 
14379 1 -2.03976 -2.75956 -1.50778 
1807 1 6.28313 5.38398 -4.14175 
14378 3 -2.00258 -1.12852 1.79209 
15049 1 1.15446 0.0635892 3.3093 
10936 1 6.94604 2.87835 -4.14371 
4072 1 3.78985 0.0141118 -3.16408 
19398 1 -4.02087 0.0690265 1.94555 
1726 1 2.13889 -5.56742 1.04186 
10937 3 -0.18866 1.10297 -0.305629 
12897 1 4.27399 2.07293 4.64416 
4073 2 1.0721 -3.18977 -3.62623 
4074 1 0.44707 -1.38778 -1.56178 
7374 1 -0.939949 1.89872 0.119708 
14496 1 5.0439 3.50626 2.22789 
14495 2 0.853339 2.87575 2.88101 
2592 1 -2.50106 -0.492486 4.63301 
14494 1 0.29032 0.728598 -3.1609 
2591 2 -5.63905 2.30492 0.538206 
17957 3 1.54645 -0.220981 -1.69612 
17958 1 2.84278 5.70887 -0.326711 
17956 1 5.49938 -1.23313 -1.03579 
9856 1 2.47674 -3.01255 0.762715 
9857 3 0.912313 4.24146 1.06813 
11993 3 -1.77578 1.03441 0.19877 
11992 1 1.11297 -2.16233 6.14839 
11194 1 0.210247 -0.7185 4.88072 
476 3 0.0713309 0.370384 -1.15924 
2070 1 -1.24956 -0.599478 -9.16883 
2069 3 3.15757 0.00190288 -0.264359 
2068 1 -2.10584 -0.573826 -0.986287 
20156 3 0.823913 -3.19865 -0.281094 
20157 1 2.28282 -3.41593 7.20924 
5805 1 -2.4231 -1.51702 -5.49977 
20155 1 1.255 -4.11216 -1.22681 
1240 1 0.81714 3.44164 -1.91596 
14313 1 -7.29806 1.53507 5.80054 
14311 1 -1.75738 0.898326 -3.22226 
14312 3 -4.51893 -1.23106 -1.09482 
15774 1 -0.598516 1.26594 2.91987 
15050 3 -0.765401 3.01679 4.36173 
1808 3 -2.24224 -4.0359 -6.26879 
1261 1 1.91381 2.35433 2.0228 
1262 3 -2.30838 2.04386 -1.03392 
7373 2 -1.20444 -3.8078 4.64018 
12825 1 -1.19555 4.84388 4.13464 
7372 1 -0.37815 2.75525 -1.23092 
12123 1 0.542562 0.234087 2.5632 
12122 3 4.499 -2.29317 -2.21218 
12121 1 0.112988 -5.59596 3.21337 
12888 1 -2.05716 -0.332737 -5.56653 
12887 3 0.570589 0.846277 2.46083 
17764 1 1.96431 -4.25878 -3.26155 
17765 3 -0.107728 0.91532 -1.8249 
12886 1 3.16803 -1.41781 -3.47448 
1242 1 0.627467 1.504 2.3937 
17766 1 -8.63168 0.389061 -5.4886 
477 1 -1.91179 -0.185872 0.456227 
1241 2 -1.16608 2.42909 1.18048 
2194 1 -3.19506 -0.813537 2.95997 
2195 3 -4.22192 -3.13232 3.7506 
2196 1 0.410347 1.4335 -1.52167 
15773 3 1.34205 2.96713 -7.16881 
15772 1 -1.13777 4.77942 -2.9497 
6478 1 -1.79455 -2.90123 -0.502991 
6479 3 -1.66079 -0.588329 0.451447 
6480 1 5.02477 1.64704 2.57687 
19498 1 5.60301 3.88651 0.81004 
19499 3 4.1729 -0.642423 -1.37454 
16414 1 1.83272 3.5358 -4.2084 
18984 1 4.77708 -3.6516 -0.474641 
19500 1 1.30938 -3.51721 0.301494 
17997 1 4.00668 -1.01411 3.54582 
3286 1 5.61705 9.84945 0.448115 
3287 3 -2.29951 -7.15535 3.09968 
3288 1 -1.193 -1.0024 -2.54269 
19647 1 -6.33229 -4.40924 1.40318 
19646 3 2.98004 -1.88259 0.364903 
19645 1 2.74275 -2.4975 -2.28545 
14060 3 -0.679743 -3.66834 0.879043 
14059 1 4.85569 0.207925 4.14604 
18982 1 0.0799054 5.54703 2.89047 
14061 1 -4.89721 -2.0351 -1.67999 
18983 2 1.55431 2.21103 1.61173 
11397 1 -4.5014 4.40563 2.89109 
12384 1 -0.938507 2.23694 -0.471529 
11396 2 -5.55038 -2.74914 1.34874 
9082 1 6.81849 3.71362 1.29736 
11395 1 -2.41719 -4.1322 1.28422 
9083 2 2.55805 3.94004 0.813906 
17385 1 0.9102 1.57419 -0.635003 
17384 2 0.365654 2.73973 3.41467 
20272 1 -3.79292 0.430182 4.47208 
20273 3 0.0199295 -2.85419 3.67535 
17723 3 -3.94599 -3.89746 3.13258 
20274 1 -2.26784 1.33054 -3.53409 
20558 3 -0.00979331 2.16524 1.1575 
20559 1 0.150636 4.78372 -1.12834 
20557 1 -5.30293 -3.16743 3.44922 
18619 1 -5.79269 -3.45507 2.41137 
7906 1 -1.34079 1.20284 2.2914 
17722 1 -0.975345 -1.4653 -2.6224 
14144 3 0.158477 2.63157 0.0889785 
14143 1 -2.37225 3.80511 1.32095 
12693 1 2.11494 -2.59814 -1.73455 
17724 1 -1.7009 4.44559 -2.71233 
10124 3 -0.417398 -2.37461 4.95761 
10125 1 1.67989 -3.75473 -3.77164 
12692 3 -0.161856 -0.869892 0.545254 
1687 1 -4.57319 -0.540181 1.27269 
1688 3 -0.115629 -3.30263 -0.434517 
7616 3 0.518418 -0.286817 1.54269 
11488 1 5.26772 -3.36285 -3.74005 
11489 3 2.37302 2.12593 -0.268277 
7617 1 -2.12046 -0.655744 2.91698 
11490 1 -5.16537 3.82432 0.754179 
15892 1 3.95014 3.31597 1.14885 
3798 1 -3.95646 3.54828 -5.33908 
3797 3 -1.74175 -3.59375 2.73336 
16110 1 2.76731 2.89439 0.49197 
11655 1 1.87956 0.124281 2.95369 
20493 1 -0.679195 3.56087 -3.54676 
2831 3 -1.36399 -3.05073 0.0905829 
2830 1 -4.07344 -1.5679 4.46202 
9444 1 0.441844 -5.375 0.0283992 
9443 3 1.30022 -0.456533 4.89162 
1689 1 0.786057 3.99553 -2.91486 
4792 1 -5.11813 -3.17704 3.97127 
4793 3 1.86521 -3.26402 -3.43973 
2406 1 2.09407 1.13473 -2.59364 
20491 1 4.53542 4.91588 -4.23293 
20492 3 2.14045 -4.0574 -0.957808 
10505 3 -2.34782 0.474921 2.06635 
17691 1 -0.0424584 -2.66299 -0.524735 
10506 1 2.52106 0.779429 -1.93032 
10504 1 -2.99267 -2.65261 7.56035 
12895 1 -1.80194 -4.31213 -4.38949 
17690 3 1.30682 0.691108 -1.2455 
14693 3 4.4512 1.30876 1.33736 
14694 1 -2.17445 -2.2475 -1.32452 
1437 1 -2.21573 -0.237214 1.12424 
14692 1 0.230719 -5.80169 2.8958 
1436 3 -2.14973 0.978887 1.04792 
6499 1 -5.29994 -0.0045927 0.423895 
13344 1 -3.00381 2.09962 -5.92383 
13343 3 0.24879 2.09565 4.4315 
3121 1 2.22828 1.13864 -0.283297 
3122 3 3.67311 1.2057 -0.87623 
13048 1 0.441384 6.61222 -1.35169 
13049 3 1.7797 -0.610435 -0.95338 
3123 1 1.41448 4.59923 -5.08753 
15197 3 -0.390376 6.87985 0.200529 
18621 1 -1.56534 0.511814 1.25525 
11205 1 4.06075 0.75058 6.84543 
11204 3 -3.19123 3.12733 -1.55615 
13342 1 6.78805 -1.7234 1.01884 
11203 1 -2.59103 3.33895 1.23989 
16614 1 3.8656 -1.40658 -1.6527 
18620 3 1.21595 -2.38469 0.784877 
8512 1 3.23872 -1.27154 -10.424 
8513 3 -0.207306 1.22127 -2.17001 
8514 1 -7.4724 -3.34619 3.0721 
11196 1 -3.33173 6.24536 0.813014 
10105 1 -7.11073 7.80604 -2.49682 
10123 1 0.402478 -1.9698 1.3237 
10106 3 -3.68367 -1.7656 -1.03838 
2419 1 -1.23099 -3.23293 5.44786 
2420 3 -2.72393 -0.655844 -0.5101 
10107 1 -3.89522 1.37987 4.55572 
7634 3 0.785558 4.17818 -2.86386 
15893 3 0.981948 -5.0454 -1.19026 
7635 1 -2.44838 2.653 0.855771 
6286 1 0.09931 -0.733462 1.40377 
6288 1 -1.53644 -3.70558 -5.4981 
6287 3 3.7553 -2.26984 0.533703 
11654 3 1.65598 0.179132 4.26015 
13335 1 2.80438 -0.0988343 2.51317 
10368 1 -2.52091 3.83687 -0.100766 
11653 1 0.785902 3.55747 -5.99143 
10367 3 0.426153 -2.35378 -1.2217 
16129 1 -0.382409 2.94235 -2.90958 
16130 3 0.504527 -7.4658 -3.44556 
13334 3 -0.871027 0.340747 0.699412 
13333 1 3.03369 5.28534 -3.8126 
1727 3 -5.89087 -2.46158 -1.57447 
1728 1 4.28741 -1.84957 1.17392 
4585 1 3.12018 -0.0645441 -3.4432 
4586 3 -2.36359 -2.24714 -2.34558 
4587 1 -1.21562 1.56718 0.153023 
21293 3 -0.487674 -5.53874 -2.24452 
13186 1 4.17048 -9.79976 -0.440121 
13187 3 1.64117 -0.531895 3.64586 
17689 1 -2.60509 -1.03189 2.60346 
15483 1 -2.44185 -4.08862 0.432402 
15482 3 -2.68175 -6.78663 0.0407247 
15481 1 5.12402 5.0848 -6.91723 
8561 3 0.729607 -3.68189 0.168869 
8560 1 1.74594 1.91695 -9.07505 
8562 1 -2.91445 4.36677 1.03789 
15198 1 -2.69773 -4.84015 3.95745 
4153 1 -2.15764 -2.90881 -0.414808 
4154 3 3.15986 0.701909 4.77592 
5803 1 -0.738031 -2.54986 4.58105 
5804 3 -3.13853 -1.02131 3.14541 
14406 1 -2.76256 -2.18276 2.69408 
14405 3 0.155653 1.47214 1.14782 
14404 1 -2.70504 -4.78155 -1.48495 
4155 1 0.122718 1.18881 -2.40181 
14443 1 1.05779 -0.0860938 3.74221 
14444 3 -5.36889 1.2465 2.57721 
7650 1 -1.10852 -0.988695 6.30807 
2421 1 4.06378 -1.34343 -5.70999 
14662 1 3.43138 -2.77793 2.46272 
3532 1 2.26357 -0.229852 1.74626 
3533 3 3.1248 -0.0754254 1.84626 
16393 1 3.30486 4.96206 4.09499 
16394 3 1.95105 -0.806009 -1.85838 
3534 1 -0.427761 1.61353 -2.13534 
5368 1 0.441609 0.65857 0.24012 
14663 3 3.1315 -3.84964 1.59214 
6528 1 1.76159 3.43263 7.22978 
14664 1 1.57137 -0.255819 -7.54508 
18897 1 -1.13875 1.35221 3.88083 
6526 1 3.73024 1.96595 0.341141 
6527 3 -0.64645 2.26466 -0.18214 
534 1 1.02381 1.68297 0.79781 
1863 1 -0.600063 3.47112 -2.04042 
532 1 1.57912 4.30914 0.449191 
10159 1 0.542775 0.9892 0.108853 
533 3 0.564132 0.0520043 2.25456 
10160 3 2.32025 1.33277 3.12491 
10161 1 -5.18964 4.5975 -3.86457 
15051 1 0.081384 -0.187254 -4.53126 
10366 1 -1.72159 -2.46616 -1.29069 
21525 1 -3.18082 -2.88682 -5.0803 
16131 1 -0.912228 1.44576 -0.55265 
18896 3 0.926986 -2.16464 -4.80728 
21524 3 -0.550919 -2.98987 -0.847262 
18507 1 -2.07102 1.90239 -4.32839 
18895 1 0.749585 -0.463492 -1.3643 
21523 1 -1.65971 1.77115 -2.85214 
13225 1 -4.43079 8.47588 0.272972 
13227 1 -6.17444 -2.34143 4.29886 
20212 1 2.43082 0.993176 1.70206 
13226 3 -2.47104 -3.11967 2.68285 
160 1 1.00856 4.73726 4.02586 
3405 1 -5.16805 -2.15034 -2.71452 
12067 1 -2.11989 4.78771 -3.55732 
1263 1 -1.85794 4.65126 4.56899 
13188 1 -1.55065 -1.3795 4.00487 
12069 1 0.0640233 -1.33678 -2.55434 
21292 1 0.0287662 2.48949 -0.430625 
19518 1 -4.1574 -0.252153 3.71125 
12068 3 1.03289 2.01994 -2.72311 
17995 1 -4.80823 -7.04692 0.269078 
12824 3 -0.156776 -0.345671 1.22866 
19517 3 -2.12469 3.57504 -1.09148 
12823 1 0.0819735 -2.48697 3.64773 
14874 1 7.09607 2.72329 -3.39833 
14445 1 1.53795 -0.0141838 0.38519 
12797 3 0.749911 0.149175 -0.0313585 
12798 1 -0.180739 1.92576 4.17395 
16395 1 4.2862 -1.58974 -3.62345 
20010 1 3.29113 -1.31903 3.05234 
15851 3 0.786489 0.240079 0.841396 
15852 1 -0.587733 -1.101 2.56177 
15850 1 0.589814 -0.437911 2.33647 
20008 1 8.81743 1.03768 -2.8448 
20009 3 -1.47477 2.43979 -4.21968 
11334 1 2.89341 -6.80034 -2.68778 
11333 3 -0.829465 0.624801 -1.29096 
11332 1 0.0795238 -4.35827 3.01453 
8949 1 2.10256 0.933126 0.986826 
8948 3 1.76454 -3.96174 0.767317 
8947 1 2.03324 5.09064 5.77706 
161 3 0.166653 -0.616507 -2.40349 
11320 1 -0.679508 -2.40182 2.71612 
162 1 -2.1601 -2.66757 -4.2647 
13938 1 0.140379 -0.371765 -1.4171 
20213 3 0.872325 -1.91078 -1.30324 
11321 3 -0.771277 3.93494 1.80458 
11322 1 0.384626 -1.22326 3.97131 
20697 1 0.550841 -2.53798 3.80591 
20214 1 4.3422 4.65693 -1.16065 
17996 3 0.0705306 0.804222 -0.241874 
14873 3 -1.76333 3.61687 3.87512 
11574 1 -3.15965 1.89356 3.73373 
14872 1 -4.4793 2.90576 1.89261 
15620 3 -4.84177 -3.12213 1.55633 
15619 1 7.65327 -3.1742 0.223022 
17328 1 0.102825 -2.25645 2.39853 
17061 1 -0.415523 4.2452 0.0252145 
17060 3 2.23526 1.70589 -2.08959 
17327 3 -0.338217 -2.5536 0.28865 
17059 1 -0.632765 3.12091 0.321927 
7108 1 1.92072 -1.25759 3.67231 
7109 3 0.422366 1.32868 3.14748 
7110 1 1.36634 5.3599 1.23864 
20696 3 2.10961 2.89272 1.90968 
20695 1 -3.50871 -1.79293 2.53724 
10402 1 -3.7135 0.791348 5.53747 
3743 3 -4.16913 -0.371564 0.275684 
10404 1 -10.1227 -3.5071 1.29281 
10403 2 5.35089 1.72591 0.194929 
3744 1 -3.21092 4.21976 -1.3307 
9084 1 2.69604 5.74028 -1.11469 
20862 1 -1.68673 1.74965 -4.85563 
20861 3 -0.750928 0.551987 -0.432492 
20042 3 1.96629 -2.30515 -0.471522 
19813 1 -0.172807 2.13621 4.3433 
19814 2 -0.430607 0.632436 0.249423 
20043 1 -3.27813 -3.83636 5.48036 
19815 1 -0.898443 -3.50767 -4.33116 
2947 1 0.923126 -2.43625 -3.84298 
7484 3 -2.63341 -1.29796 1.95315 
2949 1 4.59848 0.0333102 0.549454 
2948 2 -0.312241 1.12542 -0.856837 
302 3 -0.788352 -3.46568 -0.106282 
15023 3 0.176519 -1.70338 0.735659 
15022 1 -2.99427 5.36265 1.78402 
7483 1 1.67892 0.876201 0.366488 
7908 1 1.91765 4.82638 7.1835 
15024 1 3.21516 0.59468 -2.51571 
7907 3 0.628881 -0.102389 -2.59031 
13531 1 1.83866 -2.72842 3.48537 
13532 3 -0.606007 -1.49449 -2.10685 
17284 1 -1.60247 0.217152 -1.4785 
17285 3 3.72676 -3.88963 0.368319 
301 1 -3.30016 -0.890492 -4.19527 
88 1 -6.59525 -3.24121 5.11957 
19267 1 -4.50519 8.15129 -4.15858 
19268 3 -3.83169 1.4753 0.964558 
14145 1 4.62094 1.35826 1.83295 
19269 1 1.48114 0.617884 -2.50003 
12927 1 -4.21989 1.37214 3.44559 
12926 3 -0.525215 -2.07415 -5.77128 
3810 1 -2.24798 -2.42916 0.746289 
12925 1 -1.6201 -0.387462 -6.24216 
20961 1 2.13901 1.53203 1.55949 
20960 3 5.55664 -2.39662 1.52717 
20959 1 -3.19751 2.69665 -2.03424 
3809 3 4.41721 1.55946 1.93902 
3796 1 -1.64106 -1.71344 3.70244 
20470 1 -7.79125 -6.18701 3.47607 
2741 3 -3.55783 3.37444 -4.57491 
2742 1 0.575664 1.44491 3.91399 
10261 1 -0.939658 4.7765 6.03123 
6738 1 1.95703 0.426029 5.27451 
2740 1 1.14943 -6.37516 0.266662 
9442 1 2.91089 2.75796 -2.40917 
21249 1 0.546916 -3.22639 0.515631 
10262 3 1.8282 -3.71197 0.674641 
8732 3 -4.33863 2.54164 1.0113 
8731 1 0.971873 -5.60636 -2.24914 
20471 3 3.77522 -3.98335 -1.29412 
21376 1 -2.40563 -4.35521 3.30287 
21378 1 -2.80514 1.24503 4.50646 
4635 1 -4.33235 -0.826629 5.38185 
18452 3 1.9788 -0.18776 6.58644 
18453 1 5.87089 -1.79698 1.24488 
16663 1 1.87727 -0.230301 2.63516 
16664 3 0.293177 1.26626 0.543922 
21377 3 0.66831 1.48639 -1.32839 
4193 3 0.919205 2.35995 -0.0385118 
4192 1 3.09708 1.72129 1.70192 
10639 1 -4.20079 -1.73031 -2.73107 
20680 1 0.93345 -0.856608 -4.25652 
20681 3 4.58296 0.657479 0.966059 
20682 1 0.603228 6.55197 -5.5391 
4633 1 -3.87627 -2.22598 -5.44005 
13838 3 1.84645 -1.44267 3.04955 
18414 1 -1.22818 0.733903 0.128319 
13837 1 0.0784538 2.9407 -1.84559 
1735 1 -0.849283 -2.18223 -2.21378 
1736 3 -0.67475 -0.78432 1.45062 
13839 1 2.13512 1.88679 1.37148 
16613 3 1.41352 -4.69817 2.10028 
18413 3 2.06152 -2.29897 0.320896 
18412 1 3.54482 -0.614414 3.16722 
18684 1 -2.37371 1.68313 -6.59774 
16612 1 2.46827 -1.48689 -0.932371 
18683 3 0.77556 0.961799 -3.81012 
18682 1 5.19049 -6.09859 1.49932 
21226 1 3.26324 -0.661475 0.184625 
6721 1 -3.26498 9.22938 -0.209852 
6722 3 -1.24374 -0.741133 3.73348 
6723 1 -2.4674 0.0170239 2.80647 
13050 1 2.18639 -2.50435 0.221163 
13533 1 -6.10355 0.998858 0.529347 
1983 1 -1.81268 0.431667 -1.82215 
1982 3 -2.90143 1.0443 -1.82075 
1981 1 5.60183 2.60098 -1.57606 
7720 1 1.72695 -6.93575 -3.07124 
7721 3 1.58291 -0.282419 2.18657 
11412 1 0.340813 -3.80128 -0.874612 
2683 1 -4.61988 -1.43779 3.75061 
7722 1 6.21807 0.735187 -3.53571 
19723 1 -0.470345 -3.0799 6.77618 
19724 3 -1.90299 -5.35394 5.8552 
15894 1 -1.53947 8.17267 -1.83771 
1861 1 1.23655 -5.1835 -0.30303 
9392 3 -0.129624 -4.36934 0.161549 
21087 1 -1.65868 1.781 4.23155 
9391 1 -3.24166 -2.22133 -4.79626 
11316 1 0.475436 -4.06408 -1.69157 
11315 3 2.04337 -4.93213 -4.54582 
11314 1 3.28052 -1.67454 -1.0793 
9393 1 2.44645 -2.50679 -4.45171 
10470 1 0.548681 0.0843085 -0.950177 
10263 1 0.675046 1.15298 0.755147 
4980 1 1.44876 -3.678 1.22609 
3052 1 0.836319 0.539032 -1.25431 
3053 3 2.22144 -3.19559 -1.68247 
21248 3 1.23984 3.21418 1.86028 
4708 1 4.39121 -7.00449 -1.58778 
21294 1 0.169438 2.38944 3.81975 
4709 3 1.14949 2.27091 -0.637027 
21247 1 2.91203 -1.1763 9.55626 
2999 3 0.771909 1.18134 2.90598 
2998 1 -0.285451 4.74141 -2.4312 
3000 1 3.23448 3.2421 3.65071 
4710 1 5.07724 0.679766 1.88865 
15081 1 3.74161 4.66774 4.72597 
16665 1 0.31303 5.62953 1.88123 
20701 1 -1.13389 2.75242 1.45182 
20702 3 2.32372 1.76592 0.39835 
15809 2 0.571886 -0.324861 -0.310376 
15808 1 -1.44377 5.63854 2.11605 
20703 1 2.46002 2.06761 4.02857 
11890 1 -6.63849 -5.29497 -2.76114 
3078 1 2.14812 2.03357 -1.29106 
3076 1 -2.40863 -0.69282 5.67663 
3077 2 0.288558 1.0655 0.50351 
11891 3 3.05488 0.269066 -4.36201 
1761 1 6.89963 2.48957 -0.5916 
7803 1 -0.65896 2.30627 -3.00773 
7802 3 -0.906995 -0.217689 2.67363 
11892 1 3.41119 0.22235 0.315036 
6840 1 -4.65691 1.4568 -4.39382 
7649 3 3.51247 2.8668 -1.56739 
11411 3 3.78161 -1.32234 -1.15145 
11410 1 -3.17158 0.65339 1.14799 
7648 1 -3.23085 -4.2776 -0.817526 
1760 3 -1.74052 4.5188 -0.0303981 
1759 1 3.99353 2.74525 2.49394 
5369 3 2.68977 -1.59649 -2.75262 
5370 1 3.519 -6.21401 -1.92825 
6567 1 -2.07471 -1.95058 -0.933895 
6566 3 -2.44962 -0.242956 3.29762 
6565 1 -1.72026 5.23621 8.53637 
1862 3 0.90997 2.9637 -4.48183 
10683 1 -0.574449 -1.86557 -6.48442 
10682 3 0.936319 -0.408789 -6.14875 
10681 1 -1.0652 -2.73828 -6.08805 
10779 1 -9.64214 -5.28014 -3.32468 
3054 1 -5.71058 -6.74224 10.2459 
10778 3 -1.27694 2.77748 -3.43055 
10777 1 -1.27198 1.3945 -0.320195 
3404 3 3.24138 0.646689 4.14743 
3403 1 6.82761 3.70135 2.03606 
18506 3 -3.99218 -1.20684 -2.60236 
3603 1 -5.58778 0.759568 -0.522623 
3545 3 1.46985 3.50006 0.437987 
18505 1 -6.11373 -1.00252 -2.87105 
3546 1 4.27405 -3.1056 -4.13432 
3544 1 6.75111 -3.27112 0.510689 
18112 1 -2.27986 1.77971 3.18231 
11986 1 -3.46549 -1.24602 0.158668 
19516 1 5.20328 5.73587 -1.94209 
11987 3 -2.01617 -3.10162 0.113767 
15080 3 -1.26204 -1.42211 -1.14452 
13768 1 4.05708 -2.60516 0.972595 
13769 3 3.24329 0.0165608 2.29982 
15079 1 0.566357 -0.674918 0.535143 
9471 1 -3.01999 -5.35644 -7.23996 
9470 3 -1.49811 1.84175 -1.72877 
6615 1 1.35218 -0.935552 0.596034 
6614 3 0.430737 -1.19293 1.62173 
19341 1 -0.714745 -0.31985 0.192521 
6613 1 -1.93343 -3.518 -1.70453 
13918 1 -3.36072 -2.81665 -3.63143 
15810 1 0.222221 -0.683124 -4.68623 
13770 1 1.76291 2.97422 -2.85446 
1949 3 -3.13512 2.812 4.76891 
13920 1 -0.590983 -3.15261 -1.82047 
1948 1 -0.992827 -0.905648 0.978109 
13919 3 -1.34361 0.348857 -1.68169 
12796 1 0.695813 -7.53231 -0.244733 
7980 1 -1.00584 -1.74723 -2.31221 
7979 3 2.68257 -1.45395 1.60831 
7978 1 -1.90623 -0.13928 3.17973 
6838 1 4.94846 2.41479 4.64574 
6839 3 -0.10876 0.389147 1.32865 
2647 1 4.60809 4.65419 5.9561 
13625 3 -0.560821 -1.96108 -0.629789 
2648 3 -0.0202237 -0.0756182 0.816741 
543 1 1.02559 4.82108 -0.585226 
16677 1 -0.986548 -1.20315 3.469 
16676 3 -0.447869 1.13769 -2.63173 
2649 1 -0.480592 -4.33533 6.00664 
13624 1 -1.89976 -2.67227 -1.55941 
13626 1 2.14345 -1.73908 -5.23258 
6765 1 -4.37904 -6.02375 -3.05275 
16675 1 -7.25917 -2.62967 4.5565 
2597 3 -1.63126 1.03859 -1.92908 
13936 1 4.19314 -0.594504 6.15949 
542 3 -2.24756 -3.24067 -3.57094 
541 1 -0.249022 1.65305 -2.73317 
2596 1 11.4174 -3.81948 -0.677285 
4505 3 2.27311 -0.422871 -4.81668 
4504 1 -0.0440079 -2.24247 -3.46004 
18028 1 1.8982 -3.63989 -4.02333 
13937 3 -1.47323 -2.23058 -1.64381 
3601 1 -5.81815 -1.08926 -3.60859 
7254 1 1.99507 6.56128 -2.87411 
3602 3 2.02527 -2.29257 4.77109 
6026 3 2.97631 2.12691 -0.611205 
10653 1 1.30523 0.861377 -0.207481 
10652 3 1.30227 2.24596 -5.79484 
6025 1 5.33861 5.68698 -7.56161 
6027 1 0.519299 1.87632 -1.33007 
13402 1 0.518406 1.6298 -1.10525 
163 1 -3.00194 4.9304 3.66121 
11988 1 1.65969 -0.839391 1.9899 
165 1 5.07341 2.96423 -4.99512 
164 3 -6.83385 -3.57847 0.143146 
1749 1 -2.6007 -2.84096 -2.85919 
11731 1 1.37156 3.79552 1.7303 
1748 3 2.4485 1.68401 -1.0894 
11732 3 1.03105 -0.0980822 5.36027 
11573 3 -0.13739 1.40596 4.76376 
1950 1 4.3134 1.31044 1.555 
11572 1 6.03489 4.1283 0.911199 
1747 1 -4.42443 2.3243 -1.10787 
6764 3 -1.01755 -1.36509 0.0766433 
9728 3 2.55787 3.32868 1.81061 
15621 1 6.8443 3.43172 3.62782 
9729 1 2.15713 0.224357 -3.95209 
8935 1 8.3396 3.08163 -0.00116819 
9727 1 -1.55063 -1.65468 0.210351 
1137 1 -2.03827 0.247236 6.35342 
12616 1 0.35521 2.58874 2.14642 
6763 1 0.178185 -0.0788593 -2.21433 
10039 1 -1.01319 -1.25209 1.42834 
1136 3 7.45641 -2.40765 0.517696 
10860 1 0.330027 -3.68037 0.755083 
4506 1 0.78778 -4.28695 1.67753 
17326 1 0.307582 3.01442 -6.68443 
12521 3 -1.3424 2.75441 -3.35235 
10041 1 1.93326 1.57007 -0.370236 
10040 3 2.61199 -0.178069 -3.31718 
19381 1 -3.35074 6.88233 -0.919417 
12520 1 -0.371492 0.189906 -0.222222 
12522 1 5.35888 5.80851 3.26682 
10651 1 -2.50539 -0.663305 4.17091 
19383 1 2.75284 3.68421 -3.94581 
19382 3 0.232812 2.16209 -2.22167 
13403 3 -3.16697 -0.0928127 -3.65087 
10859 3 0.937491 -1.03995 -1.48168 
10858 1 1.60225 -4.93038 -3.73247 
13404 1 -1.79063 3.68051 2.90694 
13231 1 -2.06618 -5.73606 4.73699 
13232 3 -0.492386 -3.18633 0.257282 
13233 1 2.92041 1.6307 -0.900795 
3742 1 -7.22608 -4.8248 -2.15064 
20860 1 -4.91799 -2.46223 1.9054 
15789 1 0.0728868 -3.89796 -4.89775 
15787 1 -0.911228 4.70492 1.80341 
1135 1 3.05832 -1.47704 1.76475 
15788 2 -0.255824 -1.24849 0.271139 
2157 1 1.18358 -1.03078 -3.87517 
2156 3 2.7435 -0.139468 1.94408 
2155 1 -5.433 3.08043 6.55632 
3268 1 -4.63553 3.41804 -1.75826 
3269 2 2.08339 0.118907 1.11972 
20041 1 0.931172 -4.53814 -0.788541 
3270 1 -5.36257 -2.41012 -8.58725 
5576 3 2.10461 0.907075 4.24398 
6701 3 0.398213 -0.792368 -1.66346 
6702 1 2.95026 0.849735 1.89436 
17286 1 2.28955 3.23666 -0.657294 
13894 1 0.416226 12.1379 2.46426 
12757 1 -0.275836 -7.88904 -3.95112 
13895 3 2.93851 3.01121 -0.83891 
12758 3 4.68476 0.665026 1.67514 
12759 1 -1.41456 1.31334 3.0211 
5577 1 -6.38789 4.99801 4.49354 
13896 1 -0.319423 2.58371 2.85242 
12669 1 -4.4815 3.16572 -0.716304 
15509 3 -2.2031 1.22068 -1.27499 
15510 1 -0.129748 1.31019 -13.9386 
3561 1 1.75633 2.32749 1.05068 
19725 1 1.50673 3.56904 2.63868 
12418 1 1.07365 -0.132068 1.92473 
12806 3 -1.67275 -0.840883 1.81132 
3560 3 -2.87335 -3.13768 -1.63692 
12419 3 1.51725 -2.13371 -3.50564 
3559 1 -2.49852 -1.92322 -0.693895 
15508 1 -5.12997 -2.23253 0.581987 
12668 3 0.86024 0.159271 0.206565 
12667 1 -1.19092 1.69346 4.42532 
8089 1 -6.72795 1.91571 0.862539 
8090 3 -5.0766 -0.0585212 -1.93273 
10684 1 -0.770373 -6.79419 1.08966 
8091 1 3.61256 3.99277 -5.00944 
2202 1 -2.20114 0.0367538 0.236876 
2201 3 2.34896 -1.15541 -0.422477 
10685 3 1.55578 -1.11762 0.495972 
8733 1 0.684116 5.7697 -1.87396 
7443 1 -1.61548 2.21582 2.91684 
7442 3 3.94524 -1.42234 0.156428 
7441 1 -6.14867 0.584893 1.33477 
20966 3 0.250332 0.239168 -1.14433 
19808 3 -1.49048 -2.55097 2.09214 
11741 3 2.26871 -2.33296 -5.8287 
10686 1 -3.43824 -5.82118 -2.15833 
11742 1 0.388698 -6.47538 2.70844 
11740 1 4.90544 2.32716 1.3908 
20965 1 -6.44071 -2.72132 -1.85339 
147 1 3.49518 7.93295 5.21406 
8341 1 6.5727 -1.70404 4.70698 
8456 3 -1.8792 -0.193019 -0.288307 
18451 1 1.59108 1.55973 -1.17758 
19807 1 0.981199 -6.826 -6.19172 
146 3 1.76653 -2.97097 -1.39684 
145 1 3.95419 -2.38547 1.38526 
20967 1 5.12193 1.46929 -0.0724448 
8455 1 1.26401 1.06569 -2.56214 
10640 3 0.596409 3.43186 2.29909 
18738 1 2.26448 0.648491 -0.232089 
8457 1 0.534105 -1.44892 2.50494 
14554 1 -5.4736 -0.981968 -1.72858 
4194 1 1.93252 0.775701 -4.19796 
4834 1 5.11612 -0.467055 -1.94158 
303 1 0.819382 2.33148 0.249865 
1737 1 3.19806 2.69661 -8.07957 
21227 3 -0.75946 -0.301756 0.258831 
12345 1 3.39557 4.46647 1.87282 
21228 1 -3.32657 -4.39797 -3.17417 
12344 3 0.511564 3.18403 2.17727 
12343 1 -1.613 -7.16002 -1.10394 
16384 1 -2.92118 0.137554 0.00879093 
15255 1 -2.99758 1.33856 3.61979 
2685 1 -1.26934 -1.59479 0.276381 
2684 3 -1.50848 2.13626 -0.915884 
12420 1 3.54438 0.565366 -0.687899 
15254 3 3.22259 0.673816 -0.73073 
15253 1 2.01731 3.47348 -1.59819 
21108 1 4.72876 -1.79211 4.73504 
8112 1 1.67583 4.45354 1.65489 
21085 1 -0.0363085 -3.40947 2.51008 
21086 3 -1.27414 -1.93244 -1.43888 
19354 1 -2.16626 -3.93696 4.45506 
3442 1 3.17113 0.102353 4.58119 
18697 1 1.65372 2.75734 -1.11516 
3444 1 -1.95117 6.24624 0.293149 
3443 3 -0.653756 2.55241 1.38687 
19355 3 1.30669 2.67611 4.39657 
10469 3 0.174404 2.43314 -0.315325 
2200 1 5.5285 -6.29391 -2.60805 
13500 1 -6.18997 1.95752 1.80872 
10468 1 -10.1423 4.44203 0.766546 
11980 1 -1.07232 -2.88578 -4.04306 
11981 3 -0.742928 3.58074 -0.526117 
19809 1 -0.92164 4.63768 -0.451123 
20946 1 -1.02843 -4.91434 1.92356 
20945 3 0.550508 0.218911 1.37667 
20944 1 -0.504117 -4.76607 4.22754 
13607 3 1.95697 -0.178354 -1.0241 
4979 3 4.07357 0.287355 2.88103 
4978 1 2.05944 -2.87225 -4.55497 
18081 1 0.0907581 2.26558 1.42187 
10641 1 2.39588 1.65387 1.47357 
18080 3 -1.41392 -1.38892 3.86717 
18079 1 0.889468 1.84949 -5.37642 
18999 1 -1.68807 -3.08347 -1.02518 
18998 3 2.50811 -0.546915 -1.00174 
18997 1 -3.64212 3.07168 1.10278 
18386 3 -3.08587 -1.6538 -0.669873 
18387 1 4.05948 -5.47487 1.20744 
18385 1 -5.33943 4.47165 -2.9894 
15373 1 5.36272 -5.29006 7.28601 
15374 3 2.60377 -2.85149 1.93762 
15375 1 -0.861818 7.85702 -2.15685 
7801 1 -0.674774 -7.56407 -4.68809 
10507 1 1.223 3.90469 1.6948 
10508 3 -0.103897 -1.27923 -3.12425 
17295 1 -3.32512 -3.94856 3.97329 
10509 1 -0.228301 1.44838 0.632578 
17293 1 0.586963 -0.365355 4.85639 
17294 3 -0.57601 -1.84299 -4.21788 
8110 1 2.51841 4.24265 1.03484 
8111 3 1.10736 2.54485 -2.04569 
21107 3 1.14281 2.17498 -2.92701 
8226 1 1.27188 4.53348 -3.0876 
8225 3 3.63981 3.05616 -2.13166 
3531 1 -2.08959 -3.89725 -2.21544 
21106 1 4.74687 1.63235 -0.601715 
8224 1 0.64937 3.74523 -3.24134 
7928 3 1.73135 0.912717 -0.816648 
19407 1 1.35093 -0.297449 -5.01316 
19405 1 0.338331 5.14825 -1.84415 
7927 1 6.1841 -1.62962 -3.31743 
19406 3 -3.7475 1.76003 -1.88377 
14622 1 2.3004 0.102847 2.32797 
19356 1 7.93067 -3.77979 -3.31287 
14621 3 -2.64564 2.23576 0.26534 
14620 1 3.49064 -0.823775 6.02021 
18114 1 -0.745442 -4.60791 -1.22085 