ITEM: TIMESTEP
30000000
ITEM: NUMBER OF ENTRIES
1430
ITEM: BOX BOUNDS pp pp pp
0 50
0 50
0 50
ITEM: ENTRIES c_binfo[1] c_binfo[2] c_binfo[3] 
2 1396 1397 
2 1397 1398 
2 12854 12855 
2 12853 12854 
1 12853 14755 
2 13126 13127 
2 13127 13128 
2 14753 14754 
2 15001 15002 
1 15001 15349 
2 15002 15003 
2 15349 15350 
1 14754 15003 
1 13128 18928 
2 18928 18929 
2 15350 15351 
2 11833 11834 
1 11833 14275 
2 14275 14276 
2 14276 14277 
2 5402 5403 
2 11834 11835 
2 5401 5402 
1 5401 7272 
2 2558 2559 
1 2559 6388 
2 6388 6389 
2 6389 6390 
2 7270 7271 
1 1398 7270 
2 7271 7272 
2 2260 2261 
2 2261 2262 
2 8176 8177 
2 8177 8178 
1 8178 8185 
2 8185 8186 
2 17627 17628 
2 10184 10185 
2 15977 15978 
2 15976 15977 
1 14757 15976 
2 14756 14757 
2 14755 14756 
2 9305 9306 
2 9304 9305 
1 9304 10038 
1 13299 16507 
2 10183 10184 
3 11636 11637 
2 16507 16508 
2 16508 16509 
2 2581 2582 
2 2582 2583 
1 13290 18930 
1 2583 18483 
2 18482 18483 
2 8954 8955 
2 17879 17880 
2 17119 17120 
1 17119 17878 
2 17878 17879 
2 17120 17121 
2 21038 21039 
3 21241 21242 
2 14752 14753 
2 521 522 
2 520 521 
1 520 14134 
2 14134 14135 
1 522 21243 
3 21242 21243 
2 18929 18930 
2 13289 13290 
2 14135 14136 
2 13288 13289 
1 13288 16849 
2 16849 16850 
2 16850 16851 
1 14136 17029 
2 17029 17030 
2 11077 11078 
1 11077 16851 
2 19012 19013 
1 12048 18481 
2 18481 18482 
2 12047 12048 
1 5403 11844 
2 11078 11079 
2 19013 19014 
2 12046 12047 
2 11842 11843 
2 18638 18639 
1 17895 18639 
2 17894 17895 
2 17893 17894 
1 17893 18811 
2 1307 1308 
2 1306 1307 
1 1306 11967 
2 7967 7968 
2 17030 17031 
2 16609 16610 
1 16609 17031 
2 16610 16611 
2 7966 7967 
1 7966 11382 
2 13336 13337 
2 11380 11381 
2 11381 11382 
2 11843 11844 
2 2557 2558 
1 2557 19014 
2 13337 13338 
2 2483 2484 
1 2484 6415 
2 6415 6416 
2 16349 16350 
1 8187 9409 
2 11108 11109 
2 11107 11108 
1 9411 11107 
2 9409 9410 
2 9410 9411 
2 13526 13527 
2 2482 2483 
1 2482 3064 
2 3065 3066 
2 3064 3065 
2 13525 13526 
1 13525 16348 
2 16348 16349 
2 11966 11967 
2 11965 11966 
1 11965 17841 
2 17840 17841 
2 17839 17840 
2 16867 16868 
1 16867 17839 
2 7051 7052 
1 2262 13047 
2 13046 13047 
1 6390 15184 
2 15184 15185 
2 15185 15186 
2 3043 3044 
1 3043 15186 
1 6417 13045 
2 13045 13046 
2 6416 6417 
2 3044 3045 
2 8186 8187 
2 1322 1323 
2 1321 1322 
1 1321 9846 
1 16350 17626 
2 17626 17627 
2 8083 8084 
3 3479 3480 
3 3478 3479 
1 3478 8083 
2 923 924 
1 924 3480 
2 16906 16907 
2 16907 16908 
2 10036 10037 
1 10036 16906 
2 5725 5726 
1 5725 17928 
2 10037 10038 
2 5726 5727 
2 11131 11132 
2 11132 11133 
2 14309 14310 
3 10213 10214 
1 10213 14310 
2 922 923 
3 11635 11636 
1 11635 13899 
2 13898 13899 
2 18626 18627 
2 13897 13898 
1 13897 18627 
2 14308 14309 
1 14308 16165 
2 16165 16166 
2 1045 1046 
1 1045 20743 
2 20744 20745 
2 20743 20744 
2 1046 1047 
3 16303 16304 
3 10214 10215 
3 16304 16305 
3 10474 10475 
1 10474 14775 
2 14774 14775 
2 14773 14774 
3 10475 10476 
2 1453 1454 
1 1453 1674 
2 18346 18347 
1 852 18346 
2 851 852 
2 850 851 
2 15368 15369 
2 10609 10610 
1 10609 15369 
2 10610 10611 
2 781 782 
1 781 850 
2 15389 15390 
1 10611 15390 
2 13468 13469 
2 13469 13470 
2 9620 9621 
1 9621 15097 
2 15097 15098 
2 15098 15099 
2 8953 8954 
1 15099 17121 
2 18152 18153 
2 15361 15362 
1 15361 18153 
2 18151 18152 
3 1537 1538 
1 1455 1537 
3 1538 1539 
2 1454 1455 
2 782 783 
1 783 6190 
2 6190 6191 
2 6191 6192 
1 6192 17919 
2 15388 15389 
1 15388 19741 
2 19741 19742 
2 19742 19743 
2 9619 9620 
2 2449 2450 
1 2449 18637 
2 18637 18638 
2 2450 2451 
2 9628 9629 
1 9628 19743 
2 15362 15363 
2 7186 7187 
1 7186 15363 
2 7187 7188 
2 3767 3768 
2 8062 8063 
2 8063 8064 
2 17918 17919 
2 17917 17918 
2 13351 13352 
1 13351 17917 
2 13352 13353 
1 8064 8154 
1 4263 11079 
2 4261 4262 
1 4261 13210 
2 4262 4263 
2 13210 13211 
2 13211 13212 
2 11839 11840 
1 11839 13212 
1 3936 7188 
1 3066 3768 
2 19141 19142 
2 3935 3936 
2 3934 3935 
1 3934 19141 
2 19142 19143 
2 4354 4355 
1 4354 19143 
2 3766 3767 
2 7052 7053 
2 8153 8154 
2 8152 8153 
1 7053 8152 
2 14321 14322 
2 14320 14321 
2 5863 5864 
1 5863 14320 
2 16868 16869 
1 16113 16869 
2 16112 16113 
2 16111 16112 
1 16111 16600 
2 16600 16601 
2 7228 7229 
1 7228 9573 
2 7229 7230 
2 9845 9846 
2 16601 16602 
1 13383 16602 
2 9844 9845 
2 13382 13383 
2 19745 19746 
2 12799 12800 
1 12799 19639 
2 8084 8085 
1 8085 12672 
3 19639 19640 
2 5864 5865 
2 11308 11309 
1 11308 16908 
2 7985 7986 
1 7230 7984 
2 7984 7985 
1 7986 9568 
2 9568 9569 
2 9569 9570 
2 17927 17928 
1 14670 19746 
2 14669 14670 
2 9118 9119 
2 19010 19011 
2 14668 14669 
1 14668 19011 
2 19009 19010 
2 9119 9120 
2 18578 18579 
2 18577 18578 
2 12211 12212 
2 16082 16083 
2 16081 16082 
1 16081 16305 
2 12670 12671 
1 12670 16083 
2 12671 12672 
2 9389 9390 
2 9388 9389 
3 19640 19641 
2 16166 16167 
2 11309 11310 
1 11310 16167 
1 9336 9570 
2 9335 9336 
2 9334 9335 
1 9334 13030 
2 13030 13031 
2 13031 13032 
1 16506 17116 
2 5836 5837 
2 749 750 
2 748 749 
1 748 5836 
2 17116 17117 
2 17117 17118 
2 16504 16505 
2 16505 16506 
2 12212 12213 
2 11717 11718 
2 11716 11717 
1 4485 11718 
2 4484 4485 
2 4483 4484 
1 4483 6858 
2 10516 10517 
1 10516 11716 
2 18625 18626 
2 10517 10518 
1 1491 10518 
2 1490 1491 
2 1489 1490 
1 1489 18172 
2 18172 18173 
2 18173 18174 
3 17161 17162 
1 17161 18174 
1 5973 18199 
3 5972 5973 
2 18199 18200 
2 18200 18201 
3 17162 17163 
3 1399 1400 
1 1399 17014 
2 17014 17015 
2 17015 17016 
3 1400 1401 
2 986 987 
2 18347 18348 
3 1673 1674 
2 11366 11367 
3 1672 1673 
1 1672 11367 
2 11365 11366 
2 1039 1040 
1 1039 11365 
2 15367 15368 
2 1040 1041 
1 1041 8065 
2 8065 8066 
2 8066 8067 
2 6289 6290 
1 6289 15367 
2 6290 6291 
1 15093 17016 
2 15092 15093 
2 15091 15092 
2 18631 18632 
2 10165 10166 
1 10165 18631 
2 985 986 
1 985 9159 
2 9157 9158 
1 9157 16351 
2 9158 9159 
2 16351 16352 
2 16352 16353 
2 21262 21263 
2 16855 16856 
1 16855 21262 
2 16856 16857 
1 8067 16857 
1 3960 12768 
2 3959 3960 
2 3958 3959 
1 3958 6195 
2 6194 6195 
2 6193 6194 
1 6193 8857 
2 9629 9630 
1 9630 12544 
2 12544 12545 
2 18632 18633 
2 4540 4541 
1 4540 14437 
2 4541 4542 
1 4542 18633 
2 12545 12546 
2 10678 10679 
1 10678 12546 
2 10679 10680 
1 1872 10680 
1 312 16353 
2 1871 1872 
3 3653 3654 
2 10136 10137 
2 10135 10136 
3 3652 3653 
2 622 623 
1 622 3652 
2 623 624 
1 624 8062 
2 21263 21264 
2 11594 11595 
2 3848 3849 
2 11593 11594 
1 3849 11593 
2 21475 21476 
2 21476 21477 
2 14437 14438 
2 8857 8858 
2 8858 8859 
1 8859 21475 
1 1725 14439 
2 8507 8508 
2 14438 14439 
2 1724 1725 
2 14935 14936 
2 14273 14274 
2 11840 11841 
2 12898 12899 
1 12898 21477 
2 12899 12900 
2 2899 2900 
1 2899 12900 
1 11841 13537 
2 13537 13538 
2 13538 13539 
1 13539 14274 
2 2900 2901 
2 21251 21252 
1 8505 14322 
2 8504 8505 
2 8503 8504 
1 8503 11595 
2 13145 13146 
2 21250 21251 
2 13144 13145 
1 13144 21250 
2 16411 16412 
1 5502 16411 
1 4932 13146 
2 8506 8507 
2 9572 9573 
2 9571 9572 
2 5501 5502 
1 5499 13281 
2 1723 1724 
1 1723 13279 
2 13279 13280 
2 13280 13281 
2 5497 5498 
2 13381 13382 
1 13381 20263 
2 5498 5499 
2 20263 20264 
2 20264 20265 
3 10795 10796 
1 10797 12801 
3 10796 10797 
2 12800 12801 
3 21158 21159 
1 786 21159 
2 4930 4931 
1 4930 21157 
3 21157 21158 
2 4931 4932 
1 4716 6471 
2 4715 4716 
1 5865 6469 
2 6469 6470 
2 6470 6471 
2 5500 5501 
2 3391 3392 
1 3391 5500 
2 3392 3393 
2 3229 3230 
1 3229 3393 
2 10798 10799 
1 2568 10798 
2 14467 14468 
2 2566 2567 
1 2566 9120 
2 18574 18575 
2 18575 18576 
2 3230 3231 
1 3231 18574 
2 2567 2568 
1 891 14467 
2 890 891 
2 3448 3449 
1 3448 18576 
3 14356 14357 
3 14357 14358 
1 8448 14358 
3 8447 8448 
1 3549 19641 
2 3548 3549 
2 3169 3170 
1 3169 3547 
2 3547 3548 
2 3170 3171 
1 3171 13666 
2 13666 13667 
2 4565 4566 
2 4564 4565 
2 21307 21308 
2 21308 21309 
2 10799 10800 
1 9456 21408 
2 9455 9456 
2 9454 9455 
2 889 890 
1 889 17118 
2 13003 13004 
2 13004 13005 
2 1213 1214 
1 1213 13005 
2 1444 1445 
1 1444 13032 
3 8446 8447 
3 4156 4157 
1 4156 8446 
3 6856 6857 
1 996 6856 
3 6857 6858 
3 995 996 
3 994 995 
1 994 9601 
2 2125 2126 
1 2125 3675 
2 3674 3675 
2 2126 2127 
2 14429 14430 
1 2127 14428 
2 14428 14429 
2 5708 5709 
2 7972 7973 
2 7973 7974 
2 21407 21408 
2 21406 21407 
2 1445 1446 
1 1446 19077 
2 19076 19077 
1 570 17163 
3 568 569 
1 568 21055 
3 569 570 
2 21055 21056 
3 9601 9602 
1 9603 15925 
3 9602 9603 
3 15925 15926 
3 15926 15927 
3 11447 11448 
1 11448 15927 
2 5707 5708 
1 5707 11446 
3 11446 11447 
1 7974 12703 
2 12703 12704 
2 12704 12705 
3 7991 7992 
3 7990 7991 
2 2920 2921 
1 2920 7990 
2 2921 2922 
1 2922 20352 
2 4690 4691 
2 4691 4692 
3 5971 5972 
3 20351 20352 
1 4692 5971 
3 1202 1203 
1 1203 20082 
2 20081 20082 
2 20080 20081 
2 5141 5142 
2 5140 5141 
1 5142 12766 
2 12766 12767 
2 12767 12768 
2 10166 10167 
3 1201 1202 
1 1201 10167 
2 6205 6206 
2 5147 5148 
2 5146 5147 
1 5146 5605 
2 5605 5606 
2 11176 11177 
2 326 327 
1 327 11176 
2 11177 11178 
2 325 326 
1 325 2017 
2 6206 6207 
1 6207 14301 
2 14300 14301 
1 1530 14299 
2 14299 14300 
2 5606 5607 
2 311 312 
2 310 311 
2 17696 17697 
2 1856 1857 
2 17695 17696 
2 1855 1856 
1 1855 17695 
2 4891 4892 
1 4891 21252 
2 4892 4893 
2 3847 3848 
1 3847 11178 
2 1529 1530 
2 10316 10317 
2 10315 10316 
2 1528 1529 
1 1528 14890 
2 14890 14891 
2 14891 14892 
1 3411 14892 
1 8946 10315 
2 14936 14937 
1 6972 14937 
2 6971 6972 
2 6970 6971 
1 6970 21394 
2 21104 21105 
2 21103 21104 
2 16412 16413 
1 1065 10792 
2 10792 10793 
2 1064 1065 
2 1063 1064 
1 1063 16845 
2 3410 3411 
2 2119 2120 
2 2120 2121 
1 2121 16578 
2 8945 8946 
2 8944 8945 
1 8944 20574 
2 21394 21395 
2 3409 3410 
1 3409 18045 
1 378 16789 
2 16790 16791 
2 16789 16790 
2 21395 21396 
2 18044 18045 
2 16828 16829 
1 16828 21396 
3 9406 9407 
2 634 635 
1 634 9406 
3 9407 9408 
2 635 636 
2 9784 9785 
1 9784 17793 
2 17792 17793 
2 17791 17792 
1 17791 21105 
2 9785 9786 
2 10793 10794 
2 4714 4715 
1 4714 10794 
2 17648 17649 
2 10463 10464 
2 10462 10463 
2 21167 21168 
2 21166 21167 
2 10957 10958 
1 10957 21166 
2 16577 16578 
2 6407 6408 
2 18043 18044 
1 5172 18043 
2 5170 5171 
1 5170 6408 
2 377 378 
2 10958 10959 
2 5171 5172 
1 10959 20052 
2 20051 20052 
2 20050 20051 
2 3049 3050 
1 3049 20050 
2 15427 15428 
2 376 377 
1 376 15427 
3 784 785 
3 785 786 
3 12565 12566 
1 12565 16896 
2 16895 16896 
2 17647 17648 
2 16894 16895 
1 16894 17647 
2 18338 18339 
1 18339 19428 
2 18337 18338 
2 13667 13668 
2 11251 11252 
1 11251 13668 
1 6468 10464 
2 11252 11253 
1 10800 13809 
1 11253 12451 
2 12451 12452 
2 13808 13809 
2 13807 13808 
2 10771 10772 
1 10771 13807 
2 12452 12453 
2 6467 6468 
2 3050 3051 
1 369 1215 
2 1214 1215 
2 367 368 
1 367 14730 
2 368 369 
2 14729 14730 
3 10493 10494 
1 4158 10494 
3 10492 10493 
1 10492 16659 
3 4157 4158 
3 12566 12567 
1 4317 12567 
3 4316 4317 
3 4315 4316 
1 4315 13563 
1 8355 12943 
3 12943 12944 
2 3673 3674 
2 19427 19428 
2 19426 19427 
3 2519 2520 
1 2520 19426 
3 2518 2519 
1 2518 6040 
3 6040 6041 
3 5206 5207 
1 5208 5709 
3 5207 5208 
2 13735 13736 
2 21056 21057 
2 13736 13737 
1 1284 13737 
3 1283 1284 
3 1282 1283 
1 1282 17496 
3 13562 13563 
3 13561 13562 
3 20350 20351 
1 10551 20350 
3 10550 10551 
3 6041 6042 
3 10549 10550 
1 6042 10549 
3 14881 14882 
3 14882 14883 
2 10310 10311 
2 10309 10310 
1 4380 10309 
3 16118 16119 
2 257 258 
2 256 257 
1 256 14883 
3 16117 16118 
2 3854 3855 
2 3853 3854 
1 3853 20149 
2 20149 20150 
2 20150 20151 
2 4379 4380 
2 4378 4379 
2 2017 2018 
2 2018 2019 
1 2019 20868 
2 20867 20868 
2 13744 13745 
1 4083 13744 
2 1541 1542 
2 9646 9647 
1 9646 16119 
2 9647 9648 
2 1540 1541 
1 1540 9648 
2 4081 4082 
2 4082 4083 
1 4584 20151 
2 5891 5892 
2 4583 4584 
2 20866 20867 
2 5890 5891 
1 5890 11683 
2 11683 11684 
1 9099 17073 
2 17072 17073 
2 17071 17072 
2 4582 4583 
1 4582 17071 
2 13745 13746 
2 9098 9099 
1 11685 13746 
2 11684 11685 
2 7393 7394 
1 7393 20866 
2 7394 7395 
1 7395 17182 
2 17182 17183 
2 17183 17184 
1 5382 17184 
3 13060 13061 
3 13061 13062 
1 2601 2827 
2 2827 2828 
2 2600 2601 
2 2828 2829 
1 2829 13062 
2 16843 16844 
1 5892 16843 
2 16844 16845 
2 17671 17672 
1 17671 19212 
2 20573 20574 
2 18716 18717 
2 20572 20573 
2 18715 18716 
2 17672 17673 
2 9097 9098 
1 9097 17155 
2 17155 17156 
2 17156 17157 
1 5379 17157 
2 5378 5379 
2 5377 5378 
1 5377 14854 
1 11040 14463 
2 14462 14463 
2 9254 9255 
1 1830 2599 
2 2599 2600 
2 1829 1830 
2 5722 5723 
2 1828 1829 
1 1828 5722 
2 19003 19004 
2 12400 12401 
1 12400 19003 
2 12401 12402 
2 9253 9254 
1 9253 12402 
2 5723 5724 
2 19004 19005 
2 16576 16577 
1 5724 16576 
2 15962 15963 
2 15961 15962 
2 6406 6407 
1 6406 15961 
1 15963 16710 
1 14856 16338 
2 14570 14571 
2 14854 14855 
2 14569 14570 
2 14855 14856 
2 13148 13149 
2 13147 13148 
2 9541 9542 
1 9541 14571 
2 6466 6467 
2 5245 5246 
1 5245 6466 
2 5246 5247 
2 10772 10773 
1 10773 10933 
2 10933 10934 
2 10934 10935 
2 9542 9543 
2 14728 14729 
1 3816 14728 
1 3051 10110 
2 10109 10110 
2 10108 10109 
1 10108 11712 
3 8659 8660 
3 8660 8661 
3 8353 8354 
3 2180 2181 
3 2179 2180 
1 2179 8661 
1 2181 8353 
3 16657 16658 
3 10312 10313 
1 10312 16657 
3 16658 16659 
3 8354 8355 
3 12944 12945 
1 8976 12945 
3 10313 10314 
1 10314 17304 
3 17303 17304 
3 8975 8976 
3 17302 17303 
3 10993 10994 
1 10993 17302 
3 8974 8975 
1 8974 9874 
3 10994 10995 
2 17495 17496 
2 17494 17495 
2 3781 3782 
1 3781 10935 
2 3782 3783 
3 6769 6770 
3 9875 9876 
3 6770 6771 
3 9874 9875 
3 10430 10431 
3 10429 10430 
1 10429 16467 
3 16466 16467 
3 16465 16466 
3 11375 11376 
1 3855 11376 
3 11374 11375 
1 285 19920 
2 19918 19919 
2 19919 19920 
2 17944 17945 
2 17945 17946 
2 11038 11039 
1 11038 17946 
2 284 285 
2 283 284 
1 283 16684 
2 16684 16685 
2 16685 16686 
2 12989 12990 
2 4256 4257 
2 17833 17834 
2 12988 12989 
1 12988 17833 
2 17834 17835 
2 8179 8180 
2 4255 4256 
1 4255 17835 
2 8180 8181 
1 12990 19564 
2 19564 19565 
2 11039 11040 
2 19565 19566 
1 6864 13129 
2 6863 6864 
2 19211 19212 
2 19210 19211 
1 582 19210 
2 580 581 
1 580 19005 
2 581 582 
2 16709 16710 
1 8181 16708 
2 16708 16709 
2 4219 4220 
1 17313 19566 
2 17312 17313 
2 17311 17312 
2 2425 2426 
1 2425 17311 
2 11432 11433 
1 8442 13149 
1 4221 9543 
2 8441 8442 
2 4220 4221 
2 8440 8441 
2 2426 2427 
2 11710 11711 
2 11711 11712 
1 2427 7435 
2 11431 11432 
1 11431 11710 
2 11681 11682 
2 11680 11681 
2 2653 2654 
1 2653 11680 
2 2654 2655 
1 11433 16866 
1 9720 10995 
2 40 41 
1 40 3783 
2 41 42 
1 6927 10431 
3 6925 6926 
1 6925 9718 
2 9718 9719 
2 9719 9720 
3 6926 6927 
1 4257 5166 
2 5165 5166 
2 5164 5165 
3 7435 7436 
3 7436 7437 
3 18031 18032 
3 18032 18033 
3 12673 12674 
1 12673 17598 
2 17597 17598 
2 17596 17597 
1 17596 17628 
2 13298 13299 
2 13297 13298 
1 13297 18033 
3 12674 12675 
2 5236 5237 
2 21037 21038 
2 18812 18813 
1 5361 18813 
2 5360 5361 
2 18811 18812 
3 20446 20447 
3 20447 20448 
2 2414 2415 
2 13912 13913 
1 3414 13912 
2 13913 13914 
2 2413 2414 
1 2413 11580 
1 7575 15210 
2 11578 11579 
1 11578 13914 
2 11579 11580 
2 15209 15210 
2 15208 15209 
2 6994 6995 
1 6994 20448 
2 6995 6996 
2 5017 5018 
1 5017 6996 
2 5018 5019 
1 5019 12502 
2 12502 12503 
2 11908 11909 
2 719 720 
1 720 19284 
2 718 719 
2 16904 16905 
2 3412 3413 
1 3412 16905 
2 3413 3414 
2 16903 16904 
2 8305 8306 
1 8305 16903 
2 11909 11910 
1 11910 14793 
2 2368 2369 
2 2369 2370 
1 8307 16324 
2 8306 8307 
2 18707 18708 
1 2370 18708 
1 1047 2368 
2 12503 12504 
2 16324 16325 
1 3837 16326 
3 3835 3836 
1 3835 12504 
3 3836 3837 
2 16325 16326 
2 19903 19904 
2 5237 5238 
1 7299 10521 
2 7298 7299 
2 7297 7298 
1 7297 19903 
2 10520 10521 
2 5359 5360 
1 5359 18100 
2 10519 10520 
2 1870 1871 
1 1870 10519 
3 10003 10004 
2 13139 13140 
2 2480 2481 
2 2479 2480 
1 2479 13140 
2 18100 18101 
1 2481 18640 
2 18640 18641 
2 13138 13139 
1 13138 13527 
2 18101 18102 
2 4051 4052 
1 4051 18102 
2 4052 4053 
2 18844 18845 
2 18845 18846 
2 14719 14720 
2 7574 7575 
2 13778 13779 
2 13777 13778 
2 19744 19745 
1 4356 7573 
1 19275 19744 
2 4355 4356 
2 19273 19274 
2 19274 19275 
2 7573 7574 
2 19283 19284 
1 13779 19282 
2 19282 19283 
2 14600 14601 
2 14792 14793 
2 14791 14792 
1 14791 16558 
2 16558 16559 
2 16559 16560 
2 11398 11399 
2 11399 11400 
2 17926 17927 
2 18233 18234 
2 18706 18707 
2 8893 8894 
1 8893 18706 
2 8894 8895 
1 8895 18232 
2 18232 18233 
2 19414 19415 
1 1128 19414 
2 1126 1127 
1 1126 5838 
2 1127 1128 
2 5837 5838 
2 19415 19416 
2 14212 14213 
2 19904 19905 
1 16902 19905 
2 9319 9320 
2 7024 7025 
1 7024 9319 
2 9320 9321 
1 9321 11697 
2 16901 16902 
2 11696 11697 
2 16900 16901 
2 7025 7026 
1 7026 18846 
3 10004 10005 
2 11089 11090 
2 11090 11091 
1 2901 11089 
2 3916 3917 
1 3916 11091 
2 3917 3918 
2 2737 2738 
1 14721 18844 
2 21382 21383 
2 3115 3116 
1 3115 21382 
2 21383 21384 
2 14720 14721 
2 18641 18642 
1 18642 20190 
2 20189 20190 
2 14999 15000 
2 14998 14999 
1 14998 21268 
2 21268 21269 
2 638 639 
1 639 2737 
2 19924 19925 
2 637 638 
1 637 19924 
2 19925 19926 
2 20188 20189 
2 82 83 
1 82 20188 
1 15000 20265 
2 14599 14600 
2 20875 20876 
2 20876 20877 
2 9862 9863 
1 9862 11398 
2 14468 14469 
2 9863 9864 
1 3450 9864 
2 3449 3450 
2 8174 8175 
2 8173 8174 
2 14213 14214 
1 4200 19926 
2 83 84 
2 4199 4200 
2 4198 4199 
1 4198 10926 
2 10925 10926 
1 1527 12460 
3 1526 1527 
3 1525 1526 
2 17158 17159 
2 1720 1721 
2 1721 1722 
1 1722 17160 
2 17159 17160 
2 845 846 
1 846 19029 
2 844 845 
1 8898 14214 
2 8896 8897 
2 8897 8898 
3 12461 12462 
3 12460 12461 
2 19075 19076 
2 19028 19029 
2 19027 19028 
1 19027 19075 
3 19666 19667 
3 730 731 
1 730 19666 
3 19667 19668 
3 731 732 
2 11695 11696 
1 1857 11695 
2 21025 21026 
1 2739 21025 
2 21026 21027 
2 760 761 
1 760 21027 
2 2738 2739 
2 16718 16719 
2 5779 5780 
1 5779 16717 
2 5780 5781 
2 14272 14273 
2 16717 16718 
2 5896 5897 
2 5897 5898 
2 16679 16680 
2 3116 3117 
2 20479 20480 
2 20480 20481 
2 19154 19155 
1 19155 20481 
2 21269 21270 
1 1326 14568 
2 1325 1326 
2 5489 5490 
2 1324 1325 
1 1324 11497 
2 11497 11498 
2 5488 5489 
2 11498 11499 
1 9141 19153 
2 9140 9141 
2 9139 9140 
1 9139 16678 
2 16678 16679 
2 19153 19154 
2 21455 21456 
2 21454 21455 
2 10924 10925 
1 10924 21454 
2 12715 12716 
1 12715 21270 
2 12716 12717 
2 12407 12408 
2 12406 12407 
1 12406 18378 
1 13170 14469 
2 15428 15429 
1 12717 15919 
2 15919 15920 
2 15920 15921 
1 15921 18562 
2 18562 18563 
2 18563 18564 
2 7111 7112 
1 7111 13168 
2 13169 13170 
2 13168 13169 
2 18377 18378 
2 18376 18377 
3 7576 7577 
1 7576 18564 
3 7577 7578 
1 7578 12462 
1 12237 21057 
2 12235 12236 
2 12236 12237 
2 12733 12734 
1 12733 19668 
2 12734 12735 
2 15544 15545 
2 15545 15546 
1 15546 16719 
2 4610 4611 
2 14566 14567 
2 761 762 
1 5781 14566 
2 14567 14568 
2 19213 19214 
2 5381 5382 
1 762 4609 
2 4609 4610 
2 11561 11562 
1 4611 11560 
2 11560 11561 
2 21220 21221 
2 21221 21222 
2 19214 19215 
2 7651 7652 
1 7651 19215 
1 16830 21121 
2 16829 16830 
2 14461 14462 
2 10481 10482 
2 21122 21123 
1 10482 14461 
2 10624 10625 
2 21121 21122 
2 6862 6863 
1 6862 21123 
1 14127 21220 
2 10625 10626 
1 10626 20062 
2 20062 20063 
2 20063 20064 
2 7652 7653 
1 7653 10200 
2 14126 14127 
2 15455 15456 
2 15454 15455 
2 14125 14126 
1 14125 15454 
2 8452 8453 
1 8452 15429 
2 8453 8454 
1 8454 17290 
2 17290 17291 
2 17291 17292 
2 3815 3816 
2 7112 7113 
2 976 977 
1 976 7113 
2 977 978 
1 978 6591 
2 19169 19170 
2 3814 3815 
1 3814 14766 
2 19168 19169 
2 8095 8096 
2 8096 8097 
2 5380 5381 
1 5380 8097 
2 10480 10481 
2 13129 13130 
2 13130 13131 
2 7655 7656 
3 10199 10200 
3 10198 10199 
2 7654 7655 
1 7654 9658 
3 9659 9660 
3 9658 9659 
2 21374 21375 
2 6590 6591 
2 6589 6590 
2 16336 16337 
1 16336 21373 
2 16337 16338 
2 21373 21374 
2 11225 11226 
2 11224 11225 
1 11224 17292 
3 7210 7211 
1 7210 11226 
3 7211 7212 
2 14765 14766 
2 14764 14765 
1 9660 13998 
2 13997 13998 
2 13996 13997 
3 16865 16866 
3 16864 16865 
