ITEM: TIMESTEP
0
ITEM: NUMBER OF ATOMS
1992
ITEM: BOX BOUNDS pp pp pp
0.0000000000000000e+00 5.0000000000000000e+01
0.0000000000000000e+00 5.0000000000000000e+01
0.0000000000000000e+00 5.0000000000000000e+01
ITEM: ATOMS id type 
133 1 
134 3 
135 1 
187 1 
188 2 
189 1 
322 1 
323 2 
324 1 
382 1 
383 2 
384 1 
427 1 
428 3 
429 1 
502 1 
503 2 
504 1 
1264 1 
1265 3 
1266 1 
1279 1 
1280 2 
1281 1 
1285 1 
1286 2 
1287 1 
1408 1 
1409 3 
1410 1 
1459 1 
1460 2 
1461 1 
1465 1 
1466 2 
1467 1 
1516 1 
1517 2 
1518 1 
2227 1 
2228 2 
2229 1 
2302 1 
2303 2 
2304 1 
2488 1 
2489 2 
2490 1 
2602 1 
2603 2 
2604 1 
3187 1 
3188 3 
3189 1 
3190 1 
3191 2 
3192 1 
3196 1 
3197 2 
3198 1 
3250 1 
3251 2 
3252 1 
3265 1 
3266 2 
3267 1 
3496 1 
3497 2 
3498 1 
3610 1 
3611 2 
3612 1 
3685 1 
3686 3 
3687 1 
3721 1 
3722 2 
3723 1 
3733 1 
3734 3 
3735 1 
3736 1 
3737 2 
3738 1 
4321 1 
4322 3 
4323 1 
4396 1 
4397 3 
4398 1 
4399 1 
4400 2 
4401 1 
4510 1 
4511 2 
4512 1 
4567 1 
4568 2 
4569 1 
4687 1 
4688 2 
4689 1 
4759 1 
4760 3 
4761 1 
5581 1 
5582 2 
5583 1 
5587 1 
5588 2 
5589 1 
5608 1 
5609 2 
5610 1 
5782 1 
5783 2 
5784 1 
5788 1 
5789 3 
5790 1 
5827 1 
5828 2 
5829 1 
5908 1 
5909 2 
5910 1 
6847 1 
6848 3 
6849 1 
6853 1 
6854 2 
6855 1 
6922 1 
6923 3 
6924 1 
6976 1 
6977 3 
6978 1 
7033 1 
7034 3 
7035 1 
7102 1 
7103 2 
7104 1 
7168 1 
7169 3 
7170 1 
7759 1 
7760 2 
7761 1 
7819 1 
7820 2 
7821 1 
7933 1 
7934 2 
7935 1 
7945 1 
7946 2 
7947 1 
7993 1 
7994 2 
7995 1 
8005 1 
8006 2 
8007 1 
8161 1 
8162 2 
8163 1 
8239 1 
8240 2 
8241 1 
8242 1 
8243 2 
8244 1 
8308 1 
8309 2 
8310 1 
9001 1 
9002 3 
9003 1 
9010 1 
9011 2 
9012 1 
9088 1 
9089 2 
9090 1 
9181 1 
9182 2 
9183 1 
9268 1 
9269 2 
9270 1 
9325 1 
9326 2 
9327 1 
9967 1 
9968 2 
9969 1 
10027 1 
10028 3 
10029 1 
10045 1 
10046 3 
10047 1 
10048 1 
10049 2 
10050 1 
10084 1 
10085 2 
10086 1 
10087 1 
10088 3 
10089 1 
10162 1 
10163 3 
10164 1 
10201 1 
10202 2 
10203 1 
10267 1 
10268 2 
10269 1 
10282 1 
10283 2 
10284 1 
10288 1 
10289 3 
10290 1 
10345 1 
10346 2 
10347 1 
10408 1 
10409 3 
10410 1 
10447 1 
10448 2 
10449 1 
10450 1 
10451 2 
10452 1 
10513 1 
10514 2 
10515 1 
10522 1 
10523 3 
10524 1 
10525 1 
10526 3 
10527 1 
11104 1 
11105 2 
11106 1 
11161 1 
11162 3 
11163 1 
11227 1 
11228 2 
11229 1 
11239 1 
11240 3 
11241 1 
11287 1 
11288 2 
11289 1 
11296 1 
11297 2 
11298 1 
11299 1 
11300 3 
11301 1 
11305 1 
11306 2 
11307 1 
11464 1 
11465 2 
11466 1 
12136 1 
12137 2 
12138 1 
12187 1 
12188 2 
12189 1 
12256 1 
12257 2 
12258 1 
12322 1 
12323 2 
12324 1 
12376 1 
12377 2 
12378 1 
12379 1 
12380 2 
12381 1 
12388 1 
12389 2 
12390 1 
12481 1 
12482 3 
12483 1 
12508 1 
12509 2 
12510 1 
13228 1 
13229 2 
13230 1 
13273 1 
13274 2 
13275 1 
13348 1 
13349 2 
13350 1 
13390 1 
13391 2 
13392 1 
13396 1 
13397 2 
13398 1 
13447 1 
13448 2 
13449 1 
13459 1 
13460 3 
13461 1 
13504 1 
13505 2 
13506 1 
13573 1 
13574 2 
13575 1 
13582 1 
13583 2 
13584 1 
13585 1 
13586 2 
13587 1 
14347 1 
14348 3 
14349 1 
14482 1 
14483 3 
14484 1 
14656 1 
14657 2 
14658 1 
15322 1 
15323 2 
15324 1 
15421 1 
15422 3 
15423 1 
15487 1 
15488 2 
15489 1 
15493 1 
15494 2 
15495 1 
15682 1 
15683 2 
15684 1 
15727 1 
15728 2 
15729 1 
16339 1 
16340 2 
16341 1 
16342 1 
16343 2 
16344 1 
16402 1 
16403 3 
16404 1 
16450 1 
16451 2 
16452 1 
16456 1 
16457 3 
16458 1 
16639 1 
16640 2 
16641 1 
16645 1 
16646 2 
16647 1 
16693 1 
16694 2 
16695 1 
17344 1 
17345 2 
17346 1 
17401 1 
17402 3 
17403 1 
17407 1 
17408 2 
17409 1 
17464 1 
17465 3 
17466 1 
17581 1 
17582 2 
17583 1 
18424 1 
18425 3 
18426 1 
18661 1 
18662 2 
18663 1 
18721 1 
18722 2 
18723 1 
18724 1 
18725 2 
18726 1 
18781 1 
18782 2 
18783 1 
18784 1 
18785 2 
18786 1 
18787 1 
18788 2 
18789 1 
18790 1 
18791 2 
18792 1 
18793 1 
18794 2 
18795 1 
18850 1 
18851 2 
18852 1 
18868 1 
18869 2 
18870 1 
19468 1 
19469 2 
19470 1 
19504 1 
19505 3 
19506 1 
19522 1 
19523 2 
19524 1 
19585 1 
19586 2 
19587 1 
19699 1 
19700 2 
19701 1 
19702 1 
19703 3 
19704 1 
19816 1 
19817 3 
19818 1 
20548 1 
20549 3 
20550 1 
20596 1 
20597 3 
20598 1 
20653 1 
20654 2 
20655 1 
20776 1 
20777 2 
20778 1 
20821 1 
20822 2 
20823 1 
20827 1 
20828 2 
20829 1 
20905 1 
20906 2 
20907 1 
20947 1 
20948 2 
20949 1 
112 1 
113 3 
114 1 
115 1 
116 2 
117 1 
157 1 
158 2 
159 1 
274 1 
275 3 
276 1 
289 1 
290 3 
291 1 
340 1 
341 2 
342 1 
403 1 
404 3 
405 1 
1198 1 
1199 2 
1200 1 
1309 1 
1310 3 
1311 1 
1315 1 
1316 2 
1317 1 
1357 1 
1358 2 
1359 1 
1363 1 
1364 2 
1365 1 
1411 1 
1412 2 
1413 1 
1492 1 
1493 2 
1494 1 
1543 1 
1544 2 
1545 1 
1552 1 
1553 3 
1554 1 
1594 1 
1595 2 
1596 1 
1603 1 
1604 3 
1605 1 
2257 1 
2258 2 
2259 1 
2452 1 
2453 2 
2454 1 
2458 1 
2459 2 
2460 1 
2491 1 
2492 2 
2493 1 
2494 1 
2495 3 
2496 1 
2500 1 
2501 3 
2502 1 
2512 1 
2513 3 
2514 1 
2560 1 
2561 2 
2562 1 
2626 1 
2627 2 
2628 1 
2638 1 
2639 2 
2640 1 
3220 1 
3221 3 
3222 1 
3283 1 
3284 2 
3285 1 
3292 1 
3293 3 
3294 1 
3340 1 
3341 2 
3342 1 
3523 1 
3524 3 
3525 1 
3637 1 
3638 2 
3639 1 
3715 1 
3716 2 
3717 1 
3769 1 
3770 2 
3771 1 
4420 1 
4421 2 
4422 1 
4474 1 
4475 2 
4476 1 
4603 1 
4604 2 
4605 1 
4651 1 
4652 3 
4653 1 
4726 1 
4727 2 
4728 1 
4903 1 
4904 2 
4905 1 
4915 1 
4916 2 
4917 1 
5503 1 
5504 3 
5505 1 
5569 1 
5570 2 
5571 1 
5614 1 
5615 2 
5616 1 
5623 1 
5624 2 
5625 1 
5629 1 
5630 3 
5631 1 
5746 1 
5747 2 
5748 1 
5809 1 
5810 2 
5811 1 
5851 1 
5852 2 
5853 1 
5872 1 
5873 2 
5874 1 
5926 1 
5927 3 
5928 1 
5938 1 
5939 2 
5940 1 
6817 1 
6818 2 
6819 1 
6820 1 
6821 2 
6822 1 
6823 1 
6824 3 
6825 1 
6892 1 
6893 2 
6894 1 
6934 1 
6935 3 
6936 1 
6997 1 
6998 3 
6999 1 
7000 1 
7001 2 
7002 1 
7174 1 
7175 2 
7176 1 
7180 1 
7181 2 
7182 1 
7237 1 
7238 2 
7239 1 
7249 1 
7250 2 
7251 1 
7831 1 
7832 2 
7833 1 
7969 1 
7970 3 
7971 1 
8023 1 
8024 2 
8025 1 
8077 1 
8078 3 
8079 1 
8140 1 
8141 3 
8142 1 
8143 1 
8144 2 
8145 1 
9091 1 
9092 2 
9093 1 
9100 1 
9101 3 
9102 1 
9169 1 
9170 3 
9171 1 
9172 1 
9173 3 
9174 1 
9226 1 
9227 3 
9228 1 
9343 1 
9344 2 
9345 1 
9991 1 
9992 2 
9993 1 
10060 1 
10061 2 
10062 1 
10111 1 
10112 2 
10113 1 
10249 1 
10250 2 
10251 1 
10318 1 
10319 2 
10320 1 
10426 1 
10427 2 
10428 1 
10495 1 
10496 2 
10497 1 
11143 1 
11144 2 
11145 1 
11152 1 
11153 3 
11154 1 
11200 1 
11201 3 
11202 1 
11218 1 
11219 2 
11220 1 
11317 1 
11318 2 
11319 1 
11326 1 
11327 2 
11328 1 
11389 1 
11390 2 
11391 1 
11500 1 
11501 2 
11502 1 
11518 1 
11519 2 
11520 1 
12163 1 
12164 2 
12165 1 
12178 1 
12179 2 
12180 1 
12286 1 
12287 3 
12288 1 
12295 1 
12296 2 
12297 1 
12397 1 
12398 2 
12399 1 
12409 1 
12410 2 
12411 1 
12412 1 
12413 3 
12414 1 
12457 1 
12458 2 
12459 1 
12580 1 
12581 2 
12582 1 
12634 1 
12635 3 
12636 1 
12652 1 
12653 3 
12654 1 
13294 1 
13295 2 
13296 1 
13309 1 
13310 2 
13311 1 
13318 1 
13319 2 
13320 1 
13360 1 
13361 2 
13362 1 
13429 1 
13430 2 
13431 1 
13477 1 
13478 2 
13479 1 
13540 1 
13541 2 
13542 1 
13594 1 
13595 2 
13596 1 
14269 1 
14270 2 
14271 1 
14338 1 
14339 2 
14340 1 
14389 1 
14390 2 
14391 1 
14491 1 
14492 2 
14493 1 
14506 1 
14507 3 
14508 1 
14515 1 
14516 2 
14517 1 
14518 1 
14519 2 
14520 1 
14563 1 
14564 2 
14565 1 
14614 1 
14615 2 
14616 1 
14623 1 
14624 2 
14625 1 
15340 1 
15341 2 
15342 1 
15397 1 
15398 2 
15399 1 
15535 1 
15536 3 
15537 1 
15640 1 
15641 2 
15642 1 
15700 1 
15701 3 
15702 1 
15760 1 
15761 2 
15762 1 
16366 1 
16367 2 
16368 1 
16369 1 
16370 2 
16371 1 
16474 1 
16475 2 
16476 1 
16483 1 
16484 2 
16485 1 
16492 1 
16493 2 
16494 1 
16603 1 
16604 2 
16605 1 
16714 1 
16715 2 
16716 1 
16720 1 
16721 2 
16722 1 
17338 1 
17339 2 
17340 1 
17380 1 
17381 2 
17382 1 
17431 1 
17432 2 
17433 1 
17458 1 
17459 2 
17460 1 
17497 1 
17498 3 
17499 1 
17614 1 
17615 2 
17616 1 
17737 1 
17738 2 
17739 1 
18463 1 
18464 2 
18465 1 
18814 1 
18815 2 
18816 1 
19471 1 
19472 2 
19473 1 
19483 1 
19484 2 
19485 1 
19546 1 
19547 3 
19548 1 
19600 1 
19601 2 
19602 1 
19660 1 
19661 2 
19662 1 
19711 1 
19712 2 
19713 1 
19789 1 
19790 2 
19791 1 
19795 1 
19796 2 
19797 1 
20617 1 
20618 2 
20619 1 
20677 1 
20678 2 
20679 1 
20752 1 
20753 3 
20754 1 
20806 1 
20807 2 
20808 1 
20809 1 
20810 2 
20811 1 
20869 1 
20870 2 
20871 1 
20878 1 
20879 2 
20880 1 
20926 1 
20927 2 
20928 1 
20938 1 
20939 2 
20940 1 
21043 1 
21044 2 
21045 1 
553 1 
554 2 
555 1 
796 1 
797 3 
798 1 
859 1 
860 2 
861 1 
913 1 
914 2 
915 1 
1027 1 
1028 2 
1029 1 
1081 1 
1082 3 
1083 1 
1702 1 
1703 3 
1704 1 
1939 1 
1940 2 
1941 1 
2008 1 
2009 3 
2010 1 
2167 1 
2168 2 
2169 1 
2665 1 
2666 3 
2667 1 
2773 1 
2774 3 
2775 1 
2890 1 
2891 3 
2892 1 
3001 1 
3002 2 
3003 1 
3802 1 
3803 2 
3804 1 
3922 1 
3923 2 
3924 1 
3976 1 
3977 3 
3978 1 
4108 1 
4109 2 
4110 1 
4204 1 
4205 2 
4206 1 
4285 1 
4286 3 
4287 1 
5005 1 
5006 2 
5007 1 
5116 1 
5117 2 
5118 1 
5173 1 
5174 2 
5175 1 
5347 1 
5348 2 
5349 1 
5356 1 
5357 2 
5358 1 
6181 1 
6182 2 
6183 1 
6250 1 
6251 2 
6252 1 
6304 1 
6305 3 
6306 1 
6313 1 
6314 2 
6315 1 
6439 1 
6440 2 
6441 1 
6487 1 
6488 3 
6489 1 
6604 1 
6605 2 
6606 1 
6616 1 
6617 2 
6618 1 
7399 1 
7400 2 
7401 1 
7504 1 
7505 2 
7506 1 
7564 1 
7565 2 
7566 1 
7630 1 
7631 2 
7632 1 
7702 1 
7703 2 
7704 1 
8359 1 
8360 2 
8361 1 
8365 1 
8366 2 
8367 1 
8407 1 
8408 2 
8409 1 
8473 1 
8474 2 
8475 1 
8485 1 
8486 3 
8487 1 
8524 1 
8525 2 
8526 1 
8602 1 
8603 3 
8604 1 
8647 1 
8648 2 
8649 1 
8710 1 
8711 3 
8712 1 
8761 1 
8762 2 
8763 1 
8779 1 
8780 2 
8781 1 
8788 1 
8789 3 
8790 1 
8848 1 
8849 2 
8850 1 
9610 1 
9611 2 
9612 1 
9625 1 
9626 2 
9627 1 
9670 1 
9671 2 
9672 1 
9721 1 
9722 3 
9723 1 
9730 1 
9731 2 
9732 1 
9739 1 
9740 3 
9741 1 
9745 1 
9746 2 
9747 1 
9787 1 
9788 2 
9789 1 
9901 1 
9902 2 
9903 1 
10642 1 
10643 2 
10644 1 
10648 1 
10649 3 
10650 1 
10705 1 
10706 2 
10707 1 
10708 1 
10709 2 
10710 1 
10768 1 
10769 3 
10770 1 
10864 1 
10865 2 
10866 1 
10927 1 
10928 3 
10929 1 
10939 1 
10940 2 
10941 1 
10942 1 
10943 2 
10944 1 
10984 1 
10985 2 
10986 1 
11044 1 
11045 3 
11046 1 
11047 1 
11048 3 
11049 1 
11707 1 
11708 2 
11709 1 
11782 1 
11783 3 
11784 1 
11785 1 
11786 3 
11787 1 
11884 1 
11885 2 
11886 1 
11899 1 
11900 2 
11901 1 
12019 1 
12020 2 
12021 1 
12748 1 
12749 2 
12750 1 
12844 1 
12845 2 
12846 1 
12847 1 
12848 3 
12849 1 
12961 1 
12962 2 
12963 1 
13024 1 
13025 2 
13026 1 
13648 1 
13649 3 
13650 1 
13705 1 
13706 2 
13707 1 
13753 1 
13754 3 
13755 1 
13876 1 
13877 2 
13878 1 
13882 1 
13883 2 
13884 1 
13924 1 
13925 3 
13926 1 
13933 1 
13934 2 
13935 1 
13948 1 
13949 3 
13950 1 
14041 1 
14042 2 
14043 1 
14053 1 
14054 2 
14055 1 
14062 1 
14063 2 
14064 1 
14065 1 
14066 2 
14067 1 
14167 1 
14168 2 
14169 1 
14170 1 
14171 2 
14172 1 
14884 1 
14885 2 
14886 1 
14896 1 
14897 2 
14898 1 
14950 1 
14951 2 
14952 1 
14959 1 
14960 3 
14961 1 
15082 1 
15083 3 
15084 1 
15085 1 
15086 2 
15087 1 
15148 1 
15149 2 
15150 1 
15193 1 
15194 2 
15195 1 
15205 1 
15206 2 
15207 1 
15259 1 
15260 2 
15261 1 
15265 1 
15266 2 
15267 1 
15856 1 
15857 2 
15858 1 
15865 1 
15866 3 
15867 1 
16027 1 
16028 3 
16029 1 
16228 1 
16229 2 
16230 1 
16279 1 
16280 2 
16281 1 
16756 1 
16757 2 
16758 1 
16759 1 
16760 3 
16761 1 
16804 1 
16805 2 
16806 1 
16813 1 
16814 2 
16815 1 
16876 1 
16877 2 
16878 1 
16924 1 
16925 2 
16926 1 
16933 1 
16934 2 
16935 1 
16939 1 
16940 2 
16941 1 
17002 1 
17003 3 
17004 1 
17101 1 
17102 2 
17103 1 
17107 1 
17108 2 
17109 1 
17224 1 
17225 2 
17226 1 
17230 1 
17231 2 
17232 1 
17242 1 
17243 2 
17244 1 
17821 1 
17822 2 
17823 1 
17902 1 
17903 3 
17904 1 
17962 1 
17963 2 
17964 1 
17968 1 
17969 2 
17970 1 
18016 1 
18017 2 
18018 1 
18130 1 
18131 2 
18132 1 
18202 1 
18203 3 
18204 1 
18247 1 
18248 3 
18249 1 
18313 1 
18314 2 
18315 1 
18325 1 
18326 2 
18327 1 
18922 1 
18923 3 
18924 1 
19030 1 
19031 2 
19032 1 
19045 1 
19046 2 
19047 1 
19228 1 
19229 2 
19230 1 
19384 1 
19385 2 
19386 1 
19387 1 
19388 2 
19389 1 
19927 1 
19928 2 
19929 1 
19945 1 
19946 3 
19947 1 
20002 1 
20003 2 
20004 1 
20122 1 
20123 3 
20124 1 
20185 1 
20186 2 
20187 1 
20308 1 
20309 2 
20310 1 
20341 1 
20342 3 
20343 1 
20353 1 
20354 2 
20355 1 
20368 1 
20369 3 
20370 1 
21145 1 
21146 2 
21147 1 
21184 1 
21185 2 
21186 1 
21205 1 
21206 3 
21207 1 
21253 1 
21254 3 
21255 1 
21442 1 
21443 2 
21444 1 
21502 1 
21503 2 
21504 1 
583 1 
584 2 
585 1 
595 1 
596 2 
597 1 
643 1 
644 2 
645 1 
826 1 
827 2 
828 1 
871 1 
872 2 
873 1 
952 1 
953 2 
954 1 
991 1 
992 2 
993 1 
1054 1 
1055 2 
1056 1 
1069 1 
1070 3 
1071 1 
1072 1 
1073 2 
1074 1 
1780 1 
1781 2 
1782 1 
1789 1 
1790 2 
1791 1 
2023 1 
2024 2 
2025 1 
2203 1 
2204 2 
2205 1 
2206 1 
2207 3 
2208 1 
2218 1 
2219 2 
2220 1 
2674 1 
2675 2 
2676 1 
2743 1 
2744 2 
2745 1 
2749 1 
2750 3 
2751 1 
2803 1 
2804 2 
2805 1 
2875 1 
2876 2 
2877 1 
2911 1 
2912 2 
2913 1 
2914 1 
2915 2 
2916 1 
2917 1 
2918 2 
2919 1 
2929 1 
2930 2 
2931 1 
2932 1 
2933 2 
2934 1 
2977 1 
2978 2 
2979 1 
2995 1 
2996 2 
2997 1 
3037 1 
3038 2 
3039 1 
3100 1 
3101 2 
3102 1 
3151 1 
3152 2 
3153 1 
3157 1 
3158 2 
3159 1 
3163 1 
3164 2 
3165 1 
3175 1 
3176 3 
3177 1 
3178 1 
3179 2 
3180 1 
3820 1 
3821 3 
3822 1 
3838 1 
3839 2 
3840 1 
3892 1 
3893 2 
3894 1 
4063 1 
4064 2 
4065 1 
4066 1 
4067 2 
4068 1 
4114 1 
4115 2 
4116 1 
4126 1 
4127 2 
4128 1 
4240 1 
4241 3 
4242 1 
4252 1 
4253 2 
4254 1 
4291 1 
4292 3 
4293 1 
4294 1 
4295 2 
4296 1 
4318 1 
4319 2 
4320 1 
4957 1 
4958 2 
4959 1 
4975 1 
4976 2 
4977 1 
5089 1 
5090 2 
5091 1 
5131 1 
5132 2 
5133 1 
5149 1 
5150 2 
5151 1 
5212 1 
5213 2 
5214 1 
5278 1 
5279 2 
5280 1 
5335 1 
5336 2 
5337 1 
5338 1 
5339 2 
5340 1 
5398 1 
5399 2 
5400 1 
6100 1 
6101 3 
6102 1 
6160 1 
6161 3 
6162 1 
6175 1 
6176 2 
6177 1 
6214 1 
6215 2 
6216 1 
6235 1 
6236 2 
6237 1 
6274 1 
6275 2 
6276 1 
6394 1 
6395 2 
6396 1 
6571 1 
6572 3 
6573 1 
6574 1 
6575 2 
6576 1 
6646 1 
6647 2 
6648 1 
6652 1 
6653 3 
6654 1 
7354 1 
7355 2 
7356 1 
7360 1 
7361 2 
7362 1 
7363 1 
7364 3 
7365 1 
7378 1 
7379 2 
7380 1 
7480 1 
7481 3 
7482 1 
7549 1 
7550 2 
7551 1 
7663 1 
7664 2 
7665 1 
7669 1 
7670 3 
7671 1 
7726 1 
7727 2 
7728 1 
7729 1 
7730 2 
7731 1 
8371 1 
8372 3 
8373 1 
8443 1 
8444 2 
8445 1 
8557 1 
8558 2 
8559 1 
8563 1 
8564 2 
8565 1 
8620 1 
8621 3 
8622 1 
8677 1 
8678 2 
8679 1 
8752 1 
8753 2 
8754 1 
9418 1 
9419 2 
9420 1 
9517 1 
9518 3 
9519 1 
9631 1 
9632 3 
9633 1 
9640 1 
9641 2 
9642 1 
9880 1 
9881 2 
9882 1 
9889 1 
9890 2 
9891 1 
9898 1 
9899 2 
9900 1 
10594 1 
10595 2 
10596 1 
10603 1 
10604 2 
10605 1 
10612 1 
10613 3 
10614 1 
10675 1 
10676 3 
10677 1 
10774 1 
10775 2 
10776 1 
10846 1 
10847 2 
10848 1 
10903 1 
10904 2 
10905 1 
11092 1 
11093 2 
11094 1 
11095 1 
11096 3 
11097 1 
11569 1 
11570 3 
11571 1 
11857 1 
11858 2 
11859 1 
11971 1 
11972 2 
11973 1 
12040 1 
12041 2 
12042 1 
12754 1 
12755 3 
12756 1 
13057 1 
13058 3 
13059 1 
13672 1 
13673 2 
13674 1 
13711 1 
13712 2 
13713 1 
13717 1 
13718 2 
13719 1 
13732 1 
13733 2 
13734 1 
13738 1 
13739 2 
13740 1 
13786 1 
13787 2 
13788 1 
13849 1 
13850 2 
13851 1 
13903 1 
13904 2 
13905 1 
13954 1 
13955 2 
13956 1 
13975 1 
13976 2 
13977 1 
14017 1 
14018 2 
14019 1 
14032 1 
14033 2 
14034 1 
14080 1 
14081 3 
14082 1 
14086 1 
14087 2 
14088 1 
14218 1 
14219 2 
14220 1 
14869 1 
14870 2 
14871 1 
14917 1 
14918 2 
14919 1 
15052 1 
15053 2 
15054 1 
15103 1 
15104 3 
15105 1 
15112 1 
15113 2 
15114 1 
15118 1 
15119 2 
15120 1 
15151 1 
15152 2 
15153 1 
15166 1 
15167 3 
15168 1 
15229 1 
15230 3 
15231 1 
15238 1 
15239 2 
15240 1 
15283 1 
15284 3 
15285 1 
15292 1 
15293 3 
15294 1 
15835 1 
15836 2 
15837 1 
15955 1 
15956 2 
15957 1 
16051 1 
16052 2 
16053 1 
16132 1 
16133 3 
16134 1 
16138 1 
16139 2 
16140 1 
16240 1 
16241 2 
16242 1 
16777 1 
16778 2 
16779 1 
16786 1 
16787 2 
16788 1 
16846 1 
16847 2 
16848 1 
16957 1 
16958 2 
16959 1 
17038 1 
17039 2 
17040 1 
17131 1 
17132 2 
17133 1 
17938 1 
17939 3 
17940 1 
17983 1 
17984 2 
17985 1 
18049 1 
18050 2 
18051 1 
18094 1 
18095 3 
18096 1 
18175 1 
18176 2 
18177 1 
18238 1 
18239 3 
18240 1 
18295 1 
18296 2 
18297 1 
18334 1 
18335 3 
18336 1 
18937 1 
18938 2 
18939 1 
18949 1 
18950 2 
18951 1 
19057 1 
19058 2 
19059 1 
19120 1 
19121 2 
19122 1 
19180 1 
19181 2 
19182 1 
19183 1 
19184 2 
19185 1 
19186 1 
19187 2 
19188 1 
19360 1 
19361 2 
19362 1 
19411 1 
19412 2 
19413 1 
19969 1 
19970 2 
19971 1 
20014 1 
20015 2 
20016 1 
20038 1 
20039 2 
20040 1 
20098 1 
20099 2 
20100 1 
20197 1 
20198 2 
20199 1 
20200 1 
20201 2 
20202 1 
20254 1 
20255 3 
20256 1 
20275 1 
20276 2 
20277 1 
20317 1 
20318 2 
20319 1 
20380 1 
20381 2 
20382 1 
20500 1 
20501 2 
20502 1 
20506 1 
20507 2 
20508 1 
21151 1 
21152 2 
21153 1 
21286 1 
21287 2 
21288 1 
21289 1 
21290 2 
21291 1 
21346 1 
21347 2 
21348 1 
21400 1 
21401 2 
21402 1 
21457 1 
21458 2 
21459 1 
21469 1 
21470 3 
21471 1 
21538 1 
21539 2 
21540 1 
