ITEM: TIMESTEP
30000000
ITEM: NUMBER OF ATOMS
1284
ITEM: BOX BOUNDS pp pp pp
0.0000000000000000e+00 5.0000000000000000e+01
0.0000000000000000e+00 5.0000000000000000e+01
0.0000000000000000e+00 5.0000000000000000e+01
ITEM: ATOMS id type xs ys zs
5161 1 0.471442 0.20915 0.0233305
5162 2 0.474808 0.202086 0.0210227
7778 3 0.494148 0.200243 0.0270641
7777 1 0.491536 0.20866 0.0302683
5163 1 0.477738 0.194004 0.020388
5025 1 0.501356 0.204819 0.0216887
7683 1 0.50653 0.183225 0.00450439
7779 1 0.499513 0.203289 0.023011
7682 3 0.50729 0.188703 0.00972781
5024 3 0.507384 0.208338 0.0177678
6346 1 0.444601 0.217192 0.022561
1932 1 0.470717 0.211572 0.0250603
6347 3 0.449642 0.213193 0.0288808
8867 3 0.4948 0.229412 0.020331
8866 1 0.498351 0.222077 0.0190713
10490 3 0.479929 0.240439 0.0248013
10491 1 0.486275 0.235283 0.0223931
8868 1 0.489049 0.233764 0.0215499
19 1 0.48576 0.238573 0.00263421
7448 3 0.428205 0.269352 0.00338489
17520 1 0.43334 0.269844 0.0208907
17519 3 0.440054 0.265531 0.0241059
15605 3 0.449329 0.247507 0.0228925
7178 3 0.457886 0.251109 0.00513953
7179 1 0.454676 0.250421 0.0127086
15606 1 0.453009 0.250064 0.0156785
7177 1 0.453887 0.256501 0.000409987
5250 1 0.472825 0.264958 0.01089
8538 1 0.47566 0.249405 0.0288368
3082 1 0.470457 0.266635 0.0108068
15604 1 0.446561 0.248473 0.0301665
6801 1 0.450042 0.265296 0.0298002
17518 1 0.44752 0.265256 0.0278796
5249 3 0.479812 0.261155 0.012671
5248 1 0.483838 0.254908 0.0106287
21 1 0.485343 0.252284 0.00931106
10489 1 0.476782 0.246737 0.0277364
20 3 0.48777 0.246034 0.00488763
17888 3 0.499226 0.270576 0.00741703
17889 1 0.502634 0.265685 0.0126852
4149 1 0.50457 0.26389 0.0146974
9377 3 0.422813 0.277664 0.0192941
9378 1 0.425876 0.274051 0.0125457
7447 1 0.426328 0.272432 0.0101813
11904 1 0.442576 0.27191 0.0109249
14997 1 0.415902 0.281797 0.0277353
9376 1 0.41744 0.280366 0.0256485
11902 1 0.446702 0.287026 0.00660928
11903 3 0.445643 0.280315 0.0100355
20142 1 0.446503 0.289479 0.00501092
3083 3 0.464707 0.272714 0.0110127
3084 1 0.464415 0.280668 0.0112348
2101 1 0.464079 0.284305 0.0106009
2102 3 0.462762 0.29234 0.0105506
2103 1 0.459671 0.299448 0.012928
17887 1 0.496052 0.273064 0.00125254
20600 3 0.497867 0.289857 0.00476262
18827 3 0.481565 0.292916 0.0221094
18828 1 0.482099 0.297611 0.0163432
18826 1 0.48481 0.293045 0.0285976
20599 1 0.492578 0.283924 0.0107088
13380 1 0.482025 0.299183 0.0144089
3989 3 0.500859 0.276412 0.0282499
13036 1 0.436863 0.327413 0.00746813
13037 3 0.440334 0.320427 0.0050046
20325 1 0.427109 0.30514 0.0101074
20324 3 0.432001 0.302341 0.0157046
20323 1 0.434197 0.306059 0.0227269
20632 1 0.434909 0.307521 0.0253726
13038 1 0.44679 0.315281 0.00339253
11832 1 0.458829 0.302312 0.0129463
11831 3 0.45736 0.310088 0.0119885
11830 1 0.457975 0.315091 0.00515808
10437 1 0.458268 0.317044 0.00289501
5572 1 0.463687 0.329523 0.0197944
19536 1 0.46102 0.328485 0.0204892
19535 3 0.453497 0.327751 0.0215407
19534 1 0.448914 0.329282 0.0289417
20843 3 0.474869 0.313399 0.0296207
13379 3 0.481978 0.303475 0.0074503
21029 3 0.490202 0.31712 0.0199514
21028 1 0.483539 0.314457 0.023826
21030 1 0.497999 0.315776 0.0204027
3502 1 0.500556 0.314747 0.020666
13378 1 0.488755 0.307348 0.00360128
21004 1 0.491349 0.307965 0.00246023
20842 1 0.480868 0.31404 0.0251399
3503 3 0.508208 0.311115 0.0226488
12629 3 0.508116 0.328278 0.00711992
12628 1 0.508411 0.329723 0.0150536
8482 1 0.441321 0.34387 0.00189027
8483 3 0.43922 0.344535 0.00966596
8484 1 0.438154 0.347153 0.0184892
5139 1 0.437717 0.347827 0.0215256
5138 3 0.436833 0.351564 0.028484
9777 1 0.474688 0.356343 0.0087956
5573 3 0.47047 0.33231 0.0166062
9776 3 0.47917 0.352911 0.0145907
11243 3 0.488561 0.336777 0.0109125
5574 1 0.477715 0.33429 0.0133465
11244 1 0.48063 0.334543 0.0124959
11242 1 0.493605 0.340932 0.00652487
19896 1 0.49579 0.34252 0.00550046
19895 3 0.501951 0.346988 0.00249254
15355 1 0.505887 0.356461 0.0291879
9775 1 0.481997 0.349406 0.0218924
9885 1 0.419641 0.36337 0.0102006
9884 3 0.423055 0.363307 0.0038092
8917 1 0.418247 0.363648 0.0126508
8918 3 0.416081 0.364399 0.0201403
8919 1 0.41837 0.365217 0.0261996
13434 1 0.418945 0.365392 0.0294495
12134 3 0.435644 0.374115 0.0272029
12135 1 0.441601 0.370979 0.0224526
21390 1 0.443106 0.369083 0.020557
21389 3 0.446999 0.36505 0.0149584
21388 1 0.453447 0.361808 0.0137859
18375 1 0.450091 0.384818 0.0266007
11217 1 0.493771 0.208849 0.0575997
1134 1 0.492853 0.210464 0.0601725
11215 1 0.495638 0.200857 0.0440617
11216 3 0.49441 0.203795 0.0512996
12341 2 0.391342 0.222678 0.0577279
12340 1 0.396528 0.225604 0.0555203
18714 1 0.399677 0.2264 0.0542184
18713 3 0.406865 0.227629 0.051453
7247 3 0.425608 0.223111 0.0558121
18712 1 0.41494 0.226015 0.0526115
7246 1 0.41824 0.225622 0.0528075
7248 1 0.432099 0.219356 0.0585092
10365 1 0.434282 0.21835 0.059485
6348 1 0.455985 0.213685 0.0337378
1931 3 0.468746 0.216617 0.0308783
1930 1 0.465078 0.223309 0.0332688
18841 1 0.469651 0.22157 0.0549716
3027 1 0.471842 0.222475 0.0531033
13341 1 0.463593 0.225551 0.0340153
13340 3 0.458886 0.232075 0.0355029
13339 1 0.454779 0.232942 0.0429499
1683 1 0.453821 0.233448 0.0460025
1682 3 0.451042 0.234923 0.0546028
18842 3 0.462698 0.219277 0.0604392
1681 1 0.448361 0.239606 0.0597547
3026 3 0.47791 0.223483 0.0491196
9114 1 0.491041 0.211182 0.0314692
9113 3 0.489953 0.217614 0.0354793
9112 1 0.484659 0.221054 0.0407994
3025 1 0.483022 0.221862 0.0427867
20023 1 0.481396 0.23935 0.0503128
2703 1 0.501454 0.230644 0.0328303
7884 1 0.498915 0.235654 0.0576897
1007 3 0.411592 0.265944 0.057169
20320 1 0.422638 0.255323 0.0351811
20321 3 0.419264 0.260591 0.0405925
20322 1 0.415341 0.263074 0.0464875
1006 1 0.414443 0.264087 0.0492687
1274 3 0.443446 0.248796 0.0408085
9352 1 0.440759 0.256549 0.0488435
1275 1 0.441842 0.254725 0.0465825
9353 3 0.437043 0.261866 0.0535189
8537 3 0.471239 0.255162 0.0331818
1273 1 0.445897 0.248428 0.0328481
8536 1 0.464659 0.258288 0.0350375
6799 1 0.461918 0.260425 0.0357524
7694 3 0.459381 0.255869 0.0554856
7693 1 0.454394 0.260106 0.059744
7695 1 0.465493 0.260862 0.0545252
11074 1 0.468365 0.262667 0.0548217
6800 3 0.456505 0.265663 0.0357494
11075 3 0.474114 0.268202 0.0555306
20024 3 0.485311 0.242728 0.0448539
20025 1 0.488798 0.247863 0.0408697
8551 1 0.48997 0.249941 0.0389891
8552 3 0.49503 0.256166 0.034852
8553 1 0.497603 0.259758 0.0421248
11997 1 0.498702 0.260462 0.0444553
11996 3 0.501867 0.262902 0.0516454
11995 1 0.497614 0.260716 0.0581208
4856 3 0.402019 0.281927 0.0486981
14995 1 0.406714 0.284113 0.0393442
4855 1 0.405111 0.283166 0.0419211
14996 3 0.41057 0.285987 0.0324864
4857 1 0.399203 0.278198 0.0549595
3510 1 0.434799 0.290832 0.0307939
3508 1 0.444315 0.286989 0.0405612
3509 3 0.442467 0.287642 0.0327897
422 3 0.420973 0.299255 0.047409
12608 3 0.427949 0.283892 0.0596128
12607 1 0.435648 0.281176 0.0602146
421 1 0.41956 0.294717 0.0536223
16170 1 0.471478 0.288347 0.035216
629 3 0.448689 0.284217 0.0505039
628 1 0.445235 0.286624 0.0430538
1778 3 0.470104 0.291473 0.0589836
630 1 0.449063 0.281641 0.0582394
16168 1 0.45673 0.291941 0.0314731
16169 3 0.464056 0.291121 0.0348413
1779 1 0.472172 0.296901 0.0516407
19956 1 0.447868 0.299793 0.0499971
21352 1 0.479718 0.272917 0.0432477
21353 3 0.485456 0.276435 0.0379597
21354 1 0.490965 0.276275 0.0337307
3988 1 0.493851 0.276011 0.0319626
4615 1 0.485643 0.293478 0.0312538
4616 3 0.48815 0.296311 0.0381197
4617 1 0.489023 0.300428 0.0451735
4344 1 0.497746 0.284472 0.0536983
1197 1 0.49558 0.283353 0.05506
11076 1 0.480458 0.273456 0.0571189
1196 3 0.489801 0.278994 0.0590403
1195 1 0.482906 0.274839 0.0578774
4343 3 0.504815 0.286444 0.0507128
3990 1 0.508462 0.275432 0.0307446
12305 3 0.417353 0.320525 0.0346332
12306 1 0.420866 0.326705 0.0387706
12304 1 0.418782 0.313949 0.0307129
423 1 0.426131 0.30439 0.0436137
10820 3 0.43475 0.316341 0.0494274
20633 3 0.436643 0.310736 0.0324158
10819 1 0.436489 0.313925 0.0417582
20634 1 0.436717 0.31315 0.0389855
19698 1 0.433009 0.318035 0.0598454
10821 1 0.433536 0.317484 0.0573311
19131 1 0.44755 0.330112 0.031444
19955 3 0.450303 0.304838 0.0563366
8015 3 0.471661 0.312381 0.0484633
8016 1 0.471905 0.318068 0.0550336
1953 1 0.450384 0.328829 0.0473873
19129 1 0.449017 0.329632 0.0450817
1952 3 0.453439 0.327712 0.0532221
7488 1 0.472204 0.319752 0.0570197
20844 1 0.473521 0.314244 0.0372911
8014 1 0.472617 0.313763 0.0403967
391 1 0.495075 0.323014 0.0454864
4042 1 0.489371 0.301614 0.0474192
4043 3 0.490295 0.30473 0.0550187
4044 1 0.495258 0.310244 0.0581974
2617 1 0.492659 0.324959 0.0472827
392 3 0.500048 0.317698 0.0427943
2618 3 0.489263 0.330171 0.0525747
17797 1 0.497363 0.312115 0.0594739
393 1 0.507491 0.313815 0.0428533
3325 1 0.42355 0.333652 0.039647
3327 1 0.421108 0.342204 0.0489439
3326 3 0.425405 0.337004 0.0463765
10386 1 0.439347 0.353115 0.0385204
5137 1 0.438169 0.353019 0.0359933
10385 3 0.443621 0.352414 0.0446357
19130 3 0.444052 0.331888 0.0383529
10384 1 0.449426 0.351807 0.0500577
18691 1 0.45127 0.351269 0.0528232
18692 3 0.455624 0.350404 0.0593335
20101 1 0.484087 0.35852 0.0345353
20102 3 0.485653 0.352208 0.0384787
20103 1 0.487733 0.34591 0.0410679
2619 1 0.488004 0.333296 0.0590476
4091 3 0.495579 0.355227 0.0605772
7859 3 0.506737 0.337902 0.0422432
4090 1 0.49568 0.347194 0.0584049
12133 1 0.432034 0.374097 0.0355454
13433 2 0.421458 0.365459 0.037674
13432 1 0.422837 0.370371 0.0434895
21403 1 0.439799 0.371886 0.058024
21404 3 0.438608 0.374139 0.0512616
21405 1 0.438726 0.372945 0.0430535
13829 3 0.460281 0.369065 0.0412743
18374 3 0.456058 0.384549 0.0312263
13828 1 0.459341 0.375506 0.036706
18373 1 0.458109 0.377911 0.0353772
13830 1 0.461576 0.370264 0.049451
13915 1 0.461974 0.370317 0.0523201
13916 3 0.463104 0.370365 0.0600207
4152 1 0.500094 0.379952 0.0582744
19300 1 0.500683 0.377492 0.0604471
4151 3 0.497662 0.38642 0.0519768
4150 1 0.49611 0.39322 0.0492868
5344 1 0.495195 0.395929 0.0485407
5346 1 0.487839 0.408692 0.0529776
5345 2 0.491491 0.402928 0.0479469
19944 1 0.487094 0.411104 0.0548056
19943 2 0.485088 0.4185 0.0600028
1239 1 0.373525 0.210068 0.0715806
10363 1 0.4449 0.210128 0.067141
2544 1 0.485963 0.199442 0.0841919
2543 3 0.49462 0.198279 0.0832951
13986 1 0.503474 0.20556 0.083209
2542 1 0.500832 0.203161 0.0831331
1238 2 0.378916 0.216208 0.0673749
1237 1 0.384472 0.218267 0.0641036
12342 1 0.386054 0.21925 0.0624725
10364 3 0.440297 0.214875 0.062275
14697 1 0.467015 0.217353 0.0706569
18843 1 0.465498 0.218184 0.0676992
14696 3 0.470933 0.214892 0.0773963
14695 1 0.476493 0.217117 0.0829539
6946 1 0.476209 0.240345 0.0703626
17025 1 0.447607 0.240894 0.0618518
6730 1 0.455618 0.224911 0.0850477
6731 3 0.458487 0.232251 0.0894542
1133 3 0.48961 0.214422 0.066515
1132 1 0.486513 0.220782 0.0674863
6196 1 0.485624 0.223819 0.0677548
18981 1 0.478817 0.218122 0.0850286
6198 1 0.478723 0.237784 0.0700069
6197 3 0.483413 0.231841 0.0696868
14677 1 0.493818 0.230226 0.08316
14678 3 0.501659 0.23072 0.0801259
18980 3 0.48507 0.22128 0.088957
7883 3 0.505537 0.239938 0.0607342
1008 1 0.40946 0.267112 0.0646395
9354 1 0.436992 0.261235 0.0617493
21549 1 0.436683 0.261443 0.0643522
21548 3 0.435134 0.261707 0.0727907
4087 1 0.431508 0.259786 0.0825992
21547 1 0.432471 0.260311 0.0798311
4088 3 0.428493 0.259306 0.0894214
17024 3 0.44576 0.244629 0.0684421
17023 1 0.446748 0.246403 0.0747963
17261 3 0.448489 0.249161 0.0851213
17260 1 0.447124 0.247359 0.0782254
6947 3 0.470676 0.245138 0.0712352
16460 3 0.464265 0.261253 0.0788288
16459 1 0.470176 0.26582 0.0788938
6948 1 0.467726 0.25049 0.0745424
16461 1 0.466435 0.253307 0.0761651
7545 1 0.472505 0.267671 0.0783047
17262 1 0.44626 0.255994 0.0895604
6876 1 0.489676 0.257768 0.0767542
7503 1 0.496255 0.260155 0.0608285
7501 1 0.489983 0.257806 0.0739256
7502 3 0.49145 0.259316 0.0676372
6875 3 0.488126 0.256763 0.0847173
6874 1 0.492345 0.25264 0.0904134
13776 1 0.493079 0.270367 0.0907316
12609 1 0.420976 0.281686 0.0607047
15008 3 0.434005 0.287519 0.0819148
15009 1 0.432794 0.29347 0.078008
15007 1 0.432296 0.284481 0.0890575
103 1 0.449076 0.281151 0.060875
1777 1 0.470748 0.288404 0.0670906
9110 3 0.448313 0.272684 0.088476
9109 1 0.449061 0.274961 0.0806775
105 1 0.449276 0.276238 0.0779447
104 3 0.448856 0.279407 0.0696899
12871 1 0.47171 0.289329 0.0789089
12202 1 0.455083 0.294118 0.0826832
12872 3 0.463633 0.289296 0.0783484
12873 1 0.456648 0.293239 0.0811588
12203 3 0.450814 0.296019 0.0890235
11935 1 0.497184 0.298484 0.0664256
18688 1 0.482551 0.283331 0.0805801
18689 3 0.483625 0.291159 0.0817758
7543 1 0.481695 0.281027 0.0799368
7544 3 0.478499 0.273981 0.0771057
11936 3 0.501237 0.296331 0.0732849
18690 1 0.484683 0.299272 0.0784988
13775 3 0.500362 0.274837 0.0886018
11937 1 0.502983 0.30032 0.0792333
13774 1 0.508134 0.272436 0.0856582
19697 3 0.433815 0.320365 0.0666823
19696 1 0.437581 0.324536 0.0727431
1951 1 0.453069 0.329245 0.0618475
7487 3 0.472805 0.324837 0.0639981
7812 1 0.45312 0.329754 0.0649838
19954 1 0.454118 0.307485 0.0631566
18304 1 0.456266 0.307637 0.0658971
18305 3 0.460871 0.308601 0.0730418
18306 1 0.459608 0.311387 0.0804186
15901 1 0.458485 0.312899 0.0829804
15902 3 0.454558 0.317491 0.0875402
7810 1 0.457621 0.327847 0.0783034
17178 1 0.471111 0.326009 0.0898386
17177 3 0.475013 0.319995 0.0891891
2166 1 0.469424 0.328643 0.0896478
7486 1 0.478895 0.326385 0.0691863
15576 1 0.484978 0.302488 0.0767907
15575 3 0.485965 0.310417 0.0735517
15574 1 0.489838 0.314256 0.0786448
934 1 0.490738 0.316054 0.0802612
17799 1 0.504121 0.322854 0.0674787
17798 3 0.503716 0.316003 0.0638814
935 3 0.493931 0.321596 0.0836167
10142 3 0.505469 0.304777 0.0897201
10141 1 0.503117 0.302017 0.0819323
12928 1 0.504787 0.325166 0.0690667
20314 1 0.439551 0.335514 0.065681
20315 3 0.436254 0.342857 0.0655902
5913 1 0.428473 0.351025 0.0636683
20316 1 0.430882 0.348816 0.0645645
5912 3 0.423116 0.357194 0.0617651
9362 3 0.442992 0.35601 0.0826453
9361 1 0.440905 0.348561 0.0860163
6548 3 0.438727 0.338066 0.0890498
6549 1 0.439909 0.346027 0.0867506
9363 1 0.442085 0.36027 0.0779735
7811 3 0.451531 0.331666 0.0725977
18693 1 0.45887 0.35008 0.0666198
3399 1 0.45986 0.349959 0.068994
3398 3 0.465015 0.349374 0.0757218
3397 1 0.466192 0.34438 0.0824407
2164 1 0.466368 0.342153 0.0845172
2165 3 0.46643 0.335538 0.0897485
14740 1 0.487836 0.334554 0.061334
14741 3 0.487266 0.33771 0.0684539
14742 1 0.485899 0.343249 0.0750214
7461 1 0.486089 0.345184 0.0770461
7460 3 0.487436 0.350357 0.0823908
7459 1 0.492157 0.350287 0.0889054
574 1 0.493943 0.350562 0.0906726
12929 3 0.507171 0.33275 0.072921
3475 1 0.407939 0.375584 0.0650296
3476 2 0.415771 0.373819 0.0633467
5911 1 0.421563 0.364303 0.0625356
3477 1 0.42025 0.366672 0.0627729
21225 1 0.441927 0.362373 0.0753789
21224 3 0.441228 0.366636 0.0684708
21223 1 0.440278 0.37075 0.060832
21321 1 0.42282 0.372347 0.0852173
21320 2 0.42868 0.371603 0.0874719
1205 3 0.463723 0.368185 0.0774363
1206 1 0.460269 0.367653 0.0845768
18886 1 0.459207 0.366978 0.087355
1204 1 0.464335 0.369339 0.0700008
13917 1 0.463958 0.36975 0.0674515
1068 1 0.489276 0.372699 0.0895627
11274 1 0.487051 0.372199 0.0908006
1066 1 0.498119 0.371613 0.0769918
1067 3 0.495826 0.372839 0.0841262
19301 3 0.501975 0.372294 0.064529
19302 1 0.499235 0.365175 0.0629177
4092 1 0.49762 0.361929 0.0620367
15235 1 0.453429 0.409469 0.0824074
15237 1 0.449822 0.396652 0.0749764
15236 3 0.452838 0.40209 0.0801564
12103 1 0.483047 0.392115 0.0893711
12104 3 0.482783 0.399421 0.0863587
12105 1 0.484904 0.404914 0.0826322
19942 1 0.484476 0.424766 0.0637178
2882 3 0.486375 0.435245 0.06743
2881 1 0.485223 0.427964 0.0648767
2883 1 0.484273 0.442677 0.0686086
5974 1 0.483325 0.445811 0.0694401
5975 3 0.481598 0.454539 0.0719947
5976 1 0.484106 0.458232 0.0786433
7479 1 0.412885 0.239397 0.109311
15156 1 0.443322 0.240958 0.10586
6732 1 0.460806 0.238585 0.0943426
3060 1 0.461788 0.240711 0.0962542
15155 3 0.445834 0.234246 0.10716
15154 1 0.450845 0.229561 0.108939
18600 1 0.453793 0.227653 0.109154
20267 3 0.475905 0.214986 0.109407
18599 3 0.460611 0.223076 0.110468
18598 1 0.467055 0.220028 0.109465
20268 1 0.469654 0.219072 0.109057
18979 1 0.48943 0.223532 0.0954224
1586 3 0.49377 0.211097 0.10963
20266 1 0.483382 0.212487 0.108524
1587 1 0.4858 0.212102 0.108569
1585 1 0.498294 0.217118 0.106291
19429 1 0.499828 0.219656 0.105003
6884 3 0.487251 0.235811 0.10792
6885 1 0.488262 0.227784 0.108689
19430 3 0.504604 0.225988 0.103156
2163 1 0.441669 0.243338 0.105815
7478 3 0.416427 0.244675 0.103983
7477 1 0.417709 0.252394 0.105485
8646 1 0.418389 0.25493 0.106269
8645 3 0.419818 0.262946 0.108621
8644 1 0.416479 0.269752 0.108702
4089 1 0.430744 0.255989 0.0967423
2161 1 0.431665 0.254359 0.0987654
2162 3 0.43651 0.250974 0.10543
8847 1 0.435518 0.267859 0.119911
8701 1 0.453906 0.270649 0.0977237
3059 3 0.464667 0.245987 0.101106
3058 1 0.469648 0.251833 0.104429
10075 1 0.471951 0.253782 0.105385
8703 1 0.455656 0.263475 0.10983
17472 1 0.454407 0.261242 0.111364
17471 3 0.453215 0.254658 0.116194
8702 3 0.456936 0.268845 0.104325
17470 1 0.458688 0.250458 0.119766
13789 1 0.461281 0.248992 0.121186
10076 3 0.477167 0.259365 0.10922
17065 1 0.493355 0.251151 0.0926075
17066 3 0.495854 0.24699 0.0969234
6883 1 0.490892 0.241602 0.104391
17067 1 0.492139 0.243221 0.102428
10077 1 0.48462 0.262917 0.111623
5941 1 0.487034 0.263416 0.11215
5942 3 0.493777 0.265795 0.111811
5943 1 0.499762 0.269552 0.109151
10150 1 0.501546 0.270991 0.108715
12622 1 0.484033 0.270554 0.0965744
2378 2 0.412143 0.278562 0.108383
2379 1 0.410836 0.286903 0.110299
15108 1 0.410417 0.290288 0.111154
15107 2 0.409367 0.298017 0.113718
17674 1 0.431681 0.283324 0.0914472
8845 1 0.435023 0.276645 0.1076
8846 3 0.43911 0.272135 0.113669
2377 1 0.415351 0.271748 0.108643
17676 1 0.433549 0.278155 0.105176
17675 3 0.429952 0.281286 0.0985833
19992 1 0.439766 0.292756 0.119072
15070 1 0.44196 0.299863 0.0939815
12204 1 0.4445 0.29839 0.092397
16626 1 0.436959 0.293457 0.120511
9111 1 0.452939 0.271129 0.0955275
12624 1 0.475412 0.276973 0.106474
15219 1 0.473773 0.277437 0.108782
15218 3 0.47081 0.27939 0.115584
15217 1 0.468261 0.285692 0.118372
19990 1 0.450551 0.284662 0.113881
19991 3 0.446781 0.291563 0.114696
21219 1 0.467636 0.288487 0.118945
7998 1 0.470581 0.291718 0.0945925
7997 3 0.467377 0.298149 0.0986246
21218 3 0.466021 0.29658 0.121165
12623 3 0.479705 0.276076 0.100071
19049 3 0.492221 0.286636 0.12055
2975 3 0.49324 0.292175 0.103482
2976 1 0.492578 0.28937 0.111608
19050 1 0.492691 0.288504 0.114218
2974 1 0.490764 0.298725 0.100217
16764 1 0.490047 0.300813 0.0989275
15106 1 0.404478 0.304902 0.110963
14578 1 0.434415 0.314296 0.0977128
14579 3 0.431537 0.322314 0.0966544
14580 1 0.43428 0.328997 0.0930215
15072 1 0.435389 0.311561 0.0977197
15071 3 0.436981 0.304043 0.0974973
3440 3 0.437444 0.317065 0.116713
3439 1 0.442441 0.322422 0.111203
15903 1 0.450996 0.321979 0.091478
7996 1 0.463489 0.303679 0.103893
14845 1 0.462298 0.305606 0.105617
14846 3 0.458639 0.312197 0.109496
14847 1 0.455919 0.320063 0.109146
2632 1 0.454846 0.323161 0.109387
19978 1 0.47139 0.331084 0.120687
2633 3 0.453454 0.331243 0.106988
21217 1 0.4716 0.30181 0.120903
6453 1 0.474198 0.303698 0.120643
936 1 0.491412 0.324514 0.0912094
8074 1 0.490807 0.326242 0.0930888
17176 1 0.47961 0.314135 0.0919435
16762 1 0.481673 0.312577 0.0932191
16763 3 0.487268 0.30783 0.0968964
6452 3 0.481108 0.306932 0.12003
6451 1 0.489035 0.306688 0.118206
21552 1 0.492335 0.306691 0.117497
21550 1 0.507042 0.312427 0.118643
21551 3 0.499692 0.308989 0.117813
7353 1 0.503005 0.327099 0.0928629
6547 1 0.435391 0.331481 0.091892
3088 1 0.416213 0.344036 0.0999375
3089 3 0.421636 0.343753 0.106421
5016 1 0.426289 0.340521 0.115783
3090 1 0.425241 0.341321 0.112734
8818 1 0.439019 0.356269 0.104154
5512 1 0.441161 0.353818 0.105056
6580 1 0.473243 0.331392 0.118439
5513 3 0.445564 0.347387 0.105582
5514 1 0.449284 0.34138 0.107624
2634 1 0.450538 0.338777 0.107799
576 1 0.507222 0.354611 0.0976019
6581 3 0.477528 0.33193 0.111977
6582 1 0.481858 0.332931 0.105739
8076 1 0.483622 0.333285 0.103752
8075 3 0.489826 0.33211 0.0985905
575 3 0.49958 0.351969 0.0959266
2656 1 0.476787 0.34645 0.108341
2657 3 0.477931 0.353654 0.103451
5946 1 0.506212 0.340432 0.118995
8819 3 0.434435 0.362928 0.101916
8820 1 0.431801 0.366928 0.0960219
21319 1 0.430865 0.368299 0.0935658
14113 1 0.429417 0.376549 0.115397
18887 3 0.456435 0.364338 0.0946688
18888 1 0.457194 0.364005 0.103338
19512 1 0.456606 0.363973 0.106298
19511 3 0.455633 0.364153 0.113624
19510 1 0.455113 0.368254 0.119776
2658 1 0.478528 0.36166 0.100075
11273 3 0.480598 0.36983 0.0941107
11272 1 0.479105 0.363882 0.0988198
5061 1 0.498101 0.367894 0.109576
10053 1 0.496236 0.366396 0.111086
10052 3 0.491801 0.36344 0.116216
11001 1 0.489671 0.387114 0.119939
11000 3 0.493399 0.39068 0.114517
9525 1 0.505268 0.380932 0.101761
5059 1 0.504682 0.378425 0.102696
5060 3 0.502583 0.372039 0.105985
9524 3 0.506852 0.387093 0.0973915
10999 1 0.492977 0.394234 0.107552
2391 1 0.505967 0.403737 0.1009
13791 1 0.471442 0.240735 0.127933
25 1 0.409329 0.255764 0.140228
2643 1 0.434096 0.266374 0.1224
26 2 0.416076 0.259641 0.140346
27 1 0.421868 0.260569 0.135241
2641 1 0.424033 0.26091 0.13377
2642 3 0.430131 0.262333 0.127884
13790 3 0.467691 0.246891 0.125996
6017 3 0.461433 0.26558 0.149881
16702 1 0.487919 0.268945 0.144736
16625 2 0.431017 0.297182 0.124288
1167 1 0.42597 0.299417 0.134435
16624 1 0.427818 0.298514 0.132241
14137 1 0.47321 0.290485 0.14009
1510 1 0.472706 0.279067 0.149516
6016 1 0.458544 0.273236 0.148688
16703 3 0.493198 0.273461 0.14248
16704 1 0.487086 0.278811 0.138836
14139 1 0.484538 0.280994 0.137902
14138 3 0.477336 0.285729 0.135625
19048 1 0.500538 0.288914 0.123042
14194 1 0.502972 0.289351 0.123775
455 2 0.407198 0.315093 0.144437
456 1 0.399993 0.311937 0.144673
3441 1 0.43433 0.317193 0.125432
454 1 0.413474 0.309304 0.143729
1165 1 0.4153 0.307161 0.14314
1166 2 0.421584 0.301392 0.140928
2522 2 0.427279 0.32399 0.138548
2521 1 0.425171 0.325701 0.146182
13591 1 0.424559 0.325814 0.148943
14824 1 0.438296 0.324844 0.135565
2523 1 0.435181 0.324937 0.136452
14826 1 0.453746 0.3259 0.132207
19979 3 0.465905 0.329408 0.125814
18279 1 0.463475 0.308755 0.138834
19980 1 0.461214 0.331141 0.131628
14825 3 0.445631 0.325158 0.133288
18277 1 0.475993 0.304164 0.145149
18278 3 0.470962 0.306954 0.139955
2362 1 0.476567 0.319198 0.146383
2363 3 0.482525 0.324872 0.143908
5015 3 0.429889 0.339225 0.122681
5014 1 0.42979 0.343155 0.128804
10461 1 0.439867 0.347084 0.130073
10460 3 0.447199 0.350944 0.131782
10459 1 0.455396 0.352756 0.133479
6124 1 0.459008 0.352704 0.134188
6125 3 0.46711 0.350996 0.134849
17512 1 0.474764 0.348687 0.151395
6126 1 0.473761 0.347376 0.133429
8194 1 0.476641 0.345905 0.132658
5945 3 0.499763 0.339519 0.122342
12199 1 0.491687 0.358574 0.149738
2364 1 0.481055 0.332772 0.146824
17514 1 0.481226 0.336097 0.147937
17513 3 0.480455 0.342747 0.151092
5944 1 0.49307 0.340389 0.126411
8196 1 0.490715 0.341034 0.127377
8195 3 0.484391 0.342334 0.129783
12200 3 0.49904 0.357354 0.149145
14115 1 0.437735 0.378965 0.128189
14114 3 0.433179 0.377662 0.122303
11122 1 0.455304 0.369935 0.122102
11124 1 0.458713 0.379869 0.13302
16784 2 0.462088 0.386973 0.141473
16785 1 0.459393 0.382095 0.135534
11123 3 0.455679 0.375154 0.127906
10051 1 0.490184 0.363323 0.123535
1849 1 0.489114 0.363455 0.126497
1850 3 0.487208 0.364088 0.134988
1851 1 0.485232 0.37087 0.13275
6046 1 0.48463 0.373471 0.131479
6047 3 0.484627 0.381383 0.128559
6048 1 0.488305 0.385559 0.122011
16783 1 0.460144 0.39227 0.147924
6018 1 0.459235 0.259745 0.154849
1512 1 0.474715 0.285589 0.163767
1511 3 0.473492 0.281799 0.156602
18186 1 0.492623 0.285465 0.162406
18185 3 0.49795 0.290173 0.165427
18184 1 0.501212 0.296501 0.163988
13593 1 0.417442 0.323091 0.159715
13592 3 0.422478 0.326851 0.15594
12201 1 0.504776 0.354198 0.152005
13840 1 0.50754 0.352706 0.153332
14605 1 0.507628 0.236695 0.957074
3896 3 0.507627 0.266424 0.958555
3897 1 0.505536 0.269844 0.950827
14606 3 0.502418 0.242194 0.959433
14607 1 0.501197 0.247486 0.965519
6 1 0.500355 0.249347 0.967625
7154 3 0.4727 0.279951 0.967788
7155 1 0.4706 0.288363 0.968576
20659 1 0.431102 0.32662 0.962194
2077 1 0.487831 0.308221 0.950235
2079 1 0.485547 0.305204 0.964574
2078 2 0.484634 0.305189 0.955832
16020 1 0.486049 0.305429 0.967229
14375 2 0.501148 0.343259 0.968613
14376 1 0.494138 0.343785 0.966112
7449 1 0.428383 0.269544 0.995174
306 1 0.444112 0.251376 0.969989
18015 1 0.45261 0.258457 0.998597
305 3 0.451374 0.251456 0.972091
18014 3 0.448912 0.26284 0.992042
4349 3 0.46651 0.254158 0.980261
304 1 0.457602 0.252327 0.974738
4348 1 0.46001 0.252527 0.976125
4350 1 0.473157 0.258898 0.979112
18013 1 0.452424 0.268645 0.99046
4 1 0.493168 0.258861 0.971909
5284 1 0.485205 0.269645 0.971181
5 3 0.498546 0.253429 0.973285
21209 3 0.504505 0.270231 0.985443
20141 3 0.444494 0.294886 0.999382
11481 1 0.430234 0.283011 0.991194
11480 3 0.43664 0.280324 0.986987
11479 1 0.444344 0.279915 0.985945
5595 1 0.429659 0.299817 0.978448
20140 1 0.451105 0.298819 0.997115
18969 1 0.453499 0.300086 0.996224
11069 3 0.472156 0.291479 0.986474
5887 1 0.446841 0.280378 0.985907
7153 1 0.473357 0.272203 0.970917
5889 1 0.461547 0.286073 0.986266
5888 3 0.455721 0.281663 0.98554
11070 1 0.46429 0.287851 0.986098
2862 1 0.479937 0.275777 0.998631
2861 3 0.478699 0.271605 0.993045
2860 1 0.477102 0.27156 0.985241
5286 1 0.495412 0.271753 0.980249
21208 1 0.498194 0.271493 0.981654
11068 1 0.481056 0.292198 0.9863
5285 3 0.489417 0.27192 0.97601
8521 1 0.495013 0.29201 0.992595
20601 1 0.495496 0.291391 0.995944
8523 1 0.490651 0.298993 0.981099
8522 3 0.493049 0.293459 0.98465
16018 1 0.490019 0.300643 0.979786
20660 3 0.432271 0.328613 0.97101
5594 3 0.433499 0.306985 0.977947
5593 1 0.440157 0.30876 0.976633
21160 1 0.442627 0.310232 0.975662
16024 1 0.456538 0.324065 0.974492
21162 1 0.4546 0.321715 0.974374
18968 3 0.46031 0.304059 0.993466
10435 1 0.467791 0.321162 0.996922
20590 1 0.471516 0.319877 0.996672
18967 1 0.466474 0.307516 0.992552
21161 3 0.449551 0.314833 0.974361
10436 3 0.459123 0.322949 0.997743
16025 3 0.461984 0.329539 0.975611
12630 1 0.504478 0.330003 0.999549
21005 3 0.498878 0.310181 0.999532
11553 1 0.507688 0.308155 0.996393
21006 1 0.505161 0.308485 0.997511
16019 3 0.486952 0.306107 0.975212
20591 3 0.47882 0.318882 0.994509
19837 1 0.50256 0.330973 0.99697
20592 1 0.48209 0.3243 0.989789
6240 1 0.442753 0.343265 0.999227
20661 1 0.428292 0.33568 0.972803
13465 1 0.426658 0.337697 0.973642
19441 1 0.42405 0.351785 0.982231
13467 1 0.424453 0.349441 0.98126
19442 2 0.423241 0.359435 0.985935
6238 1 0.443306 0.337574 0.985113
13466 3 0.424099 0.343226 0.977974
6239 3 0.44657 0.340535 0.992568
16345 1 0.472156 0.340366 0.993848
16026 1 0.466754 0.332092 0.980989
14374 1 0.506221 0.339692 0.974061
19894 1 0.503606 0.34628 0.994427
19838 3 0.496867 0.332316 0.990784
16346 3 0.478304 0.338813 0.991439
19839 1 0.488908 0.334485 0.992176
16347 1 0.486163 0.335736 0.992122
9883 1 0.423612 0.362683 0.996061
19443 1 0.423918 0.361872 0.992716
16734 1 0.511565 0.188371 0.0188628
16732 1 0.520547 0.193233 0.0291173
16733 3 0.513322 0.1893 0.0277082
4896 1 0.523394 0.194707 0.0291467
7681 1 0.510736 0.188428 0.0163375
5023 1 0.513641 0.209735 0.0127888
4895 3 0.529906 0.200142 0.028845
4894 1 0.538257 0.202699 0.0282451
5392 1 0.52028 0.22707 0.00726092
5393 3 0.51599 0.234565 0.00768627
5394 1 0.513826 0.239297 0.00283616
5662 1 0.543868 0.225903 0.0260594
20127 1 0.551974 0.218916 0.0167467
13536 1 0.542579 0.236227 0.0149994
20125 1 0.543992 0.233519 0.0149901
20126 3 0.548046 0.226419 0.013347
5241 1 0.551181 0.212059 0.0278587
12765 1 0.56638 0.239934 0.0253428
15912 1 0.565679 0.239769 0.0281899
13534 1 0.536414 0.249667 0.0119103
19432 1 0.535472 0.25253 0.0110799
19433 3 0.531288 0.259535 0.00823929
19434 1 0.528432 0.267738 0.0100252
6369 1 0.527378 0.270803 0.0104719
4147 1 0.5125 0.256464 0.0256524
12391 1 0.513547 0.2551 0.028825
17324 3 0.530212 0.263841 0.0283618
17325 1 0.524406 0.267566 0.0295548
17323 1 0.534338 0.259356 0.0222178
4148 3 0.508585 0.259222 0.0184599
3339 1 0.512868 0.241828 0.00104097
13535 3 0.539372 0.243448 0.0151532
13078 1 0.548585 0.267958 0.00285207
18210 1 0.567225 0.267125 0.0149762
15121 1 0.548719 0.270585 0.00414289
12969 1 0.568361 0.268141 0.0133399
11125 1 0.554935 0.259848 0.0261722
18208 1 0.557601 0.26111 0.0249222
18209 3 0.562623 0.264515 0.020047
12764 3 0.566999 0.241196 0.0175647
11126 3 0.548302 0.256641 0.0295013
11058 1 0.575021 0.248655 0.0143258
3957 1 0.588236 0.262786 0.0129117
11056 1 0.586885 0.260528 0.0134963
11057 3 0.581665 0.253296 0.0148465
3956 3 0.593189 0.27007 0.0125163
12763 1 0.572877 0.246621 0.0147771
6368 3 0.524836 0.277658 0.00960768
6367 1 0.528573 0.280181 0.00310292
10171 1 0.51307 0.300495 0.0239572
10172 3 0.516829 0.29247 0.0241793
10173 1 0.523825 0.29419 0.0260404
6832 1 0.527082 0.294855 0.0266185
6833 3 0.534322 0.296165 0.0297206
19117 1 0.529988 0.281106 0.000958255
12967 1 0.567849 0.273772 0.00121347
15122 3 0.551053 0.277072 0.00795594
8992 1 0.551322 0.286519 0.0126819
15123 1 0.551711 0.284168 0.011534
8993 3 0.552711 0.29357 0.015326
8994 1 0.551196 0.300952 0.0161181
12968 3 0.572322 0.271193 0.00725199
3955 1 0.598021 0.275981 0.015214
19768 1 0.599667 0.277714 0.0158283
7887 1 0.576984 0.296306 0.029157
19769 3 0.604326 0.282823 0.0180949
15599 3 0.610868 0.300735 0.0161064
19770 1 0.607069 0.289609 0.0159706
15600 1 0.607727 0.292652 0.015357
10068 1 0.530259 0.32848 0.000539213
1908 1 0.509037 0.330213 0.0182693
3504 1 0.511833 0.303522 0.0236812
6564 1 0.550454 0.303967 0.0171047
6563 3 0.549103 0.311691 0.0190073
6562 1 0.549105 0.31988 0.0151744