ITEM: TIMESTEP
30000000
ITEM: NUMBER OF ATOMS
1284
ITEM: BOX BOUNDS pp pp pp
0.0000000000000000e+00 5.0000000000000000e+01
0.0000000000000000e+00 5.0000000000000000e+01
0.0000000000000000e+00 5.0000000000000000e+01
ITEM: ATOMS id type vx vy vz 
5161 1 -0.752677 -3.41581 -3.07497 
5162 2 -1.07837 0.0789779 -0.649916 
7778 3 -2.60041 1.16273 -0.607832 
7777 1 -1.35201 5.17798 -3.51665 
5163 1 6.53911 -1.02672 -0.17627 
5025 1 -0.780371 0.435198 -3.95607 
7683 1 -8.1176 4.65296 -2.84852 
7779 1 -4.30123 2.20713 0.403981 
7682 3 -3.12145 -1.46372 -2.20522 
5024 3 -4.86625 -4.43861 -0.452344 
6346 1 1.2159 3.28676 1.30779 
1932 1 0.769323 6.08566 3.74573 
6347 3 -5.06886 0.523823 -2.2675 
8867 3 0.548396 -2.23819 4.20056 
8866 1 4.98845 -7.87155 0.944905 
10490 3 -1.31468 2.56811 1.41556 
10491 1 0.595237 0.563079 0.710611 
8868 1 -1.32299 -1.26861 -1.17275 
19 1 -2.34487 2.9561 -1.8686 
7448 3 -1.40766 -2.3386 5.33741 
17520 1 -2.15817 7.47508 -3.47559 
17519 3 -2.70356 2.25595 -1.04169 
15605 3 2.34128 1.21404 -3.62148 
7178 3 -1.43019 1.75786 -0.445861 
7179 1 2.14234 -0.380647 -4.04432 
15606 1 1.8944 -3.0073 -3.29376 
7177 1 -2.55614 6.64741 0.113453 
5250 1 -4.95155 0.703313 -2.3594 
8538 1 -1.65391 1.26043 -0.178809 
3082 1 -4.44408 -5.73124 -0.585916 
15604 1 -0.582599 -0.315125 -3.43041 
6801 1 -2.4689 -2.08946 2.67715 
17518 1 0.927806 3.26584 -1.82338 
5249 3 0.206964 -0.00130946 0.0919183 
5248 1 4.65752 -0.139467 4.34606 
21 1 -1.89699 0.222387 -4.17492 
10489 1 -0.476389 -1.77159 -4.02637 
20 3 -0.456473 -0.497759 -2.70707 
17888 3 -1.75026 -0.723632 2.12147 
17889 1 8.77918 5.6231 0.639001 
4149 1 2.59796 -0.801877 -1.88433 
9377 3 1.06315 -2.62175 1.11349 
9378 1 -2.8314 -1.93777 3.85648 
7447 1 2.0382 0.747899 1.8514 
11904 1 -6.21041 0.929094 -1.34934 
14997 1 6.26067 -4.60421 7.26231 
9376 1 -2.32583 -5.57252 0.0107217 
11902 1 1.08404 -1.6814 -3.49049 
11903 3 -1.57572 -0.109012 -2.0725 
20142 1 6.9669 1.63988 -0.866825 
3083 3 -0.270908 -2.16506 1.33667 
3084 1 -2.98393 -1.07659 -1.78035 
2101 1 -1.45237 8.07362 2.37596 
2102 3 2.8096 2.31456 -0.678477 
2103 1 -0.460856 2.79529 -4.24839 
17887 1 3.49244 4.43255 1.72916 
20600 3 -0.713163 1.87516 0.795828 
18827 3 2.74276 -1.52382 0.821261 
18828 1 1.10147 0.528151 2.08106 
18826 1 1.51879 -5.86151 -4.20624 
20599 1 1.30686 1.72858 0.947033 
13380 1 -0.817166 -0.592256 -2.84841 
3989 3 5.04512 -4.63016 -5.67603 
13036 1 1.3145 1.29995 -0.517997 
13037 3 1.49118 -2.11326 0.792122 
20325 1 0.971465 -0.116834 -0.366608 
20324 3 -2.45917 0.819214 -1.33396 
20323 1 9.61022 1.93727 -6.38372 
20632 1 1.56687 -1.70625 0.61542 
13038 1 4.4633 2.76412 -1.14393 
11832 1 -3.96967 -2.17479 2.19109 
11831 3 1.57835 -1.53776 -1.42879 
11830 1 2.0897 -2.09754 -3.8053 
10437 1 -3.77742 -0.727463 3.4892 
5572 1 0.10971 1.30021 2.61352 
19536 1 -3.44388 1.58063 -1.91799 
19535 3 -0.427524 -5.16075 -0.218756 
19534 1 1.56184 0.546239 -3.22773 
20843 3 1.94399 -1.33755 -2.08762 
13379 3 -1.18657 1.10467 -1.54255 
21029 3 -6.45189 -0.714679 -0.372955 
21028 1 -2.30738 5.88121 -2.2088 
21030 1 2.24432 4.65745 -4.1093 
3502 1 -6.14256 -3.79429 -2.70352 
13378 1 -2.2245 4.22287 1.45774 
21004 1 1.35968 -2.05142 1.89253 
20842 1 -1.05275 1.58057 -2.86103 
3503 3 1.66147 1.05426 0.449355 
12629 3 1.74132 -0.0204001 -1.11561 
12628 1 0.653967 4.6998 0.902246 
8482 1 -3.86211 -0.725407 -3.89109 
8483 3 3.2647 -2.38735 3.80212 
8484 1 2.0764 3.40475 -1.90063 
5139 1 2.54718 -1.6675 3.11339 
5138 3 2.05851 2.38625 -1.77494 
9777 1 2.59388 4.71445 5.36223 
5573 3 0.0476874 1.56855 -0.611352 
9776 3 -0.760851 3.30286 0.443512 
11243 3 -1.69827 -1.42861 0.883286 
5574 1 0.560505 -5.55748 -4.23788 
11244 1 -0.99753 -5.44886 -0.0882647 
11242 1 -7.12698 1.17227 4.84849 
19896 1 -0.229061 -1.76784 0.528985 
19895 3 1.79007 -2.8432 -0.478601 
15355 1 3.20886 -3.13373 4.56159 
9775 1 0.893652 -3.3486 0.902525 
9885 1 4.13574 4.74911 2.56068 
9884 3 -3.21706 -1.22717 -1.42519 
8917 1 6.44033 6.8744 2.09558 
8918 3 -1.94188 -3.04666 -1.63665 
8919 1 -7.60556 3.74476 -4.30293 
13434 1 3.92108 5.67831 1.48228 
12134 3 3.83951 0.508563 -0.835907 
12135 1 -1.60955 -4.92156 -5.44622 
21390 1 8.39288 4.18688 0.0729211 
21389 3 -1.67738 -3.21575 3.77847 
21388 1 -1.16028 -5.47791 2.84455 
18375 1 5.68933 -0.291119 -0.879972 
11217 1 2.77246 1.94666 -6.49682 
1134 1 -2.94277 -0.111854 -1.45635 
11215 1 -6.01931 2.2849 1.06721 
11216 3 -1.40398 -3.11147 0.310375 
12341 2 -2.39459 2.12765 -4.58384 
12340 1 5.02306 -1.88541 2.09282 
18714 1 -2.04653 -0.292116 -2.70595 
18713 3 -0.908371 0.423479 0.71951 
7247 3 4.38488 -2.87614 2.60428 
18712 1 1.40364 -3.4049 3.80008 
7246 1 5.91783 2.99334 2.16432 
7248 1 1.47706 -1.20453 8.64933 
10365 1 -3.64351 -6.27412 1.38485 
6348 1 -2.93558 -0.785159 -4.14277 
1931 3 0.244 -4.2632 -4.09021 
1930 1 1.27655 4.29342 -4.40523 
18841 1 1.1108 -0.133324 -0.759007 
3027 1 -1.59336 -1.11428 2.6295 
13341 1 -3.08078 -1.41935 -0.520275 
13340 3 -0.167986 0.471791 -1.52601 
13339 1 -4.3697 -3.99596 -0.153369 
1683 1 -1.43014 7.1794 -6.69086 
1682 3 -3.44962 -1.21001 1.27099 
18842 3 -4.61534 0.829824 3.93994 
1681 1 2.504 -3.26933 -4.08433 
3026 3 3.60064 0.632022 2.50819 
9114 1 -2.70403 -0.346674 4.21927 
9113 3 -0.760377 -3.20921 -2.07583 
9112 1 -0.781143 -3.33539 1.71042 
3025 1 5.56881 -4.25591 4.42144 
20023 1 -2.6512 -4.5396 0.357066 
2703 1 -3.67525 -3.83769 -6.13512 
7884 1 -2.88234 -1.37117 3.90173 
1007 3 1.72803 3.84539 3.33732 
20320 1 -4.09817 -3.41446 1.52527 
20321 3 -0.824773 0.523729 1.11873 
20322 1 1.25738 -0.907602 -0.0466617 
1006 1 1.03203 3.80939 -1.81349 
1274 3 0.909169 -4.78124 -4.7732 
9352 1 1.54423 1.87971 -1.13562 
1275 1 -2.14446 -1.98524 -3.79027 
9353 3 1.01435 -2.9693 3.96931 
8537 3 0.207743 1.5227 2.66229 
1273 1 0.613056 0.484916 -3.33774 
8536 1 -5.70492 5.00986 -3.39961 
6799 1 3.39076 0.538877 5.25353 
7694 3 -2.09301 0.192622 2.10499 
7693 1 0.656598 -1.85777 -0.120041 
7695 1 -1.84131 1.3092 -3.62095 
11074 1 5.81269 -7.27841 -3.03343 
6800 3 3.25488 -4.48415 0.842891 
11075 3 -3.37548 -3.8968 -1.27977 
20024 3 1.96001 2.41665 -0.281408 
20025 1 3.04703 0.0761928 -0.153844 
8551 1 -3.48256 -3.59473 0.664736 
8552 3 0.513258 -3.5475 -2.91838 
8553 1 -5.34047 -0.551722 -5.67659 
11997 1 -5.70082 4.81204 -0.827742 
11996 3 2.16557 -0.955163 0.558634 
11995 1 -1.49355 7.11271 -1.04153 
4856 3 -0.779815 4.52865 -0.163859 
14995 1 -1.36731 -5.38727 -3.99236 
4855 1 -2.80057 -0.80147 2.25991 
14996 3 1.63928 -2.2095 -0.208343 
4857 1 1.21177 0.0871551 -2.66249 
3510 1 -5.13216 4.31238 2.9026 
3508 1 1.33269 4.65903 3.01971 
3509 3 -1.46331 -0.286161 -1.72112 
422 3 -1.04833 0.0734791 -1.85761 
12608 3 1.6706 3.21802 -2.14001 
12607 1 -2.30629 5.10598 2.58872 
421 1 3.76354 5.78451 -2.2242 
16170 1 -1.39588 0.171843 2.06388 
629 3 -0.163095 0.987546 -1.05949 
628 1 0.238247 -3.00824 2.11055 
1778 3 0.966252 1.04737 1.37426 
630 1 1.33909 -0.322125 6.63469 
16168 1 1.64904 -0.076425 3.58442 
16169 3 4.88594 -1.17222 -1.31474 
1779 1 -0.521617 -0.565587 -2.45207 
19956 1 2.01374 0.901955 -4.83546 
21352 1 -2.14879 2.0751 -7.53889 
21353 3 -2.14838 -0.457364 3.81607 
21354 1 -2.2047 0.239627 -1.32707 
3988 1 -2.55634 -1.60843 -0.147492 
4615 1 0.268054 3.04691 -1.69583 
4616 3 2.81976 -0.805606 0.279507 
4617 1 -2.58848 1.2635 -4.95486 
4344 1 -6.77934 5.79942 0.373869 
1197 1 0.173299 -1.08174 0.882319 
11076 1 -0.704677 -0.840673 7.21368 
1196 3 -3.80862 2.52581 5.0468 
1195 1 -0.545652 -6.40227 5.5823 
4343 3 -2.46542 -1.12693 0.176647 
3990 1 1.13498 1.81514 -4.84318 
12305 3 1.96331 -1.8683 0.43351 
12306 1 4.64243 8.84253 0.0183213 
12304 1 -1.92142 -4.57663 2.25847 
423 1 -0.487628 -1.72276 -2.8052 
10820 3 -1.90876 -0.510724 -0.499954 
20633 3 -0.745576 1.37179 0.596507 
10819 1 2.16039 3.65339 -0.623031 
20634 1 2.6614 -1.10032 0.306279 
19698 1 -5.3575 -4.95295 1.61567 
10821 1 5.62026 1.48249 4.24679 
19131 1 -7.72445 -1.23122 0.799789 
19955 3 -0.102819 -0.775947 -0.266017 
8015 3 4.67427 0.814341 2.59975 
8016 1 0.470202 -0.214263 2.67939 
1953 1 1.63939 1.20392 -0.766355 
19129 1 5.4789 4.63311 1.69543 
1952 3 -1.00951 0.310808 -1.07201 
7488 1 -3.3938 0.730262 -3.10645 
20844 1 5.32596 -4.91546 3.65774 
8014 1 1.4677 -6.86152 2.09025 
391 1 0.804707 2.9443 -1.69097 
4042 1 7.1181 1.27151 2.76959 
4043 3 2.48757 -5.54989 1.09957 
4044 1 -2.59544 -0.0722246 0.939255 
2617 1 3.12729 1.83657 -1.0914 
392 3 5.06737 3.78539 -4.17754 
2618 3 -3.12927 -0.150596 -1.17358 
17797 1 3.00989 -0.088696 -2.0918 
393 1 2.10695 4.62148 -0.733743 
3325 1 4.70402 0.546367 -5.95002 
3327 1 0.871723 3.97699 -4.7472 
3326 3 -1.11843 -1.5096 3.87737 
10386 1 6.55751 -4.33365 0.611754 
5137 1 2.24561 -5.13745 5.80429 
10385 3 1.3359 -1.47809 0.490305 
19130 3 2.61349 -0.766612 2.61599 
10384 1 -3.53825 -2.26762 -1.08283 
18691 1 -3.57771 -2.61863 -0.890591 
18692 3 1.84223 -0.10588 -0.367741 
20101 1 1.34418 -1.63019 -6.78223 
20102 3 -2.1371 4.55321 1.85575 
20103 1 -1.10264 -0.307189 2.85205 
2619 1 -5.06583 -4.52083 1.35886 
4091 3 1.48048 1.55966 -0.606851 
7859 3 -1.27413 -0.351396 -0.704181 
4090 1 1.34089 1.59208 0.179745 
12133 1 1.01365 -2.80098 6.01015 
13433 2 -1.87848 3.13032 -3.87619 
13432 1 -4.41828 -0.804099 3.51068 
21403 1 -10.7714 -5.10289 -2.37036 
21404 3 2.70695 -1.72461 -1.87809 
21405 1 3.13607 4.52137 -5.94927 
13829 3 -1.82047 3.02924 -4.83717 
18374 3 3.17852 4.13996 1.37976 
13828 1 -2.1193 2.60332 -0.928746 
18373 1 -0.674683 3.13896 -1.63416 
13830 1 7.03259 -0.0363484 -4.43653 
13915 1 -2.68866 0.401536 -0.109531 
13916 3 -2.38841 0.697459 1.17166 
4152 1 6.60794 -4.26209 -2.9967 
19300 1 3.22611 3.13027 0.260825 
4151 3 0.862193 0.900793 -3.87464 
4150 1 -4.21331 -3.40788 0.106456 
5344 1 -2.97719 5.37894 1.288 
5346 1 -3.96125 -1.93476 2.91175 
5345 2 1.88678 -2.44065 0.617168 
19944 1 1.69201 -4.01529 8.08363 
19943 2 -0.47174 1.08917 3.04667 
1239 1 -6.26909 -1.19698 -0.752668 
10363 1 -1.56234 -0.17063 1.67261 
2544 1 -3.75473 -1.54502 -7.11163 
2543 3 2.24917 -1.00105 0.0546665 
13986 1 -7.2202 1.45116 1.9417 
2542 1 -1.62848 1.09758 4.3234 
1238 2 1.31357 -3.40815 -2.85249 
1237 1 -6.10284 -0.13869 0.356737 
12342 1 -0.517221 0.432383 -3.10401 
10364 3 2.7753 1.31185 -0.760774 
14697 1 -4.04484 8.74926 -1.99658 
18843 1 -5.91045 -1.10268 -6.22679 
14696 3 0.120877 -1.48851 -2.49991 
14695 1 -1.19866 1.19437 5.48092 
6946 1 -4.06638 -5.82736 0.132606 
17025 1 -1.87534 0.430809 4.20526 
6730 1 -5.83666 4.72997 -0.0819451 
6731 3 -0.207075 -2.87755 -0.0394895 
1133 3 0.11854 0.586957 2.09779 
1132 1 0.371219 2.6297 8.35043 
6196 1 2.41807 -4.70501 -3.15657 
18981 1 4.24712 2.04926 -4.64397 
6198 1 -1.07529 -3.44104 -0.854822 
6197 3 -1.88256 2.17947 0.841858 
14677 1 0.372389 0.495081 -4.8225 
14678 3 0.388665 -1.24627 -1.5682 
18980 3 -0.367118 2.70564 4.54618 
7883 3 -5.12364 -3.16784 1.4871 
1008 1 0.899812 -1.84193 -0.0965953 
9354 1 0.559981 2.10292 5.46477 
21549 1 0.846411 -0.724204 4.36925 
21548 3 -1.11112 -1.33134 4.63234 
4087 1 -1.40281 -4.841 -4.85194 
21547 1 4.3437 4.81849 2.55643 
4088 3 -0.405529 0.255094 4.47686 
17024 3 0.999237 -1.49148 0.974896 
17023 1 5.41634 -2.02235 -1.8922 
17261 3 1.38541 -6.61695 -1.77171 
17260 1 2.65729 -2.94686 -0.765891 
6947 3 3.04456 0.323045 -3.01502 
16460 3 1.91212 -5.24227 1.46855 
16459 1 5.0716 1.46338 -5.15553 
6948 1 7.00499 -2.35155 -3.91115 
16461 1 3.28538 2.06068 2.35067 
7545 1 4.69187 3.12789 -3.03407 
17262 1 -4.6765 -4.13162 -1.75046 
6876 1 -0.807908 -2.71089 -2.32577 
7503 1 -1.82511 3.85352 7.75561 
7501 1 -0.449497 7.46712 -5.01844 
7502 3 0.397313 -3.72263 3.04163 
6875 3 -1.46431 -1.39683 -3.86036 
6874 1 0.0777388 -0.256966 5.34838 
13776 1 -7.62517 4.38864 -6.35205 
12609 1 1.71363 -4.62503 1.71089 
15008 3 0.638686 0.545611 1.11475 
15009 1 -2.56165 -1.50193 0.387899 
15007 1 -4.6976 -0.54487 4.59765 
103 1 2.64535 -2.42464 5.83948 
1777 1 8.73552 -1.79937 3.19371 
9110 3 2.39886 -2.35156 -1.05046 
9109 1 -6.38395 -1.4203 0.799014 
105 1 1.92832 -1.14986 5.06293 
104 3 -5.15454 5.69471 0.507528 
12871 1 1.80557 -4.96694 -1.26281 
12202 1 -2.81532 -6.69051 0.14444 
12872 3 0.6545 0.226675 -1.66538 
12873 1 4.54969 0.189832 7.88462 
12203 3 -1.68927 -1.45367 -3.73059 
11935 1 -2.77942 0.0278401 1.86414 
18688 1 2.23735 -1.65415 -0.838372 
18689 3 3.05367 0.536908 2.62237 
7543 1 0.193281 -1.49172 6.33772 
7544 3 2.45779 -3.71806 1.66063 
11936 3 -3.17263 2.35151 4.4537 
18690 1 -7.1692 2.73131 0.959904 
13775 3 -0.28726 3.25118 -3.11663 
11937 1 3.24354 0.356413 -0.921721 
13774 1 -2.47011 2.75153 1.16014 
19697 3 -0.753651 -2.14231 3.07658 
19696 1 1.75216 -3.20727 0.285051 
1951 1 -2.43424 -5.63806 3.29256 
7487 3 1.89038 -2.02955 1.5251 
7812 1 6.65737 4.77378 2.11534 
19954 1 0.571699 2.45485 -2.12355 
18304 1 -0.748899 1.71194 -1.05052 
18305 3 -4.77278 -0.192178 -1.12121 
18306 1 -4.30215 -0.462181 -2.65532 
15901 1 1.42843 -5.45006 0.579882 
15902 3 1.6244 0.642268 0.363062 
7810 1 -3.1585 4.10889 1.64977 
17178 1 -3.27924 1.07066 2.83497 
17177 3 -2.15108 -1.47483 0.619363 
2166 1 1.83162 1.63746 -0.870264 
7486 1 4.90972 0.618851 -4.6653 
15576 1 -1.06434 0.577102 -5.94484 
15575 3 -3.37103 -2.11032 -2.14443 
15574 1 -3.62454 -1.75151 5.1485 
934 1 0.649841 -2.96845 -3.2578 
17799 1 -7.73529 3.38855 3.32598 
17798 3 -4.0479 1.39949 -0.172002 
935 3 2.15694 -1.0743 -1.35627 
10142 3 -0.496698 1.31125 1.85617 
10141 1 3.32468 3.33693 0.956359 
12928 1 3.757 -2.46849 -1.58658 
20314 1 -2.84772 4.29589 -1.47536 
20315 3 -3.97677 -2.92619 2.40354 
5913 1 -0.164324 1.62721 0.336599 
20316 1 1.07943 0.683658 0.286784 
5912 3 -0.0151172 -4.22662 -1.69656 
9362 3 -5.63235 1.25198 1.28351 
9361 1 2.32008 1.90988 -11.1269 
6548 3 -1.7258 -3.22752 0.72584 
6549 1 3.69375 2.17085 3.53018 
9363 1 -1.64194 5.81224 -2.059 
7811 3 -0.0939292 0.834266 -1.26185 
18693 1 -5.75939 3.75276 -3.62405 
3399 1 -5.03666 0.312493 4.09374 
3398 3 -1.11837 1.64185 2.77619 
3397 1 -1.05057 -1.74302 -0.280981 
2164 1 -1.89726 -5.5115 -0.774935 
2165 3 -2.42063 -2.10368 0.125275 
14740 1 1.62465 -0.82054 3.43212 
14741 3 -0.631962 -0.326103 -2.03175 
14742 1 1.66126 -2.5715 -0.556742 
7461 1 -6.94526 -4.2744 -0.529031 
7460 3 1.70144 -4.94532 1.9392 
7459 1 2.75648 9.13343 -0.601857 
574 1 -0.147606 3.46278 5.17266 
12929 3 3.54716 2.59748 -2.79925 
3475 1 2.33129 3.08101 2.93229 
3476 2 3.86987 1.65425 -0.965894 
5911 1 0.286136 2.3526 4.75516 
3477 1 -3.51255 -2.79911 2.66282 
21225 1 1.52669 1.63572 -3.26941 
21224 3 -3.06718 3.16473 -2.37075 
21223 1 1.27923 5.15747 -6.18174 
21321 1 -1.50359 4.21783 -2.4202 
21320 2 2.41816 2.00963 4.4741 
1205 3 6.04214 3.08314 1.18658 
1206 1 3.45731 -4.35232 -3.84513 
18886 1 -5.45146 -0.296649 -0.106591 
1204 1 3.73605 -0.318572 2.72656 
13917 1 3.24 2.11457 -3.33146 
1068 1 0.464097 1.04786 3.66518 
11274 1 -0.488894 0.78522 -3.39782 
1066 1 0.0598578 2.35605 -2.21555 
1067 3 5.06097 -0.846753 1.09125 
19301 3 -2.21925 -3.60052 0.263926 
19302 1 1.46396 0.124227 3.13082 
4092 1 -1.95017 -4.14628 -1.51663 
15235 1 -2.85233 -0.579668 4.67578 
15237 1 0.298378 -2.68279 -1.37821 
15236 3 4.23672 1.6638 1.72276 
12103 1 -3.45831 -5.9411 -1.67289 
12104 3 -1.70708 -0.646543 -4.5726 
12105 1 0.365448 3.87738 -1.26424 
19942 1 -4.25516 2.60997 4.48242 
2882 3 0.0606514 3.01398 0.876027 
2881 1 2.44465 0.28471 -3.25449 
2883 1 1.74582 4.00392 1.78355 
5974 1 4.5927 -2.38898 -3.48295 
5975 3 2.80332 -2.16186 1.81669 
5976 1 -1.9644 -0.803184 3.28355 
7479 1 3.55487 -2.12226 7.02406 
15156 1 3.55284 -3.61176 -1.53789 
6732 1 5.60005 -3.9743 -2.75259 
3060 1 -1.58277 -5.49414 -4.25043 
15155 3 -1.27969 6.457 -2.93001 
15154 1 -4.86544 1.96929 -5.56776 
18600 1 -6.11186 -1.58451 6.50619 
20267 3 1.01068 -1.4996 -1.45525 
18599 3 0.441373 0.334852 -0.0924518 
18598 1 -0.316556 -1.76763 3.28036 
20268 1 4.00881 -5.425 4.28542 
18979 1 1.72274 1.75207 0.395284 
1586 3 1.23369 -0.416843 -2.42261 
20266 1 1.2703 2.9197 6.10359 
1587 1 0.310812 -4.55364 4.81384 
1585 1 -7.21333 1.07901 0.413215 
19429 1 -2.19798 -0.36065 -1.60631 
6884 3 1.68501 1.86393 -0.660228 
6885 1 3.72167 3.80676 -1.31031 
19430 3 -3.25314 -3.16398 1.88546 
2163 1 0.191832 3.53282 4.01642 
7478 3 2.43851 -0.667352 3.73936 
7477 1 3.26096 0.67112 6.22484 
8646 1 -8.95088 3.27847 0.810101 
8645 3 2.02737 -3.94428 -2.46079 
8644 1 -0.849695 0.951795 -0.213885 
4089 1 2.74579 0.0258678 0.0206996 
2161 1 -2.30467 1.63354 -3.50326 
2162 3 1.41587 5.62022 -3.05849 
8847 1 -3.01305 -2.2259 3.90442 
8701 1 3.31463 -1.17269 0.0658457 
3059 3 -1.26392 -0.615329 0.328722 
3058 1 3.4968 7.63216 -2.7713 
10075 1 -4.54868 4.47689 -3.55041 
8703 1 -0.000306467 -1.37981 -3.6036 
17472 1 -2.27625 -2.93934 -5.42358 
17471 3 -0.394181 0.612441 -0.476074 
8702 3 0.854199 -2.09536 -4.51212 
17470 1 1.77609 -2.32612 -2.04463 
13789 1 4.61452 -4.91567 -4.43538 
10076 3 2.59407 2.64106 5.699 
17065 1 1.86914 -1.1983 -1.60852 
17066 3 0.816706 4.75688 5.32018 
6883 1 2.54132 -3.31092 -4.46845 
17067 1 -1.42385 -1.46443 -3.17401 
10077 1 1.85008 0.241195 4.31647 
5941 1 -2.74545 -0.607511 1.7258 
5942 3 5.5332 4.2517 -2.41602 
5943 1 -2.49295 1.98874 -0.992415 
10150 1 5.69395 2.88747 -0.891748 
12622 1 -0.712466 -1.55826 1.28938 
2378 2 -2.8788 -1.42261 -2.23004 
2379 1 -4.10632 5.13963 -6.15225 
15108 1 -0.976114 -0.543759 -2.29607 
15107 2 1.57566 -1.7097 2.11692 
17674 1 2.47625 -1.78228 -4.91822 
8845 1 0.0308897 -1.93166 4.52091 
8846 3 1.08253 3.03904 -1.76713 
2377 1 -3.46702 -0.880505 -0.855264 
17676 1 -3.53527 -0.0562439 4.059 
17675 3 0.803288 -3.74258 -5.89295 
19992 1 -0.964431 2.95034 4.29072 
15070 1 2.26841 -1.79423 0.271281 
12204 1 0.942712 4.04623 -3.27732 
16626 1 -1.46783 3.93047 3.15585 
9111 1 2.51064 -4.71384 3.94853 
12624 1 -0.804532 -2.39685 -4.06795 
15219 1 -0.767096 2.81542 -3.7166 
15218 3 -0.584309 0.102859 0.854509 
15217 1 4.83105 -2.14441 0.0300646 
19990 1 1.20668 -0.953101 0.629007 
19991 3 0.243644 2.24097 0.969732 
21219 1 3.69468 -2.48336 -1.89053 
7998 1 -0.634373 -2.3904 -0.632407 
7997 3 2.04009 6.50668 -2.9353 
21218 3 1.14468 0.576587 -0.237548 
12623 3 5.5763 -1.05193 -0.392597 
19049 3 -0.0784134 -0.0838454 1.87764 
2975 3 1.93059 0.691674 -0.19956 
2976 1 0.802139 3.18938 -2.42804 
19050 1 -3.67338 -2.96127 -2.88769 
2974 1 -3.99448 -0.619087 7.10188 
16764 1 -5.61921 -2.03879 -2.71944 
15106 1 -4.69357 8.05945 1.02918 
14578 1 -1.82059 1.99536 8.9204 
14579 3 0.514501 0.722199 0.674517 
14580 1 -0.362572 1.39096 -1.1719 
15072 1 -4.45048 8.36457 1.15363 
15071 3 -0.769347 3.19582 -2.88712 
3440 3 2.41309 5.3944 2.7676 
3439 1 -1.48029 -1.89894 0.584866 
15903 1 4.29452 1.39681 4.03521 
7996 1 -1.77586 1.57395 4.47429 
14845 1 -0.149791 0.0804575 0.393617 
14846 3 -2.95849 3.84949 -0.286975 
14847 1 -0.204106 3.0776 -3.44413 
2632 1 0.125915 2.1133 -5.08601 
19978 1 5.82889 -2.34976 1.94015 
2633 3 0.351765 -0.717311 1.31212 
21217 1 2.70948 7.61187 3.9978 
6453 1 0.443346 5.78825 3.2128 
936 1 4.50191 -2.51009 -2.39648 
8074 1 2.77568 5.16206 -8.91321 
17176 1 -0.0457291 -0.134576 -5.23968 
16762 1 6.3362 -2.01585 3.23731 
16763 3 -1.8973 2.958 0.665177 
6452 3 1.4092 -2.063 1.23478 
6451 1 -1.3508 0.5192 -0.896343 
21552 1 -6.12999 0.313046 3.5094 
21550 1 -1.77253 -6.71067 0.584714 
21551 3 4.66304 5.28314 1.57358 
7353 1 -1.68838 -4.74356 10.3453 
6547 1 -0.00929799 1.95643 7.75498 
3088 1 0.594043 -1.31214 4.09065 
3089 3 1.12489 -1.38577 1.1331 
5016 1 -3.35234 -0.802823 -1.84745 
3090 1 -0.537815 -3.32409 -1.12529 
8818 1 -0.735164 0.21247 1.15473 
5512 1 -7.32945 1.37275 -5.75303 
6580 1 4.44845 -0.356777 -2.05812 
5513 3 -1.93394 2.73637 -0.352431 
5514 1 -11.6337 6.34936 6.22885 
2634 1 -1.73403 6.90709 0.957866 
576 1 -0.498169 0.241663 -0.979704 
6581 3 0.795917 2.57084 -2.27075 
6582 1 0.0817774 -6.00471 1.02871 
8076 1 2.39795 -1.41794 3.62868 
8075 3 3.48225 1.19921 0.505051 
575 3 1.4829 -0.263403 0.140284 
2656 1 -2.88152 -1.66502 -3.61534 
2657 3 -4.32679 -1.53926 1.29144 
5946 1 -1.39007 -4.85944 0.0495401 
8819 3 -2.45437 6.4166 -2.36736 
8820 1 1.88667 2.07493 -2.93145 
21319 1 2.88363 -3.01738 -3.87572 
14113 1 8.94339 -5.4442 -1.85214 
18887 3 -3.94822 5.65106 -2.02682 
18888 1 -0.0585584 3.66333 -2.52563 
19512 1 4.70525 2.62019 6.1934 
19511 3 2.35739 -0.304555 -2.1179 
19510 1 -2.64015 -2.56691 0.616535 
2658 1 1.64763 -1.01672 -0.0284672 
11273 3 -0.533243 4.51108 2.49956 
11272 1 -0.749773 -6.58114 -0.455005 
5061 1 0.275367 -6.59175 -1.97427 
10053 1 -7.74214 5.83955 0.153326 
10052 3 -1.91208 0.248584 -3.42765 
11001 1 0.287947 5.54304 -5.02018 
11000 3 -2.81285 -0.568678 -3.67205 
9525 1 3.16242 3.72841 2.3436 
5059 1 -0.733686 -0.794677 -0.966739 
5060 3 -0.579636 2.65196 6.41335 
9524 3 -0.324944 3.58705 3.87487 
10999 1 3.5549 1.11337 3.76669 
2391 1 -3.97259 0.386693 0.785258 
13791 1 2.81011 -1.54253 -1.88691 
25 1 2.73855 1.98055 1.88792 
2643 1 -2.93834 3.11601 1.94665 
26 2 -2.05112 -0.0844227 -3.58446 
27 1 -0.679809 -2.46231 -4.77854 
2641 1 2.3536 -2.03697 -3.88823 
2642 3 5.22757 -0.960223 -2.57188 
13790 3 1.88654 1.99141 1.92373 
6017 3 1.2692 4.58571 1.80956 
16702 1 5.05083 -0.810457 4.40652 
16625 2 0.312741 -1.21109 -2.89321 
1167 1 -1.83349 3.16038 1.52724 
16624 1 3.40274 3.07623 -3.37452 
14137 1 1.54163 2.1521 5.64043 
1510 1 -0.0291709 9.02452 4.9024 
6016 1 0.806094 -5.28205 1.53268 
16703 3 -4.85606 0.924888 -0.706434 
16704 1 0.474988 -5.0234 0.309217 
14139 1 0.580545 -0.759556 -1.64645 
14138 3 -1.22957 -3.24175 -1.63652 
19048 1 4.03225 -5.92838 5.10926 
14194 1 0.20791 4.94053 4.39874 
455 2 -3.23672 -3.08735 -2.99879 
456 1 -2.31719 3.16532 4.02492 
3441 1 1.5632 -5.19167 4.27537 
454 1 -5.0416 -2.55341 1.06555 
1165 1 1.33392 -2.41816 -2.40761 
1166 2 0.954576 -0.813554 1.47541 
2522 2 -2.30862 -0.466085 0.944371 
2521 1 0.833976 0.751436 -1.08912 
13591 1 -0.781236 -3.31317 0.190674 
14824 1 -5.40972 1.26489 3.56701 
2523 1 -3.3207 4.14829 -2.47004 
14826 1 -0.558361 0.180741 3.69192 
19979 3 0.638164 -2.42167 2.74768 
18279 1 4.77876 -6.84148 4.49459 
19980 1 2.18216 2.70754 2.22276 
14825 3 0.59931 -2.38817 -0.705086 
18277 1 -3.87537 -5.49739 0.323284 
18278 3 0.047595 -2.4984 4.1978 
2362 1 2.71016 4.68195 -0.318207 
2363 3 1.00606 -0.219603 5.24089 
5015 3 -1.98251 -1.58413 -1.869 
5014 1 -2.06488 0.214373 -1.22826 
10461 1 0.126245 0.607612 -1.30401 
10460 3 -0.553098 -1.83906 2.96365 
10459 1 -0.727747 0.974992 -3.09435 
6124 1 -3.65238 6.27241 2.95229 
6125 3 -3.61994 -2.91032 -0.0492432 
17512 1 -1.26949 -3.66992 -1.36072 
6126 1 -3.08775 -3.46874 6.15926 
8194 1 -4.59124 1.03432 -2.31759 
5945 3 -1.71331 3.87713 2.49124 
12199 1 1.1423 -1.37031 1.28381 
2364 1 -0.285672 -0.703895 -3.62383 
17514 1 0.21227 -3.55308 0.525718 
17513 3 1.06263 -2.9892 -1.85842 
5944 1 -6.40098 -4.27853 3.19294 
8196 1 -1.75447 7.52803 -0.201431 
8195 3 -0.43263 -3.61133 -2.63227 
12200 3 0.705634 -4.29875 0.245956 
14115 1 -5.35611 -6.7927 -3.37209 
14114 3 -3.17331 3.9334 -0.602889 
11122 1 6.87208 0.446986 -2.64209 
11124 1 -3.83169 0.0528368 4.48301 
16784 2 0.0586235 -0.998275 -5.10021 
16785 1 4.22299 -0.438385 1.80175 
11123 3 -0.272357 -3.07036 1.03952 
10051 1 2.83373 -2.7133 1.47071 
1849 1 -1.44212 0.792682 -0.00479637 
1850 3 -1.06891 -0.813801 -3.75169 
1851 1 -7.32771 1.48478 -0.971178 
6046 1 9.82646 -0.729643 0.0778359 
6047 3 0.169794 1.1947 3.19629 
6048 1 2.82074 -2.53629 5.38327 
16783 1 -0.751806 -1.11984 0.435017 
6018 1 0.799408 -6.08506 6.66036 
1512 1 -1.03678 -1.77325 -0.207137 
1511 3 -0.927253 -1.01873 0.263964 
18186 1 1.96629 3.97536 10.3323 
18185 3 -2.19879 -1.69206 0.314424 
18184 1 -1.71988 2.49392 3.30915 
13593 1 1.36762 1.67651 2.1887 
13592 3 1.05265 -4.2094 3.21255 
12201 1 -0.479255 2.03698 -2.65007 
13840 1 -1.85972 3.23743 -0.762569 
14605 1 -5.50215 0.694154 -3.87381 
3896 3 -1.95082 -0.389088 0.464521 
3897 1 -2.75537 3.23479 1.55414 
14606 3 4.28225 -1.43755 -3.89839 
14607 1 -1.11341 -0.960734 -1.92794 
6 1 0.686333 -4.46068 3.80652 
7154 3 -1.83213 0.737473 1.23001 
7155 1 -6.09432 -0.61523 -3.87115 
20659 1 0.47661 -3.93429 -3.05034 
2077 1 7.87193 4.09793 1.28418 
2079 1 6.26119 5.41465 2.03289 
2078 2 -3.35519 -1.06912 2.82403 
16020 1 -5.47909 0.698652 1.04283 
14375 2 -1.15928 -3.01529 -0.919555 
14376 1 1.7424 2.16561 0.165623 
7449 1 -5.17294 3.54827 -0.900887 
306 1 3.66082 -2.51662 1.18221 
18015 1 4.91779 1.87399 -2.76437 
305 3 5.80791 2.7211 -1.72913 
18014 3 -3.05541 -3.80874 0.84508 
4349 3 -1.11248 0.185267 3.58277 
304 1 5.76478 0.43201 -1.40545 
4348 1 2.32929 -1.04172 -4.74537 
4350 1 -1.35675 -6.91294 -1.53201 
18013 1 1.97309 5.67269 6.10352 
4 1 1.6314 -4.46906 -1.00384 
5284 1 -2.00317 2.32305 6.37502 
5 3 -1.07178 2.46254 -1.85913 
21209 3 4.1141 -1.36821 -0.680567 
20141 3 -0.808725 1.69866 2.18903 
11481 1 -1.01172 -0.317392 -6.15747 
11480 3 2.56484 2.48214 0.284593 
11479 1 1.5287 -4.38903 -1.76931 
5595 1 4.81292 2.23752 -0.786367 
20140 1 -1.82714 0.339671 -0.777882 
18969 1 -2.90169 0.377927 -2.1565 
11069 3 -1.78122 3.4682 -1.57456 
5887 1 -2.41143 -7.55347 -6.43801 
7153 1 1.01648 0.213732 -4.4844 
5889 1 -5.38421 5.82883 -3.64336 
5888 3 -0.699809 -1.9965 -2.17037 
11070 1 -1.48138 2.59117 1.40447 
2862 1 0.253922 -1.10585 -4.5932 
2861 3 -0.329105 0.484165 -1.62605 
2860 1 3.56712 0.124834 -1.9503 
5286 1 -2.67593 -0.799389 -1.87271 
21208 1 0.422463 1.32477 -0.561899 
11068 1 -3.12339 4.592 0.753656 
5285 3 3.46902 2.03699 1.83136 
8521 1 1.9683 2.91695 3.07735 
20601 1 4.50724 3.85128 -3.09166 
8523 1 -2.93087 0.404146 -0.470051 
8522 3 -2.08956 3.53267 -5.64376 
16018 1 0.202797 0.968791 -1.61205 
20660 3 -1.40441 3.36337 0.107077 
5594 3 1.99968 -0.863471 1.174 
5593 1 0.335425 2.41372 -0.102015 
21160 1 3.50469 2.56436 3.44149 
16024 1 -5.13092 -0.205326 -2.49268 
21162 1 -3.38398 -7.59429 -4.60415 
18968 3 0.486189 -0.641318 -0.974433 
10435 1 -0.100506 3.78969 -1.68096 
20590 1 4.69742 -4.7958 7.18792 
18967 1 0.24661 -0.467148 2.67815 
21161 3 1.01068 0.0666304 0.152791 
10436 3 -0.892475 -0.210905 0.0385795 
16025 3 -1.09366 2.1525 -4.16585 
12630 1 1.43571 -2.67679 0.646536 
21005 3 -5.50379 -0.0535503 3.53219 
11553 1 -2.42562 -2.08415 1.40672 
21006 1 -0.335383 0.919384 -2.57428 
16019 3 -4.63219 0.947377 0.56674 
20591 3 1.46121 -2.61443 3.82239 
19837 1 0.399491 -2.13565 -4.31594 
20592 1 -0.0659391 2.31906 3.50196 
6240 1 -4.17749 0.133339 -3.13971 
20661 1 -2.56786 -4.38278 -1.98137 
13465 1 -6.70545 4.85339 4.53006 
19441 1 -2.52378 6.52075 3.3181 
13467 1 -0.630614 3.58446 -3.28855 
19442 2 3.34712 6.22125 -1.81184 
6238 1 -2.45952 -3.48772 -0.490089 
13466 3 -3.17942 -0.299932 2.91994 
6239 3 2.27969 -3.09421 1.92456 
16345 1 0.936553 0.615543 -1.08292 
16026 1 -2.38489 -2.18668 3.43282 
14374 1 4.83712 1.24004 0.442609 
19894 1 -3.05039 7.37546 0.0762943 
19838 3 0.92806 -3.28872 -1.08654 
16346 3 -0.534704 1.60299 6.21784 
19839 1 2.32413 0.233852 -1.70131 
16347 1 3.48196 3.32478 2.13329 
9883 1 0.879359 -1.82678 -3.50708 
19443 1 -4.1522 1.77101 -1.17392 
16734 1 0.245974 5.24246 -3.43053 
16732 1 2.72118 5.4176 -3.24661 
16733 3 -3.43818 0.330537 5.63618 
4896 1 -0.0703633 1.46171 4.34087 
7681 1 -1.7348 4.08986 7.5525 
5023 1 -2.52804 -3.12078 5.35204 
4895 3 -3.44081 1.66792 2.91465 
4894 1 -1.99131 -7.29112 -0.882231 
5392 1 -4.69631 -5.08167 3.02506 
5393 3 0.846047 -3.97707 -0.922152 
5394 1 0.655572 1.73051 -3.64032 
5662 1 -1.65658 3.42657 -1.63066 
20127 1 -8.47463 1.24056 0.681059 
13536 1 1.40604 -2.02151 -0.404693 
20125 1 -5.12322 -2.12086 -3.0002 
20126 3 1.69617 0.677242 8.1143 
5241 1 -4.33028 -7.20511 -0.818384 
12765 1 -4.48467 -1.24505 0.467344 
15912 1 4.97968 -1.03053 -4.43172 
13534 1 2.13683 -0.551419 5.07004 
19432 1 6.8221 2.79787 -0.306684 
19433 3 -3.03657 1.92685 3.47825 
19434 1 2.12032 3.23866 0.391095 
6369 1 2.61817 2.38247 4.58415 
4147 1 1.42817 -7.14133 6.97861 
12391 1 3.44382 5.29351 -3.60027 
17324 3 2.15849 1.13073 -2.20719 
17325 1 4.36629 -4.98748 0.281574 
17323 1 3.15245 1.29014 -4.95153 
4148 3 -1.53159 -2.10393 -3.25609 
3339 1 2.66094 -2.68468 1.64031 
13535 3 -4.32219 2.54823 -1.68356 
13078 1 -3.02929 2.32597 5.4296 
18210 1 4.35677 3.49627 6.15564 
15121 1 -7.27547 0.459881 0.11254 
12969 1 8.2224 3.01528 -3.10449 
11125 1 -0.611418 -3.01793 -2.2037 
18208 1 -4.90717 4.05051 4.38263 
18209 3 1.26641 -4.20587 -2.57274 
12764 3 -1.09361 -1.66828 -0.354815 
11126 3 -3.34082 -1.40767 1.70326 
11058 1 2.31527 0.814485 -3.47791 
3957 1 -0.632044 1.55565 -5.71433 
11056 1 -2.75381 -0.231401 3.11753 
11057 3 -0.0248509 -3.92644 3.52997 
3956 3 -2.16242 0.663945 1.80881 
12763 1 -3.92023 0.658816 7.79731 
6368 3 -4.10371 0.0308547 -0.0517046 
6367 1 -1.85927 4.37728 -0.305855 
10171 1 -4.01065 -1.06662 -9.07278 
10172 3 0.214948 -0.063345 -1.45342 
10173 1 0.322939 -1.53253 -3.22324 
6832 1 0.601899 1.49672 -6.21038 
6833 3 0.102905 -3.30247 1.52224 
19117 1 -2.23655 2.19693 0.525772 
12967 1 -2.38126 1.46378 2.19576 
15122 3 0.374799 4.45375 1.254 
8992 1 1.06678 2.35229 -5.16284 
15123 1 -1.35078 -1.1512 -4.90034 
8993 3 -6.52893 2.98947 0.830675 
8994 1 0.30332 2.82618 0.912294 
12968 3 -0.420491 3.25073 4.24192 
3955 1 -2.73466 0.933764 -3.2922 
19768 1 -2.77612 1.55751 -2.22719 
7887 1 -1.08011 0.629677 -3.73356 
19769 3 -1.99181 -2.27734 2.07728 
15599 3 0.0985249 -0.0492844 -1.25505 
19770 1 -6.18017 8.02468 2.97802 
15600 1 3.54869 1.16598 1.90448 
10068 1 3.67206 1.06386 -5.45594 
1908 1 -4.20432 0.898767 -0.566134 
3504 1 -1.49123 5.11002 -7.07812 
6564 1 1.63694 -5.84767 5.79961 
6563 3 -0.738007 2.86149 -0.35526 
6562 1 -4.31849 4.26299 0.69835 
18965 3 1.67497 -0.563015 0.222112 
18966 1 -3.82884 3.10121 -0.0135023 
15598 1 1.27808 -0.605223 -3.725 
18466 1 -4.44316 -2.91648 0.482012 
18467 2 -1.51364 1.97632 2.33515 
18468 1 1.91654 5.0185 -5.88834 
17223 1 -2.06539 -1.88444 -2.19377 
17222 3 -4.04798 -2.90817 -2.20265 