ITEM: TIMESTEP
30000000
ITEM: NUMBER OF ATOMS
1992
ITEM: BOX BOUNDS pp pp pp
0.0000000000000000e+00 5.0000000000000000e+01
0.0000000000000000e+00 5.0000000000000000e+01
0.0000000000000000e+00 5.0000000000000000e+01
ITEM: ATOMS id type xs ys zs
10847 2 0.671218 0.475079 0.325423
10846 1 0.673123 0.473273 0.333258
19184 2 0.570412 0.509747 0.324717
19185 1 0.577981 0.510947 0.329129
5005 1 0.58062 0.511455 0.330917
13705 1 0.613695 0.506356 0.325312
8475 1 0.615118 0.504362 0.327441
8474 2 0.617725 0.499578 0.332529
5873 2 0.627945 0.51053 0.305395
13706 2 0.610608 0.511289 0.319782
8526 1 0.641726 0.510317 0.328011
7726 1 0.634796 0.483455 0.332812
7727 2 0.641451 0.484881 0.32902
7728 1 0.648362 0.489602 0.326329
10643 2 0.658936 0.493217 0.32284
10642 1 0.650894 0.490726 0.325503
8524 1 0.63464 0.509076 0.314256
16138 1 0.642512 0.511456 0.330951
8525 2 0.639756 0.50716 0.320922
5872 1 0.633032 0.509608 0.312228
10848 1 0.672958 0.483139 0.323343
16053 1 0.669469 0.494877 0.318345
10644 1 0.665913 0.494317 0.319306
16052 2 0.676563 0.497363 0.317038
16051 1 0.68475 0.498703 0.317895
3037 1 0.69261 0.50511 0.330875
1941 1 0.694612 0.509447 0.31418
1939 1 0.692937 0.506435 0.328277
1940 2 0.694332 0.508729 0.32123
9228 1 0.563164 0.479088 0.354814
9226 1 0.56833 0.471162 0.351451
9227 3 0.560826 0.472343 0.354554
17133 1 0.571353 0.470923 0.350561
17132 2 0.579323 0.468504 0.349536
10774 1 0.582287 0.477164 0.343818
17131 1 0.5815 0.474643 0.34557
19601 2 0.595326 0.479485 0.361685
5174 2 0.63386 0.48133 0.359799
14087 2 0.657212 0.479831 0.342869
14088 1 0.656785 0.481453 0.351436
19585 1 0.674065 0.473148 0.335489
19586 2 0.678079 0.472665 0.342498
19587 1 0.677984 0.475498 0.350126
21253 1 0.522406 0.48204 0.334426
21255 1 0.534534 0.494189 0.336656
21254 3 0.52941 0.487426 0.337729
5608 1 0.536395 0.496921 0.336647
20617 1 0.568994 0.510494 0.355842
5610 1 0.546285 0.508455 0.337963
5609 2 0.540797 0.503137 0.337387
2917 1 0.549059 0.510438 0.33813
19602 1 0.600357 0.48242 0.356469
10776 1 0.591281 0.489751 0.33982
10775 2 0.5859 0.483595 0.339078
20618 2 0.57286 0.505291 0.35229
2978 2 0.590679 0.501264 0.353252
20619 1 0.580585 0.5032 0.351951
2977 1 0.583126 0.502668 0.352221
19057 1 0.595106 0.509198 0.359124
2979 1 0.594059 0.507024 0.357741
17345 2 0.615215 0.493955 0.34947
8473 1 0.617228 0.495773 0.339627
17344 1 0.616707 0.494793 0.342511
17346 1 0.617615 0.497784 0.356788
2493 1 0.6182 0.499647 0.358847
14086 1 0.65159 0.483543 0.337898
20939 2 0.635443 0.497102 0.34818
5175 1 0.633686 0.488044 0.353948
20938 1 0.634311 0.490668 0.352172
15856 1 0.657092 0.482583 0.354359
16140 1 0.641032 0.506606 0.343416
20940 1 0.639244 0.504039 0.344988
15857 2 0.65725 0.484904 0.361066
3039 1 0.691205 0.503895 0.345773
14896 1 0.663473 0.499537 0.347985
14897 2 0.667643 0.502965 0.34251
3038 2 0.691675 0.501499 0.337087
19483 1 0.671644 0.509925 0.336426
14898 1 0.670634 0.50827 0.338317
8788 1 0.627653 0.405224 0.392899
19600 1 0.589705 0.477818 0.368172
17101 1 0.612673 0.470626 0.367607
17103 1 0.606633 0.472629 0.383025
4240 1 0.606644 0.473346 0.386141
17102 2 0.608736 0.47 0.375198
5173 1 0.634216 0.475403 0.365121
18788 2 0.652765 0.457316 0.374889
18789 1 0.651504 0.461722 0.367961
18787 1 0.652197 0.456185 0.383546
15084 1 0.645775 0.477344 0.391929
4567 1 0.64455 0.478763 0.389685
19031 2 0.56751 0.498539 0.374706
19030 1 0.560646 0.495705 0.374184
6894 1 0.574278 0.50725 0.374696
19032 1 0.571984 0.505219 0.374306
20185 1 0.595165 0.507385 0.386675
20186 2 0.600672 0.502661 0.384145
2492 2 0.620332 0.503389 0.364179
2491 1 0.628593 0.502793 0.366962
2628 1 0.630822 0.502679 0.368131
20187 1 0.60655 0.503477 0.380186
15858 1 0.658538 0.490587 0.365576
2627 2 0.638609 0.502763 0.371741
2626 1 0.645315 0.501866 0.37529
18325 1 0.657118 0.504217 0.386128
18327 1 0.648224 0.501411 0.376463
18326 2 0.656689 0.500338 0.378818
17230 1 0.657398 0.505498 0.389311
4568 2 0.641226 0.48344 0.382644
4569 1 0.64207 0.488577 0.376308
7819 1 0.689616 0.503028 0.382376
15422 3 0.689049 0.500661 0.392688
15421 1 0.689691 0.502234 0.384927
7820 2 0.689848 0.50628 0.374698
2458 1 0.710397 0.506184 0.371556
10029 1 0.628337 0.382292 0.419611
10027 1 0.633041 0.376805 0.409933
10028 3 0.632133 0.376832 0.417661
8789 3 0.621855 0.404619 0.3988
8487 1 0.60202 0.396126 0.419039
20368 1 0.603781 0.396959 0.416498
20369 3 0.608963 0.400001 0.410349
20370 1 0.614602 0.401726 0.405304
8790 1 0.616524 0.402632 0.40349
7670 3 0.646961 0.400411 0.42007
7669 1 0.652598 0.404814 0.423435
189 1 0.599177 0.421962 0.409017
187 1 0.608698 0.423788 0.423621
8621 3 0.629601 0.42411 0.419503
8620 1 0.622703 0.423368 0.416371
188 2 0.60338 0.423727 0.416021
15284 3 0.656703 0.441978 0.411602
15285 1 0.653954 0.442642 0.418933
15535 1 0.652935 0.442764 0.42211
4323 1 0.64216 0.44805 0.420202
14172 1 0.678964 0.446584 0.397596
14269 1 0.681355 0.448092 0.397571
14171 2 0.671506 0.442191 0.398908
15283 1 0.662503 0.442615 0.405674
14170 1 0.664695 0.442689 0.403563
16778 2 0.681639 0.42874 0.413088
16779 1 0.677258 0.433824 0.408546
16777 1 0.679624 0.428316 0.420688
20343 1 0.679209 0.428518 0.42366
9626 2 0.707448 0.451188 0.42135
9627 1 0.70899 0.442073 0.419621
17465 3 0.596397 0.458165 0.412438
17466 1 0.589837 0.461916 0.414976
4241 3 0.607835 0.475269 0.394735
4242 1 0.607797 0.471794 0.40151
10408 1 0.608286 0.456876 0.412864
10409 3 0.616611 0.45623 0.411524
4398 1 0.62216 0.466775 0.411154
10410 1 0.621102 0.463825 0.411538
4397 3 0.624623 0.474758 0.410949
17464 1 0.604857 0.457444 0.413243
15083 3 0.648857 0.474331 0.398916
15082 1 0.651739 0.467624 0.403194
4322 3 0.636643 0.45343 0.417835
4321 1 0.635622 0.46049 0.421768
13459 1 0.635831 0.463282 0.423203
14270 2 0.688384 0.452507 0.399043
2501 3 0.668561 0.481682 0.416318
12635 3 0.673079 0.460364 0.418292
17939 3 0.690691 0.45911 0.424042
2502 1 0.663625 0.476568 0.421441
6999 1 0.662237 0.475441 0.422982
12636 1 0.666587 0.461416 0.414659
17940 1 0.682852 0.45931 0.421683
12634 1 0.679761 0.45974 0.420693
14271 1 0.696463 0.452204 0.398959
17938 1 0.69821 0.4557 0.422463
9625 1 0.700785 0.454391 0.421987
8367 1 0.528862 0.508479 0.419842
10650 1 0.525591 0.508239 0.419651
8366 2 0.537338 0.508855 0.421489
10649 3 0.516848 0.507499 0.418253
10648 1 0.513792 0.504117 0.411107
3610 1 0.55451 0.484879 0.399285
3611 2 0.550735 0.491264 0.396971
8365 1 0.544736 0.508281 0.422496
7761 1 0.548123 0.508232 0.423329
3612 1 0.552723 0.499138 0.39585
10705 1 0.553197 0.502398 0.395838
10707 1 0.56038 0.509971 0.398926
10706 2 0.554969 0.510092 0.395061
18792 1 0.562834 0.510071 0.400935
18791 2 0.569037 0.510367 0.405905
18790 1 0.574262 0.511765 0.412107
8558 2 0.630814 0.509407 0.398996
8557 1 0.629017 0.502817 0.40275
4396 1 0.625929 0.482472 0.408861
11901 1 0.628106 0.500685 0.403547
11899 1 0.62651 0.485229 0.407655
11900 2 0.626412 0.493218 0.405923
405 1 0.611126 0.497076 0.421136
13361 2 0.604597 0.511577 0.402565
17231 2 0.658622 0.50737 0.397779
17232 1 0.656183 0.507951 0.404615
12165 1 0.655698 0.507853 0.407395
12163 1 0.661474 0.505072 0.420331
12164 2 0.655534 0.50824 0.415275
2500 1 0.673093 0.487792 0.412039
20256 1 0.674859 0.490098 0.410137
20255 3 0.678359 0.4941 0.406335
20254 1 0.682894 0.49733 0.400673
2749 1 0.663671 0.50422 0.422542
15423 1 0.684649 0.498346 0.398505
2775 1 0.639063 0.380384 0.44449
2774 3 0.632592 0.381785 0.447964
2773 1 0.632383 0.389272 0.451225
11044 1 0.65532 0.384501 0.449406
11045 3 0.662096 0.388203 0.451529
8486 3 0.59864 0.394131 0.425811
8485 1 0.593535 0.392596 0.430995
1704 1 0.61917 0.399008 0.452816
1702 1 0.625209 0.398512 0.439847
18238 1 0.627485 0.398207 0.437503
1703 3 0.620941 0.399058 0.445977
14484 1 0.65443 0.406819 0.425496
18239 3 0.632465 0.39629 0.430996
18240 1 0.639441 0.397765 0.427504
7671 1 0.641982 0.398565 0.425509
14483 3 0.658258 0.411943 0.429201
9172 1 0.658073 0.420494 0.435161
14482 1 0.658022 0.41763 0.433569
11786 3 0.647298 0.399775 0.445183
11787 1 0.643079 0.405291 0.450198
17904 1 0.642022 0.407053 0.45209
11785 1 0.651748 0.393464 0.447952
2666 3 0.679661 0.411629 0.441226
3733 1 0.678087 0.404694 0.449258
2667 1 0.678566 0.406547 0.447127
2665 1 0.681109 0.419752 0.438614
11046 1 0.668549 0.393304 0.453947
8079 1 0.590957 0.444872 0.44925
10614 1 0.593165 0.443402 0.449832
10613 3 0.599619 0.439432 0.450889
8078 3 0.585071 0.448439 0.445922
15168 1 0.609855 0.423801 0.425947
15167 3 0.613833 0.423021 0.432242
15166 1 0.615684 0.424035 0.439107
20598 1 0.615752 0.424151 0.442017
20597 3 0.616146 0.422485 0.450002
13754 3 0.607685 0.443151 0.426115
13753 1 0.610384 0.435109 0.427937
18424 1 0.622909 0.451072 0.44659
18425 3 0.618352 0.444045 0.449193
13755 1 0.606734 0.450823 0.429121
10612 1 0.608199 0.440877 0.45035
18426 1 0.611375 0.441602 0.450237
8622 1 0.632311 0.423209 0.426825
9633 1 0.633111 0.423598 0.430242
9632 3 0.635434 0.42447 0.43828
15536 3 0.652524 0.442037 0.430088
9631 1 0.641357 0.42397 0.443616
9173 3 0.658534 0.427823 0.438922
9174 1 0.656029 0.434561 0.436086
15537 1 0.655238 0.436709 0.434674
10527 1 0.642138 0.436125 0.454083
18202 1 0.643002 0.438979 0.452657
18203 3 0.644301 0.446516 0.450338
20342 3 0.679577 0.429339 0.432198
20341 1 0.680871 0.422249 0.437042
6922 1 0.684005 0.443677 0.443512
7364 3 0.581182 0.465948 0.445564
7365 1 0.584302 0.45898 0.44624
8077 1 0.584941 0.455892 0.446464
7363 1 0.575407 0.468316 0.439727
9723 1 0.624537 0.453803 0.445702
7168 1 0.606212 0.453714 0.430251
7169 3 0.603055 0.461234 0.432844
3222 1 0.611029 0.469571 0.431902
7170 1 0.608314 0.46685 0.431907
9722 3 0.628206 0.46248 0.446323
9721 1 0.626844 0.4693 0.449641
6978 1 0.626276 0.471961 0.45109
3221 3 0.616983 0.474826 0.432102
3220 1 0.62078 0.481575 0.430196
3820 1 0.605371 0.476586 0.447205
18094 1 0.605219 0.474097 0.448958
18204 1 0.646328 0.453502 0.447614
11097 1 0.64672 0.456012 0.446344
13460 3 0.636522 0.469833 0.42741
11096 3 0.648897 0.464124 0.443554
11095 1 0.652622 0.468157 0.436335
6997 1 0.654128 0.469181 0.434254
6998 3 0.658623 0.471774 0.427795
13461 1 0.64301 0.473257 0.428355
11301 1 0.68175 0.474261 0.426235
3524 3 0.668226 0.461127 0.446353
3525 1 0.6754 0.457566 0.444607
3523 1 0.664833 0.463763 0.45277
6924 1 0.6779 0.45647 0.444205
6923 3 0.684955 0.452052 0.444217
275 3 0.684409 0.480438 0.450917
1552 1 0.704871 0.469123 0.434788
1553 3 0.711254 0.467763 0.440644
1554 1 0.709747 0.471743 0.447462
15700 1 0.708401 0.473672 0.450341
7760 2 0.555974 0.509068 0.425712
7759 1 0.562498 0.508215 0.43139
8752 1 0.564858 0.508452 0.433386
8753 2 0.571476 0.509923 0.438506
3187 1 0.61447 0.509448 0.45252
3189 1 0.610336 0.502988 0.439111
403 1 0.60975 0.501283 0.436403
14082 1 0.622112 0.483845 0.429781
14081 3 0.627751 0.490897 0.429753
404 3 0.608139 0.497669 0.4287
3188 3 0.611679 0.506499 0.446226
3822 1 0.60715 0.491041 0.445281
3821 3 0.604053 0.484396 0.443546
15230 3 0.629606 0.511706 0.430705
14080 1 0.635238 0.489938 0.430978
6304 1 0.637989 0.48959 0.43151
6305 3 0.64653 0.489422 0.432849
6306 1 0.653281 0.488294 0.436341
5926 1 0.65585 0.488035 0.437926
18336 1 0.638074 0.508345 0.454322
11299 1 0.690009 0.487903 0.428667
11300 3 0.686032 0.481974 0.425807
19946 3 0.683527 0.498327 0.440717
5927 3 0.662398 0.48779 0.442293
2750 3 0.669623 0.501729 0.428028
276 1 0.684882 0.482656 0.44315
2751 1 0.67473 0.4998 0.433861
19947 1 0.676764 0.499274 0.435763
5928 1 0.665584 0.489969 0.449066
19945 1 0.690486 0.496267 0.438745
3294 1 0.666192 0.490622 0.451804
12412 1 0.693315 0.495057 0.437763
12413 3 0.701259 0.492618 0.436571
12414 1 0.709009 0.494557 0.440165
6825 1 0.70702 0.498688 0.454194
429 1 0.618677 0.399334 0.455254
20596 1 0.618774 0.42128 0.457883
427 1 0.613018 0.405032 0.469003
428 3 0.615884 0.401859 0.461782
798 1 0.619817 0.421683 0.460745
10525 1 0.637715 0.42161 0.457915
17903 3 0.637762 0.410168 0.457816
17902 1 0.637123 0.418755 0.457793
15292 1 0.659141 0.396549 0.475483
15294 1 0.65581 0.407572 0.464583
15293 3 0.656169 0.401572 0.469837
16761 1 0.656444 0.409551 0.462247
16760 3 0.659129 0.416563 0.4572
21469 1 0.635992 0.420449 0.479139
21470 3 0.643451 0.418615 0.478795
21471 1 0.650775 0.418891 0.479948
11239 1 0.653415 0.419024 0.479991
11240 3 0.662054 0.418963 0.480375
3734 3 0.67598 0.399616 0.45536
3735 1 0.670848 0.394898 0.454685
3177 1 0.691013 0.420122 0.463898
3176 3 0.697012 0.415541 0.46683
3175 1 0.69537 0.414798 0.474785
2932 1 0.694791 0.414977 0.478012
20753 3 0.594412 0.450322 0.482671
1310 3 0.611138 0.42377 0.483014
1309 1 0.615755 0.422551 0.476499
796 1 0.617639 0.42243 0.47444
797 3 0.621963 0.421776 0.467957
13058 3 0.624884 0.442878 0.475892
20550 1 0.619166 0.450606 0.47041
13059 1 0.620697 0.448545 0.471703
13057 1 0.626987 0.438435 0.482331
6487 1 0.627822 0.436948 0.484814
10526 3 0.639242 0.429844 0.45862
17002 1 0.651589 0.441038 0.479252
114 1 0.649781 0.443197 0.476883
113 3 0.645327 0.447634 0.471605
16759 1 0.659723 0.423982 0.458947
4287 1 0.659948 0.427102 0.459547
4285 1 0.662033 0.441057 0.465577
4286 3 0.659338 0.434902 0.460898
10164 1 0.675202 0.430062 0.464429
10162 1 0.688116 0.42184 0.462947
1083 1 0.663368 0.44372 0.467097
1082 3 0.666638 0.450896 0.470548
10163 3 0.680801 0.425425 0.461392
12288 1 0.681761 0.441932 0.482933
12287 3 0.684452 0.449143 0.482624
9519 1 0.680538 0.438329 0.482535
9517 1 0.671697 0.424948 0.48211
11241 1 0.669184 0.422822 0.48221
9518 3 0.676855 0.430901 0.482527
2513 3 0.586949 0.464194 0.472157
2512 1 0.583233 0.471646 0.471437
19818 1 0.581749 0.474344 0.471254
20752 1 0.590969 0.455841 0.478027
2514 1 0.590069 0.45816 0.476058
19817 3 0.576924 0.480192 0.471261
6977 3 0.625082 0.478668 0.455305
20549 3 0.613753 0.45435 0.465871
20548 1 0.610473 0.460632 0.460299
18096 1 0.608841 0.463179 0.458784
18095 3 0.605637 0.46872 0.454848
1266 1 0.609086 0.477543 0.478939
112 1 0.641439 0.454876 0.469849
12756 1 0.640339 0.457254 0.468705
12754 1 0.631784 0.468614 0.463346
12755 3 0.637183 0.464402 0.466439
6160 1 0.65457 0.476737 0.460348
7033 1 0.652984 0.479148 0.459022
6161 3 0.659061 0.471017 0.463122
274 1 0.684988 0.477715 0.457261
1081 1 0.663658 0.457916 0.472278
2494 1 0.677484 0.470861 0.47731
15105 1 0.677646 0.471084 0.474614
15103 1 0.669295 0.470924 0.466232
6162 1 0.666561 0.471161 0.465858
15104 3 0.676835 0.470693 0.466572
12286 1 0.686898 0.457298 0.48164
15701 3 0.704898 0.47816 0.455878
15702 1 0.700751 0.481269 0.461534
19816 1 0.569904 0.482185 0.474342
6976 1 0.624894 0.48255 0.462842
18334 1 0.625307 0.501762 0.458744
1265 3 0.606429 0.482888 0.483866
7035 1 0.649706 0.493297 0.461007
18335 3 0.632478 0.503216 0.457291
18249 1 0.649017 0.511705 0.469137
7034 3 0.647479 0.485586 0.458032
18248 3 0.644758 0.510856 0.475931
18247 1 0.639544 0.50443 0.476727
4293 1 0.637988 0.501839 0.47669
16027 1 0.661148 0.488457 0.48311
5788 1 0.659792 0.48593 0.483869
4292 3 0.63434 0.494208 0.47824
12482 3 0.653626 0.511182 0.459258
8602 1 0.686462 0.510471 0.467776
8604 1 0.688355 0.508209 0.480944
4761 1 0.685073 0.510595 0.464479
4760 3 0.682478 0.51009 0.457442
3292 1 0.664763 0.499492 0.463966
4653 1 0.685514 0.487327 0.471952
2208 1 0.688477 0.486535 0.470687
16029 1 0.669541 0.493267 0.477855
4651 1 0.672047 0.492452 0.477101
3293 3 0.667468 0.49299 0.459981
4652 3 0.679645 0.490605 0.475896
16028 3 0.662904 0.495949 0.482064
6934 1 0.687924 0.506858 0.483296
8603 3 0.687989 0.511598 0.474924
6824 3 0.703273 0.503316 0.459334
6823 1 0.697368 0.506944 0.463305
2206 1 0.699309 0.48248 0.463401
2207 3 0.695726 0.484903 0.469304
18661 1 0.656606 0.3884 0.511558
19411 1 0.655003 0.385894 0.513414
10929 1 0.602237 0.415518 0.509409
9001 1 0.601767 0.415689 0.511889
10928 3 0.603677 0.414662 0.501676
10927 1 0.601443 0.416126 0.494603
9171 1 0.623479 0.418124 0.510091
14507 3 0.621894 0.408727 0.5148
14508 1 0.62319 0.415557 0.511606
18662 2 0.659557 0.395488 0.506579
18663 1 0.657374 0.402904 0.502306
13949 3 0.65353 0.411931 0.497873
13948 1 0.656217 0.405535 0.501072
13950 1 0.650108 0.418466 0.500946
12849 1 0.649286 0.421274 0.501858
10088 3 0.677822 0.404609 0.493224
10089 1 0.671083 0.400876 0.490191
10087 1 0.685189 0.408133 0.490759
2934 1 0.687432 0.40939 0.48978
21205 1 0.674766 0.418264 0.498839
2933 2 0.694182 0.41376 0.486691
7000 1 0.588027 0.4346 0.489672
7001 2 0.593468 0.429122 0.486252
7002 1 0.600359 0.426789 0.486402
8710 1 0.595314 0.439928 0.502439
1311 1 0.603151 0.425973 0.485826
20754 1 0.600867 0.446145 0.485177
9170 3 0.624827 0.424398 0.506177
8712 1 0.604698 0.447553 0.510376
8711 3 0.603005 0.443884 0.50289
6489 1 0.628997 0.429685 0.497809
9169 1 0.628255 0.427891 0.500441
6488 3 0.630257 0.434425 0.490893
17004 1 0.659496 0.429299 0.486423
17003 3 0.655221 0.436928 0.485757
12847 1 0.646281 0.436442 0.502992
10047 1 0.645901 0.439434 0.502332
12848 3 0.647829 0.42923 0.504198
10046 3 0.644742 0.447052 0.500507
18924 1 0.657283 0.451016 0.490055
11571 1 0.677044 0.448266 0.493794
11570 3 0.672168 0.447359 0.499423
11569 1 0.66607 0.450678 0.500756
21206 3 0.67185 0.425248 0.502703
21207 1 0.668306 0.431175 0.505933
10497 1 0.603347 0.467764 0.514284
19971 1 0.603214 0.466372 0.51154
19970 2 0.604587 0.464232 0.503695
16457 3 0.613769 0.456946 0.489151
16458 1 0.621525 0.455507 0.489071
19969 1 0.607852 0.460832 0.496886
16456 1 0.609279 0.459602 0.49479
1603 1 0.625281 0.455906 0.488734
10524 1 0.61858 0.47595 0.494551
10522 1 0.627932 0.478069 0.505673
10523 3 0.622079 0.477679 0.501078
3978 1 0.62988 0.47801 0.507584
5789 3 0.657019 0.478272 0.486036
1604 3 0.633089 0.457068 0.489433
1605 1 0.638772 0.454223 0.494179
10045 1 0.64035 0.452699 0.496073
18922 1 0.656622 0.466697 0.486979
5790 1 0.6568 0.469808 0.486462
18923 3 0.656961 0.459284 0.487572
3977 3 0.636534 0.477939 0.511857
2495 3 0.677746 0.469261 0.485521
11153 3 0.665769 0.468425 0.507792
11152 1 0.66707 0.477256 0.506052
11154 1 0.674583 0.468154 0.50661
13648 1 0.677387 0.467638 0.506441
13649 3 0.685344 0.468382 0.505162
2496 1 0.683728 0.465368 0.488706
6847 1 0.667507 0.479557 0.505608
13650 1 0.69017 0.475061 0.505106
19230 1 0.692082 0.477013 0.505319
20778 1 0.708474 0.466582 0.498019
20777 2 0.714838 0.46187 0.498285
20776 1 0.719852 0.455807 0.499406
1264 1 0.610007 0.487153 0.488242
2008 1 0.611257 0.489337 0.489718
2009 3 0.612788 0.49479 0.49525
2010 1 0.611578 0.501523 0.498839
4291 1 0.634339 0.489061 0.485562
17499 1 0.651296 0.503871 0.493616
17498 3 0.648914 0.498222 0.498612
17497 1 0.648001 0.490678 0.500822
6935 3 0.686265 0.502587 0.490029
6936 1 0.683394 0.501647 0.497384
6848 3 0.667616 0.487106 0.505524
2890 1 0.682113 0.501844 0.500576
2892 1 0.674726 0.496627 0.506434
6849 1 0.673093 0.493841 0.505817
2891 3 0.679632 0.503021 0.508467
17458 1 0.723227 0.483441 0.498597
17459 2 0.716266 0.483023 0.495575
17460 1 0.713003 0.487164 0.490871
19229 2 0.697726 0.483216 0.505685
19228 1 0.702913 0.489555 0.507296
11049 1 0.705336 0.491519 0.507897
11048 3 0.710694 0.497375 0.509279
11047 1 0.715359 0.501781 0.504893
19412 2 0.652206 0.38115 0.518074
19413 1 0.648543 0.373992 0.51915
9002 3 0.602036 0.415584 0.519804
14017 1 0.608027 0.412253 0.528049
9003 1 0.605927 0.413056 0.525845
14018 2 0.612634 0.409553 0.534708
14019 1 0.611786 0.407278 0.541833
14506 1 0.619249 0.402817 0.518928
19505 3 0.682075 0.430122 0.525048
19504 1 0.67923 0.425942 0.530333
19506 1 0.688289 0.431728 0.521204
10496 2 0.603376 0.472716 0.521556
10495 1 0.602951 0.476799 0.529722
3976 1 0.642503 0.480173 0.515204
5505 1 0.644824 0.480595 0.5169
6102 1 0.657311 0.460714 0.540058
6100 1 0.652886 0.473447 0.530822
5504 3 0.651907 0.480502 0.522076
5503 1 0.652655 0.475333 0.528604
6101 3 0.65533 0.465667 0.535457
15261 1 0.534979 0.606642 0.28535
15238 1 0.534835 0.634841 0.302317
7181 2 0.528704 0.563394 0.323868
7180 1 0.52372 0.555703 0.324021
10768 1 0.505054 0.583251 0.312771
10769 3 0.512175 0.583286 0.315004
10770 1 0.517733 0.586865 0.310643
16876 1 0.525312 0.578565 0.332947
16878 1 0.520291 0.593124 0.331891
3157 1 0.51951 0.59587 0.332175
16877 2 0.522851 0.585683 0.331734
7360 1 0.534158 0.621175 0.325774
3159 1 0.520495 0.610569 0.330007
13926 1 0.520928 0.613192 0.328835
13925 3 0.522546 0.62025 0.326486
13924 1 0.531159 0.621081 0.325927
553 1 0.529681 0.568089 0.348532
20099 2 0.515449 0.554503 0.34155
20100 1 0.509087 0.5596 0.342568
5149 1 0.524902 0.554355 0.34627
20098 1 0.522125 0.554657 0.345022
2490 1 0.529295 0.545361 0.360941
5150 2 0.531611 0.553238 0.350361
3158 2 0.518801 0.603202 0.334059
11502 1 0.512448 0.59431 0.353736
11501 2 0.512322 0.585878 0.351303
11500 1 0.516019 0.578193 0.351655
13575 1 0.513779 0.604339 0.35158
13574 2 0.511994 0.61157 0.355259
13573 1 0.513151 0.615067 0.362115
13390 1 0.525516 0.612395 0.359039
6616 1 0.527743 0.633691 0.342707
13391 2 0.5337 0.615144 0.358367
16241 2 0.529638 0.650091 0.359977
6617 2 0.533085 0.639178 0.345813
16242 1 0.531092 0.644796 0.354665
16240 1 0.521757 0.650786 0.362899
6618 1 0.531376 0.643277 0.352559
2488 1 0.533277 0.539451 0.374461
12376 1 0.534394 0.53761 0.376094
2489 2 0.531233 0.544754 0.369746
2676 1 0.515121 0.591285 0.376395
2674 1 0.528746 0.59314 0.370094
2675 2 0.522555 0.591565 0.376072
15729 1 0.533801 0.623835 0.374403
14869 1 0.534827 0.605062 0.378034
19469 2 0.524639 0.616816 0.387315
19468 1 0.530434 0.616544 0.393316
12390 1 0.51381 0.615861 0.364626
12389 2 0.514105 0.618005 0.371743
12388 1 0.518757 0.617663 0.377902
19470 1 0.520344 0.617368 0.380288
15728 2 0.530094 0.630524 0.374756
19120 1 0.52801 0.656197 0.388449
1780 1 0.527729 0.63851 0.381464
1781 2 0.525754 0.644989 0.386536
1782 1 0.527025 0.652959 0.387816
15727 1 0.528902 0.635985 0.379771
19121 2 0.530765 0.663861 0.387773
15642 1 0.532591 0.571138 0.404492
9739 1 0.513999 0.542669 0.398084
9740 3 0.51983 0.546429 0.395586
9741 1 0.523429 0.553122 0.3969
9880 1 0.524802 0.555551 0.39791
9881 2 0.52747 0.561862 0.401161
9882 1 0.531201 0.568585 0.403681
11106 1 0.53269 0.61609 0.395548
8445 1 0.532457 0.667175 0.416464
19548 1 0.535094 0.53098 0.437596
20508 1 0.624371 0.53395 0.292877
20507 2 0.624193 0.528241 0.298523
20506 1 0.624899 0.52037 0.302098
10450 1 0.607718 0.538528 0.29231
10451 2 0.600452 0.542047 0.293279
13976 2 0.647876 0.523788 0.297538
13977 1 0.640588 0.527889 0.29538
10428 1 0.560311 0.564683 0.290711
10427 2 0.566852 0.562279 0.294761
15760 1 0.57703 0.554828 0.294797
10426 1 0.574402 0.556673 0.295025
15761 2 0.583769 0.551047 0.29661
10452 1 0.593766 0.545921 0.295161
15762 1 0.591578 0.547355 0.295465
1790 2 0.58893 0.571724 0.288166
1789 1 0.597248 0.571182 0.287087
12137 2 0.622057 0.559168 0.287591
13787 2 0.607944 0.571246 0.285596
13788 1 0.613507 0.565282 0.286275
12136 1 0.615671 0.563795 0.286474
12138 1 0.62858 0.554926 0.289695
13786 1 0.600223 0.571021 0.286911
7102 1 0.630595 0.553592 0.29074
7103 2 0.635776 0.550436 0.294783
15149 2 0.653007 0.544678 0.301429
15148 1 0.645322 0.546511 0.297721
7104 1 0.643076 0.547647 0.297118
134 3 0.705423 0.549282 0.303023
133 1 0.701433 0.544227 0.298388
10603 1 0.538193 0.574449 0.300545
6396 1 0.553682 0.576967 0.287319
6395 2 0.561045 0.58136 0.285324
15399 1 0.550665 0.575904 0.288281
15398 2 0.543714 0.573308 0.291384
6394 1 0.564018 0.589094 0.286572
15397 1 0.539038 0.573675 0.297614
18939 1 0.564511 0.591832 0.287216
18938 2 0.565956 0.598728 0.289649
13310 2 0.580464 0.5815 0.301628
13309 1 0.584656 0.577532 0.296304
1791 1 0.585883 0.575753 0.294446
18937 1 0.572536 0.602286 0.290327
19188 1 0.575708 0.603178 0.290753
19186 1 0.588825 0.601624 0.297538
4205 2 0.61694 0.584368 0.302648
4206 1 0.622709 0.58429 0.297766
15259 1 0.548657 0.611357 0.290505
15260 2 0.541246 0.60922 0.287564
15239 2 0.542794 0.631994 0.300601
19187 2 0.582143 0.604522 0.293189
18050 2 0.599856 0.622588 0.301995
18051 1 0.600741 0.620548 0.293589
13734 1 0.579496 0.537358 0.304642
13733 2 0.573265 0.533665 0.306736
13732 1 0.569456 0.536776 0.312493
16716 1 0.578111 0.536085 0.332879
16715 2 0.572648 0.538531 0.328154
10866 1 0.596158 0.537657 0.320026
19183 1 0.569868 0.514461 0.318197
5874 1 0.625429 0.51757 0.303198
5589 1 0.605924 0.521331 0.319163
13707 1 0.607118 0.518463 0.319745
5588 2 0.602109 0.528718 0.317672
18131 2 0.627569 0.524863 0.325462
5587 1 0.598675 0.535168 0.319546
18132 1 0.621982 0.518975 0.32056
5347 1 0.610562 0.541752 0.324234
13975 1 0.651317 0.524623 0.304616
10942 1 0.634657 0.531885 0.321511
18130 1 0.633102 0.530317 0.322631
10943 2 0.638347 0.537093 0.31766
17407 1 0.654603 0.528056 0.324971
18463 1 0.654856 0.526726 0.32202
18465 1 0.652989 0.524545 0.307905
18464 2 0.655589 0.523631 0.315305
10944 1 0.63654 0.540441 0.312077
17408 2 0.65546 0.530448 0.33228
19384 1 0.676234 0.532015 0.31246
19385 2 0.680728 0.525881 0.314912
19386 1 0.677073 0.520094 0.320196
19485 1 0.675865 0.518342 0.322991
19484 2 0.674814 0.515017 0.330356
4959 1 0.67416 0.534542 0.311658
4958 2 0.668972 0.540184 0.307984
8761 1 0.538659 0.544632 0.322886
20811 1 0.5586 0.560087 0.316801
10449 1 0.560385 0.557757 0.318107
10448 2 0.564804 0.552745 0.319147
20810 2 0.554835 0.565783 0.312486
8762 2 0.542089 0.548525 0.329657
10112 2 0.546904 0.57071 0.332114
10113 1 0.554882 0.568996 0.333311
7182 1 0.536347 0.567039 0.323827
10865 2 0.592052 0.544698 0.320982
16714 1 0.570146 0.544815 0.323464
10447 1 0.568814 0.546838 0.32185
13584 1 0.578469 0.570254 0.317926
8677 1 0.580051 0.567878 0.316712
8678 2 0.584825 0.561761 0.316747
10864 1 0.589093 0.552631 0.319992
8679 1 0.588049 0.555047 0.319576
7237 1 0.600002 0.557985 0.313214
7238 2 0.608026 0.560926 0.31121
7239 1 0.609831 0.567295 0.31484
13026 1 0.610647 0.569514 0.31691
5348 2 0.617026 0.546099 0.32605
5349 1 0.623127 0.549678 0.328635
11218 1 0.64257 0.558924 0.331442
2877 1 0.640534 0.560167 0.329865
2876 2 0.634164 0.562887 0.32481
2875 1 0.636479 0.571195 0.323281
13447 1 0.675671 0.560727 0.307257
4957 1 0.662707 0.542988 0.304946
15150 1 0.660033 0.543531 0.304121
16959 1 0.675868 0.557537 0.331267
17380 1 0.676992 0.555897 0.329246
17381 2 0.681715 0.551742 0.325103
13448 2 0.669346 0.564741 0.310299
13449 1 0.669857 0.570793 0.316144
17382 1 0.688121 0.54806 0.327941
16132 1 0.70509 0.554858 0.314081
135 1 0.705523 0.553865 0.310961
16133 3 0.704638 0.55803 0.32112
16134 1 0.700197 0.562694 0.327043
17823 1 0.698443 0.564233 0.329181
13542 1 0.564651 0.602507 0.311963
17970 1 0.56589 0.600819 0.329747
13294 1 0.563338 0.58823 0.309788
13540 1 0.565317 0.590645 0.310584
20809 1 0.556105 0.573704 0.309656
13296 1 0.556552 0.57617 0.308608
13295 2 0.557624 0.58273 0.307468
11708 2 0.541275 0.590687 0.322541
17969 2 0.562434 0.59368 0.330901
11707 1 0.539585 0.584787 0.316622
10605 1 0.538622 0.58228 0.314221
10604 2 0.535804 0.577198 0.30751
11709 1 0.542892 0.595417 0.329247
4510 1 0.543097 0.597647 0.331573
13311 1 0.577666 0.579802 0.309206
13582 1 0.57615 0.578875 0.311738
13583 2 0.574095 0.575227 0.31906
21153 1 0.59591 0.583585 0.326217
915 1 0.595578 0.586434 0.324049
21152 2 0.595161 0.576185 0.331425
914 2 0.595135 0.591924 0.318615
913 1 0.594891 0.599921 0.316361
322 1 0.594783 0.603248 0.316074
13541 2 0.569912 0.596274 0.311096
13025 2 0.614224 0.575577 0.321578
4204 1 0.613657 0.577751 0.305101
13024 1 0.615517 0.578827 0.328794
20014 1 0.616433 0.580172 0.331432
10513 1 0.617074 0.600619 0.318805
21044 2 0.640466 0.581649 0.321774
21045 1 0.645735 0.582062 0.32807
21043 1 0.637342 0.574034 0.322917
11466 1 0.647259 0.581857 0.330429
14168 2 0.656005 0.596531 0.322779
14169 1 0.651335 0.601463 0.323977
14167 1 0.658862 0.590766 0.319458
10268 2 0.68824 0.596077 0.3177
10267 1 0.684398 0.599913 0.310973
9787 1 0.670297 0.573164 0.3178
9788 2 0.671452 0.578725 0.322678
9789 1 0.672632 0.5845 0.328036
6817 1 0.673164 0.587023 0.329854
10269 1 0.693785 0.595462 0.323734
20355 1 0.550942 0.613275 0.308537
20354 2 0.55705 0.609748 0.311431
20353 1 0.563384 0.604581 0.311878
11094 1 0.548452 0.625328 0.331714
7362 1 0.547032 0.623982 0.329376
11973 1 0.552539 0.633454 0.305611
15240 1 0.549854 0.633115 0.303842
7361 2 0.541481 0.620149 0.325
323 2 0.594695 0.611517 0.316688
18049 1 0.597438 0.618415 0.30873
324 1 0.596624 0.617204 0.310914
14043 1 0.567246 0.603756 0.329668
14041 1 0.575995 0.615626 0.330996
12457 1 0.578163 0.618053 0.331533
14042 2 0.569634 0.61107 0.329188
10515 1 0.613335 0.60975 0.330685
10514 2 0.616309 0.604002 0.325399
6853 1 0.648698 0.603737 0.324742
6854 2 0.642261 0.609108 0.32619
6855 1 0.63995 0.616088 0.322475
9343 1 0.638939 0.618746 0.321169
9344 2 0.637363 0.625942 0.317774
16281 1 0.686764 0.611121 0.330044
16280 2 0.680906 0.615452 0.329792
16279 1 0.674359 0.619503 0.331868
2743 1 0.671907 0.621626 0.33314
11972 2 0.559929 0.63409 0.310268
11971 1 0.566886 0.636636 0.311955
16924 1 0.570157 0.637711 0.312327
16925 2 0.577249 0.64014 0.312492
16926 1 0.584 0.64011 0.315499
16366 1 0.586458 0.639965 0.316314
16367 2 0.594456 0.638373 0.317917
16368 1 0.602292 0.637779 0.320435
7995 1 0.604845 0.637519 0.321082
7994 2 0.612953 0.637825 0.32209
7993 1 0.616454 0.638514 0.329869
14340 1 0.617994 0.639264 0.332678
9345 1 0.638172 0.634224 0.320494
7632 1 0.638187 0.636855 0.320896
7631 2 0.637634 0.644772 0.321807
7630 1 0.637406 0.652738 0.324933
15052 1 0.637754 0.65602 0.326068
15053 2 0.638409 0.663055 0.327802
10289 3 0.663083 0.657261 0.330297
10288 1 0.666596 0.658968 0.322281
7833 1 0.717886 0.640936 0.33053
15054 1 0.645632 0.668644 0.327201
2918 2 0.55501 0.51567 0.337909
21184 1 0.536134 0.531832 0.342869
21186 1 0.548156 0.536858 0.346589
2919 1 0.560729 0.519788 0.339135
13905 1 0.563373 0.521166 0.340247
21185 2 0.542237 0.531812 0.348255
20807 2 0.563495 0.541931 0.358642
8241 1 0.554529 0.519609 0.36339
8240 2 0.562503 0.519687 0.36027
8239 1 0.567747 0.512873 0.357168
115 1 0.580328 0.535413 0.334842
116 2 0.58726 0.5359 0.339723
117 1 0.59425 0.536893 0.340029
13904 2 0.569818 0.524865 0.343307