ITEM: TIMESTEP
80000000
ITEM: NUMBER OF ATOMS
3177
ITEM: BOX BOUNDS pp pp pp
0.0000000000000000e+00 5.0000000000000000e+01
0.0000000000000000e+00 5.0000000000000000e+01
0.0000000000000000e+00 5.0000000000000000e+01
ITEM: ATOMS id type vx vy vz 
7155 1 4.51704 2.10624 3.76664 
7057 1 3.29411 -2.29869 -0.598905 
16962 1 -1.96078 -1.99296 -0.303403 
16961 2 -3.97709 -4.40237 -1.73606 
16960 1 0.375538 -2.49655 5.22493 
7154 3 4.92708 0.0200699 -3.11576 
17517 1 5.89117 1.94155 1.01898 
7153 1 -0.472409 -3.47089 1.72383 
17516 3 -1.62328 -1.07617 0.833698 
17515 1 0.0660028 0.77105 -4.05777 
14178 1 0.341331 5.68595 0.839306 
14177 3 -3.82475 -2.21212 4.51236 
14176 1 0.248854 2.95603 0.778212 
13245 1 4.59562 -3.30536 -0.86279 
7059 1 3.22796 2.88193 -1.55925 
7058 2 -1.75628 3.63838 -0.842144 
14293 1 -1.90844 -0.255959 0.471485 
14294 3 5.6724 -0.696459 1.83918 
14295 1 -0.382457 -4.3635 2.19107 
7609 1 0.161908 5.41509 3.52089 
1166 2 -1.28573 -1.84997 0.450533 
17392 1 6.16622 -2.9 -0.669406 
549 1 6.69878 -3.35025 -2.25482 
548 2 -1.85215 -0.804172 2.50634 
547 1 0.695388 0.200965 -1.32337 
19469 2 -2.96395 1.5017 0.574013 
12388 1 -0.657785 2.22098 0.33658 
19470 1 1.91679 3.87473 -0.163296 
19468 1 4.70976 -0.342382 3.00524 
12389 2 -0.102376 1.73198 0.631555 
15259 1 -1.90884 -5.78638 -2.03508 
13244 2 -1.76741 5.69602 -1.08752 
13243 1 -0.0757026 3.76566 -1.30736 
20275 1 2.21016 -8.05897 -3.79128 
456 1 -0.190486 0.0719959 4.55509 
19422 1 8.53859 -4.9621 -0.413054 
16425 1 1.8094 -1.58925 -2.53414 
18892 1 0.582459 -3.67025 3.15083 
455 2 3.12699 -2.24616 0.872715 
20277 1 -2.47558 3.18138 -0.263504 
16424 2 0.543822 0.29758 1.13331 
20276 2 -2.34808 2.01707 -0.0948312 
3803 2 -0.912708 2.87993 -1.45021 
7611 1 4.17498 -3.05439 4.44291 
7610 2 0.819586 -3.99912 2.96079 
12390 1 -4.09101 -4.51021 -11.2662 
19420 1 -7.6766 -2.02239 1.4463 
19421 2 -0.865755 0.480532 2.19489 
13573 1 -6.03009 -0.50564 3.99632 
4265 2 -1.43283 -3.08827 1.10239 
4266 1 -4.51604 2.83066 -3.09986 
13574 2 -2.19949 0.223314 -0.0142584 
13575 1 -2.98513 -8.76282 -1.76239 
3802 1 1.52835 -0.622997 5.10734 
3804 1 -2.85638 -3.46229 -5.33353 
14389 1 -0.0807073 2.62566 3.42816 
2918 2 0.775753 1.13503 -0.32106 
7561 1 0.337049 0.731147 0.759072 
454 1 7.53212 -6.1147 -0.804115 
2919 1 -2.02794 -5.97539 3.35956 
13905 1 -0.5595 -3.31333 -0.69748 
1165 1 -4.42048 2.55267 -2.57309 
13904 2 0.236618 -0.185372 -0.121051 
7562 2 0.944189 -0.76083 -2.67664 
13903 1 -7.55496 -4.05173 -2.1173 
16786 1 -0.493013 -2.40682 -0.24044 
21254 3 0.830115 -2.53687 -0.526685 
2917 1 -2.36451 0.60895 -2.1827 
21255 1 4.22257 -2.49443 -0.167544 
5608 1 1.90021 2.40083 1.24635 
5610 1 -2.43168 7.50835 2.55804 
21253 1 3.47746 -5.88515 -12.1385 
5609 2 1.7191 -1.37887 2.90228 
8926 1 1.95526 -3.45711 -0.458006 
14014 1 6.24771 -5.09269 -0.838627 
7563 1 0.800646 -2.84468 5.35701 
14016 1 0.838256 1.54803 -0.617957 
14015 2 -2.51661 -3.36183 -4.58259 
2995 1 0.679505 3.72222 -5.06424 
11092 1 -3.91363 -9.25521 -3.64002 
11093 2 2.2244 -0.460939 0.350901 
8927 2 -2.59714 2.85845 -0.765217 
8928 1 1.40803 2.74079 1.83353 
6366 1 -0.124945 -1.43473 -12.1374 
13427 2 -0.682048 0.23042 -2.64303 
6364 1 -2.65628 -1.43467 -0.051052 
13426 1 3.79518 -1.81411 4.06232 
6365 2 2.473 5.85624 2.38686 
5828 2 -0.997074 -0.526726 0.64948 
21128 3 -3.20661 4.32899 -0.753801 
12999 1 -0.870283 -2.48298 -12.2118 
12998 3 -0.00766315 -1.38739 4.13684 
12997 1 0.98484 -2.42138 -0.971207 
13321 1 -0.970455 -3.39926 -2.0022 
13322 2 2.06103 -0.119029 0.928103 
16935 1 -2.4592 -1.23518 4.44419 
14034 1 -0.24717 -0.63664 1.6807 
4728 1 0.48848 3.87516 -2.10702 
5118 1 -2.89143 -1.63568 4.67783 
5117 2 2.37081 1.99698 0.763511 
5116 1 3.44646 7.39686 2.86108 
4727 2 2.43661 -1.06596 -1.8802 
4981 1 -4.13914 -1.76996 0.766 
11106 1 -0.9997 -4.25695 -1.87878 
11105 2 3.94355 -2.2309 0.694951 
11104 1 2.41899 3.67184 -3.3426 
157 1 3.85221 0.0409971 -1.78472 
158 2 -0.794617 -2.2438 0.923057 
7943 2 1.05021 3.10158 -1.76847 
10416 1 -0.759304 0.125772 6.91985 
21129 1 -0.773808 -1.25326 4.63041 
10415 2 -2.51147 2.55743 2.53586 
10414 1 -2.78329 -0.240078 -2.7401 
7942 1 2.58069 1.10422 6.68457 
7944 1 0.468985 -6.01564 -0.813565 
12021 1 0.0756494 2.48135 0.0634483 
19180 1 6.40106 -9.16755 3.37041 
19181 2 -1.69448 -2.49628 -4.29667 
2604 1 -4.24165 8.23985 4.06893 
21127 1 4.58611 3.26464 -2.959 
19471 1 2.53644 0.0892039 -2.54822 
19473 1 3.12751 0.0548171 4.96407 
19472 2 -1.09918 0.298206 2.57215 
12180 1 0.386186 -5.64227 0.957495 
12179 2 -0.372973 4.92865 -2.34231 
18893 2 1.68892 5.82673 -1.73858 
18894 1 3.26248 0.6743 -5.99893 
12178 1 -2.93351 -0.335057 -0.826308 
16354 1 -1.88678 -3.50721 3.18273 
16355 2 -0.881746 3.3601 0.352983 
16314 1 -0.101617 -0.25007 -1.06617 
16356 1 4.60407 -1.80631 -6.95809 
16313 2 0.714333 0.973555 0.66655 
16312 1 -1.63047 6.13704 7.46034 
5422 1 2.81465 1.17604 -1.72721 
5423 2 -0.202968 1.60982 0.860405 
19390 1 -1.69029 -7.24861 3.36031 
5424 1 1.36296 0.623658 -2.66359 
4264 1 -1.73143 0.0251419 -6.88284 
4983 1 4.66306 1.03579 2.64271 
4982 2 -0.643048 -2.88737 0.330763 
14390 2 1.98071 -4.29166 -2.35902 
954 1 0.145512 5.58015 -5.33409 
4512 1 2.81143 1.06311 0.137868 
14391 1 2.96314 8.78036 3.55296 
16369 1 0.727534 1.92054 -2.51163 
953 2 1.5676 -0.530396 4.10777 
19182 1 2.98741 1.22597 -1.10567 
952 1 0.141432 5.38536 0.823755 
16787 2 2.95013 1.84336 0.0537334 
16370 2 -3.06234 -1.81307 -2.63535 
14339 2 -0.223636 3.19408 2.72402 
14338 1 -1.53007 -3.26764 -4.61287 
16226 2 -0.906288 -0.203058 0.0887168 
7174 1 -2.397 -1.11074 0.417884 
19391 3 -3.23111 -4.84599 1.53398 
4511 2 -1.70676 0.392105 0.872401 
6236 2 1.51627 1.25397 -0.0855831 
6235 1 -2.23883 -0.038276 1.72772 
3924 1 -1.54574 0.428756 -7.6478 
4510 1 -0.804222 -0.474004 -2.56461 
11709 1 -1.18737 -3.97299 3.41994 
11708 2 0.864981 2.0199 -1.17109 
1323 1 6.88939 0.0951988 -0.64657 
1322 2 0.251629 -3.26402 -2.11534 
4564 1 -3.61239 0.803434 -0.105219 
9991 1 3.04491 1.95825 -0.870928 
6237 1 -5.61067 3.26329 4.15078 
16371 1 -1.56202 -5.54898 -1.76359 
2997 1 0.358229 0.578925 -2.76409 
9992 2 1.32882 2.15912 3.53004 
2996 2 -1.04296 -0.834886 -2.0472 
1321 1 1.70791 4.70256 -3.36562 
9846 1 0.58066 2.36173 -4.82948 
16799 2 -2.52984 3.91863 -1.94809 
16800 1 7.99421 -1.71222 -1.94353 
3923 2 0.909821 0.126036 -4.89804 
3922 1 -6.74382 -1.48382 -1.51204 
2929 1 -0.173629 -4.50529 -1.61801 
2930 2 -0.476126 0.510157 0.875743 
2931 1 2.82182 1.2147 7.98531 
1413 1 4.21877 0.903348 5.10406 
1412 2 2.28413 0.524375 2.68996 
1411 1 3.10479 0.174119 2.89964 
1254 1 -7.09092 1.98317 3.74095 
4590 1 0.353072 0.751633 3.325 
4589 2 -1.32876 0.793608 -0.0940546 
9845 2 -4.24233 3.61136 -1.08716 
9844 1 -7.32804 -0.211567 5.06785 
3101 2 -1.84316 4.19423 0.824226 
4588 1 0.183106 3.30952 -0.534741 
8363 2 3.30117 0.864784 0.082014 
3100 1 -4.05435 -2.8839 9.37724 
20926 1 5.6293 -3.69164 -2.09599 
11227 1 7.47597 0.883516 -8.80883 
17431 1 0.699772 -4.82197 5.15599 
11228 2 2.74187 2.84733 -3.14288 
17432 2 -4.42051 -3.2836 2.3891 
17433 1 3.83611 3.36315 -0.720573 
9100 1 -0.60245 -4.75971 3.57453 
9101 3 -1.19265 4.95533 -3.64198 
5629 1 -1.30963 -3.75056 -0.625218 
20038 1 2.65459 1.30708 1.33109 
9102 1 -3.05204 0.948114 2.09959 
12698 2 6.26174 -1.03793 4.17944 
1252 1 1.2524 -4.62774 1.54933 
12699 1 3.57962 4.96468 0.763218 
1253 2 2.15541 2.66006 -1.07782 
6440 2 -0.700022 3.76441 -0.589984 
6439 1 0.0553598 0.354899 7.11563 
14564 2 1.69282 -2.09157 0.59832 
14563 1 -3.14924 -4.57952 -1.60945 
5630 3 -2.82791 -1.61533 3.44976 
5631 1 -1.45311 2.07961 1.24982 
9640 1 2.14199 2.39791 1.61156 
9641 2 -2.12598 -2.23016 -0.203801 
9642 1 2.93804 -3.4331 1.15887 
20039 2 1.32256 3.47695 -0.940037 
20040 1 -1.98393 2.02937 -0.365415 
19387 1 1.73654 -2.46645 -3.10522 
3290 2 1.87583 2.54745 2.27841 
19388 2 -1.17617 3.03565 -5.04472 
19389 1 -1.78434 -1.32015 0.613389 
5829 1 4.67179 -0.848744 -3.69549 
5827 1 -2.94547 2.07506 -2.78094 
4741 1 4.22253 -4.12279 1.88711 
4742 3 -0.939944 -0.737946 2.64509 
4743 1 -1.17371 5.5307 0.527067 
3289 1 3.56638 5.97621 3.42107 
14820 1 3.35668 -1.86905 -2.63437 
15195 1 6.18582 -5.21823 3.21436 
15194 2 0.379131 4.45889 1.65478 
15193 1 0.705056 0.93932 -0.987969 
7704 1 -0.644378 -0.606277 -2.96623 
7703 2 2.5825 2.83798 0.0712685 
20985 1 0.892748 -3.17192 0.822156 
19350 1 2.02853 -0.379129 2.41628 
19349 2 2.1443 -1.89814 1.78928 
13323 1 3.53381 -2.74077 -5.42075 
19348 1 1.80541 0.811412 -2.79179 
2912 2 -0.801229 3.4005 1.19715 
2913 1 2.38963 -4.16799 2.78301 
13594 1 -4.90498 8.21866 -6.05119 
16934 2 -6.10357 -0.428512 -1.74336 
14884 1 -0.832804 -0.0807279 0.492724 
3265 1 2.66261 -0.444695 0.772042 
3266 2 -1.43448 1.47485 0.772496 
3267 1 -0.790921 0.244273 -3.26811 
16933 1 -7.65334 -3.04895 -3.37748 
13595 2 -0.0251006 0.0887956 1.21551 
17844 1 6.14462 -1.36055 -0.889786 
19114 1 -3.42857 1.89461 -1.08442 
7702 1 -4.2975 -1.94177 -3.5381 
2911 1 -7.95767 0.32255 4.32738 
17843 2 -2.42426 1.14328 4.17085 
9798 1 5.44883 6.07795 -1.93943 
17842 1 -1.03444 -2.62556 -4.56986 
9797 2 2.2001 -3.21425 0.834321 
9796 1 -2.71815 -3.48507 2.90954 
18050 2 -0.161058 1.92624 6.45754 
3458 2 0.324747 5.28772 2.24249 
159 1 4.41776 -6.37979 -0.64626 
3457 1 4.6147 -4.36911 -0.461572 
3459 1 1.77528 2.10972 1.84069 
5472 1 -2.24399 7.5158 -1.11874 
5471 2 6.75136 3.33518 -4.23854 
5470 1 3.93205 -1.1573 6.13548 
11650 1 2.98651 -1.61028 -7.83903 
11651 2 2.6247 0.703518 -1.85226 
11652 1 -1.30942 -0.218465 -0.901018 
8244 1 0.569144 3.60893 -3.31309 
8243 2 -0.00384399 -1.19206 -2.98337 
8242 1 2.14997 2.46923 -3.12524 
15342 1 0.97274 -5.54656 0.465411 
2602 1 -1.21711 -4.48683 1.1607 
15296 2 -0.718527 -2.23082 2.7333 
15297 1 2.81393 0.20414 3.24559 
6780 1 -7.03266 2.43341 -5.2814 
15295 1 -5.74689 4.53537 -1.03144 
2603 2 4.65668 -3.98755 -0.0507868 
16756 1 -1.78582 -1.34281 2.24703 
9747 1 -1.93211 -1.34899 1.58191 
12019 1 0.403775 -2.66003 -1.44483 
5626 1 -3.4359 0.341946 -7.67456 
9746 2 2.05959 0.522293 -3.1446 
5627 2 0.96682 -3.96721 2.59145 
5607 1 -2.21626 3.30813 7.98146 
9745 1 -1.64165 -3.71983 -1.79584 
5628 1 -0.412683 -0.538313 -7.05217 
5606 2 0.27423 -1.46402 0.537038 
5605 1 4.66096 0.792188 6.65703 
5146 1 -3.88807 8.28158 3.646 
12020 2 -0.55431 -1.50866 0.482965 
5147 2 -3.21688 -0.859856 1.09233 
12256 1 3.21083 4.56464 4.50429 
5148 1 -2.78898 -4.68642 -1.08682 
10804 1 -3.51505 2.72472 0.926796 
6779 2 -0.738142 3.31096 1.3068 
16225 1 -3.71231 2.34721 -0.107418 
6778 1 2.1669 -0.205636 4.70606 
12257 2 2.75328 -0.465279 -1.94787 
7176 1 -5.14118 4.66096 -5.69071 
7175 2 0.274606 -1.58885 -0.928938 
12258 1 -2.49745 -6.72686 -2.72947 
15118 1 -1.16755 3.76611 -0.759977 
4917 1 1.09922 -0.680294 0.38641 
15119 2 1.00233 4.65534 -7.61261 
15120 1 -0.943145 3.61233 -1.016 
16757 2 6.02284 -2.19568 -3.70762 
15494 2 0.820987 -0.202642 -1.08968 
15493 1 4.48785 1.73623 0.624481 
16758 1 -7.22303 7.33815 -2.38482 
19392 1 2.16954 -3.21848 1.71067 
10806 1 -2.28856 1.49977 -2.33247 
5418 1 1.79578 4.44887 0.0361758 
13782 1 1.19925 0.529987 -1.97312 
2473 1 1.58158 1.0691 -1.76541 
5417 2 -2.44034 -0.510891 -3.82387 
13781 2 5.22687 3.41175 2.0575 
13780 1 -0.200275 5.99593 1.62913 
5416 1 3.53045 0.621806 3.1419 
2474 2 2.20394 -0.692162 1.25398 
860 2 3.89192 -1.48805 0.776731 
10805 2 -2.8535 2.33104 1.52238 
5340 1 -1.21979 2.58836 1.30382 
15729 1 -0.234392 2.2853 1.67048 
5339 2 0.137541 -1.67434 3.63624 
5338 1 2.64113 4.11025 0.604712 
861 1 5.8699 -1.64976 2.70307 
10605 1 1.42844 4.56248 3.15674 
11707 1 2.90149 1.55203 1.77079 
19796 2 -3.16895 3.3895 2.14448 
9993 1 3.15878 -2.69132 2.09428 
859 1 6.64615 -3.3331 4.14052 
19795 1 -3.32509 1.81027 0.18081 
10708 1 1.21556 2.15479 -3.66906 
10709 2 1.75517 2.90138 -2.16142 
20004 1 1.92066 1.91545 -1.90897 
20002 1 -1.65407 -6.21369 6.91539 
20003 2 -1.30983 0.78329 -0.755139 
20829 1 -4.97702 -0.176303 -7.87503 
4565 2 2.02174 -2.41643 -0.785878 
10250 2 -0.389593 -0.98878 2.64081 
4254 1 -1.22769 2.3787 -3.86697 
16798 1 -3.37412 0.20952 -3.45849 
10249 1 -0.365742 -1.50853 -0.322632 
20778 1 0.0960331 -2.12853 -4.38519 
20777 2 -1.5927 2.48968 1.40189 
20776 1 -10.91 -12.7337 -1.61264 
11229 1 2.97795 6.71108 1.08863 
15398 2 2.58146 1.94471 0.187161 
15399 1 1.81752 -3.63631 -6.1014 
10251 1 1.02326 -0.938582 0.0615848 
6396 1 -5.56159 -1.50083 -4.67382 
10604 2 0.68973 3.75225 -1.48527 
10603 1 2.5473 -0.468625 -5.97139 
15397 1 0.0457117 4.49944 1.47613 
2358 1 2.03571 2.67993 2.91572 
2357 2 0.155441 -3.69666 -0.554733 
2356 1 -6.07621 2.94475 -0.896585 
7191 1 -5.34455 -2.05948 -6.42716 
7190 2 -3.96404 -2.25985 -0.248753 
8388 1 -1.01945 2.69198 0.551247 
7189 1 -0.113005 -2.01037 3.48295 
20828 2 4.34565 -4.32159 -0.52477 
6575 2 -0.484981 -1.87876 -1.14421 
8362 1 -0.474268 0.687267 -1.51785 
3102 1 -1.51966 3.04224 1.32293 
8364 1 -0.593844 2.46936 -0.988913 
20947 1 1.89713 -2.19006 2.56433 
6574 1 3.36396 -0.653331 -0.826541 
20948 2 0.257983 0.328932 -1.70586 
20949 1 2.21463 3.73352 -3.01183 
4975 1 -2.98273 -5.66311 -0.532705 
20827 1 7.20683 -1.25208 -1.59981 
4976 2 -5.30196 2.41404 -1.848 
20870 2 -1.11418 -0.496056 -5.4134 
20871 1 -3.98359 -4.26226 -1.02764 
9326 2 -0.928417 -0.15926 -1.06011 
18177 1 5.74393 -2.50619 1.72952 
18175 1 -0.804043 -1.22623 -2.07652 
18176 2 -1.17363 -0.0816925 -0.705875 
20869 1 -0.427715 -0.805607 -0.151317 
12697 1 -5.66082 -0.0549357 -0.818018 
17739 1 0.771605 -1.22855 -1.58362 
6374 2 0.303003 -1.30375 -1.5744 
17738 2 -0.804287 1.80956 -3.01787 
6375 1 0.272478 -1.24543 5.6241 
2203 1 -1.76584 -2.41844 3.51683 
2204 2 -2.26589 -1.72058 -1.50764 
2205 1 0.817747 2.48672 -7.35701 
17439 1 -5.16182 2.60583 3.12828 
17438 2 0.443553 -4.01747 -2.03842 
17437 1 -3.6181 3.21912 0.134062 
13350 1 1.36096 1.28227 1.93498 
13349 2 0.165772 2.73722 -1.5889 
16404 1 -1.88784 -1.23185 3.62369 
17737 1 1.01548 -1.67812 7.09217 
21538 1 1.9022 2.68634 -1.11624 
21539 2 3.20672 -1.91698 -2.29803 
21540 1 -2.45254 5.86763 3.14105 
13348 1 -4.49514 1.24984 -4.97086 
16403 3 -1.12969 0.0803555 -1.59992 
3291 1 -2.67698 -4.71968 -4.98831 
20609 2 4.07408 0.169243 -1.12038 
20610 1 -0.0705965 -1.62173 -4.87338 
14565 1 1.66594 5.26392 -5.22427 
1363 1 -0.818343 2.29842 -3.36406 
1364 2 -4.20473 5.13726 -1.72901 
6913 1 3.29631 -2.99392 -3.96522 
6915 1 -8.70997 -7.51027 0.584821 
1365 1 -2.27325 1.16264 2.82832 
4312 1 2.93518 7.72691 -5.53842 
6914 2 3.21894 2.94121 0.338546 
4313 2 4.12462 3.61248 -3.25844 
585 1 -1.07365 -4.27807 -1.43895 
16402 1 -0.606098 -3.52034 -1.09808 
584 2 1.01576 0.88763 4.76034 
583 1 1.64288 -0.902571 -4.83805 
13430 2 -2.67594 -0.183928 -1.10564 
3639 1 1.87135 -0.576684 -5.6253 
13431 1 -1.0566 0.428971 1.88202 
3638 2 1.00808 2.28885 -2.73094 
7763 2 -0.368785 2.63435 -3.1519 
7764 1 2.02244 5.6728 -3.22242 
7762 1 -3.15522 -1.55607 5.36163 
13596 1 -3.41896 1.03687 2.53911 
3637 1 -6.61992 0.530319 -1.22364 
17385 1 -2.87657 3.49033 2.0267 
15795 1 -0.957889 -6.1673 4.30762 
15794 2 -2.84798 1.7108 -0.863568 
7972 1 -4.18127 1.63364 -4.49489 
3612 1 -1.41017 3.91192 2.50242 
7973 2 -2.38249 -7.88419 2.16892 
7974 1 2.42013 4.1098 2.29829 
12703 1 -2.16163 0.903857 -2.72041 
10705 1 -1.52015 3.96367 -0.0617004 
10706 2 -2.99547 -3.56995 -0.824386 
20984 2 1.82053 -1.36549 -1.49683 
20983 1 -6.90732 5.83636 -4.78109 
20095 1 0.848601 -0.795606 0.495786 
20096 2 0.595376 0.825679 -1.10018 
14886 1 -3.34238 -10.3927 -3.24238 
3611 2 -0.333087 2.28701 1.25742 
3610 1 -7.00225 -0.571699 1.90257 
20097 1 0.572007 1.46881 -7.00477 
3640 1 -1.4388 -5.3147 -0.62777 
14885 2 -0.915037 1.24519 3.18834 
18333 1 -2.37057 -3.59827 -1.4478 
18332 2 3.68134 2.72852 1.43889 
21560 2 -1.20841 -2.23644 1.96558 
19654 1 0.364503 0.367488 -3.03841 
21561 1 -5.46472 -1.73856 -4.57572 
19656 1 -4.40249 0.289415 -6.86704 
19655 2 -5.5084 -2.7902 0.729759 
21559 1 1.71678 -0.00929886 1.7498 
2439 1 -3.87478 -5.97168 -11.9039 
18049 1 0.164562 -2.74228 2.01431 
15793 1 -6.99344 0.739866 2.18335 
18051 1 -2.90106 -3.25059 1.2077 
324 1 -0.971462 -1.14091 -1.28663 
323 2 -1.75021 -2.04854 0.414698 
9492 1 -1.17883 6.90118 -1.58072 
322 1 -4.60059 2.87235 2.49881 
12704 2 0.676329 -0.463047 0.828061 
12705 1 3.80122 6.57756 1.21914 
3285 1 -3.8834 2.95407 -2.54984 
3284 2 -2.22085 -3.47535 -6.34269 
20679 1 2.98355 -2.09392 -0.72072 
18790 1 -0.897671 -0.0508805 6.33492 
20678 2 0.328023 0.699037 1.76463 
3641 2 -1.53973 -0.040351 2.69167 
3642 1 -7.36878 -0.162574 2.62716 
3283 1 3.54831 2.13318 -5.47004 
16494 1 4.52787 1.57427 -3.22989 
16493 2 -1.88149 0.377573 2.05332 
4929 1 -2.01085 1.68665 4.30026 
16492 1 -4.9165 -10.3728 1.12426 
9590 2 2.00857 -3.93191 -3.01722 
14758 1 3.03854 2.28333 -4.15097 
9589 1 3.11025 -0.789854 4.6247 
14759 2 3.83927 2.6033 -4.47333 
15341 2 -0.682971 4.56368 0.946074 
2437 1 8.27292 -1.31421 4.06805 
14760 1 -0.547854 4.5486 2.73336 
15340 1 -1.84038 3.06779 -3.35281 
9591 1 -4.27374 -0.461164 -2.95875 
2438 2 1.86111 2.07464 -0.525575 
7380 1 -7.42043 5.22565 3.36022 
7379 2 -2.59044 3.28865 2.71777 
16062 1 0.798217 -0.981801 -1.83563 
11963 2 -0.0288489 -3.32358 -1.6167 
16061 2 -3.16572 2.2858 0.607777 
16060 1 6.45613 -0.993187 -1.53392 
11962 1 -1.91837 -0.490373 -1.32501 
2258 2 -0.254324 -3.76227 0.336568 
2257 1 -2.09692 -5.60411 2.81362 
12750 1 2.80331 2.54613 0.329242 
12748 1 -1.41575 3.35582 4.20818 
11964 1 -5.85162 8.86775 -0.271895 
2259 1 0.965481 3.06634 2.46039 
21442 1 3.46002 -10.0307 -1.81508 
18499 1 -6.86587 -2.10077 1.41194 
18500 2 -1.62553 4.00693 -0.339162 
20677 1 -2.92915 -0.0356122 -3.52153 
826 1 -0.419883 3.9515 -0.160897 
827 2 -0.494128 3.26011 -0.0914839 
828 1 5.57729 0.457461 2.59666 
4065 1 3.23303 -6.05441 -3.54219 
4064 2 -1.47839 4.89639 0.189534 
21444 1 -1.39656 -1.90864 0.00130628 
21443 2 1.33951 0.176583 2.39412 
17868 1 1.94683 11.3951 5.55415 
6520 1 3.74963 -1.59533 2.89911 
6521 2 -1.65811 -0.993889 -2.60856 
17866 1 1.2971 -2.11646 -0.493479 
17867 2 -2.61196 -1.38749 1.26138 
2475 1 -3.27295 -5.11028 1.9327 
4927 1 -1.47635 1.20077 -2.04331 
9756 1 -1.45599 4.40247 3.14614 
4928 2 -4.30796 -3.15242 -1.67177 
1199 2 0.749767 -3.9381 1.86323 
1200 1 -8.41936 -2.30779 0.783055 
5809 1 -0.744356 -4.37322 -2.10347 
10941 1 -2.68264 -6.01043 1.02215 
1198 1 -0.845359 0.808753 2.90418 
15087 1 -1.33934 0.115413 1.87363 
15086 2 -2.33255 -1.38276 0.319718 
15085 1 -4.33001 -0.252652 8.37903 
1465 1 0.173016 -1.36422 2.49809 
1466 2 0.0617268 -3.87426 0.345091 
1467 1 -0.346204 -2.05699 -6.9315 
7378 1 -5.33145 -1.106 -3.21875 
5810 2 -1.49629 -3.99953 -4.293 
2488 1 -4.0761 5.37635 1.61666 
12749 2 -3.0635 -2.77665 -1.69704 
12376 1 2.69814 -3.63724 3.59758 
12377 2 2.89269 3.85561 -2.78008 
18313 1 4.51522 -0.886218 1.63376 
12378 1 4.48118 -1.96874 -3.2097 
15495 1 1.15831 0.650714 -3.03959 
4281 1 -2.38337 1.95713 3.59367 
4252 1 -3.62172 5.91785 2.11505 
16846 1 -7.49822 -0.120856 -0.16508 
4063 1 2.40091 4.1096 1.42233 
16848 1 7.61997 -1.47933 0.719372 
4279 1 -1.79372 -4.18226 1.71132 
8356 1 -5.00625 0.737775 3.11975 
4280 2 3.21336 0.121525 -4.20052 
4253 2 1.10059 1.08918 2.72695 
14325 1 -6.92795 1.68835 0.105683 
4912 1 -0.469212 -2.58471 0.800033 
4913 2 -1.39342 -2.84625 0.83895 
16847 2 -0.41083 -2.32032 -2.81114 
15727 1 -4.45204 -0.0980664 -0.168291 
1780 1 0.984538 -2.22062 -7.67973 
1781 2 -3.62502 -1.79774 -4.31954 
19120 1 2.52405 1.97066 1.96195 
1782 1 3.31631 0.641615 -0.260039 
15728 2 -1.75972 1.33577 0.806012 
9982 1 3.3408 -2.10298 0.306189 
268 1 -1.21407 -3.82497 3.89171 
18315 1 -2.10602 -1.59962 3.6668 
6646 1 0.539599 0.840123 1.91837 
6647 2 3.36868 -0.344151 8.63738 
6648 1 -0.897643 -0.897084 -4.22453 
5811 1 -3.53581 0.380717 -1.01889 
18314 2 -3.63693 1.64683 -0.19163 
10710 1 -0.632369 2.36489 -1.06561 
13392 1 -0.768966 2.12968 -1.85301 
13391 2 1.85418 -1.18002 -0.709487 
20098 1 4.92519 3.24511 6.07529 
20099 2 4.66588 -0.44696 0.0205589 
14324 2 -2.43331 3.70305 -3.04165 
14323 1 0.63187 5.12344 6.81096 
8842 1 1.61454 -0.253943 -2.64494 
8843 3 -1.84724 4.21353 2.23063 
18938 2 2.64697 -3.54409 -0.491574 
19121 2 -0.740001 1.08227 -0.199787 
6395 2 1.21204 0.644004 -3.5834 
6394 1 5.98047 -1.23666 4.83365 
18939 1 -1.74 1.76062 -3.18548 
19122 1 -0.667985 -1.06466 0.429503 
8387 2 0.389464 0.237368 -2.12832 
269 2 -0.358585 -0.879907 -4.12936 
14066 2 -2.14246 1.1581 -4.59883 
14065 1 -1.64281 5.07252 1.87667 
20206 1 -1.99383 1.60561 3.03166 
270 1 -5.63165 -2.54504 1.07323 
8386 1 2.34026 -0.538678 2.51217 
20207 2 -0.0910454 -0.675006 1.62628 
18832 1 -0.188761 2.31695 9.3719 
20208 1 -0.279871 1.57569 -4.5866 
9610 1 -2.23764 -1.69863 1.2218 
7249 1 -2.61687 2.08157 0.138729 
13390 1 -0.649792 4.41191 0.211492 
5149 1 0.956629 1.49585 -2.57708 
18833 2 -4.51955 4.83844 7.06829 
18834 1 2.34374 3.99295 -2.41251 
4977 1 -0.627438 4.15899 0.194303 
20698 1 -3.12805 -1.16773 -1.96839 
5150 2 -2.14226 -0.656685 -0.425321 
7840 1 -2.98935 -2.90013 5.05932 
20699 2 -1.84696 -2.47522 5.47102 
20700 1 -0.129552 -0.224984 0.46982 
6576 1 -3.16625 -4.03385 -2.36172 
21451 1 4.65364 4.10223 4.09973 
8844 1 1.71407 -2.3575 0.414452 
21452 3 -1.80633 -4.31403 -3.75187 
21453 1 -3.20049 0.667823 -2.88331 
11701 1 2.67295 -4.38617 -1.28762 
11702 3 0.145175 -0.517039 2.65303 
16094 3 0.866255 -2.87667 1.08549 
14130 1 0.35752 -5.16448 -3.58201 
16093 1 0.849927 -1.18944 2.97787 
16095 1 -6.51431 4.25327 2.60102 
14129 2 0.385232 -0.695273 -3.77905 
19186 1 -3.90208 6.01652 -7.09385 
6373 1 2.58337 -0.608587 -1.15897 
15112 1 2.20025 -2.50274 -2.69663 
9327 1 6.12231 -1.33959 -3.02433 
18937 1 -1.3038 4.15614 -6.70887 
19187 2 1.06579 0.845797 0.65274 
19188 1 5.48819 2.12396 3.03119 
15113 2 0.432782 2.53141 1.36024 
15114 1 3.26899 -1.15602 4.05167 
19368 1 3.24467 1.87798 0.186997 
19367 2 -1.73219 -0.189043 -3.31166 
19366 1 0.791926 3.87312 -3.57344 
18261 1 0.22468 1.0353 -3.65741 
7250 2 -1.03794 -3.53527 0.338454 
7251 1 1.70283 -3.35687 -5.82676 
6274 1 -1.40778 0.687288 -2.83445 
6276 1 -2.17443 -1.0051 -0.0442411 
6275 2 -2.76736 0.152768 -2.01069 
18259 1 -1.15549 4.61172 0.270704 
16608 1 -1.18235 1.01171 -1.39187 
18260 2 3.84518 0.726091 -1.99244 
13890 1 -7.10249 0.755152 2.08352 
17244 1 -3.04591 -2.3252 -2.90585 
9325 1 0.607383 -1.29266 4.85187 
11703 1 -1.2599 0.951067 0.686482 
17243 2 -1.49919 -0.957466 -2.23932 
17242 1 5.15104 1.13061 2.65977 
17403 1 0.861252 -2.18431 5.78386 
17402 3 -2.0535 -4.49511 -3.54517 
15676 1 0.0253901 -4.69339 2.31138 
1243 1 0.657332 -2.73293 0.737129 
1244 2 1.97402 -1.08847 -1.08606 
1245 1 -0.0146887 0.354988 -3.39962 
17436 1 0.293304 5.99309 5.41213 
2025 1 -1.51933 -0.891075 2.43698 
4314 1 -3.91003 -4.24989 0.772655 
17434 1 0.695684 -2.63401 -2.34127 
16607 2 4.5198 -0.816607 -0.676329 
17435 2 -2.42071 -0.160183 2.19417 
16606 1 -0.966193 0.163209 0.960028 
8088 1 1.99691 1.04247 0.576203 
2024 2 1.69812 5.39952 0.369236 
16603 1 -2.54747 1.54358 -5.43497 
16604 2 -1.00456 -0.793303 -0.731676 
17466 1 -7.73053 6.45578 -1.72966 
17465 3 -1.63267 2.80016 -0.158045 
17464 1 -4.88604 0.693263 -4.07682 
19660 1 3.74067 2.55717 5.09413 
19661 2 2.27719 -3.21907 0.67384 
14961 1 -1.43787 1.44113 -0.382001 
19662 1 -0.760374 2.28178 -2.06011 
14960 3 -0.794801 0.880395 -6.34612 
14959 1 2.45904 -0.253826 -1.03786 
8199 1 2.81136 5.16893 6.71148 
8198 2 5.72601 0.0243862 -1.4957 
16705 1 3.68009 -2.54389 0.490584 
16207 1 3.82862 -0.589253 0.0821954 
16209 1 -5.5881 -0.0894093 -4.56753 
16208 2 -1.99766 -1.66311 5.01687 
15666 1 0.300206 1.62709 3.24505 
15665 2 -4.18138 2.04409 0.339049 
15664 1 2.98769 -3.27452 5.31025 
16707 1 -0.0281829 -0.78114 -1.67185 
16706 3 -1.9265 -4.71047 -2.4167 
5334 1 -2.29826 2.05535 1.64048 
5333 3 2.26615 -1.72104 1.90614 
8783 3 -0.144294 0.350057 -0.0481349 
8784 1 -1.93162 7.55092 1.06657 
13429 1 -3.16845 0.445113 5.37643 
10677 1 -2.9678 -0.304525 -0.894812 
10675 1 0.771856 -1.68643 -1.28818 
10676 3 2.50935 -0.674488 -0.717449 
6954 1 0.508504 1.69726 -2.15216 
17745 1 0.774374 -2.91865 3.86636 
17384 2 -3.07005 0.596312 -4.17211 
17744 3 2.00486 -1.97152 6.79741 
17383 1 -1.37116 -1.88747 2.9668 
17743 1 0.99422 5.78777 1.77038 
20222 2 -1.73788 1.5724 1.25246 
5332 1 -1.51952 1.4059 6.50813 
15747 1 -1.08597 4.49371 1.40061 
2750 3 -1.00018 -3.01707 -3.07972 
12164 2 -2.94966 -1.49993 0.498375 
12163 1 1.49628 3.30936 2.47986 
2749 1 -1.42683 2.39742 4.55395 
20884 1 -1.5527 2.48359 2.20685 
18331 1 3.90263 -1.68319 -2.3155 
17451 1 4.17766 -6.0911 2.55244 
17450 2 -4.40253 2.90327 -1.52644 
8965 1 -7.38952 3.21345 -7.3366 
17449 1 -3.95064 -5.2576 -2.87956 
9433 1 5.95284 -4.38559 -3.66193 
8966 2 4.52351 -7.00368 -0.8401 
20221 1 -2.76327 -0.546032 -2.64871 
9435 1 0.49343 0.0564115 -0.831332 
9491 2 -3.85616 -0.473579 -3.51058 
6317 2 -3.58542 3.02441 -0.0739411 
6316 1 -7.18674 2.99919 1.23422 
9434 2 1.80369 -1.08232 0.14199 
9490 1 -1.88118 -2.20965 2.91166 
6318 1 -4.95628 -3.07473 -0.0713021 
2398 1 -1.87424 2.53648 3.03133 
18792 1 -0.700399 5.95912 -0.857053 
10707 1 -0.125975 -5.44976 1.90427 
6392 3 -1.0047 -7.52529 -3.08555 
6391 1 2.34344 -2.22095 2.29812 
20886 1 9.40155 -2.58304 -5.12285 
18791 2 -1.63863 0.0756811 0.986101 
20885 2 -2.46978 0.319708 -0.868984 
5278 1 -1.48788 4.19495 -1.42098 
5280 1 2.05985 -2.69896 -4.84813 
5279 2 0.389221 -2.28788 0.890942 
7821 1 3.46063 1.28456 -5.693 
7820 2 -1.93572 -0.515118 2.72767 
12165 1 -1.25238 -2.724 4.30568 
18325 1 -3.89501 -4.07898 -5.3934 
17232 1 1.50984 0.0277224 0.199275 
17231 2 0.118746 4.05685 -4.31509 
17230 1 5.74297 5.94086 5.08849 
5784 1 -2.32868 -5.09427 3.39208 
18326 2 4.2445 4.15912 2.30831 
3243 1 10.7267 -4.03023 -2.98704 
5783 2 0.552524 1.10488 3.18827 
5782 1 3.08052 0.753461 -4.16568 
3241 1 3.68794 2.35574 -6.96124 
21457 1 -0.413268 7.79652 -1.5713 
6214 1 3.41833 0.10671 -5.51608 
21458 2 -1.08384 -0.635908 3.77879 
13197 1 9.29648 -1.79663 -2.99722 
3242 2 -3.56242 -0.558468 -1.65514 
13196 2 -2.32124 2.37884 0.74781 
18501 1 5.70355 8.63778 0.731359 
7567 1 0.188916 0.0384016 0.585581 
7569 1 0.861109 2.48029 -1.97787 
2720 2 -3.9232 -0.718786 -1.0189 
2719 1 -0.263041 -4.42613 -2.15832 
7568 2 -1.0897 -3.51934 2.32379 
19971 1 -0.879005 3.64523 -1.45955 
10497 1 -0.593098 4.1228 -4.03003 
10939 1 -2.84002 1.23969 3.34484 
9268 1 1.73015 0.71386 4.73866 
10496 2 -1.63926 2.52766 -0.185999 
9269 2 -1.22845 1.83529 -0.672309 
1741 1 -1.89995 0.646728 -5.493 
9270 1 -2.16274 -4.28824 -3.09475 
6522 1 1.45874 -0.993671 -0.5298 
10495 1 -2.40765 1.83549 -1.22187 
10940 2 -2.68561 -0.3911 -3.78708 
9755 2 2.2669 1.02788 0.00817698 
19822 1 -3.3538 0.144648 5.318 
19823 2 -3.8317 1.57064 -0.823373 
19824 1 1.98697 5.04545 0.652394 
9754 1 -7.4665 1.79467 -6.00462 
18327 1 -3.258 -5.95491 2.68679 
2626 1 1.1322 -5.47201 2.26271 
2627 2 -4.94846 -2.65517 -6.17357 
1853 2 7.47649 0.849358 3.08326 
17069 2 4.86464 -4.11462 -4.69947 
17068 1 6.2504 0.604961 -3.66975 
1854 1 2.45179 3.13367 4.97872 
1852 1 0.699037 3.61426 -0.85727 
12517 1 2.42797 -0.92631 5.33565 
17070 1 -0.461831 -1.94282 -10.5172 
683 2 -2.89363 -5.00001 -5.74429 
684 1 5.10147 1.05692 -1.87812 
21459 1 1.43663 5.96055 1.15565 
8144 2 1.29658 0.0743301 -1.60046 
8143 1 5.82299 -0.463429 4.15056 
18868 1 -0.910097 -1.81228 -3.34634 
18870 1 -4.76094 0.618193 -1.87212 
16694 2 -0.256649 -1.01104 1.15789 
18869 2 -0.588555 -1.79671 3.66418 
14625 1 -2.15259 -3.14224 5.93489 
16695 1 3.83909 3.21824 -2.65086 
2540 2 -2.67432 -0.333328 1.04573 
2541 1 -0.284443 -0.478943 -4.99353 
4914 1 2.19251 2.88499 3.20597 
2539 1 -0.83082 -2.72152 -2.82186 
10988 2 -1.52137 1.61834 -3.76316 
10989 1 -2.64378 5.54707 3.30995 
8357 2 -1.31139 -1.67054 -2.01413 
10987 1 -3.04867 -0.897089 3.57682 
8358 1 2.62181 2.79437 -3.23616 
6421 1 -4.96004 -6.43145 -1.61151 
18265 1 0.0453958 -0.832688 6.201 
18266 2 0.720001 -0.603421 -2.8926 
18267 1 3.47166 -6.36377 -5.64533 
1285 1 3.36219 -0.517995 3.61018 
9983 2 -2.25225 0.238206 -2.8723 
6422 2 -0.865914 -5.26933 -0.742606 
9984 1 -4.04715 0.733452 0.293722 
16080 1 6.46485 -3.18177 -4.75265 
1286 2 -1.90738 -3.84111 -2.13351 
16078 1 1.07061 -1.56384 3.02808 
1287 1 3.38775 0.310034 1.08337 
16079 2 3.0653 -0.993959 -2.15972 
7504 1 -4.77962 2.09355 3.72062 
11389 1 3.97531 3.76172 0.140657 
682 1 -1.20179 2.52039 -4.01266 
553 1 -4.54722 -0.544827 -1.94685 
554 2 -3.55515 -1.89937 1.40386 
5625 1 -4.74512 -0.712026 -1.07199 
1545 1 -5.14973 -4.22606 1.25857 
5624 2 -0.345819 -1.61515 -2.42383 
1544 2 1.19553 -1.27507 -0.173211 
8145 1 0.124074 0.700276 1.1354 
1543 1 -3.77609 -2.5449 -0.632759 
555 1 0.502886 0.0686445 -1.00056 
17345 2 0.338015 1.37404 0.745398 
20100 1 5.77692 3.73491 -2.62134 
13354 1 4.57536 2.80127 2.6823 
8023 1 9.94323 -1.57114 4.18439 
15323 2 -3.49399 2.26726 -0.958139 
15324 1 0.704844 -6.63017 1.80083 
17344 1 -0.473723 8.49947 3.98621 
13355 2 1.71325 0.0323955 -0.55371 
6045 1 5.16629 -8.09777 5.91559 
6044 3 -0.478132 -0.370189 1.27438 
20956 1 -0.820531 1.76511 -1.4206 
6043 1 3.58245 -0.284842 1.45281 
7665 1 -4.11322 3.72107 1.76962 
7664 2 -0.312926 0.640107 2.12418 
7663 1 7.21285 5.87077 2.98943 
7505 2 -3.00817 -1.38315 -1.505 
16280 2 -0.504879 2.91473 -2.38701 
20200 1 2.26246 -6.21232 -0.020864 
7506 1 -2.22648 -0.846732 -3.7063 
12409 1 0.435461 0.81383 -5.47012 
20201 2 -0.0985247 -3.62015 -6.06474 
20202 1 -1.60588 6.13698 1.98812 
16281 1 1.23464 -3.11355 -0.763035 
14128 1 -11.5279 0.146786 0.905078 
14067 1 -0.681611 1.10092 -4.69812 
12410 2 -1.80638 2.94605 4.10898 
12411 1 1.36854 -3.02946 6.86396 
13504 1 1.93719 7.47564 -0.664788 
13505 2 -0.0791826 1.96052 1.19569 
13506 1 3.80623 4.11325 1.46815 
13587 1 0.856981 -2.9226 -0.616905 
18816 1 1.43298 -1.21803 3.82628 
18815 2 2.41867 1.04124 -1.34264 
13586 2 3.04157 -3.05803 -3.64208 