ITEM: TIMESTEP
80000000
ITEM: NUMBER OF ATOMS
2487
ITEM: BOX BOUNDS pp pp pp
0.0000000000000000e+00 5.0000000000000000e+01
0.0000000000000000e+00 5.0000000000000000e+01
0.0000000000000000e+00 5.0000000000000000e+01
ITEM: ATOMS id type vx vy vz 
19283 2 -6.70255 -2.71238 0.784955 
11499 1 0.941922 -2.03454 -5.13118 
15326 2 -4.77587 2.48721 1.91279 
15325 1 0.741382 -2.44129 2.96138 
11497 1 2.81538 3.98074 0.622679 
11498 2 3.23278 -4.66747 0.730845 
9526 1 3.12318 -4.45683 6.47464 
17479 1 6.16781 0.790619 -3.84632 
9527 2 -0.426201 -3.7043 1.69786 
14721 1 -1.75037 -0.889376 1.75309 
18845 2 0.872891 3.68961 -0.226588 
17480 2 -6.67956 -4.23289 -4.60671 
18844 1 1.89243 8.41709 -5.56331 
20568 1 6.39035 3.47242 -3.68041 
9528 1 -4.05911 -5.80148 2.15978 
13777 1 -4.68639 1.15111 -1.07411 
19282 1 0.920508 -5.42048 2.26377 
13778 2 0.362612 -2.57168 2.51333 
13779 1 -5.74494 1.51752 6.43202 
4604 2 1.90639 0.726613 -0.340486 
253 1 2.23442 -1.13088 3.99066 
4605 1 -2.25055 -4.01232 1.2083 
4603 1 -0.423646 0.420349 4.00958 
14567 2 -2.46621 4.44993 -0.191219 
14568 1 -5.03941 3.21412 -0.957452 
1326 1 -2.66551 -2.18856 -7.92851 
1324 1 -7.48125 1.05816 1.25676 
1325 2 2.91446 -3.12984 -2.74139 
37 1 -1.45598 -0.191507 3.23013 
16684 1 6.71979 -1.47013 -1.81958 
284 2 -3.26716 3.04532 -2.65462 
283 1 1.63852 -1.70546 -2.68282 
14720 2 -1.09707 -4.05837 0.65834 
14719 1 -5.71737 4.19533 -0.343095 
17673 1 -7.84295 3.34157 4.09639 
17672 2 -0.229819 -0.21037 -0.348042 
16685 2 0.664507 1.50982 3.49516 
20567 2 -1.39818 1.438 -1.02729 
20566 1 4.21907 -4.23009 5.63278 
11690 2 1.09797 -0.452559 -0.501367 
11691 1 -4.49191 2.07906 2.83283 
17671 1 -4.19947 4.48128 -4.30661 
19212 1 -2.29553 5.7145 1.31286 
19211 2 4.57856 -0.954598 2.1553 
11689 1 -2.38177 4.53059 3.96029 
16719 1 -4.30438 -1.62196 0.394711 
7668 1 -4.9053 -2.95021 -0.728143 
7667 2 2.3812 -0.397631 0.843648 
7666 1 -8.7251 -4.72615 -3.39131 
16717 1 1.83174 2.54331 3.09522 
5779 1 1.11081 1.62071 -1.07617 
5780 2 1.64189 -4.0674 -0.250597 
5781 1 -1.238 -0.549641 3.44841 
14982 1 1.38266 1.86597 5.26175 
14566 1 4.98693 0.136373 5.54163 
16718 2 0.702756 0.662997 -5.62294 
14981 2 2.91919 -4.47204 -0.181712 
7699 1 -2.51248 -3.60903 0.360154 
20744 2 -1.5907 -0.779939 3.54419 
18705 1 3.46979 -1.66831 6.20033 
20745 1 2.92308 4.18125 -1.15484 
19577 2 2.87185 -0.0438081 1.29486 
19576 1 -1.61094 4.46549 5.22596 
13366 1 6.66534 10.5245 1.02702 
13367 2 -0.149588 -1.6291 -1.0625 
11251 1 -2.84071 1.3816 2.92772 
19578 1 2.67757 1.7862 -0.901508 
21381 1 -0.855604 2.66995 4.11612 
14999 2 -3.29417 6.39358 2.5416 
16845 1 1.09225 -1.5658 -2.49217 
21268 1 -2.87259 0.608069 3.59356 
14998 1 7.57548 -4.78491 3.6374 
310 1 -5.43992 2.12432 0.751562 
311 2 -2.06276 0.992719 0.065141 
312 1 0.657623 -3.5235 0.583285 
16353 1 -1.2697 -3.85058 -4.48024 
16686 1 2.26011 -0.526141 4.07658 
1063 1 -4.92155 -0.0779076 -2.85191 
16844 2 -2.82309 1.83392 -1.61451 
21269 2 -0.837723 -1.69524 -1.2917 
1064 2 4.66262 -4.33901 2.36292 
16843 1 -2.29654 -4.04344 -1.09244 
5892 1 0.138948 -0.308155 -1.63366 
15546 1 -1.12796 5.46186 -5.88047 
7229 2 3.02139 0.195274 1.24673 
7228 1 -3.23174 2.99876 1.65243 
9573 1 -3.89159 4.96406 7.24025 
15544 1 -3.46396 3.70381 -3.92197 
9571 1 -0.644222 -0.234332 -1.56203 
9572 2 -0.0275266 0.610724 -0.411094 
14103 1 -3.66733 -1.82613 1.2301 
15545 2 1.50519 1.66901 4.36026 
14102 2 -4.09466 2.14533 3.65935 
14101 1 2.2799 -0.835654 0.718171 
1045 1 5.02042 2.1675 0.728486 
1046 2 0.176611 1.30792 0.733012 
3250 1 -0.263284 2.20674 -3.48511 
3252 1 0.77999 0.693852 -1.73653 
3251 2 -2.82136 1.78501 1.6784 
16611 1 0.681955 2.1562 4.25821 
20743 1 -4.64858 -1.82354 -1.09766 
14980 1 3.90057 -3.97638 1.59326 
8179 1 -1.01135 6.61411 0.689014 
8180 2 -2.02006 -0.504902 3.89496 
16610 2 3.00482 -0.536066 2.1411 
1047 1 2.02829 -1.73839 9.76603 
2368 1 0.642014 -1.73314 -4.17965 
2451 1 3.15375 -2.25259 2.07835 
13668 1 0.678958 -2.05985 2.03116 
2450 2 -2.09015 0.288138 -1.10927 
13667 2 -1.14775 2.88676 -1.65092 
3170 2 -3.76499 -1.5845 -3.76349 
3171 1 4.2598 4.7577 0.806703 
13666 1 1.80759 -0.0165461 3.0787 
3169 1 -0.557097 3.48034 1.57538 
3547 1 0.623878 -5.42848 2.54345 
2449 1 0.488468 0.942702 2.54448 
18637 1 -0.22291 1.75795 -6.54589 
10038 1 -1.16444 -3.434 -0.0174102 
15000 1 -0.0216294 1.18892 -1.8214 
16907 2 0.747291 -3.20415 0.771414 
10036 1 -3.24981 -2.68944 -1.9635 
16906 1 -1.3236 2.4302 2.94133 
16908 1 -1.12228 1.12367 -2.54321 
11308 1 2.36806 1.38025 3.46957 
20265 1 3.8326 0.870452 -2.10385 
10037 2 -0.111818 2.84343 -3.10644 
1887 1 -2.77529 -1.39987 -3.99395 
1886 2 0.458253 1.11523 -0.811198 
1885 1 1.82211 -1.77937 -2.73164 
1065 1 -0.597707 2.3547 -6.21104 
10792 1 -4.43731 5.74726 -0.0324371 
10233 1 -5.73913 3.84091 -0.0718719 
14092 1 -1.42048 5.70384 -3.59012 
10793 2 -3.40662 -3.40973 -3.02344 
10232 2 -0.7245 -1.99886 -1.51177 
6469 1 -6.71276 2.21264 -1.11538 
10794 1 -1.44718 -2.38738 2.43295 
6471 1 1.877 -4.12728 5.10216 
4714 1 3.31877 -0.848685 -2.72835 
4716 1 1.70305 -2.61686 -0.265169 
4715 2 2.38184 3.70244 -0.33645 
6470 2 0.977716 -0.706977 -0.460504 
8944 1 -1.32067 7.47876 -8.00018 
4611 1 -0.0932369 1.32371 -4.72397 
11560 1 -0.253975 -4.58921 3.84703 
8945 2 1.7989 -3.83514 3.93904 
20574 1 0.32421 5.01893 4.59233 
11561 2 -1.61465 -2.86596 -2.1024 
20573 2 2.3183 -0.850802 3.30039 
19641 1 2.42727 -0.883217 -1.25838 
3548 2 -3.41085 -2.01473 -1.94077 
3549 1 -3.40565 2.16586 2.69531 
19640 3 -0.603776 1.4376 -4.89364 
18639 1 -2.98392 -1.65515 4.89746 
17895 1 0.190478 -6.13228 -2.52606 
18638 2 -1.06207 3.63756 3.13029 
17894 2 2.13223 1.18447 -0.158992 
16789 1 -1.55866 0.676981 1.01984 
9120 1 1.88965 -1.10854 -0.173018 
16790 2 4.83547 -2.98988 3.42191 
16791 1 -1.08526 -0.781804 -3.77321 
13336 1 -6.55124 -3.41472 -1.65563 
9119 2 -0.513686 -1.19707 0.470151 
13337 2 2.71823 3.9022 2.73845 
378 1 -3.68314 1.05508 -0.202653 
10924 1 -4.57978 -2.33961 -9.99094 
13338 1 -4.32911 3.25962 -4.88553 
19602 1 4.69191 -5.19654 1.14079 
19601 2 -1.06385 -1.95256 2.21264 
19600 1 2.75583 4.36185 3.37704 
10099 1 -5.762 1.47946 3.97385 
10925 2 -2.11203 1.6927 3.24783 
10926 1 -4.17854 -0.944465 1.99955 
4198 1 -3.35853 -4.41505 4.47994 
4199 2 1.15881 2.24928 -2.54864 
7816 1 -3.37446 -2.86672 4.65457 
10054 1 -5.31342 1.10354 2.6779 
10100 2 -3.60311 3.44678 -0.399659 
1447 1 0.591786 -2.48907 2.80233 
1448 2 -0.394407 -0.394239 1.06967 
1449 1 0.00192608 4.19929 7.53282 
13538 2 -1.46657 -0.191322 1.45548 
10101 1 0.888577 5.62214 -2.4308 
13537 1 -0.744167 3.96893 -4.06281 
9255 1 -0.936399 -2.30473 -1.11966 
14584 1 -0.167326 -1.60304 -4.1675 
9254 2 0.781642 0.0105923 -0.929528 
762 1 -3.44856 -2.6653 -2.43934 
14273 2 -1.33391 0.661012 0.290223 
14274 1 -3.32603 0.470097 -4.30426 
13539 1 0.169338 -2.66127 1.58361 
761 2 2.36382 -4.08819 2.21847 
21026 2 -2.44213 -0.443578 -1.50607 
760 1 -2.96229 1.44103 0.76048 
21027 1 1.5417 0.169235 -1.81274 
10315 1 -1.13112 -1.7043 1.73388 
8946 1 3.29918 -1.45347 0.732027 
14272 1 1.19244 -4.48861 -3.59659 
10316 2 0.0378654 1.63627 -2.43722 
12172 1 4.53666 3.75212 -1.93231 
12799 1 -4.69862 0.108323 -3.97314 
19639 1 -3.04561 -5.10838 1.52536 
10796 3 0.265233 0.540946 -0.979946 
10797 1 -2.57566 0.843927 4.48516 
12800 2 -0.64199 0.302256 2.82555 
12801 1 -3.45488 9.51716 -0.0651142 
2566 1 -4.96201 -3.15374 -1.52025 
2567 2 -0.828561 3.31474 3.01723 
2568 1 0.651706 -1.74738 -0.75971 
10798 1 3.78379 3.15326 0.0582171 
18631 1 0.345338 -1.60695 -0.639495 
18632 2 -5.67948 1.27638 3.94177 
18633 1 -3.09105 6.50619 -5.51634 
10055 2 -4.98788 -0.760399 -1.95777 
10056 1 0.64395 -7.30447 0.525489 
5134 1 2.04468 -1.59722 2.14026 
4200 1 7.66594 1.80823 -0.2418 
19926 1 0.301688 0.763082 -4.38771 
19901 2 0.224648 0.91477 -0.0106834 
19902 1 3.53142 -3.31609 -4.11388 
20623 1 1.04076 -4.55867 -4.52804 
2739 1 0.576119 -4.63247 -2.34861 
2738 2 0.572581 1.72699 3.72389 
19900 1 0.252014 -0.02465 -0.296046 
21511 1 5.03654 -5.83064 0.246897 
21512 2 0.646161 -1.8182 -4.65198 
21513 1 -3.92639 -2.66812 -1.75292 
5506 1 3.09456 1.92558 -2.67108 
14586 1 -0.272464 -3.46435 1.55779 
14585 2 0.366288 0.64532 0.020773 
2288 2 1.62531 0.0692366 -1.45218 
6059 2 2.09968 3.72708 4.89696 
21025 1 2.80804 0.495621 -2.39974 
17486 3 -3.17244 2.66594 -2.67892 
17487 1 -4.53674 -2.07078 4.09826 
6060 1 -3.24947 1.36081 -2.87588 
10795 1 -1.45251 1.04706 7.06213 
10166 2 4.46323 -4.43776 -1.91999 
10165 1 8.01985 -0.0429436 -3.53924 
1201 1 0.124786 -0.553126 -6.51196 
10167 1 6.26502 0.216166 1.50366 
844 1 -0.311865 8.04719 -4.74307 
18724 1 -2.40902 6.47521 -1.52415 
20808 1 0.520216 0.313675 0.575577 
20806 1 -1.03058 0.733044 -3.72048 
20807 2 -0.23315 -0.541964 0.861577 
13353 1 0.180211 -0.552662 5.92039 
845 2 -2.58362 -2.78521 1.38373 
13352 2 -4.72003 -3.1776 0.450537 
13351 1 1.34597 -0.200059 -4.64184 
17351 2 -2.6168 -6.2062 0.597089 
17352 1 -1.20481 -4.32331 -3.20483 
2485 1 3.98831 -5.64366 5.89316 
3445 1 -2.00446 1.01547 0.337815 
2487 1 5.62993 4.55812 -1.34996 
2486 2 -1.73558 0.353028 -0.297004 
17350 1 -4.30917 -5.17872 0.845006 
13138 1 0.354661 -0.0414646 -3.38093 
13140 1 -3.09537 -3.10357 -3.06631 
13139 2 -1.7764 -1.08155 1.77272 
2287 1 -0.711995 1.23415 0.951413 
17485 1 -1.25604 5.12175 6.43955 
15274 1 6.61505 6.96654 0.779406 
979 1 0.324427 0.901344 5.192 
15276 1 -1.12729 0.620767 4.89396 
15275 2 -2.34947 2.97374 0.085429 
10178 2 -0.338598 0.597319 4.22905 
10177 1 -1.70839 -4.80083 -2.2713 
16033 1 4.0287 -0.740643 1.84111 
8763 1 -8.17735 -0.876812 -0.110469 
18726 1 0.549997 -2.00033 -3.02281 
18725 2 -1.22236 -2.70744 0.697373 
11015 2 -1.66625 -1.05549 0.400096 
13527 1 -3.55274 -1.57802 1.45727 
16349 2 3.50077 -4.56761 0.0969993 
16348 1 0.391401 -1.06639 2.89235 
13525 1 -0.192371 2.32557 -3.1091 
13526 2 -5.37465 0.811287 4.6354 
3446 2 -1.08471 1.49927 1.42855 
16350 1 0.560525 -5.34128 -1.34541 
17628 1 0.282271 0.521266 -2.37248 
17627 2 -0.666909 -0.405134 -0.0154509 
17626 1 -1.26159 -3.95508 -10.2014 
17596 1 -6.13903 -0.120298 2.75339 
3447 1 -7.21265 3.64411 -2.72849 
13851 1 -0.530188 -6.40623 2.00398 
13850 2 1.83647 1.73552 1.82394 
254 2 -0.661302 4.41228 1.92446 
255 1 1.30877 1.7597 -3.33729 
5376 1 0.856 2.21294 -1.32736 
8094 1 -4.99248 -1.33724 1.5089 
8093 2 -3.6191 1.47407 -1.57223 
5341 1 5.07529 -2.24085 7.04779 
8092 1 -2.32231 -0.73417 -1.84454 
5374 1 3.44908 -5.93429 -1.87892 
5375 2 0.360549 0.708146 0.946899 
6726 1 4.67281 -1.15563 3.9789 
6725 3 0.878986 -0.269177 0.291519 
5342 3 1.45779 -0.835689 -1.69723 
5343 1 3.25951 1.29594 -5.43605 
18703 1 1.33998 -5.06682 -1.28004 
6724 1 -4.146 1.39405 -0.952756 
18704 2 -0.488915 -2.38863 4.89801 
21380 2 0.54655 3.62634 5.91181 
16165 1 -3.39041 2.25596 0.688517 
14308 1 -2.40516 0.875419 -1.72616 
11310 1 0.0316015 8.16734 -8.60587 
16167 1 2.67181 1.22247 -2.80406 
16166 2 0.755089 0.0450577 -1.10546 
7984 1 3.59233 0.848683 1.72779 
7230 1 3.04304 6.88005 -0.930428 
16352 2 2.03647 1.43118 0.0991502 
15919 1 3.9347 -2.2455 -4.18708 
15920 2 -0.634326 0.163256 -0.690275 
21270 1 2.77228 -2.97586 4.186 
12715 1 -2.57855 -6.04013 2.21469 
12716 2 -0.107605 -0.225285 0.546279 
12717 1 0.0990438 2.35005 0.035129 
16351 1 1.90016 1.53514 -3.23725 
15921 1 -3.46779 6.89211 3.6378 
18562 1 -2.09398 1.20391 3.96724 
9157 1 1.20336 4.7657 1.16198 
582 1 -6.99182 -0.473284 -0.831437 
19210 1 -0.382829 5.04492 -3.70236 
9158 2 0.934729 0.117494 -1.20768 
9159 1 0.771919 0.39606 -6.34749 
581 2 -3.64245 -2.29534 2.4343 
580 1 -1.30007 4.64365 0.727916 
19005 1 3.00681 -0.767987 -2.53733 
16710 1 -0.547928 -6.21892 -3.31049 
15963 1 6.11463 1.05796 -2.17038 
8181 1 0.878164 4.18831 3.18286 
16708 1 -2.25661 -0.946021 1.39467 
16709 2 -0.592879 3.53673 -1.27041 
21379 1 2.48205 -1.8449 2.97691 
9219 1 1.06422 -7.22393 -0.656994 
9218 2 -2.67816 0.817978 -0.392822 
11309 2 1.33456 1.34531 4.37666 
9217 1 0.145435 1.18115 -0.910017 
3117 1 4.28765 3.64718 3.37917 
3115 1 3.53213 3.61166 -0.638576 
3116 2 -2.23299 1.73738 -1.80929 
7985 2 1.6346 5.65002 5.82579 
14093 2 -2.72419 0.180083 -0.925115 
7986 1 0.485639 -2.02246 -2.52807 
9568 1 -0.615183 -3.19975 -1.14847 
9569 2 -1.87948 -0.877985 -4.55601 
9336 1 1.62432 5.46763 5.49107 
9570 1 0.813146 3.20324 3.43444 
14094 1 0.488917 3.8487 -5.19254 
11889 1 -2.80776 -0.738268 3.99305 
11888 2 -1.03462 -0.535337 3.65765 
11887 1 3.02386 -0.0345399 0.161222 
19004 2 0.792995 -4.53872 -2.15561 
19003 1 1.76077 2.60559 -2.09918 
12401 2 -0.775814 2.18561 -3.5087 
12402 1 -1.29671 5.63627 2.34474 
9253 1 -5.73369 3.27035 1.18802 
12400 1 -7.65403 -6.16624 -9.38855 
17313 1 -2.46075 -3.97665 1.42999 
19566 1 -0.368949 -3.12457 -3.72223 
17312 2 -2.89603 1.58447 2.28543 
11840 2 -4.70752 -0.612877 2.08819 
7389 1 -1.62237 -4.02342 -1.04882 
4610 2 -3.08753 0.34256 1.96412 
15213 1 1.06003 -5.82205 2.48581 
11562 1 -3.46428 -3.03358 1.41366 
15212 2 5.51638 -1.20642 -1.94655 
15211 1 -2.20131 1.8087 -1.98341 
11082 1 -2.48935 -1.01074 -2.26471 
7388 2 -2.07604 -5.50568 0.6787 
7387 1 1.80637 -0.263194 1.85152 
21382 1 -1.65668 0.694355 2.21353 
21383 2 1.13138 3.87692 2.76163 
9118 1 -4.97969 -2.03687 -2.16443 
21384 1 -8.01067 -2.30364 -2.40529 
9335 2 0.0798982 -1.61217 -0.950837 
9334 1 3.63429 -1.13778 0.618349 
13030 1 -0.83315 4.22717 2.37196 
13031 2 2.05999 -2.42995 -2.49052 
13032 1 2.1 1.73871 -1.54019 
7817 2 3.71114 -0.155168 0.726537 
7818 1 7.03728 -2.39883 -0.71064 
11841 1 -0.0802157 -1.80866 0.545993 
19565 2 -1.27702 3.09282 1.8985 
19564 1 -4.10429 1.46525 0.427471 
12990 1 3.71293 2.48064 2.0299 
12989 2 1.37978 0.0734653 4.32171 
11839 1 -2.10755 -1.85431 4.83927 
13212 1 0.198327 -4.55642 -5.98842 
12988 1 2.95428 -2.10816 -4.20521 
17833 1 -1.56377 0.619946 3.44123 
4609 1 -0.640786 0.426029 0.975419 
5797 1 6.5512 4.94199 -4.17718 
13211 2 -4.09681 0.48876 1.40371 
5798 2 0.489902 2.17192 -2.26955 
13210 1 -3.35318 -2.54157 6.69792 
17704 1 -5.20897 1.8781 5.2227 
20424 1 -0.771422 2.46283 1.59196 
13127 2 6.696 -4.3908 -0.49098 
13128 1 3.51966 0.036144 6.30946 
20422 1 13.2468 -1.53647 -1.08601 
20423 2 0.92531 -2.36159 -1.29507 
20624 2 3.15228 -7.01387 1.85616 
13126 1 -2.9069 1.60702 4.97805 
19925 2 3.71396 -1.12943 0.0897444 
1444 1 4.24712 2.64443 4.70958 
18928 1 1.15671 6.21994 -5.09437 
1445 2 0.309195 -0.290567 -0.0296863 
1446 1 0.487655 -4.27941 2.83522 
19077 1 -0.289123 1.3466 -1.58017 
19924 1 2.48916 -0.552678 -3.72656 
19076 2 1.44275 8.52004 2.12778 
19027 1 3.19148 0.463204 0.716238 
19075 1 2.19502 -4.57586 3.32421 
5507 2 -4.52777 4.94926 -2.09041 
2737 1 1.04105 6.78158 5.18764 
637 1 1.10667 -1.09881 -1.12827 
638 2 0.498796 -0.43228 -1.36961 
639 1 -0.177303 2.26972 6.7032 
17834 2 3.95335 0.396697 0.480032 
17835 1 6.95669 3.6291 -3.54202 
4255 1 -0.81833 0.609015 -4.15851 
4256 2 -5.08486 2.06186 -0.442214 
4257 1 7.01399 -1.49366 -1.12693 
5508 1 6.47653 -0.0598793 -1.64072 
20649 1 -0.252486 -0.00753602 7.06051 
5799 1 -3.64747 0.620039 7.64633 
10882 1 -2.8166 -3.94222 -1.43961 
20648 2 5.67743 -1.23517 2.4852 
10884 1 -1.38613 -3.30329 0.0324068 
10883 2 -0.019822 2.03947 -6.29718 
20293 1 -1.71577 -2.37015 1.7489 
5858 2 -3.64158 -0.0565439 -1.43855 
5859 1 -0.542795 -2.02083 7.7337 
20647 1 5.93832 -0.30771 -3.49012 
5857 1 3.90396 4.54385 -2.03799 
20294 3 3.18179 2.4906 -2.21257 
1202 3 0.666575 0.136451 -3.83616 
20082 1 -4.23238 -3.51122 2.79228 
1203 1 -1.09116 -2.78328 -4.98145 
20081 2 0.434798 -2.25531 4.95785 
20080 1 1.69662 3.61852 1.41886 
846 1 0.0794623 3.32793 -0.817129 
20625 1 -0.822463 2.7064 0.504783 
7063 1 2.35287 1.1969 -3.50852 
7064 2 2.61897 -0.27127 1.05427 
7065 1 7.52102 5.18509 -3.02162 
486 1 -5.46049 -1.94586 4.66211 
19029 1 6.14322 -1.78714 2.3459 
6006 1 -3.84141 -7.48991 -2.13907 
981 1 1.66754 -3.17616 -2.99246 
980 2 -0.705963 -0.740312 0.220424 
19028 2 0.443818 -3.27037 -3.41674 
5164 1 0.22464 -1.36163 -1.71995 
18907 1 -2.81385 -1.88745 -7.16691 
18908 2 2.40407 -1.48563 1.83317 
18909 1 -2.69761 2.26175 3.83965 
4791 1 6.59347 1.24864 2.75527 
5166 1 2.13103 1.66948 3.58661 
5165 2 0.736303 -1.2099 -1.3694 
12665 2 1.02919 -0.163435 1.13246 
20295 1 -3.71808 1.51126 -3.39398 
12664 1 -2.99993 -4.57854 -4.97771 
485 2 -1.43376 0.430798 -3.93946 
484 1 -1.55828 -1.17088 1.97713 
11014 1 5.55278 -4.22491 -0.466798 
6005 2 -0.0576017 -1.60022 -0.925404 
6004 1 -1.55463 4.05747 -5.66853 
11016 1 -0.153843 -5.11012 -2.51271 
4790 2 1.3078 -1.29397 -1.62813 
4789 1 0.0323716 -4.82434 1.51086 
16360 1 4.26712 -2.99158 0.149847 
16361 3 1.15681 2.96726 1.63043 
16362 1 -0.957467 -1.86605 -3.71808 
18563 2 -2.25741 0.453703 2.14725 
14309 2 3.31518 2.63956 2.35043 
14310 1 5.94068 1.17186 -3.78878 
10213 1 0.15114 0.049996 -4.39734 
10214 3 -4.8542 3.14929 0.755659 
10215 1 -2.60198 -1.17868 2.85431 
9516 1 0.164691 3.05772 -2.36637 
9515 3 -1.0171 1.96298 -0.657191 
985 1 1.96926 1.16318 -0.510008 
986 2 1.27879 2.34757 3.87434 
18564 1 -4.48449 2.29554 -3.50994 
7576 1 1.32628 3.86862 1.06101 
7577 3 1.55128 1.3415 1.49535 
7578 1 2.30735 2.24728 4.97647 
12462 1 0.096567 -0.283692 4.995 
12461 3 -1.5109 3.15155 -0.461157 
987 1 -9.86447 3.06016 -0.80854 
7435 1 3.25644 7.15832 -3.51066 
7436 3 1.91138 1.69129 -3.08734 
12460 1 4.603 2.94613 -3.55915 
1527 1 1.40605 -1.43326 0.681121 
16447 1 5.33387 2.99304 -0.556245 
18147 1 -4.61146 1.08868 4.51691 
16449 1 2.16585 -1.45005 2.4405 
16448 2 4.88766 -1.45443 0.0363164 
17311 1 -0.868502 5.60429 -6.24338 
2425 1 4.45302 4.12814 2.03579 
2426 2 -0.680201 3.54958 -3.38435 
2427 1 -3.29591 -0.00360185 3.53514 
7437 1 -5.96424 2.70833 -3.18093 
11080 1 -1.90348 0.709584 -2.38625 
19872 1 -0.215094 -1.29871 2.25585 
17706 1 4.46492 2.44601 -4.75199 
11081 2 2.64688 1.50841 1.00435 
19870 1 1.91448 1.38136 -4.19211 
19871 3 1.84768 1.42106 0.0511704 
13289 2 3.02482 4.35181 -0.824276 
18146 3 -1.9414 -2.78502 0.16779 
18145 1 -3.51803 -2.20329 0.26696 
13288 1 1.37543 -3.24296 -1.61003 
16849 1 -3.04915 1.82168 -0.52199 
11079 1 0.201307 5.20055 1.14958 
4263 1 0.122601 -4.92018 1.4561 
16850 2 -2.94591 4.98572 3.99889 
17705 3 -4.63981 3.49522 1.63391 
4261 1 1.74739 1.07254 -3.96085 
4262 2 1.58774 -3.65327 -1.43826 
18930 1 -1.80252 -0.837532 -5.36416 
13290 1 -0.893397 -8.80091 5.00157 
18929 2 4.19542 -1.12173 0.0449854 
16851 1 -3.44347 1.77382 -0.0260215 
11077 1 -0.942765 2.76595 2.52651 
11078 2 -0.325602 0.558197 2.31606 
12666 1 -1.4085 1.16819 1.79 
19357 1 -0.729467 3.08271 -1.58481 
9514 1 0.663663 -0.729248 -5.34951 
19358 3 -4.1714 -3.10037 -2.34699 
65 3 0.248378 -1.71121 1.24039 
64 1 -3.82258 2.12641 -8.93007 
66 1 3.15109 4.92151 -3.41325 
19359 1 2.1478 -1.91487 -1.3245 
1526 3 2.50497 -0.275772 0.350977 
1525 1 -6.94921 -0.840727 1.4709 
3138 1 2.51205 -2.09863 -1.02143 
3137 3 -0.230052 0.474309 1.10349 
2760 1 2.1847 2.65236 0.441754 
2759 3 1.23087 -0.862307 3.80792 
13503 1 1.31182 3.16074 4.40416 
2758 1 -3.02097 -1.09262 -4.19393 
13502 3 -0.246996 -1.22367 -1.2169 
21426 1 -1.33957 0.456239 3.67788 
21424 1 0.895258 -4.35861 -2.20004 
3136 1 -0.95177 -3.20585 3.71208 
21425 3 -0.287047 1.90699 3.21691 
13501 1 4.9586 1.97126 -0.341093 
14071 1 1.5311 -1.2121 8.52124 
14072 3 -2.51079 -1.99651 -4.38043 
14073 1 -3.01937 3.02837 -4.01914 
4403 2 3.619 2.59524 -2.2922 
4402 1 -1.2364 -1.01274 -1.17779 
16542 1 4.90077 -4.98151 -2.8884 
13944 1 -4.6165 2.69213 -2.5981 
4404 1 -7.39171 -1.8726 -0.505046 
14511 1 2.7364 0.0647621 -0.723166 
14509 1 -0.788787 -6.10975 -1.21511 
14510 3 4.64482 4.04029 0.423597 
21498 1 1.84004 3.00574 5.54048 
21497 2 -3.47138 3.50891 -0.131177 
21496 1 1.04778 3.15338 3.47539 
5478 1 8.34925 -2.18847 -0.485309 
1764 1 -2.85257 -0.359371 4.69731 
19007 2 0.587717 4.17372 4.04654 
19008 1 1.17201 -0.299175 3.69923 
6052 1 3.05903 1.03704 0.0714778 
6053 2 2.77896 -0.908274 -1.05347 
10813 1 -3.74238 -3.16848 -1.71743 
10814 2 -0.275241 0.498954 2.45634 
10155 1 -1.18473 2.55237 0.675064 
10154 2 -0.0894146 1.1414 4.14227 
10815 1 -1.13465 -3.16517 -0.959091 
10153 1 -1.10643 -0.648736 6.33083 
1894 1 3.53902 -1.11426 -3.7336 
1895 3 2.46657 -1.47238 -0.60421 
3029 2 0.446091 1.71544 -2.07937 
2213 3 -3.10045 2.25286 1.91984 
2212 1 7.92611 -1.14619 -3.21459 
19457 3 -0.208329 -0.392872 -1.51864 
19456 1 2.56992 2.57259 -0.0135018 
3030 1 1.21702 -2.76767 -0.110014 
19458 1 1.39915 -0.257381 0.656252 
16540 1 5.47201 -2.20079 0.354521 
17748 1 -1.84107 -5.95424 -0.664578 
16541 3 0.595389 0.240058 -3.25628 
17747 3 2.16259 2.26065 -4.73524 
15933 1 4.54975 -0.675104 -4.54741 
17746 1 -3.15542 10.6306 4.8794 
15932 2 0.293778 -1.2938 -0.481446 
7575 1 4.38439 -3.16906 1.57724 
15210 1 -0.320234 6.43945 9.22704 
15209 2 -2.08052 -3.40836 0.0163191 
7574 2 2.87769 7.99043 -5.9217 
1896 1 1.32856 -2.27089 5.4976 
4577 2 0.416296 3.95917 -0.235378 
4578 1 0.593298 -1.20955 1.02299 
15208 1 -4.55925 -0.36296 -3.82964 
4576 1 -0.67978 -1.00258 -0.0899975 
2953 1 2.46971 -1.73202 -3.81477 
2955 1 5.60456 -1.67656 0.495172 
2954 3 -2.57204 -2.66888 6.65952 
5372 2 0.973509 -1.02442 2.38282 
16771 1 2.82264 2.5382 3.16414 
16772 2 0.296774 -4.95621 0.544704 
16773 1 -2.58435 -0.297439 -0.127744 
12708 1 -0.425035 4.13804 2.38788 
12707 2 3.87856 -1.08944 -0.143579 
12706 1 1.35469 -0.717066 -2.20223 
5373 1 7.43522 -1.69301 0.0648345 
9619 1 -4.28148 -1.55145 0.12671 
9620 2 -1.2262 0.253939 -3.08301 
1858 1 -3.00087 2.19626 5.54832 
1859 3 2.0234 -4.89442 -0.504121 
1860 1 -4.23384 -5.20693 -0.200865 
12507 1 4.63501 2.02092 -3.26 
5477 2 1.77939 -3.08969 1.47869 
5476 1 3.74886 -3.08065 -3.32881 
9576 1 -1.3815 0.0736125 -2.1816 
9575 3 1.44386 -2.27182 -2.14598 
9574 1 5.46669 2.2383 1.41923 
18511 1 4.99797 0.224333 -5.31502 
16303 1 -2.08426 -0.563325 1.71129 
18512 2 4.3139 -2.31514 -1.7064 
18513 1 -3.25211 3.86685 3.27675 
16304 3 1.02905 -3.88596 -0.166411 
16864 1 2.4968 -3.48295 -3.68992 
16014 1 -0.0292353 6.5293 3.02267 
16865 3 -4.82587 1.57659 -0.705427 
18561 1 -8.39844 -1.80319 5.46093 
12721 1 -0.398344 -1.06245 2.16164 
19026 1 1.51102 4.66921 -6.01726 
16420 1 2.77666 4.42623 5.40871 
19025 2 0.749543 1.93062 0.357857 
16421 2 0.828727 2.35145 0.837469 
16422 1 5.38916 0.59552 -3.42037 
6741 1 -2.47052 -3.22077 1.24526 
6740 2 1.03282 -0.812741 -0.872214 
16013 3 -1.70745 1.38843 -0.0189236 
7031 2 3.25409 3.97652 -2.30633 
7030 1 -5.60637 2.02845 3.1974 
16012 1 6.61413 1.78211 1.06347 
18560 2 -2.34957 -0.513374 0.43606 
12722 2 2.70406 -0.212303 -1.87518 
19479 1 -0.686387 0.19515 4.48219 
12723 1 0.0481289 3.0784 1.01269 
1762 1 -3.8267 -1.59973 -0.554301 
8019 1 -2.64871 1.09921 -5.0779 
1763 2 -0.0710899 0.450351 -0.301985 
8018 2 2.87452 -2.78327 -1.87603 
21056 2 -2.94139 -2.57631 0.307007 
21057 1 -1.09568 5.59956 -2.93558 
12237 1 -2.91516 -1.0911 -6.95612 
18559 1 -2.18028 -0.0575835 1.58295 
6054 1 -1.40049 -3.79535 2.75835 
12235 1 2.94941 -4.60432 1.31347 
9951 1 -0.209371 2.50154 4.78378 
12236 2 7.53174 0.277708 1.9938 
8017 1 6.34329 -4.25097 -2.98917 
9949 1 -3.40277 -1.24681 -0.888303 
9950 2 0.281764 3.63184 -1.92595 
4966 1 1.27757 -4.66134 -1.07723 
21204 1 1.00201 2.11541 -4.05162 
21203 2 0.0991751 -2.69262 -5.06662 
15750 1 -0.356402 4.00881 -0.342318 
6739 1 5.03892 5.13 -2.18174 
3653 3 3.22766 0.211794 -2.31625 
3652 1 -0.0938216 0.288973 -1.02481 
622 1 -0.245834 0.20626 -2.20466 
3654 1 -3.42948 0.982306 -1.73929 
623 2 0.0717698 -2.27164 -0.782352 
15749 2 1.82929 2.53561 -1.0044 
7032 1 -4.79652 -0.934047 3.49306 
9629 2 1.1497 2.26596 -1.03374 
9630 1 -6.68716 0.0922216 -1.264 
624 1 -1.05142 -2.07797 -3.96232 
8062 1 1.43036 7.45281 -7.36513 
8063 2 -2.83482 0.609326 1.30033 
8064 1 -3.49266 -2.98151 -1.83772 
8154 1 -1.87332 0.246041 0.265598 
11109 1 1.27646 -4.16793 3.2514 
11108 2 5.28412 -1.77568 -0.116024 
9628 1 -0.0554989 1.98991 1.1972 
19743 1 1.82863 3.33956 3.69751 
15792 1 -2.95613 4.41287 -3.52011 
4849 1 3.36298 5.33457 0.0592848 
15790 1 -1.48324 -4.03701 -9.7168 
15791 2 -0.670334 1.65137 -0.272484 
3028 1 2.09033 -2.00554 1.50165 
5568 1 -1.00515 -1.61495 1.03495 
2032 1 -2.80631 -2.63323 3.68083 
5566 1 5.66653 -4.72429 -0.218436 
5567 2 -4.73607 1.64681 -0.198913 
9561 1 -2.18135 3.63097 5.75586 
19664 2 -2.20137 -0.134224 0.389303 
2214 1 -5.38602 0.127082 -1.28457 
13116 1 0.58721 -0.080744 -0.899274 
21202 1 -0.141097 -0.871836 1.31185 
13114 1 2.88135 -0.239092 6.8543 
13115 2 -0.443191 -3.70985 2.48652 
2033 2 0.180866 -1.69184 -6.65522 
19663 1 1.03043 0.471105 -3.68112 
2815 1 -2.26198 5.91412 5.06331 
2816 3 -2.10193 6.33795 -0.596377 
13027 1 -1.69667 0.75174 1.68031 
2817 1 -0.775419 2.91856 3.23555 
15931 1 2.0463 -4.41217 0.00584385 
15534 1 1.26768 0.87318 1.53664 
15533 2 -5.41641 -0.718338 -3.74093 
15532 1 0.132442 -2.54462 -2.72386 
10679 2 2.34343 1.84018 -0.7023 
10680 1 -6.68247 3.73372 -6.88592 
11682 1 3.78639 -2.73206 5.41143 
11681 2 3.6452 -0.0254682 -0.779236 
12544 1 -4.08099 -5.28369 -6.60785 
7573 1 -1.31902 10.8764 -1.08574 
4356 1 -4.25492 -0.0609698 -3.2812 
10678 1 -1.56841 4.27094 0.379058 
12545 2 2.93736 -2.50881 0.329002 
12546 1 4.02327 1.66493 -5.23391 
4355 2 0.429853 -1.87824 0.936756 
4354 1 0.782331 0.788805 2.3032 
19143 1 1.11381 1.69298 3.78738 
19142 2 -2.8538 1.65587 -2.22977 
14126 2 0.644947 -2.71063 -3.12657 
8153 2 -4.46182 0.462725 -3.0333 
8152 1 6.90964 0.403904 -2.03908 
7053 1 -2.58886 5.36556 -1.1168 
7052 2 1.33931 -0.243917 -1.56592 
7051 1 -3.05979 -0.931838 0.394632 
15454 1 0.293089 0.0978435 -1.56056 
19923 1 -2.73554 4.61296 -0.564194 
14125 1 0.570455 0.814635 -1.24048 
21220 1 -3.61193 -1.75842 -1.95752 
14127 1 -2.32107 2.29545 3.67806 
19922 2 0.924698 -1.9606 2.07051 
9560 2 1.21523 -2.8513 1.28996 
15455 2 0.668454 -3.06812 0.531 
15456 1 0.936402 5.05388 3.89452 
5371 1 -0.0121471 3.56458 -0.23202 
9559 1 2.82461 1.86188 -1.79652 
7588 1 -1.11235 -2.39077 -0.464156 
7589 2 -1.16788 1.52948 2.05052 
7590 1 1.16225 2.81814 3.08306 
3766 1 -0.532425 -4.52878 1.88779 
13028 3 3.77228 -0.897691 -3.41609 
13703 3 -2.81882 -1.39319 -1.13561 
13702 1 -2.66661 5.55059 0.861461 
13704 1 5.50913 -4.19674 5.11657 
13029 1 -2.93836 3.32762 -0.445568 
12681 1 0.88026 3.08354 2.60657 
12679 1 -1.57345 1.64942 -4.40044 
2158 1 2.4258 -2.71358 3.31323 
12680 2 4.06967 -0.64207 0.246267 
10520 2 1.28518 -3.0052 2.53259 
1871 2 2.24574 -2.96676 0.794824 
1870 1 -1.05913 2.08217 2.50675 
1872 1 -1.81916 -2.90349 0.220406 
10519 1 -2.59876 2.03738 0.505634 
8391 1 -7.93728 -2.01968 -4.53093 
4530 1 -2.16963 2.71105 -1.54457 
21222 1 1.57283 3.32547 1.14261 
4529 2 -1.29714 0.215285 1.32812 
4528 1 -3.13536 -0.112702 2.34046 
8390 2 0.529842 -2.36775 3.15187 
18680 2 4.48263 2.35462 2.05143 
21221 2 1.95497 -1.75126 2.8582 
2483 2 0.181056 -0.393912 3.87878 
3065 2 0.569521 1.13248 1.63667 
10763 2 -1.34183 -1.4095 4.98032 
2482 1 -1.36541 -3.79998 3.38346 
3064 1 -10.0748 -3.9521 -4.00019 
1720 1 -0.944187 -2.82029 -3.5986 
10762 1 1.9004 -3.24777 0.853802 
10764 1 -1.04034 2.5777 4.73245 
4924 1 -2.07776 -1.26512 -6.47619 
2484 1 1.79929 -0.758815 4.89724 
15098 2 -0.329735 0.833882 -1.69071 
15097 1 -5.40777 0.0690049 4.65399 
9621 1 -0.887661 -7.78485 7.46869 
3767 2 -1.4076 -4.92445 4.53564 
3768 1 -0.707986 -0.438286 -6.66918 
3066 1 4.75522 -5.35114 0.299098 
16411 1 2.25727 0.0946353 -1.00741 
5502 1 1.0833 0.183303 -4.43076 
5501 2 -2.08225 3.35419 2.32953 
5500 1 -5.67228 0.975525 3.62808 
3391 1 -0.653209 3.99304 4.90541 
2159 2 -3.9309 1.96952 -2.07012 
2160 1 -1.31326 -2.0104 -4.48919 
8389 1 1.02688 3.10677 -1.95709 
6417 1 -4.18288 0.264595 -0.855942 
13045 1 0.89276 -1.65712 -1.41624 
13046 2 -1.99777 0.69142 4.83259 
6415 1 -2.32071 5.95725 3.51135 
6416 2 2.2631 1.40977 3.30578 
4925 2 -0.508285 0.34497 1.18239 
4926 1 0.886881 -3.11678 -0.947665 
15660 1 -0.800118 -0.861721 -2.97231 
15659 2 0.587357 0.640645 -0.146142 
2262 1 -2.4991 -1.99293 -5.72194 
2261 2 -1.59961 -4.44276 2.07902 
13047 1 -1.99876 -0.268652 4.28359 
15099 1 1.38581 0.88951 -4.64955 
17121 1 1.49276 0.338014 -0.375297 
12506 2 -0.732033 4.03395 0.536042 
12505 1 0.260886 0.668581 -7.82993 
15658 1 4.68474 0.996229 -3.76441 
17119 1 3.24199 -1.83723 -3.9325 
17878 1 -0.873881 1.90874 -4.82021 
16306 1 4.49684 2.71935 -2.73835 
17879 2 3.57313 3.50101 -2.57856 
3478 1 -2.93241 -0.147501 -1.39027 
8083 1 2.31294 -0.463495 -4.28581 
8084 2 -0.479246 0.157009 4.69008 
16082 2 -3.64754 -0.371231 1.50719 
12670 1 -6.14262 -3.65322 2.51533 
16083 1 -2.48896 0.924737 -0.895429 
16305 1 7.93035 -3.65002 -0.986641 
16081 1 9.44041 -1.71856 3.70046 
12671 2 -3.17039 4.71713 0.32739 
8085 1 1.17239 4.40673 2.17578 
12672 1 -3.54843 1.72769 1.75747 
9996 1 -2.09795 -3.94131 0.949399 
16307 2 0.0174601 -3.27455 1.7728 
11600 2 3.56945 -3.08739 -0.417442 
16308 1 -0.0174689 -2.09635 -2.44768 
11601 1 -5.97413 -7.15782 -4.25239 
9995 2 0.616354 -0.668073 -1.58569 
9994 1 0.668908 -3.92815 -2.7684 
6389 2 5.36879 -1.05897 -0.69297 
13827 1 6.10089 3.50914 -0.266954 
19303 1 3.85601 -1.22429 -5.96447 
5387 2 -4.78954 -3.08206 -3.49554 
16866 1 -2.22476 -0.00328306 0.900538 
11433 1 -0.125782 2.99268 -5.01277 
11432 2 1.44275 -0.28913 2.35973 
11431 1 -2.18412 1.40718 7.24496 
5386 1 1.66597 8.14714 4.81734 
5388 1 3.22786 -1.00905 2.6375 
19305 1 3.44331 0.469797 -3.72585 
19304 2 3.52338 0.103196 -0.0175581 
21046 1 1.22023 -1.62849 -0.331627 
19746 1 -1.98883 2.5897 -5.10332 
19745 2 0.04111 1.10185 1.2652 
11710 1 -4.96281 -6.17306 0.445787 
11711 2 -1.34915 3.11668 1.55359 
3044 2 -1.85479 3.87386 -1.64723 
14670 1 -1.77338 -2.69154 0.339808 
14669 2 2.3094 -7.51102 -3.00345 
3043 1 4.24847 -2.25028 -2.1706 
15186 1 0.505751 -2.92395 -2.58417 
15185 2 1.59906 1.47963 -7.41797 
15184 1 1.90512 -3.34595 8.32209 
19744 1 -5.34786 3.90824 -2.44025 
19275 1 1.65543 3.93558 2.64641 
6390 1 -1.03902 0.76101 0.893946 