ITEM: TIMESTEP
80000000
ITEM: NUMBER OF ATOMS
6213
ITEM: BOX BOUNDS pp pp pp
0.0000000000000000e+00 5.0000000000000000e+01
0.0000000000000000e+00 5.0000000000000000e+01
0.0000000000000000e+00 5.0000000000000000e+01
ITEM: ATOMS id type vx vy vz 
8969 3 2.15642 -4.40287 1.54178 
8970 1 -0.922826 2.85415 1.05323 
8968 1 -3.14404 2.46947 -2.48374 
15264 1 -0.694607 1.92253 4.21474 
8331 1 0.419822 -1.60602 -5.17524 
15263 3 -0.577261 -0.21875 -4.57403 
15262 1 -1.73796 1.03543 -0.794111 
18104 3 -0.711587 0.339211 -0.413496 
18103 1 -2.54442 -0.70003 2.56037 
18105 1 4.92042 2.15809 -2.54288 
14083 1 -1.22624 -3.38067 2.41908 
14084 2 -3.74547 0.805968 -0.0616809 
14085 1 0.403923 1.49332 5.78282 
20551 1 5.89786 -4.08864 -6.16675 
20552 3 -2.26947 2.56228 -1.4784 
20553 1 -5.67722 4.04864 3.18694 
10738 1 -1.77467 -1.37047 2.63934 
18394 1 -2.31376 5.81527 -5.32809 
18395 3 1.27846 1.61856 0.591042 
10739 3 5.23775 -1.29142 3.74861 
10740 1 1.87105 -4.9546 3.44365 
6958 1 1.0586 2.83955 1.93928 
2423 3 -1.16846 -1.56122 -1.53282 
18396 1 3.14842 -5.41192 -3.03517 
2422 1 4.3861 -0.165601 -1.17549 
12225 1 2.70384 2.0931 -3.27799 
6112 1 -1.1169 0.979026 1.77781 
6113 2 -1.8417 -1.4337 2.25125 
6114 1 -0.751466 -4.29111 -3.18301 
19958 3 -0.540053 -5.08599 1.41892 
19957 1 1.59591 2.05823 -4.26906 
16989 1 2.50265 -0.271284 -0.853182 
19959 1 2.8608 -1.03092 1.37967 
16988 3 -0.249646 -0.406801 1.83411 
16987 1 2.75419 3.71699 -2.94988 
8908 1 3.99073 1.33912 -4.97309 
3382 1 3.17927 0.622406 -3.4754 
8909 3 -1.71746 2.72686 -1.31234 
3383 3 0.473732 1.57719 0.213165 
3384 1 3.55093 -2.33071 -5.10292 
15161 3 1.73329 4.75952 -0.827731 
15162 1 -5.73169 -0.356379 -0.937851 
15160 1 0.145399 5.59185 1.74632 
9550 1 4.29884 -0.622941 0.570787 
8910 1 0.238175 -1.84904 -0.61257 
13324 1 1.3893 -2.38055 -2.2392 
20688 1 5.58526 0.221255 0.919533 
7534 1 0.724663 -5.67546 -1.53454 
13325 2 -2.08122 1.33368 4.81864 
20687 3 -0.518153 -3.24222 0.317354 
15706 1 -3.71365 -4.85674 -0.693338 
20686 1 -2.86466 -5.75983 3.91653 
15707 2 1.49254 1.69907 -3.94921 
353 3 -0.495253 -2.57561 0.975771 
15708 1 -1.18514 1.8033 0.820575 
9309 1 1.8838 -0.20833 2.88662 
20986 1 -2.96447 0.824887 0.535017 
9915 1 2.55782 2.18185 -7.59073 
20987 2 0.801839 2.84199 -3.70912 
20988 1 6.02021 -3.07048 3.35439 
3435 1 -2.11814 -1.53311 -1.33971 
4762 1 -2.63215 6.17239 1.35624 
8861 3 1.90536 -1.51738 0.0283264 
3572 3 -0.963518 1.71861 4.75986 
14807 3 -0.387207 1.16235 -5.19235 
14808 1 8.38044 3.70414 -0.0275152 
8860 1 -1.35369 -0.99006 -1.00558 
416 3 3.64094 5.45773 -4.69544 
8862 1 3.19038 -0.150728 1.96445 
13860 1 -1.02812 3.94957 0.572454 
3571 1 5.14296 -0.743481 0.381557 
3573 1 1.52126 -3.50139 3.23108 
6771 1 -0.0226616 4.76292 0.598165 
415 1 -5.39572 -2.00229 -3.59575 
6057 1 5.59914 -1.33112 -2.1187 
6769 1 0.146861 4.85147 2.24404 
6770 3 -4.01659 1.84055 -3.79283 
15051 1 4.35795 -1.42719 3.79716 
6056 3 0.082903 3.80777 0.805165 
15050 3 2.50026 1.97746 0.364343 
15049 1 4.45775 8.26854 -0.69791 
6055 1 -5.98464 2.30264 -1.07428 
10500 1 -2.38185 -6.37977 0.443452 
10499 3 -1.90577 -0.0904746 -3.11144 
6720 1 -3.41977 0.0327474 -4.53672 
10498 1 -12.2235 1.82218 -0.956671 
13207 1 11.3453 7.74418 1.15643 
7536 1 -0.744091 -2.49668 0.122465 
13208 3 0.0583219 -0.0590572 0.301424 
18343 1 -3.19946 7.23559 -1.5838 
13209 1 -2.3656 0.426076 -1.56165 
352 1 -0.644066 -3.14607 2.79643 
6719 3 2.88894 -0.766787 2.59588 
6718 1 2.761 6.61861 0.112721 
19079 3 -0.384079 -0.990812 6.12456 
19078 1 -0.280063 6.54867 -3.70655 
8823 1 -2.55773 5.62647 -0.441834 
8822 3 3.08058 3.3208 0.172383 
19080 1 -4.22744 -5.97265 0.0865962 
9281 3 -0.462913 -0.56475 1.24053 
9280 1 0.698351 -1.33717 0.683842 
8821 1 2.87069 0.581523 0.639278 
9913 1 0.272392 3.11972 -3.17551 
807 1 -0.323438 -2.4538 2.74955 
806 2 -0.475859 -1.85742 -2.15471 
9914 2 5.34552 -3.63304 -4.56502 
805 1 -0.0203272 -4.39455 1.38887 
3261 1 -2.676 1.27394 -0.528747 
2682 1 0.518362 -1.36218 0.307591 
2680 1 -2.34482 -5.79693 0.63187 
17273 2 2.00077 -1.21193 1.29694 
2681 3 -1.8799 -5.41934 -4.1639 
17274 1 6.46591 6.21956 2.55218 
7770 1 -3.9778 10.7828 -1.76014 
7769 2 -8.10138 -2.48317 -0.261964 
7768 1 4.13032 2.66727 3.23027 
3433 1 -0.190605 -2.90243 -2.1229 
20992 1 1.12031 3.92569 5.96769 
5831 3 -2.4436 -0.88729 -1.43992 
20170 1 0.254094 -0.320252 0.812163 
5830 1 0.312621 3.07028 -1.13079 
5832 1 -3.73017 -2.85045 -4.50472 
3434 3 1.72178 -0.255047 -2.3706 
10783 1 1.17027 0.0370904 4.00993 
10784 3 -4.96957 -2.55858 -3.17193 
10785 1 5.49187 -2.44072 0.170948 
8430 1 -4.47228 0.965948 -2.2196 
8429 3 0.915208 1.1761 0.58585 
8428 1 1.33427 2.95129 -1.96761 
6547 1 -2.03564 1.72429 4.81137 
14580 1 -4.79009 2.44802 3.98524 
14579 3 -4.29361 -4.28572 4.85995 
14578 1 6.69729 -5.39537 6.57904 
15072 1 -0.0319437 1.43446 0.285958 
15071 3 -3.33268 1.77155 -0.103565 
15070 1 -4.67327 1.87112 2.12566 
417 1 -6.15289 4.07882 -2.7441 
2647 1 -5.12865 2.82655 -0.867299 
12204 1 -4.82847 7.71513 1.71633 
17263 1 -8.37235 2.60812 4.09034 
9481 1 -4.75452 -2.51838 -0.601749 
17264 3 5.46772 0.123459 1.25686 
17265 1 1.1773 2.92212 1.7597 
6920 3 -2.65305 -0.556292 0.747329 
9482 3 1.15777 1.70153 -0.703472 
9483 1 3.57292 3.13706 0.35718 
6730 1 -0.185589 -0.348469 5.02154 
11000 3 -0.697318 -2.64217 0.798835 
10999 1 3.54167 -1.90492 -5.68628 
11001 1 2.31019 3.06585 -2.04859 
6048 1 -3.79738 -1.32035 -0.670962 
6047 3 -1.92648 6.59875 1.21941 
6046 1 -0.483201 0.749725 -2.09137 
1851 1 -2.7698 2.98701 -0.683298 
6731 3 1.8929 -5.78662 -1.56192 
6732 1 1.9507 6.7803 -3.35217 
3060 1 -1.98918 -1.53717 -2.48723 
3059 3 5.36006 0.0943374 4.23301 
19763 3 0.417038 -0.874353 -0.179811 
6919 1 3.65181 -0.454455 -0.506532 
19762 1 -3.12452 -2.82532 -2.7543 
15076 1 -2.52243 -4.23147 -0.674031 
14473 1 2.76803 -1.37212 -4.42796 
14474 3 -1.06063 4.64239 -1.00837 
14475 1 3.49266 -0.817835 -4.86279 
19644 1 -3.56924 0.412091 -1.42744 
1850 3 2.37644 2.09071 -1.84262 
19643 3 -3.2178 0.757991 -4.73501 
1849 1 -1.04589 -3.48728 3.43261 
5942 3 0.779222 -2.12044 3.90614 
5941 1 -3.19435 2.01844 -0.38965 
10077 1 -0.826084 -1.66968 3.07119 
18344 3 1.19684 1.22814 1.07468 
15862 1 6.65061 8.2442 1.76192 
9282 1 -1.75968 -9.59526 -0.2029 
1729 1 0.51255 0.394221 5.03706 
5389 1 4.74889 0.376012 0.155714 
5390 3 0.706115 4.56631 -2.55739 
1731 1 -0.173828 -2.44606 -0.0614862 
1730 3 -4.37187 -0.495065 -2.01649 
20300 3 -0.602159 -3.35926 -1.75033 
20079 1 -0.0451665 0.609193 1.63549 
20078 3 0.30518 -2.52212 0.542643 
4225 1 -3.73063 -1.25233 2.30231 
4226 3 1.52399 0.378183 2.77225 
4227 1 -6.10775 2.11213 -3.68753 
20301 1 3.68583 -0.802962 0.756823 
3259 1 2.2048 1.77437 2.0937 
3260 2 -6.81162 7.72696 -0.639081 
17272 1 1.34431 2.73402 -3.10944 
20536 1 -2.98981 -4.72728 -0.202652 
20537 3 3.64172 0.183112 1.31158 
8194 1 1.88839 3.26594 0.778247 
8196 1 0.946994 -1.79825 3.88563 
5944 1 -5.12925 -2.75024 -3.08684 
6126 1 -3.82251 -2.93173 -3.219 
6125 3 -0.350511 -5.02801 -2.69899 
6124 1 -4.50617 -0.331097 1.8748 
20538 1 -3.23848 2.39212 -4.16973 
8431 1 -0.475982 -3.10598 3.01752 
8432 3 1.51225 -6.32759 3.71482 
8433 1 0.96533 0.0131462 -3.57574 
13816 1 -2.04289 -1.00501 -2.79746 
13817 3 -2.7131 2.74499 -1.5825 
20115 1 1.48486 4.24261 0.515612 
20114 3 -1.83455 0.881217 -0.85358 
7823 3 -1.62263 -0.483842 1.38481 
7822 1 0.789743 -0.69715 3.2051 
20113 1 -1.88703 -1.79245 -0.349615 
8248 1 6.03063 3.303 7.29643 
8249 3 -0.0385459 -1.80076 -1.46071 
7824 1 0.22 -0.0360562 1.56474 
18502 1 -1.08121 2.34463 0.376946 
19539 1 2.96913 -0.764552 -4.40637 
18504 1 5.30861 1.8851 -0.73745 
19538 3 0.096897 -0.126456 -0.604383 
18503 3 -3.19867 -1.35065 -0.771443 
3451 1 2.08926 -2.65392 -0.709441 
8290 1 4.21526 6.54318 -4.59622 
8291 3 -0.617596 1.13684 -2.48567 
3453 1 -1.0712 -1.77592 1.88903 
4804 1 4.3596 -0.656229 6.79914 
4806 1 -0.654102 -2.01974 -4.32496 
4805 3 3.09288 1.644 0.129587 
12872 3 0.824081 3.91255 -4.54291 
12873 1 2.6258 -4.22262 3.9847 
12202 1 4.3849 5.89311 3.29777 
12203 3 -0.717405 1.22439 -1.49939 
18195 1 -10.3728 -0.190934 1.93266 
3452 3 0.797098 -1.47123 -3.58501 
20284 1 -3.53375 0.642004 -2.53932 
20286 1 2.32849 1.59029 -2.92763 
11083 1 0.494971 -6.58494 1.41446 
11084 3 -0.884899 -1.43379 2.50941 
12871 1 2.936 4.18417 -2.9505 
20285 3 2.04474 -2.92301 2.20736 
7470 1 1.47569 -7.55274 3.07295 
15944 3 2.74126 1.69241 3.39762 
15943 1 -0.218826 -9.02306 -3.13119 
19314 1 2.27994 1.49111 -4.65141 
18264 1 2.48238 -0.217127 -3.13011 
19764 1 -0.230548 -4.83779 -4.0187 
15945 1 -3.65086 0.235097 -2.74764 
483 1 6.37789 2.11763 2.20033 
482 3 -1.77695 -0.783394 1.53229 
3058 1 2.40516 -1.20925 -3.70682 
7469 3 -2.68596 -0.566306 1.73637 
18263 3 -1.67335 0.671672 0.618162 
10075 1 -0.865845 -6.26212 1.68194 
10076 3 2.7989 -2.09698 -2.52609 
10034 3 1.2871 -0.871984 -2.16369 
10035 1 7.48326 -6.84353 -3.87752 
7468 1 -4.99808 -1.48713 0.654549 
10033 1 6.79594 2.04038 2.32869 
9301 1 2.18648 3.99235 0.62453 
5391 1 -5.39355 -2.57123 1.1074 
174 1 -1.94384 -6.68744 -4.87017 
9523 1 -0.217739 0.902724 -2.72223 
9524 3 4.16046 3.46895 -1.88606 
9525 1 -0.320596 -0.872963 -2.6291 
5059 1 2.58408 3.18156 -6.31365 
173 3 0.47018 -0.0995371 3.43833 
17768 3 2.31093 2.95011 3.65952 
17767 1 7.2554 -0.878422 -0.166113 
17769 1 1.15651 -1.25518 -9.75766 
19243 1 5.2997 -1.03782 1.89293 
19244 3 0.0396771 0.797976 -2.29505 
20299 1 3.18121 3.30152 -6.30457 
7519 1 -1.09094 -0.610463 0.67394 
7520 3 -2.76123 0.273414 0.187475 
19245 1 -0.99255 -4.17439 -1.77454 
7084 1 1.71329 -0.71162 0.533115 
16203 1 4.48142 -8.91524 -6.5975 
8550 1 -1.04413 0.54509 0.509039 
16202 2 2.25755 1.33595 -2.78247 
16201 1 -1.55553 -1.97666 0.217024 
3226 1 0.461197 -1.36456 0.206419 
385 1 7.37377 5.39981 0.612956 
386 3 -5.47803 -1.40182 -3.41755 
20908 1 1.63976 -1.47703 -2.84094 
8548 1 -0.906581 2.74756 -4.29957 
8549 3 -0.934166 -0.940749 1.392 
387 1 -1.6971 2.23602 -0.141706 
675 1 -0.848878 -3.66245 2.66605 
674 3 0.950025 -0.917433 1.30079 
673 1 -5.047 5.88222 6.52917 
8195 3 -0.433041 -2.51421 -0.0797821 
19978 1 1.08862 -2.15414 -2.7857 
6580 1 -1.30946 1.07375 1.66628 
6581 3 1.34593 2.45063 -0.534139 
6582 1 4.83308 5.64445 5.1085 
17099 3 -5.3265 0.583087 1.25462 
17100 1 4.31422 -2.00059 -0.405232 
5786 3 -2.97976 4.72182 -0.346052 
8075 3 -3.36269 -3.09061 -1.6057 
8076 1 8.52046 -2.1028 -2.81015 
19158 1 -1.95678 -2.06705 -0.953947 
2836 1 3.96713 4.55497 -3.80457 
17098 1 -0.945339 0.498731 4.21311 
19537 1 -1.35388 0.322391 -0.789008 
789 1 -5.79853 3.62415 -0.331988 
2838 1 -1.85362 3.2027 -4.64479 
2837 3 -1.05557 2.26694 -0.243173 
7860 1 2.38583 -7.92723 1.24234 
1906 1 4.75808 -3.59993 -7.97948 
7859 3 -1.7165 -0.946311 0.593292 
7858 1 -6.23481 5.17578 1.09184 
5785 1 3.88193 4.20659 -1.86445 
1907 3 -5.36534 4.09733 -2.54016 
15547 1 0.832675 -1.14722 -2.35083 
21160 1 -5.99258 9.86118 -3.00774 
21161 3 1.34158 3.83972 0.361126 
5594 3 -1.37005 3.34743 -0.202605 
5593 1 -1.05301 0.702611 -0.847939 
984 1 2.39484 2.11734 -7.69001 
5595 1 -3.43481 -1.4931 -0.728184 
1908 1 1.46007 5.62263 3.68959 
8068 1 -1.82521 1.81469 -1.79346 
14113 1 -0.337374 0.685711 0.81832 
8069 3 4.13528 0.666796 5.59895 
12628 1 -3.13818 -0.337027 -2.23627 
15880 1 -2.06047 -3.61489 0.842931 
15881 3 -0.894872 0.752573 -2.2746 
15882 1 3.88509 1.25456 2.61225 
21004 1 -0.400096 5.13178 -3.22486 
14115 1 -1.05669 4.4585 1.72652 
14114 3 0.0373398 1.99323 -1.98122 
21005 3 -5.03884 -0.210839 2.76895 
21006 1 2.65452 6.84404 0.382287 
11553 1 3.88152 -1.32153 6.78314 
11552 3 -0.25094 2.01662 3.16735 
6881 3 -2.50775 -2.59771 1.23751 
6880 1 1.39022 -0.585169 -0.211439 
9247 1 -1.12735 -4.29239 0.356826 
10149 1 -4.05638 3.4011 -5.81949 
9249 1 1.80954 1.63671 7.73975 
9248 3 -0.428606 1.93304 -2.02531 
18878 3 3.90282 5.53173 -0.207468 
3113 3 1.19081 -1.86363 2.90218 
481 1 -2.20277 -0.231885 -6.10171 
7087 1 1.34019 -2.35325 -8.4383 
10147 1 2.4477 5.12308 1.15598 
18262 1 9.43551 0.632938 0.767089 
10148 3 1.0682 -0.677799 2.14793 
18879 1 -4.50228 -2.27527 -0.585297 
3114 1 -0.431303 -1.45691 -1.70834 
13066 1 2.60045 -0.0664428 2.18525 
7089 1 -2.24805 3.03521 1.00863 
13068 1 -3.62636 -0.435765 8.67484 
13067 3 -1.18902 -3.18241 1.78587 
7088 3 -3.09927 -1.53987 0.597236 
9303 1 0.791387 -1.44119 6.49792 
9302 3 -1.93211 -4.24855 -3.63907 
215 3 3.05558 -2.11276 -0.283611 
214 1 0.657126 0.605519 3.23727 
775 1 -2.28378 1.26027 -3.61989 
216 1 -3.1692 0.886184 0.0344016 
777 1 -4.13277 5.17338 1.71628 
776 3 2.89347 1.84635 1.31018 
15606 1 5.39627 -3.5374 10.8211 
7179 1 -1.86224 1.75923 -0.265341 
19562 3 -1.15713 0.411695 -0.325379 
19123 1 -2.93063 3.46652 -4.21201 
19561 1 2.86227 -1.47266 3.09121 
19563 1 3.38584 2.30454 -1.87227 
8952 1 -3.03426 -1.90919 4.32594 
10008 1 4.86873 -4.26952 -0.240326 
10963 1 -4.39675 0.113319 -3.69911 
10007 3 3.05097 -0.332422 2.24585 
10006 1 -3.61229 -2.85069 -2.69176 
2386 1 -1.95854 1.04607 -0.207079 
10964 3 2.19999 -0.393516 0.685981 
6956 3 4.47918 -0.243648 0.109583 
8074 1 -0.997652 4.55866 1.15368 
936 1 2.75906 1.52134 -2.43492 
934 1 0.815424 10.1478 -4.93475 
15574 1 7.45373 -1.5416 4.52326 
935 3 1.79019 2.95418 1.68884 
16461 1 -3.12114 -4.29857 0.0268298 
15575 3 1.38232 -1.58298 -6.41319 
15576 1 2.60554 1.81413 0.21982 
18692 3 3.44116 2.52327 6.30053 
18691 1 5.21054 -3.59285 -2.83175 
10384 1 -3.22747 -3.94448 1.93388 
10385 3 2.59882 -2.87008 1.58774 
18693 1 6.71612 0.840842 0.517806 
3399 1 0.0688994 -1.69087 -8.23108 
6948 1 -4.7046 3.76641 1.72357 
6947 3 -1.90539 -6.90271 4.35323 
3398 3 2.39044 -0.406181 -0.195089 
3397 1 -1.83592 -4.229 1.35159 
2164 1 0.129495 1.52906 5.68465 
6546 1 0.361181 -3.13454 8.71079 
1159 1 -0.337227 0.575386 0.350018 
1160 3 1.89709 2.1464 2.16474 
1161 1 2.8777 -5.77495 3.03915 
2165 3 2.82113 -1.42183 -3.31593 
2166 1 -2.01291 -0.704576 -2.39716 
6545 3 -3.17193 -1.84303 -1.17561 
14736 1 -0.317529 0.16271 2.32808 
14734 1 -5.3252 1.35276 0.687172 
8070 1 -1.48986 2.54472 -3.42938 
14735 3 -0.705791 -0.382798 -2.3768 
19829 3 1.36062 -0.658483 -0.496378 
19828 1 -3.12358 2.8967 1.05857 
4000 1 -1.93206 -0.0228506 -6.04306 
18092 3 -6.13379 0.932646 4.87961 
18091 1 -7.45466 2.19525 -0.108708 
15315 1 -6.71807 -0.305792 2.95746 
3826 1 -0.816791 -2.44581 3.24743 
5157 1 -2.41156 -5.57176 1.87703 
5156 3 -3.0451 -3.20875 1.16607 
5155 1 5.38142 5.56174 6.31811 
12450 1 -3.02524 -0.0214053 -2.90165 
15314 3 1.66276 1.06625 -1.48044 
3828 1 0.0292234 0.364831 3.62893 
7141 1 -9.95866 0.00907968 0.306906 
3112 1 -2.64254 2.14129 6.88614 
7142 3 -0.421721 -2.34667 -7.27628 
15313 1 -5.26533 3.29452 2.04167 
7143 1 -4.85348 -0.149104 1.69483 
11273 3 0.419266 -3.1641 -0.3578 
6639 1 -3.71436 -1.35866 -6.39745 
6638 3 -2.35521 -2.16881 -2.35994 
11272 1 1.96017 -5.24251 0.695878 
2658 1 -2.15216 1.41132 -4.72276 
11274 1 2.99034 2.34665 2.55729 
1068 1 -5.36587 -1.49822 0.105721 
1067 3 -1.66926 0.283416 -2.56591 
1066 1 -0.651299 -3.00622 -4.83265 
10744 1 4.08215 -3.49801 -1.56393 
10745 3 -0.471168 1.16433 -3.92691 
10746 1 -1.51386 1.20193 2.05507 
3217 1 -4.62772 5.13971 -0.289705 
7178 3 -0.408346 -1.18541 -1.3147 
18015 1 -2.99872 1.91633 3.4748 
7177 1 1.50635 -0.609797 -3.45032 
19130 3 0.397095 0.17482 4.59415 
3218 3 -1.58937 1.34149 -1.31161 
4632 1 -3.90052 0.948499 -5.58548 
13218 1 1.0548 -5.99557 6.14277 
4631 3 1.68016 6.48561 1.53927 
19129 1 -3.14946 -4.65064 -5.01015 
1953 1 -8.87869 -2.60762 -2.50296 
10965 1 -0.0313115 -3.11622 1.08884 
13216 1 2.09996 -0.80423 5.37797 
13217 3 -2.11479 1.37269 0.255194 
13177 1 -0.511284 1.89563 0.174127 
12577 1 0.0344116 -1.92029 -4.9664 
13178 3 4.01221 -0.22257 3.18782 
13179 1 0.954731 -0.214797 3.4812 
16797 1 3.9915 3.66038 2.49622 
6201 1 4.97249 0.451084 3.14286 
6200 3 1.61564 4.13164 -0.671272 
7545 1 -4.91978 -2.57887 6.26665 
16459 1 -1.29301 0.355367 -2.34145 
16460 3 1.88211 -0.494069 2.09691 
2216 3 0.748671 -3.15176 2.45221 
2215 1 -0.435557 1.33247 2.2288 
2217 1 2.3133 -5.61354 0.145162 
12283 1 -7.0825 3.01209 1.56714 
14577 1 -6.60517 1.81623 1.01261 
14575 1 -0.204429 3.27232 -0.355263 
12741 1 -4.72395 -3.57752 -2.33953 
14576 3 1.25452 -0.823218 -4.05119 
17397 1 -1.12469 -0.950448 1.73435 
12284 3 0.128693 -0.1433 -0.27931 
12285 1 2.44485 -4.4462 -2.49535 
19608 1 -1.9984 -1.25865 3.54908 
19607 3 -0.0570911 4.83439 -1.51134 
19606 1 -2.02929 4.42277 0.063664 
16169 3 1.3905 1.50051 2.24893 
9202 1 2.15566 0.777477 1.66635 
19830 1 -1.87205 0.380156 2.20984 
11440 1 -0.0937556 1.02369 -3.07503 
11430 1 0.742854 2.99065 1.31379 
11428 1 -2.46104 -4.46117 -2.02361 
11429 3 0.346771 1.10363 2.48974 
10700 3 1.54474 -4.75903 -1.29156 
12449 3 -1.39223 -0.510843 -1.14568 
10699 1 -6.00879 1.00477 -0.488381 
11441 3 -5.92785 -6.24113 0.693883 
18093 1 -3.08729 8.4524 0.0736053 
13792 1 0.376165 -1.05832 0.776995 
10593 1 -2.55885 -2.38206 -5.46987 
13794 1 -0.666662 5.64889 -0.117495 
13793 3 -5.15993 -2.97482 -2.00027 
2755 1 2.18009 -1.45554 -1.17481 
8206 1 -6.23759 1.16561 -5.58529 
8207 3 -1.28927 -3.29134 0.906727 
2756 3 0.103283 1.45676 1.70244 
13159 1 4.95327 -2.13962 -0.584869 
8208 1 -3.68365 3.92456 -1.99828 
2757 1 1.25555 -5.02599 1.52534 
3519 1 3.32162 -3.23268 1.00254 
3518 3 1.65726 -0.423731 2.90602 
15403 1 6.05094 -4.46184 4.3511 
6637 1 1.02955 3.26581 0.574853 
3517 1 0.73076 2.75286 3.65015 
19804 1 0.0843051 -4.63779 0.526965 
10446 1 2.57242 -0.576753 1.32113 
15404 3 1.61457 1.27871 -1.22673 
15405 1 3.07906 -0.802759 0.694672 
10867 1 -3.58657 0.371619 -0.792969 
10868 3 0.0238212 -2.43845 -1.51708 
10869 1 -0.81818 -2.39199 2.15468 
11481 1 -0.590004 -0.0461693 -0.917909 
1952 3 -3.68263 -5.59143 -2.53836 
1951 1 1.85912 -2.41627 -1.79838 
7812 1 1.28986 -4.82467 0.365772 
7811 3 -2.45216 5.44275 1.68173 
11315 3 -1.8145 1.63955 2.97806 
14611 1 6.32985 -0.381742 8.06041 
9393 1 -1.43588 1.97112 -5.34042 
7810 1 -1.48247 -0.0665404 2.69465 
11314 1 -7.53706 3.48811 5.68939 
13803 1 1.50948 -3.72801 -4.08186 
17551 1 6.77972 -4.21242 -0.196099 
10549 1 -3.0451 -5.65231 -3.42238 
6042 1 -0.502411 -4.13988 2.76898 
10550 3 2.01749 -5.47988 2.48571 
11316 1 -3.33688 0.928606 -4.70409 
468 1 0.940833 -1.11477 0.174353 
6041 3 -0.798215 4.11993 -2.81727 
13802 3 -2.74207 -1.98301 -0.337372 
467 3 1.30838 -2.22551 3.75586 
466 1 -2.35949 -0.118917 1.87817 
6040 1 -0.660037 2.78513 -0.798265 
2518 1 -0.423809 -2.95981 4.24322 
4763 2 -0.723026 0.49521 -1.95028 
4764 1 0.0888989 3.08002 -1.39903 
13858 1 0.472921 -2.1801 -2.24804 
18127 1 0.862859 1.65389 -2.67633 
18128 3 1.16664 1.02713 1.41351 
14427 1 -8.08322 0.186838 -1.35748 
18129 1 1.97271 7.008 2.12867 
13859 2 -0.235615 0.0636464 0.832259 
9552 1 5.19568 -0.989784 -4.08758 
18108 1 2.30961 -3.63189 2.46354 
9551 3 -3.63969 1.1493 3.67339 
14425 1 2.3582 -3.64548 -0.749555 
14382 1 -0.47189 -0.581906 4.79092 
14426 3 -3.34868 -1.79737 -2.5079 
7535 2 -1.73982 5.13177 5.62453 
18107 2 4.45781 2.23713 -0.446946 
1051 1 1.52644 -5.16802 7.82471 
1053 1 3.439 -1.2571 -0.564033 
1052 2 5.65266 0.878001 2.59757 
18106 1 0.191727 4.78238 -2.82748 
11772 1 0.0363417 0.437502 1.7037 
11771 3 2.07095 -1.84329 3.05385 
7452 1 1.69609 3.30435 -4.53274 
11946 1 -4.04876 -4.41447 1.43144 
11945 2 -1.14049 1.10776 -0.528563 
11944 1 -3.43359 1.59479 1.08612 
5697 1 4.09112 -4.77629 2.57861 
5696 2 -4.78351 0.357603 -2.81845 
5695 1 -1.93903 1.59138 3.84954 
7346 3 0.80303 0.91078 -1.45744 
5976 1 -0.271569 3.61999 2.04543 
5975 3 2.85998 -1.43089 -1.13291 
5974 1 -1.76091 5.6601 -1.2546 
2883 1 4.58753 1.50835 -2.05368 
2499 1 2.96744 -4.93876 -2.98491 
2497 1 -3.24862 6.94148 2.46281 
7345 1 5.06176 3.16227 2.2459 
10398 1 4.55347 0.191432 -3.49271 
10397 3 1.02829 2.17865 -1.79257 
2498 3 -4.51596 1.30366 -1.88035 
2882 3 -0.0751663 2.87907 -1.39224 
10396 1 -1.95993 2.19841 -6.10192 
16919 3 -2.0075 -3.63085 -2.97373 
14381 3 5.28447 4.53556 1.1018 
14380 1 -3.12498 -0.695406 -3.14395 
6921 1 -0.475793 -0.128306 3.36565 
20838 1 -3.10868 0.908267 -6.13399 
16920 1 1.19435 -1.91935 -2.89321 
20837 3 -1.33135 -4.14962 -0.276806 
20836 1 -3.84877 3.13215 6.10108 
8381 3 3.08146 -1.73432 0.470013 
8380 1 0.268309 -3.2525 -2.14922 
4437 1 4.51389 3.06703 -2.93968 
8382 1 -2.26884 -7.40745 -6.31182 
19207 1 -0.340902 -0.838028 4.4493 
2072 3 1.57701 6.57253 0.859376 
19209 1 -2.68738 -5.45358 -0.635218 
2073 1 -3.09113 -1.01049 -2.21203 
19208 3 0.62358 1.50598 0.85499 
18345 1 -1.14193 1.80791 -3.55912 
2071 1 3.8347 1.91708 0.0483845 
19642 1 -1.86143 0.797403 1.6815 
4693 1 5.63875 -5.64997 -0.257071 
4694 3 -0.0276412 -0.844485 -3.3589 
4695 1 7.17234 1.21798 -2.97289 
15396 1 -4.35668 -1.46246 3.91002 
15395 3 2.55012 1.27384 1.86216 
20077 1 -2.50688 -0.738693 -0.301626 
11811 1 2.50202 5.9022 -6.05102 
12965 3 3.23738 1.27051 -1.19504 
10975 1 -5.17121 1.60615 -2.51855 
12964 1 -6.61053 -2.9827 2.7717 
10976 3 0.90729 -0.413011 1.41462 
10977 1 1.98867 -0.414128 -0.904889 
11810 3 4.46569 1.51412 -5.99171 
13151 3 -0.486064 4.80107 3.47422 
13150 1 -0.682432 -2.7558 -1.56218 
11809 1 -1.85776 0.00769382 -3.55322 
13152 1 6.56059 2.83811 3.0182 
12966 1 1.71934 3.89601 7.87103 
274 1 6.02134 4.1389 0.287822 
276 1 0.786148 1.86575 0.623914 
21598 1 3.82073 0.98221 -1.28748 
275 3 -5.29862 0.9044 -1.89275 
5945 3 0.126185 2.49391 -0.542328 
5946 1 1.14497 2.06778 -3.22887 
16297 1 -2.51762 3.31307 -4.81294 
7347 1 -2.43323 -4.38083 -3.00436 
16298 3 -3.851 3.65236 -2.10458 
16299 1 -0.373851 -2.58425 3.5747 
5728 1 0.440652 2.41182 -4.86643 
10885 1 4.35465 1.04281 5.05309 
10886 3 -0.355715 -2.45261 0.540609 
10694 3 1.75871 1.62764 -3.14197 
10693 1 0.686743 -0.39206 -0.649377 
788 3 -0.145295 0.974534 -1.329 
10887 1 3.14916 2.34184 -1.74282 
10695 1 1.15962 0.0529917 -3.34821 
3595 1 -0.56299 -2.97565 0.559198 
787 1 3.72811 -3.70392 0.20296 
8449 1 -6.4273 -2.68692 -1.59724 
3596 3 0.442256 -1.57325 1.63184 
4879 1 -0.833571 -4.80585 -0.34355 
4880 3 4.24216 0.451714 -1.97178 
4881 1 -2.10758 -3.16375 1.21626 
16918 1 -0.775105 3.09117 -3.04359 
7219 1 -1.81537 3.02562 7.41442 
3597 1 -3.93716 2.09087 -0.924346 
7221 1 -5.41289 0.00579693 -7.11407 
7220 3 2.9172 0.31817 -2.83545 
982 1 1.23548 -2.205 0.890618 
21543 1 -7.22674 3.99767 1.46824 
983 3 1.36195 2.4347 -1.68464 
21542 3 -1.8517 0.574511 0.441305 
21541 1 -8.03356 -2.88535 0.0294657 
17562 1 3.13155 -2.71905 -1.54363 
18193 1 2.95324 1.19636 5.45832 
18194 3 2.97135 -2.38965 -3.56879 
3415 1 3.39123 -4.10358 0.544084 
5104 1 1.18249 -4.27594 1.39567 
5105 3 3.40153 1.73601 -3.09365 
16615 1 -6.4921 -2.84261 0.124072 
5106 1 1.59581 1.4781 -4.66247 
17561 3 -0.0880135 2.37945 -3.48388 
3416 3 -1.59083 2.42541 3.82936 
17560 1 -5.16063 -2.16405 1.65081 
3417 1 -2.154 0.106003 2.79155 
3379 1 0.949345 -2.62072 2.6417 
3380 3 -2.10967 -0.793442 4.51754 
3381 1 1.29164 6.57371 5.61009 
10557 1 -6.79319 -4.4619 -1.70075 
10556 3 0.536236 1.46524 1.58376 
10555 1 0.556024 -0.870136 3.31655 
10051 1 -0.851181 -4.28828 -0.642614 
10052 3 0.335498 2.17639 -3.25535 
10053 1 3.69842 -6.14763 -5.96562 
5061 1 -0.540602 6.68169 -1.65086 
15394 1 2.92602 -0.81501 -0.70552 
3425 3 2.34322 -2.83123 -0.945879 
3426 1 -0.961591 -2.62961 1.53744 
3424 1 -3.908 0.703083 -1.68708 
9822 1 2.82807 -3.31179 3.00021 
7207 1 -3.38026 3.24699 0.432803 
9821 3 0.587239 0.41623 -0.0232828 
6513 1 0.0809781 2.88077 -0.870513 
6512 3 0.522915 -1.46503 -0.75514 
5060 3 -1.14743 1.67905 4.04764 
9820 1 1.20935 -0.739864 5.26381 
11340 1 -5.11318 0.17836 -0.580136 
7 1 -4.75822 2.1506 5.35571 
19329 1 2.47768 -4.37966 2.13163 
8 3 -3.40555 1.98875 1.2032 
9 1 -1.51257 -0.401068 -3.98918 
12039 1 -0.711975 -1.10131 1.2885 
12038 3 -0.734959 -4.44738 -2.58206 
3227 3 0.0343934 0.172098 0.345043 
21599 3 -2.52711 3.93812 -0.0550708 
21600 1 4.45355 -1.60579 1.07711 
20910 1 -4.244 4.28988 -3.09324 
7521 1 3.46848 0.215297 1.99901 
12037 1 3.46413 1.01268 -4.75318 
20307 1 2.08612 -5.3125 -5.68544 
3228 1 -1.84642 2.12377 -6.27837 
13764 1 -3.18675 -2.07669 0.984871 
14107 1 -0.427309 -2.79039 -2.54957 
13763 3 5.21084 -3.1055 -4.46807 
8883 1 3.52376 -5.22718 -4.74468 
8882 3 -4.89489 -1.66461 -0.332358 
20909 3 -1.87119 -1.03158 0.675948 
14108 3 -1.89898 3.3305 2.28047 
8881 1 0.904159 1.21632 -3.86856 
1556 3 -3.58019 -0.112232 -0.78861 
19979 3 3.29822 -0.546658 -0.897505 
4507 1 -1.92737 0.402832 -3.62506 
4508 3 2.04867 -1.6532 -3.90131 
4509 1 7.69264 -1.42223 -1.2915 
19980 1 -2.87104 0.0427518 -0.222911 
8451 1 2.26024 0.00532696 -2.50092 
8450 3 0.116981 1.13699 -2.15257 
14150 3 2.4193 2.60287 2.40551 
14151 1 2.31993 -3.33545 4.13827 
4696 1 2.02823 -0.890344 0.87436 
4697 3 1.78009 -1.35565 -3.9765 
4698 1 -1.11759 1.6946 0.167222 
1030 1 0.570982 -2.50122 2.0275 
19837 1 -0.63449 2.84551 -0.165809 
19838 3 -1.28341 0.513467 4.00155 
1031 3 2.72031 -2.04196 0.306398 
1032 1 -1.83628 3.70856 1.99448 
1767 1 6.97705 1.13324 0.37368 
12630 1 -5.40131 -1.059 0.571409 
12629 3 2.25063 -0.508616 1.6458 
19839 1 -1.61739 6.17971 2.68403 
16347 1 4.53722 4.97584 -1.26764 
16346 3 0.69298 5.07506 -1.79396 
16345 1 -5.01727 1.88397 1.01707 
16616 3 2.52899 1.79038 0.883265 
16617 1 -0.152258 -7.00718 3.60627 
5002 1 6.85878 -0.678352 2.74742 
9645 1 -0.628765 5.42981 0.214762 
18063 1 -0.351332 -2.20974 -0.557999 
18062 3 -2.31341 -1.11071 -1.1077 
5003 3 -0.705987 -1.94162 -3.31064 
5004 1 2.48389 2.91823 -4.45758 
18877 1 0.0284922 -2.7062 -1.64808 
10020 1 -3.68461 -6.5233 -5.57741 
10019 3 2.40915 0.279098 -2.94351 
6882 1 -2.78942 5.72529 2.14552 
965 3 0.0432918 2.11446 2.8775 
10018 1 -2.82169 -2.8502 -4.15651 
964 1 -1.95279 6.48868 -6.16384 
16192 1 1.74041 1.1272 -1.19486 
16194 1 -0.534164 4.09908 6.39169 
15735 1 5.05739 1.50188 -1.91451 
16193 3 1.60465 -1.78672 -1.52916 
15734 3 -0.797482 -3.2498 0.385985 
9644 3 -0.553787 1.07321 1.21783 
19408 1 6.17941 -1.89444 -0.587574 
13611 1 1.18775 -3.7749 3.76506 
13610 3 -1.13124 0.780549 3.496 
6511 1 -5.66511 -2.26081 2.01331 
13609 1 0.360858 2.3195 1.9436 
4425 1 -5.89796 -6.05576 1.91471 
11339 3 -0.675847 4.44501 -0.506698 
11068 1 1.7067 2.5894 1.01467 
2305 1 2.99549 -0.221206 1.76032 
11338 1 -2.79606 6.31252 0.349802 
1744 1 -0.844623 -0.413215 7.07192 
1745 3 2.79588 3.40027 -2.26356 
19377 1 1.05161 3.09753 -0.593528 
1746 1 1.01515 1.3061 -1.56902 
2306 3 -4.80932 2.79756 1.99987 
19124 3 1.37624 4.07258 -1.02422 
19376 3 2.996 0.00791431 -1.30443 
19375 1 -3.89815 3.21892 1.27829 
20305 1 -3.17275 -2.67944 -5.56938 
11069 3 1.03271 -2.30673 -0.292328 
20306 3 1.19608 -1.16819 -0.589467 
19125 1 0.999862 1.1756 4.91912 
20433 1 -6.05972 -7.34792 -2.68433 
2387 3 -3.51049 -0.923002 3.46492 
2388 1 0.814489 0.812935 0.431439 
21081 1 2.54243 3.38521 -0.597877 
21080 3 2.31809 -2.4573 -0.575948 
21079 1 -1.87985 -0.526137 -2.20193 
6955 1 1.3589 0.724979 -3.89044 
6957 1 -1.51056 -2.9417 -1.88879 
11632 1 -0.0811904 -3.89426 4.70885 
7322 3 1.64552 0.126905 0.711113 
14109 1 -0.786896 -5.84459 3.02185 
9474 1 -0.484225 -3.87124 1.12128 
9473 3 1.46203 -2.76262 -2.2069 
9472 1 -2.01645 -1.60584 -2.88957 
7321 1 4.32229 -4.93946 1.04384 
11633 3 -1.39567 5.40711 -0.374461 
11634 1 2.10189 0.302747 -0.371505 
7323 1 -3.18372 -0.498287 -3.11486 
5187 1 -7.71779 6.51547 4.31892 
5186 3 3.98843 0.324399 3.19343 
5185 1 -4.9679 5.07997 2.06446 
6946 1 1.24392 2.49822 -0.383184 
6198 1 -5.0232 4.81467 5.84456 
11260 1 -3.98195 0.00107188 -1.79785 
11261 3 3.54504 -3.07462 4.12375 
207 1 -1.33647 0.812571 3.50017 
11262 1 -2.30206 -1.8584 -0.283507 
206 3 -5.04475 0.888291 -0.446586 
1555 1 -0.880909 6.27558 5.95627 
205 1 -0.458334 -8.35471 -1.82771 
16573 1 -3.39969 6.73392 -2.8225 
16574 3 3.38226 -0.512693 -4.16435 
16575 1 -2.74427 -4.47729 5.51539 
5449 1 0.580963 1.88533 1.62836 
5450 3 -0.415647 -0.113145 2.81332 
5451 1 0.274061 -5.55382 1.83126 
14944 1 2.06772 -1.23955 -1.0476 
19826 3 3.22506 -5.12858 -3.52967 
10825 1 -3.17369 -0.933856 1.57943 
19827 1 2.30895 4.80648 -2.39641 
14945 3 -4.08012 1.20604 0.577123 
19825 1 3.95114 0.0357841 0.752939 
7009 1 0.856152 -1.86187 1.18929 
8051 3 -0.587353 1.45879 -0.426333 
4002 1 0.271715 1.88413 -0.221899 
8050 1 -1.45664 -4.17141 0.686776 
8052 1 3.04952 3.37583 -0.258383 
4001 3 -2.09819 -4.3027 -3.87682 
16984 1 -5.08104 -1.1145 -3.56872 
16985 3 -1.53438 -2.68091 0.228505 
16986 1 0.30095 -0.639069 -3.2018 
18061 1 2.46236 -0.597949 -1.6776 
8660 3 -2.4159 -0.130408 3.41275 
8661 1 0.306128 2.44186 -2.45714 
2179 1 7.51749 -2.50922 1.98279 
2180 3 0.570906 -0.699386 -0.219748 
8353 1 -1.06421 6.81405 -0.647958 
2181 1 0.641219 -2.13398 4.80689 
5317 1 -5.73347 -0.642502 3.05162 
8659 1 -3.27691 3.37458 -5.07281 
5318 3 2.49003 2.64199 -3.23442 
15733 1 -1.6265 -3.13056 -0.259666 
5319 1 3.51288 3.30806 -6.87742 
9643 1 -0.936602 4.15615 -2.17508 
4344 1 -3.02653 3.41202 6.05443 
1197 1 0.952646 1.23423 -1.1563 
4343 3 2.55823 2.32035 1.68712 
4342 1 0.0875414 -1.10123 0.762894 
19409 3 -2.47873 -0.315634 -1.5745 
8261 3 1.48346 -0.771586 -0.468945 
13518 1 -2.59631 -3.02268 -1.30869 
8260 1 2.54974 -0.488095 -0.381027 
13517 3 -1.01807 4.11537 -5.26063 
19410 1 -3.00835 -5.0936 4.82605 
13516 1 0.892555 2.75848 3.21896 
5888 3 3.04428 -4.35574 2.55361 
5887 1 5.0204 -2.99912 -2.8012 
11479 1 3.2246 0.788607 -1.32611 
11480 3 -3.78496 -1.11919 -0.60891 
5889 1 -4.8759 1.11199 -2.08259 
11070 1 2.27186 -0.398257 -0.764716 
3219 1 2.41611 3.2822 2.17304 
20995 1 0.383185 -7.40538 0.608448 
18014 3 -1.89619 -0.539299 0.622903 
18013 1 3.35527 -3.14053 3.07019 
18985 1 1.09982 0.282096 -3.20504 
18986 3 -2.3791 -2.33352 2.60313 
10821 1 -2.59226 -4.30099 -0.316908 
20996 3 -0.732299 0.895816 1.3402 
19698 1 4.28989 -1.50406 -0.475512 
12578 3 2.42736 -0.560577 0.088223 
3932 3 -1.78298 -0.970947 2.07821 
12491 3 -0.580891 -0.547141 2.94627 
18987 1 1.04283 -3.53972 0.303255 