ITEM: TIMESTEP
80000000
ITEM: NUMBER OF ATOMS
3177
ITEM: BOX BOUNDS pp pp pp
0.0000000000000000e+00 5.0000000000000000e+01
0.0000000000000000e+00 5.0000000000000000e+01
0.0000000000000000e+00 5.0000000000000000e+01
ITEM: ATOMS id type xs ys zs
7155 1 0.47367 0.524548 0.336084
7057 1 0.482891 0.561122 0.331515
16962 1 0.551488 0.629421 0.338933
16961 2 0.549375 0.634296 0.333734
16960 1 0.544958 0.636547 0.327236
7154 3 0.478352 0.521206 0.341623
17517 1 0.48741 0.519396 0.347337
7153 1 0.485421 0.519521 0.346076
17516 3 0.494092 0.516966 0.351426
17515 1 0.501947 0.518169 0.35547
14178 1 0.504405 0.518478 0.356733
14177 3 0.51042 0.518881 0.361293
14176 1 0.515257 0.520338 0.365552
13245 1 0.517414 0.521303 0.367337
7059 1 0.480811 0.560649 0.347385
7058 2 0.483041 0.560801 0.339579
14293 1 0.480257 0.560009 0.350358
14294 3 0.478982 0.558533 0.358418
14295 1 0.476549 0.556792 0.364786
7609 1 0.475263 0.556378 0.367654
1166 2 0.549896 0.553735 0.369382
17392 1 0.548871 0.618986 0.352577
549 1 0.547468 0.61853 0.355117
548 2 0.544561 0.616962 0.362178
547 1 0.547341 0.614805 0.368708
19469 2 0.483026 0.533937 0.395351
12388 1 0.490311 0.537663 0.387793
19470 1 0.488244 0.53615 0.389843
19468 1 0.482611 0.527656 0.399925
12389 2 0.494936 0.540913 0.382984
15259 1 0.547718 0.520457 0.390199
13244 2 0.523602 0.52258 0.37193
13243 1 0.529771 0.523205 0.377414
20275 1 0.532141 0.523379 0.379452
456 1 0.527239 0.544435 0.38156
19422 1 0.524825 0.544983 0.38245
16425 1 0.550449 0.539717 0.395891
18892 1 0.550347 0.538557 0.399143
455 2 0.534137 0.543923 0.376669
20277 1 0.545371 0.520981 0.388685
16424 2 0.54942 0.544979 0.390153
20276 2 0.537819 0.522908 0.385055
3803 2 0.48923 0.571204 0.39056
7611 1 0.47184 0.562194 0.380723
7610 2 0.472996 0.556426 0.375855
12390 1 0.496542 0.547784 0.382931
19420 1 0.512404 0.548121 0.390893
19421 2 0.517123 0.547271 0.384715
13573 1 0.497433 0.550498 0.382734
4265 2 0.507105 0.547767 0.398778
4266 1 0.51073 0.548543 0.393006
13574 2 0.500342 0.55859 0.38196
13575 1 0.494926 0.563567 0.385402
3802 1 0.493339 0.565083 0.386466
3804 1 0.496859 0.572303 0.394827
14389 1 0.499243 0.57245 0.396463
2918 2 0.51809 0.570988 0.387934
7561 1 0.551027 0.564065 0.382026
454 1 0.53989 0.547448 0.373399
2919 1 0.524346 0.566253 0.390265
13905 1 0.526452 0.564078 0.391199
1165 1 0.543093 0.549272 0.371759
13904 2 0.532733 0.560204 0.392771
7562 2 0.548557 0.571753 0.380418
13903 1 0.540064 0.55974 0.39623
16786 1 0.543069 0.560735 0.397928
21254 3 0.511682 0.593258 0.373675
2917 1 0.518298 0.579692 0.389256
21255 1 0.515086 0.59306 0.380876
5608 1 0.516635 0.592973 0.384113
5610 1 0.51881 0.582741 0.389798
21253 1 0.50513 0.591273 0.371189
5609 2 0.5215 0.590104 0.391127
8926 1 0.546959 0.601948 0.379048
14014 1 0.546413 0.599178 0.378901
7563 1 0.54715 0.579206 0.379345
14016 1 0.546268 0.582469 0.379104
14015 2 0.545033 0.591149 0.377998
2995 1 0.543029 0.589761 0.400641
11092 1 0.544975 0.591818 0.400591
11093 2 0.551402 0.596532 0.398541
8927 2 0.549166 0.610045 0.377739
8928 1 0.547758 0.613443 0.371364
6366 1 0.524457 0.616541 0.384626
13427 2 0.54726 0.616745 0.396101
6364 1 0.537166 0.616926 0.392157
13426 1 0.540251 0.617032 0.393667
6365 2 0.530297 0.616915 0.389497
5828 2 0.529408 0.686308 0.39846
21128 3 0.517109 0.514924 0.404801
12999 1 0.501794 0.488863 0.405751
12998 3 0.498437 0.495824 0.409281
12997 1 0.495983 0.496833 0.417259
13321 1 0.495139 0.497127 0.420498
13322 2 0.49211 0.499997 0.42807
16935 1 0.519826 0.498392 0.429148
14034 1 0.548874 0.486047 0.430977
4728 1 0.537006 0.494676 0.415549
5118 1 0.534198 0.494299 0.41693
5117 2 0.526801 0.491587 0.420935
5116 1 0.521529 0.496552 0.427057
4727 2 0.544357 0.495726 0.411305
4981 1 0.490001 0.544849 0.413882
11106 1 0.482121 0.52598 0.401737
11105 2 0.479767 0.520136 0.406732
11104 1 0.476861 0.518825 0.413946
157 1 0.476008 0.51876 0.416965
158 2 0.471942 0.517407 0.42449
7943 2 0.490402 0.529682 0.423277
10416 1 0.508813 0.520228 0.409976
21129 1 0.511208 0.518958 0.408369
10415 2 0.502214 0.523385 0.412861
10414 1 0.497707 0.527624 0.416674
7942 1 0.495853 0.528805 0.418247
7944 1 0.493544 0.529035 0.430486
12021 1 0.499597 0.544699 0.429991
19180 1 0.501824 0.544325 0.428731
19181 2 0.50762 0.54368 0.424489
2604 1 0.547352 0.524952 0.427527
21127 1 0.524286 0.515866 0.406615
19471 1 0.527334 0.51589 0.407277
19473 1 0.541462 0.517989 0.41304
19472 2 0.53488 0.516703 0.40936
12180 1 0.544027 0.518291 0.414587
12179 2 0.550067 0.519486 0.418587
18893 2 0.550026 0.536569 0.406919
18894 1 0.544836 0.539427 0.4133
12178 1 0.547682 0.523057 0.424695
16354 1 0.451493 0.575252 0.429776
16355 2 0.457523 0.572932 0.423051
16314 1 0.462627 0.551487 0.414271
16356 1 0.461589 0.566859 0.419395
16313 2 0.467472 0.553163 0.419361
16312 1 0.473988 0.557612 0.420549
5422 1 0.48312 0.571752 0.423519
5423 2 0.483631 0.563589 0.422528
19390 1 0.482861 0.574114 0.424762
5424 1 0.476677 0.55903 0.420934
4264 1 0.500934 0.548187 0.404035
4983 1 0.49895 0.548733 0.406112
4982 2 0.493841 0.550483 0.411255
14390 2 0.504959 0.572579 0.402296
954 1 0.513114 0.569443 0.422509
4512 1 0.512673 0.572195 0.422705
14391 1 0.512865 0.572642 0.404624
16369 1 0.515912 0.573074 0.405287
953 2 0.513403 0.561423 0.422077
19182 1 0.511859 0.550665 0.424177
952 1 0.512922 0.553587 0.423936
16787 2 0.549408 0.563742 0.402507
16370 2 0.523509 0.574787 0.406553
14339 2 0.547386 0.572183 0.422703
14338 1 0.540309 0.572437 0.426985
16226 2 0.550279 0.550476 0.42934
7174 1 0.537599 0.571832 0.42897
19391 3 0.481584 0.580658 0.429192
4511 2 0.511385 0.580096 0.423926
6236 2 0.520651 0.595398 0.412613
6235 1 0.516694 0.600459 0.408379
3924 1 0.51506 0.602135 0.407176
4510 1 0.5124 0.587399 0.426751
11709 1 0.512184 0.589913 0.427562
11708 2 0.509216 0.597289 0.430644
1323 1 0.549428 0.59716 0.427872
1322 2 0.548877 0.593665 0.420288
4564 1 0.549784 0.598577 0.430634
9991 1 0.526204 0.590551 0.420874
6237 1 0.524777 0.591584 0.418401
16371 1 0.530783 0.577629 0.405915
2997 1 0.532706 0.579067 0.405263
9992 2 0.530173 0.588621 0.426544
2996 2 0.53857 0.584089 0.402901
1321 1 0.545405 0.599928 0.416752
9846 1 0.544195 0.602012 0.415472
16799 2 0.459224 0.613512 0.430272
16800 1 0.460928 0.619046 0.424864
3923 2 0.510608 0.606429 0.401906
3922 1 0.511837 0.611869 0.40772
2929 1 0.51164 0.613921 0.409595
2930 2 0.510013 0.621238 0.414302
2931 1 0.506099 0.62562 0.418842
1413 1 0.503901 0.627321 0.420867
1412 2 0.497071 0.629304 0.425441
1411 1 0.498632 0.63453 0.431325
1254 1 0.528446 0.633804 0.416756
4590 1 0.5298 0.631074 0.415693
4589 2 0.532514 0.624263 0.414387
9845 2 0.539857 0.607128 0.411623
9844 1 0.535849 0.613436 0.414539
3101 2 0.546945 0.632102 0.430207
4588 1 0.534978 0.615906 0.414736
8363 2 0.524822 0.613051 0.430769
3100 1 0.550231 0.632044 0.422493
20926 1 0.551093 0.63293 0.419901
11227 1 0.480434 0.64442 0.423287
17431 1 0.481095 0.646623 0.421191
11228 2 0.477388 0.637791 0.428467
17432 2 0.481135 0.653016 0.415039
17433 1 0.485488 0.656038 0.409245
9100 1 0.486671 0.657842 0.407326
9101 3 0.490049 0.66399 0.401984
5629 1 0.483137 0.664241 0.42967
20038 1 0.500383 0.665765 0.40439
9102 1 0.497033 0.66462 0.403349
12698 2 0.518823 0.654043 0.429462
1252 1 0.523471 0.646327 0.424388
12699 1 0.522722 0.648286 0.425724
1253 2 0.52518 0.639697 0.419505
6440 2 0.544 0.660866 0.411135
6439 1 0.540656 0.663699 0.417339
14564 2 0.53672 0.665292 0.426775
14563 1 0.539586 0.664361 0.419464
5630 3 0.479394 0.670722 0.425781
5631 1 0.48283 0.678054 0.425147
9640 1 0.484207 0.68047 0.424466
9641 2 0.487301 0.687079 0.422492
9642 1 0.489082 0.690822 0.430833
20039 2 0.508185 0.670058 0.406268
20040 1 0.514004 0.673134 0.409341
19387 1 0.516249 0.674437 0.410709
3290 2 0.540126 0.686654 0.429523
19388 2 0.521911 0.678991 0.413509
19389 1 0.525712 0.681309 0.406699
5829 1 0.526699 0.682408 0.404265
5827 1 0.535325 0.689934 0.402502
4741 1 0.537636 0.691024 0.404516
4742 3 0.543555 0.69489 0.408721
4743 1 0.550689 0.695964 0.411554
3289 1 0.545399 0.68292 0.425029
14820 1 0.547265 0.681929 0.42305
15195 1 0.546832 0.483975 0.431559
15194 2 0.540421 0.478937 0.432689
15193 1 0.53514 0.479994 0.439112
7704 1 0.533546 0.480057 0.441143
7703 2 0.529619 0.480153 0.44818
20985 1 0.479996 0.495969 0.456591
19350 1 0.480541 0.496396 0.453471
19349 2 0.48342 0.497738 0.446873
13323 1 0.488653 0.500617 0.435557
19348 1 0.487093 0.500051 0.438855
2912 2 0.518393 0.492551 0.455005
2913 1 0.510816 0.489321 0.456767
13594 1 0.508157 0.488247 0.45726
16934 2 0.515358 0.502311 0.434439
14884 1 0.497534 0.509774 0.455734
3265 1 0.499234 0.509536 0.452936
3266 2 0.503429 0.509048 0.446438
3267 1 0.507712 0.50451 0.441551
16933 1 0.510008 0.503751 0.439449
13595 2 0.50108 0.486036 0.459024
17844 1 0.518942 0.511886 0.460765
19114 1 0.548057 0.508168 0.440995
7702 1 0.525546 0.485388 0.45049
2911 1 0.523813 0.486959 0.451221
17843 2 0.523761 0.513526 0.45337
9798 1 0.530309 0.511089 0.445396
17842 1 0.528624 0.511687 0.44761
9797 2 0.536051 0.507954 0.440271
9796 1 0.544911 0.507604 0.441401
18050 2 0.538273 0.493546 0.461943
3458 2 0.472943 0.526636 0.441564
159 1 0.472917 0.520631 0.432037
3457 1 0.473202 0.522164 0.434724
3459 1 0.476058 0.530844 0.448828
5472 1 0.477894 0.532365 0.450965
5471 2 0.481536 0.536192 0.456782
5470 1 0.48329 0.543637 0.459344
11650 1 0.49468 0.52867 0.433042
11651 2 0.498141 0.526877 0.439342
11652 1 0.501491 0.530687 0.444321
8244 1 0.502746 0.532372 0.446085
8243 2 0.505786 0.538094 0.450481
8242 1 0.507995 0.540265 0.456234
15342 1 0.50923 0.54132 0.458884
2602 1 0.550228 0.531801 0.440853
15296 2 0.534595 0.536325 0.453401
15297 1 0.534349 0.540159 0.446427
6780 1 0.534094 0.541227 0.444529
15295 1 0.531705 0.53268 0.460187
2603 2 0.546649 0.529173 0.434114
16756 1 0.455884 0.572356 0.446169
9747 1 0.458663 0.570566 0.4459
12019 1 0.484278 0.548051 0.435858
5626 1 0.481537 0.548592 0.437461
9746 2 0.46383 0.565892 0.443823
5627 2 0.474324 0.550583 0.441768
5607 1 0.484197 0.546201 0.459873
9745 1 0.467605 0.558625 0.441164
5628 1 0.469374 0.556166 0.441204
5606 2 0.487086 0.553712 0.460659
5605 1 0.48884 0.559586 0.454348
5146 1 0.489317 0.561347 0.452366
12020 2 0.491785 0.547287 0.433256
5147 2 0.491282 0.565387 0.446974
12256 1 0.515545 0.560752 0.461275
5148 1 0.493597 0.572052 0.445563
10804 1 0.493759 0.574881 0.444251
6779 2 0.532202 0.546107 0.437571
16225 1 0.542086 0.548541 0.432683
6778 1 0.539462 0.547991 0.433906
12257 2 0.522575 0.559729 0.45678
7176 1 0.526374 0.574597 0.438863
7175 2 0.53239 0.570251 0.435175
12258 1 0.528983 0.559183 0.454886
15118 1 0.531848 0.558923 0.454667
4917 1 0.550166 0.56215 0.449137
15119 2 0.53992 0.559155 0.454554
15120 1 0.547605 0.561405 0.45066
16757 2 0.449681 0.576571 0.446633
15494 2 0.440895 0.581694 0.460975
15493 1 0.443674 0.580542 0.454334
16758 1 0.445262 0.579815 0.451851
19392 1 0.487054 0.581538 0.435236
10806 1 0.488939 0.581948 0.437248
5418 1 0.462016 0.604762 0.435705
13782 1 0.4753 0.585354 0.455548
2473 1 0.475757 0.582889 0.456731
5417 2 0.462391 0.598032 0.439651
13781 2 0.474012 0.593192 0.452924
13780 1 0.469533 0.594576 0.447444
5416 1 0.467603 0.595432 0.445195
2474 2 0.478577 0.575767 0.460319
860 2 0.517872 0.579591 0.443513
10805 2 0.494776 0.581097 0.442321
5340 1 0.504021 0.591988 0.459433
15729 1 0.501622 0.592158 0.46134
5339 2 0.509216 0.590843 0.454539
5338 1 0.513606 0.586749 0.449452
861 1 0.515022 0.584715 0.447604
10605 1 0.506389 0.604426 0.437929
11707 1 0.507573 0.601829 0.436263
19796 2 0.550663 0.581817 0.445831
9993 1 0.529483 0.592042 0.433962
859 1 0.524203 0.57603 0.440631
19795 1 0.545863 0.584363 0.45085
10708 1 0.544145 0.585216 0.452957
10709 2 0.539545 0.587497 0.45834
20004 1 0.529522 0.593373 0.436606
20002 1 0.524988 0.603471 0.448938
20003 2 0.529863 0.597707 0.44368
20829 1 0.523712 0.605802 0.450443
4565 2 0.549697 0.602769 0.437707
10250 2 0.459771 0.617976 0.452604
4254 1 0.459337 0.60932 0.459129
16798 1 0.461119 0.606923 0.434193
10249 1 0.4639 0.622307 0.44918
20778 1 0.465265 0.624464 0.447298
20777 2 0.470269 0.628553 0.443975
20776 1 0.473825 0.631112 0.437895
11229 1 0.474743 0.632233 0.435118
15398 2 0.48764 0.615231 0.452619
15399 1 0.483788 0.613445 0.458902
10251 1 0.460003 0.611922 0.457401
6396 1 0.482264 0.612736 0.461202
10604 2 0.502802 0.609075 0.442922
10603 1 0.496444 0.613081 0.445894
15397 1 0.494048 0.613561 0.447935
2358 1 0.520596 0.621498 0.434357
2357 2 0.517064 0.628329 0.438095
2356 1 0.512268 0.627534 0.444853
7191 1 0.510703 0.627472 0.447288
7190 2 0.506684 0.6268 0.453528
8388 1 0.50497 0.619375 0.461219
7189 1 0.505681 0.621527 0.459256
20828 2 0.520552 0.612212 0.453529
6575 2 0.543165 0.61101 0.458894
8362 1 0.530496 0.607469 0.432479
3102 1 0.543148 0.626861 0.434748
8364 1 0.521545 0.618943 0.433247
20947 1 0.542099 0.624906 0.436974
6574 1 0.541643 0.61549 0.452424
20948 2 0.539475 0.620944 0.443643
20949 1 0.541035 0.616969 0.450107
4975 1 0.524561 0.622211 0.457716
20827 1 0.523237 0.619481 0.456442
4976 2 0.5273 0.628805 0.461443
20870 2 0.489724 0.657868 0.435695
20871 1 0.484676 0.662572 0.431557
9326 2 0.489818 0.662374 0.461989
18177 1 0.49668 0.64883 0.437701
18175 1 0.498949 0.636925 0.433373
18176 2 0.500983 0.643198 0.438176
20869 1 0.494797 0.651094 0.43672
12697 1 0.515437 0.659297 0.434093
17739 1 0.514193 0.660637 0.43599
6374 2 0.515444 0.645836 0.459082
17738 2 0.511256 0.664417 0.442486
6375 1 0.521056 0.646899 0.454864
2203 1 0.550879 0.653774 0.433308
2204 2 0.545941 0.650965 0.439235
2205 1 0.539324 0.64948 0.443286
17439 1 0.536922 0.649096 0.444809
17438 2 0.529572 0.646756 0.448545
17437 1 0.523567 0.647079 0.452617
13350 1 0.529227 0.660857 0.462063
13349 2 0.522611 0.665162 0.460265
16404 1 0.490339 0.691413 0.433592
17737 1 0.509938 0.670409 0.447106
21538 1 0.509671 0.672582 0.450196
21539 2 0.508923 0.677053 0.457134
21540 1 0.514518 0.671437 0.45763
13348 1 0.516619 0.669716 0.458087
16403 3 0.49464 0.692676 0.440434
3291 1 0.543627 0.689629 0.436369
20609 2 0.549555 0.690857 0.446161
20610 1 0.545051 0.690238 0.438934
14565 1 0.539374 0.666738 0.43433
1363 1 0.539988 0.667287 0.437271
1364 2 0.541594 0.669179 0.444553
6913 1 0.530294 0.687149 0.442459
6915 1 0.526359 0.674899 0.437671
1365 1 0.541069 0.672853 0.45194
4312 1 0.540581 0.674418 0.454587
6914 2 0.526232 0.68018 0.442466
4313 2 0.540221 0.678818 0.46121
585 1 0.498424 0.699719 0.448446
16402 1 0.497164 0.697628 0.446654
584 2 0.50198 0.705496 0.453461
583 1 0.505586 0.705253 0.459866
13430 2 0.481503 0.482286 0.492719
3639 1 0.488738 0.483576 0.485853
13431 1 0.486926 0.483313 0.487893
3638 2 0.493514 0.483415 0.478576
7763 2 0.515501 0.473982 0.484309
7764 1 0.509728 0.475256 0.490385
7762 1 0.519724 0.476668 0.477541
13596 1 0.497564 0.484194 0.46714
3637 1 0.496081 0.483598 0.469729
17385 1 0.507841 0.475599 0.492331
15795 1 0.521286 0.478008 0.475383
15794 2 0.525211 0.481106 0.468985
7972 1 0.44798 0.500914 0.466747
3612 1 0.45696 0.50952 0.4829
7973 2 0.44071 0.502637 0.466454
7974 1 0.441679 0.509904 0.468824
12703 1 0.441848 0.51262 0.46953
10705 1 0.454249 0.509682 0.485017
10706 2 0.44873 0.511812 0.490064
20984 2 0.477986 0.49431 0.464927
20983 1 0.479421 0.497331 0.473614
20095 1 0.480137 0.499029 0.476674
20096 2 0.482589 0.5026 0.482859
14886 1 0.485947 0.51474 0.463405
3611 2 0.463323 0.509311 0.477967
3610 1 0.468188 0.511979 0.472013
20097 1 0.48898 0.501057 0.488833
3640 1 0.470322 0.51325 0.470447
14885 2 0.492321 0.511148 0.462425
18333 1 0.491481 0.499991 0.49026
18332 2 0.497963 0.498309 0.493041
21560 2 0.514416 0.509708 0.470581
19654 1 0.516665 0.501744 0.478256
21561 1 0.516081 0.504004 0.476092
19656 1 0.520079 0.492309 0.490734
19655 2 0.517309 0.495735 0.483887
21559 1 0.517775 0.511738 0.463487
2439 1 0.520434 0.514708 0.490682
18049 1 0.539622 0.501392 0.463388
15793 1 0.530528 0.48751 0.465919
18051 1 0.532784 0.489051 0.464938
324 1 0.540251 0.504242 0.463555
323 2 0.543847 0.511224 0.465537
9492 1 0.538852 0.512953 0.49235
322 1 0.551524 0.512984 0.465951
12704 2 0.44207 0.520775 0.472191
12705 1 0.44839 0.525967 0.472549
3285 1 0.450824 0.527566 0.472304
3284 2 0.456651 0.532681 0.47312
20679 1 0.438261 0.535535 0.489403
18790 1 0.440576 0.534169 0.49145
20678 2 0.433929 0.540713 0.484839
3641 2 0.476676 0.517782 0.467138
3642 1 0.48371 0.515725 0.463787
3283 1 0.463289 0.533533 0.478118
16494 1 0.465486 0.533841 0.479892
16493 2 0.472463 0.535396 0.483591
4929 1 0.490166 0.542537 0.478973
16492 1 0.474446 0.53652 0.491166
9590 2 0.491854 0.533046 0.475863
14758 1 0.494967 0.523755 0.4804
9589 1 0.493995 0.526746 0.479432
14759 2 0.497829 0.517174 0.483897
15341 2 0.511391 0.543829 0.466523
2437 1 0.506477 0.516719 0.489044
14760 1 0.504057 0.51671 0.487754
15340 1 0.519099 0.544743 0.469265
9591 1 0.490611 0.539884 0.477842
2438 2 0.513798 0.517051 0.49233
7380 1 0.512975 0.537191 0.492899
7379 2 0.506803 0.541132 0.489135
16062 1 0.530624 0.531371 0.462846
11963 2 0.536636 0.522946 0.486512
16061 2 0.526754 0.528515 0.470342
16060 1 0.53153 0.525034 0.476594
11962 1 0.532886 0.52425 0.479341
2258 2 0.545587 0.541999 0.473053
2257 1 0.539429 0.543363 0.473522
12750 1 0.536029 0.544182 0.473498
12748 1 0.52173 0.545275 0.470507
11964 1 0.538699 0.515995 0.490715
2259 1 0.550958 0.537464 0.477087
21442 1 0.426326 0.567891 0.477584
18499 1 0.42504 0.566564 0.480501
18500 2 0.422311 0.56204 0.487354
20677 1 0.437038 0.547938 0.482072
826 1 0.438339 0.550527 0.481397
827 2 0.443165 0.557071 0.479383
828 1 0.447855 0.563495 0.479536
4065 1 0.44967 0.565867 0.479333
4064 2 0.454197 0.572301 0.478407
21444 1 0.434458 0.575202 0.467434
21443 2 0.42973 0.57044 0.470258
17868 1 0.462821 0.554864 0.479237
6520 1 0.462749 0.554534 0.481995
6521 2 0.460939 0.552379 0.489773
17866 1 0.46238 0.556855 0.462958
17867 2 0.462737 0.555138 0.471142
2475 1 0.47216 0.571901 0.464199
4927 1 0.4852 0.554453 0.487832
9756 1 0.483746 0.555764 0.490315
4928 2 0.489101 0.550991 0.481875
1199 2 0.473452 0.574167 0.485577
1200 1 0.481341 0.573917 0.483339
5809 1 0.483838 0.574207 0.482211
10941 1 0.465769 0.571416 0.492183
1198 1 0.467538 0.571841 0.490146
15087 1 0.512888 0.561083 0.462465
15086 2 0.506197 0.564544 0.465161
15085 1 0.506718 0.561855 0.471854
1465 1 0.507501 0.561246 0.474296
1466 2 0.509436 0.559464 0.481757
1467 1 0.509415 0.551937 0.48562
7378 1 0.508827 0.549355 0.486767
5810 2 0.491142 0.574354 0.479809
2488 1 0.548412 0.567019 0.478998
12749 2 0.529667 0.54748 0.474396
12376 1 0.546294 0.568589 0.478588
12377 2 0.539197 0.571771 0.476999
18313 1 0.527378 0.574435 0.476338
12378 1 0.530672 0.573647 0.476737
15495 1 0.435944 0.576692 0.466032
4281 1 0.443713 0.590135 0.477245
4252 1 0.458447 0.594569 0.465131
16846 1 0.459463 0.591959 0.465729
4063 1 0.457138 0.578194 0.474378
16848 1 0.458005 0.579772 0.472562
4279 1 0.439641 0.585062 0.486313
8356 1 0.440669 0.583319 0.488651
4280 2 0.436643 0.590736 0.481298
4253 2 0.456317 0.602276 0.463087
14325 1 0.453672 0.604055 0.483401
4912 1 0.453581 0.600987 0.484395
4913 2 0.454624 0.594018 0.48713
16847 2 0.460713 0.584968 0.467141
15727 1 0.488476 0.593402 0.469956
1780 1 0.485467 0.593031 0.471925
1781 2 0.478335 0.593821 0.475843
19120 1 0.473584 0.600832 0.483734
1782 1 0.474617 0.598979 0.481497
15728 2 0.495607 0.594616 0.466035
9982 1 0.490947 0.601072 0.490519
268 1 0.491763 0.603083 0.488842
18315 1 0.513942 0.580062 0.479028
6646 1 0.511318 0.581743 0.47989
6647 2 0.505556 0.585524 0.482323
6648 1 0.499438 0.581756 0.480777
5811 1 0.497151 0.579637 0.480389
18314 2 0.519617 0.576421 0.475859
10710 1 0.534858 0.591785 0.464174
13392 1 0.533187 0.593868 0.465899
13391 2 0.529514 0.59986 0.469352
20098 1 0.545104 0.603551 0.488192
20099 2 0.541758 0.595875 0.488684
14324 2 0.452156 0.612542 0.482422
14323 1 0.450692 0.6191 0.480655
8842 1 0.449869 0.621808 0.479587
8843 3 0.447916 0.629668 0.478032
18938 2 0.486691 0.629553 0.471641
19121 2 0.472251 0.607485 0.487684
6395 2 0.476834 0.6125 0.467572
6394 1 0.48109 0.619427 0.46963
18939 1 0.482264 0.622145 0.470188
19122 1 0.468053 0.612256 0.492809
8387 2 0.50384 0.612938 0.46698
269 2 0.494834 0.60821 0.483049
14066 2 0.498361 0.631099 0.492071
14065 1 0.503877 0.629611 0.487746
20206 1 0.505683 0.629446 0.485719
270 1 0.498851 0.610603 0.476906
8386 1 0.500683 0.611036 0.474211
20207 2 0.511023 0.629873 0.481236
18832 1 0.516254 0.622134 0.477557
20208 1 0.514378 0.624452 0.478342
9610 1 0.550661 0.606111 0.465706
7249 1 0.550594 0.631862 0.465594
13390 1 0.527457 0.606809 0.473132
5149 1 0.546595 0.606559 0.487938
18833 2 0.522094 0.615776 0.475936
18834 1 0.526223 0.609558 0.474615
4977 1 0.528983 0.631905 0.469099
20698 1 0.53006 0.632467 0.47211
5150 2 0.5491 0.613425 0.486792
7840 1 0.533925 0.635549 0.489244
20699 2 0.533567 0.634029 0.479463
20700 1 0.533343 0.635359 0.486529
6576 1 0.548227 0.607299 0.464047
21451 1 0.451048 0.640456 0.479615
8844 1 0.450103 0.636665 0.479384
21452 3 0.452447 0.649157 0.479542
21453 1 0.455183 0.655567 0.475324
11701 1 0.456198 0.657931 0.473483
11702 3 0.457896 0.664386 0.467979
16094 3 0.476938 0.654441 0.480547
14130 1 0.475206 0.645002 0.48618
16093 1 0.475965 0.647874 0.484937
16095 1 0.478343 0.661234 0.477029
14129 2 0.474276 0.638488 0.489416
19186 1 0.505346 0.644266 0.465038
6373 1 0.508009 0.644816 0.463367
15112 1 0.499745 0.661852 0.468062
9327 1 0.497379 0.661639 0.46593
18937 1 0.491202 0.636461 0.47104
19187 2 0.498636 0.644046 0.468881
19188 1 0.493694 0.638962 0.47081
15113 2 0.506474 0.662045 0.47433
15114 1 0.510302 0.657003 0.477491
19368 1 0.512379 0.655153 0.479291
19367 2 0.516194 0.650861 0.484411
19366 1 0.520069 0.654392 0.490806
18261 1 0.547977 0.658694 0.488598
7250 2 0.546856 0.638768 0.462912
7251 1 0.543481 0.645941 0.462973
6274 1 0.531966 0.659198 0.462873
6276 1 0.542284 0.648555 0.463208
6275 2 0.538638 0.655087 0.464053
18259 1 0.536994 0.65884 0.482518
16608 1 0.535453 0.661629 0.481727
18260 2 0.541604 0.654112 0.48447
13890 1 0.549901 0.659681 0.490598
17244 1 0.483822 0.671046 0.466209
9325 1 0.48554 0.668639 0.465176
11703 1 0.460376 0.67048 0.464694
17243 2 0.478922 0.676954 0.46898
17242 1 0.477618 0.679387 0.47745
17403 1 0.477167 0.680146 0.480094
17402 3 0.475829 0.682729 0.486679
15676 1 0.507053 0.684709 0.488552
1243 1 0.507948 0.684888 0.485707
1244 2 0.511652 0.685506 0.478888
1245 1 0.517278 0.68572 0.473719
17436 1 0.519412 0.685214 0.472311
2025 1 0.546015 0.687986 0.486657
4314 1 0.5347 0.681433 0.465035
17434 1 0.532408 0.682499 0.466282
16607 2 0.531147 0.667759 0.48087
17435 2 0.525887 0.684916 0.468872
16606 1 0.529467 0.673491 0.486798
8088 1 0.529127 0.675384 0.488595
2024 2 0.544263 0.694208 0.490071
16603 1 0.547066 0.685255 0.48507
16604 2 0.550023 0.678709 0.481431
17466 1 0.436329 0.706717 0.482401
17465 3 0.441878 0.704276 0.487228
17464 1 0.441323 0.698104 0.492573
19660 1 0.506508 0.705308 0.463051
19661 2 0.510136 0.704176 0.470035
14961 1 0.508914 0.708898 0.479687
19662 1 0.508798 0.707152 0.476614
14960 3 0.50945 0.713384 0.487225
14959 1 0.50905 0.717627 0.493095
8199 1 0.547722 0.71345 0.478198
8198 2 0.550718 0.713147 0.485951
16705 1 0.537256 0.720507 0.472169
16207 1 0.546252 0.712948 0.47549
16209 1 0.538528 0.717713 0.470989
16208 2 0.542553 0.711585 0.467747
15666 1 0.519099 0.739695 0.462486
15665 2 0.523007 0.740226 0.469619
15664 1 0.527697 0.735745 0.472538
16707 1 0.529888 0.73405 0.473721
16706 3 0.535624 0.728349 0.475878
5334 1 0.453919 0.473056 0.513953
5333 3 0.452636 0.481788 0.518177
8783 3 0.455732 0.457595 0.522869
8784 1 0.452254 0.459436 0.51598
13429 1 0.477721 0.48008 0.499896
10677 1 0.466568 0.476291 0.515121
10675 1 0.476301 0.47952 0.502381
10676 3 0.471851 0.478057 0.508645
6954 1 0.484597 0.472574 0.523445
17745 1 0.486418 0.472364 0.521185
17384 2 0.502019 0.47633 0.498672
17744 3 0.492627 0.473022 0.515085
17383 1 0.497082 0.475032 0.505428
17743 1 0.495754 0.474415 0.508063
20222 2 0.522693 0.483065 0.51795
5332 1 0.459181 0.485766 0.520761
15747 1 0.461582 0.487597 0.521914
2750 3 0.489446 0.498128 0.522858
12164 2 0.487245 0.511828 0.509631
12163 1 0.48689 0.505561 0.515809
2749 1 0.487723 0.503368 0.517589
20884 1 0.468906 0.514638 0.501342
18331 1 0.501477 0.497934 0.500627
17451 1 0.502869 0.497549 0.503141
17450 2 0.506606 0.497486 0.510511
8965 1 0.514403 0.50062 0.517465
17449 1 0.51234 0.49985 0.515385
9433 1 0.520501 0.491418 0.49322
8966 2 0.520488 0.503185 0.522064
20221 1 0.523 0.48651 0.510859
9435 1 0.52292 0.487874 0.508099
9491 2 0.538402 0.50615 0.49528
6317 2 0.539612 0.507364 0.51314
6316 1 0.538979 0.506134 0.505586
9434 2 0.523005 0.489835 0.500828
9490 1 0.53881 0.506091 0.503391
6318 1 0.54044 0.501569 0.51878
2398 1 0.540691 0.499616 0.520688
18792 1 0.447803 0.521837 0.495093
10707 1 0.448322 0.51875 0.494762
6392 3 0.45254 0.515247 0.519267
6391 1 0.45752 0.516124 0.513713
20886 1 0.458972 0.517066 0.511465
18791 2 0.445941 0.529634 0.495955
20885 2 0.463377 0.519465 0.504615
5278 1 0.474666 0.536706 0.49393
5280 1 0.479333 0.536852 0.509969
5279 2 0.476397 0.536591 0.502133
7821 1 0.479727 0.536758 0.512775
7820 2 0.480137 0.534238 0.5196
12165 1 0.491567 0.51805 0.508306
18325 1 0.500283 0.535405 0.508524
17232 1 0.493823 0.520337 0.507162
17231 2 0.499611 0.525052 0.503939
17230 1 0.500346 0.532899 0.50726
5784 1 0.515301 0.536367 0.494252
18326 2 0.499531 0.542626 0.511882
3243 1 0.518048 0.520219 0.523591
5783 2 0.522144 0.533831 0.499748
5782 1 0.522129 0.530368 0.507005
3241 1 0.521944 0.528562 0.509935
21457 1 0.546911 0.536062 0.499595
6214 1 0.548447 0.532766 0.500398
21458 2 0.544015 0.542315 0.497296
13197 1 0.535081 0.5355 0.514653
3242 2 0.521875 0.522762 0.516079
13196 2 0.538548 0.538488 0.521695
18501 1 0.424812 0.559709 0.494734
7567 1 0.425984 0.559451 0.497441
7569 1 0.426016 0.561049 0.512981
2720 2 0.421323 0.561736 0.523355
2719 1 0.425203 0.561468 0.515808
7568 2 0.429082 0.559354 0.50558
19971 1 0.458811 0.546779 0.518613
10497 1 0.45778 0.546358 0.515394
10939 1 0.456058 0.567684 0.505315
9268 1 0.454647 0.567084 0.507187
10496 2 0.456387 0.545811 0.50698
9269 2 0.450997 0.564196 0.512711
1741 1 0.445521 0.560113 0.52069
9270 1 0.44653 0.560905 0.518316
6522 1 0.458393 0.549633 0.496828
10495 1 0.45774 0.548709 0.499538
10940 2 0.461094 0.569983 0.499062
9755 2 0.480211 0.557433 0.497043
19822 1 0.473008 0.566897 0.523487
19823 2 0.475751 0.563197 0.516449
19824 1 0.477409 0.561961 0.507287
9754 1 0.478078 0.561075 0.504536
18327 1 0.498871 0.549297 0.516291
2626 1 0.499044 0.552374 0.518131
2627 2 0.50024 0.559593 0.520877
1853 2 0.518876 0.554483 0.510868
17069 2 0.504254 0.559169 0.501059
17068 1 0.510216 0.557722 0.505814
1854 1 0.512496 0.55685 0.507383
1852 1 0.51706 0.550223 0.518061
12517 1 0.516516 0.548597 0.519941
17070 1 0.501247 0.566026 0.503355
683 2 0.497004 0.574718 0.505935
684 1 0.500189 0.567789 0.504256
21459 1 0.538879 0.548113 0.495832
8144 2 0.52293 0.575171 0.495137
8143 1 0.527249 0.56776 0.494832
18868 1 0.528642 0.565397 0.494737
18870 1 0.53681 0.55036 0.495296
16694 2 0.545063 0.561259 0.512837
18869 2 0.532103 0.557629 0.494302
14625 1 0.53749 0.563877 0.520877
16695 1 0.539371 0.563446 0.519065
2540 2 0.423202 0.592425 0.523538
2541 1 0.419028 0.600309 0.523952
4914 1 0.454822 0.593745 0.494707
2539 1 0.429637 0.589999 0.519039
10988 2 0.435864 0.58743 0.510821
10989 1 0.431592 0.589248 0.517018
8357 2 0.442626 0.578064 0.493869
10987 1 0.438653 0.583475 0.503816
8358 1 0.439667 0.581936 0.501156
6421 1 0.457745 0.599527 0.515366
18265 1 0.454682 0.593584 0.497733
18266 2 0.455262 0.594642 0.505742
18267 1 0.457159 0.598801 0.512818
1285 1 0.457132 0.581043 0.522596
9983 2 0.489816 0.594304 0.495569
6422 2 0.460482 0.601306 0.522733
9984 1 0.485339 0.59031 0.500608
16080 1 0.483547 0.589543 0.502742
1286 2 0.464052 0.58118 0.5196
16078 1 0.471839 0.584503 0.512887
1287 1 0.470033 0.583504 0.514673
16079 2 0.477717 0.587574 0.507842
7504 1 0.480044 0.600804 0.520915
11389 1 0.479542 0.598708 0.522911
682 1 0.496858 0.580485 0.509342
553 1 0.497237 0.582936 0.510815
554 2 0.497987 0.589654 0.514673
5625 1 0.515811 0.597378 0.511816
1545 1 0.516318 0.594966 0.50982
5624 2 0.514593 0.603245 0.51723
1544 2 0.516094 0.590933 0.502992
8145 1 0.520394 0.582694 0.498099
1543 1 0.51899 0.584967 0.49947
555 1 0.501121 0.589442 0.522445
17345 2 0.521019 0.584937 0.522098
20100 1 0.543833 0.591168 0.494664
13354 1 0.544907 0.589358 0.496721
8023 1 0.54864 0.604615 0.517896
15323 2 0.541702 0.60241 0.510019
15324 1 0.546605 0.603561 0.515783
17344 1 0.527316 0.588051 0.52298
13355 2 0.549828 0.584885 0.50287
6045 1 0.432591 0.620639 0.509866
6044 3 0.438601 0.620913 0.514662
20956 1 0.4421 0.615284 0.522991
6043 1 0.441078 0.617162 0.520794
7665 1 0.489153 0.629477 0.498157
7664 2 0.482513 0.627773 0.502445
7663 1 0.478477 0.632623 0.497221
7505 2 0.480483 0.606659 0.514234
16280 2 0.465717 0.634136 0.512511
20200 1 0.466612 0.61388 0.494997
7506 1 0.486897 0.6085 0.510211
12409 1 0.489728 0.609929 0.50828
20201 2 0.46236 0.61904 0.500476
20202 1 0.462286 0.625395 0.505565
16281 1 0.462924 0.627799 0.507472
14128 1 0.47702 0.633925 0.494989
14067 1 0.491875 0.630159 0.49626
12410 2 0.497345 0.612263 0.50358
12411 1 0.503117 0.610236 0.499045
13504 1 0.505821 0.609856 0.497013
13505 2 0.512884 0.609404 0.494196
13506 1 0.520167 0.611042 0.497993
13587 1 0.517865 0.628926 0.507243
18816 1 0.518841 0.626395 0.509647
18815 2 0.520031 0.621794 0.515896
13586 2 0.516296 0.636035 0.503354
10595 2 0.498173 0.629535 0.515088
10594 1 0.49931 0.62361 0.520363
2167 1 0.499035 0.621256 0.522484
15322 1 0.537096 0.606999 0.506875
9903 1 0.522987 0.612013 0.499098
9902 2 0.529982 0.61257 0.501926
18814 1 0.52285 0.614216 0.517408
9901 1 0.535304 0.608583 0.505531
9762 1 0.539206 0.632049 0.505998
7842 1 0.538521 0.633585 0.503649
9761 2 0.541121 0.628124 0.512052