ITEM: TIMESTEP
0
ITEM: NUMBER OF ATOMS
6456
ITEM: BOX BOUNDS pp pp pp
0.0000000000000000e+00 5.0000000000000000e+01
0.0000000000000000e+00 5.0000000000000000e+01
0.0000000000000000e+00 5.0000000000000000e+01
ITEM: ATOMS id type 
10 1 
11 2 
12 1 
13 1 
14 2 
15 1 
16 1 
17 2 
18 1 
28 1 
29 2 
30 1 
121 1 
122 2 
123 1 
127 1 
128 3 
129 1 
136 1 
137 2 
138 1 
142 1 
143 3 
144 1 
145 1 
146 3 
147 1 
181 1 
182 2 
183 1 
193 1 
194 2 
195 1 
208 1 
209 3 
210 1 
241 1 
242 2 
243 1 
247 1 
248 2 
249 1 
259 1 
260 2 
261 1 
301 1 
302 3 
303 1 
307 1 
308 2 
309 1 
313 1 
314 3 
315 1 
370 1 
371 2 
372 1 
379 1 
380 2 
381 1 
388 1 
389 2 
390 1 
430 1 
431 2 
432 1 
499 1 
500 3 
501 1 
1150 1 
1151 2 
1152 1 
1156 1 
1157 2 
1158 1 
1222 1 
1223 2 
1224 1 
1264 1 
1265 3 
1266 1 
1276 1 
1277 2 
1278 1 
1288 1 
1289 2 
1290 1 
1333 1 
1334 3 
1335 1 
1336 1 
1337 2 
1338 1 
1339 1 
1340 2 
1341 1 
1348 1 
1349 2 
1350 1 
1381 1 
1382 2 
1383 1 
1390 1 
1391 3 
1392 1 
1393 1 
1394 3 
1395 1 
1402 1 
1403 3 
1404 1 
1459 1 
1460 2 
1461 1 
1504 1 
1505 2 
1506 1 
1510 1 
1511 3 
1512 1 
1513 1 
1514 2 
1515 1 
1522 1 
1523 2 
1524 1 
1579 1 
1580 3 
1581 1 
1582 1 
1583 3 
1584 1 
1621 1 
1622 2 
1623 1 
1624 1 
1625 2 
1626 1 
1630 1 
1631 2 
1632 1 
1636 1 
1637 3 
1638 1 
2221 1 
2222 3 
2223 1 
2230 1 
2231 3 
2232 1 
2233 1 
2234 2 
2235 1 
2236 1 
2237 2 
2238 1 
2242 1 
2243 3 
2244 1 
2245 1 
2246 3 
2247 1 
2248 1 
2249 2 
2250 1 
2281 1 
2282 2 
2283 1 
2284 1 
2285 2 
2286 1 
2296 1 
2297 2 
2298 1 
2341 1 
2342 2 
2343 1 
2362 1 
2363 3 
2364 1 
2365 1 
2366 3 
2367 1 
2404 1 
2405 3 
2406 1 
2410 1 
2411 2 
2412 1 
2416 1 
2417 2 
2418 1 
2419 1 
2420 3 
2421 1 
2464 1 
2465 2 
2466 1 
2470 1 
2471 3 
2472 1 
2521 1 
2522 2 
2523 1 
2530 1 
2531 2 
2532 1 
2533 1 
2534 3 
2535 1 
2536 1 
2537 3 
2538 1 
2542 1 
2543 3 
2544 1 
2584 1 
2585 3 
2586 1 
2590 1 
2591 2 
2592 1 
2593 1 
2594 3 
2595 1 
2596 1 
2597 3 
2598 1 
3181 1 
3182 2 
3183 1 
3202 1 
3203 2 
3204 1 
3205 1 
3206 2 
3207 1 
3244 1 
3245 2 
3246 1 
3253 1 
3254 3 
3255 1 
3256 1 
3257 3 
3258 1 
3262 1 
3263 2 
3264 1 
3268 1 
3269 2 
3270 1 
3310 1 
3311 2 
3312 1 
3316 1 
3317 2 
3318 1 
3319 1 
3320 2 
3321 1 
3325 1 
3326 3 
3327 1 
3370 1 
3371 3 
3372 1 
3388 1 
3389 3 
3390 1 
3421 1 
3422 2 
3423 1 
3436 1 
3437 2 
3438 1 
3442 1 
3443 3 
3444 1 
3484 1 
3485 2 
3486 1 
3490 1 
3491 2 
3492 1 
3541 1 
3542 3 
3543 1 
3544 1 
3545 3 
3546 1 
3559 1 
3560 3 
3561 1 
3601 1 
3602 3 
3603 1 
3616 1 
3617 2 
3618 1 
3619 1 
3620 2 
3621 1 
3622 1 
3623 2 
3624 1 
3628 1 
3629 2 
3630 1 
3676 1 
3677 2 
3678 1 
3724 1 
3725 2 
3726 1 
3739 1 
3740 2 
3741 1 
3748 1 
3749 3 
3750 1 
4339 1 
4340 2 
4341 1 
4345 1 
4346 2 
4347 1 
4381 1 
4382 3 
4383 1 
4390 1 
4391 2 
4392 1 
4393 1 
4394 3 
4395 1 
4405 1 
4406 2 
4407 1 
4408 1 
4409 2 
4410 1 
4444 1 
4445 3 
4446 1 
4453 1 
4454 2 
4455 1 
4456 1 
4457 2 
4458 1 
4459 1 
4460 3 
4461 1 
4501 1 
4502 3 
4503 1 
4504 1 
4505 3 
4506 1 
4513 1 
4514 3 
4515 1 
4561 1 
4562 2 
4563 1 
4570 1 
4571 3 
4572 1 
4573 1 
4574 2 
4575 1 
4585 1 
4586 3 
4587 1 
4621 1 
4622 3 
4623 1 
4633 1 
4634 3 
4635 1 
4636 1 
4637 2 
4638 1 
4684 1 
4685 3 
4686 1 
4699 1 
4700 3 
4701 1 
4705 1 
4706 2 
4707 1 
4708 1 
4709 3 
4710 1 
4753 1 
4754 2 
4755 1 
4765 1 
4766 3 
4767 1 
4801 1 
4802 2 
4803 1 
4816 1 
4817 2 
4818 1 
4822 1 
4823 2 
4824 1 
4825 1 
4826 3 
4827 1 
4867 1 
4868 3 
4869 1 
4870 1 
4871 2 
4872 1 
4882 1 
4883 2 
4884 1 
4888 1 
4889 3 
4890 1 
5461 1 
5462 2 
5463 1 
5467 1 
5468 2 
5469 1 
5479 1 
5480 3 
5481 1 
5482 1 
5483 3 
5484 1 
5485 1 
5486 2 
5487 1 
5521 1 
5522 2 
5523 1 
5536 1 
5537 2 
5538 1 
5548 1 
5549 3 
5550 1 
5584 1 
5585 3 
5586 1 
5590 1 
5591 2 
5592 1 
5599 1 
5600 3 
5601 1 
5644 1 
5645 3 
5646 1 
5653 1 
5654 2 
5655 1 
5656 1 
5657 3 
5658 1 
5668 1 
5669 2 
5670 1 
5704 1 
5705 2 
5706 1 
5767 1 
5768 3 
5769 1 
5776 1 
5777 2 
5778 1 
5845 1 
5846 2 
5847 1 
5848 1 
5849 2 
5850 1 
5881 1 
5882 2 
5883 1 
5893 1 
5894 2 
5895 1 
5902 1 
5903 3 
5904 1 
5905 1 
5906 2 
5907 1 
5965 1 
5966 3 
5967 1 
6001 1 
6002 3 
6003 1 
6007 1 
6008 3 
6009 1 
6019 1 
6020 2 
6021 1 
6022 1 
6023 2 
6024 1 
6025 1 
6026 3 
6027 1 
6028 1 
6029 3 
6030 1 
6661 1 
6662 2 
6663 1 
6664 1 
6665 2 
6666 1 
6667 1 
6668 3 
6669 1 
6670 1 
6671 2 
6672 1 
6721 1 
6722 3 
6723 1 
6733 1 
6734 2 
6735 1 
6736 1 
6737 3 
6738 1 
6781 1 
6782 2 
6783 1 
6796 1 
6797 3 
6798 1 
6802 1 
6803 2 
6804 1 
6808 1 
6809 3 
6810 1 
6859 1 
6860 3 
6861 1 
6901 1 
6902 2 
6903 1 
6922 1 
6923 3 
6924 1 
6928 1 
6929 2 
6930 1 
6976 1 
6977 3 
6978 1 
6982 1 
6983 2 
6984 1 
7021 1 
7022 2 
7023 1 
7048 1 
7049 2 
7050 1 
7081 1 
7082 3 
7083 1 
7099 1 
7100 2 
7101 1 
7150 1 
7151 2 
7152 1 
7159 1 
7160 3 
7161 1 
7201 1 
7202 2 
7203 1 
7204 1 
7205 2 
7206 1 
7756 1 
7757 2 
7758 1 
7759 1 
7760 2 
7761 1 
7801 1 
7802 3 
7803 1 
7804 1 
7805 2 
7806 1 
7828 1 
7829 2 
7830 1 
7864 1 
7865 3 
7866 1 
7867 1 
7868 2 
7869 1 
7870 1 
7871 3 
7872 1 
7879 1 
7880 2 
7881 1 
7888 1 
7889 2 
7890 1 
7924 1 
7925 2 
7926 1 
7927 1 
7928 3 
7929 1 
7930 1 
7931 2 
7932 1 
7933 1 
7934 2 
7935 1 
7939 1 
7940 2 
7941 1 
7987 1 
7988 3 
7989 1 
8005 1 
8006 2 
8007 1 
8008 1 
8009 3 
8010 1 
8041 1 
8042 2 
8043 1 
8053 1 
8054 3 
8055 1 
8059 1 
8060 2 
8061 1 
8110 1 
8111 3 
8112 1 
8113 1 
8114 2 
8115 1 
8119 1 
8120 3 
8121 1 
8125 1 
8126 3 
8127 1 
8173 1 
8174 2 
8175 1 
8188 1 
8189 3 
8190 1 
8224 1 
8225 3 
8226 1 
8233 1 
8234 3 
8235 1 
8296 1 
8297 2 
8298 1 
8299 1 
8300 3 
8301 1 
8302 1 
8303 2 
8304 1 
8896 1 
8897 2 
8898 1 
8899 1 
8900 2 
8901 1 
8947 1 
8948 3 
8949 1 
9025 1 
9026 2 
9027 1 
9064 1 
9065 3 
9066 1 
9070 1 
9071 2 
9072 1 
9076 1 
9077 2 
9078 1 
9082 1 
9083 2 
9084 1 
9124 1 
9125 3 
9126 1 
9136 1 
9137 2 
9138 1 
9145 1 
9146 3 
9147 1 
9187 1 
9188 2 
9189 1 
9190 1 
9191 3 
9192 1 
9193 1 
9194 2 
9195 1 
9199 1 
9200 2 
9201 1 
9205 1 
9206 3 
9207 1 
9244 1 
9245 2 
9246 1 
9250 1 
9251 2 
9252 1 
9256 1 
9257 3 
9258 1 
9313 1 
9314 3 
9315 1 
9316 1 
9317 2 
9318 1 
9976 1 
9977 3 
9978 1 
10039 1 
10040 3 
10041 1 
10096 1 
10097 2 
10098 1 
10105 1 
10106 3 
10107 1 
10141 1 
10142 3 
10143 1 
10144 1 
10145 2 
10146 1 
10156 1 
10157 3 
10158 1 
10159 1 
10160 3 
10161 1 
10204 1 
10205 2 
10206 1 
10216 1 
10217 3 
10218 1 
10219 1 
10220 2 
10221 1 
10261 1 
10262 3 
10263 1 
10264 1 
10265 2 
10266 1 
10288 1 
10289 3 
10290 1 
10330 1 
10331 2 
10332 1 
10336 1 
10337 2 
10338 1 
10348 1 
10349 3 
10350 1 
10381 1 
10382 2 
10383 1 
10393 1 
10394 3 
10395 1 
10456 1 
10457 3 
10458 1 
10465 1 
10466 2 
10467 1 
10468 1 
10469 3 
10470 1 
10504 1 
10505 3 
10506 1 
10507 1 
10508 3 
10509 1 
11101 1 
11102 2 
11103 1 
11110 1 
11111 2 
11112 1 
11113 1 
11114 2 
11115 1 
11128 1 
11129 3 
11130 1 
11221 1 
11222 3 
11223 1 
11230 1 
11231 2 
11232 1 
11233 1 
11234 2 
11235 1 
11245 1 
11246 2 
11247 1 
11290 1 
11291 2 
11292 1 
11293 1 
11294 2 
11295 1 
11302 1 
11303 2 
11304 1 
11341 1 
11342 3 
11343 1 
11347 1 
11348 3 
11349 1 
11350 1 
11351 2 
11352 1 
11353 1 
11354 2 
11355 1 
11359 1 
11360 3 
11361 1 
11368 1 
11369 3 
11370 1 
11410 1 
11411 3 
11412 1 
11467 1 
11468 2 
11469 1 
11473 1 
11474 3 
11475 1 
11488 1 
11489 3 
11490 1 
12076 1 
12077 3 
12078 1 
12079 1 
12080 2 
12081 1 
12088 1 
12089 2 
12090 1 
12121 1 
12122 3 
12123 1 
12124 1 
12125 2 
12126 1 
12127 1 
12128 3 
12129 1 
12133 1 
12134 3 
12135 1 
12181 1 
12182 3 
12183 1 
12208 1 
12209 2 
12210 1 
12241 1 
12242 2 
12243 1 
12265 1 
12266 2 
12267 1 
12313 1 
12314 3 
12315 1 
12319 1 
12320 2 
12321 1 
12325 1 
12326 3 
12327 1 
12361 1 
12362 2 
12363 1 
12373 1 
12374 3 
12375 1 
12382 1 
12383 3 
12384 1 
12385 1 
12386 3 
12387 1 
12421 1 
12422 3 
12423 1 
12496 1 
12497 3 
12498 1 
12499 1 
12500 2 
12501 1 
12547 1 
12548 3 
12549 1 
12550 1 
12551 3 
12552 1 
12553 1 
12554 2 
12555 1 
12562 1 
12563 2 
12564 1 
12568 1 
12569 2 
12570 1 
12601 1 
12602 2 
12603 1 
12604 1 
12605 3 
12606 1 
12613 1 
12614 3 
12615 1 
12616 1 
12617 3 
12618 1 
12619 1 
12620 2 
12621 1 
13141 1 
13142 2 
13143 1 
13162 1 
13163 2 
13164 1 
13219 1 
13220 2 
13221 1 
13222 1 
13223 2 
13224 1 
13225 1 
13226 3 
13227 1 
13261 1 
13262 2 
13263 1 
13264 1 
13265 2 
13266 1 
13270 1 
13271 2 
13272 1 
13276 1 
13277 3 
13278 1 
13285 1 
13286 2 
13287 1 
13327 1 
13328 2 
13329 1 
13330 1 
13331 2 
13332 1 
13333 1 
13334 3 
13335 1 
13342 1 
13343 3 
13344 1 
13384 1 
13385 2 
13386 1 
13402 1 
13403 3 
13404 1 
13408 1 
13409 2 
13410 1 
13453 1 
13454 2 
13455 1 
13507 1 
13508 2 
13509 1 
13510 1 
13511 2 
13512 1 
13519 1 
13520 3 
13521 1 
13528 1 
13529 2 
13530 1 
13588 1 
13589 3 
13590 1 
14227 1 
14228 3 
14229 1 
14233 1 
14234 2 
14235 1 
14248 1 
14249 3 
14250 1 
14284 1 
14285 3 
14286 1 
14287 1 
14288 3 
14289 1 
14296 1 
14297 2 
14298 1 
14344 1 
14345 2 
14346 1 
14350 1 
14351 3 
14352 1 
14353 1 
14354 2 
14355 1 
14362 1 
14363 3 
14364 1 
14365 1 
14366 2 
14367 1 
14368 1 
14369 2 
14370 1 
14404 1 
14405 3 
14406 1 
14413 1 
14414 3 
14415 1 
14419 1 
14420 2 
14421 1 
14464 1 
14465 3 
14466 1 
14485 1 
14486 2 
14487 1 
14488 1 
14489 2 
14490 1 
14521 1 
14522 2 
14523 1 
14524 1 
14525 3 
14526 1 
14533 1 
14534 2 
14535 1 
14545 1 
14546 3 
14547 1 
14581 1 
14582 3 
14583 1 
14590 1 
14591 2 
14592 1 
14641 1 
14642 3 
14643 1 
14662 1 
14663 3 
14664 1 
15310 1 
15311 3 
15312 1 
15328 1 
15329 3 
15330 1 
15373 1 
15374 3 
15375 1 
15376 1 
15377 2 
15378 1 
15436 1 
15437 3 
15438 1 
15439 1 
15440 3 
15441 1 
15481 1 
15482 3 
15483 1 
15484 1 
15485 2 
15486 1 
15487 1 
15488 2 
15489 1 
15496 1 
15497 2 
15498 1 
15553 1 
15554 2 
15555 1 
15556 1 
15557 3 
15558 1 
15562 1 
15563 3 
15564 1 
15607 1 
15608 3 
15609 1 
15616 1 
15617 2 
15618 1 
15619 1 
15620 3 
15621 1 
15622 1 
15623 3 
15624 1 
15628 1 
15629 2 
15630 1 
15661 1 
15662 2 
15663 1 
15670 1 
15671 3 
15672 1 
15673 1 
15674 2 
15675 1 
15679 1 
15680 3 
15681 1 
15685 1 
15686 2 
15687 1 
15721 1 
15722 2 
15723 1 
15742 1 
15743 2 
15744 1 
16321 1 
16322 3 
16323 1 
16330 1 
16331 2 
16332 1 
16333 1 
16334 3 
16335 1 
16381 1 
16382 2 
16383 1 
16384 1 
16385 3 
16386 1 
16393 1 
16394 3 
16395 1 
16396 1 
16397 2 
16398 1 
16399 1 
16400 2 
16401 1 
16462 1 
16463 2 
16464 1 
16501 1 
16502 3 
16503 1 
16510 1 
16511 3 
16512 1 
16513 1 
16514 3 
16515 1 
16522 1 
16523 2 
16524 1 
16525 1 
16526 2 
16527 1 
16561 1 
16562 2 
16563 1 
16564 1 
16565 2 
16566 1 
16567 1 
16568 2 
16569 1 
16582 1 
16583 2 
16584 1 
16585 1 
16586 3 
16587 1 
16621 1 
16622 3 
16623 1 
16627 1 
16628 2 
16629 1 
16687 1 
16688 2 
16689 1 
16690 1 
16691 2 
16692 1 
17284 1 
17285 3 
17286 1 
17293 1 
17294 3 
17295 1 
17296 1 
17297 3 
17298 1 
17299 1 
17300 2 
17301 1 
17305 1 
17306 2 
17307 1 
17308 1 
17309 3 
17310 1 
17341 1 
17342 3 
17343 1 
17347 1 
17348 3 
17349 1 
17353 1 
17354 3 
17355 1 
17404 1 
17405 2 
17406 1 
17413 1 
17414 2 
17415 1 
17416 1 
17417 2 
17418 1 
17419 1 
17420 2 
17421 1 
17422 1 
17423 3 
17424 1 
17467 1 
17468 2 
17469 1 
17482 1 
17483 2 
17484 1 
17488 1 
17489 2 
17490 1 
17521 1 
17522 2 
17523 1 
17524 1 
17525 2 
17526 1 
17536 1 
17537 2 
17538 1 
17545 1 
17546 2 
17547 1 
17602 1 
17603 2 
17604 1 
17650 1 
17651 2 
17652 1 
17656 1 
17657 2 
17658 1 
17659 1 
17660 2 
17661 1 
17662 1 
17663 2 
17664 1 
17668 1 
17669 2 
17670 1 
17722 1 
17723 3 
17724 1 
17728 1 
17729 2 
17730 1 
17764 1 
17765 3 
17766 1 
17776 1 
17777 3 
17778 1 
18367 1 
18368 2 
18369 1 
18376 1 
18377 2 
18378 1 
18379 1 
18380 2 
18381 1 
18382 1 
18383 2 
18384 1 
18385 1 
18386 3 
18387 1 
18424 1 
18425 3 
18426 1 
18430 1 
18431 3 
18432 1 
18439 1 
18440 2 
18441 1 
18445 1 
18446 2 
18447 1 
18448 1 
18449 2 
18450 1 
18487 1 
18488 3 
18489 1 
18505 1 
18506 3 
18507 1 
18550 1 
18551 2 
18552 1 
18604 1 
18605 3 
18606 1 
18607 1 
18608 3 
18609 1 
18616 1 
18617 3 
18618 1 
18619 1 
18620 3 
18621 1 
18625 1 
18626 2 
18627 1 
18628 1 
18629 2 
18630 1 
18682 1 
18683 3 
18684 1 
18727 1 
18728 2 
18729 1 
18730 1 
18731 2 
18732 1 
18736 1 
18737 3 
18738 1 
18748 1 
18749 3 
18750 1 
18787 1 
18788 2 
18789 1 
18808 1 
18809 2 
18810 1 
19447 1 
19448 3 
19449 1 
19450 1 
19451 3 
19452 1 
19453 1 
19454 3 
19455 1 
19459 1 
19460 3 
19461 1 
19501 1 
19502 3 
19503 1 
19513 1 
19514 2 
19515 1 
19516 1 
19517 3 
19518 1 
19579 1 
19580 2 
19581 1 
19588 1 
19589 2 
19590 1 
19627 1 
19628 2 
19629 1 
19645 1 
19646 3 
19647 1 
19690 1 
19691 2 
19692 1 
19705 1 
19706 3 
19707 1 
19747 1 
19748 3 
19749 1 
19753 1 
19754 3 
19755 1 
19801 1 
19802 2 
19803 1 
19807 1 
19808 3 
19809 1 
19810 1 
19811 2 
19812 1 
19813 1 
19814 2 
19815 1 
19819 1 
19820 3 
19821 1 
19861 1 
19862 3 
19863 1 
19864 1 
19865 2 
19866 1 
20542 1 
20543 2 
20544 1 
20581 1 
20582 3 
20583 1 
20587 1 
20588 3 
20589 1 
20701 1 
20702 3 
20703 1 
20716 1 
20717 2 
20718 1 
20719 1 
20720 3 
20721 1 
20722 1 
20723 2 
20724 1 
20725 1 
20726 2 
20727 1 
20761 1 
20762 3 
20763 1 
20764 1 
20765 2 
20766 1 
20773 1 
20774 2 
20775 1 
20779 1 
20780 3 
20781 1 
20782 1 
20783 2 
20784 1 
20785 1 
20786 3 
20787 1 
20839 1 
20840 2 
20841 1 
20881 1 
20882 3 
20883 1 
20887 1 
20888 2 
20889 1 
20893 1 
20894 3 
20895 1 
20941 1 
20942 2 
20943 1 
20944 1 
20945 3 
20946 1 
20950 1 
20951 3 
20952 1 
20959 1 
20960 3 
20961 1 
20965 1 
20966 3 
20967 1 
20968 1 
20969 3 
20970 1 
21007 1 
21008 3 
21009 1 
31 1 
32 3 
33 1 
43 1 
44 2 
45 1 
55 1 
56 2 
57 1 
154 1 
155 2 
156 1 
163 1 
164 3 
165 1 
175 1 
176 3 
177 1 
178 1 
179 2 
180 1 
211 1 
212 3 
213 1 
280 1 
281 2 
282 1 
286 1 
287 3 
288 1 
292 1 
293 3 
294 1 
331 1 
332 2 
333 1 
346 1 
347 3 
348 1 
349 1 
350 3 
351 1 
355 1 
356 2 
357 1 
358 1 
359 3 
360 1 
397 1 
398 3 
399 1 
412 1 
413 2 
414 1 
460 1 
461 2 
462 1 
469 1 
470 2 
471 1 
532 1 
533 3 
534 1 
535 1 
536 3 
537 1 
1174 1 
1175 2 
1176 1 
1177 1 
1178 3 
1179 1 
1237 1 
1238 2 
1239 1 
1240 1 
1241 2 
1242 1 
1246 1 
1247 2 
1248 1 
1255 1 
1256 2 
1257 1 
1297 1 
1298 2 
1299 1 
1315 1 
1316 2 
1317 1 
1360 1 
1361 3 
1362 1 
1366 1 
1367 2 
1368 1 
1372 1 
1373 2 
1374 1 
1417 1 
1418 3 
1419 1 
1420 1 
1421 3 
1422 1 
1426 1 
1427 3 
1428 1 
1432 1 
1433 2 
1434 1 
1438 1 
1439 2 
1440 1 
1498 1 
1499 3 
1500 1 
1531 1 
1532 2 
1533 1 
1534 1 
1535 3 
1536 1 
1591 1 
1592 2 
1593 1 
1597 1 
1598 3 
1599 1 
1600 1 
1601 3 
1602 1 
1609 1 
1610 2 
1611 1 
1615 1 
1616 3 
1617 1 
1618 1 
1619 2 
1620 1 
1651 1 
1652 3 
1653 1 
1660 1 
1661 2 
1662 1 
1669 1 
1670 2 
1671 1 
1675 1 
1676 2 
1677 1 
2266 1 
2267 2 
2268 1 
2269 1 
2270 3 
2271 1 
2278 1 
2279 2 
2280 1 
2314 1 
2315 2 
2316 1 
2320 1 
2321 3 
2322 1 
2371 1 
2372 3 
2373 1 
2377 1 
2378 2 
2379 1 
2380 1 
2381 2 
2382 1 
2383 1 
2384 2 
2385 1 
2389 1 
2390 2 
2391 1 
2434 1 
2435 2 
2436 1 
2443 1 
2444 2 
2445 1 
2446 1 
2447 2 
2448 1 
2503 1 
2504 2 
2505 1 
2563 1 
2564 2 
2565 1 
2614 1 
2615 2 
2616 1 
2623 1 
2624 3 
2625 1 
2629 1 
2630 2 
2631 1 
2635 1 
2636 2 
2637 1 
3211 1 
3212 2 
3213 1 
3274 1 
3275 3 
3276 1 
3277 1 
3278 2 
3279 1 
3286 1 
3287 3 
3288 1 
3295 1 
3296 2 
3297 1 
3334 1 
3335 3 
3336 1 
3346 1 
3347 2 
3348 1 
3349 1 
3350 2 
3351 1 
3355 1 
3356 2 
3357 1 
3400 1 
3401 3 
3402 1 
3403 1 
3404 3 
3405 1 
3418 1 
3419 3 
3420 1 
3463 1 
3464 2 
3465 1 
3466 1 
3467 2 
3468 1 
3511 1 
3512 2 
3513 1 
3514 1 
3515 2 
3516 1 
3520 1 
3521 2 
3522 1 
3523 1 
3524 3 
3525 1 
3529 1 
3530 3 
3531 1 
3532 1 
3533 3 
3534 1 
3583 1 
3584 3 
3585 1 
3586 1 
3587 3 
3588 1 
3589 1 
3590 2 
3591 1 
3631 1 
3632 2 
3633 1 
3646 1 
3647 3 
3648 1 
3655 1 
3656 2 
3657 1 
3700 1 
3701 3 
3702 1 
3709 1 
3710 2 
3711 1 
3712 1 
3713 3 
3714 1 
3751 1 
3752 3 
3753 1 
3754 1 
3755 3 
3756 1 
3763 1 
3764 2 
3765 1 
3778 1 
3779 3 
3780 1 
4351 1 
4352 3 
4353 1 
4357 1 
4358 3 
4359 1 
4378 1 
4379 2 
4380 1 
4417 1 
4418 3 
4419 1 
4420 1 
4421 2 
4422 1 
4429 1 
4430 3 
4431 1 
4438 1 
4439 3 
4440 1 
4486 1 
4487 2 
4488 1 
4489 1 
4490 3 
4491 1 
4492 1 
4493 2 
4494 1 
4495 1 
4496 2 
4497 1 
4498 1 
4499 2 
4500 1 
4534 1 
4535 2 
4536 1 
4543 1 
4544 2 
4545 1 
4546 1 
4547 2 
4548 1 
4549 1 
4550 2 
4551 1 
4555 1 
4556 2 
4557 1 
4594 1 
4595 2 
4596 1 
4597 1 
4598 2 
4599 1 
4600 1 
4601 3 
4602 1 
4606 1 
4607 2 
4608 1 
4618 1 
4619 2 
4620 1 
4654 1 
4655 2 
4656 1 
4657 1 
4658 2 
4659 1 
4666 1 
4667 2 
4668 1 
4675 1 
4676 2 
4677 1 
4711 1 
4712 3 
4713 1 
4720 1 
4721 2 
4722 1 
4723 1 
4724 2 
4725 1 
4735 1 
4736 3 
4737 1 
4738 1 
4739 3 
4740 1 
4774 1 
4775 2 
4776 1 
4792 1 
4793 3 
4794 1 
4831 1 
4832 3 
4833 1 
4834 1 
4835 3 
4836 1 
4837 1 
4838 2 
4839 1 
4858 1 
4859 3 
4860 1 
4894 1 
4895 3 
4896 1 
4900 1 
4901 3 
4902 1 
4909 1 
4910 2 
4911 1 
5491 1 
5492 2 
5493 1 
5494 1 
5495 2 
5496 1 
5551 1 
5552 2 
5553 1 
5557 1 
5558 3 
5559 1 
5575 1 
5576 3 
5577 1 
5638 1 
5639 2 
5640 1 
5674 1 
5675 2 
5676 1 
5677 1 
5678 3 
5679 1 
5683 1 
5684 3 
5685 1 
5689 1 
5690 2 
5691 1 
5791 1 
5792 3 
5793 1 
5803 1 
5804 3 
5805 1 
5812 1 
5813 2 
5814 1 
5815 1 
5816 2 
5817 1 
5854 1 
5855 2 
5856 1 
5860 1 
5861 2 
5862 1 
5869 1 
5870 2 
5871 1 
5875 1 
5876 2 
5877 1 
5878 1 
5879 3 
5880 1 
5914 1 
5915 2 
5916 1 
5929 1 
5930 2 
5931 1 
5935 1 
5936 3 
5937 1 
5983 1 
5984 2 
5985 1 
5995 1 
5996 3 
5997 1 
6031 1 
6032 2 
6033 1 
6049 1 
6050 2 
6051 1 
6691 1 
6692 2 
6693 1 
6700 1 
6701 3 
6702 1 
6703 1 
6704 3 
6705 1 
6706 1 
6707 2 
6708 1 
6712 1 
6713 2 
6714 1 
6715 1 
6716 2 
6717 1 
6751 1 
6752 2 
6753 1 
6754 1 
6755 3 
6756 1 
6757 1 
6758 3 
6759 1 
6760 1 
6761 2 
6762 1 
6763 1 
6764 3 
6765 1 
6775 1 
6776 2 
6777 1 
6811 1 
6812 3 
6813 1 
6814 1 
6815 3 
6816 1 
6826 1 
6827 3 
6828 1 
6838 1 
6839 3 
6840 1 
6871 1 
6872 2 
6873 1 
6877 1 
6878 2 
6879 1 
6892 1 
6893 2 
6894 1 
6931 1 
6932 2 
6933 1 
6937 1 
6938 2 
6939 1 
6940 1 
6941 2 
6942 1 
6949 1 
6950 3 
6951 1 
7003 1 
7004 2 
7005 1 
7012 1 
7013 3 
7014 1 
7054 1 
7055 3 
7056 1 
7072 1 
7073 2 
7074 1 
7114 1 
7115 2 
7116 1 
7120 1 
7121 2 
7122 1 
7123 1 
7124 2 
7125 1 
7126 1 
7127 3 
7128 1 
7171 1 
7172 2 
7173 1 
7192 1 
7193 2 
7194 1 
7195 1 
7196 3 
7197 1 
7198 1 
7199 2 
7200 1 
7231 1 
7232 3 
7233 1 
7234 1 
7235 2 
7236 1 
7240 1 
7241 3 
7242 1 
7246 1 
7247 3 
7248 1 
7252 1 
7253 3 
7254 1 
7771 1 
7772 3 
7773 1 
7795 1 
7796 2 
7797 1 
7837 1 
7838 3 
7839 1 
7852 1 
7853 3 
7854 1 
7855 1 
7856 3 
7857 1 
7900 1 
7901 3 
7902 1 
7915 1 
7916 2 
7917 1 
7963 1 
7964 3 
7965 1 
7966 1 
7967 2 
7968 1 
7978 1 
7979 3 
7980 1 
8020 1 
8021 2 
8022 1 
8035 1 
8036 2 
8037 1 
8077 1 
8078 3 
8079 1 
8089 1 
8090 3 
8091 1 
8134 1 
8135 3 
8136 1 
8137 1 
8138 2 
8139 1 
8146 1 
8147 3 
8148 1 
8155 1 
8156 3 
8157 1 
8158 1 
8159 2 
8160 1 
8215 1 
8216 2 
8217 1 
8272 1 
8273 2 
8274 1 
8317 1 
8318 2 
8319 1 
8335 1 
8336 2 
8337 1 
8914 1 
8915 3 
8916 1 
8923 1 
8924 2 
8925 1 
8929 1 
8930 2 
8931 1 
8935 1 
8936 3 
8937 1 
8971 1 
8972 2 
8973 1 
8983 1 
8984 3 
8985 1 
8995 1 
8996 3 
8997 1 
8998 1 
8999 2 
9000 1 
9031 1 
9032 2 
9033 1 
9046 1 
9047 3 
9048 1 
9052 1 
9053 2 
9054 1 
9058 1 
9059 3 
9060 1 
9091 1 
9092 2 
9093 1 
9103 1 
9104 3 
9105 1 
9160 1 
9161 2 
9162 1 
9166 1 
9167 2 
9168 1 
9178 1 
9179 2 
9180 1 
9211 1 
9212 2 
9213 1 
9214 1 
9215 2 
9216 1 
9223 1 
9224 3 
9225 1 
9229 1 
9230 2 
9231 1 
9271 1 
9272 2 
9273 1 
9274 1 
9275 2 
9276 1 
9283 1 
9284 3 
9285 1 
9286 1 
9287 2 
9288 1 
9292 1 
9293 2 
9294 1 
9340 1 
9341 3 
9342 1 
9346 1 
9347 3 
9348 1 
9997 1 
9998 2 
9999 1 
10015 1 
10016 3 
10017 1 
10069 1 
10070 3 
10071 1 
10120 1 
10121 3 
10122 1 
10123 1 
10124 3 
10125 1 
10129 1 
10130 2 
10131 1 
10135 1 
10136 2 
10137 1 
10186 1 
10187 2 
10188 1 
10195 1 
10196 3 
10197 1 
10198 1 
10199 3 
10200 1 
10237 1 
10238 2 
10239 1 
10297 1 
10298 3 
10299 1 
10303 1 
10304 2 
10305 1 
10306 1 
10307 2 
10308 1 
10309 1 
10310 2 
10311 1 
10354 1 
10355 3 
10356 1 
10357 1 
10358 2 
10359 1 
10360 1 
10361 3 
10362 1 
10363 1 
10364 3 
10365 1 
10366 1 
10367 3 
10368 1 
10375 1 
10376 2 
10377 1 
10378 1 
10379 2 
10380 1 
10411 1 
10412 2 
10413 1 
10420 1 
10421 2 
10422 1 
10423 1 
10424 3 
10425 1 
10438 1 
10439 3 
10440 1 
10471 1 
10472 2 
10473 1 
10483 1 
10484 3 
10485 1 
10486 1 
10487 3 
10488 1 
10531 1 
10532 2 
10533 1 
10537 1 
10538 2 
10539 1 
10558 1 
10559 2 
10560 1 
11131 1 
11132 2 
11133 1 
11149 1 
11150 3 
11151 1 
11155 1 
11156 2 
11157 1 
11191 1 
11192 3 
11193 1 
11194 1 
11195 3 
11196 1 
11203 1 
11204 3 
11205 1 
11254 1 
11255 2 
11256 1 
11263 1 
11264 2 
11265 1 
11311 1 
11312 3 
11313 1 
11317 1 
11318 2 
11319 1 
11320 1 
11321 3 
11322 1 
11332 1 
11333 3 
11334 1 
11371 1 
11372 2 
11373 1 
11380 1 
11381 2 
11382 1 
11386 1 
11387 3 
11388 1 
11395 1 
11396 2 
11397 1 
11443 1 
11444 2 
11445 1 
11491 1 
11492 3 
11493 1 
11506 1 
11507 2 
11508 1 
12091 1 
12092 3 
12093 1 
12106 1 
12107 2 
12108 1 
12115 1 
12116 2 
12117 1 
12118 1 
12119 3 
12120 1 
12151 1 
12152 2 
12153 1 
12160 1 
12161 3 
12162 1 
12169 1 
12170 3 
12171 1 
12175 1 
12176 3 
12177 1 
12214 1 
12215 2 
12216 1 
12220 1 
12221 3 
12222 1 
12229 1 
12230 3 
12231 1 
12232 1 
12233 2 
12234 1 
12277 1 
12278 2 
12279 1 
12280 1 
12281 2 
12282 1 
12298 1 
12299 2 
12300 1 
12334 1 
12335 3 
12336 1 
12337 1 
12338 3 
12339 1 
12340 1 
12341 2 
12342 1 
12343 1 
12344 3 
12345 1 
12346 1 
12347 3 
12348 1 
12352 1 
12353 3 
12354 1 
12358 1 
12359 3 
12360 1 
12406 1 
12407 2 
12408 1 
12415 1 
12416 2 
12417 1 
12418 1 
12419 3 
12420 1 
12466 1 
12467 2 
12468 1 
12469 1 
12470 3 
12471 1 
12472 1 
12473 2 
12474 1 
12520 1 
12521 3 
12522 1 
12526 1 
12527 2 
12528 1 
12529 1 
12530 3 
12531 1 
12532 1 
12533 2 
12534 1 
12571 1 
12572 2 
12573 1 
12586 1 
12587 2 
12588 1 
12589 1 
12590 3 
12591 1 
12598 1 
12599 2 
12600 1 
12631 1 
12632 2 
12633 1 
12637 1 
12638 2 
12639 1 
12643 1 
12644 3 
12645 1 
12646 1 
12647 2 
12648 1 
12658 1 
12659 2 
12660 1 
13180 1 
13181 2 
13182 1 
13189 1 
13190 2 
13191 1 
13231 1 
13232 3 
13233 1 
13249 1 
13250 2 
13251 1 
13300 1 
13301 2 
13302 1 
13303 1 
13304 2 
13305 1 
13363 1 
13364 3 
13365 1 
13369 1 
13370 3 
13371 1 
13372 1 
13373 3 
13374 1 
13411 1 
13412 2 
13413 1 
13417 1 
13418 3 
13419 1 
13420 1 
13421 2 
13422 1 
13423 1 
13424 3 
13425 1 
13438 1 
13439 3 
13440 1 
13474 1 
13475 3 
13476 1 
13480 1 
13481 3 
13482 1 
13486 1 
13487 3 
13488 1 
13489 1 
13490 3 
13491 1 
13498 1 
13499 3 
13500 1 
13531 1 
13532 3 
13533 1 
13543 1 
13544 3 
13545 1 
13552 1 
13553 2 
13554 1 
13555 1 
13556 2 
13557 1 
13591 1 
13592 3 
13593 1 
13606 1 
13607 3 
13608 1 
13612 1 
13613 2 
13614 1 
13615 1 
13616 2 
13617 1 
14275 1 
14276 2 
14277 1 
14311 1 
14312 3 
14313 1 
14314 1 
14315 2 
14316 1 
14317 1 
14318 2 
14319 1 
14326 1 
14327 3 
14328 1 
14377 1 
14378 3 
14379 1 
14383 1 
14384 2 
14385 1 
14392 1 
14393 3 
14394 1 
14395 1 
14396 2 
14397 1 
14446 1 
14447 3 
14448 1 
14455 1 
14456 2 
14457 1 
14458 1 
14459 2 
14460 1 
14494 1 
14495 2 
14496 1 
14500 1 
14501 2 
14502 1 
14554 1 
14555 3 
14556 1 
14557 1 
14558 2 
14559 1 
14560 1 
14561 3 
14562 1 
14572 1 
14573 2 
14574 1 
14620 1 
14621 3 
14622 1 
14626 1 
14627 3 
14628 1 
14635 1 
14636 3 
14637 1 
14638 1 
14639 3 
14640 1 
14671 1 
14672 2 
14673 1 
14689 1 
14690 3 
14691 1 
15331 1 
15332 2 
15333 1 
15334 1 
15335 2 
15336 1 
15346 1 
15347 2 
15348 1 
15400 1 
15401 2 
15402 1 
15457 1 
15458 2 
15459 1 
15463 1 
15464 2 
15465 1 
15466 1 
15467 2 
15468 1 
15475 1 
15476 2 
15477 1 
15478 1 
15479 3 
15480 1 
15511 1 
15512 2 
15513 1 
15514 1 
15515 3 
15516 1 
15517 1 
15518 2 
15519 1 
15538 1 
15539 3 
15540 1 
15571 1 
15572 2 
15573 1 
15577 1 
15578 3 
15579 1 
15583 1 
15584 3 
15585 1 
15595 1 
15596 3 
15597 1 
15631 1 
15632 3 
15633 1 
15637 1 
15638 2 
15639 1 
15640 1 
15641 2 
15642 1 
15649 1 
15650 2 
15651 1 
15652 1 
15653 3 
15654 1 
15691 1 
15692 3 
15693 1 
15703 1 
15704 2 
15705 1 
15751 1 
15752 3 
15753 1 
15754 1 
15755 3 
15756 1 
15772 1 
15773 3 
15774 1 
16357 1 
16358 3 
16359 1 
16363 1 
16364 2 
16365 1 
16375 1 
16376 2 
16377 1 
16429 1 
16430 3 
16431 1 
16471 1 
16472 2 
16473 1 
16477 1 
16478 2 
16479 1 
16480 1 
16481 3 
16482 1 
16486 1 
16487 3 
16488 1 
16489 1 
16490 2 
16491 1 
16495 1 
16496 3 
16497 1 
16531 1 
16532 2 
16533 1 
16591 1 
16592 2 
16593 1 
16594 1 
16595 2 
16596 1 
16612 1 
16613 3 
16614 1 
16618 1 
16619 2 
16620 1 
16660 1 
16661 3 
16662 1 
16663 1 
16664 3 
16665 1 
16729 1 
16730 3 
16731 1 
16732 1 
16733 3 
16734 1 
16735 1 
16736 2 
16737 1 
16738 1 
16739 3 
16740 1 
17314 1 
17315 2 
17316 1 
17317 1 
17318 2 
17319 1 
17320 1 
17321 3 
17322 1 
17326 1 
17327 3 
17328 1 
17377 1 
17378 2 
17379 1 
17386 1 
17387 3 
17388 1 
17398 1 
17399 2 
17400 1 
17440 1 
17441 2 
17442 1 
17443 1 
17444 2 
17445 1 
17446 1 
17447 3 
17448 1 
17458 1 
17459 2 
17460 1 
17497 1 
17498 3 
17499 1 
17503 1 
17504 3 
17505 1 
17512 1 
17513 3 
17514 1 
17578 1 
17579 3 
17580 1 
17617 1 
17618 3 
17619 1 
17620 1 
17621 2 
17622 1 
17623 1 
17624 2 
17625 1 
17629 1 
17630 2 
17631 1 
17635 1 
17636 3 
17637 1 
17638 1 
17639 2 
17640 1 
17680 1 
17681 2 
17682 1 
17683 1 
17684 3 
17685 1 
17686 1 
17687 3 
17688 1 
17689 1 
17690 3 
17691 1 
17692 1 
17693 3 
17694 1 
17734 1 
17735 3 
17736 1 
17749 1 
17750 3 
17751 1 
17794 1 
17795 2 
17796 1 
17803 1 
17804 2 
17805 1 
18403 1 
18404 2 
18405 1 
18406 1 
18407 3 
18408 1 
18409 1 
18410 2 
18411 1 
18412 1 
18413 3 
18414 1 
18451 1 
18452 3 
18453 1 
18454 1 
18455 3 
18456 1 
18457 1 
18458 2 
18459 1 
18469 1 
18470 3 
18471 1 
18475 1 
18476 2 
18477 1 
18523 1 
18524 3 
18525 1 
18526 1 
18527 2 
18528 1 
18529 1 
18530 2 
18531 1 
18538 1 
18539 3 
18540 1 
18571 1 
18572 3 
18573 1 
18586 1 
18587 3 
18588 1 
18592 1 
18593 2 
18594 1 
18634 1 
18635 3 
18636 1 
18655 1 
18656 3 
18657 1 
18658 1 
18659 2 
18660 1 
18697 1 
18698 3 
18699 1 
18712 1 
18713 3 
18714 1 
18763 1 
18764 2 
18765 1 
18772 1 
18773 2 
18774 1 
18775 1 
18776 3 
18777 1 
18778 1 
18779 2 
18780 1 
18817 1 
18818 2 
18819 1 
18820 1 
18821 2 
18822 1 
18823 1 
18824 3 
18825 1 
18874 1 
18875 3 
18876 1 
18880 1 
18881 2 
18882 1 
18889 1 
18890 3 
18891 1 
18895 1 
18896 3 
18897 1 
19474 1 
19475 3 
19476 1 
19531 1 
19532 2 
19533 1 
19555 1 
19556 3 
19557 1 
19558 1 
19559 3 
19560 1 
19591 1 
19592 2 
19593 1 
19594 1 
19595 3 
19596 1 
19603 1 
19604 2 
19605 1 
19609 1 
19610 2 
19611 1 
19615 1 
19616 2 
19617 1 
19669 1 
19670 2 
19671 1 
19675 1 
19676 2 
19677 1 
19714 1 
19715 2 
19716 1 
19717 1 
19718 3 
19719 1 
19720 1 
19721 2 
19722 1 
19723 1 
19724 3 
19725 1 
19726 1 
19727 2 
19728 1 
19777 1 
19778 3 
19779 1 
19792 1 
19793 3 
19794 1 
19849 1 
19850 2 
19851 1 
19852 1 
19853 3 
19854 1 
19858 1 
19859 2 
19860 1 
19891 1 
19892 3 
19893 1 
19906 1 
19907 3 
19908 1 
19909 1 
19910 2 
19911 1 
20560 1 
20561 2 
20562 1 
20563 1 
20564 2 
20565 1 
20575 1 
20576 2 
20577 1 
20611 1 
20612 2 
20613 1 
20635 1 
20636 2 
20637 1 
20674 1 
20675 3 
20676 1 
20680 1 
20681 3 
20682 1 
20695 1 
20696 3 
20697 1 
20740 1 
20741 3 
20742 1 
20791 1 
20792 2 
20793 1 
20794 1 
20795 3 
20796 1 
20803 1 
20804 3 
20805 1 
20854 1 
20855 3 
20856 1 
20863 1 
20864 2 
20865 1 
20914 1 
20915 2 
20916 1 
20917 1 
20918 2 
20919 1 
20929 1 
20930 3 
20931 1 
20974 1 
20975 3 
20976 1 
20989 1 
20990 2 
20991 1 
21031 1 
21032 2 
21033 1 
21034 1 
21035 2 
21036 1 
21049 1 
21050 2 
21051 1 
21052 1 
21053 2 
21054 1 
541 1 
542 3 
543 1 
544 1 
545 3 
546 1 
556 1 
557 3 
558 1 
565 1 
566 2 
567 1 
601 1 
602 2 
603 1 
607 1 
608 2 
609 1 
625 1 
626 2 
627 1 
685 1 
686 2 
687 1 
688 1 
689 3 
690 1 
721 1 
722 2 
723 1 
736 1 
737 2 
738 1 
739 1 
740 3 
741 1 
742 1 
743 3 
744 1 
745 1 
746 2 
747 1 
841 1 
842 3 
843 1 
904 1 
905 2 
906 1 
907 1 
908 3 
909 1 
910 1 
911 2 
912 1 
970 1 
971 2 
972 1 
973 1 
974 3 
975 1 
1021 1 
1022 2 
1023 1 
1048 1 
1049 3 
1050 1 
1093 1 
1094 2 
1095 1 
1096 1 
1097 2 
1098 1 
1108 1 
1109 2 
1110 1 
1684 1 
1685 2 
1686 1 
1690 1 
1691 2 
1692 1 
1693 1 
1694 2 
1695 1 
1696 1 
1697 3 
1698 1 
1699 1 
1700 2 
1701 1 
1747 1 
1748 3 
1749 1 
1753 1 
1754 2 
1755 1 
1756 1 
1757 3 
1758 1 
1807 1 
1808 3 
1809 1 
1810 1 
1811 2 
1812 1 
1813 1 
1814 2 
1815 1 
1861 1 
1862 3 
1863 1 
1867 1 
1868 2 
1869 1 
1873 1 
1874 3 
1875 1 
1888 1 
1889 2 
1890 1 
1948 1 
1949 3 
1950 1 
1981 1 
1982 3 
1983 1 
1984 1 
1985 3 
1986 1 
1999 1 
2000 2 
2001 1 
2005 1 
2006 2 
2007 1 
2008 1 
2009 3 
2010 1 
2041 1 
2042 2 
2043 1 
2059 1 
2060 2 
2061 1 
2065 1 
2066 2 
2067 1 
2068 1 
2069 3 
2070 1 
2104 1 
2105 3 
2106 1 
2107 1 
2108 3 
2109 1 
2116 1 
2117 3 
2118 1 
2182 1 
2183 3 
2184 1 
2185 1 
2186 2 
2187 1 
2188 1 
2189 3 
2190 1 
2644 1 
2645 2 
2646 1 
2650 1 
2651 2 
2652 1 
2668 1 
2669 2 
2670 1 
2710 1 
2711 3 
2712 1 
2722 1 
2723 3 
2724 1 
2728 1 
2729 2 
2730 1 
2779 1 
2780 3 
2781 1 
2785 1 
2786 2 
2787 1 
2788 1 
2789 2 
2790 1 
2830 1 
2831 3 
2832 1 
2848 1 
2849 3 
2850 1 
2884 1 
2885 2 
2886 1 
2887 1 
2888 2 
2889 1 
2893 1 
2894 3 
2895 1 
2896 1 
2897 2 
2898 1 
2944 1 
2945 3 
2946 1 
2947 1 
2948 2 
2949 1 
2950 1 
2951 3 
2952 1 
2956 1 
2957 3 
2958 1 
2962 1 
2963 3 
2964 1 
3013 1 
3014 2 
3015 1 
3016 1 
3017 2 
3018 1 
3061 1 
3062 3 
3063 1 
3067 1 
3068 3 
3069 1 
3076 1 
3077 2 
3078 1 
3079 1 
3080 2 
3081 1 
3121 1 
3122 3 
3123 1 
3127 1 
3128 3 
3129 1 
3142 1 
3143 3 
3144 1 
3793 1 
3794 2 
3795 1 
3796 1 
3797 3 
3798 1 
3799 1 
3800 3 
3801 1 
3805 1 
3806 3 
3807 1 
3808 1 