ITEM: TIMESTEP
80000000
ITEM: NUMBER OF ATOMS
3267
ITEM: BOX BOUNDS pp pp pp
0.0000000000000000e+00 5.0000000000000000e+01
0.0000000000000000e+00 5.0000000000000000e+01
0.0000000000000000e+00 5.0000000000000000e+01
ITEM: ATOMS id type xs ys zs
8182 1 0.307251 0.011183 0.0266312
12729 1 0.309033 0.0012257 0.0138549
8184 1 0.309213 0.00301315 0.0147412
8183 2 0.309534 0.00956196 0.0191056
3104 2 0.532073 0.0262542 0.0066293
13657 1 0.53417 0.0232131 0.016413
3105 1 0.533661 0.023713 0.01361
13658 2 0.535537 0.0202108 0.0235202
13659 1 0.533918 0.0165485 0.0302857
8200 1 0.333026 0.113213 0.00392021
8201 2 0.339868 0.108523 0.00339237
849 1 0.349377 0.103331 0.00226988
8202 1 0.347014 0.104601 0.00213497
848 3 0.356436 0.0994784 0.00392532
847 1 0.363311 0.0981248 0.00128656
6699 1 0.51612 0.208856 0.00598602
21111 1 0.518352 0.206424 0.00516976
21110 3 0.522648 0.200329 0.00493984
21109 1 0.530593 0.198583 0.00389006
7813 1 0.472853 0.231125 0.0305403
7814 3 0.468618 0.224617 0.0293033
18757 1 0.474481 0.232966 0.0307844
6697 1 0.515876 0.222151 0.00583597
16518 1 0.516923 0.224971 0.0054258
6698 2 0.512551 0.215545 0.00702965
16517 3 0.518904 0.232008 0.00333269
12904 1 0.537132 0.241529 0.0220011
7905 1 0.537912 0.23858 0.0229823
7904 3 0.539254 0.231297 0.0248764
7903 1 0.538047 0.225754 0.020191
17017 1 0.305565 0.27221 0.0211126
17019 1 0.319607 0.267264 0.0180346
17018 3 0.312992 0.270417 0.0209076
14618 2 0.474979 0.253487 0.00148843
14619 1 0.482761 0.251399 0.000720141
14617 1 0.47105 0.253448 0.007779
16898 2 0.503413 0.261077 0.0302676
16897 1 0.502407 0.268259 0.0258162
6258 1 0.528883 0.253028 0.0112022
12906 1 0.53079 0.251262 0.0135987
12905 3 0.535783 0.248141 0.0192313
6257 2 0.524977 0.258187 0.00579376
6256 1 0.523253 0.26521 0.00372562
2871 1 0.0123755 0.412808 0.0188754
2870 2 0.0145287 0.41991 0.0234335
2869 1 0.0126248 0.427711 0.0256551
17949 1 0.28444 0.569512 0.0137022
17948 3 0.283994 0.561754 0.0166004
10072 1 0.284174 0.571724 0.012532
17947 1 0.281588 0.555172 0.0166979
12640 1 0.175347 0.604824 0.0224651
13852 1 0.172259 0.604779 0.0228237
12641 3 0.183765 0.60375 0.0197137
13854 1 0.156768 0.603946 0.0251169
13853 2 0.164809 0.604269 0.0246893
10073 2 0.282194 0.578867 0.00989654
10074 1 0.280466 0.586998 0.00924378
18859 1 0.280099 0.590631 0.00873764
18860 2 0.280115 0.598538 0.00702212
18861 1 0.280413 0.605116 0.0100043
8812 1 0.543817 0.579992 0.00502218
8813 3 0.548077 0.583332 0.0105343
10635 1 0.18522 0.608781 0.0102807
12642 1 0.184914 0.607377 0.0131547
10634 3 0.184884 0.610916 0.00311395
250 1 0.280565 0.607504 0.0108466
251 3 0.281298 0.615188 0.0129522
252 1 0.27726 0.615703 0.0194294
19855 1 0.0703221 0.649104 0.0117326
19856 3 0.0731039 0.654299 0.0176147
19857 1 0.0786629 0.660348 0.0194329
18993 1 0.0811004 0.662447 0.0199597
18992 3 0.0861661 0.667975 0.0199271
18991 1 0.0881985 0.674075 0.0240208
5964 1 0.0249554 0.75242 0.0116547
20770 1 0.0235337 0.755045 0.0112363
5962 1 0.0280357 0.737032 0.0118744
5963 2 0.0274851 0.74471 0.0111162
20772 1 0.0146965 0.76896 0.0090765
20771 3 0.019869 0.761883 0.00946053
12261 1 0.196095 0.833277 0.0121169
15990 1 0.18899 0.843299 0.0255719
10568 2 0.187467 0.836524 0.0170661
10567 1 0.188718 0.841289 0.0233619
10569 1 0.193522 0.834617 0.0136709
12260 3 0.203102 0.830233 0.00895222
12259 1 0.205331 0.823908 0.00604469
3472 1 0.269568 0.96124 0.0160473
3473 3 0.273692 0.954965 0.018825
15182 2 0.290924 0.9581 0.0261059
3474 1 0.281048 0.955363 0.0220426
15181 1 0.283382 0.955669 0.0232995
15183 1 0.297062 0.956668 0.0218268
12727 1 0.305725 0.98916 0.00621189
12728 3 0.30798 0.995148 0.0105077
13907 2 0.360103 0.994117 0.0183474
13906 1 0.352519 0.991382 0.0164109
12885 1 0.369605 0.974598 0.0137728
13908 1 0.367862 0.996759 0.019862
12884 2 0.377234 0.973115 0.0154244
12883 1 0.384641 0.975403 0.0177125
5488 1 0.542819 0.0161541 0.0369277
5489 2 0.540655 0.0171367 0.0445612
5490 1 0.542311 0.0156652 0.0526053
17965 1 0.0562713 0.141014 0.0460919
17966 3 0.0617166 0.143443 0.0521566
17967 1 0.0667738 0.141699 0.0580615
14183 2 0.359639 0.1307 0.060012
14182 1 0.356946 0.12296 0.0604876
12371 3 0.174676 0.17677 0.058803
11699 2 0.166211 0.16681 0.0440107
11698 1 0.171431 0.170916 0.0498902
12372 1 0.17259 0.172589 0.0524657
11700 1 0.15887 0.16813 0.0411686
15408 1 0.448258 0.211588 0.0346237
15407 2 0.451456 0.21785 0.0335341
15406 1 0.459127 0.22003 0.0316629
18758 3 0.480667 0.237858 0.0314836
7815 1 0.461941 0.221035 0.0309511
18759 1 0.488852 0.239362 0.0334321
9933 1 0.491772 0.240229 0.0335562
9932 2 0.500046 0.242997 0.0346408
9931 1 0.500923 0.251168 0.0337964
16899 1 0.501685 0.253903 0.0332819
5796 1 0.121521 0.311757 0.0548293
5794 1 0.120721 0.324148 0.0459837
5795 3 0.121046 0.317797 0.0508941
490 1 0.50293 0.370759 0.0603736
20177 2 0.150531 0.496195 0.0364426
20178 1 0.142984 0.495181 0.0373928
20176 1 0.155332 0.497914 0.0438604
3487 1 0.0192856 0.522327 0.0421368
3488 3 0.0197697 0.527798 0.0478021
3489 1 0.0170335 0.534008 0.0531187
18651 1 0.110907 0.553324 0.0573517
18650 3 0.105258 0.556412 0.0523356
18649 1 0.100361 0.560514 0.0481729
4374 1 0.480664 0.573774 0.0400197
15444 1 0.512733 0.571533 0.0368864
4373 3 0.48854 0.575891 0.0359544
15443 2 0.506559 0.575849 0.0344548
15442 1 0.499948 0.576635 0.0353783
4372 1 0.496732 0.576768 0.0355287
2148 1 0.113073 0.643937 0.0564596
13680 1 0.0148082 0.688818 0.0556581
13678 1 0.00138524 0.690953 0.0579486
13679 3 0.00756355 0.687323 0.0582073
13776 1 0.141269 0.745498 0.0356659
13775 3 0.148342 0.744842 0.0397612
13774 1 0.155133 0.742746 0.0433017
15989 2 0.189816 0.848125 0.0324625
15988 1 0.192564 0.848578 0.0399575
16860 1 0.248968 0.855417 0.0612902
19657 1 0.31903 0.858196 0.0505728
19659 1 0.312412 0.872285 0.0488742
13515 1 0.311703 0.874931 0.049607
19658 2 0.314851 0.864002 0.0481725
3858 1 0.426228 0.863221 0.0516914
3857 2 0.419246 0.865752 0.0544611
3856 1 0.414674 0.859748 0.0570664
13514 3 0.308977 0.883123 0.0508926
111 1 0.316251 0.903915 0.0441511
110 3 0.317642 0.897576 0.049728
109 1 0.313689 0.892416 0.0500197
13513 1 0.3118 0.889681 0.0502877
14184 1 0.360589 0.139203 0.0618506
3776 2 0.0508645 0.184057 0.079666
3777 1 0.0494406 0.182058 0.0873876
3775 1 0.0499392 0.188723 0.0729395
12370 1 0.173173 0.182916 0.0642781
10168 1 0.0426582 0.235161 0.0910141
10169 2 0.050186 0.23601 0.0904952
11576 2 0.548587 0.221155 0.0858022
11577 1 0.550168 0.216033 0.0809083
21333 1 0.474268 0.362692 0.079772
21332 3 0.481293 0.362542 0.0754539
21331 1 0.487426 0.364295 0.0713524
492 1 0.490425 0.365352 0.0698866
491 2 0.497312 0.367729 0.0659806
14332 1 0.546229 0.446961 0.077606
14334 1 0.534144 0.452402 0.0791539
14333 3 0.538831 0.446562 0.0749289
2146 1 0.11806 0.649722 0.0712732
2147 2 0.114212 0.648192 0.0642968
16499 2 0.302992 0.672673 0.0806068
16498 1 0.295935 0.67332 0.085073
1475 3 0.31533 0.687272 0.0761935
1476 1 0.316438 0.694334 0.0756956
1474 1 0.309807 0.681823 0.0782207
16500 1 0.307966 0.67934 0.0786283
1877 2 0.326092 0.720183 0.069246
1876 1 0.330615 0.722054 0.0631002
1878 1 0.322085 0.714227 0.0714555
2110 1 0.316786 0.697263 0.0746998
2112 1 0.320489 0.711694 0.0720834
2111 3 0.316376 0.704218 0.0719449
1642 1 0.442438 0.715887 0.070154
1643 3 0.444833 0.708765 0.0673242
1644 1 0.443841 0.702888 0.0643079
16726 1 0.199912 0.732683 0.0835274
16727 2 0.197596 0.737306 0.0905613
16092 1 0.279024 0.747837 0.0870727
709 1 0.233341 0.800435 0.068643
710 3 0.227192 0.802736 0.0634689
711 1 0.219282 0.804767 0.0634453
15942 1 0.271173 0.847471 0.0875643
17500 1 0.274398 0.847032 0.0880864
1759 1 0.287835 0.833645 0.0724367
1760 3 0.295216 0.837087 0.0689101
1761 1 0.298598 0.840374 0.0740211
4678 1 0.300405 0.842479 0.0763976
4679 3 0.303142 0.846125 0.0829789
17501 3 0.280601 0.846117 0.0904282
20486 2 0.330745 0.835897 0.063723
20485 1 0.322626 0.83412 0.0624925
20487 1 0.338219 0.839818 0.0661046
15941 2 0.264099 0.849881 0.0852201
16858 1 0.258961 0.852073 0.0755002
15940 1 0.260196 0.851168 0.0782466
16859 2 0.254692 0.854382 0.0682913
4680 1 0.30132 0.848658 0.0905956
7457 3 0.28364 0.85671 0.0760913
17502 1 0.282326 0.849974 0.0841595
7456 1 0.282929 0.851383 0.0819788
7458 1 0.285019 0.865357 0.0731457
19835 2 0.0488821 0.882855 0.0866365
19834 1 0.0411334 0.881857 0.0854801
19836 1 0.054881 0.884399 0.0919548
7959 1 0.314676 0.962684 0.0869202
7958 3 0.320984 0.95983 0.082832
7957 1 0.32695 0.955126 0.0793744
20237 2 0.0029138 0.975288 0.0849343
20236 1 0.0078661 0.977356 0.0913912
13547 3 0.530373 0.0276755 0.111515
13546 1 0.535193 0.0223523 0.113303
13548 1 0.525374 0.0330706 0.108229
17138 2 0.244814 0.11979 0.118088
17137 1 0.240101 0.112916 0.119877
18303 1 0.271554 0.106226 0.102461
14121 1 0.26886 0.106523 0.10134
14120 2 0.260947 0.10715 0.0980628
14119 1 0.254028 0.105965 0.0959177
18302 2 0.278072 0.106558 0.105949
18301 1 0.281649 0.113679 0.106356
17139 1 0.247208 0.125939 0.123075
10170 1 0.0561137 0.238832 0.0933537
16950 1 0.0589983 0.240367 0.0944542
21557 3 0.545898 0.228478 0.100861
21556 1 0.546862 0.223516 0.0954406
21558 1 0.545131 0.233165 0.108592
11575 1 0.546966 0.222667 0.0928408
16949 3 0.0649038 0.244528 0.0975044
16948 1 0.0718858 0.247747 0.0985983
1346 3 0.239081 0.253729 0.102157
1347 1 0.242389 0.25583 0.109242
1345 1 0.243182 0.256393 0.0960613
6282 1 0.0241926 0.32115 0.114206
6281 2 0.0327959 0.323361 0.115787
6280 1 0.0395241 0.324571 0.112007
18181 1 0.0420428 0.325143 0.110187
18183 1 0.057468 0.327074 0.103674
18182 3 0.0491617 0.326535 0.106401
16344 1 0.526091 0.431467 0.106898
16343 2 0.533871 0.432038 0.103159
16342 1 0.541628 0.433096 0.102156
5819 2 0.202403 0.491646 0.115798
5818 1 0.198604 0.49781 0.11103
5820 1 0.207267 0.488518 0.121537
17020 1 0.0459517 0.567484 0.111674
17021 2 0.0457799 0.573077 0.106447
17022 1 0.0426462 0.577753 0.101624
16728 1 0.197138 0.745287 0.0933198
16091 3 0.27638 0.75322 0.0930501
9043 1 0.174943 0.775145 0.0959486
9045 1 0.179749 0.758947 0.0992373
9044 2 0.177373 0.767326 0.0980684
16090 1 0.278084 0.759247 0.0975017
18059 2 0.549238 0.780784 0.112165
18060 1 0.546599 0.785314 0.117781
2550 1 0.470095 0.807422 0.093236
2548 1 0.461394 0.814497 0.103812
3697 1 0.461102 0.816405 0.105834
2549 2 0.464121 0.809178 0.0991256
3698 2 0.459499 0.82282 0.111475
1191 1 0.451097 0.824991 0.116987
3699 1 0.452755 0.8247 0.115731
1190 3 0.445017 0.825761 0.122848
5751 1 0.300194 0.849462 0.0933575
5749 1 0.295714 0.851836 0.110396
20296 1 0.295082 0.85193 0.11303
20297 3 0.292971 0.853629 0.120356
5750 3 0.298118 0.850533 0.10172
18873 1 0.0576181 0.88486 0.0935328
18871 1 0.0721087 0.886396 0.0987674
18872 3 0.0640884 0.88475 0.0975861
19845 1 0.248083 0.887677 0.108045
19844 3 0.246197 0.889933 0.114686
19843 1 0.248294 0.892744 0.121594
20673 1 0.0257421 0.968894 0.123183
16074 1 0.157374 0.962784 0.118566
16073 3 0.165435 0.963558 0.117225
17742 1 0.175753 0.964721 0.11808
16072 1 0.172953 0.964772 0.118024
15939 1 0.205409 0.949557 0.113087
17741 3 0.184535 0.963042 0.118796
15938 2 0.201969 0.954722 0.117901
15937 1 0.194375 0.958409 0.118858
17740 1 0.191527 0.959974 0.11877
21462 1 0.0170799 0.973318 0.107766
20672 3 0.0232924 0.971441 0.116505
20671 1 0.0182261 0.972597 0.110679
21460 1 0.00935791 0.977378 0.0944946
21461 2 0.0129315 0.976354 0.10176
21434 3 0.117958 0.0814572 0.128363
21433 1 0.115058 0.0733576 0.128081
21435 1 0.116144 0.0884874 0.13077
20464 1 0.247794 0.128092 0.124936
20465 3 0.248624 0.131592 0.131124
20466 1 0.250484 0.138833 0.133589
13580 2 0.0149084 0.217004 0.132055
13581 1 0.013933 0.214537 0.139814
13579 1 0.0181975 0.221181 0.126179
13567 1 0.277372 0.254835 0.14558
13568 2 0.282959 0.25501 0.14064
13569 1 0.288732 0.254552 0.145772
4843 1 0.523129 0.280773 0.147798
4844 2 0.529335 0.283425 0.152862
5868 1 0.202458 0.450722 0.152604
5866 1 0.210376 0.466046 0.150584
5867 3 0.207934 0.45927 0.153055
19482 1 0.214494 0.480057 0.1391
19481 3 0.214136 0.476095 0.14584
19480 1 0.211633 0.46898 0.149947
18156 1 0.214578 0.481157 0.136305
18154 1 0.20917 0.487722 0.124327
18155 3 0.213695 0.484932 0.129898
14687 3 0.141016 0.566229 0.147324
14686 1 0.13325 0.565105 0.145627
14688 1 0.149137 0.56401 0.147926
1168 1 0.444706 0.578755 0.152185
1170 1 0.437077 0.590938 0.146117
1169 2 0.4406 0.585086 0.148584
7793 2 0.307308 0.649385 0.143191
7794 1 0.31106 0.655714 0.147569
7792 1 0.307116 0.64153 0.14591
13171 1 0.312687 0.675658 0.150145
13172 3 0.317098 0.680868 0.153722
20643 1 0.366084 0.734106 0.152067
20642 2 0.37095 0.739954 0.153575
1837 1 0.422641 0.831235 0.135719
1189 1 0.439691 0.829717 0.125816
1839 1 0.437169 0.830961 0.127024
1838 2 0.429717 0.831921 0.129308
20298 1 0.288165 0.857319 0.126797
17132 2 0.286178 0.874405 0.146497
9226 1 0.282963 0.867976 0.138074
17133 1 0.283488 0.870221 0.139811
9228 1 0.286619 0.858913 0.128803
9227 3 0.282061 0.863503 0.133047
16180 1 0.249464 0.89389 0.123997
654 1 0.256624 0.906788 0.130868
16182 1 0.25588 0.904113 0.130899
16181 3 0.254039 0.896007 0.130283
10774 1 0.285565 0.882727 0.153383
17131 1 0.285838 0.880385 0.151528
17335 1 0.214306 0.935662 0.140236
6010 1 0.216384 0.934377 0.139062
6011 3 0.221352 0.929617 0.135705
6012 1 0.229387 0.928787 0.136601
15987 1 0.23217 0.928316 0.136786
15986 2 0.239345 0.925865 0.13737
653 2 0.256488 0.915384 0.13143
652 1 0.248471 0.919169 0.134323
15985 1 0.245556 0.921045 0.135237
19380 1 0.026746 0.968117 0.125355
19379 2 0.0298795 0.96699 0.131971
17336 2 0.20828 0.940615 0.14209
17337 1 0.200356 0.941407 0.144514
19378 1 0.0351775 0.970276 0.137438
15736 1 0.0479371 0.979868 0.152094
10236 1 0.0464914 0.978564 0.149823
10235 3 0.0424283 0.975188 0.145006
10234 1 0.0375243 0.97176 0.139567
5563 1 0.389972 0.15755 0.178086
8581 1 0.206917 0.207917 0.178119
16388 2 0.212363 0.199383 0.172967
16389 1 0.208222 0.20567 0.177071
16387 1 0.216961 0.198609 0.167158
8582 2 0.205007 0.21439 0.181799
9360 1 0.210308 0.224718 0.181396
8583 1 0.208854 0.221634 0.18147
9359 3 0.213748 0.232615 0.180814
4660 1 0.205298 0.286622 0.163597
4661 2 0.200383 0.281022 0.165657
4662 1 0.195386 0.276476 0.16967
9453 1 0.308303 0.289153 0.159902
9452 3 0.315206 0.289164 0.15457
9451 1 0.323102 0.290026 0.156054
4845 1 0.530564 0.291372 0.154849
6570 1 0.504659 0.311479 0.170491
6568 1 0.51474 0.310571 0.177546
6569 2 0.50766 0.311478 0.176983
19890 1 0.380912 0.508031 0.165129
19889 3 0.379892 0.513039 0.170647
19888 1 0.377408 0.514508 0.177031
8742 1 0.376053 0.514891 0.179448
7342 1 0.11135 0.635665 0.179817
7344 1 0.108306 0.650787 0.183782
3046 1 0.107788 0.652983 0.184271
7343 3 0.11135 0.643432 0.181798
3048 1 0.104325 0.669384 0.183777
13173 1 0.322317 0.685748 0.15583
10476 1 0.259538 0.715676 0.155899
10475 3 0.268125 0.714344 0.15634
10474 1 0.269883 0.709557 0.163709
14774 2 0.272333 0.703955 0.173849
14775 1 0.270644 0.707895 0.166062
14773 1 0.275262 0.69727 0.175812
20641 1 0.372935 0.745779 0.157746
11646 1 0.388101 0.747383 0.178302
21495 1 0.292786 0.847485 0.184439
21493 1 0.291003 0.847442 0.167651
18800 3 0.00582171 0.868144 0.178026
18799 1 0.00971895 0.87578 0.179234
4591 1 0.00220077 0.876399 0.155979
18801 1 0.0048065 0.861105 0.176586
21494 3 0.290457 0.848863 0.176098
19968 1 0.0698905 0.900561 0.172
19967 3 0.0708386 0.902602 0.179516
12167 2 0.119822 0.896421 0.169648
12166 1 0.117021 0.903644 0.169548
12168 1 0.119644 0.89294 0.162219
334 1 0.240012 0.903881 0.171965
10776 1 0.283253 0.891576 0.165718
10775 2 0.283544 0.888065 0.159075
335 2 0.241658 0.911079 0.170133
1147 1 0.258335 0.929662 0.163858
1149 1 0.247971 0.918873 0.165104
336 1 0.24564 0.916865 0.166471
1148 3 0.252638 0.924838 0.162712
9510 1 0.0851515 0.956144 0.180023
15737 3 0.0518488 0.98252 0.158728
15738 1 0.0599378 0.983611 0.156597
7217 2 0.256646 0.987065 0.179895
7218 1 0.263606 0.98484 0.183786
10478 2 0.00906353 0.0350764 0.214477
10479 1 0.0165707 0.0368502 0.214397
19582 1 0.0194048 0.0377691 0.21442
19583 3 0.0270044 0.0412342 0.214525
10477 1 0.00399694 0.0343166 0.20863
19584 1 0.0340982 0.0423235 0.211878
17789 3 0.0442525 0.041194 0.208286
17788 1 0.0364423 0.0421377 0.21102
17790 1 0.0517114 0.0445904 0.209489
17539 1 0.35909 0.167583 0.206699
17540 2 0.361241 0.160628 0.203755
5564 2 0.388579 0.15746 0.185304
5565 1 0.383737 0.16004 0.191621
3607 1 0.382186 0.161354 0.193388
3608 3 0.378053 0.167143 0.19844
17541 1 0.368854 0.163262 0.201649
3609 1 0.371657 0.164236 0.200774
9358 1 0.219259 0.236882 0.185018
1416 1 0.221074 0.238373 0.187155
1415 3 0.226143 0.240919 0.192759
5102 3 0.394163 0.239743 0.203429
5101 1 0.400415 0.234752 0.203683
1414 1 0.230594 0.246369 0.19803
17128 1 0.301814 0.244688 0.196769
17129 3 0.309541 0.247321 0.197783
13463 3 0.327039 0.252592 0.189554
17130 1 0.317133 0.250036 0.194662
13462 1 0.320077 0.250907 0.19358
13464 1 0.334663 0.253593 0.193802
13437 1 0.337522 0.254097 0.195504
13436 3 0.345583 0.254514 0.199031
13435 1 0.352166 0.256437 0.202453
8229 1 0.354527 0.257462 0.203744
8228 3 0.362257 0.259121 0.206783
4779 1 0.372706 0.254338 0.206659
8227 1 0.370062 0.255428 0.206689
4778 2 0.379056 0.250258 0.207996
5103 1 0.387073 0.243302 0.205304
4777 1 0.385318 0.244754 0.206133
3706 1 0.0870996 0.318421 0.215486
7296 1 0.356772 0.420669 0.210793
7295 2 0.362615 0.417888 0.215161
18485 2 0.227606 0.471948 0.213869
18486 1 0.221118 0.475293 0.215022
8741 2 0.372837 0.515097 0.187056
13135 1 0.35909 0.526499 0.208896
11419 1 0.361249 0.52562 0.20739
11420 3 0.366357 0.521011 0.202877
13136 2 0.353235 0.529698 0.213643
11421 1 0.369086 0.518033 0.196747
8740 1 0.369726 0.517439 0.194031
3047 2 0.105625 0.661151 0.185698
10030 1 0.408869 0.642868 0.187905
10031 3 0.408539 0.643439 0.195556
10032 1 0.407645 0.64443 0.203804
257 2 0.118216 0.691043 0.215062
17977 1 0.451116 0.696298 0.18688
17978 3 0.451474 0.690562 0.192665
17979 1 0.454371 0.683048 0.193327
14883 1 0.124342 0.700268 0.211205
256 1 0.122635 0.697762 0.212429
14882 3 0.127201 0.706366 0.207039
14881 1 0.129717 0.710972 0.201527
16650 1 0.33972 0.753721 0.213405
16649 3 0.3395 0.74744 0.208358
16648 1 0.340862 0.73959 0.204951
11644 1 0.387339 0.742362 0.191302
11645 2 0.389813 0.744748 0.185164
6130 1 0.0603761 0.768994 0.189307
6131 3 0.0609283 0.776652 0.188852
6132 1 0.0635786 0.782861 0.190709
21521 2 0.0971039 0.764654 0.210516
21522 1 0.100266 0.772522 0.209196
21520 1 0.0941586 0.757629 0.21348
14002 1 0.369963 0.783107 0.197505
14003 2 0.378342 0.7855 0.197704
14004 1 0.385165 0.781886 0.19789
14037 1 0.387973 0.780386 0.197554
14036 3 0.395978 0.777006 0.19746
14035 1 0.402723 0.779633 0.195429
18654 1 0.540424 0.811249 0.205906
18652 1 0.547285 0.81438 0.192314
18653 3 0.542748 0.81529 0.199409
12561 1 0.290834 0.84531 0.20361
12560 3 0.292676 0.84712 0.19439
12559 1 0.293152 0.847454 0.187528
21308 2 0.132813 0.878324 0.201041
16945 1 0.0736504 0.896372 0.187932
19966 1 0.0729296 0.898468 0.185654
16947 1 0.080399 0.885435 0.19453
16946 2 0.074716 0.891416 0.194141
21307 1 0.13808 0.882033 0.205404
15899 3 0.143156 0.888449 0.212746
15898 1 0.13989 0.883647 0.207234
21309 1 0.12578 0.87952 0.196268
9508 1 0.0912807 0.952391 0.195428
9509 3 0.0896711 0.955661 0.187409
1 1 0.0924716 0.950856 0.198407
2 3 0.0953458 0.947475 0.203909
2527 1 0.0983696 0.941169 0.214301
3 1 0.0976391 0.942478 0.211629
3039 1 0.123838 0.983354 0.210793
19508 3 0.243121 0.990957 0.192259
19509 1 0.237458 0.988345 0.198948
19507 1 0.2487 0.989628 0.187148
7216 1 0.251096 0.988938 0.185027
17114 2 0.405916 0.0593947 0.237332
17115 1 0.411132 0.0554459 0.233775
12184 1 0.179888 0.0769662 0.244047
12185 2 0.181456 0.0713153 0.239118
12186 1 0.179937 0.0677077 0.23222
17113 1 0.401447 0.0636958 0.24292
21340 1 0.39975 0.0654319 0.245305
12369 1 0.118478 0.136453 0.241472
12367 1 0.115228 0.146678 0.235345
12368 2 0.113305 0.142144 0.240888
20935 1 0.163951 0.301019 0.221665
17370 1 0.3601 0.278169 0.240036
17369 2 0.366125 0.279667 0.236229
17368 1 0.369699 0.287047 0.234175
12894 1 0.0399939 0.315413 0.246072
3707 2 0.0830319 0.32227 0.22161
3708 1 0.0776139 0.323682 0.227356
20937 1 0.154557 0.310122 0.221985
20936 3 0.158911 0.30526 0.226877
2799 1 0.0352568 0.416277 0.224779
2797 1 0.0432137 0.404508 0.218465
2798 3 0.0405136 0.410765 0.222538
7294 1 0.367041 0.417134 0.22208
17873 2 0.383845 0.430965 0.229072
17872 1 0.38195 0.436727 0.224052
17874 1 0.385212 0.424569 0.233539
18484 1 0.234646 0.472322 0.218171
12264 1 0.236869 0.472449 0.219264
12263 3 0.243731 0.471438 0.222732
12262 1 0.249694 0.473466 0.227979
14360 2 0.258216 0.478059 0.233917
14361 1 0.25217 0.474832 0.229852
14359 1 0.262944 0.480318 0.241096
13137 1 0.346601 0.533364 0.216121
4921 1 0.041772 0.59664 0.235413
4922 3 0.0422226 0.587831 0.23665
4923 1 0.0403046 0.581684 0.232454
3672 1 0.0788376 0.67068 0.216495
3670 1 0.0915094 0.679414 0.220345
3671 3 0.0848705 0.674572 0.218451
258 1 0.112651 0.685455 0.215893
232 1 0.176153 0.79164 0.226577
233 2 0.175373 0.800207 0.224036
234 1 0.17186 0.806455 0.220054
15900 1 0.138822 0.890994 0.218039
2529 1 0.106988 0.934333 0.224539
2528 2 0.101124 0.937016 0.220666
3038 2 0.126654 0.977836 0.216163
3037 1 0.124594 0.97915 0.224616
1939 1 0.124176 0.979516 0.227602
1940 2 0.123108 0.980258 0.235387
1941 1 0.123208 0.97626 0.242499
12687 1 0.202234 0.989485 0.245261
12685 1 0.20263 0.976549 0.239235
12686 2 0.198691 0.982855 0.242114
18184 1 0.479271 0.0312469 0.24957
18185 3 0.486676 0.0320056 0.253452
18186 1 0.493928 0.0321328 0.257628
21341 3 0.396901 0.0695365 0.251146
21342 1 0.401025 0.0746446 0.255782
5636 2 0.412563 0.0844632 0.269153
5635 1 0.409645 0.0797528 0.263481
5637 1 0.408978 0.0913973 0.268197
15291 1 0.4274 0.12035 0.264251
15289 1 0.415076 0.124576 0.272518
15290 3 0.421325 0.122866 0.267781
11280 1 0.0232031 0.17369 0.276355
17083 1 0.0295558 0.155471 0.271053
17084 2 0.0354482 0.151561 0.275333
11278 1 0.0151614 0.18409 0.273075
16000 1 0.183518 0.218603 0.273868
16002 1 0.181449 0.231612 0.264868
16001 2 0.182741 0.226937 0.272111
6427 1 0.283897 0.237874 0.247411
6429 1 0.286737 0.246964 0.256674
6428 3 0.283982 0.24574 0.249253
12892 1 0.0415917 0.328275 0.256027
12893 3 0.041527 0.320528 0.252221
14650 1 0.103623 0.34176 0.275746
14651 2 0.0999992 0.348506 0.271311
14652 1 0.0981001 0.349186 0.264037
18219 1 0.331674 0.372795 0.269294
18218 3 0.326762 0.366824 0.272254
18898 1 0.301514 0.409019 0.258155
18900 1 0.315669 0.409132 0.260801
18899 3 0.30718 0.409275 0.262206
5770 1 0.486853 0.541897 0.274254
5771 2 0.483507 0.534245 0.276279
7332 1 0.0485466 0.601458 0.276226
2840 2 0.428061 0.635505 0.263824
2839 1 0.431219 0.62758 0.263572
2841 1 0.426905 0.642921 0.26402
2671 1 0.426646 0.645944 0.264173
2672 3 0.42379 0.654276 0.265296
2673 1 0.42199 0.661631 0.265119
5129 3 0.00109533 0.698177 0.270793
9698 2 0.234133 0.743623 0.253074
9697 1 0.238115 0.746791 0.260008
9699 1 0.229077 0.737789 0.250897
16923 1 0.312784 0.903366 0.264307
16922 2 0.318806 0.904516 0.269847
16921 1 0.322172 0.909202 0.275395
17085 1 0.0379367 0.144846 0.280742
11279 2 0.0185791 0.179743 0.279198
6348 1 0.258572 0.358622 0.288081
21514 1 0.328934 0.363395 0.282895
21515 2 0.329272 0.359691 0.288714
6347 3 0.261967 0.365561 0.287016
6346 1 0.259927 0.373392 0.287354
8072 2 0.305913 0.376238 0.306686
18217 1 0.328344 0.364855 0.279678
8071 1 0.309245 0.376444 0.298882
21516 1 0.335358 0.364951 0.28839
18553 1 0.328557 0.401031 0.284204
18554 3 0.335372 0.401072 0.289071
18555 1 0.342829 0.401695 0.293107
18532 1 0.34557 0.402476 0.294644
18533 2 0.351177 0.406601 0.298577
18534 1 0.356491 0.40648 0.303971
10900 1 0.358788 0.406597 0.305604
5772 1 0.48106 0.532123 0.283198
11404 1 0.120215 0.572548 0.291522
11405 3 0.127841 0.572411 0.296615
11406 1 0.130451 0.571518 0.304884
15358 1 0.13086 0.571409 0.308066
3395 3 0.20387 0.570113 0.306379
3396 1 0.202566 0.57692 0.302267
7331 3 0.0540039 0.607261 0.279477
3471 1 0.0590919 0.616341 0.283435
7330 1 0.0577856 0.613909 0.282763
3469 1 0.0685049 0.627206 0.286399
3470 3 0.0621966 0.622603 0.285997
7431 1 0.21146 0.645635 0.295187
7429 1 0.223391 0.652504 0.288107
7430 3 0.216182 0.64894 0.290622
5130 1 0.00436008 0.69465 0.27779
5765 2 0.334671 0.677669 0.287944
5764 1 0.337367 0.677725 0.295783
5766 1 0.340548 0.677185 0.28239
21040 1 0.388354 0.683335 0.301352
21041 3 0.381016 0.685694 0.297375
21042 1 0.373767 0.683916 0.299534
4465 1 0.295892 0.69814 0.29686
4467 1 0.299302 0.697102 0.282249
4466 3 0.294173 0.698817 0.289288
11164 1 0.124103 0.772594 0.289526
11166 1 0.122752 0.769452 0.302536
11165 3 0.126067 0.771842 0.296619
17801 2 0.251091 0.776754 0.296065
17802 1 0.250475 0.782454 0.301203
17800 1 0.249839 0.76971 0.292332
20505 1 0.273761 0.912985 0.305596
1153 1 0.29112 0.0233788 0.336323
6145 1 0.343993 0.0323925 0.338606
6147 1 0.339794 0.0462136 0.335086
10978 1 0.280796 0.175825 0.332418
10979 2 0.276061 0.179862 0.338286
7352 3 0.501443 0.269328 0.328131
7353 1 0.502639 0.262245 0.329034
7351 1 0.508367 0.274254 0.327332
14226 1 0.305774 0.38143 0.314365
14225 3 0.303011 0.385098 0.321521
14224 1 0.297515 0.387846 0.325943
8073 1 0.306195 0.380285 0.311796
20904 1 0.379042 0.391414 0.332732
20902 1 0.373838 0.377208 0.327749
20903 3 0.376879 0.384011 0.330755
10901 2 0.365054 0.406517 0.309993
10902 1 0.371369 0.41062 0.314008
17278 1 0.394426 0.451449 0.335379
17279 2 0.388412 0.456781 0.337262
15360 1 0.131605 0.575335 0.322769
15359 2 0.131046 0.570488 0.316178
3394 1 0.207687 0.564968 0.312285
10078 1 0.131591 0.577316 0.324867
10079 2 0.130963 0.584529 0.328932
10080 1 0.127825 0.592211 0.33003
1848 1 0.478971 0.699195 0.315722
1847 3 0.483814 0.701593 0.320331
1846 1 0.490027 0.701829 0.325918
1259 2 0.498589 0.703856 0.333098
1260 1 0.505823 0.708961 0.33339
1258 1 0.492324 0.702338 0.327869
2660 3 0.515407 0.713407 0.333044
2661 1 0.508332 0.710303 0.333616
2659 1 0.522 0.714223 0.32817
6749 2 0.00362768 0.777805 0.332821
6750 1 0.0114566 0.77499 0.33237
20692 1 0.181648 0.897553 0.310901
20694 1 0.183059 0.908312 0.319604
20693 3 0.184275 0.906025 0.312361
695 3 0.274686 0.907289 0.333117
694 1 0.274053 0.908907 0.324862
20503 1 0.273844 0.910388 0.321444
20504 2 0.27275 0.913202 0.31373
7774 1 0.288413 0.00521999 0.342571
1155 1 0.289647 0.00806603 0.341748
1154 3 0.291938 0.0155141 0.340566
6146 3 0.341933 0.0401498 0.340034
11147 2 0.0156485 0.0912985 0.353276
11146 1 0.0225333 0.0931485 0.356783
11148 1 0.00797573 0.0956208 0.353897
18390 1 0.250211 0.130362 0.369844
10980 1 0.268131 0.180473 0.340086
6294 1 0.439531 0.206822 0.365053
5732 2 0.546614 0.21088 0.358716
5733 1 0.547297 0.20363 0.362859
6292 1 0.435106 0.222939 0.364512
6293 2 0.438283 0.215282 0.366138
5731 1 0.549841 0.217056 0.353818
19204 1 0.232617 0.354485 0.351975
19206 1 0.225823 0.340305 0.34579
19205 3 0.230846 0.34733 0.349504
11065 1 0.527637 0.387369 0.358031
11066 3 0.531332 0.392625 0.353006
11067 1 0.531782 0.399487 0.347768
17280 1 0.385799 0.462588 0.34216
20218 1 0.541929 0.482271 0.354518
20220 1 0.531311 0.490549 0.363906
20219 3 0.536662 0.486935 0.359253
14948 2 0.0494506 0.71136 0.364479
14947 1 0.0430266 0.71469 0.366431
14949 1 0.0522417 0.708308 0.357374
401 2 0.115192 0.709118 0.348177
402 1 0.110935 0.715719 0.344905
400 1 0.108953 0.70547 0.348507
19869 1 0.45608 0.753635 0.368445
14803 1 0.445469 0.854124 0.363733
3369 1 0.275466 0.902985 0.353288
18612 1 0.272659 0.902958 0.354869
18611 2 0.264995 0.902818 0.357316
18610 1 0.257537 0.904177 0.357138
1645 1 0.254469 0.904916 0.356891
1646 2 0.246001 0.906557 0.357105
696 1 0.278657 0.904946 0.339624
3367 1 0.280132 0.903924 0.342028
3368 3 0.283173 0.900969 0.348781
1647 1 0.239401 0.910586 0.359391
8002 1 0.352703 0.92147 0.362268
8003 2 0.346732 0.927383 0.362967
8004 1 0.338561 0.924237 0.362432
7775 2 0.285514 0.998628 0.343871
7776 1 0.281037 0.992956 0.340954
7318 1 0.409549 0.00519306 0.390941
13870 1 0.409878 0.00222019 0.391572
7319 3 0.409013 0.0124248 0.388504
7320 1 0.413115 0.0146363 0.382741
12244 1 0.349199 0.0398994 0.39922
18388 1 0.258413 0.13991 0.379138
18389 2 0.255905 0.134129 0.374855
11974 1 0.0785052 0.240291 0.398969
5281 1 0.0582016 0.255845 0.380761
5282 2 0.0655003 0.25231 0.382511
11975 3 0.0787945 0.243606 0.391752
11976 1 0.0738942 0.247486 0.387556
5283 1 0.0722332 0.248745 0.386419
20614 1 0.302594 0.298788 0.396742
20665 1 0.415018 0.280754 0.400174
4918 1 0.44131 0.277823 0.386254
4919 3 0.439541 0.279462 0.394369
20615 3 0.30054 0.306275 0.400204
9824 3 0.327277 0.343354 0.398893
9823 1 0.319835 0.343283 0.397585
14767 1 0.524618 0.368814 0.392649
14768 3 0.522133 0.37472 0.396528
18286 1 0.118601 0.704701 0.396931
2334 1 0.431836 0.752702 0.392758
19868 3 0.452612 0.750727 0.374778
19867 1 0.44698 0.75012 0.379695
2332 1 0.444328 0.750093 0.382233
2333 2 0.438438 0.750488 0.388445
20007 1 0.141065 0.779029 0.39992
20006 2 0.136327 0.784507 0.396599
20005 1 0.129587 0.784847 0.392812
16909 1 0.305485 0.80155 0.384076
16911 1 0.314138 0.803837 0.372534
16910 2 0.311015 0.803638 0.379387
14805 1 0.455726 0.853979 0.373919
14804 2 0.449146 0.853614 0.370158
17220 1 0.0819409 0.887678 0.380783
17219 3 0.0881969 0.892693 0.38111
17218 1 0.095095 0.895743 0.378506
6795 1 0.334216 0.959912 0.400057
3852 1 0.360151 0.952024 0.383736
3850 1 0.350054 0.959754 0.392957
3851 3 0.358358 0.957315 0.390164
6793 1 0.347258 0.960491 0.393328
6794 2 0.34024 0.962652 0.394684
13872 1 0.405597 0.989439 0.39338
13871 2 0.411638 0.994689 0.392119
12245 2 0.350482 0.047161 0.401504
12246 1 0.354985 0.0523962 0.405529
10788 1 0.244245 0.133778 0.428685
21325 1 0.104479 0.23947 0.425381
10712 3 0.315301 0.236096 0.408714
10713 1 0.316115 0.230256 0.413268
16654 1 0.404337 0.213352 0.426733
16655 2 0.40538 0.221063 0.424878
16656 1 0.403534 0.228865 0.423414
21326 3 0.0997271 0.244187 0.430374
10711 1 0.313425 0.24329 0.404066
11724 1 0.37288 0.257436 0.430576
5063 3 0.440658 0.271495 0.411936