ITEM: TIMESTEP
0
ITEM: NUMBER OF ATOMS
3267
ITEM: BOX BOUNDS pp pp pp
0.0000000000000000e+00 5.0000000000000000e+01
0.0000000000000000e+00 5.0000000000000000e+01
0.0000000000000000e+00 5.0000000000000000e+01
ITEM: ATOMS id type 
1 1 
2 3 
3 1 
124 1 
125 2 
126 1 
130 1 
131 2 
132 1 
196 1 
197 2 
198 1 
250 1 
251 3 
252 1 
256 1 
257 2 
258 1 
421 1 
422 3 
423 1 
436 1 
437 3 
438 1 
490 1 
491 2 
492 1 
1147 1 
1148 3 
1149 1 
1153 1 
1154 3 
1155 1 
1168 1 
1169 2 
1170 1 
1210 1 
1211 3 
1212 1 
1219 1 
1220 2 
1221 1 
1327 1 
1328 3 
1329 1 
1330 1 
1331 2 
1332 1 
1345 1 
1346 3 
1347 1 
1399 1 
1400 3 
1401 1 
1405 1 
1406 2 
1407 1 
1462 1 
1463 2 
1464 1 
1519 1 
1520 2 
1521 1 
1564 1 
1565 2 
1566 1 
1642 1 
1643 3 
1644 1 
1645 1 
1646 2 
1647 1 
1648 1 
1649 2 
1650 1 
2308 1 
2309 2 
2310 1 
2359 1 
2360 3 
2361 1 
2467 1 
2468 3 
2469 1 
2527 1 
2528 2 
2529 1 
2545 1 
2546 2 
2547 1 
2548 1 
2549 2 
2550 1 
2608 1 
2609 2 
2610 1 
3304 1 
3305 3 
3306 1 
3313 1 
3314 2 
3315 1 
3367 1 
3368 3 
3369 1 
3481 1 
3482 2 
3483 1 
3487 1 
3488 3 
3489 1 
3493 1 
3494 3 
3495 1 
3550 1 
3551 2 
3552 1 
3556 1 
3557 3 
3558 1 
3562 1 
3563 3 
3564 1 
3568 1 
3569 2 
3570 1 
3607 1 
3608 3 
3609 1 
3613 1 
3614 2 
3615 1 
3625 1 
3626 3 
3627 1 
3661 1 
3662 3 
3663 1 
3670 1 
3671 3 
3672 1 
3727 1 
3728 2 
3729 1 
3742 1 
3743 3 
3744 1 
4324 1 
4325 3 
4326 1 
4330 1 
4331 2 
4332 1 
4450 1 
4451 3 
4452 1 
4465 1 
4466 3 
4467 1 
4519 1 
4520 3 
4521 1 
4567 1 
4568 2 
4569 1 
4624 1 
4625 2 
4626 1 
4627 1 
4628 2 
4629 1 
4648 1 
4649 2 
4650 1 
4702 1 
4703 2 
4704 1 
4747 1 
4748 3 
4749 1 
4819 1 
4820 3 
4821 1 
4861 1 
4862 3 
4863 1 
4885 1 
4886 3 
4887 1 
5473 1 
5474 2 
5475 1 
5488 1 
5489 2 
5490 1 
5527 1 
5528 2 
5529 1 
5530 1 
5531 2 
5532 1 
5596 1 
5597 3 
5598 1 
5647 1 
5648 3 
5649 1 
5650 1 
5651 3 
5652 1 
5713 1 
5714 3 
5715 1 
5716 1 
5717 2 
5718 1 
5764 1 
5765 2 
5766 1 
5770 1 
5771 2 
5772 1 
5896 1 
5897 2 
5898 1 
5899 1 
5900 3 
5901 1 
5953 1 
5954 3 
5955 1 
5962 1 
5963 2 
5964 1 
5968 1 
5969 3 
5970 1 
6010 1 
6011 3 
6012 1 
6016 1 
6017 3 
6018 1 
6679 1 
6680 2 
6681 1 
6688 1 
6689 3 
6690 1 
6742 1 
6743 3 
6744 1 
6745 1 
6746 2 
6747 1 
6748 1 
6749 2 
6750 1 
6790 1 
6791 3 
6792 1 
6793 1 
6794 2 
6795 1 
6850 1 
6851 3 
6852 1 
6865 1 
6866 2 
6867 1 
6868 1 
6869 2 
6870 1 
6973 1 
6974 2 
6975 1 
6985 1 
6986 3 
6987 1 
7027 1 
7028 2 
7029 1 
7039 1 
7040 3 
7041 1 
7216 1 
7217 2 
7218 1 
7222 1 
7223 2 
7224 1 
7744 1 
7745 2 
7746 1 
7750 1 
7751 2 
7752 1 
7813 1 
7814 3 
7815 1 
7873 1 
7874 2 
7875 1 
7948 1 
7949 3 
7950 1 
8002 1 
8003 2 
8004 1 
8104 1 
8105 3 
8106 1 
8182 1 
8183 2 
8184 1 
8227 1 
8228 3 
8229 1 
8236 1 
8237 2 
8238 1 
8953 1 
8954 2 
8955 1 
8956 1 
8957 2 
8958 1 
9004 1 
9005 2 
9006 1 
9013 1 
9014 3 
9015 1 
9019 1 
9020 3 
9021 1 
9022 1 
9023 2 
9024 1 
9028 1 
9029 3 
9030 1 
9121 1 
9122 2 
9123 1 
9142 1 
9143 2 
9144 1 
9241 1 
9242 2 
9243 1 
9259 1 
9260 3 
9261 1 
9322 1 
9323 2 
9324 1 
9973 1 
9974 3 
9975 1 
9979 1 
9980 2 
9981 1 
10024 1 
10025 3 
10026 1 
10030 1 
10031 3 
10032 1 
10081 1 
10082 3 
10083 1 
10102 1 
10103 3 
10104 1 
10168 1 
10169 2 
10170 1 
10324 1 
10325 3 
10326 1 
10387 1 
10388 2 
10389 1 
10390 1 
10391 3 
10392 1 
10399 1 
10400 2 
10401 1 
10402 1 
10403 2 
10404 1 
10513 1 
10514 2 
10515 1 
11164 1 
11165 3 
11166 1 
11170 1 
11171 3 
11172 1 
11173 1 
11174 2 
11175 1 
11299 1 
11300 3 
11301 1 
11356 1 
11357 3 
11358 1 
11404 1 
11405 3 
11406 1 
11419 1 
11420 3 
11421 1 
11422 1 
11423 2 
11424 1 
11482 1 
11483 3 
11484 1 
12070 1 
12071 2 
12072 1 
12082 1 
12083 2 
12084 1 
12085 1 
12086 2 
12087 1 
12139 1 
12140 2 
12141 1 
12184 1 
12185 2 
12186 1 
12190 1 
12191 2 
12192 1 
12244 1 
12245 2 
12246 1 
12247 1 
12248 3 
12249 1 
12259 1 
12260 3 
12261 1 
12262 1 
12263 3 
12264 1 
12301 1 
12302 2 
12303 1 
12310 1 
12311 2 
12312 1 
12367 1 
12368 2 
12369 1 
12370 1 
12371 3 
12372 1 
12427 1 
12428 3 
12429 1 
12430 1 
12431 3 
12432 1 
12442 1 
12443 2 
12444 1 
12559 1 
12560 3 
12561 1 
12607 1 
12608 3 
12609 1 
13153 1 
13154 2 
13155 1 
13165 1 
13166 2 
13167 1 
13201 1 
13202 3 
13203 1 
13213 1 
13214 3 
13215 1 
13267 1 
13268 3 
13269 1 
13393 1 
13394 3 
13395 1 
13396 1 
13397 2 
13398 1 
13399 1 
13400 3 
13401 1 
13462 1 
13463 3 
13464 1 
13465 1 
13466 3 
13467 1 
13468 1 
13469 2 
13470 1 
13513 1 
13514 3 
13515 1 
13567 1 
13568 2 
13569 1 
13570 1 
13571 3 
13572 1 
13576 1 
13577 2 
13578 1 
13579 1 
13580 2 
13581 1 
14224 1 
14225 3 
14226 1 
14239 1 
14240 3 
14241 1 
14359 1 
14360 2 
14361 1 
14422 1 
14423 2 
14424 1 
14539 1 
14540 3 
14541 1 
14587 1 
14588 2 
14589 1 
14650 1 
14651 2 
14652 1 
15316 1 
15317 2 
15318 1 
15370 1 
15371 2 
15372 1 
15442 1 
15443 2 
15444 1 
15445 1 
15446 2 
15447 1 
15448 1 
15449 3 
15450 1 
15499 1 
15500 2 
15501 1 
15505 1 
15506 2 
15507 1 
15541 1 
15542 2 
15543 1 
15613 1 
15614 2 
15615 1 
15688 1 
15689 3 
15690 1 
15736 1 
15737 3 
15738 1 
16342 1 
16343 2 
16344 1 
16387 1 
16388 2 
16389 1 
16444 1 
16445 2 
16446 1 
16507 1 
16508 2 
16509 1 
16516 1 
16517 3 
16518 1 
16570 1 
16571 2 
16572 1 
16633 1 
16634 3 
16635 1 
16642 1 
16643 3 
16644 1 
16648 1 
16649 3 
16650 1 
17368 1 
17369 2 
17370 1 
17473 1 
17474 2 
17475 1 
17476 1 
17477 3 
17478 1 
17530 1 
17531 2 
17532 1 
17539 1 
17540 2 
17541 1 
17584 1 
17585 3 
17586 1 
17590 1 
17591 3 
17592 1 
17608 1 
17609 3 
17610 1 
17707 1 
17708 2 
17709 1 
17713 1 
17714 3 
17715 1 
17719 1 
17720 2 
17721 1 
17773 1 
17774 3 
17775 1 
17785 1 
17786 3 
17787 1 
17788 1 
17789 3 
17790 1 
18388 1 
18389 2 
18390 1 
18484 1 
18485 2 
18486 1 
18541 1 
18542 2 
18543 1 
18544 1 
18545 3 
18546 1 
18553 1 
18554 3 
18555 1 
18556 1 
18557 2 
18558 1 
18565 1 
18566 2 
18567 1 
18568 1 
18569 3 
18570 1 
18610 1 
18611 2 
18612 1 
18685 1 
18686 3 
18687 1 
18739 1 
18740 3 
18741 1 
18796 1 
18797 2 
18798 1 
18799 1 
18800 3 
18801 1 
18853 1 
18854 3 
18855 1 
18859 1 
18860 2 
18861 1 
19441 1 
19442 2 
19443 1 
19504 1 
19505 3 
19506 1 
19507 1 
19508 3 
19509 1 
19525 1 
19526 2 
19527 1 
19528 1 
19529 3 
19530 1 
19567 1 
19568 2 
19569 1 
19582 1 
19583 3 
19584 1 
19585 1 
19586 2 
19587 1 
19624 1 
19625 2 
19626 1 
19633 1 
19634 3 
19635 1 
19648 1 
19649 2 
19650 1 
19756 1 
19757 2 
19758 1 
19867 1 
19868 3 
19869 1 
19876 1 
19877 2 
19878 1 
19882 1 
19883 2 
19884 1 
19885 1 
19886 3 
19887 1 
19888 1 
19889 3 
19890 1 
20524 1 
20525 3 
20526 1 
20533 1 
20534 2 
20535 1 
20545 1 
20546 3 
20547 1 
20641 1 
20642 2 
20643 1 
20650 1 
20651 2 
20652 1 
20659 1 
20660 3 
20661 1 
20665 1 
20666 2 
20667 1 
20713 1 
20714 3 
20715 1 
20767 1 
20768 2 
20769 1 
20770 1 
20771 3 
20772 1 
20788 1 
20789 2 
20790 1 
20824 1 
20825 2 
20826 1 
20830 1 
20831 2 
20832 1 
20833 1 
20834 2 
20835 1 
20848 1 
20849 3 
20850 1 
20902 1 
20903 3 
20904 1 
21019 1 
21020 2 
21021 1 
46 1 
47 2 
48 1 
97 1 
98 3 
99 1 
109 1 
110 3 
111 1 
151 1 
152 2 
153 1 
220 1 
221 2 
222 1 
226 1 
227 2 
228 1 
229 1 
230 2 
231 1 
232 1 
233 2 
234 1 
334 1 
335 2 
336 1 
343 1 
344 3 
345 1 
400 1 
401 2 
402 1 
406 1 
407 3 
408 1 
514 1 
515 3 
516 1 
523 1 
524 2 
525 1 
1186 1 
1187 3 
1188 1 
1189 1 
1190 3 
1191 1 
1192 1 
1193 3 
1194 1 
1231 1 
1232 3 
1233 1 
1249 1 
1250 2 
1251 1 
1258 1 
1259 2 
1260 1 
1354 1 
1355 2 
1356 1 
1414 1 
1415 3 
1416 1 
1423 1 
1424 2 
1425 1 
1435 1 
1436 3 
1437 1 
1474 1 
1475 3 
1476 1 
1558 1 
1559 3 
1560 1 
1654 1 
1655 3 
1656 1 
2311 1 
2312 3 
2313 1 
2332 1 
2333 2 
2334 1 
2335 1 
2336 3 
2337 1 
2338 1 
2339 2 
2340 1 
2392 1 
2393 3 
2394 1 
2452 1 
2453 2 
2454 1 
2506 1 
2507 3 
2508 1 
2569 1 
2570 3 
2571 1 
2572 1 
2573 2 
2574 1 
2575 1 
2576 2 
2577 1 
2620 1 
2621 2 
2622 1 
3214 1 
3215 3 
3216 1 
3223 1 
3224 3 
3225 1 
3232 1 
3233 2 
3234 1 
3271 1 
3272 2 
3273 1 
3394 1 
3395 3 
3396 1 
3469 1 
3470 3 
3471 1 
3472 1 
3473 3 
3474 1 
3475 1 
3476 2 
3477 1 
3535 1 
3536 3 
3537 1 
3538 1 
3539 3 
3540 1 
3580 1 
3581 2 
3582 1 
3592 1 
3593 2 
3594 1 
3697 1 
3698 2 
3699 1 
3703 1 
3704 3 
3705 1 
3706 1 
3707 2 
3708 1 
3718 1 
3719 2 
3720 1 
3775 1 
3776 2 
3777 1 
4372 1 
4373 3 
4374 1 
4411 1 
4412 3 
4413 1 
4426 1 
4427 3 
4428 1 
4432 1 
4433 2 
4434 1 
4477 1 
4478 2 
4479 1 
4531 1 
4532 3 
4533 1 
4558 1 
4559 3 
4560 1 
4591 1 
4592 3 
4593 1 
4612 1 
4613 3 
4614 1 
4660 1 
4661 2 
4662 1 
4678 1 
4679 3 
4680 1 
4777 1 
4778 2 
4779 1 
4843 1 
4844 2 
4845 1 
4918 1 
4919 3 
4920 1 
5515 1 
5516 2 
5517 1 
5563 1 
5564 2 
5565 1 
5611 1 
5612 3 
5613 1 
5617 1 
5618 2 
5619 1 
5635 1 
5636 2 
5637 1 
5731 1 
5732 2 
5733 1 
5734 1 
5735 3 
5736 1 
5749 1 
5750 3 
5751 1 
5794 1 
5795 3 
5796 1 
5800 1 
5801 2 
5802 1 
5818 1 
5819 2 
5820 1 
5866 1 
5867 3 
5868 1 
5911 1 
5912 3 
5913 1 
5920 1 
5921 3 
5922 1 
5980 1 
5981 3 
5982 1 
5986 1 
5987 3 
5988 1 
5998 1 
5999 3 
6000 1 
6697 1 
6698 2 
6699 1 
6835 1 
6836 2 
6837 1 
6889 1 
6890 3 
6891 1 
7006 1 
7007 3 
7008 1 
7015 1 
7016 2 
7017 1 
7183 1 
7184 3 
7185 1 
7255 1 
7256 2 
7257 1 
7774 1 
7775 2 
7776 1 
7783 1 
7784 2 
7785 1 
7789 1 
7790 2 
7791 1 
7792 1 
7793 2 
7794 1 
7834 1 
7835 3 
7836 1 
7894 1 
7895 3 
7896 1 
7903 1 
7904 3 
7905 1 
7954 1 
7955 3 
7956 1 
7957 1 
7958 3 
7959 1 
8071 1 
8072 2 
8073 1 
8149 1 
8150 3 
8151 1 
8200 1 
8201 2 
8202 1 
8257 1 
8258 3 
8259 1 
8269 1 
8270 2 
8271 1 
8338 1 
8339 3 
8340 1 
8911 1 
8912 3 
8913 1 
8917 1 
8918 3 
8919 1 
8932 1 
8933 3 
8934 1 
9034 1 
9035 3 
9036 1 
9043 1 
9044 2 
9045 1 
9094 1 
9095 2 
9096 1 
9154 1 
9155 3 
9156 1 
9175 1 
9176 3 
9177 1 
9226 1 
9227 3 
9228 1 
9277 1 
9278 2 
9279 1 
9298 1 
9299 2 
9300 1 
9331 1 
9332 2 
9333 1 
9337 1 
9338 3 
9339 1 
9349 1 
9350 2 
9351 1 
9355 1 
9356 2 
9357 1 
9358 1 
9359 3 
9360 1 
10003 1 
10004 3 
10005 1 
10063 1 
10064 3 
10065 1 
10066 1 
10067 3 
10068 1 
10072 1 
10073 2 
10074 1 
10078 1 
10079 2 
10080 1 
10117 1 
10118 2 
10119 1 
10183 1 
10184 2 
10185 1 
10234 1 
10235 3 
10236 1 
10243 1 
10244 2 
10245 1 
10258 1 
10259 3 
10260 1 
10432 1 
10433 2 
10434 1 
10474 1 
10475 3 
10476 1 
10477 1 
10478 2 
10479 1 
10546 1 
10547 2 
10548 1 
11134 1 
11135 2 
11136 1 
11140 1 
11141 2 
11142 1 
11146 1 
11147 2 
11148 1 
11200 1 
11201 3 
11202 1 
11212 1 
11213 2 
11214 1 
11266 1 
11267 2 
11268 1 
11269 1 
11270 3 
11271 1 
11278 1 
11279 2 
11280 1 
11437 1 
11438 3 
11439 1 
11455 1 
11456 2 
11457 1 
12100 1 
12101 3 
12102 1 
12103 1 
12104 3 
12105 1 
12157 1 
12158 3 
12159 1 
12166 1 
12167 2 
12168 1 
12211 1 
12212 2 
12213 1 
12226 1 
12227 2 
12228 1 
12289 1 
12290 2 
12291 1 
12349 1 
12350 2 
12351 1 
12574 1 
12575 2 
12576 1 
12583 1 
12584 3 
12585 1 
12634 1 
12635 3 
12636 1 
12640 1 
12641 3 
12642 1 
13171 1 
13172 3 
13173 1 
13192 1 
13193 2 
13194 1 
13198 1 
13199 2 
13200 1 
13234 1 
13235 2 
13236 1 
13246 1 
13247 3 
13248 1 
13297 1 
13298 2 
13299 1 
13312 1 
13313 3 
13314 1 
13375 1 
13376 3 
13377 1 
13432 1 
13433 2 
13434 1 
13435 1 
13436 3 
13437 1 
13492 1 
13493 3 
13494 1 
13495 1 
13496 3 
13497 1 
13546 1 
13547 3 
13548 1 
13558 1 
13559 3 
13560 1 
14263 1 
14264 3 
14265 1 
14266 1 
14267 2 
14268 1 
14332 1 
14333 3 
14334 1 
14371 1 
14372 3 
14373 1 
14374 1 
14375 2 
14376 1 
14440 1 
14441 2 
14442 1 
14452 1 
14453 2 
14454 1 
14512 1 
14513 2 
14514 1 
14617 1 
14618 2 
14619 1 
14686 1 
14687 3 
14688 1 
14692 1 
14693 3 
14694 1 
15358 1 
15359 2 
15360 1 
15406 1 
15407 2 
15408 1 
15409 1 
15410 2 
15411 1 
15412 1 
15413 3 
15414 1 
15523 1 
15524 3 
15525 1 
15586 1 
15587 3 
15588 1 
15589 1 
15590 3 
15591 1 
15697 1 
15698 3 
15699 1 
15757 1 
15758 3 
15759 1 
16435 1 
16436 3 
16437 1 
16438 1 
16439 2 
16440 1 
16498 1 
16499 2 
16500 1 
16537 1 
16538 3 
16539 1 
16543 1 
16544 3 
16545 1 
16654 1 
16655 2 
16656 1 
16726 1 
16727 2 
16728 1 
17332 1 
17333 2 
17334 1 
17335 1 
17336 2 
17337 1 
17371 1 
17372 3 
17373 1 
17374 1 
17375 3 
17376 1 
17500 1 
17501 3 
17502 1 
17506 1 
17507 3 
17508 1 
17554 1 
17555 2 
17556 1 
17557 1 
17558 3 
17559 1 
17575 1 
17576 3 
17577 1 
17731 1 
17732 2 
17733 1 
17740 1 
17741 3 
17742 1 
17755 1 
17756 3 
17757 1 
17758 1 
17759 3 
17760 1 
17800 1 
17801 2 
17802 1 
18400 1 
18401 3 
18402 1 
18532 1 
18533 2 
18534 1 
18535 1 
18536 2 
18537 1 
18577 1 
18578 2 
18579 1 
18589 1 
18590 2 
18591 1 
18643 1 
18644 2 
18645 1 
18649 1 
18650 3 
18651 1 
18652 1 
18653 3 
18654 1 
18715 1 
18716 2 
18717 1 
18757 1 
18758 3 
18759 1 
18766 1 
18767 2 
18768 1 
18769 1 
18770 2 
18771 1 
18835 1 
18836 2 
18837 1 
18871 1 
18872 3 
18873 1 
18898 1 
18899 3 
18900 1 
19480 1 
19481 3 
19482 1 
19489 1 
19490 3 
19491 1 
19546 1 
19547 3 
19548 1 
19597 1 
19598 3 
19599 1 
19618 1 
19619 2 
19620 1 
19657 1 
19658 2 
19659 1 
19666 1 
19667 3 
19668 1 
19774 1 
19775 3 
19776 1 
19798 1 
19799 3 
19800 1 
19834 1 
19835 2 
19836 1 
19843 1 
19844 3 
19845 1 
19855 1 
19856 3 
19857 1 
20614 1 
20615 3 
20616 1 
20626 1 
20627 3 
20628 1 
20671 1 
20672 3 
20673 1 
20692 1 
20693 3 
20694 1 
20731 1 
20732 3 
20733 1 
20734 1 
20735 3 
20736 1 
20758 1 
20759 2 
20760 1 
20800 1 
20801 3 
20802 1 
20818 1 
20819 3 
20820 1 
20851 1 
20852 2 
20853 1 
20860 1 
20861 3 
20862 1 
20872 1 
20873 3 
20874 1 
20875 1 
20876 2 
20877 1 
20932 1 
20933 3 
20934 1 
20935 1 
20936 3 
20937 1 
20977 1 
20978 3 
20979 1 
20998 1 
20999 2 
21000 1 
21037 1 
21038 2 
21039 1 
21040 1 
21041 3 
21042 1 
21058 1 
21059 2 
21060 1 
550 1 
551 2 
552 1 
604 1 
605 3 
606 1 
610 1 
611 3 
612 1 
613 1 
614 2 
615 1 
616 1 
617 3 
618 1 
664 1 
665 3 
666 1 
667 1 
668 3 
669 1 
679 1 
680 3 
681 1 
724 1 
725 2 
726 1 
727 1 
728 3 
729 1 
730 1 
731 3 
732 1 
733 1 
734 2 
735 1 
847 1 
848 3 
849 1 
868 1 
869 2 
870 1 
916 1 
917 2 
918 1 
925 1 
926 3 
927 1 
967 1 
968 2 
969 1 
1024 1 
1025 2 
1026 1 
1099 1 
1100 3 
1101 1 
1102 1 
1103 2 
1104 1 
1105 1 
1106 3 
1107 1 
1705 1 
1706 3 
1707 1 
1759 1 
1760 3 
1761 1 
1768 1 
1769 2 
1770 1 
1804 1 
1805 3 
1806 1 
1816 1 
1817 3 
1818 1 
1825 1 
1826 3 
1827 1 
1864 1 
1865 2 
1866 1 
1876 1 
1877 2 
1878 1 
1924 1 
1925 2 
1926 1 
1939 1 
1940 2 
1941 1 
1990 1 
1991 3 
1992 1 
1996 1 
1997 3 
1998 1 
2002 1 
2003 2 
2004 1 
2110 1 
2111 3 
2112 1 
2659 1 
2660 3 
2661 1 
2707 1 
2708 3 
2709 1 
2782 1 
2783 3 
2784 1 
2839 1 
2840 2 
2841 1 
2842 1 
2843 3 
2844 1 
2845 1 
2846 2 
2847 1 
3010 1 
3011 3 
3012 1 
3784 1 
3785 3 
3786 1 
3841 1 
3842 2 
3843 1 
3844 1 
3845 2 
3846 1 
3850 1 
3851 3 
3852 1 
3856 1 
3857 2 
3858 1 
3868 1 
3869 2 
3870 1 
3925 1 
3926 3 
3927 1 
3973 1 
3974 3 
3975 1 
3979 1 
3980 2 
3981 1 
4024 1 
4025 3 
4026 1 
4030 1 
4031 3 
4032 1 
4036 1 
4037 3 
4038 1 
4048 1 
4049 2 
4050 1 
4144 1 
4145 2 
4146 1 
4204 1 
4205 2 
4206 1 
4228 1 
4229 3 
4230 1 
4288 1 
4289 2 
4290 1 
4921 1 
4922 3 
4923 1 
5041 1 
5042 3 
5043 1 
5062 1 
5063 3 
5064 1 
5065 1 
5066 3 
5067 1 
5101 1 
5102 3 
5103 1 
5128 1 
5129 3 
5130 1 
5176 1 
5177 2 
5178 1 
5242 1 
5243 2 
5244 1 
5281 1 
5282 2 
5283 1 
5290 1 
5291 2 
5292 1 
5302 1 
5303 3 
5304 1 
5407 1 
5408 2 
5409 1 
6067 1 
6068 3 
6069 1 
6076 1 
6077 2 
6078 1 
6079 1 
6080 3 
6081 1 
6130 1 
6131 3 
6132 1 
6133 1 
6134 3 
6135 1 
6145 1 
6146 3 
6147 1 
6202 1 
6203 2 
6204 1 
6256 1 
6257 2 
6258 1 
6259 1 
6260 2 
6261 1 
6262 1 
6263 3 
6264 1 
6325 1 
6326 3 
6327 1 
6427 1 
6428 3 
6429 1 
6436 1 
6437 3 
6438 1 
6568 1 
6569 2 
6570 1 
6607 1 
6608 3 
6609 1 
6625 1 
6626 2 
6627 1 
6628 1 
6629 2 
6630 1 
7261 1 
7262 2 
7263 1 
7276 1 
7277 3 
7278 1 
7282 1 
7283 2 
7284 1 
7330 1 
7331 3 
7332 1 
7342 1 
7343 3 
7344 1 
7390 1 
7391 2 
7392 1 
7456 1 
7457 3 
7458 1 
7462 1 
7463 2 
7464 1 
7528 1 
7529 2 
7530 1 
7564 1 
7565 2 
7566 1 
7582 1 
7583 2 
7584 1 
7621 1 
7622 3 
7623 1 
7636 1 
7637 3 
7638 1 
7645 1 
7646 3 
7647 1 
7690 1 
7691 3 
7692 1 
7705 1 
7706 2 
7707 1 
8404 1 
8405 2 
8406 1 
8419 1 
8420 3 
8421 1 
8470 1 
8471 3 
8472 1 
8527 1 
8528 3 
8529 1 
8533 1 
8534 3 
8535 1 
8539 1 
8540 2 
8541 1 
8545 1 
8546 2 
8547 1 
8581 1 
8582 2 
8583 1 
8599 1 
8600 3 
8601 1 
8764 1 
8765 2 
8766 1 
9424 1 
9425 2 
9426 1 
9427 1 
9428 3 
9429 1 
9430 1 
9431 3 
9432 1 
9496 1 
9497 2 
9498 1 
9508 1 
9509 3 
9510 1 
9556 1 
9557 3 
9558 1 
9622 1 
9623 3 
9624 1 
9625 1 
9626 2 
9627 1 
9928 1 
9929 3 
9930 1 
10561 1 
10562 3 
10563 1 
10567 1 
10568 2 
10569 1 
10570 1 
10571 2 
10572 1 
10630 1 
10631 3 
10632 1 
10633 1 
10634 3 
10635 1 
10741 1 
10742 3 
10743 1 
10759 1 
10760 3 
10761 1 
10801 1 
10802 2 
10803 1 
10807 1 
10808 2 
10809 1 
10816 1 
10817 2 
10818 1 
10822 1 
10823 3 
10824 1 
10870 1 
10871 3 
10872 1 
10945 1 
10946 3 
10947 1 
10948 1 
10949 2 
10950 1 
11053 1 
11054 2 
11055 1 
11065 1 
11066 3 
11067 1 
11644 1 
11645 2 
11646 1 
11722 1 
11723 2 
11724 1 
11728 1 
11729 2 
11730 1 
11767 1 
11768 2 
11769 1 
11905 1 
11906 2 
11907 1 
11959 1 
11960 3 
11961 1 
12007 1 
12008 2 
12009 1 
12661 1 
12662 2 
12663 1 
12676 1 
12677 2 
12678 1 
12685 1 
12686 2 
12687 1 
12727 1 
12728 3 
12729 1 
12733 1 
12734 2 
12735 1 
12790 1 
12791 2 
12792 1 
12805 1 
12806 3 
12807 1 
12904 1 
12905 3 
12906 1 
12907 1 
12908 2 
12909 1 
13087 1 
13088 2 
13089 1 
13096 1 
13097 3 
13098 1 
13690 1 
13691 3 
13692 1 
13756 1 
13757 2 
13758 1 
13813 1 
13814 3 
13815 1 
13867 1 
13868 2 
13869 1 
13870 1 
13871 2 
13872 1 
13873 1 
13874 2 
13875 1 
13930 1 
13931 2 
13932 1 
13990 1 
13991 2 
13992 1 
14002 1 
14003 2 
14004 1 
14068 1 
14069 2 
14070 1 
14116 1 
14117 3 
14118 1 
14119 1 
14120 2 
14121 1 
14182 1 
14183 2 
14184 1 
14767 1 
14768 3 
14769 1 
14773 1 
14774 2 
14775 1 
14779 1 
14780 2 
14781 1 
14833 1 
14834 2 
14835 1 
14881 1 
14882 3 
14883 1 
14893 1 
14894 3 
14895 1 
14908 1 
14909 2 
14910 1 
14947 1 
14948 2 
14949 1 
14953 1 
14954 2 
14955 1 
15082 1 
15083 3 
15084 1 
15139 1 
15140 2 
15141 1 
15181 1 
15182 2 
15183 1 
15247 1 
15248 2 
15249 1 
15250 1 
15251 2 
15252 1 
15865 1 
15866 3 
15867 1 
15964 1 
15965 3 
15966 1 
15973 1 
15974 3 
15975 1 
15985 1 
15986 2 
15987 1 
15988 1 
15989 2 
15990 1 
16030 1 
16031 3 
16032 1 
16045 1 
16046 3 
16047 1 
16084 1 
16085 3 
16086 1 
16090 1 
16091 3 
16092 1 
16219 1 
16220 3 
16221 1 
16264 1 
16265 2 
16266 1 
16273 1 
16274 2 
16275 1 
16816 1 
16817 3 
16818 1 
16921 1 
16922 2 
16923 1 
16942 1 
16943 2 
16944 1 
16945 1 
16946 2 
16947 1 
16948 1 
16949 3 
16950 1 
16981 1 
16982 3 
16983 1 
16999 1 
17000 2 
17001 1 
17008 1 
17009 2 
17010 1 
17041 1 
17042 2 
17043 1 
17044 1 
17045 3 
17046 1 
17101 1 
17102 2 
17103 1 
17104 1 
17105 3 
17106 1 
17113 1 
17114 2 
17115 1 
17128 1 
17129 3 
17130 1 
17164 1 
17165 3 
17166 1 
17167 1 
17168 3 
17169 1 
17173 1 
17174 3 
17175 1 
17227 1 
17228 2 
17229 1 
17248 1 
17249 2 
17250 1 
17824 1 
17825 2 
17826 1 
17881 1 
17882 2 
17883 1 
17884 1 
17885 2 
17886 1 
17890 1 
17891 2 
17892 1 
17896 1 
17897 2 
17898 1 
17908 1 
17909 3 
17910 1 
17941 1 
17942 2 
17943 1 
17947 1 
17948 3 
17949 1 
17965 1 
17966 3 
17967 1 
18010 1 
18011 2 
18012 1 
18022 1 
18023 3 
18024 1 
18124 1 
18125 2 
18126 1 
18181 1 
18182 3 
18183 1 
18184 1 
18185 3 
18186 1 
18190 1 
18191 2 
18192 1 
18301 1 
18302 2 
18303 1 
18316 1 
18317 3 
18318 1 
18328 1 
18329 3 
18330 1 
18961 1 
18962 3 
18963 1 
19033 1 
19034 3 
19035 1 
19081 1 
19082 2 
19083 1 
19087 1 
19088 3 
19089 1 
19096 1 
19097 2 
19098 1 
19099 1 
19100 2 
19101 1 
19168 1 
19169 2 
19170 1 
19201 1 
19202 3 
19203 1 
19204 1 
19205 3 
19206 1 
19219 1 
19220 3 
19221 1 
19261 1 
19262 3 
19263 1 
19279 1 
19280 3 
19281 1 
19330 1 
19331 3 
19332 1 
19342 1 
19343 3 
19344 1 
19393 1 
19394 3 
19395 1 
19402 1 
19403 3 
19404 1 
19936 1 
19937 3 
19938 1 
19948 1 
19949 2 
19950 1 
20005 1 
20006 2 
20007 1 
20122 1 
20123 3 
20124 1 
20176 1 
20177 2 
20178 1 
20236 1 
20237 2 
20238 1 
20296 1 
20297 3 
20298 1 
20344 1 
20345 3 
20346 1 
20347 1 
20348 2 
20349 1 
20365 1 
20366 3 
20367 1 
20407 1 
20408 2 
20409 1 
20464 1 
20465 3 
20466 1 
20473 1 
20474 3 
20475 1 
20485 1 
20486 2 
20487 1 
21067 1 
21068 2 
21069 1 
21139 1 
21140 2 
21141 1 
21199 1 
21200 3 
21201 1 
21259 1 
21260 2 
21261 1 
21307 1 
21308 2 
21309 1 
21325 1 
21326 3 
21327 1 
21328 1 
21329 2 
21330 1 
21430 1 
21431 3 
21432 1 
21433 1 
21434 3 
21435 1 
21448 1 
21449 3 
21450 1 
21490 1 
21491 2 
21492 1 
21493 1 
21494 3 
21495 1 
21499 1 
21500 2 
21501 1 
21556 1 
21557 3 
21558 1 
21562 1 
21563 2 
21564 1 
571 1 
572 2 
573 1 
634 1 
635 2 
636 1 
640 1 
641 2 
642 1 
652 1 
653 2 
654 1 
694 1 
695 3 
696 1 
706 1 
707 2 
708 1 
709 1 
710 3 
711 1 
712 1 
713 3 
714 1 
715 1 
716 3 
717 1 
811 1 
812 2 
813 1 
835 1 
836 2 
837 1 
892 1 
893 3 
894 1 
997 1 
998 3 
999 1 
1000 1 
1001 2 
1002 1 
1111 1 
1112 2 
1113 1 
1120 1 
1121 3 
1122 1 
1123 1 
1124 3 
1125 1 
1711 1 
1712 3 
1713 1 
1732 1 
1733 3 
1734 1 
1738 1 
1739 2 
1740 1 
1777 1 
1778 3 
1779 1 
1786 1 
1787 2 
1788 1 
1798 1 
1799 3 
1800 1 
1837 1 
1838 2 
1839 1 
1846 1 
1847 3 
1848 1 
1903 1 
1904 3 
1905 1 
1909 1 
1910 3 
1911 1 
1915 1 
1916 2 
1917 1 
1972 1 
1973 2 
1974 1 
2020 1 
2021 3 
2022 1 
2095 1 
2096 3 
2097 1 
2146 1 
2147 2 
2148 1 
2671 1 
2672 3 
2673 1 
2674 1 
2675 2 
2676 1 
2686 1 
2687 3 
2688 1 
2731 1 
2732 3 
2733 1 
2791 1 
2792 2 
2793 1 
2797 1 
2798 3 
2799 1 
2806 1 
2807 3 
2808 1 
2818 1 
2819 2 
2820 1 
2869 1 
2870 2 
2871 1 
2935 1 
2936 2 
2937 1 
2986 1 
2987 2 
2988 1 
3037 1 
3038 2 
3039 1 
3046 1 
3047 2 
3048 1 
3103 1 
3104 2 
3105 1 
3154 1 
3155 3 
3156 1 
3160 1 
3161 2 
3162 1 
3172 1 
3173 3 
3174 1 
3817 1 
3818 3 
3819 1 
3886 1 
3887 3 
3888 1 
3952 1 
3953 2 
3954 1 
4054 1 
4055 3 
4056 1 
4057 1 
4058 3 
4059 1 
4129 1 
4130 2 
4131 1 
4189 1 
4190 2 
4191 1 
4195 1 
4196 2 
4197 1 
4237 1 
4238 2 
4239 1 
4240 1 
4241 3 
4242 1 
4954 1 
4955 3 
4956 1 
4960 1 
4961 2 
4962 1 
5011 1 
5012 3 
5013 1 
5158 1 
5159 3 
5160 1 
5200 1 
5201 2 
5202 1 
5209 1 
5210 2 
5211 1 
5458 1 
5459 2 
5460 1 
6163 1 
6164 2 
6165 1 
6223 1 
6224 2 
6225 1 
6232 1 
6233 2 
6234 1 
6280 1 
6281 2 
6282 1 
6292 1 
6293 2 
6294 1 
6346 1 
6347 3 
6348 1 
6397 1 
6398 2 
6399 1 
6454 1 
6455 2 
6456 1 
6460 1 
6461 2 
6462 1 
6463 1 
6464 3 
6465 1 
6475 1 
6476 2 
6477 1 
6583 1 
6584 2 
6585 1 
6595 1 
6596 2 
6597 1 
6640 1 
6641 2 
6642 1 
6658 1 
6659 3 
6660 1 
7294 1 
7295 2 
7296 1 
7318 1 
7319 3 
7320 1 
7351 1 
7352 3 
7353 1 
7411 1 
7412 2 
7413 1 
7429 1 
7430 3 
7431 1 
7438 1 
7439 2 
7440 1 
7492 1 
7493 3 
7494 1 
7498 1 
7499 2 
7500 1 
7546 1 
7547 2 
7548 1 
7606 1 
7607 2 
7608 1 
7657 1 
7658 2 
7659 1 
7672 1 
7673 3 
7674 1 
7675 1 
7676 3 
7677 1 
7723 1 
7724 2 
7725 1 
8443 1 
8444 2 
8445 1 
8554 1 
8555 2 
8556 1 
8566 1 
8567 2 
8568 1 
8626 1 
8627 3 
8628 1 
8740 1 
8741 2 
8742 1 
8758 1 
8759 2 
8760 1 
8791 1 
8792 3 
8793 1 
8794 1 
8795 2 
8796 1 
8812 1 
8813 3 
8814 1 
8854 1 
8855 3 
8856 1 
9406 1 
9407 3 
9408 1 
9415 1 
9416 3 
9417 1 
9451 1 
9452 3 
9453 1 
9520 1 
9521 2 
9522 1 
9634 1 
9635 3 
9636 1 
9691 1 
9692 2 
9693 1 
9694 1 
9695 2 
9696 1 
9697 1 
9698 2 
9699 1 
9769 1 
9770 2 
9771 1 
9772 1 
9773 2 
9774 1 
9778 1 
9779 2 
9780 1 
9817 1 
9818 3 
9819 1 
9823 1 
9824 3 
9825 1 
9871 1 
9872 3 
9873 1 
9883 1 
9884 3 
9885 1 
9931 1 
9932 2 
9933 1 
9934 1 
9935 2 
9936 1 
10600 1 
10601 3 
10602 1 
10672 1 
10673 3 
10674 1 
10711 1 
10712 3 
10713 1 
10726 1 
10727 3 
10728 1 
10774 1 
10775 2 
10776 1 
10780 1 
10781 2 
10782 1 
10786 1 
10787 2 
10788 1 
10840 1 
10841 2 
10842 1 
10846 1 
10847 2 
10848 1 
10894 1 
10895 2 
10896 1 
10897 1 
10898 3 
10899 1 
10900 1 
10901 2 
10902 1 
10915 1 
10916 2 
10917 1 
10978 1 
10979 2 
10980 1 
11011 1 
11012 2 
11013 1 
11020 1 
11021 3 
11022 1 
11023 1 
11024 2 
11025 1 
11575 1 
11576 2 
11577 1 
11620 1 
11621 2 
11622 1 
11638 1 
11639 2 
11640 1 
11671 1 
11672 3 
11673 1 
11686 1 
11687 3 
11688 1 
11692 1 
11693 3 
11694 1 
11698 1 
11699 2 
11700 1 
11743 1 
11744 3 
11745 1 
11746 1 
11747 3 
11748 1 
11851 1 
11852 2 
11853 1 
11860 1 
11861 2 
11862 1 
11863 1 
11864 2 
11865 1 
11923 1 
11924 2 
11925 1 
11974 1 
11975 3 
11976 1 
12043 1 
12044 3 
12045 1 
12694 1 
12695 3 
12696 1 
12760 1 
12761 2 
12762 1 
12778 1 
12779 3 
12780 1 
12829 1 
12830 3 
12831 1 
12883 1 
12884 2 
12885 1 
12892 1 
12893 3 
12894 1 
12895 1 
12896 2 
12897 1 
12937 1 
12938 2 
12939 1 
13006 1 
13007 2 
13008 1 
13135 1 
13136 2 
13137 1 
13651 1 
13652 2 
13653 1 
13657 1 
13658 2 
13659 1 
13678 1 
13679 3 
13680 1 
13726 1 
13727 2 
13728 1 
13732 1 
13733 2 
13734 1 
13774 1 
13775 3 
13776 1 
13852 1 
13853 2 
13854 1 
13900 1 
13901 3 
13902 1 
13906 1 
13907 2 
13908 1 
13957 1 
13958 3 
13959 1 
14035 1 
14036 3 
14037 1 
14095 1 
14096 2 
14097 1 
14146 1 
14147 3 
14148 1 
14206 1 
14207 3 
14208 1 
14209 1 
14210 3 
14211 1 
14803 1 
14804 2 
14805 1 
14812 1 
14813 3 
14814 1 
14911 1 
14912 2 
14913 1 
14983 1 
14984 2 
14985 1 
15091 1 
15092 2 
15093 1 
15115 1 
15116 3 
15117 1 
15151 1 
15152 2 
15153 1 
15157 1 
15158 3 
15159 1 
15169 1 
15170 3 
15171 1 
15280 1 
15281 2 
15282 1 
15289 1 
15290 3 
15291 1 
15895 1 
15896 2 
15897 1 
15898 1 
15899 3 
15900 1 
15937 1 
15938 2 
15939 1 
15940 1 
15941 2 
15942 1 
15952 1 
15953 2 
15954 1 
15997 1 
15998 3 
15999 1 
16000 1 
16001 2 
16002 1 
16006 1 
16007 2 
16008 1 
16069 1 
16070 2 
16071 1 
16072 1 
16073 3 
16074 1 
16171 1 
16172 2 
16173 1 
16180 1 
16181 3 
16182 1 
16258 1 
16259 3 
16260 1 
16294 1 
16295 2 
16296 1 
16318 1 
16319 2 
16320 1 
16780 1 
16781 2 
16782 1 
16831 1 
16832 2 
16833 1 
16837 1 
16838 3 
16839 1 
16840 1 
16841 2 
16842 1 
16852 1 
16853 3 
16854 1 
16858 1 
16859 2 
16860 1 
16897 1 
16898 2 
16899 1 
16909 1 
16910 2 
16911 1 
17014 1 
17015 2 
17016 1 
17017 1 
17018 3 
17019 1 
17020 1 
17021 2 
17022 1 
17083 1 
17084 2 
17085 1 
17086 1 
17087 2 
17088 1 
17131 1 
17132 2 
17133 1 
17137 1 
17138 2 
17139 1 
17140 1 
17141 3 
17142 1 
17143 1 
17144 3 
17145 1 
17197 1 
17198 2 
17199 1 
17200 1 
17201 3 
17202 1 
17206 1 
17207 2 
17208 1 
17218 1 
17219 3 
17220 1 
17278 1 
17279 2 
17280 1 
17860 1 
17861 2 
17862 1 
17863 1 
17864 3 
17865 1 
17869 1 
17870 3 
17871 1 
17872 1 
17873 2 
17874 1 
17932 1 
17933 2 
17934 1 
17938 1 
17939 3 
17940 1 
17974 1 
17975 3 
17976 1 
17977 1 
17978 3 
17979 1 
18031 1 
18032 3 
18033 1 
18058 1 
18059 2 
18060 1 
18115 1 
18116 2 
18117 1 
18154 1 
18155 3 
18156 1 
18166 1 
18167 2 
18168 1 
18217 1 
18218 3 
18219 1 
18223 1 
18224 3 
18225 1 
18226 1 
18227 2 
18228 1 
18229 1 
18230 3 
18231 1 
18274 1 
18275 3 
18276 1 
18286 1 
18287 3 
18288 1 
18340 1 
18341 2 
18342 1 
18958 1 
18959 2 
18960 1 
18991 1 
18992 3 
18993 1 
18994 1 
18995 3 
18996 1 
18997 1 
18998 3 
18999 1 
19111 1 
19112 2 
19113 1 
19126 1 
19127 2 
19128 1 
19246 1 
19247 3 
19248 1 
19255 1 
19256 2 
19257 1 
19315 1 
19316 2 
19317 1 
19318 1 
19319 3 
19320 1 
19378 1 
19379 2 
19380 1 
19417 1 
19418 3 
19419 1 
19966 1 
19967 3 
19968 1 
19972 1 
19973 2 
19974 1 
20020 1 
20021 2 
20022 1 
20035 1 
20036 3 
20037 1 
20089 1 
20090 3 
20091 1 
20092 1 
20093 2 
20094 1 
20218 1 
20219 3 
20220 1 
20260 1 
20261 2 
20262 1 
20314 1 
20315 3 
20316 1 
20383 1 
20384 3 
20385 1 
20386 1 
20387 3 
20388 1 
20503 1 
20504 2 
20505 1 
20518 1 
20519 2 
20520 1 
21109 1 
21110 3 
21111 1 
21214 1 
21215 2 
21216 1 
21232 1 
21233 3 
21234 1 
21274 1 
21275 3 
21276 1 
21331 1 
21332 3 
21333 1 
21340 1 
21341 3 
21342 1 
21460 1 
21461 2 
21462 1 
21514 1 
21515 2 
21516 1 
21520 1 
21521 2 
21522 1 
21583 1 
21584 2 
21585 1 
21586 1 
21587 3 
21588 1 
