ITEM: TIMESTEP
60000000
ITEM: NUMBER OF ATOMS
4458
ITEM: BOX BOUNDS pp pp pp
0.0000000000000000e+00 5.0000000000000000e+01
0.0000000000000000e+00 5.0000000000000000e+01
0.0000000000000000e+00 5.0000000000000000e+01
ITEM: ATOMS id type xs ys zs
20852 2 0.175882 0.0438265 0.00312958
20853 1 0.170138 0.0430087 0.00795661
3972 1 0.196604 0.0880809 0.0296038
13432 1 0.419738 0.0606426 0.024473
13434 1 0.42881 0.0728493 0.0276878
8919 1 0.430585 0.074522 0.028072
13433 2 0.423251 0.0664458 0.0272722
8918 3 0.435336 0.0799353 0.0300353
10515 1 0.13877 0.101022 0.0208841
10514 2 0.131637 0.0998223 0.0164695
10513 1 0.125255 0.0975377 0.0165819
3971 3 0.201231 0.0928157 0.0243622
3970 1 0.208158 0.0951289 0.0278001
15798 1 0.210738 0.0961703 0.0292173
20144 2 0.221311 0.11729 0.0272363
20143 1 0.220086 0.109079 0.0290617
20145 1 0.219128 0.118496 0.0192322
15796 1 0.219639 0.106263 0.0297986
3584 3 0.495424 0.14407 0.0251405
3583 1 0.489504 0.143259 0.0189137
11073 1 0.290889 0.241409 0.0285755
13376 3 0.197762 0.257788 0.0155685
13377 1 0.205542 0.25539 0.017398
6455 2 0.188356 0.268739 0.00317734
6456 1 0.192217 0.264389 0.0084745
13375 1 0.193385 0.26248 0.0106343
9014 3 0.372386 0.255033 0.0068424
6852 1 0.362762 0.25905 0.00974279
6851 3 0.355908 0.261152 0.0152528
9015 1 0.365108 0.258072 0.00850093
6850 1 0.348554 0.265104 0.0144577
17043 1 0.381391 0.250154 0.00253276
9013 1 0.37888 0.251051 0.00384861
17041 1 0.394877 0.249622 0.00144189
14317 1 0.126989 0.285844 0.0293291
6454 1 0.185225 0.276654 0.00495131
18940 1 0.352851 0.281883 0.0106602
12805 1 0.353876 0.292311 0.0135819
12806 3 0.353985 0.299821 0.0115316
18941 3 0.354076 0.278355 0.00410055
18942 1 0.34915 0.274331 0.000498172
2550 1 0.490647 0.279709 0.00463347
2549 2 0.493719 0.285678 0.00739765
2548 1 0.499942 0.28779 0.012227
12807 1 0.354539 0.306536 0.0067523
1251 1 0.0611142 0.341306 0.00640489
1250 2 0.0642871 0.347054 0.00108003
4004 2 0.244241 0.347104 0.0246797
4416 1 0.237663 0.353968 0.0172244
4005 1 0.239456 0.35207 0.0194983
4415 3 0.2343 0.359433 0.0112195
1759 1 0.495884 0.335168 0.000957109
7489 1 0.237356 0.384354 0.0145772
7490 3 0.237166 0.377226 0.0105415
7491 1 0.236831 0.369323 0.0111179
4414 1 0.236514 0.366422 0.0110748
17396 3 0.373048 0.386667 0.0255673
17395 1 0.366454 0.389597 0.0266473
17397 1 0.379323 0.382295 0.027848
19625 2 0.417964 0.368359 0.026439
19626 1 0.412113 0.368889 0.0210041
132 1 0.484814 0.379914 0.00314318
12087 1 0.459877 0.420075 0.00501435
4191 1 0.353489 0.447569 0.0170076
4190 2 0.347315 0.443462 0.0156313
4189 1 0.347427 0.440578 0.00872276
12086 2 0.462954 0.425921 0.00140046
11769 1 0.025087 0.460947 0.0309069
11065 1 0.364812 0.535341 0.0199356
11066 3 0.357804 0.534518 0.0242361
11067 1 0.355389 0.539524 0.0310985
15300 1 0.0707532 0.575754 0.0264523
15299 2 0.0723567 0.583791 0.0265102
15298 1 0.071808 0.591794 0.0251686
17577 1 0.181661 0.60386 0.0230534
1519 1 0.228098 0.601117 0.00584844
17576 3 0.181997 0.606845 0.0156423
17575 1 0.184449 0.60845 0.00876353
1521 1 0.215227 0.60807 0.00913264
1520 2 0.222079 0.606348 0.00570729
19439 2 0.0829393 0.643849 0.00185831
19440 1 0.0809676 0.651994 0.000675369
12907 1 0.11795 0.666266 0.0170104
12908 2 0.121779 0.668924 0.0111854
12909 1 0.128814 0.668263 0.00675276
5986 1 0.131331 0.668716 0.00435145
15498 1 0.11473 0.710921 0.00835248
15497 2 0.112727 0.710641 0.00135147
4486 1 0.115805 0.711011 0.0111765
4487 2 0.118858 0.71074 0.0193221
4488 1 0.120359 0.718418 0.0210821
19603 1 0.121064 0.721497 0.0219957
19604 2 0.122585 0.729565 0.0249429
19605 1 0.126595 0.733806 0.0304499
17056 1 0.294565 0.847122 0.0084419
16582 1 0.297397 0.866413 0.00975359
17057 3 0.296868 0.855859 0.00912952
16583 2 0.298425 0.874917 0.0120282
17058 1 0.297345 0.863926 0.0092837
16584 1 0.298729 0.8831 0.00964269
20719 1 0.298626 0.885896 0.00919283
20720 3 0.299634 0.89338 0.00925561
20721 1 0.302396 0.900855 0.0103977
16635 1 0.40526 0.937215 0.020739
16634 3 0.408091 0.931027 0.0231294
16633 1 0.413705 0.9248 0.0250937
19261 1 0.404059 0.939702 0.019155
19263 1 0.401299 0.954616 0.0175023
19262 3 0.40201 0.946471 0.0157252
667 1 0.296396 0.977174 0.0239903
10842 1 0.0355249 0.0247013 0.0617383
18853 1 0.33406 0.0256571 0.0563653
5648 3 0.497943 0.029421 0.0516219
21528 1 0.528295 0.0135247 0.0529988
18855 1 0.333116 0.036834 0.0454909
18854 3 0.335336 0.0327097 0.0537198
11419 1 0.401332 0.0367927 0.0513895
11420 3 0.407325 0.0412586 0.048223
19888 1 0.4288 0.0577177 0.0586147
8742 1 0.427469 0.0568174 0.0561966
11421 1 0.413875 0.0472584 0.0497951
8740 1 0.416308 0.0495298 0.0500977
8741 2 0.422952 0.0545803 0.049836
5647 1 0.489663 0.0323255 0.0498189
5649 1 0.505376 0.0307759 0.0544171
8917 1 0.439334 0.0863 0.0320844
9885 1 0.440752 0.0884662 0.0325318
15797 2 0.217679 0.0999704 0.0322772
20660 3 0.398484 0.110886 0.0518472
20659 1 0.390109 0.110098 0.0519873
19442 2 0.431943 0.0959442 0.0499116
13465 1 0.409291 0.107604 0.0511875
20661 1 0.406773 0.10853 0.0513437
13466 3 0.417389 0.105264 0.051305
19441 1 0.425576 0.0997751 0.0508491
13467 1 0.423246 0.101129 0.0505652
9884 3 0.44485 0.0947528 0.0352082
9883 1 0.440456 0.0945245 0.0414464
19443 1 0.438377 0.0948379 0.0439349
16255 1 0.439644 0.151444 0.0628145
3585 1 0.493892 0.139899 0.0328243
9894 1 0.493128 0.138699 0.0352787
9892 1 0.494924 0.12824 0.045507
9893 2 0.491931 0.134277 0.041404
7281 1 0.266149 0.235427 0.0432554
7279 1 0.280567 0.23588 0.0387021
7280 2 0.273353 0.235694 0.0421063
11071 1 0.283139 0.236608 0.0377765
11072 2 0.290206 0.236905 0.0364062
21499 1 0.017395 0.293494 0.0331886
21500 2 0.0177967 0.302231 0.0336317
14318 2 0.124337 0.290917 0.0344845
14319 1 0.12602 0.29589 0.0412015
21501 1 0.012495 0.308956 0.0323969
9935 2 0.0810337 0.329508 0.0603748
20286 1 0.338161 0.32956 0.0378567
11083 1 0.337491 0.326604 0.0368649
11085 1 0.333644 0.312136 0.0326385
11084 3 0.334416 0.319093 0.0340115
17332 1 0.0457745 0.348012 0.0362309
17333 2 0.0456601 0.351405 0.0442451
16942 1 0.0472878 0.355387 0.0538745
17334 1 0.0472517 0.354277 0.0507323
16943 2 0.0462773 0.357758 0.0615138
9934 1 0.086144 0.333848 0.0581841
4003 1 0.244755 0.344504 0.0321062
20285 3 0.339292 0.335844 0.0401792
15880 1 0.346495 0.344453 0.0404024
20284 1 0.344947 0.341972 0.0409327
15881 3 0.352461 0.350221 0.039594
15882 1 0.359704 0.354159 0.0370581
19624 1 0.419738 0.364944 0.032457
11767 1 0.0309586 0.453217 0.041802
8911 1 0.0438245 0.445895 0.0534654
8912 3 0.037984 0.445695 0.0477301
8913 1 0.0330478 0.451118 0.0433342
2708 3 0.00950138 0.480397 0.04015
2707 1 0.0138421 0.474178 0.0377883
11768 2 0.0270739 0.45907 0.038347
2709 1 0.00536817 0.48741 0.0402515
222 1 0.0578516 0.66117 0.04159
220 1 0.0540489 0.672624 0.0321001
221 2 0.0571456 0.668476 0.0374655
2277 1 0.00115987 0.708993 0.0613469
10810 1 0.00377903 0.708397 0.0600468
10812 1 0.0178196 0.710745 0.0524182
10811 3 0.0113644 0.708426 0.0571019
2545 1 0.0135696 0.767431 0.0361221
2546 2 0.0208597 0.76649 0.0383642
2547 1 0.0279674 0.766942 0.0359859
5598 1 0.232857 0.765657 0.040719
5597 3 0.225027 0.761929 0.0398616
5596 1 0.2186 0.757971 0.0431513
6076 1 0.00641831 0.837839 0.0534719
6078 1 0.00472203 0.845148 0.0441869
6077 2 0.00191746 0.84279 0.0511346
669 1 0.294324 0.969142 0.0381692
668 3 0.298002 0.973921 0.0317335
10840 1 0.0337547 0.0125826 0.0732912
10841 2 0.0362995 0.0182866 0.0673298
19889 3 0.431531 0.0599892 0.0658848
8764 1 0.205221 0.0814643 0.094364
19890 1 0.438332 0.0609913 0.0723115
6739 1 0.351713 0.132777 0.0942611
20176 1 0.455204 0.136247 0.0737587
20177 2 0.452078 0.133807 0.0804867
20178 1 0.44882 0.133848 0.0876388
12246 1 0.215395 0.166981 0.0646876
12245 2 0.220247 0.165538 0.070125
12244 1 0.225551 0.161347 0.0727668
16256 2 0.445766 0.153645 0.0682618
10422 1 0.462079 0.168456 0.0839425
10420 1 0.453563 0.158242 0.0744334
10421 2 0.458788 0.163241 0.0781728
16257 1 0.451503 0.156652 0.0725073
20742 1 0.350361 0.208432 0.0773245
20740 1 0.35996 0.221168 0.0745824
20741 3 0.356308 0.214226 0.0771228
9936 1 0.0790449 0.323472 0.0636528
16944 1 0.0491893 0.358484 0.0691591
10326 1 0.0507161 0.35865 0.07228
10325 3 0.0550255 0.35751 0.0792045
10324 1 0.056093 0.350615 0.0835762
15756 1 0.0816293 0.362728 0.0886788
15755 3 0.0759689 0.367374 0.0869145
15754 1 0.0698257 0.372079 0.0894894
15866 3 0.452643 0.540491 0.0804815
15867 1 0.450754 0.533978 0.0761575
15865 1 0.44598 0.544465 0.0827799
14006 2 0.216841 0.586442 0.0852274
14005 1 0.212735 0.593029 0.0820483
14007 1 0.224272 0.583067 0.0827235
19081 1 0.239932 0.737286 0.0918903
14882 3 0.333088 0.953492 0.0946529
14881 1 0.327304 0.951557 0.0895746
4144 1 0.524091 0.0591953 0.119264
4145 2 0.52629 0.0515286 0.118487
8765 2 0.203617 0.0772526 0.100956
8766 1 0.202506 0.0742093 0.10789
1107 1 0.357709 0.0807413 0.124211
1106 3 0.353692 0.0845925 0.119414
1105 1 0.347863 0.0901228 0.116851
10402 1 0.522762 0.0620207 0.119534
10403 2 0.519407 0.0699987 0.120089
3744 1 0.510811 0.0772704 0.119251
10404 1 0.513778 0.0756808 0.119855
3743 3 0.503631 0.0824407 0.118477
3742 1 0.499612 0.0837246 0.110925
13494 1 0.208443 0.104264 0.119122
13493 3 0.214205 0.101497 0.124828
3850 1 0.208482 0.120234 0.12446
17355 1 0.270363 0.143022 0.111283
17354 3 0.273359 0.134504 0.110639
17353 1 0.273475 0.127057 0.110511
6741 1 0.353032 0.145142 0.10152
6740 2 0.348294 0.139998 0.0970027
13881 1 0.513126 0.185652 0.0973905
13880 2 0.517981 0.189261 0.102619
13879 1 0.524961 0.190377 0.103093
19968 1 0.235237 0.662776 0.101533
19967 3 0.232896 0.665681 0.108423
19966 1 0.233229 0.668922 0.11615
16945 1 0.233599 0.670126 0.118976
16853 3 0.186622 0.746828 0.125406
16854 1 0.184507 0.73918 0.1254
16852 1 0.187151 0.754551 0.122347
17559 1 0.238695 0.734394 0.108965
17558 3 0.240758 0.734534 0.116212
19083 1 0.237753 0.734791 0.106067
19082 2 0.23525 0.73726 0.0978862
17557 1 0.241772 0.731024 0.122833
2529 1 0.319566 0.756364 0.125353
10843 1 0.0451838 0.766878 0.113231
10844 3 0.0453191 0.774304 0.109692
10845 1 0.0424077 0.774585 0.103028
17207 2 0.147188 0.797307 0.11356
17206 1 0.146531 0.790211 0.113676
17208 1 0.145835 0.805081 0.109817
4036 1 0.145719 0.808089 0.108372
4037 3 0.147217 0.815153 0.105286
4038 1 0.142905 0.819591 0.100417
7218 1 0.122907 0.892355 0.116525
7217 2 0.125375 0.885677 0.120929
7216 1 0.127199 0.879672 0.12531
258 1 0.339752 0.936204 0.115676
1011 1 0.513386 0.933597 0.125165
1010 2 0.505917 0.936871 0.123057
14883 1 0.334964 0.947909 0.100205
256 1 0.335462 0.94578 0.102473
257 2 0.337307 0.940937 0.109146
2718 1 0.496658 0.943156 0.125202
1009 1 0.499275 0.941615 0.124067
11485 1 0.465555 0.00661404 0.129678
11486 2 0.473004 0.00431606 0.133198
15434 3 0.243721 0.0806328 0.152504
15433 1 0.235033 0.0789404 0.151146
3851 3 0.203408 0.119888 0.131598
13492 1 0.220823 0.100159 0.130245
7464 1 0.238487 0.102039 0.137996
7463 2 0.229973 0.100874 0.135877
7462 1 0.222962 0.10046 0.131823
17871 1 0.241962 0.101926 0.138826
17870 3 0.249783 0.100633 0.140068
17869 1 0.256146 0.102325 0.14343
11961 1 0.381858 0.102042 0.157028
3852 1 0.205079 0.125278 0.138112
4680 1 0.0207646 0.219298 0.14935
4679 3 0.0161345 0.219754 0.154856
7732 1 0.34102 0.227034 0.153934
18702 1 0.52628 0.248122 0.139488
18701 2 0.529857 0.256626 0.139849
1433 2 0.339887 0.281038 0.146476
1434 1 0.342798 0.275662 0.150671
1432 1 0.34356 0.286478 0.143034
12609 1 0.171265 0.308068 0.156923
1848 1 0.328701 0.330384 0.140728
1847 3 0.321452 0.333516 0.142967
1846 1 0.316919 0.337482 0.146863
20424 1 0.244842 0.382298 0.144941
20423 2 0.249354 0.387098 0.140625
20422 1 0.257231 0.390354 0.141457
9366 1 0.183373 0.689535 0.128948
9365 2 0.186503 0.684712 0.135503
9364 1 0.183745 0.679051 0.141325
12774 1 0.21518 0.696128 0.137291
12773 3 0.209547 0.696864 0.132465
16946 2 0.233951 0.672201 0.126567
16947 1 0.229897 0.67672 0.132091
12772 1 0.201519 0.699171 0.134789
12583 1 0.15497 0.787446 0.144051
2 3 0.305588 0.773319 0.137173
1 1 0.297343 0.776007 0.137849
9508 1 0.294891 0.778071 0.138889
9509 3 0.287186 0.783745 0.137827
3 1 0.311096 0.767318 0.136006
9510 1 0.281014 0.786353 0.140369
2528 2 0.31869 0.760519 0.131709
2527 1 0.312748 0.765242 0.135348
12585 1 0.150512 0.794779 0.133873
12584 3 0.153039 0.788076 0.137372
19508 3 0.130632 0.870237 0.132266
19509 1 0.131003 0.86238 0.134341
19507 1 0.128163 0.877489 0.127118
3997 1 0.446696 0.962538 0.154084
16821 1 0.484966 0.952649 0.135417
2716 1 0.486575 0.950378 0.133448
2717 2 0.490123 0.945821 0.128504
16819 1 0.48204 0.963965 0.14329
16820 3 0.480579 0.956655 0.139857
10372 1 0.482477 0.966249 0.144423
8599 1 0.279228 0.98461 0.131715
8600 3 0.275186 0.98851 0.137373
8601 1 0.271363 0.994023 0.141767
3999 1 0.450687 0.975763 0.145349
3998 2 0.449062 0.969928 0.150884
10374 1 0.482568 0.98178 0.147372
11628 1 0.481459 0.984555 0.147059
10373 2 0.48384 0.97415 0.147157
11487 1 0.47524 0.998985 0.138545
11627 3 0.478413 0.991828 0.14599
11626 1 0.476418 0.996734 0.14046
15435 1 0.248129 0.0816028 0.158841
19250 2 0.251291 0.0843978 0.16895
19249 1 0.249526 0.0821219 0.161294
19251 1 0.254173 0.0815278 0.175717
11959 1 0.378061 0.110168 0.169372
11960 3 0.379921 0.108019 0.16215
11905 1 0.101793 0.143088 0.171682
11906 2 0.101292 0.146788 0.164448
14587 1 0.045621 0.162251 0.178075
14588 2 0.0493737 0.157559 0.183415
11907 1 0.103734 0.153885 0.161945
4725 1 0.356994 0.211301 0.174733
4678 1 0.0132686 0.218425 0.161727
7734 1 0.34823 0.222452 0.164337
4723 1 0.348422 0.220393 0.165912
4724 2 0.351318 0.215556 0.171372
7733 3 0.346498 0.228382 0.160701
12149 2 0.514862 0.271364 0.172448
12150 1 0.508378 0.265801 0.172182
13406 2 0.0976125 0.281061 0.159193
13405 1 0.0974698 0.287885 0.162255
13407 1 0.0988042 0.273037 0.158954
19878 1 0.400721 0.292512 0.160087
19877 2 0.406607 0.293842 0.164257
19876 1 0.410474 0.293354 0.1717
12148 1 0.521732 0.273933 0.175585
12608 3 0.174536 0.314289 0.159684
12607 1 0.173182 0.321582 0.160508
18448 1 0.180019 0.482048 0.178618
18449 2 0.182982 0.489923 0.179754
18450 1 0.186105 0.49414 0.174152
21325 1 0.529236 0.502171 0.171662
21327 1 0.525772 0.505499 0.185758
21326 3 0.526523 0.503705 0.178066
9144 1 0.0138364 0.555157 0.187004
1120 1 0.370201 0.696557 0.177178
1121 3 0.377786 0.69393 0.176492
1122 1 0.384393 0.693436 0.174852
20908 1 0.101793 0.707679 0.159307
20910 1 0.107198 0.711219 0.173751
20909 3 0.105334 0.710016 0.16598
9498 1 0.418215 0.753371 0.175728
19774 1 0.428684 0.76701 0.184174
9496 1 0.426737 0.765171 0.182931
9497 2 0.421515 0.759958 0.179469
19775 3 0.434898 0.771049 0.18802
9032 2 0.49938 0.907361 0.162463
9033 1 0.506016 0.901989 0.162742
9031 1 0.499654 0.914212 0.164905
18055 1 0.499698 0.917136 0.166119
18056 2 0.500886 0.924016 0.169446
19461 1 0.50162 0.933482 0.17292
18057 1 0.501306 0.9308 0.171845
19460 3 0.501351 0.940695 0.175156
19459 1 0.503253 0.948851 0.178834
611 3 0.0601666 0.148748 0.197034
10562 3 0.0746313 0.148629 0.210201
612 1 0.0662157 0.148043 0.203246
10563 1 0.0685995 0.14827 0.205174
14589 1 0.0535163 0.153149 0.189663
610 1 0.0557269 0.152043 0.191833
10561 1 0.0782952 0.152931 0.21609
7791 1 0.0799104 0.155146 0.217916
1354 1 0.142875 0.16835 0.203687
1355 2 0.140237 0.163298 0.208639
1356 1 0.136937 0.160626 0.213961
5454 1 0.481057 0.23271 0.199767
5452 1 0.495917 0.228968 0.198371
5453 2 0.488508 0.233045 0.199637
7351 1 0.0905067 0.407664 0.208205
7352 3 0.0914089 0.409322 0.200251
7353 1 0.0948062 0.413353 0.193116
3954 1 0.162328 0.444141 0.194599
3953 2 0.164648 0.447858 0.202121
227 2 0.163253 0.465744 0.206895
228 1 0.160266 0.473156 0.209317
3952 1 0.164767 0.45545 0.203804
226 1 0.164352 0.45851 0.204425
9142 1 0.0144216 0.550193 0.201925
9143 2 0.0149737 0.552329 0.194306
5714 3 0.0738167 0.559618 0.209195
5715 1 0.0753223 0.553422 0.214803
5713 1 0.0705228 0.563011 0.201591
7666 1 0.306629 0.578884 0.214636
7667 2 0.314516 0.576852 0.211888
7668 1 0.317677 0.579412 0.204948
16030 1 0.00302449 0.664705 0.196403
13006 1 0.218112 0.660122 0.201199
13007 2 0.223439 0.655801 0.203394
13008 1 0.230955 0.655768 0.205485
20463 1 0.212499 0.668728 0.193659
20462 3 0.213886 0.676055 0.194173
20461 1 0.216723 0.68338 0.193737
694 1 0.397628 0.674905 0.217896
20504 2 0.397708 0.669037 0.208993
20505 1 0.392729 0.666869 0.203525
20503 1 0.397994 0.673454 0.2152
15091 1 0.206859 0.718378 0.216578
15093 1 0.215054 0.707482 0.218875
17016 1 0.216513 0.704836 0.217628
17015 2 0.220665 0.699153 0.217251
8530 1 0.00329661 0.761921 0.215508
8532 1 0.0130887 0.769228 0.205036
8531 3 0.0109894 0.765203 0.211789
20832 1 0.290699 0.769027 0.202367
20831 2 0.296375 0.763932 0.197848
20830 1 0.302569 0.760092 0.197899
12641 3 0.375502 0.773544 0.216226
12642 1 0.380193 0.774775 0.209387
19776 1 0.43743 0.775138 0.194702
19161 1 0.0264222 0.940557 0.207534
3662 3 0.0274412 0.968805 0.217038
19159 1 0.035361 0.951642 0.213186
19160 3 0.0317124 0.944827 0.21277
3661 1 0.0298806 0.974481 0.213056
406 1 0.240686 0.992973 0.213531
407 3 0.247533 0.994077 0.210246
408 1 0.250071 0.999807 0.205749
7790 2 0.0831495 0.159869 0.222309
7789 1 0.0825366 0.164046 0.230215
152 2 0.0302879 0.227579 0.243535
151 1 0.0282775 0.229899 0.236635
153 1 0.0358552 0.225683 0.247784
329 3 0.329505 0.26463 0.229566
328 1 0.330438 0.264794 0.236477
330 1 0.332005 0.262196 0.221753
10635 1 0.371148 0.306692 0.22136
10634 3 0.379156 0.309114 0.222043
5176 1 0.404948 0.304624 0.229039
5178 1 0.388228 0.306882 0.226862
5177 2 0.396544 0.305585 0.228818
10633 1 0.385621 0.307428 0.225863
1654 1 0.0463291 0.360446 0.231834
1656 1 0.0416988 0.352894 0.241042
1655 3 0.0473269 0.357408 0.240248
5766 1 0.147307 0.393643 0.244331
5764 1 0.153932 0.405199 0.239817
5765 2 0.153183 0.397775 0.241654
9960 1 0.438621 0.571826 0.240614
9958 1 0.427726 0.580698 0.238138
9959 3 0.433246 0.576064 0.23701
16826 3 0.462226 0.663166 0.241743
16827 1 0.4612 0.657523 0.236676
15179 2 0.212623 0.692015 0.247727
1399 1 0.221919 0.689718 0.224525
17014 1 0.221413 0.692156 0.22277
1401 1 0.224698 0.675673 0.234343
1400 3 0.223394 0.682896 0.230275
696 1 0.392465 0.67934 0.234745
695 3 0.395297 0.680359 0.225674
16825 1 0.462899 0.670663 0.244514
5635 1 0.181932 0.711793 0.229894
5636 2 0.18197 0.72024 0.229669
15180 1 0.217715 0.698381 0.245652
15092 2 0.210544 0.713713 0.22161
5637 1 0.18758 0.726098 0.229646
21070 1 0.219521 0.700914 0.244549
21071 2 0.222428 0.706733 0.240149
21072 1 0.222401 0.714339 0.236014
13854 1 0.381933 0.766831 0.240497
13852 1 0.377041 0.771171 0.226774
13853 2 0.377678 0.76931 0.233569
12640 1 0.376602 0.771804 0.223959
20374 1 0.247314 0.846185 0.247861
14036 3 0.247032 0.878421 0.228228
20375 3 0.240476 0.848678 0.251309
14003 2 0.234767 0.891168 0.231897
14002 1 0.230931 0.896212 0.237584
14037 1 0.24134 0.882885 0.228567
14004 1 0.23917 0.885379 0.229328
14035 1 0.25276 0.879119 0.235815
16170 1 0.366556 0.911233 0.250818
16169 3 0.359851 0.913197 0.247724
3663 1 0.0255347 0.962406 0.222247
642 1 0.0216982 0.0079033 0.26333
641 2 0.029009 0.00937482 0.266347
640 1 0.0358843 0.0124195 0.269237
13571 3 0.0462943 0.0153671 0.272448
13570 1 0.0388168 0.0130589 0.27026
15897 1 0.0551053 0.0217546 0.275342
13572 1 0.0529018 0.0202891 0.275298
15896 2 0.0627615 0.0263524 0.276403
15895 1 0.0702129 0.0271521 0.278542
823 1 0.402578 0.0235131 0.274983
20401 1 0.401155 0.0218983 0.277253
825 1 0.414895 0.0239124 0.26755
824 2 0.408031 0.027041 0.269384
20715 1 0.235007 0.0577176 0.265118
20714 3 0.22893 0.0599513 0.258945
9009 1 0.31177 0.0417102 0.278123
9007 1 0.322947 0.0509055 0.281974
9008 2 0.317832 0.0455319 0.279867
10547 2 0.358866 0.0601951 0.274671
10546 1 0.365169 0.057661 0.270822
12168 1 0.0283947 0.0894386 0.278919
20713 1 0.22197 0.0614847 0.255882
10548 1 0.353215 0.06583 0.276458
2986 1 0.181703 0.19536 0.25618
2987 2 0.175206 0.197989 0.258839
8854 1 0.175706 0.20618 0.265669
2988 1 0.175841 0.203799 0.263884
8855 3 0.17591 0.212477 0.270971
8856 1 0.171868 0.217985 0.276329
11974 1 0.061886 0.372174 0.270099
5283 1 0.044193 0.371642 0.274771
11976 1 0.0466204 0.371833 0.272886
5282 2 0.0391227 0.370761 0.280133
11975 3 0.0545324 0.371073 0.268339
5281 1 0.0325547 0.374264 0.284151
17488 1 0.521485 0.381099 0.267097
17489 2 0.521366 0.387311 0.271744
17490 1 0.518192 0.393362 0.275805
15379 1 0.529667 0.412755 0.282586
21588 1 0.181238 0.619513 0.282216
18685 1 0.204456 0.633858 0.277272
18686 3 0.20006 0.626544 0.280557
18687 1 0.198551 0.619439 0.279744
4826 3 0.329077 0.644661 0.269081
4825 1 0.33065 0.650848 0.274206
4827 1 0.331715 0.638531 0.264312
6202 1 0.138341 0.677544 0.258615
16171 1 0.147815 0.681575 0.268659
16172 2 0.148804 0.685024 0.276058
6204 1 0.14747 0.680173 0.265761
6203 2 0.147163 0.678152 0.258108
16173 1 0.151398 0.693529 0.277166
15178 1 0.208584 0.687682 0.252856
753 1 0.491988 0.745844 0.282455
16287 1 0.50396 0.767548 0.272317
16286 2 0.499072 0.769954 0.279108
5770 1 0.326458 0.814513 0.274471
5771 2 0.319703 0.815244 0.278807
5772 1 0.31309 0.810579 0.277444
20376 1 0.241146 0.847067 0.260072
19248 1 0.251746 0.834893 0.259078
19246 1 0.265362 0.835514 0.264274
19247 3 0.259677 0.835718 0.258717
15991 1 0.253059 0.939317 0.265528
16168 1 0.357585 0.918275 0.253458
15993 1 0.248996 0.954251 0.265551
15992 3 0.252025 0.946719 0.264634
5530 1 0.178629 0.00268733 0.285255
5531 2 0.186119 0.00700863 0.288208
5532 1 0.187539 0.0139827 0.285007
20402 3 0.398336 0.0207441 0.284653
20403 1 0.396826 0.0228586 0.292832
12167 2 0.0332109 0.0852501 0.284591
12166 1 0.0329945 0.085417 0.292776
13397 2 0.216951 0.135072 0.303376
13398 1 0.215853 0.139846 0.309224
13396 1 0.219989 0.133251 0.295648
4591 1 0.42208 0.174995 0.305771
4593 1 0.4293 0.172057 0.291863
4592 3 0.427309 0.17326 0.300574
2686 1 0.129589 0.195892 0.312521
9279 1 0.143353 0.20583 0.305485
2687 3 0.13669 0.200165 0.310557
2688 1 0.141911 0.204453 0.306435
9278 2 0.149339 0.211891 0.302485
17586 1 0.212596 0.192665 0.315105
9277 1 0.154883 0.214277 0.298154
18998 3 0.475209 0.257189 0.297105
18999 1 0.470655 0.259246 0.291083
18997 1 0.4733 0.256976 0.30452
18191 2 0.0229863 0.335251 0.312013
18190 1 0.0294225 0.338556 0.308756
12310 1 0.423512 0.374894 0.284554
12311 2 0.416675 0.371026 0.284589
13813 1 0.415058 0.381125 0.287931
12312 1 0.4152 0.377945 0.286442
13814 3 0.416102 0.388799 0.291414
13815 1 0.415893 0.39723 0.292694
8941 1 0.528943 0.414608 0.285369
8942 3 0.526401 0.416976 0.292875
8943 1 0.524639 0.41382 0.299956
18801 1 0.32796 0.452852 0.311752
18799 1 0.332302 0.465271 0.306217
18800 3 0.328102 0.457489 0.305962
12213 1 0.413387 0.503433 0.298561
12211 1 0.406778 0.511903 0.297132
12212 2 0.411884 0.510176 0.301515
2773 1 0.124511 0.604288 0.294028
2774 3 0.117056 0.605806 0.29123
2775 1 0.117074 0.609486 0.284649
21587 3 0.17749 0.6246 0.28599
21586 1 0.177579 0.631938 0.289424
1974 1 0.177575 0.634721 0.290648
1972 1 0.172341 0.647165 0.300807
1973 2 0.17479 0.641884 0.294573
13497 1 0.365893 0.693762 0.293422
13496 3 0.368747 0.696114 0.301413
18530 2 0.477305 0.692879 0.290842
18529 1 0.482673 0.688106 0.287075
13495 1 0.370059 0.69894 0.308749
18531 1 0.476802 0.698246 0.29622
752 2 0.48866 0.749343 0.288402
225 1 0.485781 0.754202 0.299244
751 1 0.486398 0.753037 0.296732
224 2 0.483443 0.758383 0.305458
223 1 0.477698 0.762304 0.310115
16285 1 0.495036 0.773078 0.285961
16656 1 0.511419 0.767197 0.309316
16655 2 0.513253 0.773353 0.315134
7548 1 0.0234378 0.811333 0.31042
10756 1 0.356889 0.806997 0.294114
10758 1 0.352298 0.791933 0.293109
10757 3 0.356267 0.798895 0.292505
9314 3 0.418595 0.814414 0.30136
9315 1 0.418557 0.807362 0.297054
7547 2 0.0245693 0.81883 0.312849
14239 1 0.0272343 0.829031 0.310443
7546 1 0.0265188 0.826184 0.310966
14241 1 0.0275649 0.842491 0.308302
14240 3 0.0304169 0.835686 0.309953
10782 1 0.163452 0.841216 0.297451
10781 2 0.170867 0.840388 0.294664
10780 1 0.175383 0.842331 0.288385
9313 1 0.415618 0.821372 0.303765
12933 1 0.146409 0.864517 0.30856
12931 1 0.155109 0.873453 0.315508
12932 2 0.152121 0.869328 0.308741
19752 1 0.367675 0.927811 0.293119
19751 3 0.372062 0.932633 0.289762
19750 1 0.375419 0.938284 0.294298
20420 3 0.37654 0.954848 0.315739
18360 1 0.367887 0.048336 0.330909
18359 3 0.370339 0.0558709 0.333681
18358 1 0.378117 0.0571605 0.330932
19097 2 0.0401432 0.150053 0.326734
19096 1 0.0420245 0.143991 0.322704
19098 1 0.0344871 0.154998 0.329486
17584 1 0.216065 0.177014 0.317955
17585 3 0.213992 0.185212 0.319956
21091 1 0.331936 0.197826 0.325253
21093 1 0.321749 0.190168 0.333387
21092 3 0.326251 0.193603 0.328403
2928 1 0.0986963 0.252794 0.338403
2927 2 0.0979189 0.249484 0.345723
18192 1 0.0224042 0.332333 0.319085
7835 3 0.0231248 0.327155 0.328357
7834 1 0.0232047 0.319745 0.329586
6837 1 0.0298497 0.309654 0.333503
6836 2 0.0231486 0.308333 0.330819
6835 1 0.0232377 0.316366 0.329908
7836 1 0.022804 0.331184 0.322041
16335 1 0.182882 0.575455 0.345235
16334 3 0.185595 0.568812 0.340578
16333 1 0.18999 0.565425 0.335015
11012 2 0.426993 0.72449 0.344846
19025 2 0.342109 0.731176 0.34408
19024 1 0.340269 0.736961 0.339004
13959 1 0.422775 0.737939 0.321379
13958 3 0.426 0.737489 0.329319
11013 1 0.426609 0.730194 0.338951
13957 1 0.426626 0.732529 0.336513
16654 1 0.516733 0.777741 0.319489
3536 3 0.460667 0.798441 0.321768
3535 1 0.466712 0.798845 0.316652
3537 1 0.455991 0.79489 0.327302
8339 3 0.326967 0.845643 0.331824
8340 1 0.320972 0.846561 0.334317
8338 1 0.33366 0.843405 0.334831
6015 1 0.190044 0.95311 0.326669
6014 2 0.190076 0.946117 0.33163
6013 1 0.193225 0.94038 0.335519
20419 1 0.371399 0.961188 0.315878
20421 1 0.37898 0.950635 0.322658
8793 1 0.520846 0.954155 0.347084
8792 3 0.520472 0.947732 0.343561
8791 1 0.522414 0.939878 0.341172
9778 1 0.128446 0.0260731 0.356035
9780 1 0.129956 0.0293437 0.370878
9779 2 0.126745 0.0299805 0.363082
10400 2 0.423439 0.0511931 0.377215
10401 1 0.428056 0.0533234 0.372515
21038 2 0.404295 0.0705866 0.353189
21037 1 0.401308 0.0790381 0.352858
21039 1 0.409328 0.064334 0.352974
18446 2 0.23223 0.1059 0.375324
18445 1 0.232998 0.0986449 0.375688
7794 1 0.449641 0.110938 0.378503
7793 2 0.443181 0.114484 0.372831
7792 1 0.442351 0.114785 0.364489
21019 1 0.276985 0.141961 0.366484
21020 2 0.275719 0.148936 0.363683
615 1 0.388639 0.142413 0.355225
613 1 0.383198 0.129035 0.354288
614 2 0.384544 0.136547 0.354345
12370 1 0.403948 0.13687 0.371436
12372 1 0.413113 0.14489 0.360055
12371 3 0.406447 0.141258 0.364382
11698 1 0.416075 0.146247 0.358219
11699 2 0.422134 0.149745 0.355289
4411 1 0.464489 0.13249 0.37546
4412 3 0.468086 0.137134 0.37183
4413 1 0.473536 0.143412 0.372086
10896 1 0.057135 0.164129 0.375647
21021 1 0.27049 0.152953 0.359768
11700 1 0.424574 0.153604 0.349147
6642 1 0.523553 0.170841 0.363993
18519 1 0.0446991 0.193679 0.37485
18517 1 0.0562768 0.193521 0.366445
18518 3 0.0485324 0.193804 0.367729
12106 1 0.0844776 0.229685 0.357388
12107 2 0.0875831 0.23716 0.35558
14968 1 0.0812743 0.212302 0.365502
14970 1 0.083395 0.22723 0.358162
14969 3 0.0818377 0.219516 0.360948
18352 1 0.461162 0.226571 0.356904
21409 1 0.463221 0.224928 0.355685
18353 3 0.455083 0.229442 0.361217
18354 1 0.45203 0.230266 0.368519
10554 1 0.450583 0.230979 0.371145
10552 1 0.438092 0.232127 0.377985
10553 2 0.446829 0.231812 0.377842
21411 1 0.474942 0.215388 0.351305
21410 3 0.468765 0.220771 0.351537
12108 1 0.0915334 0.242593 0.352195
2926 1 0.0933129 0.244665 0.35071
6828 1 0.191779 0.248014 0.376951
12538 1 0.272889 0.358857 0.351922
11356 1 0.474308 0.363178 0.367754
11357 3 0.48219 0.361547 0.365504
11358 1 0.489213 0.360583 0.361275
12539 2 0.26893 0.364844 0.350011
12540 1 0.265949 0.37139 0.354579
709 1 0.202694 0.450291 0.365528
710 3 0.207699 0.45138 0.358903
711 1 0.209696 0.447278 0.352413
17083 1 0.277267 0.462036 0.373507
17084 2 0.283093 0.460016 0.369268
17085 1 0.290789 0.458266 0.37367
13751 2 0.398463 0.492194 0.367703
13752 1 0.395806 0.498562 0.367909
13750 1 0.401573 0.48691 0.374069
17238 1 0.402941 0.485008 0.3761
16421 2 0.34622 0.727099 0.363024
11011 1 0.425474 0.717246 0.348573
1648 1 0.42521 0.714549 0.350642
1649 2 0.424379 0.708824 0.355403
1650 1 0.42476 0.705099 0.362166
19266 1 0.206223 0.739026 0.373845
21573 1 0.203554 0.738514 0.373687
21571 1 0.194085 0.731493 0.36588
21572 2 0.196654 0.735796 0.372723
19265 2 0.214207 0.740756 0.37491
19264 1 0.222503 0.740888 0.378059
21216 1 0.307026 0.746165 0.375342
16422 1 0.343253 0.728258 0.368934
16420 1 0.344956 0.728371 0.355058
19026 1 0.344477 0.728691 0.351811
8464 1 0.217673 0.830831 0.362698
8466 1 0.220922 0.844865 0.355011
8465 2 0.220934 0.836788 0.359121
18023 3 0.31084 0.848423 0.359944
18024 1 0.310938 0.841701 0.357323
18022 1 0.308722 0.856467 0.362041
8655 1 0.299594 0.962543 0.373883
8653 1 0.285404 0.964774 0.378831
8654 3 0.293018 0.963705 0.376881
7895 3 0.429703 0.973926 0.354966
7894 1 0.426587 0.974063 0.347662
7896 1 0.430817 0.970616 0.363518
18873 1 0.124623 0.0450214 0.391091
18872 3 0.123321 0.052217 0.39491
18871 1 0.11991 0.0592388 0.397687
19834 1 0.133278 0.0313584 0.385897
19836 1 0.125495 0.0427794 0.389086
19835 2 0.128601 0.0369996 0.384394
10399 1 0.418447 0.0460909 0.379814
8562 1 0.413535 0.066745 0.407513
8560 1 0.414189 0.082406 0.40726
8561 3 0.413247 0.0748431 0.407128
18447 1 0.22806 0.109817 0.379996
10894 1 0.0538714 0.178679 0.38349
10895 2 0.0560372 0.171909 0.379363
16817 3 0.00694766 0.248615 0.39977
16816 1 0.00173497 0.243014 0.399959
16818 1 0.012871 0.248736 0.394333
19453 1 0.186833 0.270008 0.379734
19454 3 0.188733 0.265574 0.385578
6826 1 0.194079 0.254865 0.38639
19455 1 0.192947 0.257715 0.386467
6827 3 0.195392 0.246655 0.384243
13931 2 0.384493 0.332669 0.388935
13930 1 0.390574 0.327379 0.392112
14211 1 0.393238 0.325352 0.393307
14210 3 0.399162 0.321746 0.395264
14209 1 0.405164 0.318207 0.398474
15499 1 0.191164 0.360702 0.389657
17891 2 0.372059 0.346585 0.391245
17892 1 0.368512 0.351679 0.396248