ITEM: TIMESTEP
60000000
ITEM: NUMBER OF ATOMS
5733
ITEM: BOX BOUNDS pp pp pp
0.0000000000000000e+00 5.0000000000000000e+01
0.0000000000000000e+00 5.0000000000000000e+01
0.0000000000000000e+00 5.0000000000000000e+01
ITEM: ATOMS id type vx vy vz 
17566 1 -6.19194 1.91377 -0.147954 
12031 1 5.30044 -10.0151 -6.10355 
17567 3 4.41149 1.06535 0.519446 
12444 1 1.90621 1.04088 2.05774 
14907 1 -0.59551 -4.21851 7.67596 
13326 1 2.39067 -0.217694 2.28037 
14906 3 -0.810447 0.436745 -0.154338 
12623 3 4.48259 0.941335 -0.446603 
12033 1 2.21705 2.45752 2.71325 
12622 1 -2.36823 -2.47861 -0.0792535 
12032 3 -1.41804 4.2945 -0.521138 
13325 2 -1.15866 -0.410885 4.66054 
13324 1 -9.15462 -0.824289 3.44602 
12624 1 -3.0136 3.44476 6.94314 
8910 1 -2.95676 -0.970858 -2.18857 
8909 3 0.646484 -2.2237 -0.32751 
14905 1 -1.13723 -7.01606 -3.50669 
15219 1 2.35201 -0.4398 -5.0367 
15218 3 -1.41309 -1.36978 -0.933141 
13620 1 1.45101 0.698817 -2.61225 
13619 3 -2.18252 -1.86173 -2.70363 
4734 1 1.55648 4.59243 -0.431674 
4733 3 -0.0865559 0.927288 -1.36562 
4732 1 1.78989 -3.17207 0.605432 
14187 1 -2.41211 4.52805 -1.16968 
14945 3 -2.31686 -5.19605 -1.30252 
14946 1 2.31131 -2.33976 -3.1896 
21261 1 6.39949 0.308283 6.68821 
17568 1 -4.0174 -4.89897 -3.78959 
15279 1 -2.79937 2.13138 -3.39185 
15277 1 -4.61875 6.85743 4.84677 
11179 1 -1.89402 3.70736 1.36413 
15278 2 -0.337581 0.538581 2.50512 
11180 3 2.25882 1.93071 0.714945 
2180 3 -3.04494 0.405939 2.67164 
2179 1 -2.38808 -3.88958 -0.819314 
19268 3 2.15417 -0.785074 1.02263 
8353 1 -4.36333 -2.40558 -3.81484 
2181 1 -0.871046 5.53493 -0.397249 
19269 1 -2.78875 -6.1505 1.67282 
14145 1 -1.1704 -0.768532 2.54461 
14530 1 5.10904 -2.45259 3.47978 
14143 1 2.34623 -2.73028 3.06773 
14144 3 0.743027 2.9832 -0.869727 
14531 3 2.24613 2.9703 -0.627993 
8661 1 6.65377 -5.69993 -2.94764 
8660 3 1.43608 -2.5252 1.1755 
14532 1 -7.97807 -5.87657 0.517053 
15217 1 1.5126 5.09811 0.0497699 
21219 1 0.376385 -7.10134 3.09354 
21218 3 -2.30961 -1.76394 -1.64826 
15767 3 -4.75471 -1.61961 0.151058 
15768 1 -2.05399 -3.49852 -4.82131 
12391 1 -0.0867641 1.91307 -3.98066 
2178 1 2.27167 5.34292 3.34719 
4147 1 4.41279 -3.91481 3.75796 
12392 3 -0.434149 5.07948 -0.113998 
2177 3 -5.84681 -0.981068 -1.22844 
2176 1 -1.33808 -6.20054 2.33468 
18673 1 0.0614749 1.65732 2.87098 
21217 1 3.53198 2.4702 -4.06726 
6453 1 2.44921 -1.80315 -1.71135 
6452 3 -2.80738 3.59906 2.95833 
21550 1 -3.13399 1.52613 -6.33092 
9493 1 -2.16194 -3.943 -0.601109 
6451 1 -3.09052 -0.139645 1.94274 
21552 1 -0.590911 -5.54033 3.39796 
14944 1 5.29214 -4.45387 5.2483 
5451 1 -0.647317 -1.78064 -0.401255 
21551 3 -1.118 -5.13213 -1.53169 
5449 1 2.65993 -1.31621 -0.393641 
5450 3 2.14922 2.45542 -1.37336 
16575 1 -4.56599 9.89599 0.328625 
16574 3 -1.7025 -4.03528 1.14105 
21260 2 -0.926671 0.919862 1.54227 
16045 1 1.72289 -2.06272 -1.10236 
12190 1 -4.95574 -4.07103 2.8652 
12191 2 -2.60107 1.22894 1.3811 
12192 1 -6.92915 2.00314 0.578276 
21259 1 -1.87145 0.863019 0.0526509 
18198 1 2.99504 4.40211 -4.59417 
4784 3 -0.243629 -4.26855 -2.65146 
4783 1 0.232865 -0.254211 1.79415 
4785 1 -6.93545 -3.29323 2.72033 
354 1 -1.10303 -3.34679 4.37043 
19267 1 4.29791 0.119426 0.484712 
11181 1 4.30529 4.05072 -1.01915 
18964 1 -1.71716 1.65198 -2.9455 
4349 3 -3.82761 1.7286 2.91922 
4350 1 -0.684953 6.56577 1.39585 
18965 3 2.35606 -3.27449 1.42318 
18966 1 -7.14698 -5.34391 -3.1058 
6562 1 4.31523 -3.63568 -1.27308 
6563 3 -0.305736 2.07819 -2.72509 
14579 3 0.655666 -2.90268 1.97103 
5317 1 3.68174 0.637207 -4.03018 
8659 1 0.994881 3.05966 4.16887 
5318 3 -2.45271 1.14798 3.20292 
11836 1 3.85762 -1.82686 -2.52376 
11837 3 -1.9704 4.82314 -0.234759 
5319 1 0.701888 3.5976 -5.5598 
15733 1 1.75224 -5.37602 0.463732 
4148 3 4.11523 1.32929 1.38339 
15766 1 -2.2347 3.61398 1.68243 
8031 1 -0.977111 -3.26392 -1.62223 
8030 3 -3.34937 0.178355 -5.12172 
8029 1 0.913005 1.6885 -0.664225 
7266 1 -6.44608 -1.69149 0.643927 
7265 3 -1.62178 2.97233 -1.26212 
7264 1 -1.29485 3.26754 2.70336 
2556 1 2.64913 2.09596 -1.42941 
2555 3 -1.98134 4.85117 -0.855903 
17937 1 2.28464 3.08124 -0.270416 
9494 3 0.4311 2.8766 3.46961 
9495 1 -1.74232 -1.17756 -6.58764 
4423 1 3.50297 -3.72922 -3.76066 
2554 1 -4.10236 -7.91117 -0.437619 
1044 1 -0.675761 0.0573246 -0.237013 
4424 3 1.19173 -0.38552 -0.17237 
206 3 0.0939286 2.67229 0.641477 
1043 3 4.74862 -0.610868 -1.01211 
4149 1 1.20541 0.827784 1.13751 
17889 1 -0.355089 5.41744 2.27599 
17888 3 2.31485 -2.25725 0.357219 
16573 1 -2.07698 -4.22992 3.11736 
205 1 0.509836 1.30011 0.350353 
16046 3 -0.801248 3.56829 1.25618 
16047 1 -3.57987 5.06368 -0.0224175 
4519 1 1.60629 -1.19616 7.97005 
4521 1 3.46549 1.4268 0.723597 
11299 1 -6.60941 -0.859079 -0.585192 
11300 3 0.293963 2.55442 1.18994 
4520 3 3.67675 -3.80317 2.99809 
11301 1 -4.97077 -0.18904 -8.8325 
10081 1 -0.8445 0.635789 -0.717939 
8612 3 0.718338 -2.91953 4.59797 
8611 1 1.7454 -1.67419 -4.33688 
8613 1 5.07284 -3.19674 -4.7363 
12030 1 2.2986 -2.00779 -0.224416 
15735 1 8.38115 -2.35346 0.0961448 
15734 3 -1.15789 3.13509 -1.08356 
19048 1 -4.83525 5.96708 4.55787 
1850 3 -0.198654 -1.32039 1.27305 
14194 1 -1.59575 2.03793 -0.775423 
14195 3 1.37465 4.18639 -0.168918 
10556 3 -0.11085 -2.09808 -7.63792 
16192 1 -6.61024 2.05017 0.592298 
10555 1 -2.26817 2.56493 1.57108 
16193 3 1.73343 -0.944858 -1.15781 
14196 1 2.03491 -0.809486 -4.35944 
14503 1 0.957457 2.02659 -2.03051 
16194 1 2.54714 0.632314 0.897113 
2409 1 1.23108 -2.24491 -2.18511 
6310 1 -4.269 5.09573 -5.77238 
2408 3 2.00128 1.24375 1.31418 
4101 1 -0.823301 -0.498441 -1.69488 
8673 1 3.58658 3.27549 6.51402 
1042 1 -5.43574 0.400021 -0.0569296 
11758 1 -7.54639 0.275545 3.09971 
4100 3 -1.02324 0.911192 1.02751 
8672 3 -1.7977 -1.01466 -2.41627 
11759 3 -1.32435 -2.78425 -4.00771 
6311 3 1.17514 0.391022 2.07246 
8671 1 6.73249 -0.717367 2.51551 
7597 1 -2.54429 -4.36004 -2.59194 
7598 3 4.85986 0.978511 -1.69966 
7599 1 -0.82053 -5.65011 -4.49439 
15549 1 6.74004 5.58758 0.220362 
7118 3 0.137914 1.14255 -2.52204 
15548 3 -2.33668 0.879347 4.11092 
7119 1 2.32431 2.15883 -1.40857 
15646 1 -3.53126 3.15896 -1.41428 
4799 3 1.56121 4.31133 4.22383 
4798 1 0.846129 -1.4366 0.636636 
1629 1 0.205945 -2.60519 12.1816 
7117 1 -1.19446 -1.39207 -5.84675 
15647 3 1.44746 1.36091 -0.130781 
7449 1 3.8772 -3.466 -3.79606 
15547 1 -3.39696 -3.82969 1.26873 
19537 1 -1.94789 3.27126 1.96525 
19538 3 -3.76793 1.17435 -0.450875 
19539 1 -0.995593 1.92697 4.72621 
18502 1 2.00028 4.14904 2.71625 
8634 1 4.30371 -0.18197 -9.1605 
7448 3 -0.160162 -1.40841 -0.683432 
7447 1 -7.54569 1.47275 0.500914 
18503 3 3.8579 -5.20119 2.73927 
8633 3 1.02083 0.807085 0.724397 
9376 1 3.09243 -3.8173 -0.185997 
9378 1 7.30651 -4.35853 4.21072 
9377 3 -4.72764 2.21763 -0.75886 
18504 1 -2.53245 -1.87255 3.34833 
7824 1 6.90002 -4.75137 1.68636 
7823 3 0.00780838 1.78305 1.3439 
14997 1 2.24582 4.4548 6.6873 
12269 3 0.118947 -0.605121 4.34944 
12268 1 -4.56321 -2.50176 4.16424 
1849 1 0.863919 -3.84605 5.24867 
10051 1 -5.69419 8.1875 -3.21339 
10052 3 -3.56213 -2.64579 -0.35358 
10053 1 -0.4967 1.40638 5.39095 
5061 1 2.31043 4.84058 -2.88747 
5060 3 0.17757 -1.3469 2.82977 
10954 1 1.60168 -5.18826 3.92204 
10956 1 -3.48059 -3.64606 -2.77977 
13041 1 3.26962 0.0773788 -0.457362 
13040 3 -0.0173959 -0.578553 0.668582 
538 1 7.81317 4.09357 -0.877655 
539 3 6.35441 -1.49383 -0.146163 
10955 3 3.09745 1.79687 -5.40931 
5059 1 8.12934 0.35482 -3.3942 
13039 1 -1.72311 0.948804 1.63791 
9525 1 2.86141 4.98581 -1.18895 
9524 3 -0.802716 3.16588 -0.0181265 
9523 1 -5.88864 1.94252 -0.613422 
14504 3 -1.62166 3.94841 0.916538 
7305 1 -6.67777 -0.694146 -1.07292 
215 3 1.2507 -2.11149 2.95328 
6312 1 3.32533 0.480461 6.91995 
19192 1 1.30331 5.22305 2.42272 
19193 3 2.08805 5.97299 0.122382 
19194 1 5.62901 0.28781 -1.46771 
216 1 -3.76518 1.61959 -3.55552 
19408 1 -2.4018 -5.09666 -1.57406 
8323 1 -7.58089 1.46237 6.56557 
8324 3 -3.13168 0.405593 1.94699 
4800 1 7.53623 -1.70253 -0.850061 
18878 3 -0.400425 -1.1954 -4.32721 
18877 1 -2.42256 -8.78859 -3.99357 
18879 1 -4.94744 -2.0813 0.91279 
9303 1 0.427525 0.671648 5.81618 
3689 3 -4.30952 -1.22625 3.06439 
3690 1 -5.45951 4.08461 2.7985 
3688 1 -1.39462 -2.88537 0.25446 
9302 3 1.22729 -0.240175 3.08175 
4552 1 5.44443 -2.78977 4.65494 
4553 3 0.893022 -0.683831 -1.49129 
15943 1 -6.89925 -0.135194 2.80595 
7470 1 4.8186 1.49747 -0.585938 
10035 1 2.18115 -0.121967 -0.808551 
7468 1 -3.28866 5.90747 0.390492 
7469 3 0.104909 -4.08696 2.65328 
7822 1 -1.48902 -2.4975 5.8481 
10693 1 3.04532 -0.211585 -2.27068 
10694 3 -0.892136 -0.775696 -1.33819 
8428 1 -0.36566 -4.61684 1.08503 
5976 1 7.01311 -1.99953 4.36163 
5975 3 -4.3342 2.97332 0.306824 
8429 3 -1.15817 -2.48857 0.40966 
8430 1 -3.14258 -2.49774 -4.04798 
10785 1 0.179466 -1.62321 2.03493 
10695 1 2.37705 2.74186 2.43833 
10887 1 2.3804 -1.14061 -5.22657 
10886 3 3.84495 1.83067 -0.177555 
10885 1 3.37897 2.05743 -6.66851 
5728 1 -0.804061 1.97732 -1.07546 
12270 1 -2.64774 2.02861 -4.60026 
20601 1 4.59994 -0.437655 0.245852 
20600 3 -1.02336 0.750182 1.40493 
20599 1 -1.56312 -2.7623 -5.82987 
5014 1 -0.974838 -2.35912 0.641939 
5015 3 -1.33785 1.112 3.51948 
11409 1 -4.19274 0.63989 -0.555306 
11408 3 -0.952891 1.44684 0.612662 
2755 1 0.306091 5.49641 2.98774 
8206 1 -2.59991 -0.0613781 -1.81285 
13159 1 -1.50501 3.11879 6.52399 
8208 1 1.47405 0.368297 -0.113417 
8207 3 0.894645 5.75536 0.679033 
7304 3 2.91783 -1.41492 0.904754 
5284 1 -3.1092 -5.52026 -6.70132 
19409 3 -2.89682 0.0351053 -0.953834 
11608 1 9.42666 -7.3042 -2.43883 
14716 1 3.32072 2.24757 -1.4579 
13160 3 2.1471 -2.04627 -3.19365 
13161 1 0.890173 -6.94079 -5.79913 
17552 3 -1.33658 -2.72123 0.24892 
17553 1 1.89944 -1.9873 6.08812 
12492 1 -0.781733 -0.741747 -0.582751 
17551 1 -0.983782 -0.558156 -7.12992 
14717 3 -2.9772 2.55616 -5.65218 
8325 1 -1.33325 -1.63548 5.87671 
20432 3 -7.53258 -0.478665 2.64505 
12491 3 -1.15077 0.735968 3.14111 
12490 1 -3.80796 -2.25884 3.11012 
20431 1 -4.45767 -7.06856 1.31816 
20433 1 1.42764 9.12613 1.76854 
19125 1 -5.79622 0.369374 0.430573 
21095 3 -2.69657 -1.32815 0.0359473 
21096 1 0.0418733 -3.91206 -1.29885 
12657 1 -3.10536 -1.7377 1.43704 
21094 1 0.796681 1.5764 3.67785 
12656 3 1.37648 3.45581 3.47987 
4554 1 2.66813 -2.39437 -3.49205 
15944 3 2.82309 0.135931 -0.651246 
3452 3 -2.26301 -1.65627 -2.30001 
3451 1 0.194976 1.99766 0.626795 
8290 1 4.86783 -0.348969 -1.5678 
19562 3 -3.08115 2.4179 0.0214736 
15945 1 -2.29756 -5.46227 -0.194436 
19764 1 -1.1888 -4.19985 -0.287428 
3453 1 -3.36189 0.754989 -1.62369 
15124 1 -3.66231 1.66277 -0.219428 
5437 1 -2.97735 2.80243 0.255034 
4804 1 1.83922 1.73413 -2.59654 
4805 3 -3.37394 2.9113 -0.492023 
4806 1 3.75465 -2.92474 1.66703 
4879 1 -4.22886 -1.86618 -1.32511 
4880 3 2.51463 0.933881 -0.513651 
4881 1 -0.519554 2.45693 -5.95114 
5729 2 -2.01838 -0.660893 2.10976 
5730 1 0.186488 -0.326285 -1.35493 
5438 3 -0.170286 -0.0279604 1.62621 
3139 1 0.177472 3.04991 2.88347 
5439 1 -4.523 -4.66502 0.506294 
3140 3 0.284318 0.100613 -4.42517 
12426 1 0.661729 -3.24715 -2.39818 
5932 1 4.28794 1.13764 -0.305655 
14045 3 0.472701 1.34375 2.11957 
14044 1 4.50972 4.20434 -1.72583 
14046 1 -2.49953 1.93259 -1.51732 
15969 1 -0.565384 1.63026 -0.359371 
15968 3 -1.10181 -0.491908 4.25128 
11705 3 -1.38738 3.64918 0.813123 
11706 1 1.50543 -3.89392 -0.786268 
16807 1 -0.84256 -4.25148 -2.53414 
5979 1 -2.0169 -1.75628 -2.49923 
11704 1 2.0976 -6.33172 2.43581 
5978 3 0.883906 0.508918 -0.749022 
5285 3 1.61793 1.50903 3.45246 
2756 3 -0.438893 0.208905 3.36234 
2757 1 0.123173 -9.32526 -2.70167 
21208 1 -2.69024 -2.49528 2.58636 
21209 3 -2.52798 -2.56554 2.83976 
5286 1 3.28118 2.30304 -4.50833 
3519 1 -5.96562 5.39139 -1.43998 
3518 3 -3.94566 -2.94989 0.552039 
3517 1 -0.280183 0.305318 -1.85672 
21210 1 4.92528 1.58788 -2.39081 
19804 1 0.918328 -1.79898 0.227377 
19805 3 -1.13193 0.571386 1.25021 
1633 1 3.17134 -2.72991 -0.973559 
14718 1 3.50709 -4.48792 2.30992 
12476 3 -3.32486 3.9516 -0.0398909 
12477 1 3.12009 -2.41524 -2.68008 
1146 1 0.823366 3.64414 2.29749 
2036 3 0.4741 -2.63619 -1.22223 
12475 1 -0.671178 2.75493 1.97706 
17194 1 2.21906 -4.5886 4.5178 
21283 1 5.2898 3.32062 0.267973 
2035 1 5.28423 -0.794779 3.16707 
9127 1 2.86933 2.41214 -4.60211 
17195 3 2.22045 3.02469 0.539374 
17196 1 -0.357613 8.76578 -3.95182 
3132 1 -2.77598 -0.152315 1.49444 
4172 3 1.14404 -4.80618 -1.41015 
12655 1 2.21959 0.527185 -1.86789 
4173 1 -6.48356 0.510386 -1.07123 
1987 1 3.6142 0.180206 -5.27025 
3130 1 -2.07931 1.05132 -3.45322 
3131 3 -1.83314 -1.26042 -4.47668 
7618 1 3.48151 1.32123 -1.09757 
7619 3 -0.164317 1.57759 2.3649 
6409 1 0.403373 5.00314 0.53046 
6410 3 3.0402 -0.845637 -4.61462 
8292 1 -2.50725 0.873871 3.34571 
8291 3 -0.209508 -2.67834 -2.83398 
15339 1 2.37404 -0.282404 4.00653 
15338 3 -0.271008 0.732789 4.47289 
6411 1 -2.73423 -0.804914 6.31929 
5547 1 0.0560766 0.279243 -4.7625 
14712 1 0.713674 -1.5446 2.36475 
6140 3 -0.803195 -0.472558 0.984299 
6141 1 2.94575 2.07185 -5.81686 
493 1 -2.94065 1.95848 -5.114 
8412 1 1.68697 0.330294 2.44668 
8411 3 -2.81289 -0.346202 -2.7224 
11931 1 -4.52427 6.56054 3.66535 
5546 3 -1.10429 -1.23591 -2.28726 
5545 1 1.53498 -2.94255 -0.09365 
8410 1 0.385064 -4.5851 -5.92206 
18602 3 -2.52026 4.46882 -1.16284 
3141 1 6.09897 3.72919 -5.59291 
14445 1 2.66891 -4.04665 1.26412 
14444 3 0.641326 2.49887 -0.26537 
4155 1 2.12416 0.0107885 3.57382 
14443 1 0.378515 3.85636 -1.78886 
8862 1 2.64489 0.949377 -0.428816 
13860 1 1.46617 5.48735 5.18283 
13859 2 -4.74302 2.26615 0.59347 
13858 1 0.521049 4.98693 -0.732232 
18127 1 1.16923 1.16361 -2.22737 
18128 3 -3.10822 -5.14602 2.98767 
12443 2 -2.15929 1.29991 -2.7906 
7746 1 1.52593 0.314177 0.616546 
7745 2 -4.39249 -1.01169 0.397667 
7744 1 2.61391 -6.1726 7.47543 
9634 1 -2.55656 5.48589 0.44359 
9635 3 -0.88635 1.02805 1.09148 
7950 1 -2.76357 3.07024 -1.36487 
9636 1 3.32611 4.17142 -0.700361 
12442 1 1.18125 3.81039 0.376841 
6709 1 2.10033 -3.16488 -3.19146 
3382 1 -0.758524 0.912535 1.30849 
8908 1 -2.52166 2.61068 0.107909 
6710 3 1.66451 -2.42517 -1.96314 
15162 1 -2.04753 -0.294751 4.03558 
3384 1 -1.79954 -1.55954 3.19547 
1483 1 1.39173 -1.13005 2.7175 
6711 1 1.85923 5.18382 -4.20398 
1484 3 3.30548 1.8324 1.62841 
1485 1 -1.80512 -0.419096 1.34444 
3383 3 1.3574 2.80033 1.00297 
15161 3 -3.99073 -2.28146 -3.3198 
18674 3 2.68441 -1.50376 -1.28489 
18675 1 3.82571 -0.160606 -0.179396 
17899 1 0.688332 -0.614886 3.23194 
17900 3 -4.05527 -0.533979 -2.10605 
17901 1 -2.72589 2.18443 2.40461 
18019 1 1.45838 -0.0321166 2.0477 
18020 3 3.2288 -0.952972 1.11973 
7948 1 -5.7587 4.92522 2.13868 
7949 3 -1.81413 -2.34181 1.26076 
18005 3 1.97893 -1.83275 0.198358 
17887 1 9.93635 1.39327 -3.65374 
12994 1 -1.28597 -1.50187 -0.905871 
12995 3 -3.25346 -4.21715 2.3307 
18004 1 2.28644 1.5729 -0.546918 
12996 1 0.498344 -3.73602 -3.55903 
18006 1 -1.26461 -7.38662 3.60396 
6517 1 2.28696 2.61672 -3.39167 
6518 3 2.71539 -0.815434 3.06574 
6519 1 -1.26063 1.10535 3.69224 
4348 1 -0.707744 -1.86187 -0.804959 
352 1 4.29173 5.93247 0.959338 
353 3 4.60978 -2.82176 -1.15009 
304 1 -0.982283 5.62746 1.50345 
305 3 -0.89547 0.199938 -1.33573 
11838 1 -6.77641 0.698748 -3.64723 
8038 1 -3.57938 2.37939 -6.0696 
8039 3 0.0580034 -3.38492 1.40728 
306 1 5.39911 5.32635 -5.22475 
12958 1 -0.481829 10.2808 -3.41721 
12959 3 1.56625 -0.915341 -0.842963 
12960 1 1.91054 -2.45299 -2.52636 
15129 1 4.06895 -3.72043 0.922736 
17936 3 -0.985776 3.19247 0.98922 
17935 1 -0.642266 -3.0801 -3.04506 
8040 1 -0.548599 -2.23621 0.738833 
15127 1 -5.65541 0.0649133 -3.01165 
18021 1 -4.61955 0.935363 0.0744336 
5185 1 -2.28677 1.46521 0.224785 
11261 3 1.79234 -3.72761 2.41579 
11260 1 0.413991 -2.4248 0.0304415 
5187 1 8.04919 -7.00615 0.910848 
207 1 -3.54207 -1.34199 -0.862298 
11262 1 -1.36063 -1.8889 3.61988 
5186 3 -4.29635 -5.04666 -0.375893 
9371 3 -2.11958 3.83387 -1.4116 
12029 2 1.70866 2.85615 -3.6809 
7420 1 3.62054 -4.45793 -3.55681 
12028 1 -0.672842 -5.4059 3.83158 
7421 3 -0.445895 -4.46277 -1.91176 
1578 1 -0.349002 -1.56891 2.72702 
1577 3 0.96032 -1.91698 -1.49263 
1576 1 4.43837 3.91185 3.80166 
7422 1 -3.30462 -5.95659 0.804388 
15462 1 -10.5021 -2.08062 -3.78134 
15461 3 1.65618 0.933586 0.134617 
6645 1 1.23115 7.37815 1.76944 
15460 1 1.91541 8.35897 -1.36524 
6643 1 -1.40405 -0.317026 8.99663 
6644 3 -3.19129 -1.92646 -3.59661 
12333 1 -7.0196 -5.62824 -0.690261 
12332 3 -2.78844 -0.788343 -1.11591 
12331 1 -2.21014 -2.94837 3.63779 
4099 1 -3.95985 0.934964 0.956862 
10095 1 -5.42611 -1.48256 -0.990929 
9372 1 0.325254 -3.7129 4.61891 
8632 1 1.66189 0.408866 -0.691935 
10687 1 2.01804 -0.281902 -0.42892 
10688 3 2.33051 3.85012 -7.44863 
10689 1 1.3371 1.36242 0.334141 
9370 1 1.68815 4.61424 -2.26974 
15648 1 -0.365801 -1.10538 0.761941 
12060 1 4.80424 -0.942053 -3.19736 
12059 2 6.15494 -4.32191 -0.625228 
21114 1 -3.19274 4.02183 -2.79156 
21113 3 3.20838 -2.15852 -1.58905 
21112 1 3.04757 3.4267 3.32215 
21558 1 -5.57775 -5.04169 1.02924 
21556 1 -2.37594 -3.13458 0.539624 
21557 3 -4.06821 1.06087 -3.221 
6610 1 1.37505 2.68805 6.65001 
10608 1 -4.05375 0.0371682 1.97302 
14505 1 2.44354 -4.75849 1.95785 
10607 3 -2.1959 0.634603 1.54555 
10606 1 1.15295 -7.57485 -3.49828 
4854 1 -2.03357 -1.24909 1.39967 
6611 3 4.45551 0.426278 -1.88407 
6612 1 -1.00817 -1.28163 -2.97791 
10094 3 2.07896 2.74581 -3.49745 
10093 1 -4.7221 1.37427 -3.11779 
10751 3 2.29262 -3.35996 -0.162872 
11806 1 1.36646 -3.79851 0.666289 
10750 1 -2.3687 0.258959 -1.99626 
10752 1 -2.54378 -0.597434 -3.21445 
5822 3 -4.914 -3.32901 1.41066 
5821 1 -2.85429 -0.0115826 0.609894 
9301 1 4.0995 0.538263 -6.38782 
10033 1 0.846036 -0.110953 4.7446 
5823 1 -4.28891 -7.00196 -0.0878049 
14602 1 4.80442 -3.14381 0.531031 
14604 1 -1.78588 0.910177 -2.84735 
12058 1 -1.51794 5.15454 -3.41278 
14603 3 1.44326 4.17646 5.06961 
2882 3 3.29314 -0.86092 3.88506 
2881 1 -1.20667 -1.9482 -2.0364 
19942 1 0.759857 -1.1362 -1.14148 
10034 3 3.96407 -1.34646 -0.929659 
19943 2 -1.54769 -0.52209 3.85363 
19944 1 -5.3024 -2.79983 3.50196 
5346 1 -4.33096 -2.45554 -3.05222 
5345 2 0.863232 0.660984 -0.241525 
2883 1 7.26171 -1.17645 3.57405 
5974 1 0.966354 2.04158 -2.14686 
15126 1 0.432989 -6.70399 2.1453 
9381 1 4.12368 2.79418 -2.90684 
8521 1 2.5297 1.35704 -0.835838 
16019 3 -0.383441 -3.34116 1.64075 
16018 1 3.19617 -4.95903 2.5591 
8523 1 7.34925 4.16499 1.95978 
8522 3 -2.4375 -0.938733 4.77385 
16020 1 2.66757 -1.19494 1.24166 
1942 1 -4.51007 6.99126 0.439051 
1943 2 2.45981 -0.180354 -0.420065 
20456 3 -1.32954 -0.925716 1.34296 
20455 1 6.51173 2.0579 5.33953 
540 1 -2.05176 8.5185 1.43067 
13783 1 0.283386 -1.39122 -0.451603 
13784 3 -2.64463 3.46652 -0.547731 
13785 1 -1.12488 1.66217 -3.0974 
16039 1 -3.48947 -4.67023 0.934953 
16040 3 3.82145 2.63796 -1.25829 
16041 1 -2.49251 -1.56231 -0.380983 
20457 1 -0.306212 -0.68613 -2.62881 
10352 3 1.93157 0.107829 0.14214 
11407 1 -1.29742 -5.69153 -2.4067 
10351 1 1.09249 0.865463 -1.45594 
11808 1 2.38008 3.36274 0.555954 
11807 3 2.58843 1.20734 2.91904 
10353 1 4.57065 -1.59056 1.92392 
3600 1 5.79405 -0.337764 -1.03485 
13632 1 1.0085 3.90398 -3.64732 
13803 1 -3.84388 0.828835 -2.99356 
13802 3 5.32646 0.769335 -0.858717 
19294 1 -1.06344 3.20717 2.36602 
9886 1 0.673797 1.21901 3.82284 
13631 3 1.43149 -2.13621 -1.85879 
13630 1 -4.6237 3.13138 2.81078 
9887 3 -2.56747 2.10205 -2.36134 
9888 1 -4.81513 4.87275 1.09872 
2526 1 3.0582 0.73709 -1.29678 
19295 3 1.26845 0.487613 -3.23172 
19296 1 0.976058 0.787512 3.36392 
2263 1 3.17879 -4.24127 3.02677 
2264 3 -2.46739 3.82296 2.78176 
2265 1 5.90621 -7.55227 0.0974445 
2525 3 -1.88737 -0.137122 -0.998083 
20121 1 -3.3777 1.38107 -2.32466 
2524 1 3.27859 -2.94089 3.28816 
562 1 1.68802 -1.78484 6.97534 
20120 3 -0.514806 -1.76931 0.0387974 
20119 1 0.510764 -1.21058 -0.954069 
17929 1 -1.60884 -3.29874 1.24451 
19300 1 -6.9032 2.73475 -1.40604 
19301 3 6.15172 5.39281 0.862713 
4152 1 1.3568 1.83338 1.30833 
15125 3 2.87235 4.7632 -1.26299 
9380 3 -1.30739 -0.0119432 1.55988 
9379 1 0.495702 0.0129709 3.94458 
13923 1 -2.91092 4.2981 4.75659 
13922 3 -1.3884 0.43324 -2.22818 
5826 1 -0.93601 -3.37411 4.57869 
5825 3 -6.0065 -3.13463 -0.423993 
13921 1 -0.84089 4.80071 2.00849 
13993 1 -1.2644 -3.83517 -1.60723 
12425 3 0.421388 2.70504 2.70049 
5824 1 1.74885 1.08855 -4.3532 
17136 1 1.90331 1.79624 4.15589 
17135 3 -1.04556 -1.12328 1.79117 
12424 1 1.44198 7.42667 3.00167 
8170 1 1.71159 -0.0662102 -4.4682 
8171 2 -1.1903 -0.22581 1.51887 
1944 1 2.1235 -6.11169 3.09248 
16809 1 0.770654 -0.925009 3.35553 
8172 1 -5.50218 -0.349669 5.81336 
16808 3 3.36062 -4.14634 0.381043 
5310 1 -0.251178 3.32788 -6.5241 
5309 3 -1.921 -0.184546 5.57558 
9222 1 0.305798 4.79413 -2.3065 
9221 3 2.88907 2.87421 4.45765 
9220 1 3.81404 -1.3814 2.37223 
3598 1 -3.63695 -3.0307 -2.45674 
17905 1 -2.14545 -0.166984 -4.91955 
3831 1 1.14262 0.716694 0.755542 
15418 1 0.0388985 5.0738 -4.28248 
15419 3 -1.69273 -1.08516 -0.268648 
3830 3 -0.497935 3.35924 2.13549 
15420 1 -0.40086 -0.567817 0.883483 
13801 1 2.62383 2.6926 -2.57349 
3829 1 -5.84158 -4.96573 -3.08068 
5680 1 1.25599 -3.51092 -4.67836 
5681 3 0.850937 3.1647 -0.845718 
21284 3 2.90495 3.62875 0.173589 
5682 1 -3.84775 -0.729134 -1.16402 
21285 1 -1.36713 -1.19694 1.47138 
563 3 -0.416127 1.60463 -1.79647 
564 1 0.471101 0.254418 1.96845 
676 1 1.39488 2.90063 -6.63759 
4171 1 0.947391 -3.80924 -0.738717 
677 2 0.381868 2.81559 -1.00266 
17930 3 1.9972 -1.80712 1.78617 
17931 1 0.471628 6.70072 2.42385 
11623 1 2.06191 -1.52265 3.03813 
678 1 -6.73947 -4.51209 3.1663 
4091 3 1.67516 -1.77668 2.12826 
4090 1 0.837548 0.174654 2.27607 
19302 1 -3.22537 2.6205 0.730999 
4092 1 5.94721 1.76147 0.874408 
11930 3 -3.06827 -2.00554 3.1554 
12701 3 -0.0338946 -2.97253 -1.13436 
11929 1 -4.20406 -0.15741 1.82369 
12700 1 4.10962 3.7569 4.5291 
12702 1 1.67989 0.741982 1.70123 
1085 3 2.92759 1.09859 -1.42606 
494 3 -5.52473 0.147757 2.39492 
1086 1 6.18623 0.763492 2.51874 
495 1 -1.59188 -5.79868 1.30637 
17134 1 0.272259 -0.176882 -2.31058 
8860 1 4.28819 3.10072 3.03742 
8861 3 -0.50546 -2.35182 -0.477096 
18106 1 -1.54458 -0.786436 1.70941 
18108 1 3.5817 1.87492 -2.39759 
9552 1 2.03908 -4.88312 -2.07475 
18107 2 0.424343 0.775368 2.38102 
9550 1 -3.18809 -1.76235 -0.261273 
15160 1 2.44296 -2.38183 2.68565 
9551 3 -0.0839798 -0.884164 0.0178081 
15128 3 1.55495 1.64066 0.623111 
4853 2 0.853708 0.279159 -1.27038 
10932 1 2.19442 1.14391 -2.23265 
4878 1 -3.48687 3.83533 -4.77144 
10930 1 3.31989 0.602047 1.94432 
10931 2 1.12212 -0.621778 -1.71716 
4852 1 2.4773 -7.365 -5.69403 
17587 1 2.08465 0.0323533 -0.107728 
4877 2 -2.26111 -2.18268 -0.938925 
17589 1 -0.584946 0.776413 -2.94061 
4876 1 3.44116 1.23674 3.72708 
17588 3 -0.520722 -3.58526 0.196926 
2079 1 -1.07467 5.14084 -2.05995 
2078 2 -6.9644 -1.14131 -2.11252 
2077 1 2.09288 -0.931466 0.512977 
3599 3 -2.1953 -0.142616 -4.46276 
5344 1 2.82842 1.02445 -2.99408 
4150 1 -2.5592 0.519527 1.76414 
4151 3 4.70865 -3.88014 -0.686082 
13994 3 -3.7631 2.07547 1.34431 
11590 1 0.984783 -2.72108 -2.57602 
11591 2 -0.582398 2.50018 1.2962 
5308 1 -7.17191 -2.11293 -0.373384 
11592 1 5.90401 -0.475433 -1.41026 
3733 1 6.21529 -1.34421 -0.205841 
2666 3 -0.790584 0.277847 -1.90009 
2667 1 4.75237 -0.967604 -3.33841 
20341 1 2.26953 1.8924 -6.65771 
2665 1 -7.20398 -2.71749 -4.72809 
20342 3 -3.06029 3.51 -5.28483 
20343 1 2.35878 0.668611 0.230718 
13995 1 -1.79622 -4.007 0.529275 
16779 1 -0.730642 -2.44453 0.131867 
16777 1 -1.47315 -5.68954 -0.910436 
16778 2 0.577326 -2.45827 2.47602 
17976 1 0.659682 6.61964 2.9657 
17273 2 1.50247 -1.54389 -4.6503 
17274 1 -10.2485 -6.42757 -1.93222 
7770 1 -3.13709 -8.5166 2.69396 
7769 2 1.13496 -3.58391 0.0627267 
10260 1 2.42771 2.85405 0.0387796 
10259 3 0.524858 0.576423 0.791943 
10258 1 -4.21764 -0.367092 1.92724 
20537 3 2.70386 -2.01872 5.82868 
20536 1 -0.445392 1.20731 0.2538 
17272 1 -2.17787 5.7966 3.93018 
3282 1 3.01238 2.67439 -4.40015 
19095 1 -1.80852 5.12063 -6.05296 
19094 3 2.2607 3.45282 -3.54197 
19093 1 -1.68013 2.01273 -2.93848 
6888 1 -4.49866 -4.55043 5.30351 
6887 2 1.55596 -0.0722401 0.34487 
6886 1 4.82893 2.59126 0.467879 
8404 1 -0.38102 -2.73814 -7.16354 
3538 1 -3.31722 -1.72895 5.36871 
3539 3 -2.81511 0.892579 1.25731 
8405 2 -2.55167 1.55901 -0.531745 
8406 1 -3.73538 -1.8613 -2.43323 
19087 1 -5.6399 2.05936 -0.422772 
5617 1 -1.43107 -0.563601 -1.20351 
5618 2 1.51533 5.07426 -2.81518 
5619 1 5.38208 0.333618 -1.4946 
19088 3 -0.241674 7.21907 2.21875 
19089 1 -3.15223 3.13796 6.88384 
2335 1 -2.25397 -0.102346 -6.28539 
2337 1 2.30052 7.88201 -3.95602 
2336 3 -3.2039 -0.000578703 0.879011 
14512 1 -1.80791 8.06189 4.3534 
14513 2 5.36555 -4.60607 -0.00555045 
14514 1 6.32768 2.80426 0.109463 
11913 1 1.79617 3.59299 2.56989 
11912 2 3.38669 -0.992568 -2.62828 
11911 1 0.135484 -4.0981 -2.00739 
13176 1 1.62599 -6.26039 4.6954 
13175 2 0.147773 -1.86825 0.246296 
5639 2 2.46637 -0.747989 -0.78724 
3807 1 -11.3985 -1.86954 -2.75569 
5640 1 -4.8583 1.30723 -1.2927 
3805 1 3.27694 2.02516 1.90963 
3806 3 0.587539 6.64764 4.07703 
237 1 -2.60368 8.41759 -0.991891 
236 2 0.404504 0.164796 0.0428964 
235 1 -3.71953 2.44054 -2.86843 
5023 1 -9.27356 -3.37521 -2.405 
621 1 0.0278188 1.04212 3.31797 
620 3 -0.560151 0.666626 1.25175 
5152 1 -4.3224 1.86093 10.3781 
619 1 -2.44386 2.55095 -2.20351 
20586 1 0.963609 -5.42939 5.61804 
11116 1 3.72403 1.6399 -0.402109 
6210 1 5.85008 -6.38314 2.73671 
11118 1 1.50625 2.70978 -3.75225 
11117 3 1.80361 4.5919 0.302238 
6209 3 -3.19586 -1.01211 4.86543 
6208 1 -0.979497 -0.164393 -1.53069 
15948 1 -3.04756 -2.72004 -0.11622 
20585 3 1.92714 -0.42761 -0.167293 
20584 1 0.302997 4.18409 5.85996 
3021 1 9.63538 -5.20886 4.84179 
3020 3 -0.63941 2.28376 0.261284 
3019 1 1.10042 -0.820418 -4.41211 
17975 3 1.71237 -2.5455 2.0147 
17974 1 -0.045696 -5.85366 1.0968 
4795 1 -1.17536 0.511163 -0.732128 
4796 3 1.56393 2.20918 -0.243219 
15946 1 -5.4677 -2.97142 0.509008 
15947 2 2.77426 0.661934 -1.92935 
8745 1 0.514732 1.00882 -4.70917 
8743 1 -4.06807 0.860111 5.11768 
8744 2 -2.38627 -0.677581 -2.25593 
20958 1 0.403267 -2.36767 3.80264 
4797 1 3.39593 -1.17117 6.05149 
2772 1 -1.11042 2.40009 2.49626 
20406 1 0.569126 2.6797 -2.89845 
15838 1 2.4376 2.94607 -1.28043 
15839 2 7.64137 0.59407 -1.61815 
15840 1 -5.4503 2.82115 -6.62543 
4395 1 1.36942 -4.72595 -2.70418 
20404 1 7.88435 -6.77765 -5.38911 
20405 2 -4.36795 1.2819 0.902024 
13000 1 -5.23241 -0.21698 -0.805191 
1320 1 -2.42654 2.38066 -5.13499 
1319 3 1.91644 0.815229 1.59864 
13844 3 -1.5968 -2.3979 0.943617 
5993 2 1.16966 3.60744 -0.476634 
5994 1 1.13129 1.14472 3.97604 
5992 1 -3.244 1.87433 -2.94676 
13843 1 7.39045 -5.12578 2.16159 
4394 3 -2.93181 2.9221 2.60743 
4393 1 -0.268011 -2.24982 -3.70042 
16036 1 0.639117 -2.55863 -3.46473 
16037 3 -2.32648 -1.2468 -1.76473 
18583 1 1.0747 2.67027 0.704758 
16038 1 -1.83327 1.68655 -0.681712 
18584 3 2.69294 -1.41807 -0.698396 
13845 1 1.29426 -0.0762979 -4.23704 
7768 1 -3.5556 -3.37734 1.84061 
9487 1 -0.606374 -8.27265 -3.67029 
18585 1 -0.188268 0.949304 -3.68301 
10914 1 3.67163 4.68074 -2.23826 
10913 3 0.840568 1.83819 1.05514 
17811 1 5.27008 0.142828 -3.86241 
12541 1 6.81165 0.573385 5.09895 
17809 1 1.60149 2.83257 2.54377 
17810 3 -3.80643 1.21299 2.19034 
1296 1 3.4766 5.62106 -2.26014 
1295 3 1.94286 2.68712 5.27582 
12543 1 -2.92687 4.77459 -2.03404 
13002 1 0.678959 -6.07292 8.09705 
13001 3 2.31441 4.52285 -0.126384 
12542 3 2.28631 -4.17281 -2.44099 
20498 3 3.52121 -5.68541 -2.20966 
14253 1 -2.65675 -3.48616 0.654597 
1318 1 -0.671907 -5.00618 2.01033 
16034 2 -3.23105 -0.715209 -4.40763 
8714 2 -0.466342 0.672199 3.13453 
16035 1 -1.9371 -0.105175 -0.082008 
8713 1 3.03778 -3.1217 -5.72758 
459 1 3.35114 -1.63127 -2.18519 
458 2 1.49729 2.41931 3.25668 
12290 2 -1.28356 -2.38291 0.634975 
12289 1 -1.95828 -4.15643 0.986782 
5130 1 0.756864 -4.00914 -0.0524928 
5129 3 1.75001 4.01466 -4.39026 
5128 1 -0.1535 -0.107805 6.32959 
20538 1 -2.46008 0.47556 3.26295 
8432 3 3.48834 -3.3378 1.75544 
8431 1 1.22393 -6.7176 0.870219 
8433 1 0.564656 8.59433 -2.39109 
13816 1 -0.218927 0.807685 -2.57436 
9488 3 -0.427521 -0.672252 1.79003 
9489 1 0.407862 -5.3676 -4.58055 
863 3 0.58633 0.7061 -0.15642 
862 1 3.96435 3.68134 3.41534 
19637 3 -4.67909 6.75285 -4.97374 
8963 3 -0.28457 -1.14935 0.99513 
8964 1 -6.5946 -0.384063 -0.0200499 
19638 1 4.38545 3.3991 -2.75597 
1555 1 -4.31648 3.38742 0.29308 
3281 2 0.84543 2.93443 3.3328 
3280 1 2.07026 1.99994 3.06866 
1556 3 2.4054 -2.20801 4.96018 
1557 1 2.31098 5.73843 0.722518 
8962 1 -2.09391 0.324593 3.92086 
1305 1 -1.49816 -2.66286 -1.85967 
4232 3 0.989556 -2.59033 -2.62536 
4233 1 -2.47105 0.111589 -6.28962 
20499 1 -0.902193 2.52381 2.86782 
4231 1 5.25221 3.24942 -0.735788 
20497 1 -8.57143 -0.599406 0.117414 
9460 1 -1.83627 5.53516 -2.92889 
575 3 -0.788742 1.20769 -1.72484 
9461 3 0.603081 4.15359 -1.43149 
576 1 1.07826 3.6472 1.17332 
9462 1 5.46633 -3.57172 -1.51715 
16100 2 3.52556 1.02196 0.556661 
16099 1 0.642024 4.92157 3.94876 
8578 1 0.627549 2.88264 4.81505 
8579 2 1.77596 -5.70343 -3.53865 
7020 1 -5.23974 -4.5116 -1.56262 
16101 1 -4.3053 -0.315241 0.145189 
7019 2 -2.7958 -1.60868 -2.07887 
7018 1 -4.07499 2.87656 -7.22318 
21391 1 -4.56802 7.80479 -6.70479 
21392 2 1.85283 4.20003 -5.64343 
16033 1 -4.65123 -0.539576 2.54341 
457 1 -0.177259 -1.45512 -0.639842 
6687 1 -0.347407 7.76795 1.96129 
21187 1 3.1712 2.0786 -3.59721 
6686 2 -1.55324 -4.06834 1.8287 
6685 1 0.692964 -1.02989 -1.02517 
7146 1 1.22939 1.41569 3.13942 
7145 2 1.5088 1.68751 0.126651 
2433 1 7.63781 -2.99076 -2.7443 
7144 1 -0.688539 -2.60802 3.2198 