ITEM: TIMESTEP
60000000
ITEM: NUMBER OF ENTRIES
2949
ITEM: BOX BOUNDS pp pp pp
0 50
0 50
0 50
ITEM: ENTRIES c_binfo[1] c_binfo[2] c_binfo[3] 
2 1111 1112 
1 5292 15445 
2 5291 5292 
2 15445 15446 
3 8105 8106 
2 5290 5291 
1 5290 8106 
3 8104 8105 
1 1113 8104 
2 1112 1113 
2 6680 6681 
3 12997 12998 
1 12997 13321 
3 12998 12999 
2 13321 13322 
2 13322 13323 
2 10570 10571 
2 10571 10572 
1 10572 13900 
3 13900 13901 
3 13901 13902 
2 15068 15069 
2 15067 15068 
2 16604 16605 
2 16603 16604 
1 2025 16603 
2 2024 2025 
1 15447 18996 
3 18995 18996 
2 15446 15447 
3 18994 18995 
2 2204 2205 
1 2205 17439 
2 13271 13272 
2 11443 11444 
1 11443 13270 
2 13270 13271 
2 11444 11445 
1 11859 12399 
2 12398 12399 
2 12397 12398 
1 1518 12397 
2 17438 17439 
2 17437 17438 
3 15878 15879 
3 15877 15878 
3 7348 7349 
1 7348 15877 
3 7349 7350 
2 20260 20261 
1 11403 12099 
2 12097 12098 
1 7350 12097 
2 12098 12099 
2 11402 11403 
2 11401 11402 
1 11401 17179 
2 17179 17180 
3 10945 10946 
3 1804 1805 
1 1804 10947 
3 10946 10947 
2 6679 6680 
1 6679 10945 
3 1805 1806 
3 11702 11703 
2 20261 20262 
1 6681 20262 
2 6421 6422 
1 6421 18267 
2 16802 16803 
2 19348 19349 
1 13323 19348 
2 19349 19350 
2 18542 18543 
1 13902 18541 
2 18541 18542 
2 13196 13197 
2 17572 17573 
1 15261 17572 
2 15259 15260 
1 15259 20277 
2 13195 13196 
2 17393 17394 
1 549 17392 
2 17392 17393 
1 15069 17574 
2 17573 17574 
2 548 549 
1 19350 20985 
2 20984 20985 
2 547 548 
1 547 8928 
3 21017 21018 
3 21016 21017 
2 15260 15261 
1 12861 13195 
2 12859 12860 
1 12859 21016 
2 12860 12861 
1 10062 14919 
2 10061 10062 
2 14918 14919 
2 14917 14918 
1 9900 14917 
2 12410 12411 
1 12411 13504 
2 2023 2024 
1 2023 10060 
2 10060 10061 
2 8926 8927 
1 8926 14014 
2 14014 14015 
2 8927 8928 
2 14015 14016 
3 6652 6653 
1 6652 21018 
3 6653 6654 
1 6654 19045 
2 19045 19046 
2 19046 19047 
2 13505 13506 
1 9903 13506 
2 15322 15323 
2 9901 9902 
1 9901 15322 
2 9902 9903 
2 13504 13505 
2 268 269 
1 268 9982 
3 6572 6573 
3 6571 6572 
1 3165 12322 
2 12322 12323 
2 12323 12324 
1 6573 12324 
2 3164 3165 
3 3685 3686 
1 3685 11857 
3 3686 3687 
2 3163 3164 
1 3163 3687 
2 11857 11858 
3 9175 9176 
2 11858 11859 
1 17109 19047 
2 17108 17109 
2 17107 17108 
1 17107 18793 
2 14896 14897 
2 14897 14898 
1 12846 15207 
2 12845 12846 
2 1517 1518 
2 7190 7191 
2 1516 1517 
1 1516 12844 
2 12844 12845 
2 2356 2357 
1 2356 7191 
2 2357 2358 
2 15323 15324 
2 18793 18794 
3 7288 7289 
1 14898 19483 
2 19483 19484 
2 19484 19485 
2 19385 19386 
1 19386 19485 
2 19384 19385 
1 4959 19384 
2 8161 8162 
1 8161 13740 
2 13739 13740 
2 13738 13739 
1 12654 13738 
3 12652 12653 
3 12653 12654 
2 16240 16241 
2 13198 13199 
3 5027 5028 
3 5026 5027 
1 5026 21207 
2 13735 13736 
2 13736 13737 
1 1284 13737 
2 17180 17181 
2 17677 17678 
1 17181 17677 
2 17678 17679 
2 13199 13200 
2 15037 15038 
2 8887 8888 
1 8887 15039 
2 15038 15039 
3 17516 17517 
3 21451 21452 
1 8844 21451 
3 21452 21453 
3 11701 11702 
1 11701 21453 
2 4912 4913 
1 4912 14325 
3 8843 8844 
3 1283 1284 
3 1282 1283 
1 1282 17496 
2 17495 17496 
3 8842 8843 
1 8842 14323 
2 14323 14324 
2 17494 17495 
2 18266 18267 
2 4913 4914 
2 1741 1742 
1 1741 9270 
2 1742 1743 
2 18265 18266 
1 4914 18265 
1 1743 17281 
2 17281 17282 
3 14177 14178 
1 14178 17515 
3 17515 17516 
1 13245 14176 
3 14176 14177 
2 13244 13245 
2 20276 20277 
2 20275 20276 
2 14324 14325 
2 3475 3476 
1 3475 15411 
2 15410 15411 
2 13243 13244 
1 13243 20275 
2 3476 3477 
3 5911 5912 
1 3477 5911 
2 5212 5213 
1 5212 16485 
2 20983 20984 
2 15409 15410 
1 18333 20097 
2 20096 20097 
2 20095 20096 
1 20095 20983 
2 13361 13362 
1 5214 13360 
2 13360 13361 
3 11378 11379 
3 11377 11378 
2 14441 14442 
2 17732 17733 
2 17731 17732 
2 9899 9900 
2 5213 5214 
2 14440 14441 
2 15040 15041 
2 9898 9899 
1 9898 15040 
2 15041 15042 
1 15042 20556 
1 7563 14016 
3 7675 7676 
3 7676 7677 
2 8269 8270 
1 7677 8269 
2 8270 8271 
2 7027 7028 
1 7027 8271 
1 7029 13167 
2 7028 7029 
1 9177 13165 
2 13165 13166 
1 2220 18718 
2 18718 18719 
2 2219 2220 
2 13166 13167 
2 2218 2219 
1 2218 8025 
2 8024 8025 
2 8023 8024 
1 8023 15324 
2 8144 8145 
2 1543 1544 
1 1543 8145 
2 9983 9984 
1 9984 16080 
2 9982 9983 
2 1544 1545 
2 16079 16080 
2 8143 8144 
1 8143 18868 
2 16078 16079 
2 18868 18869 
3 9176 9177 
3 1234 1235 
1 1234 8289 
2 8288 8289 
2 8287 8288 
1 8287 14238 
2 11522 11523 
1 663 11523 
2 662 663 
2 661 662 
1 661 4474 
2 4474 4475 
2 4475 4476 
2 18794 18795 
1 1545 5625 
2 5624 5625 
2 5623 5624 
2 1492 1493 
1 1492 5623 
2 1493 1494 
3 7289 7290 
1 1236 7290 
3 1235 1236 
2 11521 11522 
2 13670 13671 
2 320 321 
1 321 13669 
2 13669 13670 
2 20654 20655 
1 13671 17772 
1 4128 18795 
2 4127 4128 
2 4126 4127 
1 4126 20653 
2 20653 20654 
2 4958 4959 
2 17771 17772 
1 7104 15148 
2 15149 15150 
2 4957 4958 
1 4957 15150 
2 17770 17771 
1 17770 19846 
2 19846 19847 
2 19847 19848 
2 15148 15149 
3 10091 10092 
2 14927 14928 
3 10090 10091 
1 10090 14926 
2 14926 14927 
3 20548 20549 
1 18096 20548 
3 7601 7602 
3 7600 7601 
3 18095 18096 
3 12412 12413 
1 12412 19945 
3 19946 19947 
3 19945 19946 
3 12413 12414 
1 2751 19947 
3 2750 2751 
3 2749 2750 
1 2749 12163 
2 12163 12164 
3 21205 21206 
3 21206 21207 
3 128 129 
3 10276 10277 
1 10276 20088 
3 10277 10278 
3 127 128 
1 127 2472 
1 10278 12610 
3 12610 12611 
1 7602 12612 
3 12611 12612 
3 5125 5126 
1 5125 19914 
1 5127 9130 
3 9130 9131 
3 9131 9132 
3 16519 16520 
3 1714 1715 
1 1714 16519 
3 1715 1716 
3 16520 16521 
2 12164 12165 
1 1716 17283 
1 12165 17232 
2 17230 17231 
1 17230 18325 
2 17231 17232 
3 6482 6483 
3 6481 6482 
3 1945 1946 
1 1945 6483 
3 1946 1947 
3 2471 2472 
3 2470 2471 
2 8888 8889 
1 8889 16392 
3 16391 16392 
3 16390 16391 
3 5126 5127 
1 11784 12483 
3 12481 12482 
1 12481 18249 
3 12482 12483 
3 9622 9623 
3 11783 11784 
2 12832 12833 
1 12832 17494 
2 17282 17283 
2 12833 12834 
1 8670 12834 
2 8965 8966 
1 8965 17449 
3 8669 8670 
3 8668 8669 
1 2064 8668 
2 18325 18326 
2 2063 2064 
2 2062 2063 
1 2062 14329 
2 14329 14330 
2 18326 18327 
3 20314 20315 
3 11329 11330 
1 11329 16390 
3 11330 11331 
3 20315 20316 
3 5912 5913 
1 5913 20316 
3 11782 11783 
1 11782 15231 
3 15230 15231 
2 1055 1056 
3 15229 15230 
1 1056 15229 
1 6261 20934 
2 6260 6261 
2 18332 18333 
2 17449 17450 
1 17451 18331 
2 17450 17451 
2 18331 18332 
2 1054 1055 
1 1054 13362 
1 6216 15955 
2 15955 15956 
2 3893 3894 
2 3892 3893 
1 3894 14518 
2 18719 18720 
2 6259 6260 
2 2638 2639 
1 2638 18720 
2 2639 2640 
1 2640 8241 
2 8240 8241 
2 8239 8240 
1 8239 20617 
1 2979 19057 
2 21458 21459 
1 18870 21459 
2 6215 6216 
2 6214 6215 
1 6214 21457 
1 18363 20554 
2 21457 21458 
2 20554 20555 
2 20555 20556 
2 2978 2979 
2 2977 2978 
1 2977 20619 
2 20617 20618 
2 2941 2942 
1 2941 8685 
2 2942 2943 
3 8683 8684 
1 8683 11379 
3 8684 8685 
2 19822 19823 
1 19822 20083 
2 19823 19824 
2 9755 9756 
2 9754 9755 
1 9754 19824 
2 14518 14519 
2 14519 14520 
2 20906 20907 
2 8246 8247 
1 8247 14236 
1 14520 20907 
2 18361 18362 
2 10828 10829 
1 10828 18361 
2 10829 10830 
2 8245 8246 
1 8245 10830 
2 20905 20906 
1 2229 20905 
2 18362 18363 
2 18869 18870 
2 1285 1286 
1 1285 13717 
2 1286 1287 
1 1287 16078 
2 13717 13718 
2 16805 16806 
2 13718 13719 
2 14236 14237 
2 14237 14238 
2 2228 2229 
2 1357 1358 
1 1357 2227 
2 2227 2228 
2 3721 3722 
1 3721 5400 
2 3722 3723 
2 1358 1359 
1 1359 4476 
1 17844 21559 
2 5399 5400 
2 16804 16805 
1 16804 18018 
2 18017 18018 
2 18016 18017 
2 5398 5399 
1 5398 18016 
2 21560 21561 
2 19654 19655 
1 19654 21561 
2 21559 21560 
1 3717 3723 
2 2350 2351 
2 2351 2352 
2 319 320 
1 319 2352 
1 1494 4903 
2 4903 4904 
2 4904 4905 
2 13472 13473 
1 4905 13471 
2 13471 13472 
1 993 20154 
2 991 992 
1 991 11328 
2 11327 11328 
2 2968 2969 
1 2968 18271 
3 18271 18272 
3 18272 18273 
2 2969 2970 
1 2970 13473 
2 16190 16191 
1 16191 19848 
2 4298 4299 
2 4297 4298 
3 4466 4467 
1 14928 19347 
3 20549 20550 
1 13059 20550 
3 13058 13059 
3 13057 13058 
3 6487 6488 
1 6487 13057 
3 6488 6489 
1 4299 18442 
3 18442 18443 
3 18443 18444 
3 14047 14048 
1 14047 18444 
3 14048 14049 
1 11454 16521 
3 4465 4466 
3 4273 4274 
1 4273 12414 
3 4274 4275 
1 4275 13254 
3 11453 11454 
3 11452 11453 
3 13253 13254 
3 13252 13253 
1 13252 18754 
3 15301 15302 
3 15302 15303 
3 19346 19347 
1 10770 16417 
3 19345 19346 
3 20453 20454 
3 20452 20453 
1 18924 20452 
3 18614 18615 
3 18613 18614 
1 18613 20086 
3 20086 20087 
3 16417 16418 
3 16418 16419 
3 4471 4472 
1 4471 16419 
3 4472 4473 
3 20087 20088 
3 19913 19914 
1 11787 17904 
3 11785 11786 
1 11785 19912 
3 11786 11787 
3 19912 19913 
1 930 4473 
3 18094 18095 
3 3820 3821 
1 3820 18094 
1 7497 12537 
3 7496 7497 
3 7495 7496 
1 7495 12276 
3 3821 3822 
1 1689 3822 
3 1688 1689 
3 4180 4181 
3 1687 1688 
1 1687 4180 
1 1116 3375 
3 1115 1116 
3 3005 3006 
1 3006 8829 
3 3004 3005 
1 3004 19773 
3 3352 3353 
3 1114 1115 
1 1114 3354 
3 3353 3354 
2 755 756 
3 5503 5504 
1 5503 6100 
3 6100 6101 
2 754 755 
1 754 6102 
3 6101 6102 
3 5504 5505 
3 3976 3977 
1 3976 5505 
3 3977 3978 
1 3978 10522 
1 1947 4291 
3 4291 4292 
3 4292 4293 
1 4293 18247 
3 18247 18248 
3 10522 10523 
3 10523 10524 
1 5010 10524 
3 5009 5010 
3 929 930 
3 928 929 
1 928 2478 
3 18248 18249 
3 12275 12276 
3 12274 12275 
1 4230 9624 
3 4229 4230 
3 9623 9624 
3 3374 3375 
3 3373 3374 
3 830 831 
1 831 3373 
3 829 830 
1 829 8967 
3 20254 20255 
3 20255 20256 
2 8966 8967 
2 10283 10284 
1 10284 19702 
3 19702 19703 
3 19703 19704 
2 19772 19773 
2 19771 19772 
1 7047 19771 
1 11331 18802 
3 18802 18803 
3 18803 18804 
3 12952 12953 
1 12952 18804 
3 17465 17466 
3 4228 4229 
1 4228 20932 
3 20932 20933 
3 17464 17465 
3 10408 10409 
1 10408 17464 
3 10655 10656 
1 10656 17730 
3 20933 20934 
3 10409 10410 
1 15423 20254 
3 15422 15423 
2 17729 17730 
2 3055 3056 
1 3055 17728 
2 17728 17729 
2 3056 3057 
2 15956 15957 
3 15421 15422 
2 10282 10283 
1 10282 15957 
2 7819 7820 
1 7819 15421 
2 7820 7821 
1 5280 7821 
3 12953 12954 
3 12112 12113 
1 12112 12954 
3 12113 12114 
3 10654 10655 
3 7480 7481 
1 7480 8407 
2 8408 8409 
2 8407 8408 
2 20084 20085 
1 12114 20085 
3 289 290 
1 289 4294 
3 290 291 
1 291 405 
2 4294 4295 
1 4296 16641 
2 4295 4296 
2 16640 16641 
2 16639 16640 
2 16492 16493 
2 8779 8780 
1 8779 16639 
2 8780 8781 
1 8781 14386 
2 5278 5279 
1 5278 16492 
2 5279 5280 
2 20618 20619 
3 7481 7482 
2 20083 20084 
1 7482 14218 
2 14218 14219 
1 5583 14220 
2 14219 14220 
2 7262 7263 
2 7261 7262 
2 5582 5583 
2 14387 14388 
1 3153 14388 
2 14386 14387 
2 5581 5582 
1 5581 13719 
2 9010 9011 
2 9011 9012 
2 3152 3153 
2 3151 3152 
1 3151 12187 
1 6177 9012 
2 19655 19656 
2 12187 12188 
1 513 12189 
2 12188 12189 
2 3637 3638 
1 3637 13596 
2 13595 13596 
2 3716 3717 
2 3715 3716 
1 3715 9969 
2 9968 9969 
2 9967 9968 
1 9967 14614 
2 14614 14615 
2 992 993 
2 13594 13595 
1 5337 11326 
2 11326 11327 
2 5336 5337 
2 5335 5336 
1 5335 16939 
2 16939 16940 
1 2913 13594 
2 3496 3497 
2 3497 3498 
2 2734 2735 
1 2734 3496 
1 9642 16404 
3 16403 16404 
3 5630 5631 
1 5631 9640 
2 9641 9642 
2 9640 9641 
2 16940 16941 
3 18923 18924 
3 18922 18923 
1 6489 9169 
3 9169 9170 
3 9170 9171 
1 5790 18922 
3 5788 5789 
1 5788 16027 
3 5789 5790 
1 9171 14508 
3 14507 14508 
3 14506 14507 
3 5107 5108 
1 5107 14506 
3 5108 5109 
1 5109 5757 
3 5756 5757 
3 5755 5756 
3 18754 18755 
3 7129 7130 
1 7129 15303 
3 7130 7131 
3 17005 17006 
1 12057 17005 
2 818 819 
2 817 818 
1 817 7131 
3 10768 10769 
3 10769 10770 
3 4873 4874 
3 4874 4875 
1 4875 15730 
2 15730 15731 
3 17903 17904 
3 16027 16028 
3 12535 12536 
3 17902 17903 
3 10525 10526 
1 10525 17902 
3 10526 10527 
3 16028 16029 
3 12536 12537 
3 4181 4182 
1 2904 14049 
3 20891 20892 
1 4182 10281 
3 10280 10281 
3 18806 18807 
3 2903 2904 
1 18807 20890 
3 20890 20891 
3 2902 2903 
1 2902 14254 
3 14254 14255 
3 14255 14256 
3 18805 18806 
3 18755 18756 
3 1457 1458 
3 1456 1457 
1 1456 12055 
3 16456 16457 
1 16456 19969 
3 16457 16458 
3 1603 1604 
1 1603 16458 
3 1604 1605 
3 12055 12056 
3 12056 12057 
2 19969 19970 
3 15293 15294 
3 15292 15293 
1 15294 16761 
3 16760 16761 
3 16759 16760 
1 4287 16759 
3 2477 2478 
1 10527 18202 
3 18202 18203 
3 18203 18204 
1 11097 18204 
3 10279 10280 
3 11096 11097 
3 2476 2477 
1 2476 10279 
1 2502 6999 
1 9210 19324 
3 6997 6998 
1 6997 11095 
3 6998 6999 
3 11095 11096 
3 19324 19325 
3 19325 19326 
3 9209 9210 
3 2501 2502 
3 2500 2501 
1 2500 20256 
3 16873 16874 
3 7045 7046 
1 7045 16873 
3 7669 7670 
1 7669 14484 
3 9208 9209 
1 9208 16875 
3 16874 16875 
3 9172 9173 
1 9172 14482 
3 14482 14483 
3 14483 14484 
3 373 374 
1 373 19704 
3 9173 9174 
3 7046 7047 
1 15285 15535 
3 15535 15536 
1 9174 15537 
3 15536 15537 
3 4286 4287 
3 5008 5009 
1 5008 20173 
3 4285 4286 
3 20173 20174 
3 1082 1083 
3 3187 3188 
3 1081 1082 
1 1081 3187 
1 1083 4285 
3 3188 3189 
3 20174 20175 
3 8603 8604 
3 8602 8603 
1 4761 8602 
3 6934 6935 
1 6934 8604 
3 13627 13628 
1 13627 20175 
3 13628 13629 
1 13629 14481 
3 7670 7671 
1 7671 18240 
3 4397 4398 
1 4398 10410 
2 11899 11900 
3 4396 4397 
1 4396 11899 
3 14480 14481 
2 11900 11901 
3 374 375 
1 375 19363 
2 19363 19364 
2 20884 20885 
2 8557 8558 
1 8557 11901 
2 8558 8559 
2 19364 19365 
3 4828 4829 
3 4829 4830 
3 403 404 
1 403 3189 
3 404 405 
1 4830 10321 
3 10321 10322 
3 7300 7301 
1 7300 10323 
3 10322 10323 
3 6935 6936 
3 7301 7302 
3 14479 14480 
2 1183 1184 
1 1183 14479 
2 1184 1185 
1 1185 8326 
2 8326 8327 
2 8327 8328 
1 7302 18856 
2 18856 18857 
1 3243 18858 
2 18857 18858 
2 18784 18785 
1 10596 18784 
2 18785 18786 
1 8328 21003 
1 8559 18786 
2 3241 3242 
1 3241 5782 
2 5782 5783 
1 5784 7380 
2 5783 5784 
2 3242 3243 
3 20627 20628 
1 18168 20626 
3 20626 20627 
2 18167 18168 
2 18166 18167 
1 7263 18166 
2 4400 4401 
1 4401 10905 
2 10904 10905 
2 7973 7974 
2 21002 21003 
2 6175 6176 
1 6175 17968 
2 21001 21002 
2 6176 6177 
2 9676 9677 
1 9676 21001 
2 10903 10904 
1 10903 19701 
2 19700 19701 
2 17968 17969 
3 10675 10676 
1 10675 13429 
3 10676 10677 
2 13429 13430 
1 10320 14616 
2 14615 14616 
2 13430 13431 
2 10318 10319 
1 10318 19929 
2 10319 10320 
2 1363 1364 
1 1363 14565 
2 7972 7973 
1 3639 13431 
2 3638 3639 
2 19699 19700 
2 16957 16958 
1 16957 19699 
2 14564 14565 
2 6439 6440 
1 6439 14563 
2 14563 14564 
2 16958 16959 
1 14961 19662 
2 166 167 
1 166 16672 
2 167 168 
2 11287 11288 
1 11287 21291 
2 3178 3179 
1 3178 3498 
2 21289 21290 
2 3179 3180 
1 3180 21289 
2 21290 21291 
2 19660 19661 
2 583 584 
1 583 19660 
2 584 585 
1 585 16402 
3 16402 16403 
2 19661 19662 
1 10416 21129 
1 16941 18850 
2 18850 18851 
2 18851 18852 
2 16534 16535 
1 16534 18852 
2 19471 19472 
1 19471 21127 
3 21127 21128 
3 21128 21129 
2 19472 19473 
1 12180 19473 
3 13753 13754 
3 13754 13755 
3 7168 7169 
1 7168 13755 
3 7951 7952 
1 7951 20892 
3 7952 7953 
1 7953 20755 
3 20755 20756 
3 7169 7170 
3 20756 20757 
3 17006 17007 
3 18991 18992 
3 18992 18993 
1 18993 19857 
3 19856 19857 
3 19855 19856 
3 4651 4652 
1 4651 16029 
3 4652 4653 
1 2208 4653 
3 2207 2208 
3 3823 3824 
1 3823 14256 
1 3222 7170 
3 3220 3221 
1 3220 14082 
3 3221 3222 
3 14081 14082 
3 3824 3825 
1 1605 10045 
3 10045 10046 
1 1458 20757 
3 2905 2906 
1 2905 3825 
3 2906 2907 
3 14153 14154 
3 7139 7140 
3 7138 7139 
3 11470 11471 
1 11470 14154 
3 11471 11472 
1 7140 11472 
2 15731 15732 
1 7593 15732 
3 7592 7593 
3 7591 7592 
1 7591 15559 
3 15559 15560 
3 15560 15561 
1 1509 15561 
3 2206 2207 
1 2206 15702 
3 15701 15702 
3 1508 1509 
3 1507 1508 
1 1507 19326 
3 14080 14081 
3 6304 6305 
1 6304 14080 
3 6305 6306 
3 5926 5927 
1 5926 6306 
3 8783 8784 
3 8782 8783 
3 3328 3329 
1 3328 8782 
3 3329 3330 
3 12847 12848 
3 12848 12849 
1 12849 13950 
3 11555 11556 
3 133 134 
1 133 11556 
3 10046 10047 
1 10047 12847 
2 17822 17823 
3 134 135 
1 16134 17823 
3 16133 16134 
1 135 16132 
3 16132 16133 
3 1409 1410 
3 1408 1409 
1 1408 4759 
3 1703 1704 
1 429 1704 
3 4759 4760 
3 4760 4761 
3 428 429 
3 427 428 
1 427 702 
3 701 702 
3 700 701 
1 700 802 
3 802 803 
3 18239 18240 
3 1702 1703 
1 1702 18238 
3 18238 18239 
3 17549 17550 
3 17548 17549 
1 10293 17550 
3 10291 10292 
1 10291 18349 
3 10292 10293 
3 18349 18350 
1 3294 5928 
1 1551 17548 
3 5927 5928 
3 6391 6392 
1 6391 20886 
3 6392 6393 
3 1549 1550 
1 1549 6393 
3 1550 1551 
1 3330 6952 
3 6952 6953 
3 6953 6954 
1 6954 17745 
2 17821 17822 
1 17821 18295 
2 18295 18296 
2 20885 20886 
3 17743 17744 
3 13949 13950 
3 13948 13949 
1 13948 18663 
2 18661 18662 
1 18661 19411 
2 18662 18663 
2 17383 17384 
1 17383 17743 
3 2890 2891 
1 2890 6936 
3 2891 2892 
1 2892 6849 
3 9034 9035 
3 9035 9036 
3 6848 6849 
3 6847 6848 
1 6847 11152 
1 9036 19885 
3 19885 19886 
3 19886 19887 
2 17384 17385 
1 7764 17385 
2 7763 7764 
2 7762 7763 
1 7762 15795 
2 15794 15795 
2 17984 17985 
3 11152 11153 
3 11153 11154 
1 11154 13648 
3 13648 13649 
2 4399 4400 
1 4399 16815 
3 13649 13650 
1 13650 19230 
2 15793 15794 
1 15793 18051 
2 9677 9678 
2 16814 16815 
2 21295 21296 
2 16813 16814 
1 16813 17985 
2 17983 17984 
2 5773 5774 
1 5773 9678 
2 5774 5775 
1 1596 17983 
2 1595 1596 
2 19928 19929 
2 19228 19229 
2 19229 19230 
1 17382 17452 
2 6440 6441 
1 5775 19927 
2 17381 17382 
2 19927 19928 
1 16959 17380 
2 17380 17381 
2 17452 17453 
3 14960 14961 
3 14959 14960 
2 16672 16673 
2 16673 16674 
2 8173 8174 
2 8174 8175 
2 15191 15192 
2 15190 15191 
1 15190 16536 
2 16535 16536 
3 11504 11505 
3 11503 11504 
1 11503 12142 
3 12142 12143 
3 12143 12144 
1 12144 19993 
3 19993 19994 
3 19994 19995 
3 49 50 
1 49 19995 
1 693 2907 
3 14152 14153 
3 692 693 
3 691 692 
3 15700 15701 
1 1554 15700 
3 1553 1554 
3 14609 14610 
3 14608 14609 
3 2704 2705 
1 2704 14608 
3 2705 2706 
1 20994 21577 
3 21577 21578 
1 2706 11554 
3 11554 11555 
3 20993 20994 
3 20992 20993 
3 21578 21579 
2 7156 7157 
3 3293 3294 
3 3292 3293 
1 3292 10909 
3 1552 1553 
1 1552 7158 
3 18350 18351 
2 7157 7158 
3 10909 10910 
3 10910 10911 
3 17744 17745 
3 3433 3434 
1 3433 20992 
3 3434 3435 
1 3435 4762 
2 4762 4763 
3 803 804 
3 8990 8991 
1 804 8989 
3 8989 8990 
1 3249 10911 
3 12427 12428 
3 12428 12429 
2 11140 11141 
1 11140 19887 
2 11141 11142 
1 11142 16318 
2 16318 16319 
2 16319 16320 
2 7582 7583 
1 7584 12429 
2 7583 7584 
2 21296 21297 
2 20017 20018 
1 20017 21163 
1 20019 21297 
2 20018 20019 
3 21163 21164 
3 11047 11048 
3 11048 11049 
1 11049 19228 
2 7832 7833 
2 7831 7832 
1 7831 7971 
3 50 51 
2 4763 4764 
2 3248 3249 
2 3247 3248 
3 12385 12386 
3 12386 12387 
1 12387 21165 
3 21164 21165 
2 8210 8211 
2 4115 4116 
1 4116 16605 
2 16424 16425 
3 19990 19991 
3 19991 19992 
2 16876 16877 
2 16877 16878 
3 13847 13848 
3 13846 13847 
1 13846 14343 
2 17990 17991 
2 17989 17990 
1 16962 17394 
2 16961 16962 
2 16960 16961 
2 1247 1248 
2 5852 5853 
2 4114 4115 
1 4114 5853 
2 5851 5852 
1 2562 5851 
2 2561 2562 
2 11389 11390 
2 1246 1247 
2 16423 16424 
2 9295 9296 
1 9295 16423 
2 18790 18791 
1 18790 20679 
2 18791 18792 
2 16625 16626 
2 16624 16625 
1 1167 16624 
1 16626 19992 
2 7505 7506 
2 7504 7505 
1 7504 11389 
1 7506 12409 
2 2560 2561 
1 2560 5748 
2 7730 7731 
2 12409 12410 
2 17582 17583 
2 9296 9297 
1 9297 20304 
2 5747 5748 
2 5746 5747 
1 5746 17583 
1 10707 18792 
2 10706 10707 
2 10705 10706 
1 3612 10705 
2 13636 13637 
2 13637 13638 
2 21146 21147 
2 21145 21146 
2 2203 2204 
1 2203 21145 
2 15835 15836 
1 3771 15835 
2 7729 7730 
1 7729 21147 
2 17581 17582 
1 17581 18951 
2 18950 18951 
2 18949 18950 
2 13882 13883 
1 13882 18949 
2 13883 13884 
2 3770 3771 
2 3769 3770 
1 3769 16693 
2 16693 16694 
2 16694 16695 
1 5874 20506 
2 20506 20507 
1 13884 15682 
2 3611 3612 
2 15682 15683 
2 15683 15684 
2 10345 10346 
1 10345 15684 
2 3610 3611 
1 3610 3640 
2 3640 3641 
2 15836 15837 
2 15205 15206 
1 15205 15837 
2 15206 15207 
2 20257 20258 
2 20258 20259 
2 3157 3158 
1 3157 16878 
2 3158 3159 
2 20507 20508 
1 3159 13926 
3 19952 19953 
2 20066 20067 
3 20449 20450 
1 20259 20449 
3 20450 20451 
2 11282 11283 
2 6616 6617 
1 6616 11283 
2 6617 6618 
2 14342 14343 
2 11281 11282 
1 11281 14341 
2 14341 14342 
2 17405 17406 
2 17404 17405 
2 16801 16802 
1 16801 17406 
2 13972 13973 
1 13972 17679 
2 13391 13392 
2 13390 13391 
1 13390 18834 
1 9327 15112 
2 9326 9327 
2 9325 9326 
1 9325 17244 
1 6423 18865 
2 6422 6423 
2 12581 12582 
2 12580 12581 
2 15112 15113 
2 18865 18866 
2 18866 18867 
2 15113 15114 
2 2875 2876 
1 2875 21043 
2 21043 21044 
1 11391 16483 
2 16483 16484 
2 11390 11391 
2 16484 16485 
2 766 767 
1 766 18867 
2 767 768 
2 2876 2877 
1 2877 11218 
2 11218 11219 
2 11219 11220 
1 11220 12580 
2 20302 20303 
1 8610 20302 
2 8609 8610 
2 20678 20679 
2 20677 20678 
2 8608 8609 
2 826 827 
1 826 20677 
2 827 828 
2 1166 1167 
2 1165 1166 
2 454 455 
1 454 1165 
2 455 456 
1 7728 10642 
2 10643 10644 
2 10642 10643 
1 10644 16053 
2 17926 17927 
2 1375 1376 
1 1375 17926 
2 1376 1377 
2 21044 21045 
1 11466 21045 
2 11465 11466 
2 11464 11465 
1 7731 11464 
1 14625 16695 
2 20303 20304 
2 14624 14625 
2 14623 14624 
2 13273 13274 
1 13273 14623 
2 13274 13275 
1 10722 16261 
2 16261 16262 
1 828 4065 
2 4064 4065 
2 10451 10452 
2 10450 10451 
1 10450 16051 
2 16051 16052 
1 10452 15762 
2 10426 10427 
1 10426 15760 
2 15760 15761 
2 15761 15762 
2 16052 16053 
2 4063 4064 
1 4063 16848 
2 16847 16848 
2 16846 16847 
2 4252 4253 
1 4252 16846 
1 5727 13230 
2 5726 5727 
2 5725 5726 
1 5725 17928 
2 8606 8607 
2 8605 8606 
1 8605 10564 
2 17927 17928 
2 8386 8387 
1 270 8386 
2 8387 8388 
2 8648 8649 
2 8647 8648 
2 269 270 
2 16138 16139 
1 8526 16138 
2 8524 8525 
2 5872 5873 
1 5872 8524 
2 5873 5874 
2 16262 16263 
2 16228 16229 
1 16228 16263 
2 8525 8526 
2 16229 16230 
1 14517 16230 
2 10346 10347 
2 3641 3642 
1 3642 14886 
2 14885 14886 
2 14884 14885 
2 10565 10566 
1 10566 21504 
2 21503 21504 
2 10564 10565 
2 21502 21503 
2 16451 16452 
2 5569 5570 
1 5569 5614 
2 16450 16451 
1 5571 8647 
2 5570 5571 
2 5614 5615 
2 7189 7190 
1 7189 8388 
2 3359 3360 
2 3358 3359 
1 3358 20508 
2 6170 6171 
1 5232 6171 
2 6169 6170 
1 3363 6169 
3 13924 13925 
3 13925 13926 
2 5231 5232 
2 5230 5231 
1 10347 21400 
2 21400 21401 
2 21401 21402 
1 5358 21402 
3 19951 19952 
3 14278 14279 
3 14279 14280 
2 1561 1562 
1 1561 14280 
2 1562 1563 
2 20065 20066 
2 13318 13319 
1 13318 16452 
2 7096 7097 
1 7096 20065 
2 18782 18783 
1 13320 18781 
2 18781 18782 
2 13319 13320 
2 7097 7098 
2 3361 3362 
1 3361 7098 
2 3362 3363 
2 11093 11094 
2 7360 7361 
1 7360 13924 
2 7361 7362 
1 7362 11094 
3 17477 17478 
1 8163 18783 
2 7103 7104 
2 8162 8163 
1 6618 16242 
2 16241 16242 
2 13973 13974 
2 10708 10709 
1 10708 19795 
2 19795 19796 
2 19796 19797 
2 18833 18834 
2 10709 10710 
1 10710 13392 
2 18832 18833 
1 18832 20208 
2 20207 20208 
2 20206 20207 
2 14065 14066 
1 14065 20206 
1 384 8308 
2 14066 14067 
2 418 419 
1 418 2721 
2 419 420 
1 7665 14067 
2 9268 9269 
1 9268 10939 
2 10939 10940 
2 10940 10941 
2 1198 1199 
1 1198 10941 
2 2626 2627 
1 2626 18327 
2 9269 9270 
2 17243 17244 
2 17242 17243 
1 17242 17403 
3 17402 17403 
3 17401 17402 
1 8310 17401 
2 1199 1200 
2 16756 16757 
1 1200 5809 
1 9747 16756 
2 11296 11297 
1 11296 12582 
2 8309 8310 
2 8308 8309 
2 11297 11298 
2 9746 9747 
2 19421 19422 
2 19420 19421 
2 4265 4266 
1 4266 19420 
2 4264 4265 
1 4264 4983 
2 4982 4983 
2 4981 4982 
1 15114 19368 
2 19366 19367 
2 14656 14657 
1 14656 19366 
2 19367 19368 
2 5809 5810 
2 8849 8850 
2 8848 8849 
1 8565 8848 
2 5810 5811 
1 5811 6648 
2 4066 4067 
1 4066 8850 
2 4067 4068 
2 6647 6648 
2 8825 8826 
2 8824 8825 
1 8824 10428 
1 11298 20197 
2 20197 20198 
2 5173 5174 
1 5173 13356 
2 20198 20199 
1 456 19422 
2 7727 7728 
2 13355 13356 
2 7726 7727 
1 7726 17814 
2 13354 13355 
1 13354 20100 
2 20099 20100 
2 17813 17814 
2 17812 17813 
2 6250 6251 
1 6250 17812 
2 6251 6252 
1 16608 18259 
2 16607 16608 
2 16606 16607 
1 8088 16606 
2 8087 8088 
2 18259 18260 
2 10720 10721 
2 10721 10722 
2 14657 14658 
1 12963 14658 
2 12962 12963 
2 7561 7562 
2 7562 7563 
1 4068 13275 
2 5587 5588 
1 5587 10866 
2 5588 5589 
1 5589 13707 
2 6817 6818 
1 6817 9789 
1 8475 13705 
2 13706 13707 
2 13705 13706 
2 10427 10428 
2 20939 20940 
2 5174 5175 
1 5175 20938 
2 20938 20939 
1 16140 20940 
2 6274 6275 
1 6274 13350 
2 13228 13229 
2 13229 13230 
2 7249 7250 
1 7249 13228 
2 7250 7251 
1 6276 7251 
2 6275 6276 
2 4253 4254 
1 4254 10251 
2 10250 10251 
2 10249 10250 
1 10249 20778 
2 8086 8087 
1 8086 15832 
2 15832 15833 
2 15833 15834 
1 15834 17529 
2 12961 12962 
1 12961 19360 
2 19360 19361 
2 19361 19362 
1 8649 19362 
2 15266 15267 
2 15265 15266 
2 10865 10866 
2 9788 9789 
2 13448 13449 
2 9787 9788 
1 9787 13449 
2 10864 10865 
1 8679 10864 
2 8678 8679 
2 13447 13448 
1 13447 19116 
2 16139 16140 
2 3265 3266 
1 3265 14884 
2 9418 9419 
1 8361 9418 
2 8360 8361 
1 3267 16933 
2 3266 3267 
2 16933 16934 
2 9419 9420 
2 16934 16935 
2 8359 8360 
1 8359 21502 
2 10804 10805 
1 5148 10804 
2 5147 5148 
2 5146 5147 
1 5146 5605 
2 5605 5606 
2 5606 5607 
2 20776 20777 
3 17528 17529 
2 10805 10806 
2 20777 20778 
3 17527 17528 
2 3190 3191 
1 3190 16450 
2 3191 3192 
2 5615 5616 
2 19114 19115 
2 9796 9797 
1 9796 19114 
2 9797 9798 
1 3192 15267 
2 19115 19116 
1 9798 17842 
2 17842 17843 
2 502 503 
1 502 15265 
2 8677 8678 
1 8677 13584 
2 14516 14517 
2 14515 14516 
2 1027 1028 
1 1027 14515 
2 1028 1029 
1 1029 13977 
2 13583 13584 
2 13582 13583 
2 5357 5358 
2 16339 16340 
1 2916 16339 
2 2915 2916 
2 5356 5357 
2 2914 2915 
1 2914 5356 
2 9878 9879 
2 9877 9878 
1 9877 15222 
2 15221 15222 
1 1563 15220 
2 15220 15221 
2 1463 1464 
2 1462 1463 
2 16498 16499 
1 5616 13672 
2 13672 13673 
2 13673 13674 
2 12136 12137 
1 12136 13788 
2 13787 13788 
1 13674 20655 
2 16499 16500 
2 11092 11093 
2 2995 2996 
1 2995 11092 
2 13976 13977 
2 13975 13976 
1 13975 18465 
2 2996 2997 
1 2997 16371 
2 16370 16371 
2 18464 18465 
2 3160 3161 
1 3162 17476 
2 3161 3162 
3 17476 17477 
2 12137 12138 
2 7102 7103 
1 7102 12138 
2 4432 4433 
2 4433 4434 
1 4434 7690 
3 7690 7691 
3 16517 16518 
3 7691 7692 
1 7692 16516 
3 16516 16517 
3 21110 21111 
1 6699 21111 
3 21109 21110 
2 6697 6698 
1 6697 16518 
2 6698 6699 
3 15725 15726 
3 15724 15725 
1 15724 19488 
3 19487 19488 
3 5 6 
3 4 5 
2 4643 4644 
2 4642 4643 
1 1269 4642 
1 4644 15726 
1 6 14607 
3 14606 14607 
3 15202 15203 
3 15203 15204 
1 8589 15204 
2 8588 8589 
2 8587 8588 
1 8587 15391 
2 15391 15392 
2 4915 4916 
1 4915 19797 
2 6520 6521 
1 6520 17868 
1 7614 16128 
2 17867 17868 
2 17866 17867 
2 15494 15495 
1 15495 21444 
2 21443 21444 
2 21442 21443 
2 18499 18500 
1 18499 21442 
2 16127 16128 
1 7425 16126 
2 16126 16127 
2 7568 7569 
2 18500 18501 
2 7567 7568 
1 7567 18501 
2 383 384 
2 382 383 
1 382 13954 
2 13954 13955 
2 18722 18723 
2 2719 2720 
1 2719 7569 
2 2720 2721 
2 14128 14129 
2 7663 7664 
1 7663 14128 
2 7664 7665 
2 14129 14130 
1 14130 16093 
3 16093 16094 
3 16094 16095 
2 7613 7614 
2 4916 4917 
2 7612 7613 
1 7612 14331 
1 4917 15120 
2 14330 14331 
2 15119 15120 
2 15118 15119 
2 2627 2628 
2 15493 15494 
1 15493 16758 
2 16757 16758 
2 12020 12021 
2 12019 12020 
2 5626 5627 
1 5626 12019 
2 13585 13586 
1 13585 13956 
1 10449 20811 
2 13955 13956 
1 5628 9745 
2 9745 9746 
2 10448 10449 
2 10447 10448 
1 10447 16714 
2 16714 16715 
2 16715 16716 
2 20810 20811 
2 20809 20810 
1 13296 20809 
1 1314 20412 
2 13295 13296 
2 13294 13295 
1 13294 13540 
2 13540 13541 
2 15386 15387 
2 1312 1313 
1 1312 15387 
2 1313 1314 
2 13541 13542 
1 13542 20353 
2 20353 20354 
2 20354 20355 
2 2491 2492 
1 2491 2628 
2 17345 17346 
1 2493 17346 
2 17344 17345 
1 12258 15118 
2 12257 12258 
2 2492 2493 
2 12256 12257 
1 12256 15087 
2 8564 8565 
2 19789 19790 
2 8563 8564 
1 8563 19789 
2 19790 19791 
2 20500 20501 
1 19791 20500 
2 6646 6647 
1 6646 18315 
2 5627 5628 
2 115 116 
1 115 16716 
2 12508 12509 
1 12508 20199 
2 116 117 
1 117 871 
2 871 872 
2 872 873 
1 5007 12510 
2 5006 5007 
2 12509 12510 
2 20098 20099 
2 13889 13890 
2 13888 13889 
1 13888 15385 
2 5149 5150 
1 5149 20098 
2 15385 15386 
2 5150 5151 
1 5151 17040 
2 17039 17040 
1 13890 18261 
2 18260 18261 
3 16697 16698 
1 1575 16698 
2 1574 1575 
2 8674 8675 
1 8674 20355 
3 16696 16697 
2 8473 8474 
1 8473 17344 
2 8474 8475 
2 644 645 
1 645 19059 
2 19058 19059 
2 643 644 
1 643 20502 
2 19057 19058 
2 18314 18315 
2 20501 20502 
1 12378 18313 
2 18313 18314 
2 6818 6819 
2 12377 12378 
2 12376 12377 
2 2488 2489 
1 2488 12376 
2 2489 2490 
1 873 17226 
2 17225 17226 
2 17224 17225 
2 1072 1073 
1 1072 17224 
2 13348 13349 
1 13348 21540 
2 13349 13350 
2 21539 21540 
2 21538 21539 
2 9184 9185 
1 9184 18283 
2 16765 16766 
1 16765 18285 
2 18283 18284 
2 18284 18285 
1 6252 6604 
2 6604 6605 
2 6605 6606 
1 6606 17340 
2 9185 9186 
2 17339 17340 
2 17338 17339 
1 17338 20928 
2 1573 1574 
1 1573 9186 
2 12296 12297 
2 14491 14492 
1 12297 14491 
2 14492 14493 
2 13933 13934 
2 12295 12296 
2 13934 13935 
1 504 13933 
1 3840 13935 
2 3284 3285 
1 14493 16806 
2 10084 10085 
1 10084 12295 
2 4726 4727 
1 4726 6819 
2 10085 10086 
2 2302 2303 
1 2302 10086 
2 4727 4728 
1 4728 5118 
2 3838 3839 
1 2490 3838 
2 1073 1074 
1 1074 9420 
2 5116 5117 
1 5116 16935 
2 5117 5118 
2 12697 12698 
1 12697 17739 
2 17738 17739 
2 17737 17738 
1 17737 21538 
2 12698 12699 
2 20926 20927 
2 3100 3101 
1 3100 20926 
2 3101 3102 
1 3102 20947 
2 20947 20948 
2 5470 5471 
1 5470 5607 
1 11229 20776 
2 11228 11229 
2 11227 11228 
1 11227 17431 
2 20927 20928 
2 17431 17432 
2 17432 17433 
3 9100 9101 
1 9100 17433 
2 503 504 
2 511 512 
1 511 9310 
2 9310 9311 
2 9311 9312 
2 17843 17844 
1 1791 13309 
2 13309 13310 
2 512 513 