ITEM: TIMESTEP
0
ITEM: NUMBER OF ATOMS
2379
ITEM: BOX BOUNDS pp pp pp
0.0000000000000000e+00 5.0000000000000000e+01
0.0000000000000000e+00 5.0000000000000000e+01
0.0000000000000000e+00 5.0000000000000000e+01
ITEM: ATOMS id type 
13 1 
14 2 
15 1 
16 1 
17 2 
18 1 
22 1 
23 3 
24 1 
121 1 
122 2 
123 1 
145 1 
146 3 
147 1 
193 1 
194 2 
195 1 
247 1 
248 2 
249 1 
307 1 
308 2 
309 1 
313 1 
314 3 
315 1 
370 1 
371 2 
372 1 
499 1 
500 3 
501 1 
1150 1 
1151 2 
1152 1 
1264 1 
1265 3 
1266 1 
1345 1 
1346 3 
1347 1 
1390 1 
1391 3 
1392 1 
1393 1 
1394 3 
1395 1 
1402 1 
1403 3 
1404 1 
1504 1 
1505 2 
1506 1 
1510 1 
1511 3 
1512 1 
1579 1 
1580 3 
1581 1 
1582 1 
1583 3 
1584 1 
1636 1 
1637 3 
1638 1 
2230 1 
2231 3 
2232 1 
2242 1 
2243 3 
2244 1 
2287 1 
2288 2 
2289 1 
2362 1 
2363 3 
2364 1 
2365 1 
2366 3 
2367 1 
2419 1 
2420 3 
2421 1 
2464 1 
2465 2 
2466 1 
2536 1 
2537 3 
2538 1 
2542 1 
2543 3 
2544 1 
2593 1 
2594 3 
2595 1 
2596 1 
2597 3 
2598 1 
3181 1 
3182 2 
3183 1 
3256 1 
3257 3 
3258 1 
3268 1 
3269 2 
3270 1 
3490 1 
3491 2 
3492 1 
3559 1 
3560 3 
3561 1 
3601 1 
3602 3 
3603 1 
3739 1 
3740 2 
3741 1 
3748 1 
3749 3 
3750 1 
4324 1 
4325 3 
4326 1 
4456 1 
4457 2 
4458 1 
4501 1 
4502 3 
4503 1 
4585 1 
4586 3 
4587 1 
4699 1 
4700 3 
4701 1 
4708 1 
4709 3 
4710 1 
4753 1 
4754 2 
4755 1 
4756 1 
4757 2 
4758 1 
4765 1 
4766 3 
4767 1 
4822 1 
4823 2 
4824 1 
4867 1 
4868 3 
4869 1 
5521 1 
5522 2 
5523 1 
5599 1 
5600 3 
5601 1 
5644 1 
5645 3 
5646 1 
5662 1 
5663 3 
5664 1 
5668 1 
5669 2 
5670 1 
5704 1 
5705 2 
5706 1 
5767 1 
5768 3 
5769 1 
5848 1 
5849 2 
5850 1 
5881 1 
5882 2 
5883 1 
5893 1 
5894 2 
5895 1 
5965 1 
5966 3 
5967 1 
6025 1 
6026 3 
6027 1 
6661 1 
6662 2 
6663 1 
6721 1 
6722 3 
6723 1 
6805 1 
6806 3 
6807 1 
6859 1 
6860 3 
6861 1 
6922 1 
6923 3 
6924 1 
6976 1 
6977 3 
6978 1 
7099 1 
7100 2 
7101 1 
7150 1 
7151 2 
7152 1 
7801 1 
7802 3 
7803 1 
7804 1 
7805 2 
7806 1 
7828 1 
7829 2 
7830 1 
7927 1 
7928 3 
7929 1 
7939 1 
7940 2 
7941 1 
8008 1 
8009 3 
8010 1 
8110 1 
8111 3 
8112 1 
8125 1 
8126 3 
8127 1 
8224 1 
8225 3 
8226 1 
8227 1 
8228 3 
8229 1 
8233 1 
8234 3 
8235 1 
8236 1 
8237 2 
8238 1 
8899 1 
8900 2 
8901 1 
8947 1 
8948 3 
8949 1 
9064 1 
9065 3 
9066 1 
9076 1 
9077 2 
9078 1 
9124 1 
9125 3 
9126 1 
9145 1 
9146 3 
9147 1 
9187 1 
9188 2 
9189 1 
9205 1 
9206 3 
9207 1 
9256 1 
9257 3 
9258 1 
9265 1 
9266 3 
9267 1 
9976 1 
9977 3 
9978 1 
10039 1 
10040 3 
10041 1 
10105 1 
10106 3 
10107 1 
10141 1 
10142 3 
10143 1 
10159 1 
10160 3 
10161 1 
10348 1 
10349 3 
10350 1 
10393 1 
10394 3 
10395 1 
10456 1 
10457 3 
10458 1 
10507 1 
10508 3 
10509 1 
11173 1 
11174 2 
11175 1 
11245 1 
11246 2 
11247 1 
11341 1 
11342 3 
11343 1 
11368 1 
11369 3 
11370 1 
11410 1 
11411 3 
11412 1 
11488 1 
11489 3 
11490 1 
12076 1 
12077 3 
12078 1 
12079 1 
12080 2 
12081 1 
12088 1 
12089 2 
12090 1 
12124 1 
12125 2 
12126 1 
12208 1 
12209 2 
12210 1 
12319 1 
12320 2 
12321 1 
12499 1 
12500 2 
12501 1 
12550 1 
12551 3 
12552 1 
12604 1 
12605 3 
12606 1 
13225 1 
13226 3 
13227 1 
13384 1 
13385 2 
13386 1 
13402 1 
13403 3 
13404 1 
13462 1 
13463 3 
13464 1 
13507 1 
13508 2 
13509 1 
13519 1 
13520 3 
13521 1 
13528 1 
13529 2 
13530 1 
14227 1 
14228 3 
14229 1 
14248 1 
14249 3 
14250 1 
14284 1 
14285 3 
14286 1 
14287 1 
14288 3 
14289 1 
14362 1 
14363 3 
14364 1 
14368 1 
14369 2 
14370 1 
14404 1 
14405 3 
14406 1 
14533 1 
14534 2 
14535 1 
14641 1 
14642 3 
14643 1 
14662 1 
14663 3 
14664 1 
15310 1 
15311 3 
15312 1 
15436 1 
15437 3 
15438 1 
15556 1 
15557 3 
15558 1 
15562 1 
15563 3 
15564 1 
15607 1 
15608 3 
15609 1 
15619 1 
15620 3 
15621 1 
15679 1 
15680 3 
15681 1 
15742 1 
15743 2 
15744 1 
16384 1 
16385 3 
16386 1 
16387 1 
16388 2 
16389 1 
16462 1 
16463 2 
16464 1 
16510 1 
16511 3 
16512 1 
16513 1 
16514 3 
16515 1 
16564 1 
16565 2 
16566 1 
16621 1 
16622 3 
16623 1 
17284 1 
17285 3 
17286 1 
17293 1 
17294 3 
17295 1 
17296 1 
17297 3 
17298 1 
17305 1 
17306 2 
17307 1 
17308 1 
17309 3 
17310 1 
17347 1 
17348 3 
17349 1 
17467 1 
17468 2 
17469 1 
17536 1 
17537 2 
17538 1 
17608 1 
17609 3 
17610 1 
17722 1 
17723 3 
17724 1 
17776 1 
17777 3 
17778 1 
17779 1 
17780 3 
17781 1 
18376 1 
18377 2 
18378 1 
18424 1 
18425 3 
18426 1 
18439 1 
18440 2 
18441 1 
18604 1 
18605 3 
18606 1 
18607 1 
18608 3 
18609 1 
18625 1 
18626 2 
18627 1 
18682 1 
18683 3 
18684 1 
18730 1 
18731 2 
18732 1 
18736 1 
18737 3 
18738 1 
18748 1 
18749 3 
18750 1 
19516 1 
19517 3 
19518 1 
19588 1 
19589 2 
19590 1 
19705 1 
19706 3 
19707 1 
19753 1 
19754 3 
19755 1 
19807 1 
19808 3 
19809 1 
19810 1 
19811 2 
19812 1 
19813 1 
19814 2 
19815 1 
19819 1 
19820 3 
19821 1 
19861 1 
19862 3 
19863 1 
20701 1 
20702 3 
20703 1 
20716 1 
20717 2 
20718 1 
20764 1 
20765 2 
20766 1 
20839 1 
20840 2 
20841 1 
20944 1 
20945 3 
20946 1 
20959 1 
20960 3 
20961 1 
20965 1 
20966 3 
20967 1 
20968 1 
20969 3 
20970 1 
154 1 
155 2 
156 1 
163 1 
164 3 
165 1 
178 1 
179 2 
180 1 
211 1 
212 3 
213 1 
292 1 
293 3 
294 1 
349 1 
350 3 
351 1 
397 1 
398 3 
399 1 
400 1 
401 2 
402 1 
412 1 
413 2 
414 1 
532 1 
533 3 
534 1 
535 1 
536 3 
537 1 
1237 1 
1238 2 
1239 1 
1414 1 
1415 3 
1416 1 
1420 1 
1421 3 
1422 1 
1480 1 
1481 3 
1482 1 
1498 1 
1499 3 
1500 1 
1531 1 
1532 2 
1533 1 
1540 1 
1541 2 
1542 1 
1597 1 
1598 3 
1599 1 
1615 1 
1616 3 
1617 1 
1618 1 
1619 2 
1620 1 
2269 1 
2270 3 
2271 1 
2503 1 
2504 2 
2505 1 
2614 1 
2615 2 
2616 1 
2623 1 
2624 3 
2625 1 
3274 1 
3275 3 
3276 1 
3403 1 
3404 3 
3405 1 
3514 1 
3515 2 
3516 1 
3523 1 
3524 3 
3525 1 
3529 1 
3530 3 
3531 1 
3589 1 
3590 2 
3591 1 
3631 1 
3632 2 
3633 1 
3646 1 
3647 3 
3648 1 
3751 1 
3752 3 
3753 1 
3754 1 
3755 3 
3756 1 
3778 1 
3779 3 
3780 1 
4417 1 
4418 3 
4419 1 
4480 1 
4481 2 
4482 1 
4489 1 
4490 3 
4491 1 
4498 1 
4499 2 
4500 1 
4555 1 
4556 2 
4557 1 
4600 1 
4601 3 
4602 1 
4654 1 
4655 2 
4656 1 
4666 1 
4667 2 
4668 1 
4711 1 
4712 3 
4713 1 
4774 1 
4775 2 
4776 1 
4777 1 
4778 2 
4779 1 
4834 1 
4835 3 
4836 1 
4894 1 
4895 3 
4896 1 
4900 1 
4901 3 
4902 1 
5575 1 
5576 3 
5577 1 
5683 1 
5684 3 
5685 1 
5791 1 
5792 3 
5793 1 
5803 1 
5804 3 
5805 1 
5815 1 
5816 2 
5817 1 
5875 1 
5876 2 
5877 1 
5923 1 
5924 3 
5925 1 
5929 1 
5930 2 
5931 1 
5935 1 
5936 3 
5937 1 
6700 1 
6701 3 
6702 1 
6706 1 
6707 2 
6708 1 
6751 1 
6752 2 
6753 1 
6763 1 
6764 3 
6765 1 
6814 1 
6815 3 
6816 1 
6838 1 
6839 3 
6840 1 
6937 1 
6938 2 
6939 1 
7072 1 
7073 2 
7074 1 
7114 1 
7115 2 
7116 1 
7123 1 
7124 2 
7125 1 
7126 1 
7127 3 
7128 1 
7171 1 
7172 2 
7173 1 
7195 1 
7196 3 
7197 1 
7231 1 
7232 3 
7233 1 
7240 1 
7241 3 
7242 1 
7246 1 
7247 3 
7248 1 
7252 1 
7253 3 
7254 1 
7771 1 
7772 3 
7773 1 
7837 1 
7838 3 
7839 1 
7855 1 
7856 3 
7857 1 
7900 1 
7901 3 
7902 1 
7978 1 
7979 3 
7980 1 
8020 1 
8021 2 
8022 1 
8077 1 
8078 3 
8079 1 
8089 1 
8090 3 
8091 1 
8134 1 
8135 3 
8136 1 
8155 1 
8156 3 
8157 1 
8158 1 
8159 2 
8160 1 
8317 1 
8318 2 
8319 1 
8935 1 
8936 3 
8937 1 
8983 1 
8984 3 
8985 1 
8998 1 
8999 2 
9000 1 
9058 1 
9059 3 
9060 1 
9178 1 
9179 2 
9180 1 
9214 1 
9215 2 
9216 1 
9274 1 
9275 2 
9276 1 
9358 1 
9359 3 
9360 1 
10069 1 
10070 3 
10071 1 
10123 1 
10124 3 
10125 1 
10195 1 
10196 3 
10197 1 
10363 1 
10364 3 
10365 1 
10366 1 
10367 3 
10368 1 
10423 1 
10424 3 
10425 1 
10438 1 
10439 3 
10440 1 
11149 1 
11150 3 
11151 1 
11191 1 
11192 3 
11193 1 
11194 1 
11195 3 
11196 1 
11212 1 
11213 2 
11214 1 
11320 1 
11321 3 
11322 1 
11332 1 
11333 3 
11334 1 
11386 1 
11387 3 
11388 1 
11491 1 
11492 3 
11493 1 
12091 1 
12092 3 
12093 1 
12169 1 
12170 3 
12171 1 
12220 1 
12221 3 
12222 1 
12340 1 
12341 2 
12342 1 
12343 1 
12344 3 
12345 1 
12352 1 
12353 3 
12354 1 
12358 1 
12359 3 
12360 1 
12406 1 
12407 2 
12408 1 
12418 1 
12419 3 
12420 1 
12469 1 
12470 3 
12471 1 
12520 1 
12521 3 
12522 1 
12589 1 
12590 3 
12591 1 
12643 1 
12644 3 
12645 1 
13171 1 
13172 3 
13173 1 
13180 1 
13181 2 
13182 1 
13231 1 
13232 3 
13233 1 
13300 1 
13301 2 
13302 1 
13363 1 
13364 3 
13365 1 
13369 1 
13370 3 
13371 1 
13372 1 
13373 3 
13374 1 
13423 1 
13424 3 
13425 1 
13435 1 
13436 3 
13437 1 
13474 1 
13475 3 
13476 1 
13480 1 
13481 3 
13482 1 
13489 1 
13490 3 
13491 1 
13498 1 
13499 3 
13500 1 
13531 1 
13532 3 
13533 1 
13543 1 
13544 3 
13545 1 
13555 1 
13556 2 
13557 1 
13612 1 
13613 2 
13614 1 
14275 1 
14276 2 
14277 1 
14377 1 
14378 3 
14379 1 
14392 1 
14393 3 
14394 1 
14395 1 
14396 2 
14397 1 
14446 1 
14447 3 
14448 1 
14554 1 
14555 3 
14556 1 
14557 1 
14558 2 
14559 1 
14560 1 
14561 3 
14562 1 
14638 1 
14639 3 
14640 1 
14689 1 
14690 3 
14691 1 
15400 1 
15401 2 
15402 1 
15538 1 
15539 3 
15540 1 
15571 1 
15572 2 
15573 1 
15577 1 
15578 3 
15579 1 
15580 1 
15581 3 
15582 1 
15595 1 
15596 3 
15597 1 
15631 1 
15632 3 
15633 1 
15649 1 
15650 2 
15651 1 
15652 1 
15653 3 
15654 1 
15691 1 
15692 3 
15693 1 
16477 1 
16478 2 
16479 1 
16594 1 
16595 2 
16596 1 
16612 1 
16613 3 
16614 1 
16618 1 
16619 2 
16620 1 
16663 1 
16664 3 
16665 1 
16732 1 
16733 3 
16734 1 
16738 1 
16739 3 
16740 1 
17320 1 
17321 3 
17322 1 
17386 1 
17387 3 
17388 1 
17497 1 
17498 3 
17499 1 
17503 1 
17504 3 
17505 1 
17512 1 
17513 3 
17514 1 
17578 1 
17579 3 
17580 1 
17620 1 
17621 2 
17622 1 
17680 1 
17681 2 
17682 1 
17683 1 
17684 3 
17685 1 
17686 1 
17687 3 
17688 1 
17803 1 
17804 2 
17805 1 
18412 1 
18413 3 
18414 1 
18451 1 
18452 3 
18453 1 
18523 1 
18524 3 
18525 1 
18538 1 
18539 3 
18540 1 
18586 1 
18587 3 
18588 1 
18634 1 
18635 3 
18636 1 
18712 1 
18713 3 
18714 1 
18772 1 
18773 2 
18774 1 
18775 1 
18776 3 
18777 1 
18823 1 
18824 3 
18825 1 
18874 1 
18875 3 
18876 1 
18895 1 
18896 3 
18897 1 
19474 1 
19475 3 
19476 1 
19531 1 
19532 2 
19533 1 
19555 1 
19556 3 
19557 1 
19591 1 
19592 2 
19593 1 
19609 1 
19610 2 
19611 1 
19615 1 
19616 2 
19617 1 
19714 1 
19715 2 
19716 1 
19723 1 
19724 3 
19725 1 
19777 1 
19778 3 
19779 1 
19792 1 
19793 3 
19794 1 
19891 1 
19892 3 
19893 1 
19906 1 
19907 3 
19908 1 
19909 1 
19910 2 
19911 1 
20563 1 
20564 2 
20565 1 
20674 1 
20675 3 
20676 1 
20695 1 
20696 3 
20697 1 
20791 1 
20792 2 
20793 1 
20803 1 
20804 3 
20805 1 
20974 1 
20975 3 
20976 1 
21034 1 
21035 2 
21036 1 
541 1 
542 3 
543 1 
556 1 
557 3 
558 1 
688 1 
689 3 
690 1 
721 1 
722 2 
723 1 
739 1 
740 3 
741 1 
841 1 
842 3 
843 1 
901 1 
902 3 
903 1 
910 1 
911 2 
912 1 
967 1 
968 2 
969 1 
1021 1 
1022 2 
1023 1 
1048 1 
1049 3 
1050 1 
1693 1 
1694 2 
1695 1 
1696 1 
1697 3 
1698 1 
1699 1 
1700 2 
1701 1 
1747 1 
1748 3 
1749 1 
1807 1 
1808 3 
1809 1 
1861 1 
1862 3 
1863 1 
1948 1 
1949 3 
1950 1 
1981 1 
1982 3 
1983 1 
1999 1 
2000 2 
2001 1 
2008 1 
2009 3 
2010 1 
2041 1 
2042 2 
2043 1 
2065 1 
2066 2 
2067 1 
2068 1 
2069 3 
2070 1 
2104 1 
2105 3 
2106 1 
2107 1 
2108 3 
2109 1 
2116 1 
2117 3 
2118 1 
2182 1 
2183 3 
2184 1 
2188 1 
2189 3 
2190 1 
2644 1 
2645 2 
2646 1 
2650 1 
2651 2 
2652 1 
2848 1 
2849 3 
2850 1 
2947 1 
2948 2 
2949 1 
3013 1 
3014 2 
3015 1 
3067 1 
3068 3 
3069 1 
3076 1 
3077 2 
3078 1 
3121 1 
3122 3 
3123 1 
3127 1 
3128 3 
3129 1 
3796 1 
3797 3 
3798 1 
3808 1 
3809 3 
3810 1 
3865 1 
3866 3 
3867 1 
3964 1 
3965 3 
3966 1 
3967 1 
3968 3 
3969 1 
3985 1 
3986 3 
3987 1 
4021 1 
4022 2 
4023 1 
4033 1 
4034 2 
4035 1 
4093 1 
4094 2 
4095 1 
4165 1 
4166 3 
4167 1 
4213 1 
4214 3 
4215 1 
4270 1 
4271 3 
4272 1 
4939 1 
4940 2 
4941 1 
4999 1 
5000 2 
5001 1 
5053 1 
5054 2 
5055 1 
5056 1 
5057 3 
5058 1 
5068 1 
5069 3 
5070 1 
5101 1 
5102 3 
5103 1 
5113 1 
5114 3 
5115 1 
5287 1 
5288 3 
5289 1 
6064 1 
6065 2 
6066 1 
6127 1 
6128 2 
6129 1 
6184 1 
6185 2 
6186 1 
6301 1 
6302 3 
6303 1 
6433 1 
6434 3 
6435 1 
6484 1 
6485 3 
6486 1 
6553 1 
6554 3 
6555 1 
6619 1 
6620 2 
6621 1 
7333 1 
7334 2 
7335 1 
7381 1 
7382 3 
7383 1 
7444 1 
7445 3 
7446 1 
7507 1 
7508 3 
7509 1 
7513 1 
7514 2 
7515 1 
7516 1 
7517 2 
7518 1 
7522 1 
7523 3 
7524 1 
7570 1 
7571 3 
7572 1 
7585 1 
7586 2 
7587 1 
7621 1 
7622 3 
7623 1 
7624 1 
7625 3 
7626 1 
7627 1 
7628 3 
7629 1 
7633 1 
7634 3 
7635 1 
7648 1 
7649 3 
7650 1 
7681 1 
7682 3 
7683 1 
7687 1 
7688 3 
7689 1 
7708 1 
7709 2 
7710 1 
8341 1 
8342 3 
8343 1 
8347 1 
8348 3 
8349 1 
8416 1 
8417 2 
8418 1 
8461 1 
8462 2 
8463 1 
8581 1 
8582 2 
8583 1 
8641 1 
8642 2 
8643 1 
8716 1 
8717 2 
8718 1 
8719 1 
8720 3 
8721 1 
8776 1 
8777 3 
8778 1 
8830 1 
8831 3 
8832 1 
9448 1 
9449 3 
9450 1 
9499 1 
9500 2 
9501 1 
9547 1 
9548 3 
9549 1 
9553 1 
9554 3 
9555 1 
9562 1 
9563 3 
9564 1 
9673 1 
9674 3 
9675 1 
9721 1 
9722 3 
9723 1 
9727 1 
9728 3 
9729 1 
9805 1 
9806 3 
9807 1 
9916 1 
9917 2 
9918 1 
9922 1 
9923 2 
9924 1 
10579 1 
10580 2 
10581 1 
10588 1 
10589 2 
10590 1 
10639 1 
10640 3 
10641 1 
10681 1 
10682 3 
10683 1 
10684 1 
10685 3 
10686 1 
10702 1 
10703 3 
10704 1 
10873 1 
10874 3 
10875 1 
10879 1 
10880 2 
10881 1 
10990 1 
10991 3 
10992 1 
11002 1 
11003 3 
11004 1 
11539 1 
11540 3 
11541 1 
11653 1 
11654 3 
11655 1 
11662 1 
11663 2 
11664 1 
11833 1 
11834 2 
11835 1 
11848 1 
11849 3 
11850 1 
11890 1 
11891 3 
11892 1 
11893 1 
11894 3 
11895 1 
11902 1 
11903 3 
11904 1 
11941 1 
11942 2 
11943 1 
11968 1 
11969 2 
11970 1 
12004 1 
12005 3 
12006 1 
12013 1 
12014 3 
12015 1 
12667 1 
12668 3 
12669 1 
12793 1 
12794 3 
12795 1 
12796 1 
12797 3 
12798 1 
12919 1 
12920 2 
12921 1 
12925 1 
12926 3 
12927 1 
13048 1 
13049 3 
13050 1 
13102 1 
13103 3 
13104 1 
13624 1 
13625 3 
13626 1 
13633 1 
13634 3 
13635 1 
13819 1 
13820 3 
13821 1 
13984 1 
13985 3 
13986 1 
13999 1 
14000 3 
14001 1 
14008 1 
14009 2 
14010 1 
14056 1 
14057 2 
14058 1 
14179 1 
14180 3 
14181 1 
14725 1 
14726 2 
14727 1 
14770 1 
14771 3 
14772 1 
14827 1 
14828 2 
14829 1 
14836 1 
14837 2 
14838 1 
15019 1 
15020 2 
15021 1 
15022 1 
15023 3 
15024 1 
15028 1 
15029 3 
15030 1 
15073 1 
15074 3 
15075 1 
15133 1 
15134 2 
15135 1 
15196 1 
15197 3 
15198 1 
15241 1 
15242 2 
15243 1 
15253 1 
15254 3 
15255 1 
15784 1 
15785 2 
15786 1 
15808 1 
15809 2 
15810 1 
15847 1 
15848 3 
15849 1 
15853 1 
15854 3 
15855 1 
15859 1 
15860 2 
15861 1 
15904 1 
15905 3 
15906 1 
15907 1 
15908 2 
15909 1 
16108 1 
16109 3 
16110 1 
16768 1 
16769 3 
16770 1 
16993 1 
16994 2 
16995 1 
17059 1 
17060 3 
17061 1 
17122 1 
17123 3 
17124 1 
17128 1 
17129 3 
17130 1 
17959 1 
17960 3 
17961 1 
18025 1 
18026 2 
18027 1 
18079 1 
18080 3 
18081 1 
18133 1 
18134 2 
18135 1 
18142 1 
18143 3 
18144 1 
18244 1 
18245 2 
18246 1 
18916 1 
18917 3 
18918 1 
18967 1 
18968 3 
18969 1 
18970 1 
18971 3 
18972 1 
19102 1 
19103 3 
19104 1 
19105 1 
19106 2 
19107 1 
19330 1 
19331 3 
19332 1 
19381 1 
19382 3 
19383 1 
19405 1 
19406 3 
19407 1 
19996 1 
19997 2 
19998 1 
20041 1 
20042 3 
20043 1 
20047 1 
20048 3 
20049 1 
20179 1 
20180 2 
20181 1 
20182 1 
20183 3 
20184 1 
20230 1 
20231 3 
20232 1 
20239 1 
20240 3 
20241 1 
20281 1 
20282 3 
20283 1 
20416 1 
20417 3 
20418 1 
20467 1 
20468 3 
20469 1 
20476 1 
20477 2 
20478 1 
21136 1 
21137 3 
21138 1 
21385 1 
21386 2 
21387 1 
21427 1 
21428 3 
21429 1 
21481 1 
21482 3 
21483 1 
21565 1 
21566 3 
21567 1 
21568 1 
21569 3 
21570 1 
649 1 
650 3 
651 1 
703 1 
704 2 
705 1 
769 1 
770 2 
771 1 
778 1 
779 3 
780 1 
820 1 
821 3 
822 1 
880 1 
881 3 
882 1 
895 1 
896 3 
897 1 
898 1 
899 2 
900 1 
946 1 
947 2 
948 1 
1075 1 
1076 2 
1077 1 
1117 1 
1118 2 
1119 1 
1123 1 
1124 3 
1125 1 
1138 1 
1139 2 
1140 1 
1726 1 
1727 3 
1728 1 
1735 1 
1736 3 
1737 1 
1843 1 
1844 3 
1845 1 
1918 1 
1919 3 
1920 1 
2011 1 
2012 3 
2013 1 
2134 1 
2135 3 
2136 1 
2143 1 
2144 3 
2145 1 
2149 1 
2150 3 
2151 1 
2152 1 
2153 3 
2154 1 
2155 1 
2156 3 
2157 1 
2200 1 
2201 3 
2202 1 
2209 1 
2210 2 
2211 1 
2683 1 
2684 3 
2685 1 
2698 1 
2699 3 
2700 1 
2938 1 
2939 2 
2940 1 
2980 1 
2981 2 
2982 1 
2989 1 
2990 2 
2991 1 
3052 1 
3053 3 
3054 1 
3106 1 
3107 2 
3108 1 
3874 1 
3875 3 
3876 1 
3877 1 
3878 3 
3879 1 
3883 1 
3884 3 
3885 1 
3889 1 
3890 3 
3891 1 
3895 1 
3896 3 
3897 1 
4054 1 
4055 3 
4056 1 
4072 1 
4073 2 
4074 1 
4111 1 
4112 2 
4113 1 
4138 1 
4139 3 
4140 1 
4183 1 
4184 3 
4185 1 
4192 1 
4193 3 
4194 1 
4234 1 
4235 2 
4236 1 
4978 1 
4979 3 
4980 1 
5029 1 
5030 2 
5031 1 
5035 1 
5036 3 
5037 1 
5074 1 
5075 3 
5076 1 
5092 1 
5093 2 
5094 1 
5251 1 
5252 3 
5253 1 
5260 1 
5261 2 
5262 1 
5320 1 
5321 2 
5322 1 
5455 1 
5456 3 
5457 1 
6091 1 
6092 3 
6093 1 
6271 1 
6272 2 
6273 1 
6277 1 
6278 2 
6279 1 
6286 1 
6287 3 
6288 1 
6403 1 
6404 2 
6405 1 
6526 1 
6527 3 
6528 1 
6649 1 
6650 2 
6651 1 
7312 1 
7313 3 
7314 1 
7363 1 
7364 3 
7365 1 
7372 1 
7373 2 
7374 1 
7417 1 
7418 2 
7419 1 
7429 1 
7430 3 
7431 1 
7471 1 
7472 2 
7473 1 
7603 1 
7604 3 
7605 1 
7615 1 
7616 3 
7617 1 
7660 1 
7661 3 
7662 1 
7720 1 
7721 3 
7722 1 
8455 1 
8456 3 
8457 1 
8512 1 
8513 3 
8514 1 
8515 1 
8516 3 
8517 1 
8518 1 
8519 2 
8520 1 
8680 1 
8681 2 
8682 1 
8686 1 
8687 3 
8688 1 
8689 1 
8690 2 
8691 1 
8737 1 
8738 3 
8739 1 
8815 1 
8816 2 
8817 1 
8851 1 
8852 3 
8853 1 
9394 1 
9395 3 
9396 1 
9412 1 
9413 3 
9414 1 
9469 1 
9470 3 
9471 1 
9511 1 
9512 3 
9513 1 
9538 1 
9539 2 
9540 1 
9583 1 
9584 3 
9585 1 
9595 1 
9596 2 
9597 1 
9646 1 
9647 2 
9648 1 
9766 1 
9767 3 
9768 1 
9769 1 
9770 2 
9771 1 
9775 1 
9776 3 
9777 1 
10597 1 
10598 2 
10599 1 
10612 1 
10613 3 
10614 1 
10651 1 
10652 3 
10653 1 
10669 1 
10670 2 
10671 1 
10714 1 
10715 3 
10716 1 
10723 1 
10724 3 
10725 1 
10732 1 
10733 3 
10734 1 
10777 1 
10778 3 
10779 1 
10852 1 
10853 3 
10854 1 
10858 1 
10859 3 
10860 1 
11035 1 
11036 3 
11037 1 
11557 1 
11558 3 
11559 1 
11572 1 
11573 3 
11574 1 
11611 1 
11612 3 
11613 1 
11614 1 
11615 3 
11616 1 
11617 1 
11618 3 
11619 1 
11635 1 
11636 3 
11637 1 
11674 1 
11675 3 
11676 1 
11677 1 
11678 3 
11679 1 
11731 1 
11732 3 
11733 1 
11740 1 
11741 3 
11742 1 
11800 1 
11801 3 
11802 1 
11818 1 
11819 3 
11820 1 
11866 1 
11867 3 
11868 1 
11872 1 
11873 2 
11874 1 
11917 1 
11918 2 
11919 1 
11935 1 
11936 3 
11937 1 
11986 1 
11987 3 
11988 1 
11992 1 
11993 3 
11994 1 
12034 1 
12035 3 
12036 1 
12049 1 
12050 3 
12051 1 
12691 1 
12692 3 
12693 1 
12757 1 
12758 3 
12759 1 
12769 1 
12770 3 
12771 1 
12823 1 
12824 3 
12825 1 
12949 1 
12950 2 
12951 1 
13012 1 
13013 2 
13014 1 
13654 1 
13655 3 
13656 1 
13771 1 
13772 2 
13773 1 
13798 1 
13799 2 
13800 1 
13837 1 
13838 3 
13839 1 
13894 1 
13895 3 
13896 1 
13897 1 
13898 2 
13899 1 
13918 1 
13919 3 
13920 1 
13960 1 
13961 2 
13962 1 
14074 1 
14075 3 
14076 1 
14089 1 
14090 2 
14091 1 
14131 1 
14132 3 
14133 1 
14155 1 
14156 3 
14157 1 
14215 1 
14216 3 
14217 1 
14743 1 
14744 3 
14745 1 
14872 1 
14873 3 
14874 1 
14878 1 
14879 3 
14880 1 
14920 1 
14921 3 
14922 1 
14974 1 
14975 3 
14976 1 
15172 1 
15173 3 
15174 1 
15226 1 
15227 3 
15228 1 
15235 1 
15236 3 
15237 1 
15892 1 
15893 3 
15894 1 
16015 1 
16016 3 
16017 1 
16057 1 
16058 3 
16059 1 
16066 1 
16067 3 
16068 1 
16075 1 
16076 3 
16077 1 
16117 1 
16118 3 
16119 1 
16300 1 
16301 3 
16302 1 
16978 1 
16979 2 
16980 1 
17026 1 
17027 3 
17028 1 
17074 1 
17075 2 
17076 1 
17077 1 
17078 2 
17079 1 
17092 1 
17093 3 
17094 1 
17149 1 
17150 2 
17151 1 
17209 1 
17210 3 
17211 1 
17254 1 
17255 3 
17256 1 
17266 1 
17267 3 
17268 1 
17275 1 
17276 2 
17277 1 
17911 1 
17912 3 
17913 1 
17992 1 
17993 2 
17994 1 
17998 1 
17999 2 
18000 1 
18109 1 
18110 3 
18111 1 
18334 1 
18335 3 
18336 1 
19195 1 
19196 2 
19197 1 
19240 1 
19241 2 
19242 1 
19975 1 
19976 3 
19977 1 
20029 1 
20030 3 
20031 1 
20140 1 
20141 3 
20142 1 
20155 1 
20156 3 
20157 1 
20212 1 
20213 3 
20214 1 
20269 1 
20270 3 
20271 1 
20377 1 
20378 3 
20379 1 
20389 1 
20390 3 
20391 1 
20398 1 
20399 3 
20400 1 
20434 1 
20435 3 
20436 1 
20440 1 
20441 2 
20442 1 
20458 1 
20459 3 
20460 1 
21100 1 
21101 2 
21102 1 
21106 1 
21107 3 
21108 1 
21115 1 
21116 2 
21117 1 
21226 1 
21227 3 
21228 1 
21235 1 
21236 3 
21237 1 
21271 1 
21272 2 
21273 1 
21292 1 
21293 3 
21294 1 
21334 1 
21335 3 
21336 1 
21355 1 
21356 2 
21357 1 
21466 1 
21467 2 
21468 1 
21523 1 
21524 3 
21525 1 
