LAMMPS data file via write_data, version 5 Jun 2019, timestep = 120000000

2451 atoms
3 atom types
2381 bonds
3 bond types
2311 angles
3 angle types

0.0000000000000000e+00 5.0000000000000000e+01 xlo xhi
0.0000000000000000e+00 5.0000000000000000e+01 ylo yhi
0.0000000000000000e+00 5.0000000000000000e+01 zlo zhi

Masses

1 0.25
2 0.5
3 0.5

Bond Coeffs # harmonic

1 6000 0.15
2 2000 0.4
3 2000 0.4

Angle Coeffs # harmonic

1 100 180
2 5 180
3 5 180

Atoms # angle

8282 3 3 4.5436560684597346e+01 1.8898790204607966e+01 4.1917441160322282e+00
8283 1 1 4.5283821359384952e+01 1.8926908625046270e+01 4.5724724609272762e+00
17605 1 1 4.5916968823909038e+01 1.9098124719761135e+01 3.9798274784405114e+00
17606 3 3 4.6237625337051057e+01 1.9342004490983467e+01 3.7749547209140633e+00
17607 1 1 4.6558150075283585e+01 1.9235454479296582e+01 3.8187955217724610e+00
8281 1 1 4.5786388923365195e+01 1.9021564030710380e+01 4.0507078892787760e+00
10740 1 1 4.3795746379933092e+01 1.9526268033030451e+01 4.8307413475956302e+00
12194 3 3 4.5046950218987241e+01 1.8957870344096651e+01 5.0890223623869915e+00
12193 1 1 4.5214661292314076e+01 1.8929700885425969e+01 4.7235663188156654e+00
10738 1 1 4.4398699907070203e+01 1.9818003794369076e+01 5.0263673336230994e+00
18394 1 1 4.4536091600497059e+01 1.9910805890600070e+01 4.9844805017057734e+00
10739 3 3 4.4034858662661371e+01 1.9642446500348072e+01 5.1022929254484222e+00
12195 1 1 4.5034661867608342e+01 1.9033959934219308e+01 5.4881440709829947e+00
18397 1 1 4.5058111553985960e+01 1.9074222070930471e+01 5.6349571134975758e+00
18398 2 2 4.5122399233326817e+01 1.9094197947206442e+01 6.0178326174578842e+00
18395 3 3 4.4899539243315942e+01 2.0058688786876459e+01 4.9101328328727858e+00
18396 1 1 4.5197247301739942e+01 2.0051998215180152e+01 5.1874152049387794e+00
2422 1 1 4.5267095836368242e+01 2.0064204067308122e+01 5.3046317477718530e+00
2424 1 1 4.5436361563531499e+01 2.0126933799663757e+01 6.0420998767694094e+00
2423 3 3 4.5505896332290000e+01 2.0102452469255081e+01 5.6864350472816412e+00
8759 2 2 2.1716324807244134e+00 1.6817285069811504e+01 7.4516932225082249e+00
8760 1 1 2.5234558350549925e+00 1.6760898654357000e+01 7.5661386881988069e+00
8758 1 1 1.9757533824679239e+00 1.7143746410534835e+01 7.5897475947729447e+00
4028 2 2 4.5369760112056689e+01 1.9767726561998749e+01 7.5713751311983915e+00
18399 1 1 4.5291200990223828e+01 1.9192926537007050e+01 6.3825213680427328e+00
7095 1 1 4.5376117603379370e+01 1.9213019122902136e+01 6.5249460522801188e+00
7094 2 2 4.5592761746253750e+01 1.9254361202333097e+01 6.8065071367118621e+00
7093 1 1 4.5500084743445171e+01 1.9458414138535357e+01 7.1417296947783679e+00
4027 1 1 4.5469494902814283e+01 1.9537603535429810e+01 7.2558861301169184e+00
17599 1 1 4.5411555805455713e+01 2.0172650169742774e+01 6.2018586456279703e+00
17600 2 2 4.5442743187318243e+01 2.0360039923001732e+01 6.5572768711605756e+00
17601 1 1 4.5460878231587493e+01 2.0611284985637980e+01 6.8368283935377114e+00
20080 1 1 2.0183258266012700e+01 2.7568767070731656e+01 6.7444313254160626e+00
10432 1 1 3.7160883992513426e+01 1.0722758016726814e+01 8.6358541350090441e+00
10433 2 2 3.7412015671558272e+01 1.0973976548602685e+01 8.5002143814994628e+00
10434 1 1 3.7619720721609816e+01 1.1153010109518707e+01 8.1677011814874145e+00
20684 3 3 4.1021521441451895e+01 1.9947496738413047e+01 8.3485054913920838e+00
5297 3 3 4.3734341830569235e+01 1.9965652151385971e+01 8.6494058790636679e+00
4029 1 1 4.5045222074475603e+01 1.9818256228150542e+01 7.7932885791252202e+00
297 1 1 4.4901365365989953e+01 1.9851854574358608e+01 7.8730340041632445e+00
296 2 2 4.4606259659962582e+01 1.9927090665668437e+01 8.0730957509955417e+00
295 1 1 4.4251875388701265e+01 1.9960925741800374e+01 8.3354869386201020e+00
5296 1 1 4.4111132775722012e+01 1.9967455959359977e+01 8.4274738732754919e+00
20685 1 1 4.1110729669058109e+01 2.0087805459643043e+01 8.0083187112068366e+00
20683 1 1 4.1475389346298194e+01 1.9989879142810771e+01 8.5214495779703174e+00
10419 1 1 4.1618414296489341e+01 2.0017670598848788e+01 8.5583145124794999e+00
10418 2 2 4.1980903996949742e+01 2.0021529594609511e+01 8.6168253020676566e+00
10417 1 1 4.2347460233861085e+01 2.0063249925004282e+01 8.5783604934537685e+00
11546 3 3 4.2853581848447234e+01 2.0108785668400799e+01 8.5944555614734330e+00
11547 1 1 4.2480029068264038e+01 2.0089296272841857e+01 8.5852452635950609e+00
11545 1 1 4.3258909259803026e+01 2.0081192749310084e+01 8.5862607882603843e+00
5298 1 1 4.3386293602558538e+01 2.0062212682177229e+01 8.5943691718192934e+00
10817 2 2 2.7401630943392799e+01 1.5183402968992146e+01 1.9352163540162479e+01
10818 1 1 2.7441892190262227e+01 1.4789605633305117e+01 1.9490963549287962e+01
10816 1 1 2.7314498986104372e+01 1.5512468582903992e+01 1.9146985634141672e+01
11055 1 1 5.7520703077933417e+00 1.3747342481827332e+00 2.3099162859745302e+01
21186 1 1 4.1239773296372633e+01 1.5597793918010714e+01 2.2636994811713304e+01
21185 2 2 4.1141787990761308e+01 1.5821163586554292e+01 2.2949676217016055e+01
21184 1 1 4.1150978199565024e+01 1.6215664959333701e+01 2.2854148160343470e+01
11054 2 2 5.9080520366277129e+00 1.5074588405020048e+00 2.3503653638301639e+01
11053 1 1 5.9500666416207251e+00 1.8238900972962733e+00 2.3820809325140374e+01
13733 2 2 3.7278617585088810e+01 2.6069015380255156e+01 2.4127857928839678e+01
13732 1 1 3.7265338965974543e+01 2.5666199089144680e+01 2.4026991147546234e+01
1763 2 2 2.8250217316156498e+01 2.7505463293003604e+01 2.4480011853220226e+01
1764 1 1 2.8280463866537048e+01 2.7232141366070103e+01 2.4744391960816664e+01
13734 1 1 3.7490166659104744e+01 2.6426496584885108e+01 2.4221020750133444e+01
17201 3 3 3.6245711478444328e+01 2.2609876020603963e+01 2.5588105781417575e+01
17200 1 1 3.5866247078648904e+01 2.2771172550400593e+01 2.5575786183928503e+01
9974 3 3 3.5368519893905564e+01 2.2979541573955153e+01 2.5637155919072288e+01
9975 1 1 3.5729385583138736e+01 2.2810473410690765e+01 2.5573939794379779e+01
17202 1 1 3.6419685650401320e+01 2.2631828337153230e+01 2.5937026714550178e+01
9773 2 2 3.5005489902093601e+01 2.3637937372739454e+01 2.6230141995317126e+01
9772 1 1 3.5179923827905817e+01 2.3400033573520364e+01 2.5975286533873767e+01
9973 1 1 3.5226220569307181e+01 2.3310320050439191e+01 2.5890061572728321e+01
17748 1 1 2.5657274609323331e+01 2.9113668180757426e+01 3.3738628629867828e-01
16540 1 1 2.5518782707769404e+01 2.9118031137663845e+01 2.6633810466110858e-01
16541 3 3 2.5155001440971535e+01 2.9085417612420905e+01 1.8323710825198344e-01
16542 1 1 2.4778792706699146e+01 2.9091320411522208e+01 7.6833458218782902e-02
17747 3 3 2.6014668939498829e+01 2.9148940064965643e+01 5.6196498354576485e-01
3478 1 1 2.1640955173527271e+01 2.9463349750204696e+01 1.3902061650545068e+00
8083 1 1 2.1693045587469850e+01 2.9536342150177902e+01 1.2819145452241749e+00
8084 2 2 2.1841398386875476e+01 2.9767831473130993e+01 1.0088604939529875e+00
8085 1 1 2.2136914100237238e+01 2.9977238879773584e+01 8.7927166527789979e-01
12671 2 2 2.2661236624366186e+01 3.0221578751066019e+01 8.2167253688606279e-01
12672 1 1 2.2289805330702070e+01 3.0046083473063003e+01 8.3957603521715662e-01
1218 1 1 2.4056732777277404e+01 2.9861191500893757e+01 7.0109774154761995e-01
10861 1 1 2.4005938876980419e+01 2.9895971593418682e+01 8.3334874808295789e-01
10862 2 2 2.3859355766931191e+01 3.0027909683709961e+01 1.1706519300606788e+00
1217 3 3 2.4157535344320653e+01 2.9783850371546460e+01 2.3596758683121252e-01
12670 1 1 2.2971259900622179e+01 3.0452434202988282e+01 6.6178110385436051e-01
16083 1 1 2.3089616851164969e+01 3.0555034471506151e+01 5.9879844356950174e-01
10863 1 1 2.3597209131942392e+01 2.9968865564632029e+01 1.4887269954101372e+00
16082 2 2 2.3369745466288514e+01 3.0764089941748527e+01 4.3672765779425926e-01
16081 1 1 2.3695266763074102e+01 3.0819240237362294e+01 1.5392139303739172e-01
16305 1 1 2.3778786726150685e+01 3.0840787357135731e+01 4.5348853871436945e-02
15933 1 1 2.6295168098014070e+01 2.9560966852483212e+01 8.4029199453716197e-01
17746 1 1 2.6224601831974880e+01 2.9418375660679452e+01 7.6916569996572615e-01
15931 1 1 2.6380393742972132e+01 3.0241093213153068e+01 1.2220005485153482e+00
15534 1 1 2.6342575572104000e+01 3.0361217931933336e+01 1.2752347597663007e+00
15932 2 2 2.6471238912569202e+01 2.9921279129032776e+01 1.0301176951179032e+00
15533 2 2 2.6115626738493550e+01 3.0696792106510184e+01 1.4305513616215737e+00
14571 1 1 2.1054723246486738e+01 3.1856768184535614e+01 1.5251854438444969e+00
14569 1 1 2.1355360359038194e+01 3.1662004761345969e+01 7.3968622272131979e-01
14570 2 2 2.1288456115723022e+01 3.1723890809511968e+01 1.1728114430017655e+00
11060 2 2 2.2048351098346973e+01 3.1771565760608052e+01 2.8214417276008830e-01
11059 1 1 2.2230598911625886e+01 3.1614467407551764e+01 6.1480512200801152e-01
19921 1 1 2.2308595414020015e+01 3.1572783477102824e+01 7.4368426862269454e-01
19922 2 2 2.2444853972188028e+01 3.1478379850224940e+01 1.0975977265785068e+00
11061 1 1 2.2101515090661380e+01 3.2109873584808533e+01 6.5114090509762579e-02
7051 1 1 2.2837670235909894e+01 3.1269090625324058e+01 1.3537990741192756e+00
19923 1 1 2.2755920559771926e+01 3.1314570016183371e+01 1.3008564538538259e+00
14243 2 2 2.3735932967377039e+01 3.2311115517528805e+01 9.1704132320530241e-01
14244 1 1 2.3503484909725675e+01 3.2083016279399217e+01 6.8617358551854857e-01
6831 1 1 2.3417926885012530e+01 3.1997346608362680e+01 5.7899062011925362e-01
17493 1 1 2.3517125146185379e+01 3.2249609388890846e+01 1.3956617381941072e+00
14242 1 1 2.3589234411321655e+01 3.2287042033376864e+01 1.2804081747793006e+00
6829 1 1 2.2921732686570742e+01 3.1522076540536638e+01 1.2100509402390418e-01
6830 2 2 2.3190327546451783e+01 3.1760265417271526e+01 3.4014865678518996e-01
4647 1 1 2.2856120967907607e+01 3.1453109615783092e+01 2.5840215694943221e-02
21103 1 1 2.4787613811534374e+01 3.1305533912794960e+01 8.8187064144296701e-01
21104 2 2 2.4447699644301370e+01 3.1403379254541889e+01 1.0107395632904990e+00
21105 1 1 2.4400905378851434e+01 3.1485453464606440e+01 1.3936484734648433e+00
17791 1 1 2.4360277282948289e+01 3.1535125806142293e+01 1.5278539355932470e+00
13031 2 2 2.2656726291078634e+01 3.3536061399054645e+01 6.3826953575083756e-01
13030 1 1 2.2578450444789194e+01 3.3231300932341739e+01 8.3797318246097696e-01
9334 1 1 2.2539819141966348e+01 3.3127209305198576e+01 9.3928574246410168e-01
9335 2 2 2.2462010650094392e+01 3.2801545353775232e+01 1.1799849737390669e+00
9336 1 1 2.2121122305021565e+01 3.2738020285452016e+01 1.4433942722133184e+00
13032 1 1 2.2584764021202894e+01 3.3887638371628789e+01 7.9767157013416301e-01
1444 1 1 2.2592736108848673e+01 3.4045457753294947e+01 8.5634019181052945e-01
21056 2 2 2.4070699697740501e+01 3.3922179314254755e+01 4.7481191305880260e-01
12236 2 2 2.4830725229665543e+01 3.3830615661284590e+01 9.3979970927689949e-01
18559 1 1 2.5279902498815840e+01 3.3552519187644037e+01 1.1758870943258999e+00
12235 1 1 2.5157943562184823e+01 3.3649222005734543e+01 1.1113724102394660e+00
18560 2 2 2.5561432355162580e+01 3.3388229358917940e+01 1.3931854337443947e+00
21057 1 1 2.4374523997787449e+01 3.3935657438321456e+01 6.5280953425563382e-01
12237 1 1 2.4487871198051426e+01 3.3908659266145399e+01 7.4934889195467225e-01
12721 1 1 2.6125575940994420e+01 3.3324246534533174e+01 1.3300753581480913e+00
18561 1 1 2.5939301275339584e+01 3.3344091423250092e+01 1.3567490679114083e+00
12722 2 2 2.6474461811616536e+01 3.3172772546443298e+01 1.2949537691253845e+00
2827 1 1 2.6316940616382421e+01 3.4049268822143553e+01 8.9599031210357793e-01
2828 2 2 2.6435586544055514e+01 3.3937098119145460e+01 5.8799111976218044e-01
2829 1 1 2.6439540377560942e+01 3.3742039440966664e+01 2.6615980992077715e-01
12723 1 1 2.6629360409635694e+01 3.2966438527889650e+01 1.5470573884099623e+00
13062 1 1 2.6458014925705061e+01 3.3642890679794725e+01 1.2341276390117110e-01
6360 1 1 2.1041945842293984e+01 3.4057995688610937e+01 1.4150018926062344e+00
1445 2 2 2.2565406869393154e+01 3.4401486698937077e+01 1.0103071499489902e+00
4083 1 1 2.1696596021822735e+01 3.5462476563643840e+01 6.4136924622843539e-01
13744 1 1 2.1635925099070370e+01 3.5578507456144422e+01 7.1390153526962197e-01
4082 2 2 2.1799805325079362e+01 3.5106106302430803e+01 4.5828901377989473e-01
1446 1 1 2.2443091411207313e+01 3.4767163378819909e+01 1.0776021916450373e+00
19077 1 1 2.2430181283492441e+01 3.4899715441581002e+01 1.1251291050299419e+00
19076 2 2 2.2380628794928828e+01 3.5243714251822787e+01 1.2951821912064310e+00
7749 1 1 2.1934900658865526e+01 3.4580453438796731e+01 3.3611251602850389e-01
7748 2 2 2.2052753100642438e+01 3.4226359732966472e+01 1.6372464591866220e-01
4081 1 1 2.1884000359277351e+01 3.4717584958526622e+01 3.8946873662866344e-01
16577 2 2 2.3564027796150658e+01 3.4248151042555207e+01 1.3741217372670589e+00
16576 1 1 2.3946229601290195e+01 3.4326652864903473e+01 1.5312172697501361e+00
21055 1 1 2.3751437733529620e+01 3.4151634108596816e+01 4.0794193780788263e-01
569 3 3 2.3384344364277510e+01 3.4538472915067857e+01 2.3178361919898582e-01
568 1 1 2.3647901770234629e+01 3.4244134515309860e+01 3.9424281188393806e-01
17162 3 3 2.3418179059586844e+01 3.5446569012087025e+01 3.8088834185255621e-01
570 1 1 2.3440487011202627e+01 3.4944069559373560e+01 3.4955886561820471e-01
17163 1 1 2.3440318186584445e+01 3.5103466131060969e+01 3.5507110264373620e-01
2601 1 1 2.6285247290244119e+01 3.4103802635725138e+01 1.0456761793201972e+00
2600 2 2 2.6234801653709344e+01 3.4234122233786564e+01 1.3995937454918985e+00
9254 2 2 1.9646916325124032e+01 3.6835048906780720e+01 1.3844435641846100e+00
7818 1 1 1.9121496684392035e+01 3.6684761894632892e+01 1.4921038169494829e+00
9255 1 1 1.9276889669093176e+01 3.6691513168091952e+01 1.4589139808184823e+00
12402 1 1 2.0256928022625058e+01 3.6935057325067284e+01 1.3223581717221036e+00
9253 1 1 2.0082159709853716e+01 3.6896362623821652e+01 1.3335683269781660e+00
12401 2 2 2.0619549670441177e+01 3.7020583065351417e+01 1.3373837934959767e+00
12400 1 1 2.0990621599972929e+01 3.7084567268368055e+01 1.3102760311334520e+00
19003 1 1 2.1142793265299165e+01 3.7099486561118248e+01 1.3018489283868409e+00
19075 1 1 2.2375875929104563e+01 3.5693878415234522e+01 1.3642421724961280e+00
19027 1 1 2.2362912152508716e+01 3.5836321966532438e+01 1.4145381808753557e+00
13745 2 2 2.1463288022915943e+01 3.5890233850421900e+01 9.5116354044377993e-01
13746 1 1 2.1421329005247394e+01 3.6034617816687266e+01 1.3264417803050657e+00
11685 1 1 2.1388857056051457e+01 3.6081535153769273e+01 1.4625245052935787e+00
19005 1 1 2.1931236631503094e+01 3.7178651931131611e+01 1.2367402805291077e+00
580 1 1 2.2073534393992457e+01 3.7163298348335367e+01 1.2130823381392855e+00
19004 2 2 2.1531687393683942e+01 3.7149872761714136e+01 1.3375232581073568e+00
581 2 2 2.2447220080878640e+01 3.7166065381599516e+01 1.1047452170792997e+00
582 1 1 2.2798454011568502e+01 3.7084294531408403e+01 1.3089959813601451e+00
19210 1 1 2.2929535700725893e+01 3.7063432126683956e+01 1.3936985175939913e+00
18172 1 1 2.3884511149788779e+01 3.6611764598266177e+01 8.8508647830473808e-01
1489 1 1 2.3969684555453838e+01 3.6719808772524551e+01 9.4101282344494608e-01
18173 2 2 2.3641955552109003e+01 3.6330653659763357e+01 7.5618697216358322e-01
18174 1 1 2.3505566597438190e+01 3.5959399661865845e+01 6.5324578216638474e-01
17161 1 1 2.3470046825357869e+01 3.5815230974193824e+01 5.8982804015229939e-01
1490 2 2 2.4191077230227584e+01 3.7022690534242756e+01 1.1194561201307518e+00
16610 2 2 2.4994461162655906e+01 3.5792794187316666e+01 1.4596641723911767e+00
3250 1 1 2.4811196114111176e+01 3.5795811365592471e+01 1.9642636826505244e-01
3251 2 2 2.4655217406368163e+01 3.5962107575016326e+01 5.3739072149467715e-01
16611 1 1 2.4841647256755127e+01 3.5914449990241842e+01 1.1010124043559055e+00
3252 1 1 2.4799151194120348e+01 3.5922790393026141e+01 9.7205631269878212e-01
14101 1 1 2.4880217183312382e+01 3.5739118667403254e+01 7.0226614137624183e-02
14601 1 1 2.5765074561329307e+01 3.6912626876800928e+01 1.5014018757567913e+00
14600 2 2 2.6074512363645244e+01 3.6886616589193721e+01 1.2923455234022030e+00
14599 1 1 2.6457856257832159e+01 3.6861234783010083e+01 1.0916726905454006e+00
1491 1 1 2.4216592376398715e+01 3.7277351406929540e+01 1.3793146707762733e+00
10518 1 1 2.4242698623871483e+01 3.7398091799391452e+01 1.4859325621089003e+00
1525 1 1 1.8171179760382088e+01 4.0251234773388063e+01 1.2089494769168516e+00
1526 3 3 1.8506343302995305e+01 4.0070534814584434e+01 1.4307850154112973e+00
20815 1 1 2.0662227427021818e+01 3.9865878248373228e+01 1.2299290990246434e+00
20816 3 3 2.1020895615600214e+01 4.0053402644311696e+01 1.2205396922266576e+00
4892 2 2 2.2483772060764267e+01 3.8899405568921864e+01 1.3326222194649233e+00
13345 1 1 2.1468886728693306e+01 3.9910470796739034e+01 1.4231659799955814e+00
20817 1 1 2.1333823176681616e+01 3.9933517769912555e+01 1.3671198110036584e+00
21251 2 2 2.3128864644762231e+01 3.9678278924151591e+01 1.3047302843565487e+00
21252 1 1 2.2832588682910782e+01 3.9344778390318929e+01 1.3272094446515399e+00
4891 1 1 2.2753007158010501e+01 3.9240505907988918e+01 1.3255605289700991e+00
10776 1 1 2.4563215578711816e+01 3.9376028194322132e+01 9.8378154384090122e-01
10775 2 2 2.4940764237893799e+01 3.9610783948241640e+01 9.3394920719587360e-01
10774 1 1 2.5397363970853899e+01 3.9590791746410815e+01 1.0103921663847304e+00
17131 1 1 2.5539926064458449e+01 3.9590745978111656e+01 1.0333852947465076e+00
17132 2 2 2.5941914775590867e+01 3.9611171730449470e+01 1.1045609421180320e+00
17133 1 1 2.6061601562104041e+01 3.9712969745679139e+01 1.4844348771595544e+00
3479 3 3 2.1403985623566218e+01 2.9266523214703781e+01 1.5982766866912095e+00
8094 1 1 2.4040939165019655e+01 2.7772338924752592e+01 2.6674856405180902e+00
8093 2 2 2.3713599934318992e+01 2.8013915092299793e+01 2.6490690173486260e+00
8092 1 1 2.3573607132624311e+01 2.8454429499419849e+01 2.5883830026883303e+00
5341 1 1 2.3521871987801251e+01 2.8619221301157875e+01 2.5474159347169212e+00
5342 3 3 2.3455631384115197e+01 2.8981429861682720e+01 2.4635903999738860e+00
4771 1 1 1.9122686003732863e+01 3.0552623612828313e+01 2.4997665667330624e+00
20446 1 1 1.9134031333955207e+01 3.0429225433085033e+01 2.6050382838909334e+00
20447 3 3 1.9193424102331825e+01 3.0086036912064799e+01 2.8331464453381328e+00
924 1 1 2.1132396563762132e+01 2.9694443211468737e+01 1.8414321530314868e+00
923 2 2 2.0994105985194739e+01 2.9875794269543153e+01 2.1464023741082587e+00
922 1 1 2.0804613774554799e+01 3.0110993988011575e+01 2.4580174375457013e+00
1308 1 1 2.0752139461583326e+01 3.0181064025676410e+01 2.5856819506178894e+00
1307 2 2 2.0668866685662547e+01 3.0359047335101259e+01 2.9088719986934115e+00
3480 1 1 2.1215764989528530e+01 2.9585230769686177e+01 1.7508812628280328e+00
1775 2 2 2.2492277635698947e+01 3.0373231007954981e+01 2.2772827845138726e+00
18743 2 2 2.1754196665481661e+01 3.0711226415944445e+01 1.8406434664861853e+00
18742 1 1 2.2009758034761866e+01 3.0565789556323768e+01 2.1010106361057801e+00
1776 1 1 2.2128733745114712e+01 3.0516093100023255e+01 2.1849371185564759e+00
2778 1 1 2.3494269560759733e+01 2.9937249517703787e+01 1.5843355351732247e+00
2776 1 1 2.2904612203738687e+01 3.0089591036372806e+01 2.0299706446772721e+00
1774 1 1 2.2785323177698576e+01 3.0172768665378683e+01 2.0867613866770931e+00
2777 2 2 2.3182324226461287e+01 2.9829991755196339e+01 1.8348785154869005e+00
8153 2 2 2.3801618102283484e+01 3.0693263232163979e+01 1.9555229475505811e+00
8064 1 1 2.4176602318310877e+01 3.0646036794545399e+01 2.4517267107009668e+00
8154 1 1 2.4068987834065183e+01 3.0680982342054978e+01 2.3229997500149500e+00
5343 1 1 2.3591798911060774e+01 2.9385652273956584e+01 2.6102885114578909e+00
18703 1 1 2.3634399670341768e+01 2.9528263332978714e+01 2.6679223959536906e+00
18704 2 2 2.3662146626239359e+01 2.9885339471376831e+01 2.8571385092589261e+00
18705 1 1 2.3462151524432869e+01 3.0185836454238878e+01 3.0307994169700825e+00
8063 2 2 2.4499815557587961e+01 3.0557740170836187e+01 2.6977495634428190e+00
8062 1 1 2.4901612705629518e+01 3.0483422863560570e+01 2.6540248762373522e+00
624 1 1 2.5077049486875620e+01 3.0443676208116763e+01 2.6451988401070703e+00
623 2 2 2.5443124001910014e+01 3.0316062039464413e+01 2.5992390410446906e+00
622 1 1 2.5842060426958525e+01 3.0349794665205106e+01 2.7003945037303740e+00
3652 1 1 2.5962258277320110e+01 3.0373182288522560e+01 2.7289838855147286e+00
3653 3 3 2.6328465219997682e+01 3.0501772295971563e+01 2.7917909230732798e+00
3654 1 1 2.6471624457800900e+01 3.0848659027527475e+01 2.8188543873183516e+00
4772 3 3 1.9138425565414561e+01 3.0897978243535281e+01 2.2691615411287209e+00
3565 1 1 1.9695064209103119e+01 3.1083639822484265e+01 2.2950239119303504e+00
4773 1 1 1.9568524027243029e+01 3.1026214421142317e+01 2.2855607251876182e+00
3566 2 2 2.0042696148263882e+01 3.1233838875344631e+01 2.3274779947644388e+00
9541 1 1 2.0958952059871891e+01 3.1925621031940096e+01 1.6566180284865564e+00
5622 1 1 2.0512820363992059e+01 3.1165982461555835e+01 2.1342444896039487e+00
3567 1 1 2.0395765336248029e+01 3.1172449208891582e+01 2.1897007614517938e+00
5621 2 2 2.0893728448893334e+01 3.1094533460967689e+01 1.9950275838692906e+00
9542 2 2 2.0776611811081654e+01 3.2123493674719704e+01 1.9947877538746095e+00
9543 1 1 2.0896730486403058e+01 3.2325730124284220e+01 2.2678762407888220e+00
4221 1 1 2.0951053730468782e+01 3.2380411161626803e+01 2.3886291406815965e+00
1325 2 2 2.1015158424339315e+01 3.1433158195779185e+01 3.0141534058365127e+00
5620 1 1 2.1278757249239575e+01 3.0955887847358120e+01 1.9252420897100679e+00
18744 1 1 2.1395816530138593e+01 3.0901084856502401e+01 1.8970106378200635e+00
11497 1 1 2.1443904803206362e+01 3.1475739227191184e+01 2.7720451743580203e+00
1324 1 1 2.1325484002071839e+01 3.1457685415310387e+01 2.8570059291675753e+00
11498 2 2 2.1709716329842564e+01 3.1539959288190804e+01 2.5565092240329257e+00
11499 1 1 2.2007697118465948e+01 3.1777383403330759e+01 2.3487205635230368e+00
15325 1 1 2.2129729405106232e+01 3.1849438250075330e+01 2.2322981543572693e+00
15326 2 2 2.2455797167224560e+01 3.1965882006247583e+01 1.9853899628717937e+00
14596 1 1 2.2435156192463527e+01 3.1097722785033838e+01 3.0722118646755270e+00
15327 1 1 2.2804472359544455e+01 3.2037968989974537e+01 1.8824810961678495e+00
17491 1 1 2.2954651540941615e+01 3.2063463325342568e+01 1.8434222944929353e+00
7052 2 2 2.3123438152675433e+01 3.1142076924368144e+01 1.6139228793773641e+00
17492 2 2 2.3311826182428483e+01 3.2209389123586263e+01 1.7153117528658981e+00
8152 1 1 2.3499122637258409e+01 3.0875485974193051e+01 1.8126527084194006e+00
7053 1 1 2.3389313360472233e+01 3.0941203901373857e+01 1.7624472417455630e+00
17793 1 1 2.3947831844575209e+01 3.1581079429860544e+01 2.2533379115489374e+00
9784 1 1 2.3840117411261232e+01 3.1537582504823163e+01 2.3706587869348121e+00
17792 2 2 2.4221838069926036e+01 3.1682431337026173e+01 1.9037427255189450e+00
14598 1 1 2.3084856119062241e+01 3.1458086016696917e+01 2.8304110450073772e+00
9785 2 2 2.3592014197118981e+01 3.1408630978004066e+01 2.6369140662311144e+00
9786 1 1 2.3221323327044370e+01 3.1459452117927526e+01 2.7604061120867702e+00
14597 2 2 2.2734885599280336e+01 3.1438036492862150e+01 2.9654070332161795e+00
6468 1 1 2.4550662363464170e+01 3.1924545064674863e+01 3.0633622782384666e+00
11681 2 2 2.5579203463407151e+01 3.1254495709432433e+01 2.0228646159707515e+00
11680 1 1 2.5462723259491131e+01 3.1459081154193484e+01 2.3609747556589187e+00
2653 1 1 2.5437827601393376e+01 3.1516862571811320e+01 2.5100349176063808e+00
2654 2 2 2.5452176057444039e+01 3.1637466558670695e+01 2.8237869215135558e+00
2655 1 1 2.5539299691067185e+01 3.1406137771159894e+01 3.0940137316578120e+00
10464 1 1 2.4558640274701613e+01 3.2043750237939989e+01 2.9850530857667996e+00
10463 2 2 2.4620036031013928e+01 3.2390459693025328e+01 2.7032525708318969e+00
19415 2 2 2.5213818646306368e+01 3.2311283903829185e+01 1.7505371273405224e+00
15532 1 1 2.5910510523958070e+01 3.0918559607020356e+01 1.6561880680014323e+00
11682 1 1 2.5814849031266466e+01 3.0999304738782339e+01 1.7407689946209799e+00
15750 1 1 2.6503523242795406e+01 3.0987610699431961e+01 2.8148396876151875e+00
15749 2 2 2.6586297023173735e+01 3.1395171968310006e+01 2.7669138368620727e+00
6359 2 2 2.1000706967123005e+01 3.3793482408627575e+01 1.7441603641503756e+00
2293 1 1 2.0920408932119276e+01 3.3916605632550755e+01 2.2758847146933507e+00
6358 1 1 2.0948784468563840e+01 3.3897341425668458e+01 2.1103933206200436e+00
4220 2 2 2.1161294878190891e+01 3.2468481052033169e+01 2.7386444944798116e+00
2294 2 2 2.0866011820855583e+01 3.3933889181615903e+01 2.6507009561480710e+00
2295 1 1 2.1032230371786213e+01 3.3837505336179696e+01 2.9390965087581722e+00
8122 1 1 2.1106481822723445e+01 3.3827656335141938e+01 3.0863339845304010e+00
9570 1 1 2.1997767645925400e+01 3.2722631391080306e+01 1.5887624241300937e+00
4219 1 1 2.1376280677132009e+01 3.2509779252561074e+01 3.0912054675389919e+00
9569 2 2 2.1773114376562749e+01 3.2705303297450570e+01 1.9068944220761861e+00
9568 1 1 2.1987110829923413e+01 3.2736998732379398e+01 2.2118501478710173e+00
750 1 1 2.2536917863309043e+01 3.3990489715170447e+01 1.9879848279507266e+00
7986 1 1 2.2075175351831970e+01 3.2736717739671612e+01 2.3445841370538396e+00
7985 2 2 2.2273630076883826e+01 3.2733857309553130e+01 2.6949905436873687e+00
749 2 2 2.2798546621595740e+01 3.3760969143029804e+01 1.9004200594440979e+00
1126 1 1 2.4013874459063761e+01 3.2900809107505616e+01 1.6043082134800477e+00
5838 1 1 2.3889488591347625e+01 3.2946999418764307e+01 1.6082560731230904e+00
748 1 1 2.3059474307147898e+01 3.3512982592998071e+01 1.8311464827778117e+00
5836 1 1 2.3196051000366236e+01 3.3384888710375620e+01 1.7802381118840875e+00
5837 2 2 2.3544345653363049e+01 3.3129268560146066e+01 1.6260845743489551e+00
16901 2 2 2.4028970672899355e+01 3.3564543789128251e+01 2.8241093296871229e+00
16900 1 1 2.3715537289215167e+01 3.3603952799320169e+01 3.0900053000607857e+00
1127 2 2 2.4391664700595815e+01 3.2738041122564844e+01 1.6450892014932983e+00
16902 1 1 2.4386544257604669e+01 3.3476543141054364e+01 2.6623298222647582e+00
10462 1 1 2.4282627691222675e+01 3.2657485655377776e+01 2.5891619880271937e+00
13368 1 1 2.5628922933368578e+01 3.2526903949354107e+01 2.0432824136318199e+00
19416 1 1 2.5519156336263933e+01 3.2480538180862538e+01 1.9494753967403475e+00
19414 1 1 2.4907449302403126e+01 3.2572802863552646e+01 1.7203956006272847e+00
1128 1 1 2.4765740944316509e+01 3.2642940234383417e+01 1.7087577934280134e+00
19905 1 1 2.4512693115524982e+01 3.3457695732058440e+01 2.5983010186570508e+00
19904 2 2 2.4857770420377250e+01 3.3409203950202581e+01 2.4880632198158210e+00
19903 1 1 2.5216105742693649e+01 3.3553496815489353e+01 2.5479651217055062e+00
7297 1 1 2.5369114545547603e+01 3.3601033920040962e+01 2.5636889040579707e+00
7298 2 2 2.5735426096769149e+01 3.3711238160092364e+01 2.5811042981060770e+00
13367 2 2 2.5919125824144086e+01 3.2610942083458070e+01 2.3173156125352161e+00
13366 1 1 2.5904596419481216e+01 3.2536735329951590e+01 2.7597835908860704e+00
19576 1 1 2.5889176774333912e+01 3.2514982562228099e+01 2.9106792617204129e+00
7299 1 1 2.6117072459506208e+01 3.3738430307426135e+01 2.6133803081494125e+00
19479 1 1 2.6703391181434728e+01 3.2890664604574823e+01 1.6401304671645089e+00
18309 1 1 2.6878600867566991e+01 3.2747936796052699e+01 2.4347035204975844e+00
19478 2 2 2.6888049087783799e+01 3.2678370554767483e+01 1.9341473208997806e+00
19477 1 1 2.6879771595227794e+01 3.2732401315583544e+01 2.3074186832007215e+00
18308 2 2 2.6802928983445828e+01 3.2857640963939261e+01 2.8123289594219862e+00
10521 1 1 2.6263021980320087e+01 3.3761229532562922e+01 2.6393617586599927e+00
10520 2 2 2.6677802062048720e+01 3.3810104161781048e+01 2.7172234832994873e+00
10519 1 1 2.6799014896253333e+01 3.3835999570935741e+01 3.0944810190007699e+00
10099 1 1 1.7971190689685340e+01 3.5512389178714578e+01 3.0620058029508148e+00
19600 1 1 1.8062214671184940e+01 3.5617911600004085e+01 3.0327071980662481e+00
20072 2 2 1.9478455906918079e+01 3.5150404100385437e+01 2.4007167111384793e+00
20071 1 1 1.9174167727177871e+01 3.5371655270439220e+01 2.2393377941339465e+00
9868 1 1 1.9078935326551235e+01 3.5446117660871522e+01 2.1901425100723686e+00
20073 1 1 1.9634220966034505e+01 3.4940959283373978e+01 2.0960930171448102e+00
3450 1 1 2.0852518621694376e+01 3.5149953758412771e+01 2.0745638451822725e+00
9864 1 1 2.0979185200425416e+01 3.5053928381084404e+01 2.0670921568608431e+00
6988 1 1 2.0714616397697132e+01 3.4837396011480187e+01 3.0262478409143068e+00
3449 2 2 2.0578299475921760e+01 3.5383473172349099e+01 2.0886684953022208e+00
6989 2 2 2.0432244514857373e+01 3.5117845150851217e+01 3.0234650507813878e+00
11400 1 1 2.2410006928779318e+01 3.4061085290226345e+01 1.9993698148580410e+00
9863 2 2 2.1292196772609234e+01 3.4824440349074102e+01 2.0186757155604447e+00
11399 2 2 2.2034633612263399e+01 3.4194921648839710e+01 2.0390884322529610e+00
9862 1 1 2.1607886693173604e+01 3.4534546975824661e+01 2.0096579410964246e+00
11398 1 1 2.1698240974838448e+01 3.4422492569864076e+01 2.0066515887230318e+00
4640 2 2 2.2281273442570292e+01 3.5077287334301090e+01 2.5349425849992957e+00
4641 1 1 2.1932767285173703e+01 3.4974551299210873e+01 2.7574499314918848e+00
5989 1 1 2.1823712824472370e+01 3.4899956642032947e+01 2.8584292727016951e+00
4639 1 1 2.2638322677846030e+01 3.4941280814504410e+01 2.3982411816207798e+00
5990 2 2 2.1575537398876101e+01 3.4685153107956438e+01 3.0594323977714386e+00
2119 1 1 2.2752739020508034e+01 3.4872965124542901e+01 2.3118301165686410e+00
2120 2 2 2.3040374504507493e+01 3.4736758888826522e+01 2.0867627806712914e+00
2121 1 1 2.3307072411625985e+01 3.4559544939727694e+01 1.7853481786277736e+00
16578 1 1 2.3377662095639277e+01 3.4479111744631318e+01 1.6923991708665456e+00
5724 1 1 2.4080636422591372e+01 3.4323149382896105e+01 1.5989210479270988e+00
1829 2 2 2.5334416687440214e+01 3.4456759509685710e+01 1.6272763692789380e+00