ITEM: TIMESTEP
0
ITEM: NUMBER OF ATOMS
180
ITEM: BOX BOUNDS pp pp pp
0.0000000000000000e+00 5.0000000000000000e+01
0.0000000000000000e+00 5.0000000000000000e+01
0.0000000000000000e+00 5.0000000000000000e+01
ITEM: ATOMS id type 
388 1 
389 2 
390 1 
1168 1 
1169 2 
1170 1 
2296 1 
2297 2 
2298 1 
2473 1 
2474 2 
2475 1 
3205 1 
3206 2 
3207 1 
3319 1 
3320 2 
3321 1 
3370 1 
3371 3 
3372 1 
3616 1 
3617 2 
3618 1 
6802 1 
6803 2 
6804 1 
13219 1 
13220 2 
13221 1 
13264 1 
13265 2 
13266 1 
14233 1 
14234 2 
14235 1 
15376 1 
15377 2 
15378 1 
15484 1 
15485 2 
15486 1 
17521 1 
17522 2 
17523 1 
19864 1 
19865 2 
19866 1 
20887 1 
20888 2 
20889 1 
175 1 
176 3 
177 1 
460 1 
461 2 
462 1 
1366 1 
1367 2 
1368 1 
2278 1 
2279 2 
2280 1 
2563 1 
2564 2 
2565 1 
3709 1 
3710 2 
3711 1 
6031 1 
6032 2 
6033 1 
6892 1 
6893 2 
6894 1 
7234 1 
7235 2 
7236 1 
7852 1 
7853 3 
7854 1 
8971 1 
8972 2 
8973 1 
9160 1 
9161 2 
9162 1 
10378 1 
10379 2 
10380 1 
10537 1 
10538 2 
10539 1 
12277 1 
12278 2 
12279 1 
12526 1 
12527 2 
12528 1 
17317 1 
17318 2 
17319 1 
18778 1 
18779 2 
18780 1 
19726 1 
19727 2 
19728 1 
20854 1 
20855 3 
20856 1 
20989 1 
20990 2 
20991 1 
607 1 
608 2 
609 1 
8728 1 
8729 2 
8730 1 
11881 1 
11882 2 
11883 1 
12985 1 
12986 2 
12987 1 
15010 1 
15011 2 
15012 1 
19030 1 
19031 2 
19032 1 
19333 1 
19334 2 
19335 1 
21505 1 
21506 2 
21507 1 
5080 1 
5081 2 
5082 1 
5191 1 
5192 2 
5193 1 
6532 1 
6533 2 
6534 1 
7432 1 
7433 2 
7434 1 
7678 1 
7679 2 
7680 1 
8809 1 
8810 2 
8811 1 
9940 1 
9941 2 
9942 1 
11029 1 
11030 2 
11031 1 
13780 1 
13781 2 
13782 1 
14026 1 
14027 2 
14028 1 
14866 1 
14867 3 
14868 1 
21097 1 
21098 2 
21099 1 
21346 1 
21347 2 
21348 1 
21529 1 
21530 3 
21531 1 
