ITEM: TIMESTEP
60000000
ITEM: NUMBER OF ATOMS
1455
ITEM: BOX BOUNDS pp pp pp
0.0000000000000000e+00 5.0000000000000000e+01
0.0000000000000000e+00 5.0000000000000000e+01
0.0000000000000000e+00 5.0000000000000000e+01
ITEM: ATOMS id type xs ys zs
2381 2 0.0175062 0.631581 0.00259338
2382 1 0.0129995 0.624702 0.0031671
13909 1 0.00147758 0.649168 0.00170157
4410 1 0.0324174 0.664078 0.0041926
11780 2 0.0445321 0.660326 0.00541235
11779 1 0.0360661 0.663046 0.0048534
11781 1 0.0499244 0.662528 0.000605592
19179 1 0.0999924 0.665025 0.00216314
4409 2 0.0254606 0.667185 0.00197638
3880 1 0.0158292 0.680462 0.014843
3881 2 0.0181786 0.68617 0.010687
11661 1 0.0145111 0.678191 0.0166273
3882 1 0.0203935 0.690454 0.00470102
9702 1 0.0271899 0.689851 0.0299804
11659 1 0.0024867 0.67347 0.0237206
2083 1 0.021207 0.692096 0.0022291
11660 2 0.0106741 0.672639 0.0225967
11950 1 0.0513632 0.686775 0.00946473
4551 1 0.0540919 0.687295 0.00897065
11952 1 0.0388104 0.686597 0.0153737
11951 2 0.0433835 0.683674 0.0101318
9700 1 0.0374459 0.687167 0.0182953
9701 2 0.0335908 0.689082 0.0240806
4550 2 0.0604661 0.69032 0.00838544
4549 1 0.067703 0.691758 0.00568606
12242 2 0.0759564 0.696473 0.00138556
12241 1 0.0704227 0.693346 0.00430577
16531 1 0.0914649 0.67687 0.000480034
16533 1 0.0989704 0.667521 0.00333908
16532 2 0.0955711 0.67348 0.00490022
1297 1 0.100969 0.694041 0.00261104
14163 1 0.103612 0.69275 0.00166805
594 1 0.0309519 0.722394 0.0019684
3511 1 0.0273557 0.706664 0.0159261
3512 2 0.0192999 0.705684 0.0176152
3513 1 0.0103956 0.707616 0.0160022
17415 1 0.00691029 0.707844 0.0159476
16884 1 0.0304326 0.70696 0.0153885
16883 2 0.037955 0.707006 0.0118727
16882 1 0.0447909 0.707551 0.00870492
15517 1 0.0469292 0.708932 0.00697563
6810 1 0.0322846 0.723764 0.00395851
6808 1 0.0435685 0.725682 0.00823131
15518 2 0.0525916 0.712226 0.00148089
1299 1 0.0869359 0.697009 0.00263966
12243 1 0.0836497 0.69734 0.00222545
1298 2 0.0939234 0.697249 0.00426248
6809 3 0.0358186 0.72741 0.00982326
14099 3 0.018647 0.691616 0.036125
14098 1 0.0251876 0.69019 0.031935
14100 1 0.0147332 0.697319 0.0384945
2813 3 0.000928258 0.715805 0.0394947
13141 1 0.0082522 0.633584 0.84555
3079 1 0.00648102 0.635352 0.84518
4838 2 0.0238695 0.658523 0.844737
4837 1 0.0169929 0.662488 0.845072
4839 1 0.0263265 0.651332 0.843281
627 1 0.027081 0.6486 0.843051
12571 1 0.0146603 0.663881 0.845364
3080 2 0.00064013 0.640895 0.844681
626 2 0.0317405 0.64162 0.842255
625 1 0.0393578 0.638965 0.845185
14889 1 0.0600993 0.638192 0.845813
14888 2 0.0683778 0.640636 0.842921
14887 1 0.0722743 0.646559 0.844447
11751 1 0.0735446 0.648943 0.84526
14932 1 0.0174442 0.681509 0.837968
14933 2 0.0216685 0.683132 0.844882
10288 1 0.0596979 0.707035 0.827029
10290 1 0.066368 0.700763 0.838327
11319 1 0.0672021 0.698909 0.84082
10289 3 0.0646426 0.705865 0.832506
20488 1 0.0527571 0.728199 0.844605
9357 1 0.0449517 0.766519 0.844143
9355 1 0.0557751 0.758421 0.838471
9356 2 0.0517384 0.765876 0.839349
12956 3 0.0566658 0.593401 0.861428
12955 1 0.0509281 0.60035 0.860831
4996 1 0.0486587 0.60292 0.860656
12957 1 0.0624887 0.589915 0.857026
5653 1 0.0104368 0.606228 0.847096
14784 1 0.0045634 0.616456 0.863674
4179 1 0.023537 0.624222 0.852448
13143 1 0.0205281 0.62577 0.85054
13142 2 0.0144004 0.628714 0.847271
4178 2 0.0296069 0.621163 0.857072
18660 1 0.0170653 0.630923 0.876369
15090 1 0.0176653 0.632687 0.874056
5654 2 0.00925911 0.610511 0.854302
5655 1 0.00578349 0.615147 0.861303
4177 1 0.0352914 0.615571 0.858666
4998 1 0.0379888 0.613832 0.859495
4997 3 0.0440785 0.609576 0.860241
11720 2 0.0493375 0.634683 0.849664
15089 2 0.0204481 0.636992 0.867849
3081 1 0.00275377 0.644558 0.851642
6712 1 0.00274322 0.645871 0.854283
3316 1 0.0301542 0.663526 0.864321
18310 1 0.0279479 0.665729 0.864566
6713 2 0.00386973 0.649513 0.861431
6714 1 0.00605568 0.654681 0.867007
8569 1 0.0229409 0.642847 0.876068
15088 1 0.0221385 0.64136 0.87383
20104 1 0.00662116 0.656552 0.869649
20105 2 0.00828794 0.660552 0.876163
11721 1 0.0419909 0.637714 0.846412
3317 2 0.0361016 0.657365 0.862885
11719 1 0.0573262 0.637112 0.847186
3318 1 0.0443429 0.658924 0.862948
15463 1 0.0473066 0.659329 0.862816
15464 2 0.0552702 0.661672 0.863895
17147 2 0.045298 0.639332 0.875091
11750 2 0.0772056 0.656321 0.847717
11749 1 0.0802343 0.660665 0.853498
8511 1 0.0812168 0.662729 0.855871
6263 3 0.11994 0.663053 0.866888
6262 1 0.112918 0.666172 0.866274
6264 1 0.126284 0.656905 0.867464
12572 2 0.00698606 0.66827 0.847097
18311 2 0.022729 0.671936 0.864094
18312 1 0.0223797 0.680058 0.867979
13132 1 0.0215354 0.681922 0.86985
14934 1 0.0221851 0.689502 0.849906
13133 2 0.0190982 0.687213 0.876049
5254 1 0.0219686 0.692033 0.85173
10359 1 0.00127046 0.675192 0.853859
12573 1 0.00266614 0.673406 0.852336
15465 1 0.0576977 0.667435 0.858426
14502 1 0.0585324 0.669406 0.857205
13328 2 0.0409818 0.67971 0.867631
4118 2 0.0559355 0.6929 0.867223
4119 1 0.0505642 0.686341 0.86718
13327 1 0.0482055 0.684552 0.867148
13329 1 0.0392439 0.673001 0.872502
2383 1 0.0383274 0.670833 0.875131
11317 1 0.0644536 0.686397 0.850036
14500 1 0.0636039 0.683531 0.851075
11318 2 0.0664323 0.693895 0.847417
14501 2 0.0625832 0.675568 0.852582
8510 2 0.0840492 0.667691 0.860944
8509 1 0.0798889 0.671573 0.867624
20611 1 0.0783162 0.673226 0.8696
20612 2 0.0740246 0.677201 0.875557
19628 2 0.11766 0.692519 0.861725
19629 1 0.109543 0.693182 0.861652
21118 1 0.0983475 0.690855 0.875708
10663 1 0.106412 0.693154 0.861655
10665 1 0.0982188 0.691637 0.872678
10664 2 0.0983831 0.693042 0.863554
11457 1 0.110363 0.667835 0.866009
11456 2 0.104587 0.672887 0.864965
11455 1 0.0987795 0.675102 0.870281
19451 3 0.134661 0.68773 0.866033
19450 1 0.139499 0.683033 0.871955
19627 1 0.124939 0.692061 0.864654
19452 1 0.127383 0.691488 0.865141
21279 1 0.14061 0.681355 0.874444
4970 2 0.014491 0.714262 0.865213
4969 1 0.0181663 0.707612 0.860854
5256 1 0.0196837 0.705381 0.859278
5255 2 0.0214048 0.699124 0.855199
4971 1 0.016201 0.718846 0.870993
11290 1 0.0163948 0.720358 0.873073
2006 2 0.0388481 0.71977 0.853301
4117 1 0.0584408 0.699366 0.87132
9649 1 0.0596441 0.701819 0.873124
4210 1 0.0574428 0.717993 0.87438
9651 1 0.0582002 0.715298 0.875201
2005 1 0.0453602 0.71516 0.852884
1869 1 0.0479809 0.714233 0.852485
1868 2 0.0553529 0.711269 0.853666
4211 2 0.0539277 0.725112 0.871339
2007 1 0.0327809 0.725649 0.852747
13805 2 0.0367389 0.712883 0.875222
1867 1 0.0632369 0.710664 0.857616
3945 1 0.0661707 0.710288 0.858848
3944 2 0.0749747 0.710458 0.860778
3943 1 0.0770428 0.716461 0.867065
1626 1 0.0775238 0.718321 0.870108
1625 2 0.078126 0.722871 0.876381
5300 3 0.0969601 0.727232 0.867432
1630 1 0.114576 0.715342 0.871499
12532 1 0.115513 0.717099 0.868821
12533 2 0.117418 0.721665 0.862462
12534 1 0.124855 0.724426 0.861533
13190 2 0.0235239 0.731376 0.850496
10755 1 0.0167982 0.740073 0.850726
10754 2 0.0107687 0.745688 0.850447
13191 1 0.0188057 0.737867 0.850787
19069 1 0.00153184 0.738463 0.851128
10753 1 0.00399603 0.74041 0.850289
12816 1 0.0156725 0.749191 0.872691
12815 2 0.0192638 0.742941 0.871444
12814 1 0.0259457 0.738783 0.869898
20394 1 0.0138794 0.751878 0.873283
13189 1 0.0302084 0.727436 0.852308
3486 1 0.0288861 0.737482 0.869599
20490 1 0.0507802 0.740975 0.852039
20489 2 0.0509713 0.73469 0.847307
10659 1 0.0506659 0.743375 0.853931
10658 2 0.0497328 0.748305 0.858414
10657 1 0.0437246 0.752549 0.861952
3485 2 0.036962 0.734639 0.869036
3484 1 0.0437739 0.729862 0.869744
4212 1 0.0466057 0.728397 0.870155
7325 2 0.0596543 0.74468 0.875976
2197 1 0.0413556 0.754288 0.863557
5301 1 0.089607 0.730386 0.868197
1018 1 0.0683247 0.731565 0.851255
7326 1 0.0652414 0.748936 0.872605
1019 2 0.0705903 0.7356 0.85744
1020 1 0.0769292 0.741725 0.857747
13095 1 0.0792512 0.743588 0.859028
13094 3 0.0873694 0.746375 0.861035
17526 1 0.0666509 0.750939 0.870991
13093 1 0.0886011 0.749963 0.868294
2983 1 0.0893346 0.750881 0.871314
5299 1 0.100991 0.73021 0.874732
20393 2 0.00982308 0.758252 0.874563
2198 2 0.0366576 0.759805 0.868089
2199 1 0.0384182 0.763864 0.874405
17525 2 0.069222 0.75794 0.867084
17524 1 0.073657 0.763007 0.867413
12553 1 0.0751067 0.765133 0.867466
12554 2 0.0809326 0.77054 0.868189
12555 1 0.0855904 0.773673 0.87145
6432 1 0.0874171 0.774869 0.873061
932 2 0.0735071 0.794718 0.874948
931 1 0.0723487 0.801887 0.87593
16793 2 0.0137218 0.604301 0.902642
15408 1 0.123092 0.605342 0.880353
1813 1 0.00730762 0.622009 0.888042
1814 2 0.00213691 0.61744 0.891213
16792 1 0.0194636 0.607274 0.897369
759 1 0.0214647 0.608514 0.895648
758 2 0.0275219 0.611469 0.892464
18658 1 0.00979131 0.623919 0.887182
757 1 0.0307474 0.61528 0.887806
18659 2 0.0149921 0.627269 0.882312
6871 1 0.0325732 0.617494 0.885899
14403 1 0.0582684 0.627488 0.878193
6873 1 0.039113 0.629802 0.877875
6872 2 0.0357967 0.622766 0.881112
17148 1 0.0403028 0.632453 0.876811
12647 2 0.0466167 0.616972 0.905711
12646 1 0.0424519 0.624793 0.906705
11762 2 0.0354462 0.633956 0.907063
11763 1 0.0405364 0.627613 0.906597
14402 3 0.0648948 0.626294 0.881922
14401 1 0.066581 0.63035 0.886599
5740 1 0.06753 0.631708 0.888582
5741 2 0.0702724 0.634927 0.896803
5742 1 0.0760332 0.634178 0.902682
9504 1 0.0780596 0.633156 0.904512
7815 1 0.117793 0.61662 0.891773
15406 1 0.119482 0.615165 0.890539
7814 3 0.112618 0.620825 0.89567
7813 1 0.10821 0.62858 0.89717
18757 1 0.106653 0.630674 0.89733
15407 2 0.124559 0.610178 0.88616
1832 2 0.00222483 0.659097 0.904256
8571 1 0.0233084 0.646138 0.889835
11008 1 0.023273 0.646471 0.893195
8570 2 0.0264537 0.646722 0.881489
11009 2 0.0207169 0.64882 0.900397
20106 1 0.0107442 0.665791 0.882159
11010 1 0.0201265 0.649807 0.907303
21360 1 0.0598926 0.659055 0.88414
17146 1 0.0493117 0.646816 0.877865
21359 2 0.0541876 0.656423 0.883795
21358 1 0.0509128 0.649103 0.87898
2384 2 0.0360767 0.665953 0.88184
9931 1 0.0971441 0.662737 0.888729
16899 1 0.0952359 0.665033 0.887036
18758 3 0.103542 0.638214 0.896932
9932 2 0.100825 0.657757 0.893652
18759 1 0.103119 0.646201 0.89552
9933 1 0.102404 0.649514 0.895072
7564 1 0.143344 0.658804 0.884507
7565 2 0.138957 0.658692 0.890273
7566 1 0.133173 0.661182 0.895014
10466 2 0.00845457 0.687022 0.900093
10467 1 0.00194919 0.691186 0.898485
13134 1 0.0159073 0.693042 0.880545
18763 1 0.0149312 0.695137 0.882271
10465 1 0.0114915 0.680567 0.89735
14298 1 0.0114576 0.667125 0.884156
14296 1 0.0125609 0.677559 0.895029
14297 2 0.0143719 0.671482 0.890355
6361 1 0.0350533 0.669385 0.892134
2385 1 0.035892 0.668232 0.889857
6362 2 0.0347339 0.67291 0.899369
6363 1 0.0343467 0.678229 0.905545
21179 2 0.037682 0.694508 0.882648
4495 1 0.0565853 0.68053 0.89482
4496 2 0.0508316 0.684513 0.890443
4497 1 0.0462328 0.689426 0.887958
21180 1 0.0439702 0.690841 0.88687
12856 1 0.0588313 0.67861 0.896969
10968 1 0.0338337 0.680206 0.907275
20613 1 0.0719991 0.682842 0.8793
11985 1 0.0712268 0.685385 0.880686
16898 2 0.0916496 0.671105 0.8841
16897 1 0.0902445 0.679297 0.879959
12857 2 0.0647264 0.675107 0.899995
12858 1 0.0706319 0.670569 0.904174
17421 1 0.071902 0.668398 0.90562
11352 1 0.0849557 0.683793 0.905902
11351 2 0.0869013 0.686051 0.898413
11350 1 0.0919648 0.686121 0.892029
11984 2 0.0693195 0.690281 0.88518
11983 1 0.0724 0.696007 0.888539
21119 2 0.099846 0.689529 0.883156
21120 1 0.0940483 0.687231 0.889606
8930 2 0.117384 0.694337 0.902065
16690 1 0.119541 0.683124 0.903424
16691 2 0.120788 0.675577 0.905046
8929 1 0.118974 0.686384 0.903197
21278 3 0.142655 0.676905 0.880907
21277 1 0.144635 0.673404 0.887816
15703 1 0.00350862 0.71113 0.888089
18765 1 0.00594324 0.708524 0.887327
18764 2 0.0119113 0.702786 0.8853
14967 1 0.0158209 0.709176 0.90544
14965 1 0.0299592 0.70609 0.90553
5189 2 0.0217479 0.725921 0.898481
11291 2 0.0181733 0.724069 0.879868
11292 1 0.0193237 0.726523 0.888323
5188 1 0.0198932 0.726959 0.891536
3724 1 0.013241 0.710751 0.905298
3725 2 0.00716502 0.713676 0.905839
5190 1 0.022723 0.726839 0.907112
9650 2 0.0618907 0.708907 0.877439
5122 1 0.0594339 0.703406 0.904188
21178 1 0.0360085 0.702816 0.878891
13806 1 0.035846 0.705461 0.877843
5123 2 0.0590707 0.709156 0.8996
13804 1 0.0386878 0.718256 0.880563
7120 1 0.039312 0.720368 0.882676
12598 1 0.0331562 0.707294 0.904642
14977 1 0.0589852 0.700793 0.906312
5124 1 0.0609715 0.7161 0.896226
2886 1 0.0618846 0.718858 0.895348
7121 2 0.0411096 0.726414 0.888527
12599 2 0.0397234 0.710223 0.904274
14731 1 0.0740234 0.698612 0.889463
14732 2 0.0774176 0.704664 0.892707
2885 2 0.0642386 0.726106 0.893725
14733 1 0.0788023 0.709658 0.898349
6933 1 0.0790433 0.711671 0.900194
6932 2 0.0805049 0.716142 0.906099
1631 2 0.112162 0.71182 0.877862
12977 2 0.102693 0.708066 0.892205
12978 1 0.100759 0.704218 0.89934
1632 1 0.107204 0.710749 0.883337
12976 1 0.105691 0.710164 0.885779
8931 1 0.117235 0.701506 0.903449
16836 1 0.100151 0.704025 0.902281
19692 1 0.117281 0.704186 0.903885
19691 2 0.119034 0.711736 0.904409
19690 1 0.114325 0.718114 0.907496
1771 1 0.00116386 0.749054 0.903503
5860 1 0.00343259 0.748467 0.902276
5861 2 0.00904443 0.74508 0.899548
4097 2 0.0256747 0.753146 0.895173
4098 1 0.0185676 0.750722 0.897596
5862 1 0.0162231 0.749042 0.898434
7324 1 0.0520114 0.747106 0.880528
940 1 0.0496243 0.747687 0.881692
7122 1 0.0404187 0.730494 0.895384
941 2 0.0429327 0.750036 0.886167
12682 1 0.0400937 0.732117 0.898363
12683 2 0.0405742 0.736156 0.904407
12684 1 0.0402412 0.743948 0.90742
4096 1 0.0334744 0.751946 0.892151
942 1 0.0359687 0.751337 0.890425
1524 1 0.0622416 0.737305 0.895865
1522 1 0.0611011 0.752705 0.893231
1609 1 0.0613237 0.755449 0.892292
1523 2 0.0600324 0.745441 0.896233
1624 1 0.0800042 0.728652 0.881737
4909 1 0.0804042 0.730771 0.883899
2884 1 0.0630171 0.733841 0.895258
19291 1 0.0903242 0.740621 0.89673
4911 1 0.0882896 0.73874 0.894997
4910 2 0.0817159 0.73532 0.890781
2984 2 0.0906534 0.752225 0.878239
2985 1 0.087826 0.75609 0.88469
6229 1 0.0871729 0.757153 0.886883
20988 1 0.102562 0.73079 0.877631
20987 2 0.106387 0.731975 0.884956
19292 2 0.0952499 0.744701 0.901751
9915 1 0.113428 0.736676 0.892098
20986 1 0.111556 0.735304 0.889652
9914 2 0.118827 0.738941 0.897776
9913 1 0.120864 0.742388 0.904341
807 1 0.122065 0.744005 0.906577
19293 1 0.100727 0.749355 0.898246
10747 1 0.102576 0.751291 0.897093
10748 2 0.107601 0.757486 0.896074
20392 1 0.00343083 0.762517 0.877646
2185 1 0.00123327 0.763796 0.878793
16143 1 0.0392879 0.765779 0.876794
16142 2 0.0394861 0.77012 0.882499
16141 1 0.0396782 0.771837 0.890655
14353 1 0.0397565 0.771833 0.893586
14354 2 0.0396522 0.77204 0.901735
14355 1 0.0390716 0.764553 0.905035
4132 1 0.0394085 0.762159 0.905953
1610 2 0.0623689 0.762293 0.888713
1611 1 0.0628871 0.769712 0.885457
7407 1 0.063076 0.772126 0.884012
7406 2 0.0632289 0.778989 0.879714
7405 1 0.067225 0.785758 0.87754
6230 2 0.0847156 0.761143 0.893833
6231 1 0.083346 0.769426 0.894036
20580 1 0.0827899 0.772703 0.89466
20579 2 0.080104 0.780626 0.895961
20578 1 0.0757314 0.785939 0.895422
6431 2 0.0927628 0.779225 0.878422
6430 1 0.0971886 0.778996 0.884742
10471 1 0.0986205 0.778664 0.887156
10472 2 0.10172 0.776038 0.894464
10749 1 0.10561 0.76511 0.895137
10473 1 0.104847 0.767594 0.895269
13100 3 0.0546162 0.806305 0.898282
13101 1 0.0466741 0.806452 0.898854
13099 1 0.0609055 0.800911 0.89696
16591 1 0.0716965 0.804951 0.876907
16592 2 0.0691525 0.811825 0.87969
933 1 0.0687125 0.788423 0.876967
13020 1 0.0739319 0.788164 0.895101
13018 1 0.0635429 0.798105 0.896547
13019 2 0.0691515 0.793202 0.896608
16593 1 0.0677381 0.81925 0.882332
3212 2 0.00575276 0.599644 0.931675
10239 1 0.0303727 0.594151 0.920533
10238 2 0.0240856 0.597234 0.923975
10237 1 0.0157669 0.597657 0.927353
3211 1 0.013183 0.598135 0.92856
5235 1 0.0442728 0.592238 0.922058
5234 3 0.0395547 0.587671 0.9172
5233 1 0.0326829 0.593109 0.91942
15974 3 0.0463992 0.603083 0.936637
18215 3 0.100372 0.602084 0.924477
18216 1 0.105113 0.598107 0.929676
1882 1 0.10738 0.596727 0.931519
1883 3 0.112536 0.593445 0.935414
1884 1 0.119231 0.589918 0.938023
2630 2 0.00718347 0.616444 0.917291
2631 1 0.00850213 0.611444 0.909893
16794 1 0.00961905 0.60969 0.907745
2629 1 0.0125371 0.620738 0.920373
15984 1 0.0141681 0.623013 0.921441
15983 2 0.0173674 0.629394 0.923282
15982 1 0.020758 0.627767 0.929833
10560 1 0.0223121 0.626568 0.932154
10559 2 0.0244354 0.623359 0.938341
20760 1 0.044845 0.613023 0.93206
15975 1 0.0450646 0.609906 0.933241
20758 1 0.0405006 0.628211 0.929935
20759 2 0.0429663 0.620786 0.929308
12648 1 0.0523308 0.6208 0.910544
2880 1 0.0541713 0.622312 0.91182
2879 2 0.0584386 0.6288 0.915372
9503 2 0.0849817 0.630018 0.908096
9502 1 0.0903288 0.623906 0.908363
19053 1 0.0928282 0.620809 0.908304
2878 1 0.0635398 0.633205 0.918404
15721 1 0.0646971 0.634619 0.919858
11396 2 0.0872795 0.62626 0.934132
19052 3 0.0976608 0.614616 0.910188
19051 1 0.0980928 0.608889 0.916186
18214 1 0.0983721 0.60727 0.91778
11397 1 0.0956729 0.627981 0.932962
12383 3 0.104727 0.628798 0.927155
12382 1 0.111977 0.62699 0.924251
12384 1 0.0983554 0.628197 0.931668
1833 1 0.00771933 0.663505 0.909145
2728 1 0.0219487 0.646734 0.929512
2729 2 0.0245181 0.644444 0.936575
8215 1 0.00967226 0.664511 0.910861
19001 2 0.0182072 0.649545 0.918539
19000 1 0.0210331 0.647563 0.926094
19002 1 0.0198196 0.649643 0.910227
11761 1 0.0351618 0.63857 0.912816
20356 1 0.0360652 0.639846 0.915001
20357 2 0.0399354 0.643429 0.920609
20358 1 0.0436251 0.642948 0.927373
9317 2 0.0320157 0.666474 0.923797
9316 1 0.0374486 0.665099 0.919163
5691 1 0.0402676 0.664255 0.917371
5690 2 0.046189 0.663007 0.913579
5689 1 0.0525084 0.661719 0.917501
9535 1 0.0555851 0.660815 0.918821
9536 2 0.0615761 0.660843 0.923389
586 1 0.044986 0.642979 0.929801
587 2 0.0497896 0.643676 0.937423
17420 2 0.0766255 0.663216 0.909253
9537 1 0.0661703 0.666206 0.926421
13836 1 0.0824365 0.658113 0.917111
17419 1 0.0804589 0.65962 0.915344
13835 2 0.0868022 0.655324 0.922261
13834 1 0.0894359 0.658513 0.928261
15331 1 0.0901898 0.659762 0.930578
15722 2 0.067798 0.639926 0.92469
15675 1 0.0694941 0.64613 0.93306
15723 1 0.0690001 0.644508 0.930779
15332 2 0.0923018 0.664196 0.936274
13731 1 0.109812 0.640917 0.917387
13730 3 0.116562 0.643603 0.919354
20337 1 0.123462 0.6508 0.917264
13729 1 0.121327 0.64857 0.918218
20336 2 0.128482 0.656502 0.915422
20335 1 0.133413 0.663784 0.917986
6226 1 0.134926 0.665731 0.91883
9318 1 0.0251357 0.667946 0.920513
8217 1 0.0226716 0.6684 0.919516
8216 2 0.0147515 0.668719 0.915693
16749 1 0.00683039 0.69292 0.919036
7930 1 0.013603 0.684543 0.929487
7931 2 0.01509 0.687876 0.923998
9579 1 0.0125144 0.682308 0.931482
7932 1 0.00900623 0.691264 0.920371
10967 2 0.032224 0.686169 0.911113
10966 1 0.0337992 0.692925 0.915178
14978 2 0.057026 0.695485 0.911187
15804 1 0.0489455 0.67901 0.928121
15803 2 0.0517513 0.683578 0.921962
15802 1 0.053195 0.689215 0.918206
3948 1 0.0482871 0.677036 0.930682
14979 1 0.0543376 0.691353 0.9168
16527 1 0.034733 0.695001 0.91703
3947 2 0.0468479 0.672482 0.936969
12901 1 0.0686067 0.667657 0.927488
12902 2 0.074383 0.671314 0.929926
12903 1 0.0774509 0.67609 0.925235
8585 2 0.0809401 0.682715 0.916746
8586 1 0.0786896 0.677555 0.922901
8584 1 0.0839684 0.682947 0.908924
9896 2 0.0691393 0.695659 0.934526
7386 1 0.0932878 0.688073 0.937985
16692 1 0.124032 0.672819 0.911989
12880 1 0.108781 0.678167 0.910524
12881 2 0.101732 0.680294 0.914233
12882 1 0.0990383 0.682585 0.921373
7384 1 0.097913 0.683443 0.923929
7385 2 0.0951084 0.684452 0.931197
14086 1 0.119911 0.686895 0.928833
14087 2 0.118755 0.69389 0.934639
6227 2 0.13909 0.670276 0.921239
6228 1 0.14459 0.67236 0.926775
8436 1 0.146326 0.672744 0.929281
8435 2 0.150824 0.673421 0.934914
8434 1 0.158344 0.675086 0.937196
16748 2 0.00144767 0.698174 0.916396
3726 1 0.00515532 0.7207 0.907627
14966 2 0.0221584 0.703795 0.907673
11777 2 0.0121535 0.721383 0.932846
17658 1 0.0177824 0.725482 0.924477
11778 1 0.0166986 0.724552 0.926513
17657 2 0.0223254 0.726579 0.917989
17656 1 0.0223422 0.727243 0.91049
16526 2 0.0383297 0.698909 0.923114
16525 1 0.0396779 0.706323 0.928623
20919 1 0.0398223 0.708493 0.930487
12600 1 0.0455581 0.712833 0.909288
15511 1 0.0473208 0.714381 0.911223
15512 2 0.0521052 0.718828 0.915897
15513 1 0.0578839 0.715824 0.919961
19722 1 0.0606077 0.714541 0.921553
20918 2 0.0398809 0.715587 0.934046
19721 2 0.0665036 0.710935 0.925117
6931 1 0.0765278 0.722122 0.908698
13263 1 0.0749044 0.724128 0.910245
9897 1 0.0691657 0.702303 0.931664
19720 1 0.0683348 0.704856 0.929855
17301 1 0.0885059 0.708714 0.933549
6051 1 0.087992 0.709721 0.936157
16834 1 0.0929033 0.703892 0.916432
17299 1 0.0916925 0.704397 0.919033
17300 2 0.0895387 0.70644 0.925711
16835 2 0.0971271 0.70189 0.90931
14590 1 0.112603 0.720214 0.908317
14591 2 0.10681 0.725646 0.910757
4311 1 0.1141 0.725981 0.924466
4222 1 0.00586349 0.742955 0.922238
2897 2 0.0140106 0.749421 0.919104
2896 1 0.0162017 0.75725 0.914145
2898 1 0.00821104 0.745076 0.921373
13304 2 0.0247512 0.741466 0.934942
13303 1 0.0163152 0.741549 0.937479
4134 1 0.0400029 0.746774 0.908463
4133 2 0.0398537 0.754701 0.909057
13305 1 0.0314359 0.742276 0.931299
3436 1 0.0342054 0.742069 0.929434
3437 2 0.0402301 0.740431 0.924901
3438 1 0.0464822 0.744649 0.922413
4594 1 0.0494715 0.746544 0.921325
4595 2 0.056729 0.749596 0.91931
4596 1 0.057856 0.75483 0.914921
5491 1 0.0590914 0.757384 0.913161
21131 2 0.0612413 0.732261 0.931139
21130 1 0.0554181 0.732704 0.937149
12743 2 0.0913391 0.730868 0.917979
13262 2 0.070884 0.73055 0.913286
13261 1 0.0738444 0.738373 0.912765
14853 1 0.08482 0.729473 0.926229
12744 1 0.0866237 0.73006 0.923824
21182 2 0.0770353 0.748504 0.913752
21181 1 0.0745414 0.740653 0.913007
21183 1 0.0793072 0.755771 0.91409
1622 2 0.0865278 0.752596 0.933426
21132 1 0.069342 0.730619 0.931806
14852 2 0.0793419 0.728575 0.931966
14851 1 0.072211 0.729874 0.931658
11565 1 0.076755 0.756726 0.932073
1621 1 0.0795376 0.755747 0.932714
1623 1 0.0921723 0.747313 0.937989
12742 1 0.0980992 0.729492 0.914636
14592 1 0.100472 0.728608 0.913214
4309 1 0.106123 0.734036 0.936926
4310 2 0.110177 0.730441 0.930826
806 2 0.125651 0.749042 0.91146
805 1 0.132261 0.751724 0.912567
4225 1 0.135202 0.753082 0.912633
13855 1 0.00157167 0.759638 0.935393
6787 1 0.00468941 0.760975 0.935685
2416 1 0.0171277 0.76071 0.912414
2417 2 0.0192808 0.767182 0.910107
2418 1 0.0242978 0.769118 0.915667
17652 1 0.0256663 0.769577 0.917489
5431 1 0.0307872 0.763281 0.930559
17651 2 0.0307148 0.770351 0.92406
17650 1 0.0303261 0.765411 0.928681
6788 2 0.0120334 0.763428 0.936563
5432 2 0.0339437 0.758966 0.93647
5492 2 0.0611431 0.763796 0.910062
5493 1 0.0583085 0.771995 0.910295
7204 1 0.0573582 0.775104 0.910506
7205 2 0.055201 0.783138 0.91055
19289 2 0.0537651 0.769555 0.92971
19290 1 0.0602098 0.765485 0.929572
7206 1 0.0496571 0.786471 0.915008
11797 1 0.0476236 0.787591 0.9165
4176 1 0.0564875 0.779531 0.933458
19288 1 0.0557471 0.776587 0.932578
4175 2 0.0590387 0.785985 0.934803
950 2 0.0344455 0.786301 0.93826
11563 1 0.0629467 0.763872 0.929642
9093 1 0.0801718 0.758399 0.914666
9092 2 0.0827314 0.766266 0.914221
9091 1 0.0796817 0.772954 0.916961
4422 1 0.078992 0.775156 0.918084
4421 2 0.0771434 0.782863 0.919947
11564 2 0.069753 0.759259 0.931486
4226 3 0.142143 0.758112 0.91186
4227 1 0.14286 0.764982 0.909543
949 1 0.0373668 0.78835 0.931921
11799 1 0.038262 0.788808 0.929301
11798 2 0.0416821 0.790647 0.921377
4174 1 0.0647039 0.790107 0.937048
4420 1 0.0753097 0.791145 0.920398
57 1 0.0745871 0.794318 0.92106
56 2 0.0739909 0.800699 0.922102
55 1 0.0731805 0.807985 0.918255
6811 1 0.0663966 0.791113 0.938139
12660 1 0.00569095 0.604665 0.95087
15973 1 0.0474635 0.598154 0.942127
14810 2 0.0326057 0.603149 0.96662
12659 2 0.012018 0.609493 0.953493
12658 1 0.0134624 0.610291 0.960863
20784 1 0.0150343 0.625637 0.940398
10558 1 0.0171996 0.624805 0.939658
17097 1 0.00950025 0.632855 0.952998
20783 2 0.00880322 0.629222 0.943458
6378 1 0.0133311 0.611232 0.964047
20782 1 0.00958 0.631406 0.950319
21052 1 0.0472051 0.61517 0.949737
7203 1 0.0334447 0.614012 0.963269
14811 1 0.0331299 0.61108 0.963922
21053 2 0.0543898 0.619666 0.951634
9838 1 0.0326151 0.629827 0.957798
7201 1 0.0325995 0.627423 0.959304
7202 2 0.0328504 0.620473 0.963507
21054 1 0.0617318 0.622556 0.949756
9084 1 0.0644642 0.623215 0.949506
9083 2 0.0717924 0.625434 0.946163
9082 1 0.0783596 0.62538 0.941297
11395 1 0.0810894 0.625525 0.939296
17096 2 0.00830506 0.637032 0.959204
9840 1 0.0287266 0.640568 0.94665
2730 1 0.0273289 0.641591 0.943949
17095 1 0.00560871 0.643374 0.962568
19086 1 0.0196644 0.65724 0.95735
19085 2 0.0226566 0.654306 0.963928
13967 2 0.0170315 0.660908 0.948557
13968 1 0.018896 0.658447 0.955081
19084 1 0.0231802 0.648279 0.967827
19231 1 0.00433757 0.645519 0.964238
9839 2 0.0320814 0.637019 0.952399
588 1 0.0533056 0.644362 0.944815
18933 1 0.0542988 0.64474 0.947401
20942 2 0.0380458 0.662462 0.952333
20941 1 0.0426118 0.666082 0.944966
18932 2 0.0572945 0.644673 0.954481
18931 1 0.055925 0.647761 0.960731
19858 1 0.0558596 0.649147 0.963113
15800 2 0.0615365 0.663672 0.950275
15674 2 0.0719407 0.650463 0.940605
15673 1 0.0674616 0.656156 0.944655
15801 1 0.0658239 0.658304 0.945612
15333 1 0.0917943 0.660167 0.944237
5914 1 0.0926808 0.65886 0.946973
878 2 0.106741 0.643422 0.965175
5915 2 0.0942585 0.654174 0.953393
5916 1 0.0996285 0.649153 0.957269
879 1 0.101887 0.64735 0.958978
20161 1 0.00201146 0.671721 0.963961
6516 1 0.0306154 0.677697 0.943108
13966 1 0.0145266 0.667393 0.942962
12562 1 0.00429216 0.67235 0.965792
9578 2 0.0113378 0.676719 0.938448
9577 1 0.014049 0.669741 0.941748
4018 1 0.00883556 0.694157 0.957945
10266 1 0.00662484 0.69385 0.959092
2285 2 0.0286352 0.674163 0.962704
2286 1 0.0273605 0.679026 0.967681
4019 2 0.0151716 0.695666 0.954073
6515 2 0.0325183 0.685661 0.945913
15799 1 0.0578247 0.668779 0.955536
18088 1 0.056408 0.670501 0.957868
2284 1 0.0327293 0.668795 0.958039
3946 1 0.0440241 0.667671 0.942692
20943 1 0.0344045 0.666713 0.956187
6507 1 0.0408686 0.692633 0.943369
6514 1 0.0389077 0.690735 0.944022
18089 2 0.0525357 0.675025 0.963497
18090 1 0.0515825 0.683187 0.96329
1810 1 0.051281 0.686226 0.963757
1811 2 0.0501743 0.694201 0.966158
9895 1 0.0691358 0.690088 0.940145
2059 1 0.0692067 0.687938 0.941814
2060 2 0.0696922 0.682423 0.948186
2061 1 0.074152 0.679309 0.954195
18178 1 0.0754879 0.677696 0.95705
18179 2 0.0767635 0.672269 0.962752
13162 1 0.0924289 0.68914 0.940663
13163 2 0.090287 0.691772 0.948543
20134 1 0.0732277 0.695819 0.96434
10960 1 0.161127 0.675325 0.938573
10961 3 0.166996 0.674424 0.94296
10962 1 0.171038 0.669908 0.948191
4562 2 0.000770476 0.711333 0.968675
3017 2 0.0020007 0.714122 0.948259
3018 1 0.000115085 0.707085 0.943613
11776 1 0.0083995 0.717665 0.939064
4020 1 0.0129855 0.701135 0.947407
20251 1 0.0244061 0.724643 0.952045
1719 1 0.021603 0.724893 0.95377
1718 2 0.0151108 0.725541 0.958243
3016 1 0.00650659 0.716456 0.941642
2341 1 0.0282391 0.704726 0.957043
6506 2 0.0480188 0.697066 0.943587
1812 1 0.0505217 0.701079 0.968564
20252 2 0.0311929 0.723956 0.947105
6505 1 0.0510162 0.705179 0.945124
20917 1 0.0369875 0.719053 0.939705
20253 1 0.0356435 0.720644 0.941955
5083 1 0.052187 0.708225 0.945559
2342 2 0.032384 0.708592 0.962718
5084 2 0.0564715 0.715169 0.94734
5085 1 0.0618965 0.721599 0.949233
12808 1 0.0637487 0.723802 0.949545
6049 1 0.0810452 0.707656 0.949255
6760 1 0.0799775 0.706204 0.951375
6761 2 0.074997 0.703941 0.957779
6762 1 0.0738751 0.697604 0.962603
6050 2 0.0846679 0.711606 0.943421
19371 1 0.0838578 0.727062 0.965101
15100 1 0.0821229 0.72637 0.966913
14088 1 0.114086 0.698932 0.938603
15856 1 0.112275 0.700642 0.939559
19424 2 0.100034 0.701008 0.961249
13164 1 0.0938801 0.697311 0.95361
19425 1 0.0952666 0.698475 0.955487
15857 2 0.10696 0.704636 0.94157
15858 1 0.106549 0.711583 0.945413
5331 1 0.10576 0.714106 0.946825
5330 2 0.104105 0.721067 0.949911
5329 1 0.0975785 0.723918 0.954048
19369 1 0.0954674 0.725446 0.955811
19423 1 0.104388 0.703828 0.96633
14455 1 0.106428 0.704934 0.968636
3204 1 0.00608673 0.730887 0.957868
1717 1 0.0091661 0.729448 0.957513
6023 2 0.00730254 0.754252 0.957935
20373 1 0.0140774 0.742175 0.93878
20372 2 0.0070351 0.743551 0.942399
20371 1 0.00703726 0.748794 0.947739
18526 1 0.0263415 0.748833 0.958468
6664 1 0.0261275 0.746971 0.960807
6665 2 0.0254128 0.742438 0.967532
6024 1 0.00675688 0.750376 0.950693
18527 2 0.0292134 0.752828 0.952274
3312 1 0.0535517 0.73413 0.939401
3311 2 0.0483063 0.738416 0.945045
3310 1 0.047978 0.740603 0.952592
3349 1 0.0478092 0.74112 0.954827
11353 1 0.0607211 0.754593 0.950678
3350 2 0.0470559 0.741964 0.963003
5433 1 0.0326864 0.756206 0.943186
18528 1 0.0321237 0.755504 0.945151
12809 2 0.0702819 0.727976 0.950124
19370 2 0.0903188 0.728884 0.960526
12810 1 0.0685402 0.736241 0.949958
12472 1 0.062428 0.752367 0.950419
12474 1 0.0677781 0.739047 0.949816
12473 2 0.0672263 0.747332 0.949336
21170 2 0.0860031 0.751965 0.965017
21169 1 0.0867454 0.757001 0.959074
18066 1 0.0944894 0.745615 0.938837
21171 1 0.0937818 0.751493 0.966836
18065 2 0.0995801 0.74009 0.942171
18064 1 0.104431 0.735121 0.938552
1255 1 0.0961396 0.75115 0.967149
6022 1 0.00857173 0.759554 0.964202
6789 1 0.0151625 0.769149 0.941153
13241 2 0.0183241 0.775553 0.948735
13240 1 0.0159261 0.771155 0.94322
13242 1 0.0202748 0.779772 0.954941
1095 1 0.00901547 0.761398 0.966485
6583 1 0.0239935 0.783167 0.966466
11354 2 0.0550744 0.759474 0.950411
951 1 0.0379421 0.780502 0.943367
11355 1 0.0492027 0.764908 0.951423
17631 1 0.0471992 0.76698 0.951218
17629 1 0.0392517 0.778699 0.945311
17630 2 0.0428874 0.773503 0.950519
21033 1 0.0849582 0.773858 0.944899
8923 1 0.0850645 0.771232 0.94607
21032 2 0.0842219 0.781888 0.939962
8924 2 0.0853174 0.763369 0.951014
8925 1 0.0865065 0.758816 0.956714
6585 1 0.0298288 0.793939 0.955702