ITEM: TIMESTEP
60000000
ITEM: NUMBER OF ATOMS
1455
ITEM: BOX BOUNDS pp pp pp
0.0000000000000000e+00 5.0000000000000000e+01
0.0000000000000000e+00 5.0000000000000000e+01
0.0000000000000000e+00 5.0000000000000000e+01
ITEM: ATOMS id type vx vy vz 
2381 2 -3.48059 1.0975 -1.56148 
2382 1 1.07417 1.7939 3.40129 
13909 1 1.5095 -2.6688 -3.2991 
4410 1 -4.94681 3.21962 -0.564728 
11780 2 0.920439 -0.71105 -0.493904 
11779 1 2.10682 -5.40999 4.77828 
11781 1 -5.88902 1.2139 -7.03107 
19179 1 -5.76004 0.94528 -6.46525 
4409 2 4.9799 1.74275 -1.83535 
3880 1 -9.89867 -3.89973 -1.88683 
3881 2 0.775281 0.225553 -3.15951 
11661 1 5.83766 1.03825 0.660959 
3882 1 -0.0883791 1.38954 -2.82164 
9702 1 -3.87239 7.45103 -2.52986 
11659 1 -0.37186 4.32504 -1.24818 
2083 1 2.49393 2.76776 -0.735662 
11660 2 1.80771 -2.1085 0.951621 
11950 1 -1.37501 3.34305 -1.56042 
4551 1 -0.775129 3.55298 0.594333 
11952 1 -0.837284 1.07155 -5.37866 
11951 2 -0.360716 0.983151 -0.977861 
9700 1 2.65302 -0.0141768 -5.57603 
9701 2 -0.34868 -1.09086 -1.79848 
4550 2 0.134687 -4.31408 -1.62496 
4549 1 4.28856 5.42228 3.11281 
12242 2 -0.931632 -2.15981 -0.816959 
12241 1 1.66426 -2.93055 -6.98372 
16531 1 -2.95875 2.6512 0.625138 
16533 1 -0.0180148 2.84187 -1.23901 
16532 2 -4.53462 -4.91183 -1.09168 
1297 1 -4.56395 -5.40707 0.72859 
14163 1 4.2712 -4.35757 -2.20164 
594 1 4.74833 -2.816 1.12712 
3511 1 -2.20129 5.01613 -6.90036 
3512 2 -0.931739 2.80993 3.1064 
3513 1 3.01312 2.86025 2.35777 
17415 1 4.50424 0.638533 2.70639 
16884 1 -1.56392 0.50624 -0.102959 
16883 2 -1.13931 -0.512922 -0.489501 
16882 1 -2.5559 -5.37828 8.96304 
15517 1 -4.46788 6.71075 3.45699 
6810 1 -2.42525 5.03557 0.640634 
6808 1 -0.267754 -1.772 -4.3917 
15518 2 -6.25092 0.108497 1.25071 
1299 1 -0.164184 4.37465 0.550658 
12243 1 -4.90544 7.82235 -2.36021 
1298 2 -2.00361 0.423797 -0.326214 
6809 3 -2.07762 0.0948939 1.70475 
14099 3 1.52109 0.809777 1.45099 
14098 1 -6.15651 -6.47041 -0.591501 
14100 1 -4.70253 5.12991 1.60662 
2813 3 -1.02361 0.379672 3.7891 
13141 1 0.589389 -2.88588 -1.97876 
3079 1 2.49223 3.97938 -0.84666 
4838 2 -2.25874 -2.32508 1.17848 
4837 1 -5.21148 -0.207629 0.901685 
4839 1 -3.41886 3.92891 2.50903 
627 1 1.48319 -3.99334 -4.92341 
12571 1 -2.63524 -2.33837 4.88336 
3080 2 2.17324 1.88704 2.58 
626 2 2.34594 1.62308 -0.601417 
625 1 1.84081 0.573918 -1.21622 
14889 1 2.52523 -1.31388 -2.73319 
14888 2 1.20878 -0.959444 -0.65006 
14887 1 -4.13605 -0.71502 -3.06938 
11751 1 -2.05325 -5.06511 -1.91587 
14932 1 -0.84497 -1.31534 5.55412 
14933 2 3.52066 -2.5576 0.171035 
10288 1 -1.90381 1.26762 9.23799 
10290 1 1.93072 3.11762 -4.30729 
11319 1 7.14719 -1.69484 -0.581781 
10289 3 0.492674 1.90928 0.0330551 
20488 1 1.16479 0.188196 1.81613 
9357 1 2.42717 0.939077 -4.83729 
9355 1 6.38028 -1.16897 -7.17031 
9356 2 0.297419 -2.00853 5.88468 
12956 3 -1.05004 -5.60255 2.0237 
12955 1 0.514744 -0.927459 3.96083 
4996 1 -1.55036 -4.82223 5.77521 
12957 1 -0.221106 -2.26467 -0.839327 
5653 1 7.70851 -5.01447 8.12385 
14784 1 -0.976927 3.19609 -1.2094 
4179 1 4.44454 -2.07582 -4.97244 
13143 1 0.566552 -3.6731 -2.54682 
13142 2 -0.331237 0.29443 3.74108 
4178 2 3.68936 0.630383 -2.8454 
18660 1 -5.21521 -0.5173 1.00468 
15090 1 -2.38377 3.5567 2.35271 
5654 2 0.587677 2.01344 1.06827 
5655 1 1.433 0.532654 0.0836848 
4177 1 1.48373 -6.12723 -1.4345 
4998 1 6.87117 -1.26144 -0.113429 
4997 3 -5.43408 -0.162736 -1.57622 
11720 2 2.03232 -1.41809 0.186351 
15089 2 -1.19482 -1.2924 2.04172 
3081 1 -3.68574 2.15051 -0.954867 
6712 1 2.88136 -1.73088 0.701444 
3316 1 1.28785 -4.02367 -3.11635 
18310 1 -4.68552 1.95645 1.71628 
6713 2 3.45928 -0.319888 3.54264 
6714 1 0.394323 0.961618 -2.53232 
8569 1 0.388089 -4.93189 -1.34349 
15088 1 -2.29952 2.31681 2.06412 
20104 1 -4.45894 -6.26856 -3.27956 
20105 2 1.8471 -4.88554 -1.09826 
11721 1 2.04116 2.83165 1.6936 
3317 2 -2.07594 0.939313 2.01681 
11719 1 1.53966 0.502171 2.64113 
3318 1 3.69343 4.1809 8.77271 
15463 1 -0.0659333 -2.43356 7.1139 
15464 2 0.157314 2.58366 -2.80985 
17147 2 2.24442 2.91286 3.28002 
11750 2 2.59433 1.08777 7.74324 
11749 1 -2.61053 -0.173489 -0.346616 
8511 1 0.221004 -0.806808 1.42565 
6263 3 -2.0021 -1.30942 -0.105635 
6262 1 1.0134 -0.39152 -4.13643 
6264 1 -3.62091 2.22711 -1.00484 
12572 2 -1.03639 -1.22624 -1.56392 
18311 2 -0.374678 -1.77687 -4.09014 
18312 1 -1.17034 -1.83769 -6.32182 
13132 1 0.491523 6.91318 0.777289 
14934 1 0.478678 2.74299 1.17852 
13133 2 -2.87093 -0.255032 0.785411 
5254 1 -6.3106 -0.981125 9.67156 
10359 1 0.326666 3.40907 0.376068 
12573 1 -3.3271 -1.7875 1.05358 
15465 1 3.93501 -0.222779 3.56356 
14502 1 2.56604 1.9348 1.26305 
13328 2 6.54544 -0.895516 -2.08778 
4118 2 0.309661 -2.36286 0.0171718 
4119 1 0.851297 -2.61482 -1.60729 
13327 1 3.50599 -1.78509 -2.17741 
13329 1 -2.47435 -0.658568 3.64006 
2383 1 3.0717 -0.436802 4.49841 
11317 1 -0.95355 -2.19766 -1.61786 
14500 1 -1.54762 -1.61115 3.31812 
11318 2 -0.521336 0.0973417 -1.06952 
14501 2 0.240049 -0.585202 -4.53494 
8510 2 0.649552 0.166624 -2.74 
8509 1 -0.3765 2.35943 1.0022 
20611 1 3.10703 7.25929 -2.03929 
20612 2 -1.77364 3.55164 -6.3938 
19628 2 2.62446 3.05068 -2.21336 
19629 1 5.66485 0.514029 -0.382751 
21118 1 -5.42103 2.31466 2.40765 
10663 1 3.82486 0.6829 -8.1444 
10665 1 -2.44253 5.98287 1.07746 
10664 2 -2.58573 -5.68961 -1.50315 
11457 1 3.24288 2.42069 -4.18987 
11456 2 -0.292508 -0.458857 -2.74788 
11455 1 0.577982 -2.02525 3.36719 
19451 3 -0.932724 0.318849 1.71967 
19450 1 0.654862 -0.518296 3.72796 
19627 1 8.68705 -3.56064 4.56321 
19452 1 -2.85205 -4.91928 -1.63023 
21279 1 1.66367 -2.24851 -2.05427 
4970 2 1.22995 -0.367317 1.57896 
4969 1 -4.25407 -0.955861 1.50873 
5256 1 -0.20445 1.7269 1.13654 
5255 2 -3.36523 -1.86169 0.14436 
4971 1 -3.74703 -4.67032 0.416144 
11290 1 1.43797 0.817762 3.51798 
2006 2 1.57604 1.04522 0.224256 
4117 1 -0.26261 0.690725 -8.78952 
9649 1 -3.59656 3.98803 -3.65033 
4210 1 -3.34201 -0.429135 2.07728 
9651 1 2.1557 0.680303 -2.4243 
2005 1 -3.0344 6.08609 1.08738 
1869 1 0.397175 -2.11716 5.81702 
1868 2 -6.13308 0.170225 -0.536413 
4211 2 1.68821 1.71117 0.254317 
2007 1 -3.8341 -5.70122 0.612118 
13805 2 3.03366 5.18696 -0.482377 
1867 1 -0.757414 -1.139 2.64115 
3945 1 -2.55862 2.31936 -2.73161 
3944 2 1.77194 0.146646 -0.145912 
3943 1 -2.29136 6.7684 4.26456 
1626 1 2.49864 5.3356 -0.0537712 
1625 2 -4.13522 1.94794 -2.17744 
5300 3 4.16303 2.33472 -0.161099 
1630 1 -0.106612 -2.67004 3.30811 
12532 1 -2.84446 -0.000931057 -2.63081 
12533 2 -1.90502 -0.0995156 -1.4742 
12534 1 -0.192187 -8.70198 3.24478 
13190 2 3.74218 -0.905419 -1.24764 
10755 1 -2.70052 -5.24866 -4.01456 
10754 2 -0.225909 0.029161 -2.74978 
13191 1 -0.980965 -5.11517 6.8482 
19069 1 0.393201 2.82918 0.91951 
10753 1 -1.28289 2.3705 1.64369 
12816 1 -7.30479 3.29431 -0.707142 
12815 2 0.591322 -1.56833 1.93013 
12814 1 -1.57316 -3.52455 -6.2079 
20394 1 1.12804 11.1352 -1.21859 
13189 1 1.14906 -4.96712 -4.33233 
3486 1 4.65399 2.21819 9.83259 
20490 1 2.17147 -0.778523 0.421728 
20489 2 1.3655 -0.539342 3.2308 
10659 1 -4.8415 1.57234 -0.524516 
10658 2 1.41593 3.27237 -2.11842 
10657 1 8.73177 0.722818 1.89689 
3485 2 -0.0873028 1.96922 5.17797 
3484 1 4.13939 5.9233 2.92144 
4212 1 1.39052 -3.22823 0.598145 
7325 2 0.266473 2.19511 0.272656 
2197 1 -3.86841 3.94066 3.31495 
5301 1 -1.42021 1.08352 6.65598 
1018 1 2.16322 5.94949 0.442175 
7326 1 1.34465 -0.48894 0.716224 
1019 2 0.141631 2.66749 0.0709568 
1020 1 2.41125 -1.49556 -1.97897 
13095 1 -3.27609 2.56457 -0.276487 
13094 3 1.01815 1.74385 -2.7872 
17526 1 7.49241 -5.29271 4.45622 
13093 1 -3.73424 -5.20191 0.600412 
2983 1 -5.65746 4.2355 1.84929 
5299 1 7.22825 0.957167 -2.25108 
20393 2 3.04775 -1.24277 4.99343 
2198 2 1.03899 4.04134 -3.85413 
2199 1 0.945219 0.738311 -2.67679 
17525 2 -2.37448 0.645634 0.353962 
17524 1 -0.760657 3.35423 6.00739 
12553 1 -0.290393 5.12407 -1.71796 
12554 2 0.792198 0.773023 0.346674 
12555 1 0.583835 -3.71012 2.13638 
6432 1 -8.122 0.834837 3.28223 
932 2 3.6842 2.66193 -1.26212 
931 1 2.22966 9.90628 0.622099 
16793 2 -2.13443 -2.66262 1.40254 
15408 1 2.74192 3.39972 -8.94287 
1813 1 -1.36667 0.42876 3.70446 
1814 2 -1.39688 -2.37175 1.8641 
16792 1 2.52188 0.763331 3.18316 
759 1 1.69892 0.0969168 -1.01174 
758 2 -3.73015 -0.956289 -1.23418 
18658 1 -1.01661 -6.51418 -3.39884 
757 1 5.15495 -5.73246 -1.97239 
18659 2 -0.792992 -3.40389 4.10194 
6871 1 -3.38755 -0.256222 4.16701 
14403 1 0.454308 3.40839 -1.97296 
6873 1 5.06839 -4.34539 -6.87952 
6872 2 -0.089203 4.92345 2.59555 
17148 1 -2.32049 -1.30152 -2.10468 
12647 2 1.11595 -0.309989 -1.69077 
12646 1 3.57486 -2.09937 -3.10695 
11762 2 1.87647 1.10705 0.667184 
11763 1 6.96927 -4.12345 -0.0279137 
14402 3 0.255077 -1.4156 -4.15475 
14401 1 -1.1209 -5.78261 -2.59347 
5740 1 5.1386 4.44642 2.8357 
5741 2 3.04896 1.04247 -1.63699 
5742 1 -0.852277 3.13529 -1.18528 
9504 1 1.91626 1.90697 -3.10514 
7815 1 -2.36675 4.2083 0.195943 
15406 1 3.4963 -2.88479 -8.07252 
7814 3 1.99046 2.6354 -2.42505 
7813 1 -0.432039 -2.25514 0.0544852 
18757 1 3.14882 -2.17874 -0.70238 
15407 2 -0.249935 -1.77373 1.34374 
1832 2 -1.83987 0.806453 1.93277 
8571 1 3.5926 0.929473 -1.05333 
11008 1 -0.399394 2.61801 0.360346 
8570 2 1.16363 -4.06026 0.302326 
11009 2 -1.86346 -1.35615 1.52401 
20106 1 3.6228 0.841248 0.230569 
11010 1 0.439089 4.80892 2.27448 
21360 1 -0.0639031 -1.6293 2.81038 
17146 1 1.2764 6.56176 -4.3646 
21359 2 -3.41465 0.433357 4.81619 
21358 1 -4.34404 -0.793716 6.03357 
2384 2 1.26012 0.820468 2.74199 
9931 1 -3.78893 2.742 5.26745 
16899 1 0.850021 1.78048 1.8823 
18758 3 1.38709 0.957888 -1.15838 
9932 2 -1.28136 -1.057 2.24976 
18759 1 -4.16803 -0.782171 -4.20149 
9933 1 4.68848 -4.08059 -3.3921 
7564 1 0.709099 -2.85837 0.0746011 
7565 2 -2.60682 0.698236 3.85859 
7566 1 4.50051 2.84276 -1.23439 
10466 2 -3.94795 -4.48523 4.18613 
10467 1 -3.69494 -1.1035 1.90455 
13134 1 1.17521 -4.97931 -0.0876716 
18763 1 2.5954 1.40988 1.03195 
10465 1 2.58559 2.09732 -2.00011 
14298 1 -2.26683 -1.59948 0.739233 
14296 1 1.66073 -6.13551 1.48779 
14297 2 -1.42427 0.167861 -3.81458 
6361 1 0.169915 3.64558 2.70172 
2385 1 -1.96644 -2.65552 2.91317 
6362 2 0.498799 -0.241354 -0.216712 
6363 1 2.69645 -1.9218 -4.45207 
21179 2 -0.0557518 -2.78574 -1.0345 
4495 1 -1.78711 8.1988 -7.90674 
4496 2 -0.803206 -1.13742 5.12891 
4497 1 -5.89879 -0.32608 0.369729 
21180 1 0.415026 -0.84525 -5.7223 
12856 1 -3.15003 3.26105 -1.15244 
10968 1 -5.89232 3.41749 2.62162 
20613 1 2.74772 3.65231 -1.07511 
11985 1 4.80413 3.3962 2.54189 
16898 2 0.653689 -0.589749 -1.08924 
16897 1 -0.947345 -1.59609 3.63727 
12857 2 -1.9707 -0.264375 6.6711 
12858 1 -4.76991 -7.17187 -2.05716 
17421 1 1.82853 1.71173 -0.384161 
11352 1 4.89512 -0.779824 1.05078 
11351 2 -2.18254 3.10177 0.146422 
11350 1 -0.790451 4.85055 2.04198 
11984 2 1.36125 -0.348069 -0.520214 
11983 1 -0.199724 -4.4791 1.98625 
21119 2 3.88664 -4.18758 -2.83057 
21120 1 5.01643 0.64154 -1.72184 
8930 2 3.60346 -1.49288 0.614891 
16690 1 0.39068 0.706999 4.252 
16691 2 1.89421 1.85228 -2.40413 
8929 1 -4.12253 3.62186 -2.65556 
21278 3 -1.55709 1.86658 -1.33227 
21277 1 -2.01776 -1.38619 -3.12206 
15703 1 -3.5514 -1.51916 2.30882 
18765 1 3.02991 2.82884 -6.98856 
18764 2 -2.95676 -1.48884 -0.658896 
14967 1 -4.56811 -4.65386 4.53703 
14965 1 -0.201001 1.59763 -2.41547 
5189 2 -4.13549 -1.22586 -0.918048 
11291 2 -1.23307 0.627947 2.69657 
11292 1 4.51062 -1.25221 -1.87043 
5188 1 -0.227496 6.57466 1.79446 
3724 1 7.053 -4.99965 4.28452 
3725 2 -0.148062 1.99847 -3.03506 
5190 1 -2.11199 -1.66577 -0.641808 
9650 2 -1.21617 0.993349 -3.3357 
5122 1 1.79485 -2.05944 -6.44273 
21178 1 -0.58372 -0.703369 1.76738 
13806 1 0.354052 7.03573 -1.02235 
5123 2 1.66171 -2.085 0.0422925 
13804 1 5.23818 -3.1841 -0.861743 
7120 1 0.877855 -3.75522 7.83992 
12598 1 0.18199 -1.61114 -0.625473 
14977 1 2.18362 0.695541 -2.7926 
5124 1 1.33565 8.02108 1.50444 
2886 1 2.33102 6.83069 5.0554 
7121 2 0.965415 -3.21018 0.0820799 
12599 2 0.0798469 -2.00574 3.53936 
14731 1 5.58241 2.30477 1.05832 
14732 2 2.87916 -1.95092 -4.56552 
2885 2 -2.70779 0.0119539 3.40535 
14733 1 5.49796 2.04408 2.34711 
6933 1 -2.79069 6.44111 -0.281352 
6932 2 -3.01532 0.687357 -1.9781 
1631 2 -5.4657 5.39008 -2.53626 
12977 2 -2.20786 0.849818 -3.2848 
12978 1 1.03858 -2.3357 2.52592 
1632 1 -4.79556 2.65717 4.86464 
12976 1 3.40344 -2.03364 4.2301 
8931 1 4.79347 -4.37563 -0.853503 
16836 1 -0.859395 -5.21588 0.16107 
19692 1 3.66452 1.96813 -6.74512 
19691 2 -0.437205 -1.50346 1.99169 
19690 1 -0.628564 -0.936157 -0.38908 
1771 1 -7.14064 -5.90468 3.66736 
5860 1 5.86268 0.70435 -1.15399 
5861 2 3.03968 1.04249 -1.88953 
4097 2 -1.53958 -0.671771 -0.000878275 
4098 1 3.13931 4.96373 0.281955 
5862 1 3.79453 0.396797 -1.55006 
7324 1 2.39675 -6.16149 1.26328 
940 1 -4.23844 2.21783 -2.13724 
7122 1 -0.53359 4.39986 1.46718 
941 2 -3.47011 -2.26077 -0.45936 
12682 1 -1.68973 1.33018 -4.72072 
12683 2 -0.95285 -0.36403 -4.61595 
12684 1 3.5834 5.6825 4.50383 
4096 1 1.14642 -3.70191 -3.19027 
942 1 -3.56334 -4.43269 0.472301 
1524 1 -2.79706 -0.41028 3.22209 
1522 1 -2.5297 -3.08186 1.49472 
1609 1 3.41606 1.08444 4.48892 
1523 2 0.780223 2.80433 0.929655 
1624 1 -3.71113 -0.813573 -2.18341 
4909 1 2.35925 2.35889 2.82218 
2884 1 -1.10858 1.55653 5.89656 
19291 1 -6.89263 -1.50634 7.01008 
4911 1 1.10581 1.24163 2.2984 
4910 2 -2.73418 3.91812 4.2296 
2984 2 -2.03175 -2.58746 -1.63043 
2985 1 1.90238 -2.1609 1.71149 
6229 1 1.96645 -0.702373 1.92052 
20988 1 -2.81142 -2.33714 6.58108 
20987 2 -1.59173 -0.810042 1.11113 
19292 2 -1.92103 1.65855 -1.53183 
9915 1 -2.70046 3.29381 -2.93109 
20986 1 -3.03408 -3.23364 -0.55848 
9914 2 -2.57276 -3.93368 -2.85057 
9913 1 0.80376 -1.18426 5.4887 
807 1 -0.287225 2.43947 -4.09289 
19293 1 1.18537 0.47458 2.8378 
10747 1 -2.63856 -0.402008 4.87077 
10748 2 -4.69587 -0.179849 4.15328 
20392 1 0.424032 -2.90008 -0.189715 
2185 1 0.0368094 3.06656 -2.07688 
16143 1 -1.36535 -3.34116 -0.62949 
16142 2 5.11841 1.09962 -2.03884 
16141 1 -1.27099 3.15188 3.33616 
14353 1 0.607477 -5.23661 3.95947 
14354 2 2.27254 -2.40652 -1.55019 
14355 1 -0.873172 3.28618 4.86599 
4132 1 -0.8183 -2.88312 -4.13571 
1610 2 0.0735622 0.402833 -0.745161 
1611 1 0.469218 -1.42086 4.00985 
7407 1 -1.8603 0.131665 0.318552 
7406 2 -0.864733 -1.44792 -2.21302 
7405 1 1.46106 3.79369 -7.01457 
6230 2 0.363207 -3.32952 4.26138 
6231 1 -6.74526 -2.33704 5.8741 
20580 1 -1.52904 -4.55187 -3.08767 
20579 2 3.67476 -0.753096 0.667794 
20578 1 -9.75719 -2.2044 -1.27604 
6431 2 2.12339 -2.98776 1.68963 
6430 1 1.56383 -0.333331 2.47773 
10471 1 -0.34993 1.81696 0.0962049 
10472 2 0.403948 -1.15831 0.567385 
10749 1 3.3948 -2.31604 6.02052 
10473 1 -0.022007 -2.29788 1.99768 
13100 3 0.375663 2.02138 0.191558 
13101 1 6.31107 3.2698 2.59612 
13099 1 3.11782 3.20727 5.62816 
16591 1 4.74469 3.08447 -3.21596 
16592 2 2.01948 -2.41429 -0.610607 
933 1 0.863995 2.97695 -1.34954 
13020 1 -0.772127 0.358198 1.28472 
13018 1 -8.2424 -1.33862 7.46686 
13019 2 2.04714 -2.96946 -1.43641 
16593 1 8.39849 -1.12146 -1.11429 
3212 2 -0.863416 -0.372776 -1.83714 
10239 1 -0.0464307 -1.26315 -1.44277 
10238 2 2.20232 -4.52837 1.87931 
10237 1 -3.39833 0.455221 -0.512225 
3211 1 -2.94709 -4.65999 1.29723 
5235 1 3.58604 3.91228 -4.59916 
5234 3 5.38642 -1.88883 -2.08412 
5233 1 5.42752 0.331982 0.620188 
15974 3 -0.657017 5.63603 -2.9933 
18215 3 1.39213 -1.20651 -5.05226 
18216 1 -5.37439 9.21549 -6.13168 
1882 1 3.10614 -4.85638 -2.74075 
1883 3 -3.05756 -0.340613 -1.40705 
1884 1 1.59567 1.38825 1.31298 
2630 2 0.568034 -0.696083 -2.94947 
2631 1 -3.12854 1.2284 0.330968 
16794 1 -0.319175 5.55597 1.32522 
2629 1 -0.794325 2.87782 -2.58783 
15984 1 -6.01824 -4.23489 -10.6352 
15983 2 0.149189 0.691101 0.244476 
15982 1 -1.30751 5.16302 1.98926 
10560 1 5.74447 -0.526013 -0.263335 
10559 2 -0.629126 1.06308 5.21518 
20760 1 2.26485 -3.25793 -3.78083 
15975 1 1.63193 -0.284277 0.833712 
20758 1 1.14467 -3.59907 1.34103 
20759 2 -1.61684 4.33945 6.84427 
12648 1 2.97794 0.46205 0.0407339 
2880 1 -2.16411 2.93252 2.12503 
2879 2 -1.77244 -0.455692 1.00455 
9503 2 -1.09618 -0.77268 1.80636 
9502 1 -2.27562 -2.53294 1.5559 
19053 1 1.70772 0.892973 -0.346191 
2878 1 2.85497 0.829516 -0.0589172 
15721 1 1.88435 2.04364 -0.427255 
11396 2 -0.345678 1.06063 -2.52216 
19052 3 0.183496 -1.98692 -2.58935 
19051 1 -0.234051 5.0152 -5.15874 
18214 1 2.66177 1.085 0.640825 
11397 1 1.02452 6.01857 0.881249 
12383 3 1.86703 0.0637306 -1.52443 
12382 1 1.25358 -6.79502 -2.86063 
12384 1 -7.05748 -0.6298 -1.50962 
1833 1 4.67665 2.1041 -2.86468 
2728 1 3.16308 1.15419 -2.12265 
2729 2 2.60528 -0.693858 0.271269 
8215 1 2.8885 1.91629 5.13015 
19001 2 1.1378 1.00311 0.465644 
19000 1 0.255629 -1.0076 -4.11553 
19002 1 -1.84415 1.1094 -6.66874 
11761 1 -0.32712 -0.0228972 3.41149 
20356 1 0.838321 -0.471007 1.0702 
20357 2 2.69823 0.921447 -2.70003 
20358 1 5.81727 0.235229 4.7674 
9317 2 2.13085 -0.65157 -1.96347 
9316 1 -4.11498 -0.118828 9.25178 
5691 1 -4.16522 -6.74515 0.114994 
5690 2 1.25915 3.08799 -1.43797 
5689 1 3.24466 -2.63619 3.70966 
9535 1 1.9745 1.81119 -1.1489 
9536 2 -0.270019 0.277406 -0.373968 
586 1 0.54414 0.0168465 -4.80046 
587 2 -0.626879 -1.37167 1.4349 
17420 2 -0.332163 -1.10238 1.79255 
9537 1 0.356913 -1.79794 5.47527 
13836 1 3.05401 0.805582 6.08158 
17419 1 -5.49342 4.08693 -0.445234 
13835 2 1.99504 -0.0962565 -0.902351 
13834 1 -2.37736 -2.90467 -2.31289 
15331 1 -0.170826 -4.24972 1.33439 
15722 2 0.320701 -1.57984 2.30284 
15675 1 0.846773 1.41766 4.90331 
15723 1 3.63128 2.41086 5.0284 
15332 2 -6.09236 -4.7014 2.47133 
13731 1 0.0128355 0.660987 1.06265 
13730 3 1.68397 -1.46829 2.34068 
20337 1 -3.07604 -2.5898 1.335 
13729 1 -5.49933 -2.59333 -0.476323 
20336 2 -1.09908 0.445863 1.72166 
20335 1 -3.35611 -0.0527848 0.0359344 
6226 1 -0.260611 1.44579 -1.06777 
9318 1 -0.893814 -6.10669 -3.15696 
8217 1 0.682318 6.33214 0.275175 
8216 2 -2.42537 -2.93845 -1.86383 
16749 1 4.22584 -4.96594 -0.391664 
7930 1 -5.77149 4.80099 3.57942 
7931 2 -1.71248 0.919654 -3.44921 
9579 1 -2.41021 -2.4698 4.37968 
7932 1 1.54494 1.05428 -2.44822 
10967 2 3.50988 -1.228 -7.98884 
10966 1 4.53729 -1.85784 -0.345932 
14978 2 -0.36834 3.03244 -1.3092 
15804 1 -4.54481 -3.09157 -6.84496 
15803 2 3.68904 -0.611432 -1.58741 
15802 1 -2.00011 -0.0909642 -0.837644 
3948 1 -0.0472377 -4.45013 -2.41947 
14979 1 -1.69598 7.06192 1.49314 
16527 1 0.165636 7.28037 -4.63107 
3947 2 -1.96562 0.303727 2.55633 
12901 1 -3.75009 3.54989 -0.452766 
12902 2 -2.95395 -0.820506 -6.19022 
12903 1 -8.98806 9.48883 -0.00292374 
8585 2 -5.39751 1.35912 1.71979 
8586 1 -4.07157 1.81885 3.33934 
8584 1 3.62495 2.32941 -3.43074 
9896 2 -3.06661 -1.56844 -1.50244 
7386 1 -3.18641 2.44221 -0.39002 
16692 1 -4.25594 4.83294 1.37949 
12880 1 -2.09157 -0.727555 3.45156 
12881 2 1.79932 -3.07358 -4.08043 
12882 1 -5.15825 -0.54378 -3.17564 
7384 1 0.0658731 2.1589 1.09725 
7385 2 -0.883708 1.40681 -3.01406 
14086 1 -0.650118 -3.39182 -1.17637 
14087 2 -4.39105 -1.26281 -1.35743 
6227 2 2.81402 -4.77287 -1.98927 
6228 1 -5.96786 0.437374 -1.39452 
8436 1 -8.73059 -2.54424 6.41202 
8435 2 -3.57362 1.53767 -3.6004 
8434 1 -2.05746 -3.61442 -1.38059 
16748 2 -0.33131 0.350591 -2.30639 
3726 1 -1.38568 3.96316 1.03653 
14966 2 -1.78221 -0.976829 -1.77025 
11777 2 0.737534 3.89003 -1.85726 
17658 1 4.78859 4.32487 3.8589 
11778 1 -4.42053 0.719401 -2.92041 
17657 2 1.11943 0.445788 -4.76205 
17656 1 2.94794 2.67 0.514769 
16526 2 0.837312 -0.728417 1.10107 
16525 1 -1.51943 0.188509 2.50156 
20919 1 -1.10806 -2.38919 -0.145063 
12600 1 -2.70757 -6.44446 -0.305715 
15511 1 0.892076 -5.15431 5.01183 
15512 2 -1.66033 -0.220127 2.28118 
15513 1 7.96809 1.75424 -2.45796 
19722 1 2.35954 -3.28201 -2.35152 
20918 2 1.80197 -0.321795 0.094265 
19721 2 1.97916 -2.33239 3.25089 
6931 1 7.7302 -4.0076 3.88477 
13263 1 -2.74833 -1.44646 -0.469439 
9897 1 2.40406 2.36752 -3.64819 
19720 1 4.28302 -1.69574 2.59204 
17301 1 2.16144 0.84293 2.7232 
6051 1 -2.89119 2.9773 6.36577 
16834 1 -0.867463 0.409842 6.17205 
17299 1 1.8552 1.87237 -5.42819 
17300 2 -0.542397 1.80062 1.06126 
16835 2 -2.36459 1.88508 0.802308 
14590 1 5.72632 -1.84273 1.30609 
14591 2 1.57553 1.53376 -0.57063 
4311 1 -0.805932 4.99176 2.36786 
4222 1 -4.5518 3.09445 -0.874901 
2897 2 -7.10856 4.13113 -0.280716 
2896 1 0.199659 1.06431 0.429287 
2898 1 3.58671 -1.36382 -1.84765 
13304 2 -1.00421 -3.18031 -1.15731 
13303 1 -5.34819 0.149072 0.0760494 
4134 1 3.06905 3.66282 0.16835 
4133 2 4.15854 -1.84256 2.24455 
13305 1 4.16204 2.23672 5.6522 
3436 1 -1.90051 1.45757 -0.472986 
3437 2 1.22913 0.214737 -3.03358 
3438 1 1.64789 -2.49906 4.82128 
4594 1 -0.689943 0.0557654 -1.0369 
4595 2 0.422066 -0.0265497 0.0998138 
4596 1 1.9929 2.20673 -3.49473 
5491 1 -2.34437 4.92853 -0.130872 
21131 2 3.15857 3.66598 1.20282 
21130 1 1.64537 5.81677 6.97374 
12743 2 -2.73497 -1.72084 -0.489679 
13262 2 -2.24692 0.76581 -0.517479 
13261 1 -0.699949 8.40892 -0.619184 
14853 1 1.24649 -1.50934 2.28898 
12744 1 -6.22281 0.741614 -4.33272 
21182 2 4.36894 1.89105 0.978757 
21181 1 -3.10697 1.47721 2.9217 
21183 1 2.92153 -6.95699 2.49497 
1622 2 3.09191 -3.59477 -0.610579 
21132 1 -5.18588 4.30113 -1.1913 
14852 2 1.40775 3.55799 -1.46208 
14851 1 -0.79048 2.92079 4.32032 
11565 1 -1.78484 2.85625 -2.50118 
1621 1 -0.420034 2.13881 -1.7273 
1623 1 4.82449 -1.59847 2.57822 
12742 1 -7.2027 -1.69873 3.25871 
14592 1 -0.119928 -1.20075 2.36813 
4309 1 -10.2591 1.09739 -7.12305 
4310 2 0.403071 2.28377 -1.97303 
806 2 -1.21741 1.0952 -3.11451 
805 1 -6.14293 4.81069 -4.22485 
4225 1 4.78228 4.29029 -2.30423 
13855 1 -0.171944 1.98058 0.182219 
6787 1 -3.70056 2.46271 0.107189 
2416 1 -0.590552 2.03061 2.15967 
2417 2 -0.713238 3.51002 2.83048 
2418 1 1.34548 0.811407 1.28451 
17652 1 -1.72878 -3.03824 -4.38154 
5431 1 4.4007 1.28018 1.01061 
17651 2 1.87401 -0.0753838 1.19948 
17650 1 -3.72586 6.13621 3.3795 
6788 2 0.313732 2.12949 0.678769 
5432 2 2.41854 2.62955 -2.18969 
5492 2 -3.28508 3.49583 1.13381 
5493 1 2.17616 1.27026 0.615489 
7204 1 0.213612 -0.988337 6.13358 
7205 2 -1.5887 -0.0320668 -3.056 
19289 2 -3.25974 -1.89149 -0.677601 
19290 1 2.48144 1.64588 5.5892 
7206 1 0.423781 1.41585 -0.289224 
11797 1 -3.43836 -0.400145 0.760907 
4176 1 1.95788 1.33863 1.51304 
19288 1 4.37213 -4.72331 3.18967 
4175 2 -5.80315 5.19805 1.68428 
950 2 1.30416 -3.10764 2.76686 
11563 1 0.427304 0.3418 4.70701 
9093 1 -5.91887 7.82239 -5.10493 
9092 2 -1.92101 -2.32501 0.700142 
9091 1 1.19566 3.36204 -3.68529 
4422 1 0.0401414 -2.56528 7.31783 
4421 2 -0.200815 -5.52355 -1.10755 
11564 2 1.25867 2.49678 -1.38562 
4226 3 -2.26518 -2.4778 0.134106 
4227 1 -0.627559 6.62292 1.87498 
949 1 0.316874 8.24934 -3.27683 
11799 1 -5.18309 1.05949 -0.646947 
11798 2 -0.191907 -0.658091 -1.7304 
4174 1 -1.86763 3.51278 1.7166 
4420 1 -5.70913 0.0768545 0.236094 
57 1 4.24337 7.85041 -3.26489 
56 2 0.404759 0.179128 0.322369 
55 1 2.58332 -2.42168 -0.630197 
6811 1 4.14014 0.827497 1.96686 
12660 1 -2.31654 -0.0828897 3.70103 
15973 1 -4.47243 -0.245349 -2.93721 
14810 2 1.27842 -0.0820776 -2.4024 
12659 2 -1.25035 -1.15241 0.480066 
12658 1 0.330397 1.3263 -2.75825 
20784 1 -0.318164 0.280316 -2.20534 
10558 1 1.05172 -3.02437 7.16905 
17097 1 3.91642 -3.31243 -2.98715 
20783 2 0.114296 1.28322 3.44665 
6378 1 3.20037 1.46623 1.25248 
20782 1 -6.03067 2.80879 0.33636 
21052 1 6.49375 1.91805 0.285709 
7203 1 -3.99219 0.178588 2.87725 
14811 1 3.31166 -3.78013 0.818112 
21053 2 -1.9425 2.04777 -3.56908 
9838 1 -1.01687 -1.74215 1.77412 
7201 1 -0.117376 2.63901 1.87453 
7202 2 3.73586 -3.19361 -3.65008 
21054 1 0.683444 -9.22631 -7.90076 
9084 1 -4.28683 4.26892 8.24985 
9083 2 -0.689828 -1.03644 2.78576 
9082 1 -0.285645 -0.35534 -0.937349 
11395 1 -4.99147 0.507965 1.06392 
17096 2 -0.0874393 -0.987041 -0.565268 
9840 1 -2.75099 1.45623 -0.528386 
2730 1 5.49419 -6.73876 2.54124 
17095 1 7.30823 -3.82629 6.13853 
19086 1 2.31998 -0.239514 -2.11408 
19085 2 -0.54466 0.518968 -2.34479 
13967 2 1.10052 5.86032 -4.91655 
13968 1 0.419258 -1.47555 1.94292 
19084 1 -1.25798 -3.86561 3.51984 
19231 1 5.0811 -0.875137 7.95011 
9839 2 4.96939 -1.10292 -0.446979 
588 1 3.59338 0.975388 -1.72859 
18933 1 3.7269 -1.0372 4.84883 
20942 2 -1.73508 -1.91693 -0.790671 
20941 1 2.91592 -5.2769 0.663286 
18932 2 2.28599 1.18038 1.40013 
18931 1 -5.29755 -0.322501 -2.24097 
19858 1 2.23815 2.64526 -0.823284 
15800 2 0.365524 0.353737 0.126593 
15674 2 -1.57745 0.615217 -0.679107 
15673 1 4.76438 2.02977 4.12414 
15801 1 7.31839 0.315652 -4.92414 
15333 1 -4.03819 -1.29979 3.47886 
5914 1 -1.74355 2.66698 3.02068 
878 2 -1.02069 -5.62587 -1.99895 
5915 2 1.40266 -2.08574 3.17996 
5916 1 1.61954 2.07028 -2.11489 
879 1 -3.21127 1.88149 -0.537517 
20161 1 6.66864 -2.46379 -0.16848 
6516 1 -5.75689 2.34664 -2.76506 
13966 1 3.03104 0.257375 5.10808 
12562 1 -3.4911 -1.64675 0.887466 
9578 2 -2.0151 -0.196914 0.236388 
9577 1 3.72545 -4.07204 -2.43903 
4018 1 -2.16376 -5.9875 -5.74217 
10266 1 -2.23008 -1.56503 -1.98465 
2285 2 4.00396 0.255371 -4.27607 
2286 1 6.90711 1.25461 4.22959 
4019 2 -0.054426 -3.43225 0.162872 
6515 2 -3.59177 4.04717 1.85798 
15799 1 3.48689 -3.45337 -1.29537 
18088 1 1.30056 1.16168 -3.12079 
2284 1 0.589705 3.54129 4.95314 
3946 1 -8.70211 0.972687 0.701194 
20943 1 1.21382 -2.0177 4.96858 
6507 1 -3.4066 3.85035 0.526998 
6514 1 1.24972 -4.68326 7.87052 
18089 2 -1.83107 1.43753 0.812245 
18090 1 -6.49814 -5.1899 -0.143558 
1810 1 -3.50392 4.01084 -2.61507 
1811 2 -0.254029 -1.97197 1.31759 
9895 1 2.64842 1.6396 6.22588 
2059 1 -3.46896 8.16628 -3.48891 
2060 2 -1.18815 -1.96081 0.289541 
2061 1 -3.56341 -5.33337 -3.6693 
18178 1 2.23273 -0.752473 0.237146 
18179 2 2.42279 2.40053 -0.108447 
13162 1 2.24367 0.842044 -0.022588 
13163 2 -0.662731 -4.18003 5.46839 
20134 1 -1.6635 -2.21877 3.82962 
10960 1 -3.37331 -1.00655 -4.22331 
10961 3 -0.668635 1.663 0.262624 
10962 1 0.376041 -1.50134 -0.284859 
4562 2 -2.82063 -1.06965 -3.27786 
3017 2 -1.49595 3.61741 -1.16855 
3018 1 1.99025 -1.17767 -1.24938 
11776 1 6.58162 0.347969 -1.89094 
4020 1 0.0660576 4.71021 -0.279895 
20251 1 5.00325 -4.30403 -2.18407 
1719 1 -2.2537 2.17346 -1.55833 
1718 2 -2.54659 -0.846479 1.3645 
3016 1 -3.41789 2.45268 0.791521 
2341 1 -0.158495 -3.89037 0.829046 
6506 2 -0.650293 3.19609 -2.31811 
1812 1 2.3605 -1.71002 -2.84527 
20252 2 0.423557 2.35495 -0.447825 
6505 1 2.94719 -0.490682 2.0156 
20917 1 2.92357 4.88612 2.9524 
20253 1 0.984124 -2.74505 -0.00609984 
5083 1 0.381364 1.99644 2.13312 
2342 2 1.01813 0.126796 -2.13413 
5084 2 -5.74839 0.241401 -2.52782 
5085 1 -1.07182 -0.25027 2.00067 
12808 1 -0.903113 1.40819 3.69263 
6049 1 -3.9401 -5.80314 6.01107 
6760 1 -1.309 -4.35957 3.97681 
6761 2 -0.0367425 2.93371 -1.29344 
6762 1 7.03827 -3.14499 -3.48407 
6050 2 1.88952 2.30271 2.87634 
19371 1 1.68221 -1.79018 -1.78022 
15100 1 1.76634 -4.43393 4.00362 
14088 1 1.76494 5.15674 -2.47422 
15856 1 -1.60897 -1.44868 -3.58929 
19424 2 -1.44485 -1.01538 -0.540408 
13164 1 -2.45795 0.607302 -5.83651 
19425 1 -3.67809 -0.647588 5.38494 
15857 2 -1.68584 -1.72414 -1.76072 
15858 1 -5.25021 -5.88631 -12.1275 
5331 1 4.69453 0.415353 0.933341 
5330 2 2.21544 3.63999 1.62433 
5329 1 4.93011 -9.71647 -4.01073 
19369 1 -3.28514 0.0123681 -4.04408 
19423 1 1.30701 1.89309 -5.61203 
14455 1 1.33607 -6.38617 -0.549343 
3204 1 1.44117 -7.07583 -0.314864 
1717 1 3.98903 2.88801 -2.4087 
6023 2 -4.20188 -0.172059 -1.32892 
20373 1 -1.84466 3.27659 -1.40946 
20372 2 -1.17865 -0.912197 -3.43931 
20371 1 -7.37954 -2.44031 1.18898 
18526 1 -1.94077 -0.834451 7.75407 
6664 1 -2.91087 7.05441 -2.21568 
6665 2 0.293071 -0.115164 0.657803 
6024 1 0.501347 3.82921 1.03987 
18527 2 1.57202 3.69236 -0.011313 
3312 1 0.348209 -8.11457 -1.02186 
3311 2 0.399791 2.73394 0.548706 
3310 1 3.11774 0.377849 4.78928 
3349 1 2.59713 -2.53664 3.54312 
11353 1 -0.438153 2.85627 -2.08094 
3350 2 -0.511324 -6.99361 4.88707 
5433 1 -1.34769 -6.31224 0.993566 
18528 1 -1.39935 3.60397 -1.90142 
12809 2 -0.035812 -0.765428 0.428232 
19370 2 3.8134 -0.0518191 -1.58234 
12810 1 10.56 3.17417 1.9519 
12472 1 -1.07517 -6.08095 -1.05548 
12474 1 0.402191 0.893696 1.92656 
12473 2 2.40396 4.13738 -0.69428 
21170 2 -2.79025 -0.999872 0.347521 
21169 1 -5.7381 1.21302 4.18984 
18066 1 1.27793 -0.515444 -5.23446 
21171 1 2.12635 -0.053558 -7.38582 
18065 2 0.562553 0.850462 -5.82354 
18064 1 3.80592 -3.38764 -7.20048 
1255 1 0.169544 5.94292 6.0689 
6022 1 4.75544 2.22362 -3.36648 
6789 1 -2.04504 -4.59604 0.592457 
13241 2 1.07852 2.98896 1.2838 
13240 1 -8.08897 1.70179 -3.98054 
13242 1 -1.0831 0.453892 -0.982585 
1095 1 4.01024 -0.444714 -6.35374 
6583 1 -1.54903 -5.74757 7.39733 
11354 2 -1.16323 -2.34132 -3.09915 
951 1 -0.180423 -0.196285 -10.5556 
11355 1 -0.980408 3.73089 -3.63915 
17631 1 -0.486002 -0.672457 -1.3187 
17629 1 0.651171 -3.11157 7.17167 
17630 2 -1.07175 0.4126 0.776334 
21033 1 -4.16988 -0.937163 -6.23167 
8923 1 2.89528 1.62142 2.34062 
21032 2 2.11392 -5.18537 -1.5359 
8924 2 3.50307 -5.91813 1.80728 
8925 1 -0.26067 1.79923 -2.07703 
6585 1 2.91462 2.18391 0.420192 
6584 2 1.64872 5.08084 0.568038 
10332 1 8.94812 -0.610374 1.30543 
10331 2 -1.22634 1.92735 -3.89664 
10330 1 1.09336 -2.71286 4.27723 
6813 1 -0.720353 1.19607 3.54997 
21031 1 1.30229 -7.42285 3.02544 
6812 3 -1.87605 -1.18874 -2.00429 
20726 2 2.13705 0.15083 1.74929 
20727 1 0.652779 -2.93944 4.75578 
2140 1 1.99065 6.80226 -0.439027 
2141 2 -8.95996 0.769722 4.82547 
20725 1 -1.16596 1.47075 3.12676 
2142 1 0.46008 3.76743 -0.776209 
14809 1 2.76034 -3.83502 -7.92525 
9816 1 -1.68046 2.16591 2.18743 
4406 2 -0.0485286 -4.86838 1.38142 
6377 2 0.828759 1.03495 1.0741 