ITEM: TIMESTEP
60000000
ITEM: NUMBER OF ATOMS
2451
ITEM: BOX BOUNDS pp pp pp
0.0000000000000000e+00 5.0000000000000000e+01
0.0000000000000000e+00 5.0000000000000000e+01
0.0000000000000000e+00 5.0000000000000000e+01
ITEM: ATOMS id type xs ys zs
784 1 0.446886 0.629854 0.0275092
10207 1 0.439134 0.634802 0.00901937
5535 1 0.482794 0.614402 0.0227578
5534 3 0.481437 0.62118 0.0276425
2695 1 0.489202 0.636322 0.0278558
20684 3 0.37956 0.664197 0.0285
20685 1 0.378501 0.659323 0.0230553
16541 3 0.39435 0.652799 0.00575422
16540 1 0.400035 0.657135 0.00032003
16542 1 0.390611 0.647661 0.000301406
785 3 0.448587 0.636624 0.0251872
786 1 0.453117 0.641007 0.0204664
21159 1 0.455143 0.643011 0.0183182
21158 3 0.459278 0.64575 0.0128183
21157 1 0.463641 0.651637 0.00992911
4930 1 0.465679 0.654637 0.00953041
10208 3 0.439253 0.639946 0.00272871
4932 1 0.477106 0.661512 0.00284453
2696 3 0.486229 0.643394 0.0249855
2697 1 0.486847 0.65234 0.023396
2415 1 0.486588 0.654946 0.0227275
4931 2 0.469559 0.660614 0.00745005
2414 2 0.487701 0.663185 0.0203737
2413 1 0.493391 0.666453 0.0153832
13146 1 0.479682 0.661424 0.00129338
18681 1 0.433895 0.6763 0.017851
3790 1 0.431028 0.676737 0.0202936
3791 2 0.423514 0.676946 0.023956
3792 1 0.417664 0.679795 0.0230068
13148 2 0.408646 0.687123 0.0230769
13147 1 0.415592 0.681889 0.0226699
13149 1 0.407273 0.694122 0.0177712
8442 1 0.406833 0.696086 0.0163837
10774 1 0.417369 0.686251 0.00180497
10776 1 0.430163 0.691943 0.0096678
10775 2 0.424778 0.68889 0.00406479
17131 1 0.41475 0.685496 0.000678035
19028 2 0.442147 0.6954 0.0208408
18680 2 0.440556 0.675163 0.0122294
18679 1 0.447824 0.678834 0.0144432
4670 2 0.457599 0.682809 0.0159266
4671 1 0.450246 0.679883 0.0153394
4669 1 0.461733 0.68902 0.018147
11185 1 0.462437 0.691297 0.0190526
19027 1 0.443299 0.688934 0.0256078
19075 1 0.443449 0.687252 0.0276497
11680 1 0.443563 0.696869 0.000240926
17157 1 0.476292 0.683311 0.00931152
5379 1 0.477141 0.682723 0.012128
5378 2 0.481281 0.682166 0.0190512
5377 1 0.483528 0.685519 0.0249351
14854 1 0.484981 0.687046 0.0277402
17156 2 0.473351 0.686306 0.00253631
11580 1 0.49557 0.668014 0.0138106
11579 2 0.500538 0.670452 0.00941122
13914 1 0.510857 0.674311 0.00599472
11578 1 0.508159 0.673023 0.0068677
16719 1 0.501872 0.696909 0.00184531
9572 2 0.505582 0.695975 0.0208926
13913 2 0.517144 0.67731 0.00362687
8117 2 0.517984 0.673658 0.0257367
8118 1 0.524631 0.678091 0.0278459
8193 1 0.527158 0.6802 0.0286167
8116 1 0.510701 0.672428 0.0310746
9573 1 0.507157 0.693995 0.0280844
7228 1 0.507348 0.692972 0.0313853
13912 1 0.522016 0.683255 0.000728522
8441 2 0.405136 0.701299 0.0103715
18812 2 0.392371 0.722849 0.00140655
845 2 0.429737 0.710128 0.0177488
8440 1 0.409943 0.706159 0.00614416
844 1 0.422764 0.713355 0.0194509
20806 1 0.419738 0.714778 0.0202341
20807 2 0.412166 0.717683 0.0210902
846 1 0.435532 0.704024 0.0181789
17697 1 0.411744 0.708174 0.00477568
20808 1 0.411317 0.725405 0.0182557
17696 2 0.417077 0.713928 0.00135787
11186 2 0.464155 0.69842 0.0227013
19029 1 0.43759 0.701661 0.0189451
11187 1 0.466969 0.705072 0.026324
11840 2 0.45706 0.71837 0.0153024
11841 1 0.456775 0.723307 0.0209129
8704 1 0.467577 0.708178 0.0275513
13537 1 0.456585 0.725775 0.0233438
13212 1 0.461667 0.71164 0.00760634
13211 2 0.462523 0.70654 0.00162009
11839 1 0.460872 0.713345 0.00965597
2653 1 0.442068 0.699506 6.75909e-05
1764 1 0.485565 0.700279 0.0218683
8019 1 0.484978 0.713324 0.00881445
1763 2 0.48482 0.70437 0.014797
1762 1 0.485016 0.710658 0.0105399
5171 2 0.494385 0.721269 0.0256825
5170 1 0.488162 0.726877 0.0232589
8018 2 0.484508 0.720063 0.00434597
8017 1 0.485225 0.727238 0.00160803
15546 1 0.504013 0.698017 0.00302533
15544 1 0.509111 0.698253 0.0111934
9571 1 0.508155 0.697367 0.0136938
15545 2 0.511675 0.701098 0.00444321
5172 1 0.501875 0.71889 0.028992
18043 1 0.504603 0.71834 0.0301115
3409 1 0.515707 0.718997 0.0238352
18045 1 0.514656 0.718384 0.0264357
3410 2 0.521479 0.721691 0.0169212
19137 1 0.355132 0.752751 0.000860474
19135 1 0.361625 0.752248 0.0134113
13825 1 0.363551 0.751617 0.0155946
13826 3 0.367723 0.74975 0.0214947
19136 3 0.356418 0.753764 0.0088618
17894 2 0.389045 0.74203 0.0034301
13827 1 0.374219 0.748873 0.0245129
19303 1 0.377238 0.749068 0.0258961
17893 1 0.390468 0.73361 0.00300594
18811 1 0.391163 0.730815 0.00245258
19304 2 0.382828 0.749095 0.0296337
12452 2 0.43636 0.732515 0.023072
18724 1 0.410912 0.727971 0.0172555
18725 2 0.410668 0.735162 0.014607
18726 1 0.415466 0.741502 0.0111048
8763 1 0.417361 0.743908 0.0100991
8762 2 0.422068 0.750467 0.00854357
8761 1 0.429799 0.751308 0.00752003
3673 1 0.432887 0.751138 0.00742589
13351 1 0.406747 0.756442 0.0291993
12451 1 0.434145 0.730126 0.0293699
9943 1 0.436804 0.729595 0.0128126
12453 1 0.436633 0.730492 0.0158578
3674 2 0.440698 0.750374 0.00715254
9944 2 0.437079 0.728211 0.00480976
13538 2 0.457054 0.731562 0.0287148
3675 1 0.446648 0.744754 0.00731397
2125 1 0.448863 0.743164 0.0077916
2126 2 0.454261 0.738185 0.00748795
16710 1 0.462346 0.752595 0.0205478
15963 1 0.464471 0.750808 0.0200063
8181 1 0.445403 0.755359 0.0261503
16708 1 0.448338 0.756307 0.0250497
2127 1 0.46029 0.733949 0.00386501
8180 2 0.438455 0.754065 0.0289843
14428 1 0.462016 0.73236 0.00204121
15962 2 0.468932 0.745301 0.0176763
6408 1 0.485966 0.728442 0.0226834
6406 1 0.474948 0.737626 0.0192582
15961 1 0.473216 0.739762 0.0187007
6407 2 0.479033 0.732149 0.0222453
12065 2 0.49249 0.750387 0.0167907
12064 1 0.488073 0.75319 0.0233969
8871 1 0.486524 0.754431 0.0255913
12066 1 0.495375 0.755215 0.0104017
21456 1 0.497089 0.7564 0.00836077
11080 1 0.496745 0.729516 0.00551699
9949 1 0.48546 0.730107 0.000772403
21383 2 0.525565 0.743995 0.000840925
14892 1 0.527984 0.730181 0.0185144
15211 1 0.509533 0.740529 0.0136515
15212 2 0.513064 0.746893 0.0178794
11562 1 0.515506 0.748547 0.0273413
15213 1 0.515122 0.748064 0.0249051
11082 1 0.507999 0.738436 0.012631
9118 1 0.525054 0.754284 0.00386888
21384 1 0.524708 0.751294 0.00283231
3411 1 0.526415 0.727622 0.0178939
11081 2 0.503051 0.732837 0.0103472
8623 1 0.369788 0.779259 0.0244494
13733 2 0.394509 0.776999 0.0136257
13732 1 0.401997 0.779335 0.0151277
13734 1 0.387641 0.775632 0.0120028
8624 3 0.376985 0.776266 0.0299651
783 1 0.42311 0.781792 0.00713881
17917 1 0.40757 0.758549 0.0265084
17918 2 0.408151 0.762248 0.0195903
17919 1 0.413149 0.768692 0.0179243
6192 1 0.414587 0.771224 0.0176428
6191 2 0.418094 0.778037 0.0153915
6190 1 0.421802 0.781059 0.00984663
8179 1 0.431835 0.758701 0.0289069
782 2 0.425397 0.784945 0.000130956
16709 2 0.455636 0.757776 0.0220707
13727 2 0.455653 0.776008 0.0126346
13728 1 0.45753 0.783427 0.0111385
13726 1 0.45159 0.771339 0.00858496
16111 1 0.470527 0.760376 0.00430157
16600 1 0.472113 0.761849 0.00614418
16601 2 0.475621 0.765854 0.0118356
16602 1 0.478182 0.771057 0.0179943
13383 1 0.479724 0.773347 0.0194861
13382 2 0.483963 0.77803 0.0238516
13381 1 0.484283 0.785576 0.0276341
7298 2 0.502911 0.778966 0.0168143
9119 2 0.524887 0.762211 0.00550126
19903 1 0.504 0.770757 0.0240525
7297 1 0.503919 0.773484 0.0218064
7299 1 0.503075 0.786209 0.0146097
2567 2 0.520997 0.781378 0.00673925
2566 1 0.522659 0.772969 0.00668121
9120 1 0.523645 0.769794 0.00649725
19904 2 0.50416 0.764479 0.030382
21455 2 0.501191 0.761027 0.00299537
5543 3 0.364535 0.795866 0.0144281
5544 1 0.372374 0.795312 0.01405
5542 1 0.359418 0.800887 0.0129711
2430 1 0.375666 0.795632 0.0141242
2429 2 0.38435 0.796204 0.0161386
2428 1 0.392635 0.796525 0.0163771
1488 1 0.395563 0.79674 0.0165284
1487 2 0.402988 0.796838 0.0175117
20745 1 0.398705 0.813995 0.0313577
17672 2 0.396885 0.812118 0.00210564
16411 1 0.424579 0.805543 0.00771932
5502 1 0.426267 0.80609 0.00540835
1486 1 0.410118 0.79907 0.0166757
16413 1 0.413011 0.800231 0.0162443
11593 1 0.433572 0.79506 0.026601
3849 1 0.435536 0.795139 0.0238918
16412 2 0.420374 0.802471 0.0138846
10055 2 0.431765 0.814935 0.0278779
20480 2 0.464761 0.795424 0.0241671
3848 2 0.440477 0.794056 0.0170576
19154 2 0.456182 0.807685 0.0135436
19155 1 0.459313 0.802698 0.0181319
20481 1 0.460966 0.80106 0.0194841
19153 1 0.45523 0.81439 0.00970157
3847 1 0.442896 0.790493 0.0102855
11178 1 0.443648 0.790023 0.00712553
10056 1 0.438662 0.815721 0.0303985
5134 1 0.441079 0.815834 0.0313353
9141 1 0.454711 0.817061 0.00841337
20479 1 0.465432 0.791286 0.0295149
5403 1 0.474581 0.790466 0.000527865
5402 2 0.477508 0.796477 0.00469836
5401 1 0.478534 0.80297 0.00792599
7271 2 0.478598 0.810565 0.0149956
7272 1 0.478456 0.805622 0.00992266
20263 1 0.484503 0.78803 0.0287372
1398 1 0.473508 0.816028 0.023658
7270 1 0.475126 0.814396 0.0207847
2568 1 0.520255 0.789205 0.00465932
10521 1 0.503207 0.789136 0.0142239
10798 1 0.520128 0.791906 0.00344552
10520 2 0.502289 0.796721 0.0133184
1870 1 0.502212 0.807849 0.0134683
1871 2 0.502429 0.816746 0.0147835
10519 1 0.502154 0.804702 0.0135291
2034 1 0.511692 0.799428 0.0311193
2033 2 0.515944 0.804389 0.0270429
5568 1 0.52253 0.807544 0.0210832
2032 1 0.520243 0.806471 0.022617
5567 2 0.529159 0.810404 0.0172082
13808 2 0.517822 0.817597 0.000742241
17671 1 0.391155 0.818627 0.00354226
1045 1 0.401141 0.827665 0.0221449
20743 1 0.401322 0.825384 0.0235158
1046 2 0.401391 0.834054 0.0169902
19210 1 0.383011 0.834212 0.00754471
581 2 0.383144 0.844931 0.00902956
582 1 0.382919 0.837129 0.00795436
253 1 0.385903 0.837487 0.0278748
19211 2 0.384288 0.82711 0.00571566
20744 2 0.400824 0.818537 0.0264535
19212 1 0.389144 0.820519 0.00418249
1047 1 0.406342 0.830161 0.0109924
7111 1 0.419608 0.848112 0.00452351
2368 1 0.407736 0.828618 0.00870253
7816 1 0.42445 0.822864 0.0254101
13168 1 0.421595 0.84801 0.00739726
2369 2 0.412452 0.824739 0.00394823
7818 1 0.416356 0.834224 0.0297757
7817 2 0.419789 0.827813 0.026324
10054 1 0.425782 0.821211 0.0254302
13170 1 0.43283 0.848198 0.0210475
14469 1 0.435376 0.847793 0.0231278
14468 2 0.442216 0.845755 0.02765
9139 1 0.451928 0.830905 0.00167321
9140 2 0.451652 0.823246 0.00512421
16680 1 0.453442 0.848121 0.00173655
10232 2 0.459723 0.837228 0.0257517
10233 1 0.464855 0.842277 0.0261228
1885 1 0.466843 0.844052 0.0254823
10231 1 0.462516 0.830008 0.0268505
1396 1 0.464392 0.827623 0.0267639
16678 1 0.452223 0.833515 0.000352499
7136 2 0.470995 0.829499 0.00611553
21476 2 0.488784 0.835598 0.0273854
7135 1 0.471119 0.836815 0.00525087
12898 1 0.490765 0.833638 0.0162053
21477 1 0.490152 0.833948 0.0192311
12899 2 0.491638 0.833722 0.00814968
12900 1 0.491372 0.827951 0.00291499
1397 2 0.469067 0.820694 0.0283088
41 2 0.47298 0.847148 0.00272882
7137 1 0.472284 0.823746 0.00133523
42 1 0.471634 0.840051 0.00457347
2899 1 0.491604 0.825064 0.001153
10772 2 0.514171 0.835173 0.00675603
1872 1 0.504427 0.822506 0.0188233
10680 1 0.505165 0.824828 0.020034
10679 2 0.507873 0.831543 0.0247652
12546 1 0.509593 0.842795 0.0239897
10678 1 0.509035 0.839933 0.0246406
10773 1 0.51066 0.837212 0.00102646
10771 1 0.515789 0.828042 0.00435163
13807 1 0.516317 0.825188 0.00332525
580 1 0.384463 0.850106 0.0155235
19005 1 0.384775 0.851729 0.0183905
19004 2 0.384824 0.854607 0.0254022
13169 2 0.426387 0.848662 0.0154099
19274 2 0.44183 0.87139 0.00588385
19273 1 0.44844 0.87194 0.0115815
14199 1 0.453516 0.850134 0.00345551
14198 2 0.454136 0.856778 0.0090462
14197 1 0.452823 0.862951 0.0148163
14112 1 0.452614 0.864977 0.0169261
14111 2 0.452784 0.870676 0.0230422
14110 1 0.455008 0.876623 0.0257827
19275 1 0.438209 0.869134 0.000498158
16448 2 0.488144 0.866505 0.00228702
16447 1 0.48893 0.862915 0.008905
1887 1 0.472994 0.858118 0.0230174
14092 1 0.473988 0.861445 0.0223009
14093 2 0.475753 0.868594 0.0211651
14094 1 0.48261 0.864773 0.018999
11888 2 0.491602 0.856983 0.0170425
11889 1 0.484983 0.862743 0.0186358
11887 1 0.489615 0.861323 0.0111028
1886 2 0.471387 0.850011 0.0236419
9629 2 0.525523 0.857722 0.00871057
12545 2 0.512296 0.850622 0.0224011
9630 1 0.52052 0.855545 0.0152769
12544 1 0.518325 0.854483 0.0174639
20608 1 0.506596 0.874938 0.0308395
20609 2 0.504304 0.878753 0.0248151
3427 1 0.455307 0.879666 0.0266984
3428 2 0.457056 0.887846 0.0288184
3290 2 0.490196 0.893174 0.0284445
3289 1 0.487761 0.900546 0.0268794
14820 1 0.486842 0.903075 0.0270674
3291 1 0.495187 0.886905 0.0267838
20610 1 0.497584 0.885367 0.0261498
14819 2 0.48446 0.909767 0.0302103
14818 1 0.481143 0.916614 0.0312511
5533 1 0.486268 0.62571 0.0329295
1879 1 0.487578 0.627206 0.0347369
1880 3 0.492185 0.631091 0.0397602
11014 1 0.436122 0.661717 0.0502424
484 1 0.435981 0.661478 0.0534712
21585 1 0.45626 0.64239 0.0425695
11016 1 0.442772 0.662325 0.0374489
485 2 0.437837 0.661393 0.0611884
6004 1 0.445223 0.662527 0.0358242
6005 2 0.452676 0.66336 0.0334675
21584 2 0.463828 0.644889 0.0376968
11015 2 0.437683 0.663182 0.0430155
6006 1 0.455782 0.666109 0.040971
1881 1 0.494688 0.636558 0.043746
11364 1 0.496082 0.638655 0.0455154
21583 1 0.467825 0.644943 0.0317294
20922 1 0.478666 0.654615 0.0506213
17185 1 0.480816 0.655801 0.0488498
17186 2 0.487304 0.66042 0.0455491
20921 2 0.473674 0.651113 0.0543327
17187 1 0.492416 0.66428 0.040866
9198 1 0.494479 0.665935 0.0391682
20920 1 0.478312 0.645802 0.0576444
11363 3 0.499896 0.645311 0.0506358
4974 1 0.504797 0.653609 0.0545631
11362 1 0.503694 0.651589 0.0539003
4972 1 0.514528 0.663289 0.0608661
4973 2 0.508634 0.660823 0.0559823
11546 3 0.373494 0.692312 0.0466089
20683 1 0.379507 0.668397 0.0364271
10419 1 0.379157 0.669884 0.039186
10418 2 0.377723 0.674829 0.0464055
10417 1 0.37693 0.682488 0.0472553
11547 1 0.37599 0.685371 0.0471856
13851 1 0.404345 0.694928 0.0588898
13777 1 0.41246 0.693853 0.0479393
13849 1 0.412765 0.680873 0.0623192
342 1 0.414453 0.67832 0.0621994
19076 2 0.444191 0.682852 0.0342255
981 1 0.457532 0.66675 0.0436506
19013 2 0.467027 0.689411 0.0420441
19077 1 0.444482 0.681835 0.0424724
1446 1 0.444768 0.682007 0.0455017
1445 2 0.44498 0.683945 0.0525559
980 2 0.461563 0.668319 0.0502582
979 1 0.459914 0.67069 0.0583055
19012 1 0.460856 0.693924 0.0403107
718 1 0.458894 0.695764 0.0401747
1444 1 0.451285 0.685718 0.0576047
13032 1 0.453761 0.686294 0.0589706
19014 1 0.472412 0.686859 0.0473032
2557 1 0.474377 0.686036 0.0490837
14855 2 0.488225 0.692257 0.0325838
2558 2 0.480074 0.685847 0.0543848
2559 1 0.486163 0.683393 0.0587843
6388 1 0.488429 0.681765 0.0600262
6389 2 0.493638 0.677746 0.0618019
9196 1 0.508296 0.671994 0.0322513
9197 2 0.500244 0.670553 0.0352862
7229 2 0.50831 0.691816 0.0387274
7230 1 0.508403 0.694275 0.0464399
7984 1 0.508348 0.695005 0.0494436
7985 2 0.507187 0.696579 0.0561317
1454 2 0.360738 0.704443 0.0594309
1453 1 0.362339 0.711402 0.0606968
1674 1 0.36249 0.714323 0.0613512
1673 3 0.362478 0.722742 0.0619985
11545 1 0.374815 0.700086 0.0490902
2486 2 0.400133 0.71671 0.041464
2485 1 0.400902 0.71224 0.0464853
5298 1 0.375274 0.702862 0.0498411
5297 3 0.378175 0.71215 0.0479437
3445 1 0.400872 0.710147 0.0488414
3446 2 0.400433 0.704242 0.0549103
17350 1 0.40192 0.726929 0.0389201
2487 1 0.401234 0.723909 0.0393537
295 1 0.384621 0.717618 0.0547739
5296 1 0.38268 0.715961 0.0523712
3447 1 0.403365 0.697138 0.0578471
296 2 0.388961 0.721023 0.0597029
13778 2 0.418772 0.699477 0.047633
13779 1 0.425475 0.702356 0.0454532
19282 1 0.427499 0.70365 0.0450002
19283 2 0.435036 0.70685 0.0448586
13668 1 0.419372 0.724972 0.046989
11251 1 0.421382 0.72523 0.0444788
11252 2 0.426883 0.727093 0.0384687
13667 2 0.414625 0.723864 0.0523621
13666 1 0.414786 0.719996 0.0592961
3171 1 0.414537 0.718284 0.062161
19284 1 0.441816 0.703744 0.0420631
720 1 0.444284 0.702559 0.0410741
719 2 0.451522 0.700321 0.0396796
21313 1 0.456659 0.719121 0.0494828
18151 1 0.454703 0.721353 0.0494021
21314 2 0.461409 0.714246 0.0515057
21315 1 0.459181 0.712667 0.0601456
18152 2 0.449375 0.726866 0.0501395
19962 1 0.458489 0.712364 0.0630496
8705 2 0.469351 0.713873 0.0325789
14856 1 0.486352 0.697971 0.0383086
16338 1 0.485993 0.699802 0.0399978
16337 2 0.485663 0.70547 0.0449729
8706 1 0.472625 0.720611 0.0371564
17880 1 0.473642 0.722916 0.0388843
16336 1 0.488308 0.711135 0.0505745
21373 1 0.488511 0.713286 0.0520448
21374 2 0.488502 0.719983 0.0566499
9568 1 0.496972 0.698642 0.062488
18044 2 0.511874 0.717808 0.0335
7986 1 0.499844 0.697644 0.0608957
14570 2 0.527827 0.718468 0.0568423
1672 1 0.367019 0.728841 0.061536
11367 1 0.368787 0.731653 0.0607788
11366 2 0.373673 0.738241 0.0596086
17352 1 0.403947 0.741493 0.0385416
13353 1 0.403955 0.744105 0.0384827
13352 2 0.404203 0.75181 0.0355243
17351 2 0.403386 0.733387 0.0383986
19305 1 0.383858 0.7512 0.0368671
5387 2 0.385353 0.753784 0.0471865
5388 1 0.384274 0.75171 0.0397095
5386 1 0.391701 0.748971 0.0506876
11365 1 0.376901 0.745189 0.0618188
1039 1 0.377767 0.747726 0.0630776
21046 1 0.393553 0.746991 0.052275
21047 2 0.39783 0.741476 0.0562683
21048 1 0.398852 0.73678 0.0630894
15658 1 0.399276 0.757017 0.0587595
11253 1 0.431967 0.729615 0.0323385
7187 2 0.42241 0.742114 0.0519473
7188 1 0.420495 0.740663 0.0597167
3936 1 0.418985 0.740557 0.0628317
7186 1 0.429947 0.742503 0.0485725
15363 1 0.432702 0.742174 0.0477739
13539 1 0.459094 0.736914 0.0340173
14274 1 0.45977 0.738955 0.0360403
15362 2 0.440885 0.742399 0.0465838
18153 1 0.444296 0.732833 0.0476552
15361 1 0.443049 0.735165 0.0473821
14273 2 0.461081 0.744397 0.0418464
14272 1 0.46332 0.746236 0.049242
12172 1 0.464039 0.747089 0.0517077
12173 2 0.466817 0.750574 0.0589248
17879 2 0.475753 0.728911 0.0423815
21375 1 0.484837 0.72758 0.0593121
17878 1 0.482726 0.732104 0.0416366
17119 1 0.485695 0.733481 0.0414829
17120 2 0.493062 0.737074 0.0396135
16900 1 0.498185 0.752213 0.0541087
11826 1 0.498122 0.750584 0.0564654
12868 1 0.483405 0.729817 0.0602804
11825 2 0.49837 0.746567 0.062621
17121 1 0.499748 0.735996 0.0423626
15099 1 0.502696 0.735493 0.0434491
15098 2 0.511101 0.733067 0.0459516
15097 1 0.509496 0.731064 0.0533418
9621 1 0.509488 0.730158 0.0561962
11561 2 0.517467 0.749525 0.0348797
4611 1 0.522234 0.757225 0.0401655
11560 1 0.52108 0.755214 0.0391986
9240 1 0.525644 0.747559 0.060301
3991 1 0.523695 0.747997 0.0622873
17606 3 0.35033 0.769992 0.0521407
17607 1 0.345246 0.774503 0.0491868
17605 1 0.35407 0.770032 0.0598127
8281 1 0.355564 0.769665 0.0625375
15977 2 0.39406 0.772128 0.0364707
8625 1 0.38438 0.774764 0.0328225
15978 1 0.387173 0.774347 0.0340988
15976 1 0.402765 0.772557 0.0364712
14757 1 0.40563 0.77216 0.0363748
14756 2 0.4135 0.771638 0.0372617
14755 1 0.421169 0.771897 0.0363376
12853 1 0.424824 0.772421 0.035717
12854 2 0.432851 0.774492 0.0337878
10482 1 0.43246 0.7749 0.0572283
14461 1 0.434803 0.773669 0.0555542
10481 2 0.42635 0.77884 0.0618368
15659 2 0.406181 0.759801 0.0586013
10480 1 0.421061 0.784584 0.0630214
12855 1 0.438183 0.779886 0.0350585
19738 1 0.440585 0.783135 0.0354635
11038 1 0.463819 0.766193 0.0438903
17946 1 0.466294 0.766076 0.0446062
14463 1 0.448029 0.768184 0.0475389
19171 1 0.466412 0.785052 0.0470795
14952 1 0.465642 0.785732 0.049981
11040 1 0.45016 0.767512 0.0457025
14951 2 0.463161 0.787123 0.0568029
11039 2 0.45681 0.766963 0.0412988
14462 2 0.44147 0.769977 0.051124
14950 1 0.457866 0.784571 0.061416
8870 2 0.483911 0.758102 0.0316255
19172 2 0.468078 0.784298 0.0377503
8869 1 0.480439 0.760065 0.0380623
17945 2 0.474555 0.765011 0.0460643
17944 1 0.478764 0.761241 0.040347
16726 1 0.481608 0.774588 0.0617054
3605 2 0.490343 0.787682 0.0501301
3606 1 0.489361 0.779119 0.0490564
761 2 0.529714 0.776329 0.0522824
16901 2 0.499372 0.758217 0.0473967
4610 2 0.526115 0.76123 0.0427691
4609 1 0.526524 0.767562 0.0467102
19905 1 0.503102 0.760845 0.038656
16902 1 0.502094 0.759851 0.0413294
762 1 0.527312 0.769877 0.0480939
16755 1 0.508793 0.785041 0.0400227
6726 1 0.369803 0.813447 0.0509162
6724 1 0.367543 0.798975 0.0500555
6725 3 0.365211 0.806468 0.0539993
5374 1 0.371624 0.816035 0.0495447
5341 1 0.392105 0.788776 0.0548649
5342 3 0.388886 0.79163 0.0472101
5343 1 0.391745 0.797711 0.0423275
18703 1 0.392756 0.799507 0.0405863
18704 2 0.393791 0.805589 0.0355851
18705 1 0.397163 0.811837 0.0329097
8092 1 0.393049 0.788524 0.0582816
11594 2 0.427444 0.795214 0.0318922
11595 1 0.420872 0.796856 0.0359907
8503 1 0.418915 0.797736 0.0378679
14321 2 0.419406 0.800181 0.0611536
8504 2 0.414241 0.8001 0.0430931
8505 1 0.41563 0.798905 0.0514089
14322 1 0.416653 0.79918 0.0542844
9466 1 0.43535 0.811814 0.0496936
9467 2 0.430768 0.818016 0.0492346
19173 1 0.465962 0.789339 0.0316479
19739 2 0.446766 0.788791 0.0371314
16581 1 0.437404 0.809063 0.049732
16580 2 0.441236 0.802357 0.0502221
5135 2 0.448307 0.815789 0.0347699
19740 1 0.445152 0.795072 0.0423633
16579 1 0.444149 0.797039 0.0443763
9454 1 0.455628 0.809749 0.0401253
5136 1 0.453683 0.810772 0.0385078
9455 2 0.461362 0.806253 0.044824
17116 1 0.45086 0.817527 0.0610228
9456 1 0.468027 0.804593 0.0464703
20265 1 0.489321 0.800902 0.033249
15000 1 0.491432 0.803333 0.0343035
20264 2 0.485209 0.795066 0.0316282
3604 1 0.485137 0.793979 0.0498309
21406 1 0.48327 0.796288 0.0502878
21408 1 0.470407 0.804037 0.0472977
21407 2 0.478021 0.80241 0.0490446
14999 2 0.495496 0.809515 0.0355631
10516 1 0.527454 0.815924 0.0504261
11716 1 0.528652 0.814446 0.0476146
16753 1 0.510601 0.797614 0.0326528
16754 2 0.509047 0.792532 0.0384341
2479 1 0.522821 0.795975 0.0605
13140 1 0.520152 0.796383 0.0599443
13139 2 0.512197 0.797534 0.0571983
13138 1 0.50653 0.802367 0.0576821
13526 2 0.499003 0.810975 0.0583927
13527 1 0.504322 0.804378 0.0577629
14998 1 0.500951 0.814255 0.038345
21268 1 0.503527 0.816078 0.0392765
6205 1 0.527707 0.796954 0.0320341
12402 1 0.404065 0.847949 0.0381511
5375 2 0.37781 0.821286 0.0456628
5376 1 0.379485 0.82674 0.0396534
255 1 0.381439 0.828672 0.038066
254 2 0.385939 0.835294 0.0356194
9254 2 0.411175 0.841208 0.0363928
9255 1 0.414983 0.836252 0.0316399
9253 1 0.405696 0.846068 0.0379309
9468 1 0.43091 0.824026 0.0540713
2581 1 0.430772 0.826718 0.0560121
2582 2 0.430512 0.833567 0.0600881
14467 1 0.44443 0.842911 0.0350517
17117 2 0.449486 0.822762 0.0554483
891 1 0.44502 0.841482 0.0379328
890 2 0.446578 0.838738 0.0438327
17118 1 0.449125 0.8301 0.0511611
889 1 0.448971 0.832457 0.04928
11107 1 0.467021 0.845527 0.0568677
9411 1 0.466337 0.847274 0.0542335
6194 2 0.475655 0.823822 0.0586975
13525 1 0.497963 0.818648 0.0575535
21475 1 0.486041 0.835773 0.0346375
8859 1 0.484318 0.835403 0.0375064
16348 1 0.497511 0.822093 0.0574797
8858 2 0.479631 0.835208 0.0437882
8857 1 0.477629 0.830888 0.0489589
6193 1 0.476911 0.82908 0.0513164
16350 1 0.495408 0.83836 0.059158
17626 1 0.494498 0.841098 0.060324
11053 1 0.495854 0.841662 0.0466961
11054 2 0.49857 0.846953 0.0406964
11108 2 0.468783 0.842282 0.0631359
16349 2 0.495845 0.830441 0.0568598
10517 2 0.525826 0.818356 0.0566359
21269 2 0.509854 0.819638 0.0423533
21270 1 0.513197 0.82489 0.0457907
12715 1 0.514355 0.827623 0.0467987
12716 2 0.517304 0.834566 0.0486485
12717 1 0.51761 0.842809 0.049085
15919 1 0.517545 0.845752 0.0505065
19003 1 0.390206 0.854969 0.0320128
12400 1 0.392626 0.855058 0.0344446
12401 2 0.3993 0.853967 0.0389316
9410 2 0.465472 0.850998 0.0475308
7051 1 0.44392 0.860421 0.0612994
19923 1 0.446428 0.86121 0.0603726
19922 2 0.453538 0.863387 0.0581866
19921 1 0.460701 0.863917 0.0605296
11059 1 0.463481 0.864448 0.0614615
11055 1 0.498656 0.854568 0.0366572
8186 2 0.481438 0.861355 0.0472141
8185 1 0.487955 0.862867 0.0503756
9409 1 0.4726 0.854926 0.0460667
8187 1 0.474698 0.856304 0.0459125
8178 1 0.490261 0.863761 0.0515616
8177 2 0.496569 0.867813 0.0550087
8176 1 0.501811 0.874017 0.0549905
4580 2 0.509768 0.867842 0.0384329
4581 1 0.514902 0.86578 0.0433992
4579 1 0.507438 0.872847 0.0330645
15920 2 0.518278 0.852468 0.0541892
15921 1 0.521325 0.859758 0.0582953
18562 1 0.522434 0.862214 0.0595388
18563 2 0.525019 0.868993 0.0619573
3429 1 0.454231 0.891937 0.035803
19653 1 0.453033 0.893157 0.0382225
19652 3 0.450141 0.897032 0.0449574
19651 1 0.451939 0.90154 0.0513606
18666 1 0.452332 0.90329 0.0529764
18665 3 0.452612 0.909086 0.0579944
1710 1 0.477846 0.9302 0.0378848
1708 1 0.479864 0.919302 0.031858
1709 3 0.474495 0.925366 0.032438
20971 1 0.420648 0.665623 0.0723004
2113 1 0.430037 0.661145 0.0893411
20973 1 0.427876 0.662057 0.0863972
20972 2 0.423447 0.663834 0.0795183
2114 3 0.435322 0.659244 0.0944568
7064 2 0.454324 0.660575 0.0715916
486 1 0.444304 0.66056 0.0655884
7065 1 0.447091 0.660366 0.0671437
7063 1 0.461928 0.663131 0.0717497
20625 1 0.465099 0.664685 0.0715782
8390 2 0.46535 0.665825 0.0929503
1539 1 0.350604 0.69112 0.0784885
1538 3 0.355078 0.692821 0.0730842
13850 2 0.407884 0.688067 0.0632263
341 2 0.417149 0.669542 0.0633595
340 1 0.419561 0.666859 0.0700487
16165 1 0.41687 0.685558 0.0883354
16166 2 0.422131 0.684521 0.083285
16167 1 0.426332 0.68533 0.0775117
11310 1 0.428305 0.68534 0.0751854
11309 2 0.434117 0.686692 0.0697949
11308 1 0.434664 0.695089 0.0683591
14308 1 0.415001 0.685759 0.0903051
13031 2 0.459865 0.687084 0.063241
13030 1 0.466868 0.687593 0.0675007
21222 1 0.455076 0.693464 0.0899194
8391 1 0.463695 0.67327 0.0906065
4530 1 0.463105 0.676099 0.0899586
4528 1 0.456026 0.690739 0.0895423
4529 2 0.460404 0.683725 0.0879329
9334 1 0.470018 0.687853 0.0691398
20624 2 0.471235 0.668379 0.0701075
20623 1 0.476381 0.673821 0.0687293
6390 1 0.49733 0.679591 0.0688996
9335 2 0.476446 0.689439 0.0737765
9336 1 0.482328 0.694437 0.0717976
9570 1 0.484106 0.696277 0.0705544
15185 2 0.502953 0.6849 0.0770015
15184 1 0.499621 0.681046 0.0712267
15186 1 0.501426 0.690247 0.0821217
3043 1 0.500697 0.692388 0.0842428
1537 1 0.357409 0.697213 0.0661842
1455 1 0.358147 0.699451 0.0638959
17370 1 0.366468 0.710573 0.0745175
10796 3 0.358062 0.716256 0.0920906
10795 1 0.351001 0.713661 0.0896391
19640 3 0.385623 0.699341 0.0912085
3549 1 0.394204 0.702772 0.0845754
19641 1 0.391386 0.702066 0.0867834
3548 2 0.400512 0.704235 0.0800339
3547 1 0.405186 0.708591 0.0748974
17368 1 0.377103 0.718363 0.0783583
297 1 0.392396 0.724162 0.064706
4029 1 0.393653 0.7254 0.0672728
17369 2 0.37424 0.712469 0.0760963
16906 1 0.434932 0.714609 0.0659704
10036 1 0.434519 0.717899 0.0653289
16907 2 0.434686 0.706819 0.0673435
3169 1 0.407199 0.710662 0.0734997
3170 2 0.413515 0.713868 0.0688697
21203 2 0.433586 0.720128 0.0880468
16908 1 0.435038 0.698187 0.0680207
10037 2 0.43265 0.724554 0.06481
6054 1 0.427303 0.712213 0.0932373
21204 1 0.429134 0.71456 0.0918612
21202 1 0.43832 0.72263 0.0845961
13114 1 0.440983 0.724114 0.0836029
19961 2 0.456419 0.709885 0.0710384
19960 1 0.450439 0.712544 0.0770555
13115 2 0.447528 0.726599 0.0807583
21220 1 0.457946 0.706505 0.0888864
14127 1 0.460148 0.708682 0.0885808
21221 2 0.451942 0.701163 0.0901327
14126 2 0.465754 0.714388 0.0893236
3044 2 0.496227 0.697243 0.0877354
9569 2 0.489955 0.701423 0.0664749
5371 1 0.489403 0.72223 0.0791287
14125 1 0.473124 0.7175 0.0884935
15454 1 0.476035 0.718916 0.0880047
15456 1 0.487184 0.721922 0.081346
15455 2 0.483749 0.720927 0.0873756
5372 2 0.495805 0.72392 0.0747751
3045 1 0.491901 0.701102 0.0944732
16685 2 0.523808 0.698355 0.0712764
16686 1 0.520621 0.702746 0.0759088
310 1 0.519871 0.704567 0.0780238
311 2 0.51734 0.709077 0.0831013
312 1 0.513872 0.711765 0.0905557
16353 1 0.512481 0.712573 0.0928929
5373 1 0.501845 0.727013 0.0719856
14569 1 0.52359 0.715983 0.0642309
12195 1 0.372259 0.756419 0.0868891
18397 1 0.37348 0.753862 0.0882597
4028 2 0.396038 0.729847 0.0733141
1040 2 0.379352 0.753226 0.0676361
4027 1 0.395038 0.733126 0.0800513
1041 1 0.384824 0.753638 0.0722471
8065 1 0.387138 0.753841 0.0737151
8066 2 0.393447 0.753128 0.0775747
8067 1 0.399938 0.755048 0.0820283
7093 1 0.394621 0.734012 0.0827249
7095 1 0.38416 0.740702 0.0911079
7094 2 0.391528 0.73741 0.0900866
18399 1 0.381487 0.742291 0.0919118
18398 2 0.37578 0.747104 0.0923422
16857 1 0.402798 0.755686 0.0831276
19141 1 0.41519 0.733401 0.077619
3935 2 0.416195 0.740014 0.0691083
3934 1 0.415486 0.734953 0.0751648
19142 2 0.41428 0.72927 0.0843511
19143 1 0.415362 0.728082 0.0919433
9304 1 0.435345 0.735524 0.0657702
10038 1 0.434582 0.73232 0.0652273
5834 2 0.433627 0.740438 0.090217
5833 1 0.434351 0.736881 0.0820086
19663 1 0.455119 0.730201 0.0743334
13116 1 0.452766 0.729871 0.0761234
19664 2 0.462307 0.731734 0.0702167
9305 2 0.43683 0.74278 0.0677882
9306 1 0.44215 0.747327 0.063535
6358 1 0.448854 0.756644 0.0737492
2293 1 0.450881 0.754663 0.0745709
2294 2 0.455452 0.749046 0.0765119
8122 1 0.465843 0.746506 0.08067
2295 1 0.462795 0.747263 0.0796261
12174 1 0.472896 0.754198 0.0633663
6034 1 0.47522 0.755412 0.0645825
12869 2 0.479995 0.735368 0.063321
11824 1 0.494945 0.745648 0.070307
19665 1 0.469676 0.734547 0.0667608
12870 1 0.4727 0.734761 0.0658112
8123 2 0.473262 0.744522 0.0826499
8124 1 0.481843 0.744995 0.0829056
20571 1 0.485092 0.745421 0.0825781
20570 2 0.49367 0.745591 0.0809492
20569 1 0.494369 0.745409 0.0732609
9619 1 0.504084 0.72763 0.0700279
9620 2 0.510482 0.728908 0.0650915
3992 2 0.518824 0.74876 0.0677517
6676 1 0.515866 0.753945 0.0770353
3993 1 0.516711 0.753117 0.074325
6677 2 0.513109 0.755637 0.0840566
989 2 0.51097 0.734185 0.0885012
988 1 0.518864 0.735897 0.0903627
18678 1 0.52091 0.736781 0.0908417
990 1 0.504185 0.734449 0.0927826
4681 1 0.501437 0.734519 0.0943116
18677 2 0.527319 0.740091 0.0938105
2824 1 0.506183 0.75565 0.0933269
6678 1 0.507788 0.75569 0.090323
8282 3 0.357792 0.767697 0.0699146
8283 1 0.3628 0.765957 0.0754119
12193 1 0.364366 0.764914 0.0775509
12194 3 0.36856 0.762855 0.0844304
15748 1 0.394229 0.786967 0.0832318
10246 1 0.39264 0.78381 0.0832846
10247 2 0.389867 0.776586 0.0836985
10248 1 0.389853 0.770609 0.0904033
19497 1 0.38963 0.768748 0.0923999
16856 2 0.411026 0.758323 0.08533
16855 1 0.418906 0.760255 0.085276
21262 1 0.422095 0.760978 0.0858137
4926 1 0.408797 0.768729 0.0653434
15660 1 0.408442 0.76664 0.0636932
4925 2 0.409445 0.774616 0.0706139