ITEM: TIMESTEP
60000000
ITEM: NUMBER OF ENTRIES
1413
ITEM: BOX BOUNDS pp pp pp
0 50
0 50
0 50
ITEM: ENTRIES c_binfo[1] c_binfo[2] c_binfo[3] 
2 2381 2382 
2 13909 13910 
1 4410 11779 
2 11780 11781 
2 11779 11780 
2 4409 4410 
2 3880 3881 
1 3880 11661 
2 3881 3882 
1 9702 14098 
2 11659 11660 
1 11659 16065 
2 2083 2084 
1 2083 3882 
2 11660 11661 
2 11950 11951 
1 4551 11950 
2 11951 11952 
2 9700 9701 
1 9700 11952 
2 9701 9702 
2 4550 4551 
2 4549 4550 
1 4549 12241 
2 12242 12243 
2 12241 12242 
2 16531 16532 
1 16533 19179 
2 16532 16533 
2 1297 1298 
1 1297 14163 
1 594 6810 
2 3511 3512 
1 3511 16884 
2 3512 3513 
1 3513 17415 
2 16883 16884 
2 16882 16883 
2 15517 15518 
1 15517 16882 
3 6808 6809 
2 15518 15519 
1 1299 12243 
2 1298 1299 
3 6809 6810 
3 14099 14100 
3 14098 14099 
3 2813 2814 
2 13141 13142 
2 3079 3080 
1 3079 13141 
2 4838 4839 
2 4837 4838 
1 4837 12571 
1 627 4839 
2 12571 12572 
2 3080 3081 
2 626 627 
2 625 626 
1 625 11721 
2 14888 14889 
2 14887 14888 
1 11751 14887 
2 14932 14933 
2 14933 14934 
3 10288 10289 
1 10290 11319 
3 10289 10290 
2 20488 20489 
2 9355 9356 
2 9356 9357 
3 12956 12957 
3 12955 12956 
3 4996 4997 
1 4996 12955 
2 5653 5654 
1 4179 13143 
2 13142 13143 
2 4178 4179 
1 15090 18660 
2 5654 5655 
1 5655 14784 
2 4177 4178 
1 4177 4998 
3 4997 4998 
2 11720 11721 
2 15089 15090 
1 3081 6712 
2 6712 6713 
2 3316 3317 
1 3316 18310 
2 18310 18311 
2 6713 6714 
1 6714 20104 
2 8569 8570 
1 8569 15088 
2 15088 15089 
2 20104 20105 
2 20105 20106 
2 3317 3318 
2 11719 11720 
1 11719 14889 
1 3318 15463 
2 15463 15464 
2 15464 15465 
2 17147 17148 
2 11750 11751 
2 11749 11750 
1 8511 11749 
3 6263 6264 
3 6262 6263 
1 6262 11457 
2 12572 12573 
2 18311 18312 
2 13132 13133 
1 13132 18312 
2 13133 13134 
2 5254 5255 
1 5254 14934 
1 10359 12573 
1 14502 15465 
2 13328 13329 
2 4118 4119 
1 4119 13327 
2 13327 13328 
2 2383 2384 
1 2383 13329 
2 11317 11318 
1 11317 14500 
2 14500 14501 
2 11318 11319 
2 14501 14502 
2 8510 8511 
2 8509 8510 
1 8509 20611 
2 20611 20612 
2 20612 20613 
2 19628 19629 
2 21118 21119 
2 10663 10664 
1 10663 19629 
1 10665 21118 
2 10664 10665 
2 11456 11457 
2 11455 11456 
3 19451 19452 
3 19450 19451 
1 19450 21279 
2 19627 19628 
1 19452 19627 
2 4970 4971 
2 4969 4970 
1 4969 5256 
2 5255 5256 
1 4971 11290 
2 11290 11291 
2 2006 2007 
2 4117 4118 
1 4117 9649 
2 9649 9650 
2 4210 4211 
1 4210 9651 
2 2005 2006 
1 1869 2005 
2 1868 1869 
2 4211 4212 
1 2007 13189 
2 13805 13806 
2 1867 1868 
1 1867 3945 
2 3944 3945 
2 3943 3944 
1 1626 3943 
2 1625 1626 
3 5300 5301 
2 1630 1631 
1 1630 12532 
2 12532 12533 
2 12533 12534 
2 13190 13191 
1 10755 13191 
2 10754 10755 
2 19069 19070 
2 10753 10754 
1 10753 19069 
1 12816 20394 
2 12815 12816 
2 12814 12815 
2 13189 13190 
1 3486 12814 
2 20489 20490 
1 10659 20490 
2 10658 10659 
2 10657 10658 
2 3485 3486 
2 3484 3485 
1 3484 4212 
2 7325 7326 
2 2197 2198 
1 2197 10657 
2 1018 1019 
1 7326 17526 
2 1019 1020 
1 1020 13095 
3 13094 13095 
3 13093 13094 
2 2983 2984 
1 2983 13093 
3 5299 5300 
1 5299 20988 
2 20393 20394 
2 2198 2199 
1 2199 16143 
2 17525 17526 
2 17524 17525 
2 12553 12554 
1 12553 17524 
2 12554 12555 
1 6432 12555 
2 932 933 
2 931 932 
1 931 16591 
2 16793 16794 
2 1813 1814 
1 1813 18658 
2 1814 1815 
2 16792 16793 
1 759 16792 
2 758 759 
2 18658 18659 
2 757 758 
1 757 6871 
2 18659 18660 
2 6871 6872 
1 6873 17148 
2 6872 6873 
2 12647 12648 
2 12646 12647 
2 11762 11763 
1 11763 12646 
3 14402 14403 
3 14401 14402 
2 5740 5741 
1 5740 14401 
2 5741 5742 
1 5742 9504 
1 7815 15406 
2 15406 15407 
3 7814 7815 
3 7813 7814 
1 7813 18757 
3 18757 18758 
2 15407 15408 
2 1832 1833 
1 8571 11008 
2 11008 11009 
2 8570 8571 
2 11009 11010 
1 11010 19002 
2 17146 17147 
1 17146 21358 
2 21359 21360 
2 21358 21359 
2 2384 2385 
2 9931 9932 
1 9931 16899 
3 18758 18759 
2 9932 9933 
1 9933 18759 
2 7564 7565 
2 7565 7566 
2 10466 10467 
1 13134 18763 
2 18763 18764 
2 10465 10466 
1 10465 14296 
1 14298 20106 
2 14296 14297 
2 14297 14298 
2 6361 6362 
1 2385 6361 
2 6362 6363 
1 6363 10968 
2 21179 21180 
2 4495 4496 
1 4495 12856 
2 4496 4497 
1 4497 21180 
2 12856 12857 
1 11985 20613 
2 16898 16899 
2 16897 16898 
2 12857 12858 
1 12858 17421 
2 11351 11352 
2 11350 11351 
1 11350 21120 
2 11984 11985 
2 11983 11984 
1 11983 14731 
2 21119 21120 
2 8930 8931 
2 16690 16691 
2 16691 16692 
2 8929 8930 
1 8929 16690 
3 21278 21279 
3 21277 21278 
2 15703 15704 
1 15703 18765 
2 18764 18765 
2 14965 14966 
2 5189 5190 
2 11291 11292 
2 5188 5189 
1 5188 11292 
2 3724 3725 
1 3724 14967 
2 3725 3726 
1 5190 17656 
2 9650 9651 
2 5122 5123 
1 5122 14977 
2 21178 21179 
1 13806 21178 
2 5123 5124 
2 13804 13805 
2 7120 7121 
1 7120 13804 
2 12598 12599 
1 12598 14965 
2 14977 14978 
1 2886 5124 
2 7121 7122 
2 12599 12600 
2 14731 14732 
2 14732 14733 
2 2885 2886 
1 6933 14733 
2 6932 6933 
2 1631 1632 
2 12977 12978 
1 12978 16836 
1 1632 12976 
2 12976 12977 
1 8931 19692 
2 19691 19692 
2 19690 19691 
2 1771 1772 
1 1771 5860 
2 5860 5861 
2 5861 5862 
2 4097 4098 
1 4098 5862 
2 7324 7325 
2 940 941 
1 940 7324 
1 7122 12682 
2 941 942 
2 12682 12683 
2 12683 12684 
2 4096 4097 
1 942 4096 
1 1524 2884 
2 1522 1523 
1 1522 1609 
2 1609 1610 
2 1523 1524 
2 1624 1625 
1 1624 4909 
2 4909 4910 
2 2884 2885 
2 19291 19292 
1 4911 19291 
2 4910 4911 
2 2984 2985 
1 2985 6229 
2 6229 6230 
2 20987 20988 
2 19292 19293 
1 9915 20986 
2 20986 20987 
2 9914 9915 
2 9913 9914 
1 807 9913 
2 10747 10748 
1 10747 19293 
2 10748 10749 
2 20392 20393 
2 2185 2186 
1 2185 20392 
2 16142 16143 
2 16141 16142 
2 14353 14354 
1 14353 16141 
2 14354 14355 
2 4132 4133 
1 4132 14355 
2 1610 1611 
1 1611 7407 
2 7406 7407 
2 7405 7406 
2 6230 6231 
1 6231 20580 
2 20579 20580 
2 20578 20579 
2 6431 6432 
2 6430 6431 
1 6430 10471 
2 10471 10472 
2 10472 10473 
1 10473 10749 
3 13100 13101 
3 13099 13100 
2 16591 16592 
2 16592 16593 
1 933 7405 
1 13020 20578 
2 13018 13019 
1 13018 13099 
2 13019 13020 
2 3212 3213 
2 10238 10239 
2 10237 10238 
2 3211 3212 
1 3211 10237 
3 5234 5235 
3 5233 5234 
1 5233 10239 
3 15974 15975 
3 18215 18216 
3 1882 1883 
1 1882 18216 
3 1883 1884 
2 2630 2631 
1 2631 16794 
2 2629 2630 
1 2629 15984 
2 15983 15984 
2 15982 15983 
1 10560 15982 
2 10559 10560 
1 15975 20760 
2 20758 20759 
2 20759 20760 
1 2880 12648 
2 2879 2880 
2 9503 9504 
2 9502 9503 
1 9502 19053 
2 2878 2879 
1 2878 15721 
2 15721 15722 
2 11396 11397 
3 19052 19053 
3 19051 19052 
3 18214 18215 
1 18214 19051 
1 11397 12384 
3 12383 12384 
3 12382 12383 
1 1833 8215 
2 2728 2729 
1 2728 19000 
2 2729 2730 
2 8215 8216 
2 19001 19002 
2 19000 19001 
2 11761 11762 
1 11761 20356 
2 20356 20357 
2 20357 20358 
2 9317 9318 
2 9316 9317 
1 5691 9316 
2 5690 5691 
2 5689 5690 
1 5689 9535 
2 9535 9536 
2 9536 9537 
2 586 587 
1 586 20358 
2 587 588 
2 17420 17421 
1 9537 12901 
1 13836 17419 
2 17419 17420 
2 13835 13836 
2 13834 13835 
1 13834 15331 
2 15331 15332 
2 15722 15723 
1 15675 15723 
2 15332 15333 
3 13730 13731 
3 13729 13730 
1 13729 20337 
2 20336 20337 
2 20335 20336 
2 6226 6227 
1 6226 20335 
1 8217 9318 
2 8216 8217 
2 7930 7931 
1 7930 9579 
2 7931 7932 
1 7932 16749 
2 10967 10968 
2 10966 10967 
1 10966 16527 
2 14978 14979 
2 15803 15804 
2 15802 15803 
1 3948 15804 
1 14979 15802 
2 3947 3948 
2 12901 12902 
2 12902 12903 
2 8585 8586 
1 8586 12903 
2 8584 8585 
1 8584 11352 
2 9896 9897 
1 7386 13162 
2 12880 12881 
2 12881 12882 
2 7384 7385 
1 7384 12882 
2 7385 7386 
2 14086 14087 
2 14087 14088 
2 6227 6228 
1 6228 8436 
2 8435 8436 
2 8434 8435 
1 8434 10960 
2 16748 16749 
2 14966 14967 
2 11777 11778 
1 11778 17658 
2 17657 17658 
2 17656 17657 
2 16526 16527 
2 16525 16526 
1 16525 20919 
1 12600 15511 
2 15511 15512 
2 15512 15513 
1 15513 19722 
2 20918 20919 
2 19721 19722 
2 6931 6932 
1 6931 13263 
1 9897 19720 
2 19720 19721 
1 6051 17301 
2 16834 16835 
1 16834 17299 
2 17299 17300 
2 17300 17301 
2 16835 16836 
2 14590 14591 
1 14590 19690 
2 14591 14592 
2 4222 4223 
2 2897 2898 
2 2896 2897 
1 2898 4222 
2 13304 13305 
2 13303 13304 
1 13303 20373 
1 4134 12684 
2 4133 4134 
2 3436 3437 
1 3436 13305 
2 3437 3438 
1 3438 4594 
2 4594 4595 
2 4595 4596 
1 4596 5491 
2 5491 5492 
2 21131 21132 
2 21130 21131 
2 12743 12744 
2 13262 13263 
2 13261 13262 
1 13261 21181 
1 12744 14853 
2 21182 21183 
2 21181 21182 
2 1622 1623 
2 14852 14853 
2 14851 14852 
1 14851 21132 
2 1621 1622 
1 1621 11565 
1 1623 18066 
2 12742 12743 
1 12742 14592 
2 4309 4310 
1 4309 18064 
2 4310 4311 
2 806 807 
2 805 806 
1 805 4225 
3 4225 4226 
2 13855 13856 
2 6787 6788 
1 6787 13855 
2 2416 2417 
1 2416 2896 
2 2417 2418 
1 2418 17652 
2 5431 5432 
1 5431 17650 
2 17651 17652 
2 17650 17651 
2 6788 6789 
2 5432 5433 
2 5492 5493 
1 5493 7204 
2 7204 7205 
2 7205 7206 
2 19289 19290 
1 7206 11797 
2 11797 11798 
1 4176 19288 
2 19288 19289 
2 4175 4176 
2 950 951 
2 11563 11564 
1 11563 19290 
1 9093 21183 
2 9092 9093 
2 9091 9092 
1 4422 9091 
2 4421 4422 
2 11564 11565 
3 4226 4227 
2 949 950 
1 949 11799 
2 11798 11799 
2 4174 4175 
1 4174 6811 
2 4420 4421 
1 57 4420 
2 56 57 
2 55 56 
3 6811 6812 
3 15973 15974 
2 14810 14811 
2 12659 12660 
2 12658 12659 
2 10558 10559 
1 10558 20784 
1 17097 20782 
2 20783 20784 
1 6378 12658 
2 20782 20783 
2 21052 21053 
1 7203 14811 
2 21053 21054 
2 9838 9839 
2 7201 7202 
1 7201 9838 
2 7202 7203 
1 9084 21054 
2 9083 9084 
2 9082 9083 
1 9082 11395 
2 11395 11396 
2 17096 17097 
1 2730 9840 
2 17095 17096 
1 17095 19231 
2 19085 19086 
2 13967 13968 
1 13968 19086 
2 19084 19085 
2 19231 19232 
2 9839 9840 
1 588 18933 
2 20942 20943 
2 20941 20942 
2 18932 18933 
2 18931 18932 
1 18931 19858 
2 19858 19859 
2 15800 15801 
2 15674 15675 
2 15673 15674 
1 15673 15801 
2 5914 5915 
1 5914 15333 
2 878 879 
2 5915 5916 
1 879 5916 
2 20161 20162 
2 13966 13967 
2 12562 12563 
1 12562 20161 
2 9578 9579 
2 9577 9578 
1 9577 13966 
2 4018 4019 
1 4018 10266 
2 2285 2286 
1 2286 9199 
2 4019 4020 
2 6515 6516 
2 15799 15800 
1 15799 18088 
2 18088 18089 
2 2284 2285 
1 2284 20943 
2 3946 3947 
1 3946 20941 
1 6507 6514 
2 6514 6515 
2 18089 18090 
2 1810 1811 
1 1810 18090 
2 1811 1812 
2 9895 9896 
2 2059 2060 
1 2059 9895 
2 2060 2061 
1 2061 18178 
2 18178 18179 
2 18179 18180 
2 13162 13163 
2 13163 13164 
2 20134 20135 
3 10960 10961 
3 10961 10962 
2 4562 4563 
2 3017 3018 
2 11776 11777 
2 20251 20252 
1 1719 20251 
2 1718 1719 
2 3016 3017 
1 3016 11776 
2 2341 2342 
2 6506 6507 
1 1812 4675 
2 20252 20253 
2 6505 6506 
2 20917 20918 
1 20253 20917 
2 5083 5084 
1 5083 6505 
2 2342 2343 
2 5084 5085 
1 5085 12808 
2 12808 12809 
2 6049 6050 
1 6049 6760 
2 6760 6761 
2 6761 6762 
1 6762 20134 
2 6050 6051 
2 15100 15101 
1 15100 19371 
1 14088 15856 
2 15856 15857 
2 19424 19425 
1 13164 19425 
2 15857 15858 
1 5331 15858 
2 5330 5331 
2 5329 5330 
1 5329 19369 
2 19369 19370 
2 19423 19424 
2 14455 14456 
1 14455 19423 
2 1717 1718 
1 1717 3204 
2 6023 6024 
2 20372 20373 
2 20371 20372 
2 18526 18527 
2 6664 6665 
1 6664 18526 
2 6665 6666 
1 6024 20371 
2 18527 18528 
1 3312 21130 
2 3311 3312 
2 3310 3311 
1 3310 3349 
2 3349 3350 
2 11353 11354 
1 11353 12472 
2 3350 3351 
1 5433 18528 
2 12809 12810 
2 19370 19371 
2 12472 12473 
1 12474 12810 
2 12473 12474 
2 21170 21171 
2 21169 21170 
2 18065 18066 
2 18064 18065 
2 1255 1256 
1 1255 21171 
2 6022 6023 
1 6789 13240 
2 13241 13242 
2 13240 13241 
1 1095 6022 
2 6583 6584 
2 11354 11355 
1 951 17629 
1 11355 17631 
2 17629 17630 
2 17630 17631 
2 8923 8924 
1 8923 21033 
2 21032 21033 
2 8924 8925 
1 8925 21169 
2 6584 6585 
2 10331 10332 
2 10330 10331 
1 6813 21031 
2 21031 21032 
3 6812 6813 
2 20726 20727 
2 2140 2141 
1 2140 20725 
2 2141 2142 
2 20725 20726 
1 2142 14809 
2 14809 14810 
1 9816 20727 
2 4406 4407 
2 6377 6378 
2 6376 6377 
2 4405 4406 
1 4405 6376 
1 432 9783 
2 431 432 
2 2380 2381 
1 2380 5553 
3 10217 10218 
2 430 431 
1 430 10218 
3 10216 10217 
1 10216 13939 
2 13939 13940 
2 13940 13941 
2 4705 4706 
1 4705 13941 
2 19232 19233 
2 5552 5553 
2 13910 13911 
2 9782 9783 
2 9781 9782 
1 9781 19084 
2 7739 7740 
2 7738 7739 
1 7738 7888 
2 7888 7889 
1 7740 13911 
1 4608 11781 
2 5551 5552 
1 5551 6586 
2 4607 4608 
2 19859 19860 
1 6588 19860 
2 7889 7890 
2 6587 6588 
2 6586 6587 
2 6536 6537 
1 4707 6535 
2 6535 6536 
2 4706 4707 
2 19177 19178 
2 877 878 
1 877 15058 
2 15058 15059 
2 15059 15060 
1 15060 19177 
2 19178 19179 
2 4408 4409 
1 4408 5494 
2 18787 18788 
2 9199 9200 
2 9200 9201 
2 5494 5495 
2 12563 12564 
1 9201 11256 
1 5496 12564 
2 5495 5496 
2 2084 2085 
1 5169 7890 
2 5168 5169 
2 5167 5168 
1 5167 11922 
2 11921 11922 
2 4606 4607 
1 4606 9910 
2 9910 9911 
2 9911 9912 
2 11920 11921 
1 11920 20136 
1 9912 18180 
1 5487 16531 
2 20135 20136 
2 5486 5487 
2 10097 10098 
2 5485 5486 
1 5485 10098 
2 14162 14163 
3 9613 9614 
1 9613 14161 
2 14161 14162 
1 9615 16824 
3 9614 9615 
2 971 972 
2 593 594 
2 18788 18789 
2 17314 17315 
1 4563 11254 
2 11254 11255 
2 11255 11256 
2 17315 17316 
1 17316 18789 
1 2085 3906 
2 592 593 
1 592 17314 
1 2343 3904 
2 3904 3905 
2 3905 3906 
2 4675 4676 
2 4676 4677 
1 4677 9813 
2 9812 9813 
1 11949 15519 
2 11947 11948 
2 11948 11949 
2 7595 7596 
2 7594 7595 
1 7594 10096 
2 10096 10097 
2 15101 15102 
2 14456 14457 
1 2373 14457 
2 5443 5444 
2 5444 5445 
3 2372 2373 
2 16822 16823 
2 16823 16824 
2 970 971 
1 970 6666 
2 20185 20186 
1 8139 20185 
2 8138 8139 
2 1675 1676 
1 1675 8137 
2 8137 8138 
2 1676 1677 
2 9811 9812 
1 1224 1677 
2 1222 1223 
1 1222 3351 
2 1223 1224 
1 10311 11947 
2 10310 10311 
2 10309 10310 
1 12924 15102 
1 4380 10309 
2 12922 12923 
1 1017 12922 
2 12923 12924 
2 1256 1257 
2 4378 4379 
2 4379 4380 
1 1257 12804 
3 12802 12803 
1 12802 18891 
3 12803 12804 
3 18889 18890 
3 2371 2372 
1 2371 18889 
3 18890 18891 
2 1094 1095 
2 1093 1094 
1 1093 1515 
2 1514 1515 
2 1015 1016 
1 1015 1374 
2 1372 1373 
1 1372 1513 
2 1513 1514 
2 1373 1374 
2 1016 1017 
3 9815 9816 
2 17876 17877 
1 17877 18820 
2 18820 18821 
2 18821 18822 
2 1336 1337 
1 1336 18822 
2 1337 1338 
1 1338 13909 
1 4722 20775 
2 4721 4722 
2 4720 4721 
1 4720 16176 
2 16175 16176 
2 16064 16065 
2 11132 11133 
2 11131 11132 
1 9999 11131 
2 17972 17973 
1 17973 21582 
2 21581 21582 
2 21580 21581 
2 17414 17415 
2 17413 17414 
1 17413 21580 
1 6783 17971 
2 6782 6783 
2 17971 17972 
1 12348 16063 
3 12347 12348 
2 16063 16064 
3 12346 12347 
2 20774 20775 
2 20773 20774 
1 2814 20773 
3 2812 2813 
2 6781 6782 
1 975 6781 
3 974 975 
3 973 974 
3 21445 21446 
1 13440 21447 
3 21446 21447 
2 17459 17460 
2 17458 17459 
2 5854 5855 
2 5855 5856 
3 11129 11130 
3 13438 13439 
3 5077 5078 
1 5077 13438 
3 11128 11129 
3 1177 1178 
1 1177 5079 
3 1178 1179 
1 1179 11128 
3 5078 5079 
1 11130 18655 
2 14783 14784 
3 18655 18656 
3 18656 18657 
1 10623 18657 
1 14346 14782 
2 14782 14783 
3 13439 13440 
2 10622 10623 
2 14521 14522 
2 10621 10622 
1 10621 14521 
1 747 14523 
2 14522 14523 
2 14384 14385 
2 10358 10359 
1 7869 10357 
2 10357 10358 
2 7868 7869 
1 4659 17458 
2 16249 16250 
2 16250 16251 
2 14383 14384 
1 14383 16249 
2 745 746 
1 745 16251 
2 7867 7868 
2 4249 4250 
1 4249 7867 
2 5591 5592 
1 5592 14175 
2 14174 14175 
2 14173 14174 
1 14173 14385 
2 5675 5676 
2 4658 4659 
1 5676 19071 
2 4657 4658 
1 4657 5674 
2 5674 5675 
1 5856 9735 
2 20576 20577 
2 5590 5591 
1 5590 11773 
3 11773 11774 
3 11774 11775 
2 4048 4049 
1 4048 17475 
2 19070 19071 
2 9733 9734 
1 9733 20577 
2 9734 9735 
2 17473 17474 
2 17474 17475 
3 6067 6068 
1 6067 17473 
3 6068 6069 
3 6785 6786 
3 6784 6785 
1 6784 20541 
2 20540 20541 
2 20539 20540 
1 16938 20539 
2 14345 14346 
2 3677 3678 
1 1815 3678 
2 6335 6336 
2 14344 14345 
1 14344 21280 
2 21280 21281 
2 21281 21282 
2 1831 1832 
1 1831 21282 
1 12633 13249 
2 13249 13250 
2 13250 13251 
2 2434 2435 
1 2434 10467 
2 746 747 
2 1277 1278 
1 1278 12631 
2 1276 1277 
1 1276 11115 
2 12632 12633 
2 12631 12632 
2 2435 2436 
1 2436 4251 
2 15704 15705 
1 6930 15705 
2 6929 6930 
2 4250 4251 
2 20575 20576 
2 11542 11543 
2 11543 11544 
1 11544 20575 
1 3246 11542 
2 4049 4050 
2 1772 1773 
2 6928 6929 
1 6928 9382 
2 2186 2187 
3 5033 5034 
1 2187 5032 
3 5032 5033 
3 14788 14789 
1 5034 14788 
3 5413 5414 
1 5424 16312 
2 16313 16314 
2 16312 16313 
1 5415 13224 
2 13223 13224 
3 5414 5415 
1 3213 14799 
2 5422 5423 
1 5422 19390 
2 5423 5424 
2 2786 2787 
1 2787 3676 
2 3676 3677 
2 14798 14799 
2 5468 5469 
2 5467 5468 
1 5467 16491 
2 16490 16491 
2 16489 16490 
1 3357 16489 
2 12601 12602 
2 12602 12603 
2 2785 2786 
1 2785 5469 
2 16937 16938 
2 16936 16937 
1 16936 17362 
2 17362 17363 
1 17364 19551 
2 17363 17364 
2 6334 6335 
1 6334 18403 
2 18403 18404 
2 15812 15813 
2 18404 18405 
2 16636 16637 
2 16637 16638 
2 19549 19550 
2 19550 19551 
1 16638 19549 
2 11933 11934 
2 11932 11933 
1 11932 12603 
1 11934 15811 
2 15811 15812 
2 20863 20864 
1 15813 20863 
2 20864 20865 
1 18405 20560 
2 20560 20561 
2 20561 20562 
2 5221 5222 
1 5221 13251 
2 17623 17624 
1 17623 20865 
2 17624 17625 
2 11114 11115 
2 11113 11114 
2 8500 8501 
1 8500 11113 
2 8501 8502 
2 1012 1013 
1 1012 17625 
2 5222 5223 
1 5223 10383 
2 6902 6903 
2 10382 10383 
1 282 6903 
2 6901 6902 
1 6901 8502 
2 3244 3245 
1 3244 16747 
2 16747 16748 
2 3245 3246 
2 10381 10382 
2 17914 17915 
2 4223 4224 
2 13856 13857 
1 9384 10381 
2 1796 1797 
2 9382 9383 
2 9383 9384 
2 17915 17916 
1 13857 17916 
2 1795 1796 
1 1795 4224 
3 14789 14790 
2 13222 13223 
1 7338 13222 
3 7337 7338 
3 1427 1428 
3 19391 19392 
3 19390 19391 
3 7336 7337 
1 7336 19074 
3 19073 19074 
3 19072 19073 
3 12547 12548 
1 12547 19072 
3 12548 12549 
1 12549 18906 
2 18905 18906 
2 15638 15639 
2 14797 14798 
2 11101 11102 
1 11101 14797 
2 11102 11103 
2 15637 15638 
1 11103 15637 
2 1061 1062 
1 15639 18729 
2 1060 1061 
1 1060 10620 
1 1062 13453 
2 13453 13454 
2 13454 13455 
2 18728 18729 
2 3520 3521 
1 3520 18594 
2 18904 18905 
2 11791 11792 
1 11791 18904 
2 3521 3522 
2 11792 11793 
1 11793 20058 
2 3355 3356 
2 3356 3357 
2 12298 12299 
1 12298 18727 
2 12299 12300 
1 13455 17062 
2 17063 17064 
2 17062 17063 
1 3522 12300 
1 17064 20163 
2 18727 18728 
2 331 332 
1 331 18189 
2 332 333 
3 18188 18189 
3 16204 16205 
1 16204 18187 
3 18187 18188 
2 14212 14213 
1 14212 20562 
2 18593 18594 
2 18592 18593 
1 333 18592 
2 14213 14214 
1 8898 14214 
2 16991 16992 
2 20056 20057 
2 16990 16991 
1 16990 20056 
2 10265 10266 
2 20162 20163 
2 1013 1014 
2 14923 14924 
1 14923 18384 
2 14924 14925 
3 16205 16206 
2 280 281 
1 280 6508 
2 281 282 
2 8897 8898 
1 1014 3018 
2 18383 18384 
2 18382 18383 
2 16885 16886 
1 16885 18382 
2 16886 16887 
1 1797 16887 
3 6508 6509 
3 6509 6510 
2 3203 3204 
2 3202 3203 
1 3202 16737 
3 13823 13824 
2 10618 10619 
1 10618 15685 
2 15685 15686 
2 15686 15687 
3 1426 1427 
1 1426 15687 
2 10619 10620 
3 9814 9815 
1 9814 13824 
3 13822 13823 
1 13822 14052 
2 14051 14052 
2 2093 2094 
2 14050 14051 
2 2092 2093 
1 2092 14050 
1 2094 14916 
1 4407 10206 
2 10205 10206 
2 14915 14916 
2 14914 14915 
1 13119 14914 
2 20057 20058 
2 13118 13119 
2 13117 13118 
1 16563 19233 
2 10204 10205 
2 9998 9999 
2 9997 9998 
1 9997 16561 
2 16562 16563 
2 16561 16562 
2 4546 4547 
1 4546 13117 
2 6734 6735 
2 8896 8897 
2 17875 17876 
1 17875 20430 
2 20428 20429 
1 11928 20428 
2 11927 11928 
2 20429 20430 
2 6733 6734 
1 6733 16992 
1 11133 18787 
2 7967 7968 
2 10264 10265 
1 7968 10264 
2 4547 4548 
1 4548 14925 
2 7966 7967 
1 7966 11382 
2 11381 11382 
2 11380 11381 
1 11380 16174 
2 16174 16175 
2 11926 11927 
1 11926 13971 
2 13970 13971 
2 13969 13970 
1 7758 13969 
2 7756 7757 
2 4561 4562 
1 4561 7756 
2 7757 7758 
2 20186 20187 
2 16735 16736 
2 16736 16737 
2 8303 8304 
2 8302 8303 
1 8302 20187 
