LAMMPS data file via write_data, version 5 Jun 2019, timestep = 120000000

1887 atoms
3 atom types
1836 bonds
3 bond types
1785 angles
3 angle types

0.0000000000000000e+00 5.0000000000000000e+01 xlo xhi
0.0000000000000000e+00 5.0000000000000000e+01 ylo yhi
0.0000000000000000e+00 5.0000000000000000e+01 zlo zhi

Masses

1 0.25
2 0.5
3 0.5

Bond Coeffs # harmonic

1 6000 0.15
2 2000 0.4
3 2000 0.4

Angle Coeffs # harmonic

1 100 180
2 5 180
3 5 180

Atoms # angle

938 2 2 2.4560404405264006e+01 1.2044430188628509e+01 1.3452238823286622e+00
939 1 1 2.4850421391990480e+01 1.1752298976500878e+01 1.1694324542647279e+00
13833 1 1 2.4952129787544219e+01 1.1644598096017548e+01 1.0984314399890382e+00
13832 3 3 2.5278648321633074e+01 1.1413536280868691e+01 8.9803129490748446e-01
13831 1 1 2.5358762371165291e+01 1.1421811464440220e+01 4.6834765052483457e-01
13699 1 1 2.5362535767540788e+01 1.1435307507712308e+01 3.1988988803294710e-01
937 1 1 2.4324566464243119e+01 1.2373389517220682e+01 1.5289202840731253e+00
6099 1 1 4.6968685400040151e+01 2.4564974389614843e+01 2.3050170157732186e+00
6098 3 3 4.6592901333710010e+01 2.4753100688521048e+01 2.4071025212925208e+00
6097 1 1 4.6281937408476864e+01 2.4897320389535434e+01 2.1912620233345641e+00
13569 1 1 1.0686995675782818e+01 1.9699189886927055e+01 4.3950591722112300e+00
16209 1 1 4.6749436464632367e+01 5.9907688445201073e+00 5.5668509775719386e+00
8199 1 1 4.7584476010580723e+01 5.5517066358580562e+00 5.6976128113962021e+00
8198 2 2 4.7931668398565698e+01 5.4247616305602087e+00 5.8238615976934112e+00
8197 1 1 4.8041767526994924e+01 5.3101137656660340e+00 6.1856233460989376e+00
16207 1 1 4.7466769133073861e+01 5.6146547749166249e+00 5.6432578998820047e+00
16208 2 2 4.7149300673193196e+01 5.7835485991378217e+00 5.4618954608311654e+00
13568 2 2 1.0400389494116771e+01 1.9608900161666796e+01 4.6877829552991797e+00
13567 1 1 1.0144665526786795e+01 1.9818867002255324e+01 4.9483609486219011e+00
8772 1 1 4.8103131086051739e+01 5.2565154989968121e+00 6.3279267446065619e+00
8771 3 3 4.8195881600131422e+01 5.2163536755544522e+00 6.6558788527450128e+00
8770 1 1 4.8451761283355935e+01 5.3312257732576747e+00 6.9817001715844036e+00
9565 1 1 4.9077877826553603e+01 5.7368800783515592e+00 7.5213392872680451e+00
9566 2 2 4.8864360779565168e+01 5.4629240032356865e+00 7.3478244653810405e+00
9567 1 1 4.8565079120240789e+01 5.3716373320675492e+00 7.0972012586930262e+00
4289 2 2 4.6211723018232433e+01 1.2936149649807572e-02 1.0789972254689479e+01
4288 1 1 4.6205253008650580e+01 4.3072791394555782e-01 1.0957960284228609e+01
4577 2 2 3.4729948723739057e+01 3.5507409973779801e+01 2.4037367129118081e-02
4576 1 1 3.4788812275817094e+01 3.5661244015414702e+01 3.6507094530848783e-01
8169 1 1 2.1813505746642527e+01 3.4139808198284378e+01 7.5450517101927943e+00
8168 2 2 2.1683345801319668e+01 3.4001772092905938e+01 7.9427696097602105e+00
8167 1 1 2.1739767345289586e+01 3.4155841647797416e+01 8.2905201335576422e+00
4290 1 1 4.6074894248461135e+01 4.9705644801690674e+01 1.0683928611152444e+01
15789 1 1 5.5343791604090828e+00 4.3570882859319802e+01 2.1613175176775336e+01
10953 1 1 2.9622974935829202e+01 3.2690139246035287e+01 2.1949275197335535e+01
10790 2 2 3.0087732568986279e+01 3.3336685428594969e+01 2.2930756871273907e+01
10952 2 2 2.9893270787411439e+01 3.2861318133635692e+01 2.2181552303220545e+01
10951 1 1 2.9899816942045760e+01 3.3092137011423041e+01 2.2536223130447503e+01
10791 1 1 2.9934474903917355e+01 3.3168176457463254e+01 2.2668238916459782e+01
18489 1 1 3.1515825640923270e+00 3.8751177036881110e+01 2.1873356988935654e+01
1962 1 1 4.1522849125900283e+00 3.8723283444240110e+01 2.2749146610251216e+01
1961 3 3 4.4462316643322151e+00 3.8452464820266087e+01 2.2845114668061854e+01
11940 1 1 4.0467719367933546e+00 3.8831908931729842e+01 2.2744929496301211e+01
15885 1 1 4.8313888898016293e+00 3.8263001217995864e+01 2.2539068656919675e+01
1960 1 1 4.7139335382390710e+00 3.8309176870913447e+01 2.2603242920912898e+01
15884 2 2 5.1450402039541379e+00 3.8110114416967114e+01 2.2329632452596094e+01
15883 1 1 5.3287936629049382e+00 3.8394909384566070e+01 2.2051800663537104e+01
18488 3 3 2.8954384089309912e+00 3.9088149315638475e+01 2.1876255165690619e+01
18487 1 1 2.7381838514702439e+00 3.8923867081782319e+01 2.2297470545185476e+01
13770 1 1 2.7088831636753778e+00 3.8903907101814610e+01 2.2442344684922013e+01
13769 3 3 2.6997642102597643e+00 3.8946342725817800e+01 2.2829079788523867e+01
13768 1 1 2.7635052480449458e+00 3.8901279405785857e+01 2.3226351444956162e+01
11939 3 3 3.7288864633967460e+00 3.9113122759771343e+01 2.2790447346870398e+01
11938 1 1 3.5545382579113896e+00 3.9338770439563568e+01 2.3057181369694828e+01
1651 1 1 3.4787521902750211e+00 3.9436301241037818e+01 2.3150597544101593e+01
19853 3 3 5.5089703989620116e+00 3.9123696833612620e+01 2.2919792132923195e+01
19852 1 1 5.7165031626582898e+00 3.9420795165366826e+01 2.2724254558677195e+01
2893 1 1 5.7975933832781541e+00 3.9510592519736754e+01 2.2658855549891225e+01
2894 3 3 6.0555920413039654e+00 3.9748333721716733e+01 2.2494810197795275e+01
2895 1 1 6.2399808011743305e+00 4.0042496423215603e+01 2.2560132383145170e+01
9225 1 1 6.3165415926975976e+00 4.0177458200401297e+01 2.2573005454676981e+01
9224 3 3 6.5132997718424290e+00 4.0556051774248218e+01 2.2551375822167426e+01
9223 1 1 6.6251816554857550e+00 4.0772830231731071e+01 2.2858618799017044e+01
6615 1 1 6.6720649222580084e+00 4.0867633247704262e+01 2.3009325419273960e+01
12336 1 1 2.9123992648416976e+00 4.2245218172714750e+01 2.3135813042507895e+01
1534 1 1 2.7966656623511561e+00 4.2219497251023064e+01 2.3223540708839693e+01
12335 3 3 3.2194977497452828e+00 4.2275202197584754e+01 2.2928083370107863e+01
12334 1 1 3.6006123745127718e+00 4.2407771064112254e+01 2.2807837599309089e+01
17988 1 1 3.7494870818342081e+00 4.2438058075728769e+01 2.2803065942115683e+01
17987 3 3 4.1245900790138688e+00 4.2416544953810494e+01 2.2805881782316927e+01
17986 1 1 4.5326915427034402e+00 4.2262314897050977e+01 2.2823075880691892e+01
15788 2 2 5.8474953938295560e+00 4.3433708757909784e+01 2.1910303264873349e+01
11641 1 1 4.6913300621944769e+00 4.2204758380992338e+01 2.2853708654558126e+01
1137 1 1 5.6092561153164722e+00 4.3252919211140998e+01 2.3015691955633187e+01
12616 1 1 5.4974118443465692e+00 4.3299523453126476e+01 2.3128332833717636e+01
11642 3 3 5.0740064156846074e+00 4.2075988081154918e+01 2.3062480808502549e+01
15787 1 1 5.8595242030467505e+00 4.3248420152456177e+01 2.2242727679850674e+01
1135 1 1 5.8624018980130765e+00 4.3201177249488552e+01 2.2385368481740755e+01
1136 3 3 5.8845610241677679e+00 4.3099291192332359e+01 2.2780154682285342e+01
16968 1 1 4.7769248150163342e+01 3.1808718180061508e+01 2.4626857428680527e+01
15096 1 1 4.7872265890886297e+01 3.1712573019720910e+01 2.4672270759798430e+01
16967 2 2 4.7454563404750957e+01 3.2056832434221370e+01 2.4565742084366210e+01
16966 1 1 4.7230478280763016e+01 3.2382941381587827e+01 2.4535005657458136e+01
10789 1 1 3.0219391459142919e+01 3.3487635826333381e+01 2.3246966176574716e+01
14327 3 3 4.6858335320848752e+01 3.2778257290444898e+01 2.4451093537978206e+01
14326 1 1 4.6542651946251453e+01 3.2841739286000433e+01 2.4533836074159602e+01
1131 1 1 4.6364967901950713e+01 3.2868348414459525e+01 2.4558351878558565e+01
1130 3 3 4.5985414395162188e+01 3.2899206510289851e+01 2.4661065046546813e+01
14328 1 1 4.7122906352211686e+01 3.2488908015029132e+01 2.4502831102922688e+01
8037 1 1 4.9899579776307874e+01 3.5174805142670216e+01 2.4764362752579466e+01
8036 2 2 4.9884992736749169e+01 3.5520248137937322e+01 2.4598732431399128e+01
2863 1 1 4.9654246395611040e+01 3.6562260442402533e+01 2.4322311985336096e+01
15624 1 1 4.9576338238306974e+01 3.6663573760942654e+01 2.4399965830873064e+01
2864 2 2 4.9911560604622231e+01 3.6310594141821504e+01 2.4153789063624576e+01
2865 1 1 4.9942678985085017e+01 3.5969468746265704e+01 2.4320521878729853e+01
15622 1 1 4.8935908495994255e+01 3.7075762543007876e+01 2.4638733491588692e+01
15623 3 3 4.9330968071695835e+01 3.6931503950402814e+01 2.4605079361122758e+01
8035 1 1 4.9946837199182269e+01 3.5836585946658460e+01 2.4378804494300915e+01
15081 1 1 3.0073663470886229e+00 3.8625440133865851e+01 2.4117300130832188e+01
15080 3 3 2.7955483901481144e+00 3.8701499545382831e+01 2.3751892573298253e+01
3000 1 1 3.1128072978097578e+00 3.8595385111725790e+01 2.4265671921589998e+01
2999 3 3 3.3224666465612089e+00 3.8565047797634072e+01 2.4546650601467032e+01
19717 1 1 1.5724562946163809e+00 4.0109449963699852e+01 2.4741487457652195e+01
15079 1 1 2.7756588945460554e+00 3.8863908214116414e+01 2.3366692759535635e+01
1653 1 1 2.9812321635446848e+00 3.9740338429500326e+01 2.3637283205785174e+01
19718 3 3 1.8164891298108767e+00 4.0123549498663614e+01 2.4406692508496249e+01
19719 1 1 2.1705708899101159e+00 4.0090192769824320e+01 2.4295623057670600e+01
8055 1 1 2.2773838397011890e+00 4.0055758594750003e+01 2.4252012057191980e+01
8054 3 3 2.6177948603157990e+00 3.9962628712605124e+01 2.3999975416426050e+01
8053 1 1 2.8995298597687018e+00 3.9774453376345974e+01 2.3727389556698554e+01
1652 3 3 3.2850929991134219e+00 3.9658040808038919e+01 2.3397852937315932e+01
15671 3 3 5.5029062091590690e+00 3.8923851014012918e+01 2.3781693719076682e+01
6737 3 3 4.9982804765836004e+00 3.9373185074318265e+01 2.4497430660340424e+01
15670 1 1 5.3145314303903533e+00 3.9104603005296177e+01 2.4090411077433782e+01
6736 1 1 5.2278382425458618e+00 3.9190120145893090e+01 2.4206593576751271e+01
19854 1 1 5.5069333772267219e+00 3.9023944857141728e+01 2.3258660504593614e+01
15672 1 1 5.5213001553270251e+00 3.9015505827487637e+01 2.3422422967942332e+01
4446 1 1 5.5814312940400468e+00 4.0170089770203283e+01 2.3706335622579576e+01
4445 3 3 5.8862903965345890e+00 3.9968893665995715e+01 2.3725524551788212e+01
6738 1 1 4.9609847713271984e+00 3.9684615725079233e+01 2.4715548534761076e+01
20034 1 1 5.4573136357818344e+00 4.0271981777227808e+01 2.3734581371908206e+01
3813 1 1 6.2558999359739147e+00 3.9609059755775625e+01 2.3792671714777185e+01
4444 1 1 6.1657874795315353e+00 3.9692990541627395e+01 2.3755004682068872e+01
3812 3 3 6.4869519233200643e+00 3.9362768117600645e+01 2.3991658448152084e+01
3811 1 1 6.7216976083732876e+00 3.9198581411722898e+01 2.4236108292408051e+01
14545 1 1 6.8057369886598931e+00 3.9127896592578367e+01 2.4331279259742608e+01
14546 3 3 7.0561937513979727e+00 3.8933456255587963e+01 2.4604991777669888e+01
15482 3 3 1.1245086560295801e+00 4.1955561254604710e+01 2.4744478371184670e+01
19038 1 1 3.0887948786741188e+00 4.1914798109645382e+01 2.4514288293370793e+01
20763 1 1 3.2044598103039976e+00 4.1826943591025234e+01 2.4511459056286071e+01
1964 3 3 4.0226396755837772e+00 4.1893236959551686e+01 2.3686269501898497e+01
1963 1 1 4.3171678681129171e+00 4.1653261138974877e+01 2.3884009065839731e+01
11223 1 1 4.4294800069682232e+00 4.1573971107309852e+01 2.3907079401843767e+01
16587 1 1 4.0810471516131832e+00 4.1760356185667931e+01 2.4592460971589194e+01
20761 1 1 3.9509728003740485e+00 4.1701846968478016e+01 2.4582045217731999e+01
20762 3 3 3.5321689666713674e+00 4.1622278300671084e+01 2.4517078001288745e+01
16586 3 3 4.4737570810669389e+00 4.1963665210359650e+01 2.4580006446796020e+01
11222 3 3 4.7116772244680680e+00 4.1287160262938237e+01 2.3924100909406548e+01
20033 3 3 5.1931941055109272e+00 4.0499902331114569e+01 2.3847368752647981e+01
20032 1 1 5.0062227121748704e+00 4.0874184712061790e+01 2.3882612655079242e+01
11221 1 1 4.9254197966322701e+00 4.0996562250179579e+01 2.3884740162300332e+01
6614 3 3 6.7417927702142437e+00 4.1075266939392456e+01 2.3345323014787756e+01
6613 1 1 6.9614523059413260e+00 4.1254916963292452e+01 2.3657319503706081e+01
19341 1 1 7.0319101699402635e+00 4.1329040446843869e+01 2.3758422574821182e+01
19340 3 3 7.2138159694120541e+00 4.1559635281818700e+01 2.4020675581173119e+01
19339 1 1 7.1131906346870224e+00 4.1874789492577172e+01 2.4243041505233567e+01
4572 1 1 7.0555227520980557e+00 4.2003140990327154e+01 2.4326375389804085e+01
15481 1 1 1.2832970033798436e+00 4.2077495776083737e+01 2.4417739456074621e+01
5482 1 1 1.3570397271188903e+00 4.2095791327359464e+01 2.4298180300164145e+01
5483 3 3 1.6522990515567897e+00 4.2167535067861444e+01 2.4014578947588522e+01
19037 3 3 2.8091502322439585e+00 4.2099007152290724e+01 2.4546553070347962e+01
1535 3 3 2.4796850970807025e+00 4.2202767224990282e+01 2.3486631129614842e+01
5484 1 1 2.0126553251667874e+00 4.2196728398138944e+01 2.3791247970168087e+01
1536 1 1 2.1339599445946620e+00 4.2182137981726314e+01 2.3696448709493733e+01
1965 1 1 3.9944401804455754e+00 4.2281659990069841e+01 2.3722657461726609e+01
20883 1 1 3.9820711469277965e+00 4.2424771622942181e+01 2.3763705226155263e+01
20882 3 3 3.8919388090919043e+00 4.2816199792641733e+01 2.3840051841503904e+01
20881 1 1 3.8729273041583494e+00 4.3178500942784012e+01 2.3980169468037211e+01
286 1 1 3.8577016479990083e+00 4.3295451642347821e+01 2.3997313653166817e+01
12617 3 3 5.2743916267786037e+00 4.3501551389520941e+01 2.3386703915357401e+01
16585 1 1 4.7252226971289533e+00 4.2223040583419795e+01 2.4272765264186756e+01
19133 3 3 4.9797759288601453e+00 4.2467603628071750e+01 2.3849630027147931e+01
19134 1 1 4.7974726019975602e+00 4.2276151992173119e+01 2.4159099556681472e+01
11643 1 1 5.0370259350594750e+00 4.2240957864193874e+01 2.3431277608191973e+01
19132 1 1 5.0100984085246392e+00 4.2306472317187414e+01 2.3562827941313529e+01
11631 1 1 5.0670530437062844e+00 4.3288295124829915e+01 2.4624502693638103e+01
16497 1 1 5.0913856535181568e+00 4.3279095933101431e+01 2.4776683803447327e+01
11630 3 3 4.9271156205937272e+00 4.3341783831074430e+01 2.4241323264094387e+01
11629 1 1 5.0759549223876892e+00 4.3432234308467706e+01 2.3890191614071409e+01
12618 1 1 5.1348391220245393e+00 4.3443093131121692e+01 2.3758836586088034e+01
4571 3 3 6.8203640544906152e+00 4.2290436264770044e+01 2.4454423077766720e+01
4570 1 1 6.7391630718849340e+00 4.2715901764349958e+01 2.4496689489134525e+01
15109 1 1 6.7096599883526959e+00 4.2902756213964970e+01 2.4507096874874346e+01
15110 3 3 6.6057580997144676e+00 4.3310522165683047e+01 2.4491790200554792e+01
2925 1 1 2.3329292863145952e+00 4.3864596069487760e+01 2.3656672439157749e+01
21417 1 1 2.1207836547113272e+00 4.4232839801681244e+01 2.4504002699645287e+01
2923 1 1 2.2006169070659669e+00 4.4221087806159773e+01 2.4377568411535364e+01
2924 2 2 2.3286424873663956e+00 4.4120913660519811e+01 2.4017761772424752e+01
287 3 3 3.9244908277125132e+00 4.3696841929369903e+01 2.4066530325265585e+01
288 1 1 3.9471049026020300e+00 4.4078019505392234e+01 2.4080640505738820e+01
19039 1 1 3.9680155046607086e+00 4.4222697403530418e+01 2.4087036012637419e+01
19040 2 2 4.0032155344758937e+00 4.4637562841472828e+01 2.4105234058739057e+01
19041 1 1 4.4224933259514998e+00 4.4624934440556416e+01 2.4174294556970363e+01
12327 1 1 4.5729624708700891e+00 4.4600623034372198e+01 2.4157724164339434e+01
12326 3 3 4.9824274404169815e+00 4.4499579311206837e+01 2.4110709271594164e+01
12325 1 1 5.2676123210103638e+00 4.4353373431640357e+01 2.4282314631726766e+01
2133 1 1 5.3689984718383350e+00 4.4323662407372581e+01 2.4349080210963180e+01
2132 3 3 5.6666713036382959e+00 4.4138530524873509e+01 2.4560880167690737e+01
15111 1 1 6.6212050847956414e+00 4.3740147358648976e+01 2.4635877527703258e+01
7054 1 1 6.6347687646598175e+00 4.3865123551882895e+01 2.4675831608059230e+01
15516 1 1 4.4325597336107606e+01 2.9227245383447954e+01 2.6097298490747079e+01
15514 1 1 4.4185758560320970e+01 2.8816319740591613e+01 2.5648178142793043e+01
15515 3 3 4.4154894892944775e+01 2.9215811769191212e+01 2.5727025178406826e+01
9921 1 1 4.4402143674179229e+01 2.9239985432514032e+01 2.6220939304653545e+01
6656 2 2 4.9196202336892355e+01 3.0403904254703686e+01 2.5860860791925607e+01
6655 1 1 4.8933785426017380e+01 3.0630065261046777e+01 2.5700137419595514e+01
3624 1 1 4.8827177333597781e+01 3.0715130492492392e+01 2.5667859276292905e+01
8395 1 1 4.9570589402642860e+01 3.0311973521477952e+01 2.6298886434650239e+01
6657 1 1 4.9471138063945908e+01 3.0335463308414919e+01 2.6182644725877665e+01
7000 1 1 3.7979070136817128e+01 3.2111713951165903e+01 2.6232449639499869e+01
21486 1 1 4.5270382476484286e+01 3.1381007349581953e+01 2.4950141461942785e+01
21485 3 3 4.5618196784085235e+01 3.1508597651578548e+01 2.5137368337742203e+01
21484 1 1 4.5968837491501304e+01 3.1647282134991581e+01 2.5369738612520372e+01
20311 1 1 4.6106636034507311e+01 3.1727978644245180e+01 2.5427437307449392e+01
20312 2 2 4.6465649494447277e+01 3.1929936765982145e+01 2.5493939129850705e+01
20313 1 1 4.6860607651221791e+01 3.1812399357602875e+01 2.5708844539275262e+01
7641 1 1 4.7003979563590271e+01 3.1772249826847329e+01 2.5775455325203286e+01
15095 3 3 4.8112578722045754e+01 3.1384102999807872e+01 2.4887913394803086e+01
8377 1 1 4.7759464380160310e+01 3.1960312643553621e+01 2.6253509042000442e+01
7639 1 1 4.7658403909480462e+01 3.1869772142943802e+01 2.6145238199055559e+01
7640 2 2 4.7329781535639029e+01 3.1686993959415286e+01 2.5970168157715332e+01
15094 1 1 4.8313522400199716e+01 3.1190974149955512e+01 2.5177251811359902e+01
3622 1 1 4.8415912169404045e+01 3.1130931673974207e+01 2.5321223571299548e+01
3628 1 1 4.8414748535222103e+01 3.2377240317925661e+01 2.5449448285467923e+01
3623 2 2 4.8546946291917642e+01 3.0981578224123243e+01 2.5637092496842200e+01
15348 1 1 4.9306374548307829e+01 3.1885770204210257e+01 2.5847141671560266e+01
12467 2 2 4.8894738670728316e+01 3.1977478289014837e+01 2.5445305613948236e+01
12468 1 1 4.9172199580822934e+01 3.1912273058987960e+01 2.5719633838756465e+01
12466 1 1 4.8557764039331040e+01 3.2264663582396274e+01 2.5454992752109462e+01
15347 2 2 4.9541540100160859e+01 3.1693841220952333e+01 2.6153236667250411e+01
11232 1 1 8.6461366653604738e-02 3.3501319925990060e+01 2.5944454961333772e+01
6342 1 1 4.4825530317575323e-02 3.3604033588987235e+01 2.5859205141095131e+01
11231 2 2 1.7236601223830988e-01 3.3203452808971313e+01 2.6186259905879563e+01
6692 2 2 2.6783242363074740e+00 3.3055316600723707e+01 2.6171363887383524e+01
6691 1 1 2.6245308313505866e+00 3.2907917069472845e+01 2.5766727937643473e+01
5421 1 1 3.0178740032215821e+00 3.3029885035892967e+01 2.5216240694779913e+01
5419 1 1 2.6335874218307436e+00 3.2862714535189475e+01 2.5618446435529929e+01
5420 3 3 2.7461259651995267e+00 3.2755714366787700e+01 2.5231562239041821e+01
5396 2 2 3.4667403947217519e+00 3.3404446541130199e+01 2.5204202825656495e+01
5395 1 1 3.1601963622836737e+00 3.3143501609263204e+01 2.5197305894973002e+01
5397 1 1 3.8029795026332960e+00 3.3562871762133028e+01 2.5374480024170033e+01
9793 1 1 3.9454777878464391e+00 3.3619991419166055e+01 2.5432156984055066e+01
9794 3 3 4.3165107369498266e+00 3.3716694088398043e+01 2.5594431197442532e+01
4620 1 1 4.6521120049608564e+00 3.3543316459369962e+01 2.6026589793281445e+01
9795 1 1 4.5890245826416152e+00 3.3602730922965549e+01 2.5902062605272413e+01
15555 1 1 4.6526236625300420e+01 3.3937039548445036e+01 2.6210299058301697e+01
9027 1 1 4.5668428331128112e+01 3.3363044715868298e+01 2.6027382701692257e+01
17445 1 1 4.5697259424547646e+01 3.3344225477912360e+01 2.5857115157722454e+01
17444 2 2 4.5723428861178277e+01 3.3250094522317809e+01 2.5483357838300567e+01
1129 1 1 4.5826661849311421e+01 3.3050465062250289e+01 2.4987038163850606e+01
17443 1 1 4.5792322594600634e+01 3.3120762194571071e+01 2.5118653941701794e+01
15554 2 2 4.6757595507624792e+01 3.3583837113107251e+01 2.6179171088286409e+01
3630 1 1 4.7807977706245794e+01 3.2720571416632666e+01 2.5675038402100249e+01
8494 1 1 4.7724771058779481e+01 3.2768748387699723e+01 2.5760003301766922e+01
8495 2 2 4.7403525234484967e+01 3.2887025452754131e+01 2.6012838666268063e+01
15553 1 1 4.7040685818790990e+01 3.3286053945219507e+01 2.6108162021064416e+01
8496 1 1 4.7151762628117801e+01 3.3175128427779725e+01 2.6082085704028728e+01
3629 2 2 4.8103951486232376e+01 3.2621630735211205e+01 2.5394362129339779e+01
6341 2 2 4.9994400780375500e+01 3.3912994238890974e+01 2.5573535901077712e+01
2447 2 2 4.6629923924428418e+01 3.5407769434046294e+01 2.6305937039169983e+01
2448 1 1 4.6487770135242762e+01 3.5026946292231081e+01 2.6321680834611399e+01
3859 1 1 4.6464195022338778e+01 3.4066629818788755e+01 2.6232268336080452e+01
3861 1 1 4.6442167780452884e+01 3.4897664226144101e+01 2.6320334766183151e+01
6340 1 1 4.9974949206948239e+01 3.4247288066807080e+01 2.5326872327984940e+01
14104 1 1 4.9910733148288571e+01 3.5036541377796055e+01 2.4812315978598647e+01
14106 1 1 4.9980664602455285e+01 3.4364642085122725e+01 2.5239026815849787e+01
14105 2 2 4.9979748876024757e+01 3.4676548355548434e+01 2.4985941257170744e+01
19579 1 1 4.7666007237114428e+01 3.5762664487519373e+01 2.6291300975322997e+01
17546 2 2 4.7091479385988286e+01 3.6334808244638566e+01 2.5318158230853232e+01
19581 1 1 4.7299633674408398e+01 3.6041498049322350e+01 2.5720187340709799e+01
17545 1 1 4.7209896330630443e+01 3.6114984098198015e+01 2.5600963990673723e+01
17547 1 1 4.7352582726457861e+01 3.6626376731864049e+01 2.5407953080912762e+01
7711 1 1 4.7455478304473971e+01 3.6705474016799585e+01 2.5417994168713747e+01
7712 2 2 4.7806381302651801e+01 3.7004813929501687e+01 2.5457340717197631e+01
7713 1 1 4.8113328996213895e+01 3.7099897041998432e+01 2.5691594415739779e+01
16396 1 1 4.8213423014719751e+01 3.7142048411749251e+01 2.5772517795258363e+01
19580 2 2 4.7492860513256787e+01 3.5818552258064891e+01 2.5947387242827368e+01
9444 1 1 2.8725842556249068e+00 3.8710171313707541e+01 2.6309225264366873e+01
3401 3 3 4.0788425917364313e+00 3.8826285090857581e+01 2.6252453437812804e+01
3402 1 1 4.3892543569947460e+00 3.8594981705124077e+01 2.6195132043746231e+01
21249 1 1 3.3338084858291763e+00 3.8300542295128338e+01 2.5738757492771978e+01
21247 1 1 3.5238195891434403e+00 3.8395723281460576e+01 2.5028172787274251e+01
2998 1 1 3.4808040786395078e+00 3.8425529155740186e+01 2.4878928221724028e+01
21248 3 3 3.6140911943289935e+00 3.8283743485803186e+01 2.5436414910610008e+01
9442 1 1 3.2296388997611869e+00 3.8317883772698501e+01 2.5861083130410197e+01
6669 1 1 4.4994106994086485e+00 3.8509660605878906e+01 2.6164340922842239e+01
9443 3 3 3.0433559665845458e+00 3.8427026092532785e+01 2.6122263452813808e+01
6668 3 3 4.8957597989814676e+00 3.8308310642413403e+01 2.6044317655405180e+01
8346 1 1 4.9514219891425508e+00 3.8817852123571448e+01 2.5868626099375099e+01
6667 1 1 4.9327638892715369e+00 3.8668787693371875e+01 2.5914512234561606e+01
16397 2 2 4.8478729158435080e+01 3.7268004933563880e+01 2.6014440503807219e+01
14904 1 1 4.8455020867754499e+01 3.8401050854831169e+01 2.5496070572826593e+01
16398 1 1 4.8613369679236214e+01 3.7660816877223056e+01 2.5971487904110891e+01
14902 1 1 4.8647963924859432e+01 3.7802444441665642e+01 2.5934997126885328e+01
14903 3 3 4.8667565134868290e+01 3.8146616246673382e+01 2.5767160691200271e+01
12711 1 1 1.4605602707348293e+00 4.0098294068263506e+01 2.4868758629393081e+01
10504 1 1 8.6744813972686052e-01 4.0397113845039804e+01 2.6315394943804218e+01
12709 1 1 9.6163558301653729e-01 3.9893892812129309e+01 2.5370679108389211e+01
12710 3 3 1.1959134428875930e+00 4.0084341201140553e+01 2.5157395101259333e+01
11790 1 1 3.3973575864404011e+00 4.0287158630068774e+01 2.6198971489587880e+01
14748 1 1 3.5393794544741968e+00 4.0320296589763380e+01 2.6274674338017036e+01
13276 1 1 3.8644214791088247e+00 3.9466557640377694e+01 2.5586645508301718e+01
13277 3 3 4.2656629726339776e+00 3.9513620867146479e+01 2.5399737855287789e+01
11789 3 3 3.0922539462188769e+00 4.0328916103013057e+01 2.5972884077793449e+01
2740 1 1 4.9560306710404962e+00 3.9798616340192169e+01 2.4783514519853131e+01
2741 3 3 4.9772462793221681e+00 4.0175263504931472e+01 2.4937557283347708e+01
8345 3 3 5.0121866666309005e+00 3.9177045459387038e+01 2.5742674029601670e+01
8344 1 1 4.6899114420975714e+00 3.9308095477581013e+01 2.5590406053968216e+01
13278 1 1 4.5574962647715171e+00 3.9380596848306546e+01 2.5536063897119416e+01
14547 1 1 7.1922649925969901e+00 3.9142553151743186e+01 2.4932249382641530e+01
3586 1 1 7.2446259419325614e+00 3.9225261858617174e+01 2.5049608121091769e+01
3587 3 3 7.3655969259675471e+00 3.9502295625133982e+01 2.5320988720571020e+01
3588 1 1 7.3063761566703462e+00 3.9861428042507100e+01 2.5468689993905187e+01
18469 1 1 7.2678552944172798e+00 3.9987362567054163e+01 2.5561414195000840e+01
18470 3 3 7.1972962687412059e+00 4.0290303652103987e+01 2.5840619847435136e+01
10505 3 3 8.9299595396041176e-01 4.0743687380160289e+01 2.6118895629291320e+01
10506 1 1 9.6529340811691899e-01 4.1056587252649365e+01 2.5840687834973650e+01
17691 1 1 9.8489682992333871e-01 4.1152141753039921e+01 2.5746161697048862e+01
17690 3 3 1.1057568371912265e+00 4.1344218770142987e+01 2.5435506338237591e+01
17689 1 1 1.1001211298317053e+00 4.1594530609745924e+01 2.5175033830611863e+01
15483 1 1 1.1165708077705323e+00 4.1703437544552443e+01 2.5080374474942680e+01
18407 3 3 2.2179690146143591e+00 4.1909156546503631e+01 2.6190806253767619e+01
11788 1 1 2.8822434146113158e+00 4.0576867724357257e+01 2.6183934087172453e+01
16323 1 1 2.1515363341962987e+00 4.1897748661427968e+01 2.5623480818019690e+01
16322 3 3 2.1655059846726057e+00 4.1969694203507878e+01 2.5280242610102764e+01
18408 1 1 2.1733266177401820e+00 4.1876909093720613e+01 2.5746125940249470e+01
10261 1 1 5.1843133223274238e+00 4.0667010674086058e+01 2.4899358530565536e+01
2742 1 1 5.1431204809889763e+00 4.0554099337147392e+01 2.4910634471827965e+01
8619 1 1 5.1229460411138641e+00 4.0484146636459812e+01 2.6135952761465504e+01
10262 3 3 5.2545856890434459e+00 4.1052836301468666e+01 2.4863571795611595e+01
2809 1 1 5.2394035773032472e+00 4.0529474730174371e+01 2.6068304801026429e+01
2810 3 3 5.5368883647429383e+00 4.0664602961755449e+01 2.5844783941891890e+01
10263 1 1 5.3737236426834718e+00 4.1425888827958808e+01 2.4905436801583537e+01
10470 1 1 5.4532977813155350e+00 4.1582263989159514e+01 2.4919315109041964e+01
2811 1 1 5.8206711334832519e+00 4.0808247595109648e+01 2.5708435525687840e+01
12339 1 1 5.9574279415995646e+00 4.0878372935098547e+01 2.5671221425734377e+01
10469 3 3 5.6504351242960809e+00 4.1899719216802900e+01 2.4906697964297958e+01
12338 3 3 6.2865057482595477e+00 4.1034511757299498e+01 2.5586474014128282e+01
11869 1 1 6.5290776590816799e+00 4.1522909011132306e+01 2.5487942381559094e+01
12337 1 1 6.4751578229133191e+00 4.1377853036152217e+01 2.5537008791907446e+01
11870 3 3 6.7109607436372753e+00 4.1824646859405064e+01 2.5410878167438312e+01
18471 1 1 7.2118813326058699e+00 4.0672067688611932e+01 2.6064055485449448e+01
3939 1 1 7.2150646478327136e+00 4.0773438287532578e+01 2.6145535528973820e+01
16321 1 1 2.3989903574208005e+00 4.2114188300889190e+01 2.4912843442375280e+01
19036 1 1 2.4883684750170394e+00 4.2133195455502538e+01 2.4797328115969460e+01
16496 3 3 5.1351848410069216e+00 4.3335652446951833e+01 2.5177324024074238e+01
18114 1 1 5.7230660640207054e+00 4.2668175933492826e+01 2.6044198908931619e+01
11982 1 1 5.6646898289837928e+00 4.2595484367925231e+01 2.5915876053979598e+01
11981 3 3 5.5666185159580568e+00 4.2402993467515074e+01 2.5655556979389800e+01
10468 1 1 5.5369257320727332e+00 4.2101329292334299e+01 2.5178629909948246e+01
11980 1 1 5.5215504588079360e+00 4.2191419723018527e+01 2.5300196516232901e+01
21062 3 3 4.9670219458299290e+00 4.3146577362858622e+01 2.6083269570560269e+01
16495 1 1 5.0924594197038431e+00 4.3284806008631932e+01 2.5598100486465718e+01
21063 1 1 5.0543042120663548e+00 4.3251001989690856e+01 2.5727646223338891e+01
21061 1 1 4.8851014419341405e+00 4.2839535903358851e+01 2.6320706908430783e+01
14582 3 3 7.1004828627017647e+00 4.3522876465854083e+01 2.5837554384313172e+01
14581 1 1 7.1207990897696334e+00 4.3168332083260999e+01 2.5674514890516729e+01
6402 1 1 6.8795451875459523e+00 4.2352811934454017e+01 2.5420767555518943e+01
11871 1 1 6.8265673557432205e+00 4.2198980221224879e+01 2.5393111887206629e+01
6401 3 3 7.0628780145387760e+00 4.2689677136504628e+01 2.5464848038865544e+01
6400 1 1 7.1112407602778696e+00 4.3030093999747095e+01 2.5616911332576425e+01
21416 3 3 1.9609909464040169e+00 4.4204420192358263e+01 2.4842511905127580e+01
4039 1 1 2.1641456326666924e+00 4.4233709503336115e+01 2.6213063170145038e+01
21510 1 1 1.9813624633284466e+00 4.4127049951504546e+01 2.5395945228689818e+01
21508 1 1 2.1475704980888830e+00 4.4177780438144651e+01 2.6097834294291417e+01
21415 1 1 1.9716097635430214e+00 4.4162992761548843e+01 2.5264286336449011e+01
21509 3 3 2.0236658192144863e+00 4.3988633937109654e+01 2.5756178809181630e+01
3801 1 1 5.1156506264055102e+00 4.4749011663703911e+01 2.5356241135093960e+01
15064 1 1 5.0215826170442615e+00 4.4655806966480093e+01 2.5338327382466414e+01
20785 1 1 5.7973192221847540e+00 4.4103164583509752e+01 2.5104458249301626e+01
2131 1 1 5.7715675558060697e+00 4.4130890688839010e+01 2.4947248612578882e+01
15065 3 3 4.7815788601162641e+00 4.4374286269097020e+01 2.5295115542409714e+01
20786 3 3 5.8820984149582731e+00 4.3996022929637896e+01 2.5517663694015010e+01
20787 1 1 6.0347464029915683e+00 4.3895651449953114e+01 2.5917109558213816e+01
3799 1 1 5.7430116133290836e+00 4.5084302841618737e+01 2.5311085192155563e+01
15066 1 1 4.5737936394649257e+00 4.4123845284818572e+01 2.5471948617093290e+01
5073 1 1 5.9041651481567321e+00 4.5070742324153080e+01 2.5246786801502221e+01
3800 3 3 5.3747817967974871e+00 4.5097413997953943e+01 2.5426444631533982e+01
7871 3 3 6.9398638337009464e+00 4.4459164353489726e+01 2.5898295713170484e+01
7055 3 3 6.7031773307562084e+00 4.4199808377848704e+01 2.4794514850084759e+01
14583 1 1 7.0648738892990259e+00 4.3916104656383474e+01 2.5849416404666052e+01
7872 1 1 7.0196159876931885e+00 4.4080491459391027e+01 2.5863136302836871e+01
2956 1 1 6.0861709350868827e+00 4.3855523469163117e+01 2.6038833596016961e+01
5072 3 3 6.2981612255745389e+00 4.5045595664996021e+01 2.5095347693505712e+01
5071 1 1 6.4555557738270615e+00 4.4713783288883356e+01 2.4973634228770099e+01
7056 1 1 6.5459736113393108e+00 4.4555043759812563e+01 2.4931104688562023e+01