ITEM: TIMESTEP
60000000
ITEM: NUMBER OF ATOMS
4458
ITEM: BOX BOUNDS pp pp pp
0.0000000000000000e+00 5.0000000000000000e+01
0.0000000000000000e+00 5.0000000000000000e+01
0.0000000000000000e+00 5.0000000000000000e+01
ITEM: ATOMS id type vx vy vz 
20852 2 0.711928 4.29922 -1.34173 
20853 1 -0.705975 -5.44268 -2.43552 
3972 1 2.38041 -1.42174 -2.26924 
13432 1 1.45166 3.71729 -1.21443 
13434 1 -2.3059 -0.787701 2.14799 
8919 1 2.83523 1.18368 2.6068 
13433 2 -3.56526 -0.708849 -1.19946 
8918 3 -2.40566 4.44096 -1.1695 
10515 1 2.25857 -0.0425087 -4.78559 
10514 2 0.458313 -2.50147 3.5966 
10513 1 3.31667 -1.60861 -1.76973 
3971 3 0.0139703 -1.05555 -4.3003 
3970 1 2.67604 1.39635 2.81469 
15798 1 -4.82658 3.31453 5.33081 
20144 2 -1.62566 4.84567 1.93531 
20143 1 1.23125 -5.32184 3.93618 
20145 1 -1.31032 3.38314 -5.18538 
15796 1 2.13893 -3.54149 -1.26285 
3584 3 -0.552711 4.0973 1.38284 
3583 1 -4.65519 0.459045 -5.79852 
11073 1 -1.427 4.70278 3.30382 
13376 3 -1.61005 -2.61229 1.93938 
13377 1 1.58196 0.964816 3.5912 
6455 2 2.92963 -2.485 0.344953 
6456 1 -2.00175 2.2163 0.626249 
13375 1 4.12417 -4.57724 -0.108351 
9014 3 -2.86759 0.676419 -2.67376 
6852 1 0.589752 1.37404 -4.38498 
6851 3 -3.16448 -2.46932 1.8719 
9015 1 -2.00462 -0.888352 -0.759589 
6850 1 0.126079 -0.858478 2.46457 
17043 1 1.45132 0.644754 -0.477415 
9013 1 1.53357 -4.78395 -1.17125 
17041 1 0.372261 -4.41842 3.26038 
14317 1 1.86917 -0.244014 -3.24211 
6454 1 5.89721 -3.73889 -7.1698 
18940 1 0.243969 -7.99836 -0.995159 
12805 1 0.312837 2.82007 0.407287 
12806 3 0.777393 2.47874 5.57202 
18941 3 -0.563601 -0.13499 2.86816 
18942 1 0.505578 -3.27774 3.28264 
2550 1 2.07736 -3.8616 -4.52748 
2549 2 -3.96393 0.102305 -0.387859 
2548 1 -0.0792478 -0.842115 -1.48892 
12807 1 -1.21304 5.40623 -0.879308 
1251 1 4.78164 8.46449 0.906985 
1250 2 4.40763 1.36815 -0.454681 
4004 2 -4.8012 -4.8736 0.72688 
4416 1 4.85804 -0.342918 4.02757 
4005 1 2.23435 1.53283 -0.425165 
4415 3 -1.23878 -0.0760842 2.01465 
1759 1 7.33595 -5.49892 -1.92997 
7489 1 0.50731 -1.58555 -1.93736 
7490 3 1.53178 -3.19553 5.19482 
7491 1 -1.35915 2.44735 5.78387 
4414 1 -0.164374 5.05187 -2.95121 
17396 3 -1.73416 -1.12002 4.49424 
17395 1 3.78825 9.428 -2.76616 
17397 1 -1.18597 -2.52635 0.233186 
19625 2 0.004028 0.793749 1.95509 
19626 1 1.85953 5.11862 0.0821613 
132 1 -0.348113 1.89314 1.01471 
12087 1 0.316529 -0.0392379 -3.38293 
4191 1 -0.985347 0.674867 0.0398827 
4190 2 0.927475 1.5094 -3.74545 
4189 1 -3.69702 -4.13724 -1.68793 
12086 2 0.91848 -3.31578 3.05788 
11769 1 8.95471 -2.80607 1.8354 
11065 1 -7.98584 -0.890008 -3.64514 
11066 3 3.75031 4.96138 -1.51271 
11067 1 -0.986255 6.25708 -5.5026 
15300 1 2.19695 -0.384066 -0.422206 
15299 2 -4.21067 -0.15359 -2.92603 
15298 1 -3.74703 -6.93467 -3.51098 
17577 1 -0.666554 -3.69569 2.42302 
1519 1 -3.10787 2.91243 0.41766 
17576 3 2.68325 2.95716 0.356852 
17575 1 -0.00921662 -0.0256321 5.05278 
1521 1 -1.08941 4.1942 6.66157 
1520 2 -1.81576 3.10154 -2.63231 
19439 2 2.1402 -3.66043 -0.266223 
19440 1 -1.48685 0.855818 1.82308 
12907 1 -0.961471 6.28146 3.29768 
12908 2 -0.554395 -3.88097 -3.32235 
12909 1 -2.32102 -4.03877 0.622971 
5986 1 0.757489 -0.591003 -1.43688 
15498 1 -2.262 -6.46186 4.28845 
15497 2 0.572539 -2.94104 -1.82466 
4486 1 -0.829801 3.16261 -7.76245 
4487 2 2.65079 -1.2071 -3.55144 
4488 1 1.96014 1.82639 1.51054 
19603 1 -2.02623 -1.19307 1.10477 
19604 2 1.77815 2.83539 -4.01419 
19605 1 -4.91277 -3.79862 -3.52868 
17056 1 0.76038 1.61476 -5.33035 
16582 1 -0.951858 1.57501 -4.11065 
17057 3 -2.65924 1.55211 2.18623 
16583 2 3.84637 3.738 -4.01277 
17058 1 0.854628 4.45279 5.16298 
16584 1 3.10966 -1.17913 -3.57178 
20719 1 -1.24455 1.81728 -4.37866 
20720 3 -3.25614 0.412521 0.234389 
20721 1 -0.222516 1.41083 -2.06516 
16635 1 4.64922 3.03485 -1.68732 
16634 3 -3.42487 -1.07729 3.28716 
16633 1 3.19992 2.99912 -3.33235 
19261 1 -5.21628 -4.85949 -0.192367 
19263 1 2.45309 3.82021 1.31596 
19262 3 -3.57687 -2.39357 0.302457 
667 1 -2.68908 0.864609 2.28707 
10842 1 0.515842 5.40652 -2.73676 
18853 1 -4.23395 1.13738 3.01671 
5648 3 -2.31576 -0.964029 2.35142 
21528 1 -2.47908 -3.95366 -4.1719 
18855 1 -3.80105 -0.76988 1.43296 
18854 3 -1.1096 -0.319073 -1.88962 
11419 1 -0.53248 -1.35355 -5.25704 
11420 3 1.77377 4.33369 3.74515 
19888 1 -4.4426 -4.46654 -2.56727 
8742 1 -3.95546 2.05181 1.02383 
11421 1 2.11205 -1.00638 2.54792 
8740 1 2.28733 -2.59406 -1.74622 
8741 2 -0.389527 2.31957 0.45249 
5647 1 1.56869 0.654325 -3.81469 
5649 1 6.04118 1.65477 0.207657 
8917 1 -2.94162 0.547672 4.83183 
9885 1 10.9003 -2.46873 0.768681 
15797 2 -1.80287 -4.29184 1.72381 
20660 3 0.134014 3.47505 -2.4923 
20659 1 6.33355 -1.53774 -2.99215 
19442 2 1.4037 -4.29481 2.13696 
13465 1 1.82943 1.90277 4.28823 
20661 1 -4.0891 2.40607 -2.24317 
13466 3 5.0841 0.17201 -0.847351 
19441 1 1.93939 -5.51543 -4.75605 
13467 1 -3.91995 5.30158 0.0639174 
9884 3 -0.304172 1.28162 -8.60414 
9883 1 2.32238 0.70673 2.7936 
19443 1 -0.0710184 1.77468 7.64948 
16255 1 -1.50364 2.50036 -0.519506 
3585 1 1.50366 -3.05998 8.91355 
9894 1 -9.69467 -1.65171 3.97791 
9892 1 -1.08828 0.184421 -2.46035 
9893 2 -0.624163 2.02033 -3.86879 
7281 1 3.90279 0.0141083 -2.97138 
7279 1 3.4595 0.959263 -4.59525 
7280 2 -0.700386 -1.0616 0.758144 
11071 1 -1.55081 4.35729 10.4539 
11072 2 -0.993887 1.91469 -1.31503 
21499 1 0.0893832 -3.39521 3.46655 
21500 2 -4.06674 2.70391 -2.12253 
14318 2 -0.844544 1.07748 -0.802454 
14319 1 -1.44315 -1.91769 -1.56236 
21501 1 -7.10601 5.40545 1.00546 
9935 2 2.97148 -3.24948 2.92999 
20286 1 -4.42618 0.380989 -1.0357 
11083 1 -1.85008 1.12492 -0.584553 
11085 1 2.28193 -0.0904531 1.97008 
11084 3 3.08566 -2.70124 -4.29096 
17332 1 5.94443 1.86794 13.3385 
17333 2 -0.295969 -1.28094 0.214573 
16942 1 3.34006 1.4186 2.19178 
17334 1 -8.73521 0.213477 6.31 
16943 2 -2.48246 1.26526 -0.437106 
9934 1 1.21724 -1.35988 -0.804754 
4003 1 -3.08583 -4.17987 -2.46611 
20285 3 -0.678312 2.14187 0.121692 
15880 1 -2.40985 3.5968 -2.30511 
20284 1 2.63787 1.84058 -0.377571 
15881 3 2.81551 -0.254854 -2.78461 
15882 1 -0.221376 5.32713 3.15997 
19624 1 -0.69083 -2.20687 -6.94251 
11767 1 2.05147 -0.850308 -1.03652 
8911 1 -4.5796 3.60574 3.06472 
8912 3 -6.56534 0.488003 1.55229 
8913 1 5.79229 -0.912042 -2.2536 
2708 3 1.37887 1.43311 2.3065 
2707 1 -5.10138 2.12909 -2.43736 
11768 2 0.164214 -4.77113 -0.27888 
2709 1 -5.76183 6.29322 0.238492 
222 1 -0.840967 -4.63114 5.54633 
220 1 0.195256 -0.372741 5.10729 
221 2 -0.892198 2.96541 -2.08216 
2277 1 -2.22705 0.842533 5.10491 
10810 1 -0.679609 -5.35505 1.7895 
10812 1 0.62624 -4.6022 5.83701 
10811 3 -0.241035 0.0361207 0.771024 
2545 1 -0.236701 1.54641 -1.80578 
2546 2 0.303292 -2.10159 -1.40773 
2547 1 -1.14711 3.07631 -6.43685 
5598 1 -1.28954 0.0228205 -3.46973 
5597 3 1.27471 0.739514 2.19257 
5596 1 -4.28097 -2.25371 -1.69776 
6076 1 -3.702 0.33566 -2.21486 
6078 1 0.22071 -0.729198 1.46052 
6077 2 -2.69069 -3.27257 -1.58873 
669 1 -0.846466 4.02187 0.0560904 
668 3 3.97515 1.20028 -0.978004 
10840 1 -0.912168 5.12825 -1.53166 
10841 2 0.67013 -3.59452 -0.246752 
19889 3 1.30991 2.33678 -2.59367 
8764 1 1.18332 3.68632 0.152961 
19890 1 -1.84151 -7.67616 0.0507238 
6739 1 0.594702 -0.105775 5.37623 
20176 1 -0.94755 0.387817 4.08053 
20177 2 0.192387 -3.18139 0.0625762 
20178 1 -1.01591 -2.02038 -0.696838 
12246 1 6.77013 3.38487 2.23158 
12245 2 -0.28945 -3.38766 -5.08981 
12244 1 -6.39426 1.30789 -6.59812 
16256 2 -0.491879 3.89948 -0.593918 
10422 1 3.98074 3.22666 3.80958 
10420 1 -4.45655 -3.05441 -6.2192 
10421 2 -2.83118 0.456253 -0.942258 
16257 1 6.61146 -0.182034 -2.83841 
20742 1 -2.28159 3.39305 -2.87266 
20740 1 -5.05098 0.325917 -0.510567 
20741 3 -3.69828 4.70322 -0.313406 
9936 1 -2.06475 -1.50776 0.421796 
16944 1 0.887671 1.84644 1.73499 
10326 1 1.37018 2.49478 -2.74305 
10325 3 1.3265 3.12744 -1.7853 
10324 1 -2.92207 -2.12273 -3.8983 
15756 1 3.25996 5.52411 2.21777 
15755 3 -0.383377 1.52061 -1.75891 
15754 1 -0.648779 1.10196 2.07452 
15866 3 -0.921787 -4.1177 -1.54667 
15867 1 1.71425 -0.188785 4.21906 
15865 1 -1.26489 2.16773 2.63817 
14006 2 -1.13853 -1.59261 -1.87009 
14005 1 7.11986 -3.95041 -0.450442 
14007 1 -5.13229 4.0573 0.998088 
19081 1 1.66807 -8.07222 -3.08168 
14882 3 4.67847 -3.91838 -3.34754 
14881 1 0.131757 -5.91362 -5.06657 
4144 1 4.85824 -0.950386 -3.21057 
4145 2 1.13103 -5.48993 2.51368 
8765 2 3.51554 -1.79594 -3.44427 
8766 1 2.56587 2.05149 -1.77393 
1107 1 2.5138 0.0772705 1.69881 
1106 3 -2.66904 -0.458431 -1.2623 
1105 1 1.93014 -1.76479 -3.70884 
10402 1 0.44791 0.926878 -4.31938 
10403 2 -2.30999 2.41213 2.03089 
3744 1 -2.15264 5.46747 2.61613 
10404 1 -4.48642 -2.61085 -1.20121 
3743 3 -1.50034 1.22179 -1.1021 
3742 1 -1.4609 -0.927422 0.267289 
13494 1 3.02372 2.74153 -4.04841 
13493 3 -4.12079 0.210549 4.00643 
3850 1 0.765204 2.02375 -1.02238 
17355 1 3.38262 4.73498 0.658391 
17354 3 -2.73326 2.66729 -0.659214 
17353 1 1.95388 -5.70939 4.7764 
6741 1 3.07846 0.932312 -0.195519 
6740 2 -0.701738 1.61326 -1.58961 
13881 1 3.63274 1.42359 3.2923 
13880 2 0.501031 -0.937181 -0.165352 
13879 1 1.26537 -2.32148 -7.70605 
19968 1 1.65543 -2.86428 5.09928 
19967 3 -5.434 4.44382 -3.00787 
19966 1 -1.70726 -4.85173 2.30167 
16945 1 -0.0671368 -4.55347 -3.96457 
16853 3 -1.50934 -0.695309 -1.69203 
16854 1 -5.11265 -0.384661 1.92418 
16852 1 -0.738853 0.118918 -4.32434 
17559 1 -3.607 -3.72946 -4.95993 
17558 3 -0.157159 1.29709 0.943883 
19083 1 2.38739 -1.26161 -1.55639 
19082 2 -2.68206 -0.467604 -2.9496 
17557 1 -1.97767 7.78519 -4.07306 
2529 1 0.844613 1.15011 -0.633165 
10843 1 -0.236866 2.04666 -2.87619 
10844 3 1.49603 6.28043 3.52767 
10845 1 -3.0403 1.06397 0.567077 
17207 2 1.38794 -4.29968 -1.23916 
17206 1 1.16358 0.58026 -3.59574 
17208 1 3.69315 0.574236 -4.4231 
4036 1 4.92824 -0.38933 -1.11647 
4037 3 -0.815204 3.04216 -2.28011 
4038 1 0.856539 4.37915 -6.33395 
7218 1 3.03312 -4.56233 -0.608175 
7217 2 -1.51169 2.6996 -1.22102 
7216 1 -2.51691 -0.337177 1.90697 
258 1 -5.65636 -0.364663 -2.1146 
1011 1 -1.42613 5.67993 -0.184763 
1010 2 2.13067 -1.97314 -1.4767 
14883 1 -7.87146 -6.20887 -0.407306 
256 1 -0.705193 3.23059 2.08612 
257 2 1.60441 3.20246 -0.78556 
2718 1 1.783 1.62512 1.94867 
1009 1 -2.90261 -2.08689 3.30759 
11485 1 1.46555 7.33081 -2.83274 
11486 2 1.54028 -0.987282 0.322897 
15434 3 -2.45354 -1.5308 -3.65418 
15433 1 2.12855 3.93045 3.26102 
3851 3 0.530277 0.576014 -1.07539 
13492 1 5.80606 6.69225 -3.26439 
7464 1 3.4998 -4.962 -3.65474 
7463 2 -0.148547 1.31606 -2.51254 
7462 1 4.16605 -2.42287 3.69984 
17871 1 1.58853 4.20178 -0.525991 
17870 3 -0.347773 3.63283 2.44757 
17869 1 -0.573599 -3.36242 -2.31017 
11961 1 -1.54813 3.4111 -2.61015 
3852 1 -4.31357 6.92381 -3.63963 
4680 1 2.36464 2.6233 -1.71057 
4679 3 -0.73229 -0.148406 -4.22528 
7732 1 -5.21266 -0.329821 -0.107564 
18702 1 -2.7977 4.22051 -0.689429 
18701 2 -1.97416 -4.10548 2.53505 
1433 2 2.1117 0.393868 3.69085 
1434 1 0.805852 3.71531 0.891995 
1432 1 5.43754 -2.63172 1.59158 
12609 1 -2.02346 -2.88118 -0.820722 
1848 1 3.739 3.46991 -1.09449 
1847 3 2.13566 -1.0445 -0.779505 
1846 1 -2.76286 0.497455 -3.21405 
20424 1 0.0053661 1.70557 0.333159 
20423 2 1.92283 -0.902596 0.367315 
20422 1 -2.4031 -2.15053 -0.84389 
9366 1 4.07942 9.74585 -4.29313 
9365 2 1.81912 2.2625 3.93218 
9364 1 3.06046 -1.57293 1.6432 
12774 1 -1.00414 -2.5949 -1.4049 
12773 3 -1.2881 -6.23825 0.738713 
16946 2 -2.97369 -2.5267 2.00376 
16947 1 -4.561 0.199553 -4.7265 
12772 1 1.87547 -1.53958 2.98202 
12583 1 -4.37559 -0.744135 -3.35108 
2 3 3.30546 -2.49118 0.0311936 
1 1 -2.41938 0.508066 5.82982 
9508 1 -2.47729 3.09957 1.5762 
9509 3 3.2521 2.46688 -0.540011 
3 1 -1.83674 -2.19011 3.89881 
9510 1 0.3815 -2.1481 6.4827 
2528 2 0.982341 5.37268 -4.63313 
2527 1 -1.94971 -3.85585 -0.0331279 
12585 1 -1.36045 2.25012 -0.909657 
12584 3 1.64697 -3.52171 -2.76423 
19508 3 0.747634 -0.898692 -3.69492 
19509 1 -2.08958 0.125283 -1.24456 
19507 1 -1.49722 -4.76717 5.2564 
3997 1 -1.17859 3.40327 3.34407 
16821 1 -1.84605 3.99755 -4.14125 
2716 1 1.66229 -3.37778 -3.23791 
2717 2 1.36429 2.05823 -0.114323 
16819 1 0.364274 2.15166 -3.86376 
16820 3 -3.21255 4.65443 3.89645 
10372 1 0.861309 -4.1539 -1.05323 
8599 1 4.32552 0.310582 -0.228524 
8600 3 -4.93856 -2.24612 -0.702994 
8601 1 -0.819283 6.27098 -2.76626 
3999 1 3.0811 4.00765 1.07943 
3998 2 1.1064 -1.98887 0.750609 
10374 1 3.42036 -2.10876 -0.702198 
11628 1 -3.98813 -0.570592 -0.784573 
10373 2 -0.738144 4.03001 -6.14662 
11487 1 0.925094 -6.53609 -3.16916 
11627 3 -0.911377 1.87912 -0.885347 
11626 1 -1.93902 -4.81857 -7.62343 
15435 1 2.7032 -4.17011 -3.62706 
19250 2 1.18345 -1.4728 -2.79683 
19249 1 -2.93113 -1.85638 -3.22475 
19251 1 8.59501 2.93487 1.11273 
11959 1 0.0995665 1.45079 -3.26797 
11960 3 -2.17662 -0.982268 3.98935 
11905 1 -6.15721 2.85649 -0.0464459 
11906 2 -0.735069 1.73959 1.72204 
14587 1 -0.438058 2.22436 4.73935 
14588 2 1.0462 1.43357 -3.27909 
11907 1 -1.50039 7.97257 1.47709 
4725 1 1.59739 -4.16481 -0.785851 
4678 1 -1.14484 0.0232861 1.49696 
7734 1 1.62001 7.67709 -2.16042 
4723 1 -2.73632 3.62135 -0.792949 
4724 2 -1.52191 -2.86991 -4.24133 
7733 3 -0.371859 0.307733 0.175113 
12149 2 4.39096 -1.17099 1.04286 
12150 1 1.70337 -0.643649 -0.179595 
13406 2 -5.04231 -0.598529 2.3246 
13405 1 -1.89173 -3.01891 1.58754 
13407 1 1.84465 4.71254 3.9621 
19878 1 -1.08293 2.66741 -0.0380962 
19877 2 -0.993064 -0.612428 -2.16078 
19876 1 -0.639322 -0.951725 -1.75227 
12148 1 4.60017 2.53269 -3.15736 
12608 3 -1.64893 -3.91479 -0.633117 
12607 1 -5.10568 -3.18135 0.464677 
18448 1 -1.76138 1.30884 -5.77239 
18449 2 -0.871953 2.94648 1.82874 
18450 1 2.04468 -0.0156277 5.00231 
21325 1 -0.530868 -5.936 0.989035 
21327 1 3.02465 0.758363 -0.537302 
21326 3 0.190656 3.87086 -0.821816 
9144 1 3.60058 1.20618 -2.03882 
1120 1 5.39364 4.88545 -1.2706 
1121 3 -1.55531 -0.481714 5.13049 
1122 1 2.52744 -3.69431 0.274431 
20908 1 -1.17607 -3.67141 -4.03464 
20910 1 -1.60987 5.598 -1.52042 
20909 3 -0.204913 1.12442 1.3414 
9498 1 -4.16479 0.212473 -1.72796 
19774 1 -1.41896 0.701746 0.961803 
9496 1 4.94896 3.24737 -4.76633 
9497 2 4.95344 -0.854901 1.57472 
19775 3 -2.23411 1.11297 -2.04846 
9032 2 -1.5808 1.54561 0.650956 
9033 1 3.16685 -2.61306 -2.50379 
9031 1 -2.25973 -1.85952 4.76254 
18055 1 -2.86929 -6.39515 -3.3709 
18056 2 3.58549 -1.78523 2.73989 
19461 1 3.49455 -0.726103 3.07053 
18057 1 8.93776 2.66018 2.51653 
19460 3 -0.785551 -1.39672 0.130565 
19459 1 4.16173 -0.73321 0.446522 
611 3 -4.97807 -2.22068 -1.65113 
10562 3 -2.53066 -0.0399378 0.0745575 
612 1 -7.53511 0.508965 -0.720485 
10563 1 -2.20918 -2.42873 6.01624 
14589 1 0.367023 -1.43462 -1.32165 
610 1 0.0842187 4.47903 2.52141 
10561 1 -7.84197 0.201609 -4.49709 
7791 1 -1.07849 -2.13136 -3.60771 
1354 1 0.335911 -0.507777 -0.650439 
1355 2 0.27116 1.66555 4.44347 
1356 1 -0.716276 6.98199 -3.33295 
5454 1 -0.893915 2.87534 -2.53151 
5452 1 -2.92323 3.80479 4.49443 
5453 2 2.01336 -1.64699 3.18313 
7351 1 1.50874 4.01786 5.60447 
7352 3 1.5342 -0.0439145 -0.00716976 
7353 1 1.25199 3.02527 -1.62356 
3954 1 2.1678 -1.50471 -4.95046 
3953 2 1.99708 1.76349 -0.246276 
227 2 -7.52326 -3.90141 -4.16842 
228 1 0.833348 1.3776 -2.43954 
3952 1 0.0655307 0.856663 -3.03323 
226 1 1.14435 -2.54911 4.48194 
9142 1 -4.08338 1.0464 -2.18027 
9143 2 -3.6828 -0.550202 0.0244719 
5714 3 4.12246 1.07064 2.51971 
5715 1 4.69406 2.45817 -2.42944 
5713 1 -1.73805 -0.658689 -0.706863 
7666 1 1.39989 -3.81821 2.51947 
7667 2 2.1274 0.514914 1.37052 
7668 1 4.01369 -2.96449 0.984748 
16030 1 1.57369 -1.93987 4.06487 
13006 1 -3.71304 4.49492 -4.10356 
13007 2 0.345916 -0.7739 0.0988286 
13008 1 2.17724 -4.71584 0.547912 
20463 1 3.12736 -5.02169 -2.11475 
20462 3 -4.70099 0.916164 1.99668 
20461 1 -0.740038 -4.28301 -0.224016 
694 1 1.87902 5.65187 -0.76602 
20504 2 1.02179 3.36291 3.60794 
20505 1 6.88446 5.5027 1.02463 
20503 1 0.855059 -0.637309 1.60272 
15091 1 0.980393 -5.47914 2.15744 
15093 1 1.87403 -2.32163 -3.07007 
17016 1 2.27494 5.23412 2.44879 
17015 2 -2.56484 -1.15996 0.47831 
8530 1 -1.156 4.9316 -4.00064 
8532 1 0.120059 -0.292244 -4.15657 
8531 3 -0.294674 -0.871196 2.00415 
20832 1 1.93792 -2.24634 0.851706 
20831 2 -2.39598 3.13565 -1.29574 
20830 1 -1.02981 -2.19244 -3.85883 
12641 3 -3.97342 4.41931 1.91754 
12642 1 -2.13049 -0.526401 -1.56396 
19776 1 3.36393 -2.54172 3.1986 
19161 1 6.03804 -3.8847 -2.2914 
3662 3 -4.40887 -1.25027 2.34512 
19159 1 -4.07261 -3.9269 -3.95951 
19160 3 -2.27731 -0.494966 0.541137 
3661 1 1.8222 -1.18157 -3.50839 
406 1 1.29128 5.64704 -2.00554 
407 3 0.606956 -2.27481 1.3108 
408 1 1.37014 1.42848 0.305526 
7790 2 -1.87748 -2.05527 1.04175 
7789 1 -2.46025 -1.98537 -4.6349 
152 2 4.6972 3.0764 2.32416 
151 1 6.58061 0.704454 1.91352 
153 1 -2.3119 6.66683 -2.08688 
329 3 -1.51573 -3.81322 1.62704 
328 1 0.9315 6.09101 -4.03799 
330 1 0.453425 3.74205 6.83598 
10635 1 -0.978829 6.56487 -2.72407 
10634 3 -3.18296 -0.56889 -2.01227 
5176 1 0.99806 -6.91037 5.17284 
5178 1 -0.880512 0.112181 1.59009 
5177 2 0.391191 -2.67249 2.9162 
10633 1 -0.825297 -5.17217 1.12818 
1654 1 -2.22067 0.6375 -3.95297 
1656 1 2.11689 -3.8691 0.510554 
1655 3 3.54653 -3.43738 -1.50287 
5766 1 -0.603126 2.71444 -2.78267 
5764 1 -0.324949 -0.00130672 3.03712 
5765 2 3.77787 3.01631 0.561657 
9960 1 4.20852 -4.80073 -2.02416 
9958 1 2.3831 -4.6293 4.32473 
9959 3 2.80265 -2.39106 1.56813 
16826 3 1.97922 0.423225 5.01446 
16827 1 4.11077 -4.68367 0.338507 
15179 2 0.444583 -0.262771 -1.07315 
1399 1 -2.00287 -0.0507693 -0.344299 
17014 1 -5.51517 1.0138 -3.15927 
1401 1 -8.32961 5.69632 -2.48467 
1400 3 -1.48748 0.491032 5.16262 
696 1 -2.47422 2.79189 -0.655922 
695 3 -3.04762 3.57743 2.20091 
16825 1 -2.15195 -2.98271 -2.69553 
5635 1 1.00099 -2.68191 3.39599 
5636 2 -4.54919 -0.548913 -1.25689 
15180 1 7.86529 -1.6262 2.07363 
15092 2 3.05188 -0.319654 0.960685 
5637 1 -1.07471 2.69953 -5.96217 
21070 1 0.515481 1.94824 1.80437 
21071 2 1.40538 -1.66694 -4.65454 
21072 1 3.36202 4.96942 0.179588 
13854 1 -6.92538 2.96969 -1.22764 
13852 1 4.02982 -0.0622184 -2.22554 
13853 2 -0.568243 -0.273127 0.979786 
12640 1 0.501968 2.79789 0.359577 
20374 1 -3.43696 3.55011 -5.57669 
14036 3 -4.44918 -1.17143 -1.34337 
20375 3 1.73825 -0.849865 1.41555 
14003 2 4.12525 -0.519865 0.38296 
14002 1 -4.68718 5.57357 3.68534 
14037 1 -0.871048 4.35543 1.80147 
14004 1 -5.06281 -0.111962 3.39448 
14035 1 3.37214 0.204637 -1.67891 
16170 1 -1.35524 -1.28557 -0.532787 
16169 3 1.73089 2.62515 3.43621 
3663 1 4.88384 -2.17464 -1.25784 
642 1 -0.938963 -2.16666 1.13263 
641 2 -1.74101 -0.943516 0.612379 
640 1 0.79965 6.18702 0.635752 
13571 3 -5.26267 -2.69498 -0.378203 
13570 1 -0.330263 -3.74056 1.43462 
15897 1 -2.64307 0.177881 -1.58692 
13572 1 -2.02639 3.64279 3.01509 
15896 2 -0.511149 -0.182715 4.34486 
15895 1 -1.81198 -0.443085 -5.41565 
823 1 -9.18071 -1.01895 -2.9983 
20401 1 -6.35699 -0.858527 3.22725 
825 1 -1.41326 -4.30244 3.83895 
824 2 3.30759 2.03327 -0.667664 
20715 1 3.84801 -1.80366 -0.134641 
20714 3 -3.76717 4.12035 1.37663 
9009 1 -2.81013 2.51807 1.23455 
9007 1 0.72636 -6.39258 -4.69697 
9008 2 -1.47768 -2.23491 1.23074 
10547 2 2.40774 0.75024 4.19146 
10546 1 2.8108 -2.54439 -11.9943 
12168 1 5.61047 4.8554 -4.90141 
20713 1 2.89609 -4.5669 -3.68616 
10548 1 -5.91221 0.710092 2.4015 
2986 1 8.15634 -3.12585 -10.378 
2987 2 -3.95242 1.62651 0.276851 
8854 1 1.04214 -1.13389 -1.13624 
2988 1 -0.620481 -3.23002 -1.47 
8855 3 0.628816 -3.01308 -1.58384 
8856 1 -3.43634 -0.705495 1.70153 
11974 1 -0.762423 -3.32064 -1.4506 
5283 1 1.1936 1.34656 4.0513 
11976 1 2.02896 -0.579231 4.25517 
5282 2 0.0403563 0.0800882 -1.48516 
11975 3 1.76349 -0.481405 1.0288 
5281 1 2.29723 3.53281 4.23305 
17488 1 1.96207 -0.962264 -1.85205 
17489 2 4.05575 -2.26547 4.54327 
17490 1 -2.43784 -2.73787 -5.62649 
15379 1 0.649957 -0.145546 0.936709 
21588 1 -0.761125 1.39873 -3.65761 
18685 1 3.35403 5.0309 -0.286163 
18686 3 -2.4894 -1.46903 -5.26425 
18687 1 0.884854 -4.19723 3.46227 
4826 3 5.30888 -1.9939 -2.30374 
4825 1 -0.0247403 -1.14409 -0.0466808 
4827 1 -1.76597 -0.280303 1.97539 
6202 1 3.49718 0.520699 4.29524 
16171 1 -0.771525 7.42506 -6.74143 
16172 2 -3.2922 -0.463709 1.96774 
6204 1 -0.115969 -0.69936 1.40668 
6203 2 -2.61016 1.86413 0.185078 
16173 1 0.481864 -5.06078 0.309282 
15178 1 -3.99661 -2.37033 0.59968 
753 1 1.71559 0.622181 -4.16868 
16287 1 -4.24414 1.21358 1.54817 
16286 2 0.694205 -2.95198 -1.96033 
5770 1 2.63775 3.90339 9.57702 
5771 2 4.31658 1.65194 2.30255 
5772 1 0.245884 0.273455 -0.0354903 
20376 1 0.945101 2.09196 -9.69755 
19248 1 5.26315 -0.160818 0.692463 
19246 1 2.26205 -1.13914 -3.10971 
19247 3 0.167079 3.69078 -0.133647 
15991 1 -0.212511 -3.29576 -2.05004 
16168 1 0.963365 0.866225 6.19552 
15993 1 1.32265 -2.27436 -0.896962 
15992 3 0.608978 1.15359 -0.0664956 
5530 1 2.35013 -2.60498 2.57865 
5531 2 1.30527 3.74588 -1.29035 
5532 1 -1.24979 -3.88623 5.74901 
20402 3 -1.53606 -1.28757 -1.52241 
20403 1 -4.83376 4.82631 -1.83295 
12167 2 3.31576 0.0826777 -1.95246 
12166 1 -1.38291 1.0096 2.33168 
13397 2 -2.23345 -2.02985 2.74985 
13398 1 -3.19401 3.3557 -3.15529 
13396 1 1.66424 4.65993 -1.01495 
4591 1 -1.42393 -0.519684 0.519081 
4593 1 2.26742 4.4458 -5.45641 
4592 3 -0.664545 1.32785 -2.32448 
2686 1 -1.191 -3.56386 -4.33828 
9279 1 -7.01441 -1.79979 0.898479 
2687 3 -1.65291 -3.92736 -0.933441 
2688 1 -2.1339 5.23389 2.18673 
9278 2 -1.02681 1.6258 -0.521994 
17586 1 0.695822 0.964338 3.89821 
9277 1 2.7564 2.38305 -2.98661 
18998 3 0.893989 -6.35705 -1.94221 
18999 1 1.42105 1.43007 -0.461791 
18997 1 7.19817 4.1871 7.87789 
18191 2 0.0726456 0.9061 2.63579 
18190 1 -3.01218 -2.2505 1.06917 
12310 1 2.61867 -2.24458 -4.32953 
12311 2 0.807906 -0.715338 -1.27158 
13813 1 -6.71924 4.81691 -1.31812 
12312 1 3.94242 1.48334 -0.710285 
13814 3 -3.1421 -2.97294 0.569502 
13815 1 4.42096 0.177988 -1.20613 
8941 1 -3.5791 -0.870147 -1.03022 
8942 3 -2.71312 0.459077 4.37431 
8943 1 -2.44071 1.05231 -5.34384 
18801 1 2.34466 -1.55405 -1.99695 
18799 1 4.76296 -6.54375 -3.02806 
18800 3 3.27266 2.49748 0.918822 
12213 1 -1.60883 -0.0171699 0.110815 
12211 1 1.02575 -3.60277 -1.94257 
12212 2 -0.90589 0.914864 -4.75918 
2773 1 1.2631 -1.49439 1.55743 
2774 3 -0.844529 -1.85531 -3.53993 
2775 1 3.87866 -0.622835 0.151315 
21587 3 0.167494 -1.50863 -0.948202 
21586 1 -1.70434 4.36965 1.99863 
1974 1 1.4535 2.85866 3.62437 
1972 1 0.460996 -7.88383 -5.13942 
1973 2 0.426207 -0.391864 0.692749 
13497 1 -4.45223 -2.71336 -0.377656 
13496 3 2.68749 -1.10434 0.903381 
18530 2 -2.51224 2.14783 1.39506 
18529 1 -2.07758 6.87395 -1.32375 
13495 1 -2.62899 4.19377 0.380652 
18531 1 -0.686157 -4.72125 -1.33434 
752 2 -1.26288 -0.212055 -0.790016 
225 1 1.89725 -3.72063 -0.964304 
751 1 -4.8171 -3.63883 1.41945 
224 2 3.7 2.92682 0.788769 
223 1 -1.07193 4.09009 4.66356 
16285 1 -5.21153 1.12064 -2.63039 
16656 1 -0.395303 1.13503 2.35487 
16655 2 -2.76065 -1.24561 -3.61866 
7548 1 2.71337 1.3984 -1.46731 
10756 1 0.200133 2.00237 1.33146 
10758 1 -2.96487 -0.922677 0.817794 
10757 3 0.152769 -0.081077 0.58884 
9314 3 -0.391848 -2.3143 1.08343 
9315 1 4.85244 -5.2922 3.70888 
7547 2 -0.015714 -1.15509 -5.60321 
14239 1 -4.10767 3.00616 3.97734 
7546 1 6.48105 2.67211 -5.69692 
14241 1 3.18166 0.165842 -3.07234 
14240 3 2.05836 4.1245 0.960293 
10782 1 1.69058 -1.67725 -3.36892 
10781 2 0.0929707 -3.18478 0.170558 
10780 1 -2.61585 -2.06808 3.28512 
9313 1 -2.97025 -0.958327 0.780228 
12933 1 1.8553 1.45495 -2.10858 
12931 1 5.40842 1.45837 -0.829868 
12932 2 -3.08563 -2.07386 3.23509 
19752 1 -1.4468 3.23802 1.81587 
19751 3 -1.42144 -0.0649016 0.133171 
19750 1 -0.957494 7.59142 3.87295 
20420 3 3.07859 0.974613 -0.184575 
18360 1 1.20245 -2.14104 -5.82968 
18359 3 0.0148288 -0.34385 -1.74034 
18358 1 7.34452 -2.6639 2.40964 
19097 2 -0.454695 0.667114 0.222147 
19096 1 -3.36983 -1.33657 -0.446496 
19098 1 3.52531 -2.87741 -2.26173 
17584 1 -4.2519 1.45418 6.92885 
17585 3 -0.560008 -0.121332 -2.27387 
21091 1 2.88374 -0.730911 -0.314525 
21093 1 8.39357 -0.982982 -3.38485 
21092 3 2.82577 -1.58908 -0.868769 
2928 1 -0.360549 -4.84972 -5.39251 
2927 2 -0.870024 0.340492 0.658994 
18192 1 -4.21461 -2.84065 -1.83812 
7835 3 3.34768 -0.060618 1.31457 
7834 1 -4.56187 2.63267 -2.99719 
6837 1 5.75505 -0.88785 -5.46252 
6836 2 5.29923 0.139047 -5.81587 
6835 1 -1.97834 1.32914 6.23478 
7836 1 -0.748424 -1.97515 2.24376 
16335 1 3.86106 -3.86294 -4.0821 
16334 3 -3.72557 -4.62431 1.1275 
16333 1 3.15753 4.30284 1.67103 
11012 2 -0.138487 3.59663 -3.73896 
19025 2 -0.075994 1.61563 1.87773 
19024 1 0.458874 -2.23648 -1.49177 
13959 1 -1.94832 3.63708 -0.317528 
13958 3 -0.358306 1.56414 -1.28058 
11013 1 -1.27462 1.74171 2.01085 
13957 1 -4.17957 -0.421617 4.66616 
16654 1 2.52552 -1.10218 -5.08602 
3536 3 -2.0192 -1.92522 -3.83714 
3535 1 3.3304 -4.47001 -1.06561 
3537 1 -3.197 2.36093 2.17174 
8339 3 0.764346 -0.679471 -0.177405 
8340 1 -4.82625 -5.27322 -0.833791 
8338 1 3.76767 -0.604121 -1.6964 
6015 1 -0.249131 -1.24388 -0.182682 
6014 2 -3.10029 1.24137 -3.20522 
6013 1 -5.55878 -4.72179 -2.34491 
20419 1 1.08994 -1.13798 -1.33626 
20421 1 -5.02038 -4.04373 -0.714695 
8793 1 -4.54532 7.00724 -3.68558 
8792 3 1.022 2.29414 -4.90475 
8791 1 -5.2597 2.37857 -5.10692 
9778 1 -1.2477 -1.34254 -3.64453 
9780 1 -0.781845 2.26305 3.16581 
9779 2 -1.73335 -1.74637 -0.839526 
10400 2 1.64856 2.73719 2.33872 
10401 1 -0.824223 1.64515 -4.8159 
21038 2 0.963063 -2.06728 2.96856 
21037 1 -1.0258 -1.7518 2.06868 
21039 1 -2.33195 8.24881 0.232539 
18446 2 -2.2719 1.2344 0.638925 
18445 1 -0.41881 -1.30195 -5.20929 
7794 1 2.83977 -6.8448 4.27569 
7793 2 6.47512 -1.60428 -0.211497 
7792 1 -2.23928 -0.266825 1.63742 
21019 1 0.264214 -2.88496 1.26187 
21020 2 -3.4319 0.299865 -2.07767 
615 1 -7.46573 2.21285 -2.00435 
613 1 -1.60977 0.607934 -2.79714 
614 2 4.03368 -0.585343 0.739419 
12370 1 2.58766 -1.03978 0.712016 
12372 1 2.55238 2.02634 6.03577 
12371 3 -0.371091 1.41826 0.446365 
11698 1 -3.78146 -8.4312 2.00703 
11699 2 -0.805268 -1.59201 -3.31944 
4411 1 -3.87456 -2.24477 -3.27213 
4412 3 1.27714 -5.02763 -0.425419 
4413 1 2.23678 1.68756 2.07687 
10896 1 3.2723 -2.41353 -2.92914 
21021 1 0.536079 0.332757 1.70224 
11700 1 0.883144 1.27076 -1.94871 
6642 1 -4.78546 0.425983 0.475108 
18519 1 -0.217367 5.10259 2.03542 
18517 1 2.41138 2.70288 -0.00311278 
18518 3 -0.331718 -3.59086 1.61329 
12106 1 0.199888 4.49203 1.6804 
12107 2 -3.34188 1.36453 5.11062 
14968 1 3.91536 -2.40168 0.766148 
14970 1 -1.17577 3.18852 -1.74074 
14969 3 5.16011 -0.539545 3.93914 
18352 1 1.36419 0.272148 2.22782 
21409 1 1.10885 -6.38914 4.15492 
18353 3 0.878294 3.50169 7.88095 
18354 1 5.1773 1.91286 -0.84363 
10554 1 -0.106711 0.268657 0.022555 
10552 1 0.363755 -0.859293 7.03327 
10553 2 0.4863 3.38667 1.20363 
21411 1 0.853027 -1.43513 -0.426252 
21410 3 -1.1799 1.19678 1.46501 
12108 1 -1.44168 0.450811 -0.647758 
2926 1 -3.6462 -2.51008 2.25894 
6828 1 4.30485 -0.102522 4.72357 
12538 1 2.59104 -2.5761 -1.88257 
11356 1 -0.253982 -2.28695 0.667186 
11357 3 -3.37445 -1.82943 -0.696262 
11358 1 -9.40846 -0.00726764 0.725327 
12539 2 0.630468 3.19453 -2.6875 
12540 1 4.09798 -1.8868 -1.66639 
709 1 -2.26889 -0.349318 -0.0936985 
710 3 -2.79086 -4.16612 -3.07671 
711 1 -2.3444 -1.72549 0.528616 
17083 1 2.40113 -3.53705 -0.206936 
17084 2 -0.771796 -2.45416 -2.63695 
17085 1 -0.610831 -0.295943 -1.27664 
13751 2 0.129261 -1.15647 2.33169 
13752 1 -1.60215 5.12023 -4.74245 
13750 1 -2.95014 0.564558 0.710858 
17238 1 3.22379 1.36768 4.91342 
16421 2 -3.69285 -2.07763 -0.39866 
11011 1 -0.278334 2.31058 3.0408 
1648 1 2.88937 -1.82558 -3.41918 
1649 2 3.99521 -2.24483 -2.22352 
1650 1 -0.378117 1.3503 -2.53315 
19266 1 1.06799 -0.840522 -4.3881 
21573 1 -0.440893 -0.44249 -3.31368 
21571 1 0.4267 -2.52197 -3.60342 
21572 2 0.7435 -1.09528 1.71637 
19265 2 0.867761 -0.849727 1.94564 
19264 1 0.0977549 -1.52583 -1.05931 
21216 1 9.19693 -1.55722 1.22271 
16422 1 6.69262 2.94921 4.70774 
16420 1 -6.14517 -1.42383 3.86261 
19026 1 2.39252 2.78436 -0.141562 
8464 1 1.64981 2.07546 2.67479 
8466 1 -3.99966 -0.541721 2.48932 
8465 2 0.374335 -1.98324 -1.74997 
18023 3 -3.36184 0.131211 -0.787918 
18024 1 -1.74658 -0.994734 1.31053 
18022 1 -2.53115 -3.12487 -3.21968 
8655 1 -0.866346 9.51992 7.4778 
8653 1 6.80712 0.102322 -0.769359 
8654 3 1.30953 2.98594 -1.13764 
7895 3 -0.732858 3.86958 1.48183 
7894 1 0.878278 -1.41781 2.89498 
7896 1 -1.08217 -6.51996 -2.63237 
18873 1 -6.06397 1.49504 1.35949 
18872 3 2.67836 2.37505 -1.16726 
18871 1 1.9211 1.54489 2.88136 
19834 1 -0.424383 -0.535899 1.12204 
19836 1 0.89001 -5.15147 3.83591 
19835 2 -0.515613 -0.48251 0.534926 
10399 1 -0.0917525 -2.06299 -1.64408 
8562 1 3.41329 -0.333763 0.00143272 
8560 1 6.04845 2.42339 -4.07254 
8561 3 0.0886096 -0.0567473 6.64392 
18447 1 0.109272 2.40183 2.07119 
10894 1 0.0614901 0.0343731 -4.7173 
10895 2 -0.981393 -3.15439 0.285375 
16817 3 -4.51771 0.537215 -3.27963 
16816 1 3.81387 0.910823 -0.654931 
16818 1 -5.97509 0.247756 0.41072 
19453 1 -3.76331 1.44337 -5.79753 
19454 3 -2.98691 2.00604 -2.79473 
6826 1 -1.07331 -0.22534 4.20071 
19455 1 4.5255 1.59465 0.487707 
6827 3 -0.294326 -0.690225 4.17794 
13931 2 1.39461 -1.72668 -1.78069 
13930 1 -3.51012 -0.607731 -1.15176 
14211 1 4.4601 4.17385 1.09069 
14210 3 -0.727782 7.30278 -0.601476 
14209 1 0.124625 -0.807856 -0.864521 
15499 1 -3.62356 -3.59116 -1.86921 
17891 2 2.88455 3.80762 -0.168275 
17892 1 5.32481 -0.683662 0.805645 
17890 1 1.9943 2.31459 3.20978 
13932 1 2.05998 0.191093 4.49046 
3776 2 -3.02316 -3.15806 4.24606 
3777 1 0.930895 4.08551 -6.48122 
15501 1 2.1813 -2.52005 -0.703107 
15500 2 -4.15233 -0.27869 -0.378431 