ITEM: TIMESTEP
0
ITEM: NUMBER OF ATOMS
1887
ITEM: BOX BOUNDS pp pp pp
0.0000000000000000e+00 5.0000000000000000e+01
0.0000000000000000e+00 5.0000000000000000e+01
0.0000000000000000e+00 5.0000000000000000e+01
ITEM: ATOMS id type 
10 1 
11 2 
12 1 
28 1 
29 2 
30 1 
136 1 
137 2 
138 1 
142 1 
143 3 
144 1 
181 1 
182 2 
183 1 
187 1 
188 2 
189 1 
208 1 
209 3 
210 1 
241 1 
242 2 
243 1 
259 1 
260 2 
261 1 
379 1 
380 2 
381 1 
1156 1 
1157 2 
1158 1 
1288 1 
1289 2 
1290 1 
1348 1 
1349 2 
1350 1 
1459 1 
1460 2 
1461 1 
2221 1 
2222 3 
2223 1 
2236 1 
2237 2 
2238 1 
2245 1 
2246 3 
2247 1 
2248 1 
2249 2 
2250 1 
2281 1 
2282 2 
2283 1 
2404 1 
2405 3 
2406 1 
2521 1 
2522 2 
2523 1 
2530 1 
2531 2 
2532 1 
2533 1 
2534 3 
2535 1 
2584 1 
2585 3 
2586 1 
2590 1 
2591 2 
2592 1 
3253 1 
3254 3 
3255 1 
3325 1 
3326 3 
3327 1 
3388 1 
3389 3 
3390 1 
3442 1 
3443 3 
3444 1 
3541 1 
3542 3 
3543 1 
3544 1 
3545 3 
3546 1 
3619 1 
3620 2 
3621 1 
3622 1 
3623 2 
3624 1 
3628 1 
3629 2 
3630 1 
4390 1 
4391 2 
4392 1 
4444 1 
4445 3 
4446 1 
4453 1 
4454 2 
4455 1 
4459 1 
4460 3 
4461 1 
4504 1 
4505 3 
4506 1 
4513 1 
4514 3 
4515 1 
4570 1 
4571 3 
4572 1 
4576 1 
4577 2 
4578 1 
4621 1 
4622 3 
4623 1 
4633 1 
4634 3 
4635 1 
4636 1 
4637 2 
4638 1 
4684 1 
4685 3 
4686 1 
4816 1 
4817 2 
4818 1 
4882 1 
4883 2 
4884 1 
4888 1 
4889 3 
4890 1 
5461 1 
5462 2 
5463 1 
5482 1 
5483 3 
5484 1 
5548 1 
5549 3 
5550 1 
5584 1 
5585 3 
5586 1 
5656 1 
5657 3 
5658 1 
5776 1 
5777 2 
5778 1 
5845 1 
5846 2 
5847 1 
6001 1 
6002 3 
6003 1 
6007 1 
6008 3 
6009 1 
6019 1 
6020 2 
6021 1 
6667 1 
6668 3 
6669 1 
6670 1 
6671 2 
6672 1 
6736 1 
6737 3 
6738 1 
6865 1 
6866 2 
6867 1 
6982 1 
6983 2 
6984 1 
7021 1 
7022 2 
7023 1 
7048 1 
7049 2 
7050 1 
7759 1 
7760 2 
7761 1 
7864 1 
7865 3 
7866 1 
7870 1 
7871 3 
7872 1 
7879 1 
7880 2 
7881 1 
7924 1 
7925 2 
7926 1 
8005 1 
8006 2 
8007 1 
8041 1 
8042 2 
8043 1 
8053 1 
8054 3 
8055 1 
8119 1 
8120 3 
8121 1 
8167 1 
8168 2 
8169 1 
8188 1 
8189 3 
8190 1 
8296 1 
8297 2 
8298 1 
8299 1 
8300 3 
8301 1 
9025 1 
9026 2 
9027 1 
9136 1 
9137 2 
9138 1 
9190 1 
9191 3 
9192 1 
9193 1 
9194 2 
9195 1 
9244 1 
9245 2 
9246 1 
9250 1 
9251 2 
9252 1 
10153 1 
10154 2 
10155 1 
10219 1 
10220 2 
10221 1 
10261 1 
10262 3 
10263 1 
10468 1 
10469 3 
10470 1 
10504 1 
10505 3 
10506 1 
11110 1 
11111 2 
11112 1 
11221 1 
11222 3 
11223 1 
11230 1 
11231 2 
11232 1 
11233 1 
11234 2 
11235 1 
11293 1 
11294 2 
11295 1 
11302 1 
11303 2 
11304 1 
11347 1 
11348 3 
11349 1 
11359 1 
11360 3 
11361 1 
11467 1 
11468 2 
11469 1 
12070 1 
12071 2 
12072 1 
12121 1 
12122 3 
12123 1 
12127 1 
12128 3 
12129 1 
12133 1 
12134 3 
12135 1 
12265 1 
12266 2 
12267 1 
12313 1 
12314 3 
12315 1 
12325 1 
12326 3 
12327 1 
12361 1 
12362 2 
12363 1 
12496 1 
12497 3 
12498 1 
12613 1 
12614 3 
12615 1 
12616 1 
12617 3 
12618 1 
12619 1 
12620 2 
12621 1 
13276 1 
13277 3 
13278 1 
13285 1 
13286 2 
13287 1 
13330 1 
13331 2 
13332 1 
13333 1 
13334 3 
13335 1 
13342 1 
13343 3 
13344 1 
13408 1 
13409 2 
13410 1 
13510 1 
13511 2 
13512 1 
13567 1 
13568 2 
13569 1 
14413 1 
14414 3 
14415 1 
14419 1 
14420 2 
14421 1 
14464 1 
14465 3 
14466 1 
14488 1 
14489 2 
14490 1 
14524 1 
14525 3 
14526 1 
14545 1 
14546 3 
14547 1 
14581 1 
14582 3 
14583 1 
15328 1 
15329 3 
15330 1 
15481 1 
15482 3 
15483 1 
15487 1 
15488 2 
15489 1 
15553 1 
15554 2 
15555 1 
15622 1 
15623 3 
15624 1 
15628 1 
15629 2 
15630 1 
15661 1 
15662 2 
15663 1 
15670 1 
15671 3 
15672 1 
16321 1 
16322 3 
16323 1 
16330 1 
16331 2 
16332 1 
16381 1 
16382 2 
16383 1 
16393 1 
16394 3 
16395 1 
16396 1 
16397 2 
16398 1 
16399 1 
16400 2 
16401 1 
16501 1 
16502 3 
16503 1 
16567 1 
16568 2 
16569 1 
16585 1 
16586 3 
16587 1 
16627 1 
16628 2 
16629 1 
17341 1 
17342 3 
17343 1 
17422 1 
17423 3 
17424 1 
17482 1 
17483 2 
17484 1 
17545 1 
17546 2 
17547 1 
17662 1 
17663 2 
17664 1 
17668 1 
17669 2 
17670 1 
17764 1 
17765 3 
17766 1 
18379 1 
18380 2 
18381 1 
18487 1 
18488 3 
18489 1 
18505 1 
18506 3 
18507 1 
18616 1 
18617 3 
18618 1 
18619 1 
18620 3 
18621 1 
18628 1 
18629 2 
18630 1 
19501 1 
19502 3 
19503 1 
19579 1 
19580 2 
19581 1 
19645 1 
19646 3 
19647 1 
19648 1 
19649 2 
19650 1 
20542 1 
20543 2 
20544 1 
20596 1 
20597 3 
20598 1 
20722 1 
20723 2 
20724 1 
20761 1 
20762 3 
20763 1 
20779 1 
20780 3 
20781 1 
20785 1 
20786 3 
20787 1 
20881 1 
20882 3 
20883 1 
20893 1 
20894 3 
20895 1 
20950 1 
20951 3 
20952 1 
21007 1 
21008 3 
21009 1 
31 1 
32 3 
33 1 
43 1 
44 2 
45 1 
286 1 
287 3 
288 1 
358 1 
359 3 
360 1 
469 1 
470 2 
471 1 
1174 1 
1175 2 
1176 1 
1240 1 
1241 2 
1242 1 
1309 1 
1310 3 
1311 1 
1360 1 
1361 3 
1362 1 
1417 1 
1418 3 
1419 1 
1534 1 
1535 3 
1536 1 
1651 1 
1652 3 
1653 1 
2266 1 
2267 2 
2268 1 
2314 1 
2315 2 
2316 1 
2443 1 
2444 2 
2445 1 
2446 1 
2447 2 
2448 1 
2635 1 
2636 2 
2637 1 
3277 1 
3278 2 
3279 1 
3286 1 
3287 3 
3288 1 
3295 1 
3296 2 
3297 1 
3334 1 
3335 3 
3336 1 
3346 1 
3347 2 
3348 1 
3400 1 
3401 3 
3402 1 
3418 1 
3419 3 
3420 1 
3463 1 
3464 2 
3465 1 
3532 1 
3533 3 
3534 1 
3586 1 
3587 3 
3588 1 
3655 1 
3656 2 
3657 1 
3712 1 
3713 3 
3714 1 
4351 1 
4352 3 
4353 1 
4429 1 
4430 3 
4431 1 
4438 1 
4439 3 
4440 1 
4534 1 
4535 2 
4536 1 
4612 1 
4613 3 
4614 1 
4618 1 
4619 2 
4620 1 
4735 1 
4736 3 
4737 1 
4738 1 
4739 3 
4740 1 
4792 1 
4793 3 
4794 1 
4831 1 
4832 3 
4833 1 
5557 1 
5558 3 
5559 1 
5677 1 
5678 3 
5679 1 
5869 1 
5870 2 
5871 1 
5983 1 
5984 2 
5985 1 
5995 1 
5996 3 
5997 1 
6691 1 
6692 2 
6693 1 
6715 1 
6716 2 
6717 1 
6754 1 
6755 3 
6756 1 
6757 1 
6758 3 
6759 1 
6877 1 
6878 2 
6879 1 
6940 1 
6941 2 
6942 1 
6949 1 
6950 3 
6951 1 
7000 1 
7001 2 
7002 1 
7003 1 
7004 2 
7005 1 
7012 1 
7013 3 
7014 1 
7054 1 
7055 3 
7056 1 
7198 1 
7199 2 
7200 1 
7795 1 
7796 2 
7797 1 
7915 1 
7916 2 
7917 1 
8035 1 
8036 2 
8037 1 
8146 1 
8147 3 
8148 1 
8197 1 
8198 2 
8199 1 
8272 1 
8273 2 
8274 1 
8335 1 
8336 2 
8337 1 
8995 1 
8996 3 
8997 1 
9052 1 
9053 2 
9054 1 
9103 1 
9104 3 
9105 1 
9166 1 
9167 2 
9168 1 
9211 1 
9212 2 
9213 1 
9223 1 
9224 3 
9225 1 
9229 1 
9230 2 
9231 1 
9271 1 
9272 2 
9273 1 
9286 1 
9287 2 
9288 1 
9340 1 
9341 3 
9342 1 
9346 1 
9347 3 
9348 1 
10015 1 
10016 3 
10017 1 
10120 1 
10121 3 
10122 1 
10129 1 
10130 2 
10131 1 
10135 1 
10136 2 
10137 1 
10297 1 
10298 3 
10299 1 
10303 1 
10304 2 
10305 1 
10306 1 
10307 2 
10308 1 
10354 1 
10355 3 
10356 1 
10360 1 
10361 3 
10362 1 
10375 1 
10376 2 
10377 1 
10411 1 
10412 2 
10413 1 
10531 1 
10532 2 
10533 1 
11155 1 
11156 2 
11157 1 
11203 1 
11204 3 
11205 1 
11263 1 
11264 2 
11265 1 
11371 1 
11372 2 
11373 1 
11506 1 
11507 2 
11508 1 
12115 1 
12116 2 
12117 1 
12118 1 
12119 3 
12120 1 
12151 1 
12152 2 
12153 1 
12160 1 
12161 3 
12162 1 
12229 1 
12230 3 
12231 1 
12280 1 
12281 2 
12282 1 
12334 1 
12335 3 
12336 1 
12337 1 
12338 3 
12339 1 
12349 1 
12350 2 
12351 1 
12466 1 
12467 2 
12468 1 
12586 1 
12587 2 
12588 1 
13411 1 
13412 2 
13413 1 
13417 1 
13418 3 
13419 1 
13420 1 
13421 2 
13422 1 
13486 1 
13487 3 
13488 1 
13591 1 
13592 3 
13593 1 
13615 1 
13616 2 
13617 1 
14311 1 
14312 3 
14313 1 
14314 1 
14315 2 
14316 1 
14326 1 
14327 3 
14328 1 
14458 1 
14459 2 
14460 1 
14494 1 
14495 2 
14496 1 
14620 1 
14621 3 
14622 1 
14626 1 
14627 3 
14628 1 
14635 1 
14636 3 
14637 1 
14671 1 
14672 2 
14673 1 
15346 1 
15347 2 
15348 1 
15457 1 
15458 2 
15459 1 
15466 1 
15467 2 
15468 1 
15475 1 
15476 2 
15477 1 
15478 1 
15479 3 
15480 1 
15514 1 
15515 3 
15516 1 
15751 1 
15752 3 
15753 1 
15772 1 
15773 3 
15774 1 
16357 1 
16358 3 
16359 1 
16375 1 
16376 2 
16377 1 
16471 1 
16472 2 
16473 1 
16495 1 
16496 3 
16497 1 
17326 1 
17327 3 
17328 1 
17398 1 
17399 2 
17400 1 
17440 1 
17441 2 
17442 1 
17443 1 
17444 2 
17445 1 
17446 1 
17447 3 
17448 1 
17500 1 
17501 3 
17502 1 
17617 1 
17618 3 
17619 1 
17635 1 
17636 3 
17637 1 
17689 1 
17690 3 
17691 1 
17692 1 
17693 3 
17694 1 
17734 1 
17735 3 
17736 1 
18406 1 
18407 3 
18408 1 
18409 1 
18410 2 
18411 1 
18457 1 
18458 2 
18459 1 
18469 1 
18470 3 
18471 1 
18571 1 
18572 3 
18573 1 
18697 1 
18698 3 
18699 1 
18817 1 
18818 2 
18819 1 
18880 1 
18881 2 
18882 1 
19669 1 
19670 2 
19671 1 
19675 1 
19676 2 
19677 1 
19717 1 
19718 3 
19719 1 
19852 1 
19853 3 
19854 1 
20680 1 
20681 3 
20682 1 
20794 1 
20795 3 
20796 1 
20929 1 
20930 3 
20931 1 
20998 1 
20999 2 
21000 1 
544 1 
545 3 
546 1 
550 1 
551 2 
552 1 
565 1 
566 2 
567 1 
601 1 
602 2 
603 1 
685 1 
686 2 
687 1 
796 1 
797 3 
798 1 
907 1 
908 3 
909 1 
1108 1 
1109 2 
1110 1 
1684 1 
1685 2 
1686 1 
1690 1 
1691 2 
1692 1 
1753 1 
1754 2 
1755 1 
1756 1 
1757 3 
1758 1 
1873 1 
1874 3 
1875 1 
1888 1 
1889 2 
1890 1 
1984 1 
1985 3 
1986 1 
2668 1 
2669 2 
2670 1 
2710 1 
2711 3 
2712 1 
2779 1 
2780 3 
2781 1 
2788 1 
2789 2 
2790 1 
2830 1 
2831 3 
2832 1 
2887 1 
2888 2 
2889 1 
2893 1 
2894 3 
2895 1 
2944 1 
2945 3 
2946 1 
2950 1 
2951 3 
2952 1 
2956 1 
2957 3 
2958 1 
3061 1 
3062 3 
3063 1 
3142 1 
3143 3 
3144 1 
3793 1 
3794 2 
3795 1 
3799 1 
3800 3 
3801 1 
3859 1 
3860 2 
3861 1 
3907 1 
3908 3 
3909 1 
3928 1 
3929 2 
3930 1 
4039 1 
4040 3 
4041 1 
4108 1 
4109 2 
4110 1 
4141 1 
4142 3 
4143 1 
4159 1 
4160 2 
4161 1 
4162 1 
4163 2 
4164 1 
4201 1 
4202 2 
4203 1 
4288 1 
4289 2 
4290 1 
4936 1 
4937 2 
4938 1 
4948 1 
4949 3 
4950 1 
5044 1 
5045 2 
5046 1 
5047 1 
5048 2 
5049 1 
5119 1 
5120 2 
5121 1 
5347 1 
5348 2 
5349 1 
5350 1 
5351 3 
5352 1 
5362 1 
5363 2 
5364 1 
5368 1 
5369 3 
5370 1 
5419 1 
5420 3 
5421 1 
6061 1 
6062 3 
6063 1 
6088 1 
6089 3 
6090 1 
6319 1 
6320 2 
6321 1 
6448 1 
6449 3 
6450 1 
6499 1 
6500 3 
6501 1 
6502 1 
6503 3 
6504 1 
6541 1 
6542 2 
6543 1 
6550 1 
6551 3 
6552 1 
6565 1 
6566 3 
6567 1 
6613 1 
6614 3 
6615 1 
7402 1 
7403 2 
7404 1 
7456 1 
7457 3 
7458 1 
7510 1 
7511 2 
7512 1 
7639 1 
7640 2 
7641 1 
8344 1 
8345 3 
8346 1 
8365 1 
8366 2 
8367 1 
8425 1 
8426 2 
8427 1 
8488 1 
8489 2 
8490 1 
8770 1 
8771 3 
8772 1 
8773 1 
8774 3 
8775 1 
9421 1 
9422 2 
9423 1 
9442 1 
9443 3 
9444 1 
9565 1 
9566 2 
9567 1 
9685 1 
9686 2 
9687 1 
9793 1 
9794 3 
9795 1 
9856 1 
9857 3 
9858 1 
9919 1 
9920 2 
9921 1 
10648 1 
10649 3 
10650 1 
10813 1 
10814 2 
10815 1 
10921 1 
10922 3 
10923 1 
10936 1 
10937 3 
10938 1 
11530 1 
11531 2 
11532 1 
11641 1 
11642 3 
11643 1 
11668 1 
11669 2 
11670 1 
11713 1 
11714 3 
11715 1 
11788 1 
11789 3 
11790 1 
12010 1 
12011 3 
12012 1 
12724 1 
12725 3 
12726 1 
12781 1 
12782 3 
12783 1 
12850 1 
12851 2 
12852 1 
12862 1 
12863 3 
12864 1 
12916 1 
12917 2 
12918 1 
12979 1 
12980 3 
12981 1 
13105 1 
13106 3 
13107 1 
13639 1 
13640 2 
13641 1 
13684 1 
13685 2 
13686 1 
13699 1 
13700 3 
13701 1 
13765 1 
13766 3 
13767 1 
13768 1 
13769 3 
13770 1 
13861 1 
13862 2 
13863 1 
13885 1 
13886 2 
13887 1 
13927 1 
13928 3 
13929 1 
14104 1 
14105 2 
14106 1 
14122 1 
14123 2 
14124 1 
14707 1 
14708 2 
14709 1 
14713 1 
14714 3 
14715 1 
14824 1 
14825 3 
14826 1 
14899 1 
14900 2 
14901 1 
14902 1 
14903 3 
14904 1 
15004 1 
15005 2 
15006 1 
15064 1 
15065 3 
15066 1 
15079 1 
15080 3 
15081 1 
15787 1 
15788 2 
15789 1 
15850 1 
15851 3 
15852 1 
15913 1 
15914 2 
15915 1 
15979 1 
15980 2 
15981 1 
16048 1 
16049 2 
16050 1 
16162 1 
16163 2 
16164 1 
16207 1 
16208 2 
16209 1 
16267 1 
16268 3 
16269 1 
16744 1 
16745 2 
16746 1 
16870 1 
16871 3 
16872 1 
16879 1 
16880 2 
16881 1 
17953 1 
17954 2 
17955 1 
17956 1 
17957 3 
17958 1 
18028 1 
18029 3 
18030 1 
18268 1 
18269 3 
18270 1 
19021 1 
19022 3 
19023 1 
19036 1 
19037 3 
19038 1 
19039 1 
19040 2 
19041 1 
19090 1 
19091 3 
19092 1 
19108 1 
19109 2 
19110 1 
19321 1 
19322 2 
19323 1 
19336 1 
19337 2 
19338 1 
19339 1 
19340 3 
19341 1 
19399 1 
19400 2 
19401 1 
19402 1 
19403 3 
19404 1 
20008 1 
20009 3 
20010 1 
20107 1 
20108 3 
20109 1 
20224 1 
20225 3 
20226 1 
20413 1 
20414 3 
20415 1 
20470 1 
20471 3 
20472 1 
20482 1 
20483 2 
20484 1 
21061 1 
21062 3 
21063 1 
21148 1 
21149 2 
21150 1 
21247 1 
21248 3 
21249 1 
21301 1 
21302 3 
21303 1 
21364 1 
21365 3 
21366 1 
21376 1 
21377 3 
21378 1 
21388 1 
21389 3 
21390 1 
21421 1 
21422 2 
21423 1 
21484 1 
21485 3 
21486 1 
21508 1 
21509 3 
21510 1 
21553 1 
21554 3 
21555 1 
589 1 
590 3 
591 1 
697 1 
698 3 
699 1 
937 1 
938 2 
939 1 
1003 1 
1004 3 
1005 1 
1069 1 
1070 3 
1071 1 
1078 1 
1079 3 
1080 1 
1129 1 
1130 3 
1131 1 
1135 1 
1136 3 
1137 1 
1894 1 
1895 3 
1896 1 
1960 1 
1961 3 
1962 1 
1963 1 
1964 3 
1965 1 
2014 1 
2015 3 
2016 1 
2074 1 
2075 2 
2076 1 
2098 1 
2099 2 
2100 1 
2131 1 
2132 3 
2133 1 
2191 1 
2192 3 
2193 1 
2740 1 
2741 3 
2742 1 
2809 1 
2810 3 
2811 1 
2863 1 
2864 2 
2865 1 
2923 1 
2924 2 
2925 1 
2971 1 
2972 2 
2973 1 
2998 1 
2999 3 
3000 1 
3094 1 
3095 3 
3096 1 
3811 1 
3812 3 
3813 1 
3832 1 
3833 2 
3834 1 
3937 1 
3938 3 
3939 1 
4075 1 
4076 3 
4077 1 
4120 1 
4121 2 
4122 1 
4258 1 
4259 2 
4260 1 
4300 1 
4301 2 
4302 1 
4954 1 
4955 3 
4956 1 
5071 1 
5072 3 
5073 1 
5275 1 
5276 2 
5277 1 
5395 1 
5396 2 
5397 1 
5434 1 
5435 3 
5436 1 
6097 1 
6098 3 
6099 1 
6106 1 
6107 2 
6108 1 
6217 1 
6218 3 
6219 1 
6220 1 
6221 3 
6222 1 
6283 1 
6284 3 
6285 1 
6298 1 
6299 3 
6300 1 
6340 1 
6341 2 
6342 1 
6400 1 
6401 3 
6402 1 
6418 1 
6419 3 
6420 1 
6478 1 
6479 3 
6480 1 
6655 1 
6656 2 
6657 1 
7555 1 
7556 2 
7557 1 
7711 1 
7712 2 
7713 1 
7717 1 
7718 3 
7719 1 
7735 1 
7736 3 
7737 1 
8377 1 
8378 2 
8379 1 
8383 1 
8384 2 
8385 1 
8395 1 
8396 2 
8397 1 
8494 1 
8495 2 
8496 1 
8506 1 
8507 2 
8508 1 
8572 1 
8573 2 
8574 1 
8617 1 
8618 3 
8619 1 
8734 1 
8735 2 
8736 1 
8752 1 
8753 2 
8754 1 
8797 1 
8798 3 
8799 1 
8803 1 
8804 2 
8805 1 
8878 1 
8879 2 
8880 1 
9403 1 
9404 2 
9405 1 
9463 1 
9464 2 
9465 1 
9532 1 
9533 3 
9534 1 
9706 1 
9707 3 
9708 1 
9937 1 
9938 3 
9939 1 
10729 1 
10730 3 
10731 1 
10789 1 
10790 2 
10791 1 
10834 1 
10835 2 
10836 1 
10951 1 
10952 2 
10953 1 
10969 1 
10970 3 
10971 1 
11026 1 
11027 3 
11028 1 
11086 1 
11087 2 
11088 1 
11098 1 
11099 3 
11100 1 
11629 1 
11630 3 
11631 1 
11686 1 
11687 3 
11688 1 
11734 1 
11735 3 
11736 1 
11794 1 
11795 2 
11796 1 
11812 1 
11813 3 
11814 1 
11869 1 
11870 3 
11871 1 
11878 1 
11879 3 
11880 1 
11938 1 
11939 3 
11940 1 
11980 1 
11981 3 
11982 1 
12709 1 
12710 3 
12711 1 
12712 1 
12713 2 
12714 1 
12760 1 
12761 2 
12762 1 
12811 1 
12812 3 
12813 1 
12874 1 
12875 2 
12876 1 
12877 1 
12878 2 
12879 1 
12886 1 
12887 3 
12888 1 
12889 1 
12890 3 
12891 1 
13075 1 
13076 3 
13077 1 
13123 1 
13124 2 
13125 1 
13663 1 
13664 2 
13665 1 
13714 1 
13715 2 
13716 1 
13831 1 
13832 3 
13833 1 
13891 1 
13892 2 
13893 1 
14011 1 
14012 2 
14013 1 
14023 1 
14024 3 
14025 1 
14029 1 
14030 2 
14031 1 
14746 1 
14747 3 
14748 1 
14938 1 
14939 2 
14940 1 
14971 1 
14972 2 
14973 1 
14986 1 
14987 3 
14988 1 
15094 1 
15095 3 
15096 1 
15109 1 
15110 3 
15111 1 
15166 1 
15167 3 
15168 1 
15214 1 
15215 2 
15216 1 
15271 1 
15272 3 
15273 1 
15814 1 
15815 3 
15816 1 
15817 1 
15818 3 
15819 1 
15826 1 
15827 3 
15828 1 
15883 1 
15884 2 
15885 1 
15934 1 
15935 3 
15936 1 
15940 1 
15941 2 
15942 1 
16120 1 
16121 3 
16122 1 
16129 1 
16130 3 
16131 1 
16135 1 
16136 3 
16137 1 
16252 1 
16253 2 
16254 1 
16291 1 
16292 3 
16293 1 
16315 1 
16316 3 
16317 1 
16966 1 
16967 2 
16968 1 
16972 1 
16973 3 
16974 1 
17089 1 
17090 2 
17091 1 
17212 1 
17213 2 
17214 1 
17269 1 
17270 3 
17271 1 
17851 1 
17852 2 
17853 1 
17854 1 
17855 2 
17856 1 
17857 1 
17858 2 
17859 1 
17986 1 
17987 3 
17988 1 
18040 1 
18041 2 
18042 1 
18112 1 
18113 3 
18114 1 
18157 1 
18158 2 
18159 1 
19063 1 
19064 3 
19065 1 
19132 1 
19133 3 
19134 1 
19258 1 
19259 3 
19260 1 
19354 1 
19355 3 
19356 1 
20032 1 
20033 3 
20034 1 
20131 1 
20132 2 
20133 1 
20146 1 
20147 2 
20148 1 
20194 1 
20195 2 
20196 1 
20311 1 
20312 2 
20313 1 
20491 1 
20492 3 
20493 1 
20512 1 
20513 2 
20514 1 
21154 1 
21155 2 
21156 1 
21397 1 
21398 2 
21399 1 
21415 1 
21416 3 
21417 1 
21595 1 
21596 3 
21597 1 
