ITEM: TIMESTEP
60000000
ITEM: NUMBER OF ATOMS
3057
ITEM: BOX BOUNDS pp pp pp
0.0000000000000000e+00 5.0000000000000000e+01
0.0000000000000000e+00 5.0000000000000000e+01
0.0000000000000000e+00 5.0000000000000000e+01
ITEM: ATOMS id type vx vy vz 
1111 1 0.958566 -0.96376 1.86794 
5292 1 -5.77406 1.64405 0.197886 
5291 2 -5.27316 1.97825 0.699684 
15445 1 -6.26244 2.43635 -7.09718 
8105 3 0.821252 2.57903 1.13527 
8106 1 -1.55651 -4.05839 -6.49425 
5290 1 0.271365 2.98671 -1.66989 
8104 1 -2.10942 3.91453 -8.93244 
1113 1 3.32162 2.0358 0.70583 
1112 2 2.35567 -2.39015 1.67432 
6680 2 0.206631 -3.72374 -1.77395 
12997 1 -3.60961 4.4158 -6.94107 
12998 3 0.779946 -0.27536 3.99341 
13321 1 -5.3338 -4.68366 -2.21105 
12999 1 0.01804 -0.490016 1.59834 
13322 2 0.303649 -1.9482 -6.39462 
10570 1 -2.37646 -0.116373 -7.98453 
10571 2 -3.33647 -3.71938 0.317258 
10572 1 3.61927 -8.24427 -0.91173 
13900 1 4.72726 -3.08184 4.04214 
13901 3 0.282759 -2.72892 1.80863 
13197 1 -2.72902 -4.66525 3.11569 
15068 2 0.509138 -3.34651 0.562063 
15067 1 -1.51022 -2.04615 -0.0182195 
16605 1 -2.17961 -2.40856 -0.826233 
16604 2 -0.508036 -0.282162 1.38708 
16603 1 -5.44066 2.22158 -1.92453 
2025 1 -4.34127 5.36755 -2.41114 
2024 2 0.727905 1.42914 0.228014 
18996 1 -2.33937 0.216327 -6.94749 
15447 1 1.19689 -4.23538 2.43946 
18995 3 -3.61613 3.97484 6.38883 
15446 2 -1.45231 -2.3145 0.518644 
18994 1 -3.80632 -1.23231 -2.7357 
2204 2 0.589835 -2.80165 0.207676 
13272 1 -1.63639 7.7913 4.21495 
2205 1 -2.1491 4.06594 -4.78619 
13271 2 1.09981 -3.14476 1.90285 
11443 1 -4.91211 1.22963 6.83708 
13270 1 5.01581 5.19614 3.49672 
11444 2 5.4304 0.0986905 -0.37417 
11859 1 0.409385 2.95618 -1.65051 
12399 1 2.64497 1.81434 3.94586 
12398 2 1.11956 0.746458 -0.608811 
12397 1 0.266101 -1.34812 0.604815 
1518 1 0.488531 -1.65782 -2.01919 
17439 1 1.53255 3.56842 -0.649152 
11445 1 -0.840069 2.59428 1.21741 
17438 2 -0.517775 3.75059 0.506845 
17437 1 -2.1975 2.47885 0.331774 
15878 3 3.5686 1.32111 1.18159 
15877 1 5.07708 -2.81774 -4.95787 
15879 1 2.17123 -1.71101 -2.56971 
7348 1 0.885002 1.62906 0.301689 
7349 3 0.225958 -3.85981 1.31001 
20260 1 -5.02136 4.3116 -2.71249 
11403 1 0.79766 -1.87146 0.919584 
12097 1 -4.30357 4.17969 -2.927 
7350 1 -4.13506 -7.12722 -1.04321 
12098 2 1.685 4.9183 1.1348 
12099 1 -3.89959 0.489758 -3.1287 
11402 2 4.36263 -2.666 1.9506 
11401 1 -0.214001 0.127365 -2.57731 
17179 1 -0.858627 -1.91388 -2.78769 
10945 1 -0.309587 -1.45151 -0.456231 
1804 1 4.55324 2.47772 -1.80704 
10947 1 -1.36625 -0.645127 4.63441 
10946 3 -3.66335 3.0956 0.201862 
6679 1 3.45656 -3.19146 0.924805 
1805 3 0.460182 0.543892 2.43672 
11702 3 -1.69107 -4.32849 -1.002 
11703 1 -1.32446 1.81022 4.54064 
20261 2 -2.10931 -3.91225 3.77315 
6681 1 0.035967 -0.167454 7.78194 
20262 1 0.707224 4.71679 3.5569 
6421 1 -1.73954 -6.95712 -2.36857 
16802 2 -3.34485 -3.89714 0.66659 
19348 1 -1.55226 5.13516 5.50192 
13323 1 2.12559 4.02305 -3.22442 
18267 1 4.77636 3.86535 2.43518 
16803 1 5.32181 -0.072787 4.23254 
19349 2 -2.5495 -3.86631 0.31835 
18542 2 -2.15604 0.586638 -0.705835 
13902 1 5.46868 -0.307961 1.36428 
18541 1 -4.24505 -1.58826 -7.60954 
13196 2 3.69731 0.977726 -0.25058 
17572 1 -4.38636 -2.88878 -2.91187 
15261 1 4.37354 -0.373658 -2.85611 
20277 1 7.21417 -4.56974 2.01384 
15259 1 1.79149 8.02658 -4.44084 
18543 1 -5.31729 2.10143 -0.666888 
13195 1 2.15268 2.74477 -0.141893 
17393 2 -2.79954 -1.90501 5.18298 
549 1 -5.93094 -5.09391 1.73231 
17392 1 2.07315 -3.24703 -3.4591 
15069 1 6.21307 4.06516 -0.218847 
17573 2 0.547519 -2.92511 -0.17338 
17574 1 -4.96997 -3.29413 0.651962 
548 2 -0.18591 1.94966 0.237761 
20985 1 4.70177 3.09243 3.33859 
19350 1 -3.8146 -2.41982 0.879689 
20984 2 0.166215 -3.01505 -0.590984 
547 1 -4.17888 2.10826 -2.8083 
8928 1 2.45264 -0.864602 -0.646909 
21017 3 5.22801 -3.59534 2.58242 
21016 1 0.764953 -3.01133 9.02513 
15260 2 -1.87603 -1.34415 -1.12206 
12861 1 7.03947 3.19115 -6.19525 
12859 1 -0.34845 2.00709 6.27971 
12860 2 -1.27418 0.62224 -0.915436 
10062 1 -5.12089 -2.72002 4.18341 
14919 1 -2.69287 -0.41604 -2.19429 
10061 2 -5.00553 -1.4641 0.643394 
14918 2 -4.61999 4.69499 0.37095 
14917 1 -2.11885 3.97195 -0.732541 
9900 1 1.13092 0.746063 0.351122 
12410 2 -0.0872114 -2.96184 0.6511 
12411 1 1.65022 3.69276 1.73745 
2023 1 -5.4063 4.62876 6.32447 
10060 1 -1.44971 -1.45662 5.78595 
8926 1 -0.853365 1.23556 -0.922183 
14014 1 3.20192 -2.06548 2.13413 
8927 2 2.11336 0.633896 0.375203 
14015 2 0.497701 4.74416 -1.76245 
21018 1 0.167276 4.45633 -5.3454 
6652 1 0.690464 2.96535 -0.197524 
6653 3 3.74949 -1.83955 0.148561 
6654 1 -2.87279 -0.289573 4.08016 
19045 1 -4.03119 -1.52327 2.9463 
19046 2 1.1685 -0.876154 -2.47924 
13505 2 0.250775 3.2901 -1.78683 
13506 1 -1.43297 6.10354 5.13248 
9903 1 4.38142 1.83565 -4.55619 
15322 1 -1.06236 3.32518 0.626634 
9901 1 1.26885 -3.82055 2.66145 
9902 2 -3.92159 2.77648 -1.78484 
13504 1 3.80449 -3.36369 5.21173 
268 1 -1.04468 -0.835919 -4.83652 
6572 3 -1.38732 -3.9113 -3.01569 
6571 1 0.29554 -1.16155 -4.9665 
3165 1 2.49661 -3.18242 -0.477668 
12322 1 3.32153 -0.534904 3.19997 
12323 2 1.22339 4.04365 -3.34695 
12324 1 2.04006 2.33558 1.53845 
6573 1 1.21566 6.57523 0.122877 
3164 2 -0.572082 0.144458 -3.031 
3685 1 3.44341 0.87346 1.70527 
3686 3 3.36069 0.8964 -4.47056 
3163 1 -0.673244 1.86125 0.435723 
3687 1 -5.97458 6.2951 4.71831 
11857 1 -3.18988 -4.13502 -5.14179 
9175 1 -4.71905 -3.22614 1.4908 
11858 2 1.98783 -0.73626 -0.757654 
19047 1 -5.97481 6.08159 -8.55918 
17109 1 0.430225 -1.87573 1.04056 
17108 2 0.462094 -0.0103838 -0.932212 
17107 1 1.81458 3.37383 0.706965 
14896 1 -3.44004 3.40715 -1.57068 
14897 2 -3.37758 2.50969 -3.27651 
12846 1 0.133098 0.912069 1.6849 
12845 2 -1.6428 0.970207 2.98934 
1517 2 -1.80299 -2.28642 -2.35167 
7190 2 2.70204 3.33849 0.4597 
7191 1 5.20072 -1.06297 3.00889 
1516 1 5.86648 4.89034 -7.75296 
12844 1 7.05344 -6.80931 -1.30351 
2356 1 -1.29878 1.96428 -0.360212 
2357 2 3.94386 3.92231 -3.70751 
15323 2 -1.68303 0.382785 1.62476 
18793 1 0.618906 -2.50825 -4.63996 
7288 1 0.0770138 2.19126 3.01445 
14898 1 -3.22566 -1.46032 -2.01298 
19483 1 2.25094 2.17383 1.16779 
19484 2 1.86974 1.16774 -1.62121 
2358 1 0.437297 0.157609 6.69369 
19485 1 -8.04244 0.255761 5.5309 
19385 2 -3.40187 -0.0671849 0.874046 
19386 1 -5.89454 1.96655 1.89207 
19384 1 0.0563655 6.01303 5.3034 
4959 1 -5.88156 5.14547 5.52847 
8161 1 -0.952544 0.203541 0.322781 
13739 2 3.24622 3.94131 -0.467858 
13740 1 -6.44448 3.44159 -3.60744 
13738 1 -5.64676 -0.250683 -3.58506 
12654 1 3.94453 2.17075 -0.530602 
12652 1 6.4965 -3.14391 2.93368 
12653 3 2.43979 0.514193 1.9538 
16240 1 -4.80158 -3.09 -2.41586 
13198 1 -2.63242 -2.83419 7.82819 
5028 1 -0.0388672 5.34403 -1.44435 
5027 3 -1.2469 -6.60237 1.85779 
21207 1 0.801875 2.63825 -1.1637 
5026 1 -5.43102 -0.946011 -0.10858 
13735 1 2.0502 -7.50173 -0.674835 
13736 2 1.97399 2.56371 -0.234475 
13737 1 -5.01602 3.7839 -0.102061 
1284 1 -4.59918 0.32607 -5.44516 
17180 2 0.98579 5.81426 3.87458 
17677 1 1.29485 -1.54123 -1.97148 
17181 1 0.738676 -0.709014 -6.91857 
17678 2 3.16448 0.111198 1.75269 
13200 1 -1.98176 -2.2453 -5.90936 
13199 2 4.21896 -1.23936 4.58521 
15037 1 5.12485 3.03565 -3.49038 
8887 1 4.94192 0.764823 -4.06001 
15039 1 -3.27679 -2.06983 3.76963 
15038 2 1.18026 -1.46148 -2.67259 
17517 1 1.11027 -3.18791 -1.27368 
17516 3 6.3751 1.1904 0.355434 
1806 1 1.84542 -1.21227 1.10756 
21451 1 -2.2766 3.65533 1.946 
8844 1 -2.80383 -1.64241 3.11085 
21452 3 1.3566 2.73639 2.8346 
11701 1 0.262375 7.03308 -2.18546 
21453 1 1.95449 -1.33002 -1.73071 
14325 1 2.32809 -3.02482 -8.63167 
4912 1 -9.17371 2.9487 0.20158 
8843 3 1.64942 -3.30496 1.23057 
1283 3 4.55968 0.999224 0.306119 
1282 1 1.72436 -2.23267 4.61388 
17496 1 -2.37452 0.506803 1.83257 
17495 2 0.0916448 3.77293 0.412926 
8842 1 5.35537 0.53713 -6.4707 
14323 1 -0.625795 -0.186962 4.64007 
17494 1 -0.389204 -0.625912 0.127435 
18266 2 -3.30623 3.40361 -0.28443 
4913 2 -0.663505 3.52315 2.08913 
1741 1 0.717563 -3.76222 -4.12648 
1742 2 -3.74384 0.534961 -3.67756 
18265 1 4.74675 0.0434209 1.03724 
4914 1 4.00353 6.42838 -1.88079 
9270 1 1.97484 -2.15058 -7.60672 
1743 1 2.51675 3.82146 -1.97055 
17281 1 6.18027 1.51784 2.86139 
14177 3 -1.23209 3.53329 2.19363 
14178 1 2.08293 -3.21127 4.47952 
17515 1 2.13359 -2.18291 -1.59821 
13245 1 4.21727 -3.23143 -0.53788 
14176 1 2.26659 3.95703 -7.06003 
13244 2 -0.310106 -1.34157 0.905507 
20276 2 -0.520369 3.21278 1.76211 
20275 1 0.668754 -0.850268 3.26751 
14324 2 3.20124 2.92369 0.0263176 
14442 1 -3.31624 2.71336 -0.0449067 
3475 1 -0.181891 -1.00641 -3.1823 
15411 1 1.8993 -2.64605 0.00982351 
15410 2 3.76054 -3.34012 -2.77755 
13243 1 4.36997 -3.00494 1.45603 
3476 2 2.05906 0.530893 -2.01037 
5911 1 0.103923 -0.14397 1.16151 
3477 1 -1.55006 -5.32838 -1.67188 
5212 1 -3.26599 -1.07027 -2.76973 
20983 1 -0.0564588 0.897602 -1.19911 
15409 1 -1.10904 0.0367475 2.54947 
20097 1 2.28329 -0.945184 0.544924 
18333 1 -0.125809 3.46092 0.250118 
20096 2 -1.29711 0.801055 -2.63072 
20095 1 2.4791 -5.29462 -1.01545 
13361 2 -0.00709741 -1.57059 0.410231 
5214 1 -4.43967 1.32504 -0.00935268 
13360 1 1.67091 1.43205 -2.78553 
16485 1 -4.85304 -0.0321377 -2.01268 
11378 3 2.75877 3.5034 -0.153579 
11377 1 11.8759 0.771004 -0.72005 
14441 2 1.31616 1.08336 2.00211 
17732 2 0.784869 6.04767 -4.1147 
17733 1 0.0264015 -2.27714 -1.9928 
17731 1 8.35037 -4.43478 -9.34094 
9899 2 -2.46985 -3.81619 -4.97865 
14016 1 6.52182 7.47513 6.19714 
5213 2 0.00483463 -4.59435 0.929396 
14440 1 2.25829 5.08083 7.12319 
15040 1 -3.38589 4.14353 -5.77932 
9898 1 -3.3806 0.435551 6.59423 
15041 2 1.48031 -0.306781 -1.47745 
15042 1 -1.20533 1.27097 1.73082 
7563 1 4.10819 6.32092 -4.01537 
7675 1 5.22629 -1.5526 -2.71949 
7676 3 -3.45409 -0.47018 1.68483 
8269 1 -3.75971 -4.04199 -5.48748 
7677 1 -6.97602 -3.37552 0.412037 
8270 2 -0.344156 0.163824 1.68146 
8271 1 -0.648414 3.80318 2.43018 
13167 1 4.22999 -3.89393 -4.29555 
7027 1 6.0574 0.383169 3.97203 
7029 1 8.66703 0.143091 1.53542 
7028 2 1.17549 -3.53939 -0.0679674 
9177 1 -6.85828 2.65095 -1.64056 
13165 1 -6.89918 -2.75144 1.45674 
2220 1 -3.8167 -7.27262 2.14817 
18718 1 0.219997 1.5979 -0.257788 
2219 2 -1.96774 0.56825 0.926227 
13166 2 -2.03637 -2.90503 1.1905 
8025 1 1.99318 -0.591004 -2.24491 
2218 1 -1.54946 -4.4141 4.00321 
8024 2 -2.00982 3.4889 1.75035 
8023 1 3.60773 5.05488 0.522091 
8144 2 -1.40979 0.596747 2.56394 
15324 1 -2.2424 -6.50756 1.92099 
1543 1 2.83735 2.77962 3.25883 
9983 2 -1.40484 -0.826078 2.46754 
9984 1 1.02726 5.0183 2.51054 
16080 1 3.16267 2.71554 0.151859 
9982 1 -3.70648 12.0201 -1.82518 
1544 2 -1.11809 -3.09167 1.95758 
16079 2 -2.37518 3.6062 -3.32517 
8145 1 0.980741 -1.47909 -4.53362 
8143 1 -2.90513 -5.91133 -0.38164 
16078 1 1.07664 -3.52823 -1.77474 
18868 1 -2.47731 6.90189 -0.0971381 
9176 3 3.59578 -0.672409 -3.52665 
1234 1 -0.474787 -4.89607 0.11296 
8289 1 0.842344 2.6096 -4.62949 
8288 2 -1.19208 1.66776 -1.02643 
8287 1 2.44048 4.07064 1.13149 
11522 2 2.34485 -2.71448 3.41122 
11523 1 4.63802 3.86464 -2.38347 
663 1 -0.723991 -5.32709 1.96884 
662 2 -2.3483 -1.10262 -1.73135 
661 1 4.65725 -2.30852 2.31086 
4474 1 -4.34353 -1.81218 1.1391 
14238 1 -1.35221 -1.06498 6.62791 
4475 2 -0.98368 0.715904 4.9407 
18794 2 -0.657332 -2.56643 0.336836 
1545 1 5.50416 -7.5006 5.09206 
5625 1 -3.85252 2.41679 5.56985 
5624 2 -3.88205 1.71692 2.0806 
5623 1 -3.10871 -2.62553 -0.447113 
1492 1 4.05453 5.03854 -5.67397 
1493 2 1.75805 -6.29908 -0.662131 
7289 3 -0.842987 0.743587 4.03737 
1236 1 -1.45757 -4.90451 -0.241157 
7290 1 2.33286 -2.90408 2.75534 
1235 3 -0.0118286 0.377059 1.17313 
11521 1 8.26031 2.62678 -1.21831 
13670 2 -3.31783 -2.37909 1.2376 
320 2 3.37627 0.933087 -0.15253 
321 1 -5.89325 -0.280563 4.82856 
13669 1 2.13023 3.77642 0.740237 
20654 2 3.2091 1.34556 0.553124 
13671 1 -3.80792 -2.22129 3.09454 
18795 1 2.67578 1.43047 0.11319 
4128 1 -1.58371 0.965218 -0.301774 
4127 2 3.42573 1.81295 -1.14051 
4126 1 4.84447 7.04635 -6.67788 
20653 1 -1.47821 1.47457 -4.65989 
17772 1 5.82263 0.381215 2.23682 
4958 2 -3.05182 -4.16132 0.311913 
17771 2 -2.60742 -1.78379 0.626916 
7104 1 -0.135486 2.47112 -3.38979 
15149 2 -2.33955 0.332055 -2.08307 
4957 1 -1.83614 0.834059 4.60303 
15150 1 -0.485765 -2.72248 -2.9412 
17770 1 -1.52912 -4.53418 -1.0379 
19846 1 1.91286 -1.57416 -1.51613 
19847 2 -0.994516 0.914452 0.453073 
15148 1 -1.62155 -1.09179 6.47451 
10092 1 3.44681 -4.40248 2.25916 
10091 3 0.646538 0.404675 -1.29092 
14927 2 -2.00058 0.22962 -0.599553 
10090 1 0.365719 0.15814 2.76759 
14926 1 -5.01884 3.00061 1.70714 
20548 1 -0.947699 -0.18712 -0.0071714 
18096 1 -0.181233 2.02777 2.18766 
7601 3 1.36971 -0.0111091 -5.45697 
7600 1 -1.80081 -6.28244 5.05463 
18095 3 -2.68585 0.537336 1.5214 
12412 1 6.59426 0.00867259 -1.36976 
19947 1 -1.04475 0.927256 1.84344 
19946 3 -2.02553 5.25099 -1.96302 
19945 1 -1.15965 -5.24497 -1.99177 
12413 3 -1.5255 -1.26767 -1.85015 
16521 1 1.55637 2.60165 -3.0962 
12414 1 -2.24274 -1.29695 3.63525 
2751 1 -0.708848 1.55239 3.55039 
2750 3 -0.689854 -2.13105 -3.48624 
2749 1 1.47061 2.06382 -0.313205 
12163 1 -3.38498 4.59005 0.160862 
129 1 1.73131 -3.59388 -4.62854 
21205 1 -8.06706 -4.40986 -1.43514 
21206 3 2.76934 2.83172 -0.179871 
128 3 1.44829 1.25821 -4.84601 
10276 1 6.49354 -2.28415 -2.77798 
10277 3 -1.62253 -1.51145 1.51964 
127 1 -0.647721 5.08442 -2.70595 
20088 1 2.12853 -6.33627 3.42278 
10278 1 -1.89452 -2.35356 4.32619 
12610 1 5.37261 -4.70334 0.184398 
19914 1 -2.7629 0.206514 1.98545 
12612 1 6.3921 4.74674 0.660076 
7602 1 -5.45983 2.4689 -2.29681 
12611 3 -3.07568 -2.13807 -0.584163 
5125 1 2.51228 1.36586 -0.543378 
5127 1 3.96276 -2.27444 -7.23232 
9130 1 1.98273 1.2292 3.45158 
9131 3 -3.2214 -3.04994 0.995581 
9132 1 7.64385 4.39719 0.508537 
16519 1 -1.27243 0.778051 2.3543 
1714 1 -0.0957093 -5.56448 -3.18681 
1715 3 -2.85638 -1.25446 -2.43412 
16520 3 1.1697 -0.449355 0.782171 
12164 2 -1.02531 -1.69175 5.61015 
1716 1 -5.99437 -0.593871 3.25932 
17283 1 -6.52124 4.37278 -3.07607 
12165 1 -3.22434 0.755151 -2.47563 
17232 1 -0.309481 -0.19442 -2.31412 
17230 1 2.83702 -2.55251 -0.0806848 
17231 2 -0.404128 2.27169 -0.151978 
6482 3 1.88646 5.74826 4.07988 
6481 1 1.10858 1.77606 9.24392 
6483 1 -2.16125 5.84452 -1.12998 
1945 1 -1.90796 3.69046 -0.941115 
1946 3 1.2315 -1.97082 4.55703 
2471 3 -2.45608 -0.397911 0.601336 
2472 1 4.11774 -1.74402 -3.12755 
2470 1 1.83006 0.346881 -1.06079 
8888 2 -4.66171 4.01034 0.883769 
8889 1 -0.876871 4.06528 -0.972769 
16392 1 -2.778 2.53873 -2.56822 
16391 3 -2.90009 -3.38524 -2.07596 
16390 1 -0.336305 -6.52151 2.92344 
5126 3 -0.471233 0.95375 -2.40496 
11784 1 3.79072 0.35495 -7.63196 
12483 1 1.0486 -0.285304 -1.09353 
18249 1 -5.57664 1.45313 -0.413734 
12481 1 1.00151 -3.61797 -0.874508 
12482 3 2.97595 1.22344 -6.10745 
9622 1 1.39327 -2.63429 0.334218 
11783 3 1.108 -2.36823 -1.00553 
12832 1 -3.96905 -0.647268 -4.85903 
18327 1 3.04109 -2.44893 -2.70232 
17282 2 -0.900559 0.676928 0.152396 
12833 2 5.52741 -8.55646 0.186877 
12834 1 6.59903 -1.35628 -0.284237 
8670 1 0.731316 -1.52786 6.08232 
8965 1 2.18587 -2.28553 3.01196 
8669 3 4.62636 -0.0873006 -0.4784 
8668 1 2.03447 5.58732 1.20738 
2064 1 6.01212 -1.56221 -2.0366 
18325 1 8.61998 5.79462 -0.623509 
2063 2 3.08986 1.7332 1.69201 
2062 1 4.00424 -6.20683 -6.72989 
14329 1 -0.975784 -2.59541 -4.63896 
18326 2 -0.181868 -3.37633 -3.66509 
20314 1 1.80726 -1.48022 -6.05414 
11329 1 4.39906 -1.83556 -1.42705 
11330 3 0.874262 -1.57095 -2.84612 
20315 3 4.02359 -0.189605 -1.31578 
5912 3 -1.33449 -1.57436 0.1811 
20316 1 1.48356 0.157894 -3.58616 
5913 1 2.84299 -5.07471 4.07077 
11782 1 -3.55855 -0.485981 3.20017 
15231 1 0.0713775 -4.07077 -3.37049 
15230 3 0.364426 -2.25188 -0.796025 
1055 2 4.60371 -1.36071 -3.80301 
15229 1 -2.6097 -3.56301 -2.49038 
1056 1 2.97596 -2.31702 -4.97033 
6261 1 5.9642 2.61763 2.9424 
6260 2 -0.963059 2.24177 4.0437 
18332 2 0.525991 0.136653 6.90525 
17449 1 -6.41165 -1.4826 1.28817 
17451 1 2.56352 -2.44237 4.13394 
17450 2 -1.64666 -0.942802 1.88788 
18331 1 -1.40111 8.27088 1.31521 
1054 1 3.32701 -2.67812 1.85222 
13362 1 -0.369407 -1.53098 6.74643 
6216 1 0.988355 0.185612 -1.83058 
15955 1 -6.89497 0.7526 -0.652638 
3893 2 -1.89752 0.184899 2.41625 
3892 1 0.180282 -2.15549 1.37923 
3894 1 3.56459 1.09642 -1.94877 
8409 1 -4.39152 4.69508 1.79449 
18719 2 -2.78313 0.260192 -0.183796 
6259 1 1.54362 -0.884963 -2.55049 
18720 1 1.92098 1.30289 -0.485079 
2638 1 5.75763 0.480084 0.931054 
2639 2 -2.90855 0.284517 -0.363855 
2640 1 -2.17665 0.325611 5.6501 
8241 1 0.201299 -0.762237 4.28825 
8240 2 0.80729 -1.14141 -0.265145 
8239 1 2.67352 0.396608 4.2717 
2979 1 4.07771 -0.0818257 -4.04435 
21458 2 0.167062 -0.676674 0.224679 
18870 1 -4.17586 4.80222 -1.14306 
21459 1 1.57153 -3.32907 -2.42775 
6215 2 0.457818 -3.94266 0.894209 
6214 1 2.15839 0.52143 2.79525 
18363 1 -0.398083 3.10162 -0.947977 
21457 1 3.60152 -3.62621 -3.58686 
20554 1 1.60477 1.39411 3.36796 
20555 2 -2.27858 -0.0457004 -0.104796 
20556 1 -4.32091 2.91221 9.21615 
2978 2 -1.38855 2.20147 3.12203 
2977 1 1.00488 -2.41156 1.26936 
20617 1 -2.80879 -0.434721 -1.68136 
20619 1 1.46765 2.68338 -3.01056 
2941 1 4.40778 2.90267 2.78594 
2942 2 -1.61637 2.39467 3.27451 
2943 1 -5.31558 1.10733 -0.508953 
11379 1 0.917998 -0.186614 -0.802143 
8683 1 5.67269 -1.18121 -2.64047 
8684 3 2.39575 -2.0318 1.10072 
8685 1 -2.1744 4.47228 -1.08645 
19822 1 -0.175754 -2.83597 -4.29624 
19823 2 -0.814418 -1.39166 -1.55218 
9755 2 0.889359 -0.0247305 0.0522384 
9756 1 -3.28619 4.25363 -2.50319 
19824 1 -3.56806 0.578981 -0.457959 
9754 1 0.460579 1.86528 -0.955556 
14518 1 -1.25763 -2.43153 6.05273 
14519 2 0.971424 -1.10962 2.20201 
20906 2 1.92313 2.04982 -1.9957 
8246 2 2.41392 2.0217 0.333467 
8247 1 1.85255 -1.26713 -0.145843 
14520 1 1.6762 0.293806 4.61294 
20907 1 5.03708 2.42043 0.241152 
18361 1 -2.84241 5.18685 2.0284 
10828 1 -1.35538 -0.0979278 0.621352 
10829 2 -0.16768 -1.04462 1.31509 
10830 1 0.227362 1.94574 5.64954 
8245 1 0.742531 -6.05737 -8.79734 
20905 1 2.40795 -2.69973 4.82059 
2229 1 -5.27784 -3.13106 -8.26202 
18362 2 3.89485 0.637582 -4.8353 
18869 2 2.91829 -0.166288 0.566232 
1285 1 2.38319 4.37318 3.17472 
1286 2 -2.16704 -1.09705 -1.96412 
1287 1 -2.36492 3.44541 -1.06903 
13717 1 6.51261 -0.051193 2.38063 
16805 2 -1.36711 -1.07045 -4.36225 
13718 2 -0.995837 -1.56441 -0.296876 
13719 1 1.68132 -1.13519 5.89038 
14236 1 3.18222 -0.755469 5.89334 
14237 2 3.05628 -1.44593 2.05717 
2228 2 1.60095 -1.48905 3.61058 
1357 1 -2.87525 3.37161 -3.15591 
2227 1 3.13129 -5.22783 -2.58848 
3721 1 0.210127 0.861761 -3.04682 
3722 2 2.35962 1.30256 1.83128 
4476 1 0.833146 4.85058 3.534 
1358 2 1.7816 -1.67157 4.40638 
1359 1 -4.96998 0.658839 -4.67651 
17844 1 7.339 0.802118 -1.50217 
5400 1 1.54643 -2.86421 -7.23812 
5399 2 3.34085 -2.25545 0.0567861 
16804 1 0.217309 0.0750785 4.37876 
18018 1 -4.14901 -3.04865 -2.0487 
18017 2 -0.937209 -1.22739 1.44016 
18016 1 5.7562 -2.87903 -2.20776 
5398 1 -0.0911968 3.1236 3.96205 
21560 2 -3.59328 -0.902105 2.15725 
21561 1 3.4458 -0.697576 -0.886378 
19654 1 -1.29055 -3.00591 -1.41107 
21559 1 -1.98946 -0.80858 2.69588 
3723 1 1.64218 4.23823 3.47622 
3717 1 -4.51176 2.42122 1.54933 
2350 1 6.08299 2.97401 -0.993927 
2351 2 -0.307249 3.59625 0.539137 
2352 1 0.631041 -1.30212 -2.32147 
319 1 0.280921 0.107164 -0.0768378 
1494 1 2.38936 2.0904 -0.927837 
4903 1 1.20419 -1.87681 3.07788 
4904 2 3.57764 -3.21818 2.03974 
13472 2 -0.865259 -2.2523 -2.65869 
4905 1 -4.7246 -5.50291 -2.8523 
13471 1 1.90578 3.23139 -1.25383 
993 1 4.99425 -0.224198 2.57175 
11328 1 3.17641 1.27702 -1.40203 
991 1 -2.25978 -0.417646 -0.845495 
11327 2 -0.0918957 0.310404 -1.05373 
2968 1 -1.58709 1.76077 -3.67956 
18271 1 5.33675 -1.23993 4.64525 
18272 3 -3.07678 1.78108 2.03657 
2969 2 -1.76593 -1.18898 1.11513 
13473 1 -1.92942 2.91743 -3.62925 
2970 1 3.16178 3.00905 0.850877 
16190 2 -0.0971112 4.13742 -1.66537 
19848 1 7.79126 -6.36268 -0.433624 
16191 1 -2.57761 -3.20734 0.383802 
18273 1 2.71599 6.63482 0.160757 
4298 2 -3.37323 2.84363 -1.746 
4297 1 6.54021 -2.16418 -0.674101 
4467 1 0.131167 1.84658 -0.874856 
4466 3 -3.09811 -0.414781 3.8274 
14928 1 1.79561 2.29457 1.65588 
19347 1 -4.63878 1.21122 6.20435 
20549 3 3.77907 -0.0588047 1.63176 
13059 1 10.9671 -5.73434 2.43164 
20550 1 -1.17955 -9.13065 -0.85257 
13058 3 0.544377 2.49046 -0.865809 
13057 1 5.21043 -3.39815 3.02528 
6487 1 2.08517 5.45423 -6.0806 
6488 3 -1.28657 3.26613 -2.38999 
4299 1 -2.48796 -3.35884 1.89698 
18442 1 2.4148 -1.15491 -0.54214 
18443 3 7.04602 -1.27791 -0.475507 
14047 1 3.53994 -2.17614 -4.05127 
18444 1 1.27837 3.82879 -2.18182 
14048 3 -1.80675 -2.96628 2.85772 
11454 1 -6.61894 0.393505 -2.8335 
4465 1 -1.0888 -0.735428 2.26193 
4273 1 0.793038 3.77146 -2.56498 
4274 3 0.168496 -3.34714 0.120736 
4275 1 -2.56651 0.29826 1.33097 
11453 3 3.67824 4.31779 2.6555 
11452 1 -1.49602 2.64814 -1.39745 
13254 1 0.603608 1.30945 -0.588419 
13253 3 -3.29793 -3.03329 -4.89904 
13252 1 1.93288 -5.43701 -1.25707 
15301 1 -2.58817 -0.63958 -4.30394 
15302 3 -3.15485 -2.49708 -0.505557 
19346 3 -1.62461 -1.93659 7.09519 
10770 1 4.70965 0.753113 -1.16058 
19345 1 3.02373 -0.66561 -3.74535 
20454 1 5.46803 -1.09142 0.62903 
20453 3 -0.486132 0.0784734 0.807364 
20452 1 -5.80307 1.7506 -3.62104 
18924 1 -3.46479 2.75264 3.78141 
18614 3 1.24356 3.64774 1.31198 
18613 1 0.397916 1.21605 2.47236 
20086 1 1.79847 -2.21547 0.300227 
16417 1 0.988101 -2.91192 -1.33444 
16418 3 0.183524 -3.24341 -2.0358 
16419 1 -4.19603 -2.36175 -1.3148 
4471 1 -2.67502 3.2584 -1.21098 
4472 3 -0.778397 1.05099 -1.74926 
20087 3 2.07334 4.37255 1.74415 
19913 3 -2.04619 1.54985 3.20707 
11787 1 2.19557 -7.95489 1.3575 
17904 1 1.06275 -1.11615 -3.44786 
11785 1 -4.24108 -0.119681 9.02028 
11786 3 -2.27398 2.71045 0.868764 
19912 1 4.96568 -1.65718 0.934574 
4473 1 -0.72244 3.80375 -4.55984 
930 1 0.938856 1.16411 -2.37227 
18094 1 1.44478 -5.76115 3.81421 
3820 1 2.44165 4.36134 4.21917 
12537 1 1.39518 5.05266 1.18156 
7497 1 1.50003 0.271962 1.69193 
7496 3 -0.721163 -0.279347 1.41583 
7495 1 -4.63431 -0.657964 1.09701 
3821 3 3.46325 -0.513736 3.51784 
3822 1 -1.66107 5.84782 -6.95891 
12276 1 -3.06718 0.129491 0.674676 
1689 1 4.79674 0.111332 3.58194 
1688 3 0.341158 2.812 -2.61003 
4180 1 0.315774 -4.09163 3.38074 
1687 1 -1.26201 -2.43261 -0.5727 
1116 1 -3.63552 2.4333 -1.41804 
3375 1 -3.80958 -3.99721 4.41702 
1115 3 2.76829 0.230196 -0.470563 
3005 3 0.00799142 -0.538858 -3.30476 
8829 1 -0.88723 3.25363 -2.44306 
3006 1 1.58459 -2.52086 2.81669 
3004 1 -2.75022 3.25487 2.30851 
3352 1 2.43906 1.39571 3.4588 
3354 1 -0.680134 2.69071 -0.123399 
1114 1 3.90417 5.66905 1.06781 
3353 3 3.66707 1.32283 -6.65396 
19773 1 2.22203 -5.31834 -4.50902 
755 2 2.12302 0.975595 1.40529 
756 1 -2.69922 1.15762 -0.144469 
5503 1 4.36794 0.947434 -0.0478022 
6100 1 -5.78551 -4.54436 -2.85307 
754 1 4.01747 1.25734 -3.73434 
6102 1 0.0912191 -1.50716 -1.55785 
6101 3 -0.514454 3.71148 -4.1171 
18615 1 -0.1939 -1.00858 -0.066129 
5504 3 -0.399915 -0.253171 0.439792 
5505 1 -0.189695 1.05319 2.39364 
3976 1 0.334454 -2.42551 -2.07663 
3977 3 2.33988 -1.12245 0.363168 
3978 1 0.672701 -0.509884 0.421655 
1947 1 5.34335 -2.19504 -2.61881 
4291 1 -3.40982 -2.84477 2.34331 
4292 3 -1.75044 1.1599 1.6084 
4293 1 -1.86789 -3.37147 -3.19741 
18247 1 0.0821882 -0.0361761 4.88509 
10522 1 -2.58789 -3.37986 -1.50439 
10523 3 1.12762 1.42383 -0.539678 
10524 1 5.28007 2.14829 3.16343 
5010 1 -1.35791 -0.792938 2.95128 
5009 3 -5.36698 2.8194 3.21836 
929 3 -0.0590944 -3.79315 0.264126 
928 1 -0.323813 4.65868 -2.24574 
2478 1 -2.74133 3.45832 3.72579 
18248 3 -1.48049 2.54038 -0.637333 
12275 3 -0.862923 -0.1977 -1.84292 
12274 1 -1.21295 0.117783 -3.34664 
4230 1 1.74165 2.72987 6.02478 
4229 3 -0.976371 1.0073 -1.21129 
8967 1 3.14404 -4.24618 -2.19429 
9623 3 -2.80981 1.37066 1.43222 
9624 1 3.56259 -2.80676 -3.81257 
3374 3 2.8695 2.52953 -1.31153 
3373 1 -1.44338 -0.122899 0.0880753 
830 3 -0.41383 -4.03351 1.00298 
831 1 -2.34359 3.22784 3.19903 
829 1 0.729234 -4.40632 -1.26464 
20254 1 0.903111 0.464621 4.79069 
20255 3 -1.26636 -2.15853 -0.79773 
20256 1 0.0634509 -1.22421 5.71695 
8966 2 -2.55631 0.296643 0.185228 
10283 2 -0.154147 -0.802427 1.17013 
10284 1 -0.677873 2.23086 -0.0362532 
19702 1 1.48214 4.72087 3.41712 
19703 3 -0.700696 -3.0865 -0.776232 
19704 1 -1.79059 -2.131 0.183246 
19772 2 1.90554 -2.69961 2.45025 
19771 1 -4.44725 2.13362 -0.777999 
7047 1 2.65494 -3.09926 5.71393 
11331 1 2.79996 -1.95194 -2.85467 
18802 1 3.16728 4.46291 -1.4382 
18803 3 -3.16872 -1.06145 0.461831 
18804 1 -2.70334 -1.16962 -2.87521 
12952 1 -3.19595 -1.18683 -2.58913 
17466 1 5.05499 0.473209 2.31974 
17465 3 0.952995 -2.10196 0.00989725 
4228 1 0.454809 -4.72633 -3.50338 
20932 1 -0.172089 1.2608 3.34368 
17464 1 -1.12483 7.66464 6.45202 
10408 1 -0.98076 0.622514 1.61754 
10655 3 2.44313 0.63036 3.1046 
10656 1 4.16094 -6.03026 3.35949 
17730 1 1.16435 -0.298222 0.0122804 
20933 3 -4.49527 -1.26385 -2.06515 
20934 1 0.963673 1.19806 0.103457 
10409 3 -4.61625 0.098886 -1.30415 
15423 1 -2.8323 -3.31531 2.66281 
15422 3 2.17267 0.5877 -2.25943 
17729 2 -4.87089 1.20181 1.70078 
3055 1 -1.71962 4.52648 4.49161 
17728 1 0.381486 -0.478281 -4.10676 
3056 2 -1.66978 -2.6097 -1.02089 
15956 2 2.36731 -1.38038 2.02368 
15421 1 -7.96305 -3.35742 -6.8619 
15957 1 -3.55043 -0.142031 -3.13035 
10282 1 -2.19418 -0.382351 3.44055 
7819 1 -0.0421697 0.797207 -0.935488 
7820 2 4.18321 2.06793 -1.642 
7821 1 4.78136 -1.15239 0.957753 
5280 1 -3.16302 -0.0250629 2.49092 
12953 3 -0.051322 -2.17426 2.44398 
12954 1 -3.16787 3.37794 -0.129089 
12112 1 1.75782 -8.02134 1.83686 
12113 3 -1.72922 -0.0368436 -0.360929 
10654 1 4.03557 4.80512 7.03983 
7480 1 4.36605 2.11199 -0.378124 
8408 2 -2.06002 0.453888 -1.78536 
8407 1 -1.17619 2.23462 -5.55969 
20085 1 4.425 1.77319 0.850055 
20084 2 -1.50166 1.28515 -0.642136 
12114 1 4.27107 0.61962 5.83721 
289 1 6.45685 0.98274 1.28909 
290 3 2.11705 1.75879 -5.0006 
291 1 3.59893 -1.15979 -2.91441 
4294 1 0.321691 -2.90733 -3.122 
16641 1 2.5015 -4.55136 -0.968987 
4296 1 -2.27619 0.561436 -4.16128 
4295 2 0.74389 0.764528 -2.23168 
16640 2 -0.29568 -1.80186 1.94878 
16639 1 -1.06351 -3.39521 0.0790505 
16492 1 8.64848 -3.27383 -3.7442 
8779 1 -4.66091 -1.79032 0.715541 
3057 1 0.414254 0.273908 0.386867 
8780 2 0.898024 3.34178 5.1655 
8781 1 -2.06667 3.63397 5.86222 
5278 1 -2.45884 0.714408 -1.43379 
5279 2 -2.5098 -0.993275 -1.09976 
20618 2 -1.4958 0.696955 -1.16249 
7481 3 0.130686 -4.72229 1.07565 
20083 1 -1.04504 2.83162 0.600704 
7482 1 -2.43686 3.39054 5.59189 
14218 1 1.22789 -4.13516 1.188 
5583 1 2.79301 -1.19167 -2.91672 
14219 2 -2.55389 -3.7861 3.80307 
14220 1 0.472809 -5.09692 4.17785 
7262 2 -0.325243 -0.493881 -2.42384 
7261 1 2.04708 1.00429 2.22522 
5582 2 -1.76472 -5.3205 -2.25664 
14387 2 1.01313 1.8062 0.714472 
14388 1 6.55521 -0.427079 -6.05592 
3153 1 0.973337 3.54021 -0.00783371 
14386 1 -4.68638 1.20841 2.46799 
5581 1 -5.79044 2.79107 -1.16305 
9010 1 1.88449 -3.83443 4.65907 
9011 2 2.69375 -1.53817 -3.78561 
9012 1 -5.55384 5.60453 -2.44374 
3152 2 -0.0236542 0.546567 -1.29626 
3151 1 -4.69508 -7.21819 3.42999 
6177 1 -3.37535 0.234407 3.11288 
19656 1 0.677934 2.43882 1.50881 
19655 2 -2.63427 -1.25515 2.09821 
12187 1 0.0922293 0.155621 -0.0693167 
513 1 2.03134 1.16314 3.43814 
12188 2 0.354921 -3.60887 1.48715 
12189 1 1.87324 -0.173351 2.00417 
3637 1 4.22846 6.36686 1.17746 
13596 1 -4.8848 -0.763956 0.363 
13595 2 -2.32436 -0.00305714 0.940522 
9969 1 -5.68622 -0.651386 -2.52074 
3716 2 -0.86942 2.26229 -1.49619 
3715 1 -5.61878 -2.92318 -3.44714 
9968 2 -3.11681 -2.43645 -1.04457 
9967 1 0.408854 6.58945 3.63926 
14614 1 -5.50543 3.11072 4.60582 
992 2 -5.82227 1.15434 0.860126 
13594 1 1.7348 4.59542 0.65101 
5337 1 1.06667 3.76145 0.39202 
11326 1 -0.0831851 5.96914 2.15764 
5336 2 0.479019 2.22582 -3.23013 
5335 1 -0.176224 0.203582 4.11302 
16939 1 -1.41326 -9.59471 -6.37279 
2913 1 2.01497 -2.40178 0.456644 
3496 1 1.95285 -2.4766 -3.47421 
3497 2 0.601486 -0.946899 0.950499 
3498 1 -0.298687 -1.60048 -4.06877 
2734 1 2.82397 -8.40409 -4.08571 
9642 1 -0.672022 1.58637 1.15198 
16403 3 -3.98559 -3.14484 1.74733 
16404 1 3.37503 3.2385 5.28482 
5630 3 -0.215499 0.466011 2.14157 
5631 1 -7.00618 4.81213 -3.34222 
9641 2 3.93545 0.332909 0.6423 
9640 1 -2.3345 2.64968 -2.85466 
16940 2 -0.680704 3.02087 -2.91246 
18923 3 1.2319 -1.82746 -2.58609 
18922 1 2.0698 2.40978 4.81265 
6489 1 -1.15813 -0.332258 0.722634 
9169 1 0.797363 -1.55615 8.07165 
9170 3 2.95671 9.30784 1.76464 
5790 1 -0.341116 1.82293 2.13346 
5788 1 2.05628 -1.13972 -2.58997 
5789 3 -0.895529 1.65243 -6.29459 
9171 1 1.8536 -2.52997 -8.13907 
14508 1 0.242695 -3.85472 0.908414 
14507 3 1.19421 5.77771 -1.53976 
14506 1 0.999307 -1.78318 -0.155089 
5107 1 -0.17186 0.604098 3.14505 
5108 3 -0.530373 -1.33232 -0.963469 
5109 1 -4.4313 5.72303 -0.730844 
5757 1 1.2575 -2.56013 0.420894 
5756 3 -2.65403 1.07286 -5.87502 
5755 1 -0.770023 -3.37514 1.39933 
18754 1 1.97884 4.80445 3.65733 
7131 1 -0.772728 4.10932 -3.86443 
819 1 -3.71065 -0.618948 -6.08799 
15303 1 6.74604 2.21732 -0.379383 
7129 1 2.05314 6.5911 -5.58264 
7130 3 -3.95959 -0.864432 0.935272 
17005 1 -3.0196 0.68672 -0.915655 
12057 1 4.66757 -2.56208 -2.66514 
818 2 2.21634 0.423761 0.465086 
817 1 -0.727057 5.09584 1.76254 
10768 1 1.97828 4.68087 -1.55772 
10769 3 0.293044 -1.53107 -2.69187 
4873 1 4.14288 2.46812 6.82648 
4874 3 1.06862 -2.06025 -1.02168 
4875 1 0.304721 -1.9658 -6.31134 
15730 1 -3.01162 1.36182 -5.7417 
17903 3 0.172572 -0.930625 0.497922 
16027 1 2.13977 7.6762 0.520726 