LAMMPS data file via write_data, version 5 Jun 2019, timestep = 120000000

4458 atoms
3 atom types
3764 bonds
3 bond types
3070 angles
3 angle types

0.0000000000000000e+00 5.0000000000000000e+01 xlo xhi
0.0000000000000000e+00 5.0000000000000000e+01 ylo yhi
0.0000000000000000e+00 5.0000000000000000e+01 zlo zhi

Masses

1 0.25
2 0.5
3 0.5

Bond Coeffs # harmonic

1 6000 0.15
2 2000 0.4
3 2000 0.4

Angle Coeffs # harmonic

1 100 180
2 5 180
3 5 180

Atoms # angle

6985 1 1 1.8803492393451791e+01 2.7877917288505976e+00 1.5119189961104251e+00
6399 1 1 1.8770310105234859e+01 2.6408595957795105e+00 1.5235797179636557e+00
6398 2 2 1.8689467832871259e+01 2.2200926213376562e+00 1.4571351413110099e+00
6397 1 1 1.8812390967425578e+01 1.9596411477753717e+00 1.1344399950089543e+00
6987 1 1 1.8479785466089389e+01 3.3488792802984082e+00 1.5048074803657305e+00
1909 1 1 8.4954973750974236e+00 5.2158594996607626e+00 5.2149946292639882e-01
1911 1 1 8.5537220943701389e+00 5.2513667845828937e+00 1.3049811863792642e+00
1910 3 3 8.5383376923145082e+00 5.1724757228851477e+00 9.2237318535243917e-01
16922 2 2 2.6003422683589221e+01 5.2914860984508154e+00 2.5150880787345054e-01
16921 1 1 2.5807732218848841e+01 4.9193541201362292e+00 2.1683016293474838e-01
16923 1 1 2.5946885572309800e+01 5.6218517583031948e+00 5.2035738390695085e-01
15289 1 1 3.7038073944229140e+01 8.1788386930639447e+00 4.1015800595565405e-01
15290 3 3 3.7010344776166363e+01 8.1383447173577306e+00 7.8244679713890264e-02
18287 3 3 1.9577179603291309e+01 9.7652337556380449e+00 8.3271608000628516e-01
18288 1 1 1.9585671502900990e+01 9.8631230318302769e+00 1.2296748615677573e+00
18286 1 1 1.9750058393991651e+01 9.8596005015115598e+00 4.7373413340558268e-01
6455 2 2 3.0335791334301049e+01 1.0759160845297510e+01 1.4312489129204564e+00
6454 1 1 3.0479956593047497e+01 1.0461961549017650e+01 1.3003643121594577e+00
20094 1 1 3.9314888950024887e+01 1.0509793887123308e+01 1.5342327425650062e+00
17713 1 1 4.0105552436423913e+01 1.0727872018747558e+01 1.5221276770156948e+00
20092 1 1 3.9973839101975955e+01 1.0736520280375812e+01 1.4955053742773936e+00
20093 2 2 3.9606242085585933e+01 1.0722855133439614e+01 1.4040790133576353e+00
20022 1 1 3.8656211796540511e+01 1.1656406454966859e+01 1.3371598682241912e+00
16090 1 1 4.0825184396617601e+01 1.0978281649916529e+01 1.3096627056507586e+00
17715 1 1 4.0722327030038095e+01 1.0909118774976418e+01 1.3986328199149973e+00
16091 3 3 4.1100465116848966e+01 1.1228973396177986e+01 1.0590293653196274e+00
16092 1 1 4.1523066039629690e+01 1.1198771210322185e+01 9.2889793508886709e-01
7463 2 2 2.5402761995909657e+01 1.2582880713633987e+01 1.0491619185815577e+00
7464 1 1 2.5096562734607385e+01 1.2777392692021998e+01 9.3136516600398800e-01
17870 3 3 2.4657882982298442e+01 1.3098181718984636e+01 6.9483661996418034e-01
17871 1 1 2.4964450531637013e+01 1.2865856856008200e+01 8.6912709335278238e-01
17869 1 1 2.4548999239883372e+01 1.3333797244926080e+01 4.0336314794513883e-01
7462 1 1 2.5767023771239099e+01 1.2642241504140165e+01 1.2002937950128765e+00
13492 1 1 2.5924709312368964e+01 1.2666799912322929e+01 1.2582783204658650e+00
13493 3 3 2.6333919905128049e+01 1.2703153934641787e+01 1.3802822927441769e+00
13494 1 1 2.6472373432142042e+01 1.2323666192505804e+01 1.2510458089692502e+00
14655 1 1 3.6726441908181762e+01 1.3109883696915828e+01 5.7653978651653304e-01
14654 3 3 3.6996223418511690e+01 1.2869947238836986e+01 5.2346858473211377e-01
14653 1 1 3.7230022184166764e+01 1.2609911604306447e+01 6.6648911455420790e-01
8812 1 1 3.7619925508692965e+01 1.3401092457111684e+01 1.0291241602909140e+00
8813 3 3 3.7868221074283802e+01 1.3177203807642256e+01 1.1704385977858671e+00
15412 1 1 3.8272586088690772e+01 1.3022366350285440e+01 1.5373605868655533e+00
8814 1 1 3.8154885158842212e+01 1.3051710701874301e+01 1.4401368126090963e+00
6000 1 1 3.9201722164591274e+01 1.3558542108789352e+01 1.4009830617817558e-02
7166 3 3 4.6349590621184603e+01 1.3162398998097254e+01 1.0444884466985622e+00
7167 1 1 4.6091529268383034e+01 1.3195692369998895e+01 7.4021871591886057e-01
7165 1 1 4.6601922494420307e+01 1.3253646132176431e+01 1.3102544796389473e+00
12838 1 1 4.6004354693446253e+01 1.3198862109615467e+01 6.0747766742547038e-01
12839 3 3 4.5804039066352928e+01 1.3224824244606499e+01 2.3746305395974426e-01
1249 1 1 2.2203067756473381e+01 1.5318855051569013e+01 2.6256463603858260e-01
5999 3 3 3.9247175060419423e+01 1.3963700360685584e+01 7.2360500031555280e-02
5998 1 1 3.9438355055433284e+01 1.4142028794042671e+01 3.7797265291200294e-01
14113 1 1 4.2878536075966437e+01 1.5051816957997639e+01 7.1271438081502358e-01
14114 3 3 4.3105968497786087e+01 1.5369945750445165e+01 6.3374088357289504e-01
6491 2 2 4.9416427479956141e+01 1.5092352066915039e+01 7.2885484113262000e-01
6490 1 1 4.9327257191493835e+01 1.5029461277909459e+01 1.0954064630179410e+00
6492 1 1 4.9196693038824826e+01 1.5143823432184234e+01 4.3364984354127967e-01
4386 1 1 4.9097045677023132e+01 1.5181499272489630e+01 3.2173236735938698e-01
4385 2 2 4.8858703000312573e+01 1.5313212270003326e+01 7.9672560493861566e-02
19949 2 2 7.8036813510086900e-02 1.6879175920781318e+01 2.8760916381774898e-01
8133 1 1 3.9084419372656875e+01 1.6824620612678586e+01 1.3809120236360670e-01
14115 1 1 4.3171128052289582e+01 1.5759753069060029e+01 5.6558747236483287e-01
9453 1 1 4.3206489025907814e+01 1.5879250034650870e+01 5.4241434990263115e-01
9452 3 3 4.3350105218452917e+01 1.6233819619680922e+01 4.8593200527538088e-01
9451 1 1 4.3576551919829122e+01 1.6262925017657878e+01 1.7828434776261853e-01
10759 1 1 4.6065905983583306e+01 1.5663029151924560e+01 5.0415362186667734e-01
10761 1 1 4.6465597869053902e+01 1.5765566330976458e+01 1.1519739838504381e+00
10760 3 3 4.6367037495039433e+01 1.5625333741592318e+01 7.6294459253527314e-01
19950 1 1 4.9733739243354243e+01 1.6799829903341802e+01 5.4305947917349096e-01
19948 1 1 4.3461283143379920e-01 1.7093723491818238e+01 2.4903740405596794e-01
13432 1 1 5.5044283107966485e-01 1.7185171548068475e+01 2.1733928031159591e-01
13433 2 2 8.6544532481930359e-01 1.7393855332931501e+01 7.6116595854974878e-02
17165 3 3 3.3848613352836537e+01 1.9575317179972515e+01 6.8621707175160873e-01
17166 1 1 3.4093725593027820e+01 1.9553731510755281e+01 9.6841775084337434e-01
17164 1 1 3.3712664605478984e+01 1.9458081879494511e+01 3.2980623720466851e-01
14813 3 3 5.3452216886411454e+00 2.0030602099284891e+01 1.2739464184756180e+00
14812 1 1 5.4362671846985666e+00 2.0296377446801319e+01 1.0499100143801137e+00
8330 2 2 3.3025209641721410e+01 2.0842548659631817e+01 1.1237110453379620e+00
8329 1 1 3.2880646925824102e+01 2.0514653460367960e+01 1.2922575788949573e+00
19236 1 1 3.2828936705332588e+01 2.0381438139844892e+01 1.3638281718720726e+00
8331 1 1 3.3400281740636906e+01 2.0737490538222641e+01 1.0806293188584917e+00
15264 1 1 3.3541878376498019e+01 2.0716706692338118e+01 1.0630902264226847e+00
15263 3 3 3.3946115852263119e+01 2.0688495584374309e+01 1.0129717750869847e+00
15262 1 1 3.4279452544705840e+01 2.0667789982564639e+01 8.2531555989616356e-01
20553 1 1 3.4438821364860765e+01 2.0658996319425992e+01 7.1243745126856861e-01
20552 3 3 3.4749029681607787e+01 2.0545583240029842e+01 5.5307157290819076e-01
18193 1 1 3.5959980654312787e+01 2.0551273119483614e+01 4.2394050304780245e-01
20551 1 1 3.5127714231269223e+01 2.0611730984265829e+01 4.9630985531490407e-01
18195 1 1 3.5268920664199904e+01 2.0652700074135602e+01 4.8839137681421985e-01
18194 3 3 3.5636693312578110e+01 2.0739222304216167e+01 5.2179336602738013e-01
2707 1 1 2.6046707542629804e+01 2.2813987861146074e+01 3.4741566828878007e-01
6163 1 1 1.6214292486738195e+01 2.4068856210759979e+01 5.4111788008885697e-01
8422 1 1 1.6211205189951180e+01 2.4153519375446482e+01 6.4456186697175621e-01
8478 1 1 1.5866623960706601e+01 2.4303027791182455e+01 1.3562089779927697e+00
8424 1 1 1.5975518429003449e+01 2.4329848994500441e+01 1.2382748455943615e+00
8423 3 3 1.6194189037467922e+01 2.4393125044745130e+01 9.6226799692423171e-01
6164 2 2 1.6262877138986649e+01 2.3855331214398213e+01 1.8764432000888270e-01
5244 1 1 2.6690036508155693e+01 2.4218054137352404e+01 9.1784558795746138e-02
2095 1 1 3.5132306263925244e+01 2.4102896636574037e+01 5.2665832718253591e-01
2096 3 3 3.5274537182294971e+01 2.3764625505871685e+01 5.9308097489459133e-01
2097 1 1 3.5657117651433225e+01 2.3651708546812575e+01 6.6446159098124491e-01
19546 1 1 4.1659202206986222e+01 2.4833666617451176e+01 7.6858819239488829e-01
19547 3 3 4.1819473502533519e+01 2.5219662173796038e+01 7.7035307253022811e-01
19548 1 1 4.1991925276275829e+01 2.5624437489120776e+01 8.1268001489458508e-01
18402 1 1 4.2063323290976932e+01 2.5783478040596066e+01 8.1562739453653754e-01
790 1 1 4.2392993981609003e+01 2.4864160442839150e+01 1.4979842583447902e+00
18517 1 1 4.3027437299220090e+01 2.5566543998705100e+01 1.3347347830827869e+00
18518 3 3 4.2722904700818354e+01 2.5300275606782456e+01 1.3783027382581583e+00
18519 1 1 4.2504168859222013e+01 2.4983289252091467e+01 1.4725370008450844e+00
17967 1 1 4.0083254454256760e+01 2.6727211494828595e+01 4.5029199414188853e-01
17966 3 3 3.9961654209016018e+01 2.6371865073980498e+01 2.5946180094928922e-01
18401 3 3 4.2190650923705995e+01 2.6144070080939240e+01 7.4521899946959280e-01
18400 1 1 4.2420458066708278e+01 2.6415975027749170e+01 5.2854125587975631e-01
8914 1 1 4.2340188132657772e+01 2.6793823757791433e+01 1.1716927849558867e+00
1188 1 1 4.2573391491784719e+01 2.7208030917693534e+01 1.2164084088987422e-01
1186 1 1 4.2471790419361341e+01 2.6537706166774687e+01 4.7000135364733209e-01
1187 3 3 4.2632496057640935e+01 2.6892143417940989e+01 3.1703422248685259e-01
8915 3 3 4.2525550351666496e+01 2.6963441569120295e+01 1.4752646466437547e+00
10801 1 1 4.2566073369464874e+01 2.7330889635637771e+01 2.8635036603773444e-02
9262 1 1 4.4626103413813190e+01 2.6727977668189393e+01 2.8558226558376670e-01
1641 1 1 4.4571805763690264e+01 2.6721520259702523e+01 4.0967837812951946e-01
1640 2 2 4.4475235042664458e+01 2.6757225198147029e+01 7.4506726454867411e-01
1639 1 1 4.4490513306566825e+01 2.6693332527595484e+01 1.1988040557459405e+00
16942 1 1 3.7559993108152526e+01 7.1142576027826615e-02 2.7883955792480606e+00
17334 1 1 3.7584592378872152e+01 1.1473275814556211e-01 2.6539242558466523e+00
17332 1 1 3.7565211376126349e+01 5.9067377286053213e-01 1.9800213370603628e+00
17333 2 2 3.7673856101343191e+01 3.0591215824938500e-01 2.2717452217579410e+00
6986 3 3 1.8842152677317877e+01 3.1966677647109427e+00 1.5490738449131185e+00
9292 1 1 3.6289174770711689e+01 7.1056287930556570e+00 2.2557971573311510e+00
3996 1 1 3.5707101071863853e+01 7.6002998137141402e+00 2.3561618215293949e+00
9293 2 2 3.5969502099150482e+01 7.1719401102105707e+00 2.4099656835202596e+00
9294 1 1 3.5755734424353918e+01 7.4647487278752989e+00 2.3724653165365619e+00
10338 1 1 3.6043920625899808e+01 9.1847482724364475e+00 2.2770799582880263e+00
10337 2 2 3.5867868647533200e+01 8.8805582604476960e+00 2.3237362416146636e+00
3995 3 3 3.5589485616216983e+01 7.9874031903969263e+00 2.3720197458807952e+00
3994 1 1 3.5704570031858772e+01 8.3821828889222800e+00 2.3416450453535700e+00
10336 1 1 3.5754585636160066e+01 8.5196588385089136e+00 2.3327870521466036e+00
18477 1 1 3.6141044838212451e+01 9.2975945894449836e+00 2.2153639814507171e+00
18476 2 2 3.6414243654878369e+01 9.5400482943673470e+00 2.0037128279116700e+00
18475 1 1 3.6718129252007429e+01 9.7834819017116246e+00 1.9427294688372954e+00
7083 1 1 3.6819519773051034e+01 9.8898681617207878e+00 1.9155504086144572e+00
7082 3 3 3.7130507082469258e+01 1.0118143469872017e+01 1.8592417112523671e+00
7081 1 1 3.7489467196617497e+01 1.0214451826657157e+01 1.9133394433180497e+00
11475 1 1 3.7627955607252346e+01 1.0235183891014858e+01 1.9196838884140379e+00
11474 3 3 3.8020413501828564e+01 1.0265514959640523e+01 2.0169101060051173e+00
11473 1 1 3.8407770721440450e+01 1.0255424114623734e+01 1.8483545499915579e+00
11851 1 1 3.8533376365218423e+01 1.0242083411289837e+01 1.7864555384922483e+00
11852 2 2 3.8911381600170849e+01 1.0247158229128912e+01 1.6464107529588565e+00
11853 1 1 3.9229732750063988e+01 1.0439304482232105e+01 1.5569618816332089e+00
17714 3 3 4.0502659490153107e+01 1.0739820320997170e+01 1.5817500768948825e+00
6625 1 1 4.2952283900229951e+01 1.0759601923532859e+01 2.4060850939672811e+00
13377 1 1 3.0401767161580715e+01 1.1925092975741963e+01 1.9642794920136535e+00
13376 3 3 3.0446959303629001e+01 1.1610403895815470e+01 1.7604064682773073e+00
13375 1 1 3.0396023405736727e+01 1.1249564592487440e+01 1.6202455526881423e+00
6456 1 1 3.0385408233287993e+01 1.1119973022133284e+01 1.5774136701325088e+00
20021 2 2 3.8743021924101598e+01 1.2010412696279959e+01 1.5741239161186220e+00
6626 2 2 4.3085754167751411e+01 1.1138905682423312e+01 2.5563291896802496e+00
6627 1 1 4.3100464833262208e+01 1.1495056609722109e+01 2.7560029966221120e+00
16644 1 1 4.3144057687163134e+01 1.1618329273305539e+01 2.8320536132013427e+00
16643 3 3 4.3195337036273926e+01 1.1958168492115471e+01 3.0026450160570706e+00
15414 1 1 3.8734615655006692e+01 1.2509460787245972e+01 1.6625717605033761e+00
20020 1 1 3.8755088435558633e+01 1.2382961643083988e+01 1.6383622530862822e+00
15413 3 3 3.8628000639242074e+01 1.2884671228749811e+01 1.7008013776057862e+00
13257 1 1 3.6702520923680162e+01 1.4095048490513019e+01 2.8197207430636575e+00
20285 3 3 4.3638846409219397e+01 1.5255156975107390e+01 2.4187568793726992e+00
11085 1 1 4.4537351507158498e+01 1.4450990327927911e+01 1.8930635287779896e+00
11084 3 3 4.4489928240486009e+01 1.4711793111761837e+01 2.2108538343887876e+00
20286 1 1 4.3989234057297473e+01 1.5016693796757892e+01 2.2825473368298024e+00
11083 1 1 4.4107354402091048e+01 1.4950189547392000e+01 2.2770889533073566e+00
5532 1 1 4.9876499909319399e+01 1.4037908397695375e+01 2.8170485319913006e+00
15880 1 1 4.3425160775663123e+01 1.5734153758878195e+01 2.6226296254443309e+00
20284 1 1 4.3491839831626478e+01 1.5620479018768888e+01 2.5687774089206994e+00
15881 3 3 4.3206808356913996e+01 1.6021464101565471e+01 2.7703606639564144e+00
15882 1 1 4.2906421165950427e+01 1.6206996173863136e+01 2.6193605303349461e+00
17577 1 1 4.3302518427696910e+01 1.7808309425735278e+01 2.9518970656169898e+00
17576 3 3 4.3205633966146323e+01 1.7475771661031420e+01 3.0445358616373386e+00
17575 1 1 4.3448070092198272e+01 1.7250293811988939e+01 2.8157992819914264e+00
4702 1 1 1.0271855461442114e+00 1.8900491592208969e+01 3.0959283294235509e+00
14814 1 1 5.4801388654551175e+00 1.9766954267849147e+01 1.5541575790688702e+00
19254 1 1 3.7609171841409704e+01 1.9222755412501201e+01 2.5906153425972489e+00
16675 1 1 3.7528503963334742e+01 1.9276785027145930e+01 2.6497756527414857e+00
16676 3 3 3.7278952098003785e+01 1.9508124012115228e+01 2.9166667006307483e+00
19252 1 1 3.8338484409778971e+01 1.9032434545198420e+01 2.2173044842945755e+00
19253 3 3 3.7945601584931772e+01 1.9033125203245188e+01 2.3397945863327592e+00
232 1 1 7.1439716055637170e+00 2.1327158047286801e+01 1.9041106931649137e+00
19831 1 1 3.2963464736637157e+01 2.0088821988380715e+01 2.9451309408059649e+00
7147 1 1 3.2872343480177484e+01 2.0179648303814972e+01 2.8224645912462609e+00
7149 1 1 3.2727629589098662e+01 2.0331833402898791e+01 2.0843082396378589e+00
7148 3 3 3.2798375873181534e+01 2.0374285910631173e+01 2.5018243937273001e+00
19234 1 1 3.2730198088352473e+01 2.0284298336058299e+01 1.9581921818117876e+00
19235 2 2 3.2683976131232377e+01 2.0124698144860339e+01 1.5805106390519659e+00
234 1 1 7.5262180429782610e+00 2.1987442515858863e+01 1.9016559845751442e+00
233 2 2 7.4519001473964126e+00 2.1614637165318207e+01 1.9692765142517077e+00
6426 1 1 4.9382460119248805e+01 2.2371746005558990e+01 3.0677043652947500e+00
1352 3 3 4.8600625677202004e+01 2.2825852061716969e+01 2.1719065290047381e+00
6424 1 1 4.8899934534901554e+01 2.2579031729093249e+01 2.5258287321380219e+00
1351 1 1 4.8820955913804532e+01 2.2636831591641325e+01 2.4253284871669534e+00
6425 2 2 4.9107008455316631e+01 2.2376372007285369e+01 2.8245163941934304e+00
20606 2 2 1.5083643352111503e+01 2.4350839236198151e+01 2.3861866143490142e+00
20605 1 1 1.4816359889225350e+01 2.4493443342541557e+01 2.6408535102771946e+00
20607 1 1 1.5260743372841576e+01 2.4280285456529569e+01 2.0779063671222140e+00
8476 1 1 1.5334406534468910e+01 2.4285856695667881e+01 1.9391357860945149e+00
8477 3 3 1.5564807085932769e+01 2.4278420183315315e+01 1.6039459916865155e+00
15588 1 1 3.5888398737904026e+01 2.4216878092388814e+01 3.0220505787023031e+00
15587 3 3 3.6019521484538245e+01 2.4570771343041518e+01 2.9469406317553331e+00
10713 1 1 3.5701178099280618e+01 2.3122543639137533e+01 3.0818430796518110e+00
792 1 1 4.2000571542131730e+01 2.4309523618156611e+01 1.8564791486264429e+00
21433 1 1 4.6361892350349443e+01 2.3613539802578682e+01 2.9711914187815363e+00
21434 3 3 4.6513557696294200e+01 2.3951566353599791e+01 3.0348726492785554e+00
21435 1 1 4.6684364020375327e+01 2.4238915085638435e+01 2.8605837176701936e+00
5100 1 1 4.7134502850002583e+01 2.4510487062170622e+01 2.2578025953398488e+00
5099 3 3 4.7462899665630076e+01 2.4344992908076524e+01 2.1194341758829132e+00
1929 1 1 4.8223625959119531e+01 2.3220369319795118e+01 2.1124174199957579e+00
1353 1 1 4.8331349716032797e+01 2.3111061999356085e+01 2.1088100263588028e+00
1928 2 2 4.7919100069878951e+01 2.3530050691690018e+01 1.9982525467063399e+00
5098 1 1 4.7655868844362438e+01 2.3993783928816967e+01 2.0676501617054623e+00
1927 1 1 4.7711126962599984e+01 2.3858920596209011e+01 2.0660700864902690e+00
14037 1 1 6.0031238813339263e+00 2.5929248480584214e+01 2.2532158424029269e+00
14004 1 1 6.0374028365702346e+00 2.6013053955420546e+01 2.3837541868535665e+00
14036 3 3 5.8802884522800198e+00 2.5778123983555762e+01 1.8816286685255081e+00
14035 1 1 6.2880886375574967e+00 2.5804691259785344e+01 1.8579364186683558e+00
15586 1 1 3.6205851359920551e+01 2.4902690169235367e+01 2.9170520535982831e+00
2313 1 1 3.6267176220757833e+01 2.5038399108480100e+01 2.9161079910148175e+00
2312 3 3 3.6353166137323285e+01 2.5426235542348483e+01 2.9366596796247881e+00
2311 1 1 3.6388064403269219e+01 2.5816353901700257e+01 2.9821896666267818e+00
7528 1 1 3.6385268777521844e+01 2.5976922994981869e+01 2.9734195438045918e+00
791 3 3 4.2153047491692874e+01 2.4602333884416069e+01 1.6082808616896498e+00
21093 1 1 4.5625651028878096e+01 2.5376763341350102e+01 1.6751451139705715e+00
21092 3 3 4.5910875187409090e+01 2.5161949027355398e+01 1.8616715393534469e+00
21091 1 1 4.6184881120418765e+01 2.4965365068733099e+01 2.0812877644397454e+00
14002 1 1 6.2653282622483646e+00 2.6346224155891640e+01 3.0460363104079997e+00
14003 2 2 6.1194709156102176e+00 2.6190302561880429e+01 2.7238276668750143e+00
7529 2 2 3.6482103032017385e+01 2.6380908531990286e+01 2.8864153932431202e+00
7530 1 1 3.6550131063496963e+01 2.6578310004506072e+01 2.4809910106399173e+00
5217 1 1 4.2218112614554329e+01 2.7117847221160826e+01 2.5966224220430139e+00
5215 1 1 4.2621796066687786e+01 2.7005804523601643e+01 1.9805477134197857e+00
8916 1 1 4.2609416421178160e+01 2.6989157812274719e+01 1.8394347448110011e+00
5216 3 3 4.2552248107908007e+01 2.7022644713400791e+01 2.3968441898199853e+00
16943 2 2 3.7554584481654047e+01 6.7059097802902909e-02 3.1928153408977371e+00
16944 1 1 3.7815546415130740e+01 4.1753946718010276e-02 3.5073893627415709e+00
10325 3 3 3.8161280562608653e+01 5.4459138544027133e-02 3.9455757678260213e+00
10326 1 1 3.7918772966256277e+01 3.8314242007607829e-02 3.6332810478077544e+00
10157 3 3 3.7578227916169695e+01 1.0387693480700944e+01 4.1660389998319465e+00
10156 1 1 3.7422434264282003e+01 1.0050370351262105e+01 4.1835997147078174e+00
10158 1 1 3.7489374094971751e+01 1.0467273492059261e+01 3.7699892260543821e+00
16642 1 1 4.3477975325685769e+01 1.2116651440965500e+01 3.2372678972578011e+00
9021 1 1 4.3597987815319577e+01 1.2174546323377546e+01 3.3640362828398924e+00
9020 3 3 4.3893333985738160e+01 1.2254837316854713e+01 3.5785013238757415e+00
9019 1 1 4.4137748213918599e+01 1.1931979194796147e+01 3.7233273821146429e+00
9485 3 3 1.7262837862128663e+01 1.2975997882418834e+01 3.5344374338224225e+00
9484 1 1 1.7271527811198478e+01 1.2792300140796799e+01 3.9249176482849260e+00
9486 1 1 1.7571867387102582e+01 1.3226867338250523e+01 3.5690538044551738e+00
7041 1 1 2.7714663347773037e+01 1.3393641836057613e+01 4.3055242306934458e+00
7040 3 3 2.8116597848272807e+01 1.3219848775745550e+01 4.2791463209120124e+00
3104 2 2 2.8413965104887982e+01 1.2341166847147282e+01 4.5390482018456249e+00
3103 1 1 2.8308590567091677e+01 1.2734257529100534e+01 4.3938228371176136e+00
7039 1 1 2.8243262023331273e+01 1.2857977475541027e+01 4.3440957914754108e+00
18589 1 1 4.5414265177163323e+01 1.3468851098704587e+01 4.6060734705981767e+00
21174 1 1 4.6045178395968776e+01 1.3610102908547614e+01 3.6552746704464649e+00
3022 1 1 4.5906788438686839e+01 1.3559897864709090e+01 3.7774549132098727e+00
11463 1 1 4.6839007341499197e+01 1.3739313040183758e+01 3.5667248551800763e+00
21172 1 1 4.6689342128755200e+01 1.3713513912491608e+01 3.5116060220111840e+00
21173 3 3 4.6296367318437930e+01 1.3704543207827747e+01 3.4125761037918534e+00
3023 3 3 4.5669122708920590e+01 1.3435201715395126e+01 4.0687460649038147e+00
3024 1 1 4.5483397503174466e+01 1.3450879180477818e+01 4.4728579299307540e+00
5530 1 1 4.9887635050178453e+01 1.3567255368476683e+01 3.2164786805700767e+00
5238 1 1 4.9395965884596507e+01 1.3388084666453672e+01 3.9992044350793114e+00
5237 2 2 4.9243156893533374e+01 1.3376955043394524e+01 4.3306902992374301e+00
8101 1 1 3.6276324910009656e+01 1.5228705877595477e+01 3.8353281987238939e+00
20374 1 1 3.6231083340088560e+01 1.5366333692424179e+01 3.8689398382220701e+00
8102 3 3 3.6333396736034381e+01 1.4826196406945584e+01 3.8023515755753143e+00
13256 3 3 3.6420990614714960e+01 1.4182606158322681e+01 3.1218967889867408e+00
8103 1 1 3.6393947691092720e+01 1.4530050038537372e+01 3.4890574253376827e+00
13255 1 1 3.6413779067139188e+01 1.4426933212181870e+01 3.4037153057162022e+00
11462 3 3 4.7174210185212708e+01 1.3900727680048375e+01 3.6019328583694441e+00
11461 1 1 4.7453615064957575e+01 1.3930310301829309e+01 3.8481313743531711e+00
12273 1 1 4.7541382312419636e+01 1.3959110958248544e+01 3.9588802842070301e+00
12272 2 2 4.7791160483327616e+01 1.3996436482157021e+01 4.2602232859389746e+00
12271 1 1 4.8095454224944056e+01 1.4094641203393200e+01 4.4904839762408173e+00
7392 1 1 4.8210082295841502e+01 1.4145785311416731e+01 4.5584978812841888e+00
5531 2 2 4.9683312094016053e+01 1.3879488434471899e+01 3.1524970395729439e+00
20375 3 3 3.6100178160930071e+01 1.5705295850863543e+01 3.9569255333487803e+00
20376 1 1 3.6174396536380890e+01 1.5789857343077005e+01 4.3539400809189521e+00
18988 1 1 4.7352290414921498e+01 1.5970553857740418e+01 3.5690227759777429e+00
18989 2 2 4.7534303266761071e+01 1.5848121099146345e+01 3.9314421568987505e+00
18990 1 1 4.7787597976590483e+01 1.5984208057510806e+01 4.1822500501314135e+00
7827 1 1 4.7851830173301416e+01 1.6064540753870464e+01 4.2826101294495276e+00
7826 2 2 4.7991574102789613e+01 1.6324725873299862e+01 4.6090962850352026e+00
2819 2 2 3.1109834919449526e+01 1.8086924973495989e+01 4.5066980047072134e+00
2818 1 1 3.1323055345067015e+01 1.8207430897088202e+01 4.1844919093715083e+00
6094 1 1 3.3747802874875191e+01 1.7978722204373291e+01 4.0355474509669724e+00
6095 3 3 3.3677377494313255e+01 1.8086357750532571e+01 3.6867096763863603e+00
6096 1 1 3.3593173710435828e+01 1.8420820350294981e+01 3.6003673959645801e+00
18184 1 1 3.5808773134141653e+01 1.8195629560483916e+01 4.1469925006237522e+00
2467 1 1 3.7606944587264849e+01 1.7146058462528298e+01 4.3965231217168563e+00
1558 1 1 3.8745403011659064e+01 1.7076979508009455e+01 4.3933453982564012e+00
1559 3 3 3.8889923885981112e+01 1.7408686212825408e+01 4.5354726074999521e+00
17397 1 1 4.3102465159108860e+01 1.7971000586893023e+01 4.2718388786654913e+00
17396 3 3 4.3182651260186852e+01 1.8309966279596654e+01 4.4239116488067944e+00
17800 1 1 4.8013591189803414e+01 1.7521014725445919e+01 4.0263494461847786e+00
17801 2 2 4.8295016177343989e+01 1.7656776010816408e+01 3.7445146221402492e+00
17802 1 1 4.8471662471377087e+01 1.7915419732737696e+01 3.4606568851329764e+00
4704 1 1 9.5608209034992053e-01 1.9171875662678726e+01 3.7789613939152402e+00
7659 1 1 8.9740803545938075e-01 1.9278108253424342e+01 3.8701112045110819e+00
4703 2 2 1.1145062590961261e+00 1.8937000493882216e+01 3.5300006635448464e+00
7658 2 2 6.9756695400751334e-01 1.9600775472261677e+01 4.0979643530719372e+00
7657 1 1 7.0548567296898002e-01 1.9972052777503844e+01 4.1818928991458639e+00
11007 1 1 6.3240567178516525e+00 1.9603149168012568e+01 3.3478621801734474e+00
11006 2 2 6.1912246452788082e+00 1.9866992746359166e+01 3.6093991968454131e+00
16364 2 2 3.1560259993427405e+01 1.9950295571013314e+01 3.8082214204356153e+00
16363 1 1 3.1776453926816153e+01 1.9829835349261412e+01 4.0825935013237746e+00
2962 1 1 3.1870609674427744e+01 1.9799731089660895e+01 4.1620737467080957e+00
19832 3 3 3.3191687294491778e+01 1.9892690045381570e+01 3.2564474191548576e+00
2963 3 3 3.2185532603798016e+01 1.9712570074225258e+01 4.4075608815272345e+00
2964 1 1 3.2605208697964045e+01 1.9693878089443391e+01 4.4390696478791156e+00
660 1 1 3.2760489310689792e+01 1.9666722369620789e+01 4.4722219257747895e+00
659 3 3 3.3211550818304040e+01 1.9602121246120085e+01 4.5618639322628569e+00
19833 1 1 3.3357666068054598e+01 1.9526081715565635e+01 3.3900418600611699e+00
60 1 1 3.3587479382814955e+01 1.8581432209661518e+01 3.5779665659030329e+00
59 3 3 3.3533811755856945e+01 1.8971906494871739e+01 3.5946240420012900e+00
58 1 1 3.3405385741219135e+01 1.9353219346548034e+01 3.4608778994993319e+00
658 1 1 3.3470690717461871e+01 1.9374794380562410e+01 4.5897461417960992e+00
9373 1 1 3.3580559447346104e+01 1.9263744770832087e+01 4.6163974479245988e+00
18185 3 3 3.5757813701918693e+01 1.8592323888584882e+01 4.2309311474095912e+00
18186 1 1 3.5458007640940721e+01 1.8621900181092919e+01 4.5571778809794434e+00
2647 1 1 3.6395164139353760e+01 1.9537876443211175e+01 3.9701162906763492e+00
2648 3 3 3.6614656929848252e+01 1.9412370410448315e+01 3.6479832226662201e+00
16677 1 1 3.6984743873650778e+01 1.9484458585462392e+01 3.2253203928627703e+00
2649 1 1 3.6880317274276656e+01 1.9459950089051446e+01 3.3300630011782091e+00
17395 1 1 4.3278291607207663e+01 1.8699101431152695e+01 4.4484099507927262e+00
15992 3 3 4.3378294137194828e+01 1.9240656708747697e+01 4.5517878743290670e+00
15991 1 1 4.3300817502233592e+01 1.8862588646785632e+01 4.4691654714672993e+00
12149 2 2 4.8796816676728405e+01 1.8869518711032228e+01 3.8212095849117689e+00
12150 1 1 4.8735227156004541e+01 1.8956061110264585e+01 3.4666608323586541e+00
12148 1 1 4.8943806368646783e+01 1.8809043501485910e+01 4.2341329628033932e+00
6015 1 1 4.8966263537618040e+01 1.8812278647861998e+01 4.3884191175600504e+00
17426 3 3 5.6515764463307798e+00 2.0672132390048294e+01 3.7507819787414620e+00
17427 1 1 5.8893988830237882e+00 2.0326348903551875e+01 3.7266794751481012e+00
6136 1 1 5.6043315593243435e+00 2.1210636633758511e+01 3.5983648118667948e+00
17425 1 1 5.5838584460368006e+00 2.1056143941809410e+01 3.6305797408427511e+00
11005 1 1 5.9809798993471226e+00 2.0199542979263335e+01 3.6969726577706075e+00
21501 1 1 3.0367792023634372e+01 2.0353747634904380e+01 3.9130083415964387e+00
21500 2 2 3.0740194715877504e+01 2.0355330065159794e+01 4.0386218326889454e+00
21499 1 1 3.1127963895784546e+01 2.0204360647812393e+01 3.9937424619165194e+00
16365 1 1 3.1244781081281168e+01 2.0156881148118913e+01 3.9599100123667275e+00
19243 1 1 3.7109256940871170e+01 2.1392891731632414e+01 4.1764802191660380e+00
6137 3 3 5.6493171377813569e+00 2.1617561625441656e+01 3.5455770897086833e+00
7914 1 1 5.9373518529594405e+00 2.2055260173348291e+01 3.6273191206064790e+00
6138 1 1 5.8805858860368874e+00 2.1918307843747446e+01 3.5974200578164526e+00
7912 1 1 6.2512474880258360e+00 2.2728452946408495e+01 3.8430758436486121e+00
7913 3 3 6.0774980999463262e+00 2.2371459714626795e+01 3.7448282221096862e+00
10712 3 3 3.5677768735156228e+01 2.2683140050128102e+01 3.1460015344693049e+00
10711 1 1 3.5424272498926321e+01 2.2472963357331093e+01 3.3741179839252569e+00
19244 3 3 3.6793679592335174e+01 2.1603162046287963e+01 4.3220348294448776e+00
19245 1 1 3.6538318184319607e+01 2.1802379509993091e+01 4.5718954275955381e+00
18985 1 1 4.3224514379422082e+01 2.4135436924178276e+01 4.6151234227141682e+00
18986 3 3 4.3481308245329444e+01 2.4467361658964748e+01 4.6182107661798355e+00
18010 1 1 3.4772965726960429e+01 2.5806250480307767e+01 3.4687432835858005e+00
18011 2 2 3.4897421216846240e+01 2.5949504576220907e+01 3.8063667168421418e+00
9278 2 2 3.6307936991826452e+01 2.4967070229209479e+01 4.5877342715132681e+00
9279 1 1 3.6553773856574594e+01 2.5062981578016583e+01 4.2809978844409038e+00
2688 1 1 3.6634071196297135e+01 2.5093652241328879e+01 4.1466695115030090e+00
2687 3 3 3.6929270047903834e+01 2.5143973125892757e+01 3.8853471442403706e+00
2686 1 1 3.7274428173667552e+01 2.5274219494057334e+01 3.8750905029581304e+00
3012 1 1 3.7424578568283081e+01 2.5318013904302198e+01 3.8514833690373025e+00
3011 3 3 3.7778271530120932e+01 2.5452743354540694e+01 3.7752783335869138e+00
18300 1 1 3.8218106104843926e+01 2.5769955886440840e+01 3.6425818349005752e+00
3010 1 1 3.8104195270321512e+01 2.5682076593853978e+01 3.6913912353259155e+00
15470 3 3 3.9391223940351885e+01 2.5828530743301492e+01 3.7884286889907135e+00
15471 1 1 3.9001654298748726e+01 2.5871971397751999e+01 3.6678394597824768e+00
18298 1 1 3.8852244540416656e+01 2.5890699887336304e+01 3.6376253007129220e+00
18299 3 3 3.8485555110122348e+01 2.5941639985211182e+01 3.5128675720138420e+00
15469 1 1 3.9762949019276071e+01 2.5797802203849614e+01 3.5900168562455526e+00
18987 1 1 4.3756730476269396e+01 2.4689638665931462e+01 4.4962478564818200e+00
3933 1 1 4.3900548063982491e+01 2.4738538693151000e+01 4.4304679316818287e+00
3932 3 3 4.4281462252577512e+01 2.4779074101746176e+01 4.2576947450423583e+00