ITEM: TIMESTEP
0
ITEM: NUMBER OF ATOMS
4458
ITEM: BOX BOUNDS pp pp pp
0.0000000000000000e+00 5.0000000000000000e+01
0.0000000000000000e+00 5.0000000000000000e+01
0.0000000000000000e+00 5.0000000000000000e+01
ITEM: ATOMS id type 
1 1 
2 3 
3 1 
61 1 
62 3 
63 1 
70 1 
71 2 
72 1 
124 1 
125 2 
126 1 
130 1 
131 2 
132 1 
244 1 
245 2 
246 1 
250 1 
251 3 
252 1 
256 1 
257 2 
258 1 
301 1 
302 3 
303 1 
328 1 
329 3 
330 1 
421 1 
422 3 
423 1 
436 1 
437 3 
438 1 
448 1 
449 2 
450 1 
490 1 
491 2 
492 1 
1147 1 
1148 3 
1149 1 
1153 1 
1154 3 
1155 1 
1210 1 
1211 3 
1212 1 
1219 1 
1220 2 
1221 1 
1321 1 
1322 2 
1323 1 
1327 1 
1328 3 
1329 1 
1330 1 
1331 2 
1332 1 
1339 1 
1340 2 
1341 1 
1399 1 
1400 3 
1401 1 
1405 1 
1406 2 
1407 1 
1468 1 
1469 2 
1470 1 
1519 1 
1520 2 
1521 1 
1564 1 
1565 2 
1566 1 
1567 1 
1568 2 
1569 1 
1588 1 
1589 2 
1590 1 
1639 1 
1640 2 
1641 1 
1642 1 
1643 3 
1644 1 
1648 1 
1649 2 
1650 1 
2233 1 
2234 2 
2235 1 
2308 1 
2309 2 
2310 1 
2359 1 
2360 3 
2361 1 
2410 1 
2411 2 
2412 1 
2467 1 
2468 3 
2469 1 
2527 1 
2528 2 
2529 1 
2539 1 
2540 2 
2541 1 
2545 1 
2546 2 
2547 1 
2548 1 
2549 2 
2550 1 
3301 1 
3302 2 
3303 1 
3304 1 
3305 3 
3306 1 
3313 1 
3314 2 
3315 1 
3322 1 
3323 3 
3324 1 
3385 1 
3386 2 
3387 1 
3421 1 
3422 2 
3423 1 
3439 1 
3440 3 
3441 1 
3481 1 
3482 2 
3483 1 
3487 1 
3488 3 
3489 1 
3493 1 
3494 3 
3495 1 
3550 1 
3551 2 
3552 1 
3553 1 
3554 2 
3555 1 
3556 1 
3557 3 
3558 1 
3562 1 
3563 3 
3564 1 
3568 1 
3569 2 
3570 1 
3607 1 
3608 3 
3609 1 
3613 1 
3614 2 
3615 1 
3625 1 
3626 3 
3627 1 
3661 1 
3662 3 
3663 1 
3670 1 
3671 3 
3672 1 
3679 1 
3680 2 
3681 1 
3727 1 
3728 2 
3729 1 
3742 1 
3743 3 
3744 1 
4327 1 
4328 2 
4329 1 
4330 1 
4331 2 
4332 1 
4333 1 
4334 3 
4335 1 
4381 1 
4382 3 
4383 1 
4384 1 
4385 2 
4386 1 
4402 1 
4403 2 
4404 1 
4450 1 
4451 3 
4452 1 
4507 1 
4508 3 
4509 1 
4567 1 
4568 2 
4569 1 
4573 1 
4574 2 
4575 1 
4624 1 
4625 2 
4626 1 
4627 1 
4628 2 
4629 1 
4648 1 
4649 2 
4650 1 
4702 1 
4703 2 
4704 1 
4747 1 
4748 3 
4749 1 
4801 1 
4802 2 
4803 1 
4807 1 
4808 2 
4809 1 
4819 1 
4820 3 
4821 1 
4825 1 
4826 3 
4827 1 
4861 1 
4862 3 
4863 1 
4885 1 
4886 3 
4887 1 
5473 1 
5474 2 
5475 1 
5479 1 
5480 3 
5481 1 
5488 1 
5489 2 
5490 1 
5527 1 
5528 2 
5529 1 
5530 1 
5531 2 
5532 1 
5536 1 
5537 2 
5538 1 
5596 1 
5597 3 
5598 1 
5647 1 
5648 3 
5649 1 
5650 1 
5651 3 
5652 1 
5665 1 
5666 3 
5667 1 
5701 1 
5702 2 
5703 1 
5713 1 
5714 3 
5715 1 
5716 1 
5717 2 
5718 1 
5764 1 
5765 2 
5766 1 
5770 1 
5771 2 
5772 1 
5896 1 
5897 2 
5898 1 
5953 1 
5954 3 
5955 1 
5968 1 
5969 3 
5970 1 
6010 1 
6011 3 
6012 1 
6013 1 
6014 2 
6015 1 
6016 1 
6017 3 
6018 1 
6028 1 
6029 3 
6030 1 
6688 1 
6689 3 
6690 1 
6727 1 
6728 2 
6729 1 
6739 1 
6740 2 
6741 1 
6742 1 
6743 3 
6744 1 
6745 1 
6746 2 
6747 1 
6748 1 
6749 2 
6750 1 
6790 1 
6791 3 
6792 1 
6793 1 
6794 2 
6795 1 
6796 1 
6797 3 
6798 1 
6844 1 
6845 3 
6846 1 
6850 1 
6851 3 
6852 1 
6868 1 
6869 2 
6870 1 
6907 1 
6908 2 
6909 1 
6913 1 
6914 2 
6915 1 
6916 1 
6917 2 
6918 1 
6973 1 
6974 2 
6975 1 
6985 1 
6986 3 
6987 1 
7030 1 
7031 2 
7032 1 
7039 1 
7040 3 
7041 1 
7081 1 
7082 3 
7083 1 
7090 1 
7091 2 
7092 1 
7108 1 
7109 3 
7110 1 
7147 1 
7148 3 
7149 1 
7153 1 
7154 3 
7155 1 
7159 1 
7160 3 
7161 1 
7162 1 
7163 3 
7164 1 
7165 1 
7166 3 
7167 1 
7216 1 
7217 2 
7218 1 
7222 1 
7223 2 
7224 1 
7225 1 
7226 2 
7227 1 
7741 1 
7742 2 
7743 1 
7750 1 
7751 2 
7752 1 
7825 1 
7826 2 
7827 1 
7873 1 
7874 2 
7875 1 
7933 1 
7934 2 
7935 1 
7987 1 
7988 3 
7989 1 
8059 1 
8060 2 
8061 1 
8101 1 
8102 3 
8103 1 
8113 1 
8114 2 
8115 1 
8182 1 
8183 2 
8184 1 
8941 1 
8942 3 
8943 1 
8953 1 
8954 2 
8955 1 
8956 1 
8957 2 
8958 1 
9004 1 
9005 2 
9006 1 
9007 1 
9008 2 
9009 1 
9013 1 
9014 3 
9015 1 
9019 1 
9020 3 
9021 1 
9022 1 
9023 2 
9024 1 
9028 1 
9029 3 
9030 1 
9070 1 
9071 2 
9072 1 
9121 1 
9122 2 
9123 1 
9142 1 
9143 2 
9144 1 
9259 1 
9260 3 
9261 1 
9262 1 
9263 3 
9264 1 
9313 1 
9314 3 
9315 1 
9322 1 
9323 2 
9324 1 
9979 1 
9980 2 
9981 1 
9985 1 
9986 3 
9987 1 
10024 1 
10025 3 
10026 1 
10027 1 
10028 3 
10029 1 
10030 1 
10031 3 
10032 1 
10087 1 
10088 3 
10089 1 
10102 1 
10103 3 
10104 1 
10144 1 
10145 2 
10146 1 
10156 1 
10157 3 
10158 1 
10162 1 
10163 3 
10164 1 
10168 1 
10169 2 
10170 1 
10225 1 
10226 3 
10227 1 
10324 1 
10325 3 
10326 1 
10336 1 
10337 2 
10338 1 
10339 1 
10340 3 
10341 1 
10387 1 
10388 2 
10389 1 
10390 1 
10391 3 
10392 1 
10399 1 
10400 2 
10401 1 
10402 1 
10403 2 
10404 1 
10501 1 
10502 3 
10503 1 
10513 1 
10514 2 
10515 1 
11164 1 
11165 3 
11166 1 
11344 1 
11345 2 
11346 1 
11356 1 
11357 3 
11358 1 
11404 1 
11405 3 
11406 1 
11419 1 
11420 3 
11421 1 
11422 1 
11423 2 
11424 1 
11461 1 
11462 3 
11463 1 
11473 1 
11474 3 
11475 1 
11482 1 
11483 3 
11484 1 
11485 1 
11486 2 
11487 1 
12082 1 
12083 2 
12084 1 
12085 1 
12086 2 
12087 1 
12139 1 
12140 2 
12141 1 
12148 1 
12149 2 
12150 1 
12184 1 
12185 2 
12186 1 
12205 1 
12206 3 
12207 1 
12244 1 
12245 2 
12246 1 
12247 1 
12248 3 
12249 1 
12253 1 
12254 3 
12255 1 
12262 1 
12263 3 
12264 1 
12301 1 
12302 2 
12303 1 
12310 1 
12311 2 
12312 1 
12367 1 
12368 2 
12369 1 
12370 1 
12371 3 
12372 1 
12373 1 
12374 3 
12375 1 
12421 1 
12422 3 
12423 1 
12430 1 
12431 3 
12432 1 
12505 1 
12506 2 
12507 1 
12556 1 
12557 3 
12558 1 
12559 1 
12560 3 
12561 1 
12568 1 
12569 2 
12570 1 
12607 1 
12608 3 
12609 1 
13153 1 
13154 2 
13155 1 
13201 1 
13202 3 
13203 1 
13213 1 
13214 3 
13215 1 
13267 1 
13268 3 
13269 1 
13393 1 
13394 3 
13395 1 
13396 1 
13397 2 
13398 1 
13399 1 
13400 3 
13401 1 
13405 1 
13406 2 
13407 1 
13465 1 
13466 3 
13467 1 
13468 1 
13469 2 
13470 1 
13513 1 
13514 3 
13515 1 
13570 1 
13571 3 
13572 1 
13576 1 
13577 2 
13578 1 
13579 1 
13580 2 
13581 1 
13588 1 
13589 3 
13590 1 
14224 1 
14225 3 
14226 1 
14239 1 
14240 3 
14241 1 
14293 1 
14294 3 
14295 1 
14350 1 
14351 3 
14352 1 
14359 1 
14360 2 
14361 1 
14365 1 
14366 2 
14367 1 
14416 1 
14417 2 
14418 1 
14422 1 
14423 2 
14424 1 
14587 1 
14588 2 
14589 1 
14650 1 
14651 2 
14652 1 
14653 1 
14654 3 
14655 1 
15316 1 
15317 2 
15318 1 
15370 1 
15371 2 
15372 1 
15373 1 
15374 3 
15375 1 
15379 1 
15380 2 
15381 1 
15433 1 
15434 3 
15435 1 
15439 1 
15440 3 
15441 1 
15442 1 
15443 2 
15444 1 
15448 1 
15449 3 
15450 1 
15496 1 
15497 2 
15498 1 
15499 1 
15500 2 
15501 1 
15505 1 
15506 2 
15507 1 
15508 1 
15509 3 
15510 1 
15541 1 
15542 2 
15543 1 
15613 1 
15614 2 
15615 1 
15616 1 
15617 2 
15618 1 
15664 1 
15665 2 
15666 1 
15688 1 
15689 3 
15690 1 
15736 1 
15737 3 
15738 1 
15745 1 
15746 3 
15747 1 
16333 1 
16334 3 
16335 1 
16342 1 
16343 2 
16344 1 
16444 1 
16445 2 
16446 1 
16507 1 
16508 2 
16509 1 
16522 1 
16523 2 
16524 1 
16570 1 
16571 2 
16572 1 
16582 1 
16583 2 
16584 1 
16630 1 
16631 3 
16632 1 
16633 1 
16634 3 
16635 1 
16642 1 
16643 3 
16644 1 
16648 1 
16649 3 
16650 1 
16687 1 
16688 2 
16689 1 
16705 1 
16706 3 
16707 1 
17287 1 
17288 3 
17289 1 
17353 1 
17354 3 
17355 1 
17410 1 
17411 2 
17412 1 
17416 1 
17417 2 
17418 1 
17425 1 
17426 3 
17427 1 
17488 1 
17489 2 
17490 1 
17530 1 
17531 2 
17532 1 
17539 1 
17540 2 
17541 1 
17584 1 
17585 3 
17586 1 
17590 1 
17591 3 
17592 1 
17602 1 
17603 2 
17604 1 
17707 1 
17708 2 
17709 1 
17713 1 
17714 3 
17715 1 
17719 1 
17720 2 
17721 1 
17773 1 
17774 3 
17775 1 
17785 1 
17786 3 
17787 1 
17788 1 
17789 3 
17790 1 
18385 1 
18386 3 
18387 1 
18388 1 
18389 2 
18390 1 
18433 1 
18434 2 
18435 1 
18445 1 
18446 2 
18447 1 
18448 1 
18449 2 
18450 1 
18484 1 
18485 2 
18486 1 
18508 1 
18509 3 
18510 1 
18544 1 
18545 3 
18546 1 
18550 1 
18551 2 
18552 1 
18553 1 
18554 3 
18555 1 
18556 1 
18557 2 
18558 1 
18565 1 
18566 2 
18567 1 
18568 1 
18569 3 
18570 1 
18670 1 
18671 3 
18672 1 
18685 1 
18686 3 
18687 1 
18739 1 
18740 3 
18741 1 
18796 1 
18797 2 
18798 1 
18799 1 
18800 3 
18801 1 
18808 1 
18809 2 
18810 1 
18853 1 
18854 3 
18855 1 
18859 1 
18860 2 
18861 1 
19441 1 
19442 2 
19443 1 
19447 1 
19448 3 
19449 1 
19453 1 
19454 3 
19455 1 
19459 1 
19460 3 
19461 1 
19504 1 
19505 3 
19506 1 
19507 1 
19508 3 
19509 1 
19513 1 
19514 2 
19515 1 
19525 1 
19526 2 
19527 1 
19528 1 
19529 3 
19530 1 
19567 1 
19568 2 
19569 1 
19582 1 
19583 3 
19584 1 
19624 1 
19625 2 
19626 1 
19633 1 
19634 3 
19635 1 
19687 1 
19688 3 
19689 1 
19747 1 
19748 3 
19749 1 
19750 1 
19751 3 
19752 1 
19756 1 
19757 2 
19758 1 
19759 1 
19760 3 
19761 1 
19765 1 
19766 3 
19767 1 
19801 1 
19802 2 
19803 1 
19867 1 
19868 3 
19869 1 
19876 1 
19877 2 
19878 1 
19882 1 
19883 2 
19884 1 
19888 1 
19889 3 
19890 1 
20524 1 
20525 3 
20526 1 
20533 1 
20534 2 
20535 1 
20545 1 
20546 3 
20547 1 
20581 1 
20582 3 
20583 1 
20587 1 
20588 3 
20589 1 
20605 1 
20606 2 
20607 1 
20641 1 
20642 2 
20643 1 
20650 1 
20651 2 
20652 1 
20659 1 
20660 3 
20661 1 
20665 1 
20666 2 
20667 1 
20668 1 
20669 2 
20670 1 
20710 1 
20711 2 
20712 1 
20713 1 
20714 3 
20715 1 
20719 1 
20720 3 
20721 1 
20767 1 
20768 2 
20769 1 
20788 1 
20789 2 
20790 1 
20821 1 
20822 2 
20823 1 
20824 1 
20825 2 
20826 1 
20830 1 
20831 2 
20832 1 
20833 1 
20834 2 
20835 1 
20848 1 
20849 3 
20850 1 
20902 1 
20903 3 
20904 1 
20908 1 
20909 3 
20910 1 
21019 1 
21020 2 
21021 1 
46 1 
47 2 
48 1 
58 1 
59 3 
60 1 
97 1 
98 3 
99 1 
100 1 
101 2 
102 1 
109 1 
110 3 
111 1 
151 1 
152 2 
153 1 
220 1 
221 2 
222 1 
223 1 
224 2 
225 1 
226 1 
227 2 
228 1 
229 1 
230 2 
231 1 
232 1 
233 2 
234 1 
274 1 
275 3 
276 1 
334 1 
335 2 
336 1 
343 1 
344 3 
345 1 
346 1 
347 3 
348 1 
355 1 
356 2 
357 1 
406 1 
407 3 
408 1 
514 1 
515 3 
516 1 
526 1 
527 2 
528 1 
529 1 
530 3 
531 1 
1186 1 
1187 3 
1188 1 
1189 1 
1190 3 
1191 1 
1192 1 
1193 3 
1194 1 
1231 1 
1232 3 
1233 1 
1249 1 
1250 2 
1251 1 
1258 1 
1259 2 
1260 1 
1315 1 
1316 2 
1317 1 
1351 1 
1352 3 
1353 1 
1354 1 
1355 2 
1356 1 
1423 1 
1424 2 
1425 1 
1432 1 
1433 2 
1434 1 
1435 1 
1436 3 
1437 1 
1438 1 
1439 2 
1440 1 
1474 1 
1475 3 
1476 1 
1558 1 
1559 3 
1560 1 
1591 1 
1592 2 
1593 1 
1600 1 
1601 3 
1602 1 
1654 1 
1655 3 
1656 1 
1660 1 
1661 2 
1662 1 
1669 1 
1670 2 
1671 1 
2275 1 
2276 2 
2277 1 
2311 1 
2312 3 
2313 1 
2317 1 
2318 3 
2319 1 
2320 1 
2321 3 
2322 1 
2329 1 
2330 3 
2331 1 
2332 1 
2333 2 
2334 1 
2338 1 
2339 2 
2340 1 
2377 1 
2378 2 
2379 1 
2389 1 
2390 2 
2391 1 
2437 1 
2438 2 
2439 1 
2452 1 
2453 2 
2454 1 
2506 1 
2507 3 
2508 1 
2515 1 
2516 2 
2517 1 
2551 1 
2552 3 
2553 1 
2569 1 
2570 3 
2571 1 
2572 1 
2573 2 
2574 1 
2575 1 
2576 2 
2577 1 
2611 1 
2612 2 
2613 1 
2620 1 
2621 2 
2622 1 
3214 1 
3215 3 
3216 1 
3223 1 
3224 3 
3225 1 
3232 1 
3233 2 
3234 1 
3235 1 
3236 3 
3237 1 
3271 1 
3272 2 
3273 1 
3340 1 
3341 2 
3342 1 
3343 1 
3344 2 
3345 1 
3394 1 
3395 3 
3396 1 
3466 1 
3467 2 
3468 1 
3469 1 
3470 3 
3471 1 
3472 1 
3473 3 
3474 1 
3535 1 
3536 3 
3537 1 
3571 1 
3572 3 
3573 1 
3583 1 
3584 3 
3585 1 
3592 1 
3593 2 
3594 1 
3697 1 
3698 2 
3699 1 
3700 1 
3701 3 
3702 1 
3703 1 
3704 3 
3705 1 
3706 1 
3707 2 
3708 1 
3718 1 
3719 2 
3720 1 
3763 1 
3764 2 
3765 1 
3775 1 
3776 2 
3777 1 
4357 1 
4358 3 
4359 1 
4372 1 
4373 3 
4374 1 
4411 1 
4412 3 
4413 1 
4414 1 
4415 3 
4416 1 
4426 1 
4427 3 
4428 1 
4477 1 
4478 2 
4479 1 
4486 1 
4487 2 
4488 1 
4531 1 
4532 3 
4533 1 
4543 1 
4544 2 
4545 1 
4558 1 
4559 3 
4560 1 
4591 1 
4592 3 
4593 1 
4597 1 
4598 2 
4599 1 
4603 1 
4604 2 
4605 1 
4660 1 
4661 2 
4662 1 
4672 1 
4673 2 
4674 1 
4678 1 
4679 3 
4680 1 
4723 1 
4724 2 
4725 1 
4843 1 
4844 2 
4845 1 
4849 1 
4850 2 
4851 1 
4858 1 
4859 3 
4860 1 
5515 1 
5516 2 
5517 1 
5563 1 
5564 2 
5565 1 
5611 1 
5612 3 
5613 1 
5635 1 
5636 2 
5637 1 
5731 1 
5732 2 
5733 1 
5734 1 
5735 3 
5736 1 
5794 1 
5795 3 
5796 1 
5797 1 
5798 2 
5799 1 
5818 1 
5819 2 
5820 1 
5866 1 
5867 3 
5868 1 
5878 1 
5879 3 
5880 1 
5920 1 
5921 3 
5922 1 
5980 1 
5981 3 
5982 1 
5986 1 
5987 3 
5988 1 
5998 1 
5999 3 
6000 1 
6703 1 
6704 3 
6705 1 
6766 1 
6767 3 
6768 1 
6772 1 
6773 2 
6774 1 
6775 1 
6776 2 
6777 1 
6820 1 
6821 2 
6822 1 
6826 1 
6827 3 
6828 1 
6835 1 
6836 2 
6837 1 
6889 1 
6890 3 
6891 1 
7006 1 
7007 3 
7008 1 
7015 1 
7016 2 
7017 1 
7057 1 
7058 2 
7059 1 
7183 1 
7184 3 
7185 1 
7255 1 
7256 2 
7257 1 
7774 1 
7775 2 
7776 1 
7789 1 
7790 2 
7791 1 
7792 1 
7793 2 
7794 1 
7834 1 
7835 3 
7836 1 
7894 1 
7895 3 
7896 1 
7912 1 
7913 3 
7914 1 
7918 1 
7919 3 
7920 1 
7954 1 
7955 3 
7956 1 
7957 1 
7958 3 
7959 1 
7963 1 
7964 3 
7965 1 
8026 1 
8027 3 
8028 1 
8071 1 
8072 2 
8073 1 
8080 1 
8081 3 
8082 1 
8131 1 
8132 3 
8133 1 
8149 1 
8150 3 
8151 1 
8200 1 
8201 2 
8202 1 
8203 1 
8204 3 
8205 1 
8254 1 
8255 2 
8256 1 
8257 1 
8258 3 
8259 1 
8311 1 
8312 3 
8313 1 
8314 1 
8315 2 
8316 1 
8329 1 
8330 2 
8331 1 
8338 1 
8339 3 
8340 1 
8911 1 
8912 3 
8913 1 
8914 1 
8915 3 
8916 1 
8917 1 
8918 3 
8919 1 
8920 1 
8921 3 
8922 1 
8932 1 
8933 3 
8934 1 
9031 1 
9032 2 
9033 1 
9043 1 
9044 2 
9045 1 
9055 1 
9056 2 
9057 1 
9094 1 
9095 2 
9096 1 
9154 1 
9155 3 
9156 1 
9277 1 
9278 2 
9279 1 
9283 1 
9284 3 
9285 1 
9292 1 
9293 2 
9294 1 
9298 1 
9299 2 
9300 1 
9337 1 
9338 3 
9339 1 
9349 1 
9350 2 
9351 1 
10003 1 
10004 3 
10005 1 
10063 1 
10064 3 
10065 1 
10066 1 
10067 3 
10068 1 
10072 1 
10073 2 
10074 1 
10078 1 
10079 2 
10080 1 
10117 1 
10118 2 
10119 1 
10132 1 
10133 3 
10134 1 
10186 1 
10187 2 
10188 1 
10189 1 
10190 2 
10191 1 
10198 1 
10199 3 
10200 1 
10234 1 
10235 3 
10236 1 
10243 1 
10244 2 
10245 1 
10294 1 
10295 3 
10296 1 
10300 1 
10301 3 
10302 1 
10372 1 
10373 2 
10374 1 
10420 1 
10421 2 
10422 1 
10474 1 
10475 3 
10476 1 
10477 1 
10478 2 
10479 1 
10483 1 
10484 3 
10485 1 
10486 1 
10487 3 
10488 1 
10546 1 
10547 2 
10548 1 
10552 1 
10553 2 
10554 1 
11134 1 
11135 2 
11136 1 
11137 1 
11138 3 
11139 1 
11146 1 
11147 2 
11148 1 
11200 1 
11201 3 
11202 1 
11266 1 
11267 2 
11268 1 
11269 1 
11270 3 
11271 1 
11437 1 
11438 3 
11439 1 
12100 1 
12101 3 
12102 1 
12103 1 
12104 3 
12105 1 
12106 1 
12107 2 
12108 1 
12109 1 
12110 3 
12111 1 
12157 1 
12158 3 
12159 1 
12166 1 
12167 2 
12168 1 
12175 1 
12176 3 
12177 1 
12211 1 
12212 2 
12213 1 
12214 1 
12215 2 
12216 1 
12226 1 
12227 2 
12228 1 
12232 1 
12233 2 
12234 1 
12271 1 
12272 2 
12273 1 
12415 1 
12416 2 
12417 1 
12454 1 
12455 3 
12456 1 
12478 1 
12479 3 
12480 1 
12523 1 
12524 3 
12525 1 
12529 1 
12530 3 
12531 1 
12538 1 
12539 2 
12540 1 
12583 1 
12584 3 
12585 1 
12634 1 
12635 3 
12636 1 
12637 1 
12638 2 
12639 1 
12640 1 
12641 3 
12642 1 
12649 1 
12650 2 
12651 1 
13192 1 
13193 2 
13194 1 
13234 1 
13235 2 
13236 1 
13246 1 
13247 3 
13248 1 
13255 1 
13256 3 
13257 1 
13297 1 
13298 2 
13299 1 
13312 1 
13313 3 
13314 1 
13375 1 
13376 3 
13377 1 
13414 1 
13415 3 
13416 1 
13432 1 
13433 2 
13434 1 
13492 1 
13493 3 
13494 1 
13495 1 
13496 3 
13497 1 
13546 1 
13547 3 
13548 1 
13552 1 
13553 2 
13554 1 
13558 1 
13559 3 
13560 1 
13606 1 
13607 3 
13608 1 
14263 1 
14264 3 
14265 1 
14266 1 
14267 2 
14268 1 
14317 1 
14318 2 
14319 1 
14332 1 
14333 3 
14334 1 
14371 1 
14372 3 
14373 1 
14374 1 
14375 2 
14376 1 
14452 1 
14453 2 
14454 1 
14509 1 
14510 3 
14511 1 
14617 1 
14618 2 
14619 1 
14686 1 
14687 3 
14688 1 
14692 1 
14693 3 
14694 1 
15334 1 
15335 2 
15336 1 
15343 1 
15344 2 
15345 1 
15358 1 
15359 2 
15360 1 
15412 1 
15413 3 
15414 1 
15469 1 
15470 3 
15471 1 
15472 1 
15473 2 
15474 1 
15583 1 
15584 3 
15585 1 
15586 1 
15587 3 
15588 1 
15589 1 
15590 3 
15591 1 
15640 1 
15641 2 
15642 1 
15643 1 
15644 2 
15645 1 
15697 1 
15698 3 
15699 1 
15709 1 
15710 3 
15711 1 
15715 1 
15716 3 
15717 1 
15754 1 
15755 3 
15756 1 
15757 1 
15758 3 
15759 1 
16354 1 
16355 2 
16356 1 
16363 1 
16364 2 
16365 1 
16414 1 
16415 3 
16416 1 
16420 1 
16421 2 
16422 1 
16429 1 
16430 3 
16431 1 
16438 1 
16439 2 
16440 1 
16480 1 
16481 3 
16482 1 
16486 1 
16487 3 
16488 1 
16537 1 
16538 3 
16539 1 
16543 1 
16544 3 
16545 1 
16552 1 
16553 2 
16554 1 
16555 1 
16556 2 
16557 1 
16654 1 
16655 2 
16656 1 
16660 1 
16661 3 
16662 1 
16675 1 
16676 3 
16677 1 
16711 1 
16712 2 
16713 1 
16729 1 
16730 3 
16731 1 
17332 1 
17333 2 
17334 1 
17335 1 
17336 2 
17337 1 
17371 1 
17372 3 
17373 1 
17374 1 
17375 3 
17376 1 
17395 1 
17396 3 
17397 1 
17506 1 
17507 3 
17508 1 
17554 1 
17555 2 
17556 1 
17557 1 
17558 3 
17559 1 
17563 1 
17564 2 
17565 1 
17575 1 
17576 3 
17577 1 
17638 1 
17639 2 
17640 1 
17740 1 
17741 3 
17742 1 
17749 1 
17750 3 
17751 1 
17755 1 
17756 3 
17757 1 
17758 1 
17759 3 
17760 1 
17800 1 
17801 2 
17802 1 
18391 1 
18392 3 
18393 1 
18400 1 
18401 3 
18402 1 
18454 1 
18455 3 
18456 1 
18475 1 
18476 2 
18477 1 
18511 1 
18512 2 
18513 1 
18517 1 
18518 3 
18519 1 
18529 1 
18530 2 
18531 1 
18532 1 
18533 2 
18534 1 
18535 1 
18536 2 
18537 1 
18577 1 
18578 2 
18579 1 
18589 1 
18590 2 
18591 1 
18643 1 
18644 2 
18645 1 
18649 1 
18650 3 
18651 1 
18652 1 
18653 3 
18654 1 
18700 1 
18701 2 
18702 1 
18715 1 
18716 2 
18717 1 
18766 1 
18767 2 
18768 1 
18769 1 
18770 2 
18771 1 
18835 1 
18836 2 
18837 1 
18871 1 
18872 3 
18873 1 
18892 1 
18893 2 
18894 1 
18898 1 
18899 3 
18900 1 
19480 1 
19481 3 
19482 1 
19489 1 
19490 3 
19491 1 
19546 1 
19547 3 
19548 1 
19558 1 
19559 3 
19560 1 
19594 1 
19595 3 
19596 1 
19597 1 
19598 3 
19599 1 
19603 1 
19604 2 
19605 1 
19618 1 
19619 2 
19620 1 
19657 1 
19658 2 
19659 1 
19666 1 
19667 3 
19668 1 
19774 1 
19775 3 
19776 1 
19798 1 
19799 3 
19800 1 
19831 1 
19832 3 
19833 1 
19834 1 
19835 2 
19836 1 
19843 1 
19844 3 
19845 1 
19849 1 
19850 2 
19851 1 
20551 1 
20552 3 
20553 1 
20614 1 
20615 3 
20616 1 
20635 1 
20636 2 
20637 1 
20671 1 
20672 3 
20673 1 
20689 1 
20690 3 
20691 1 
20731 1 
20732 3 
20733 1 
20734 1 
20735 3 
20736 1 
20740 1 
20741 3 
20742 1 
20800 1 
20801 3 
20802 1 
20812 1 
20813 2 
20814 1 
20818 1 
20819 3 
20820 1 
20851 1 
20852 2 
20853 1 
20857 1 
20858 3 
20859 1 
20872 1 
20873 3 
20874 1 
20875 1 
20876 2 
20877 1 
20914 1 
20915 2 
20916 1 
20935 1 
20936 3 
20937 1 
20977 1 
20978 3 
20979 1 
21037 1 
21038 2 
21039 1 
21040 1 
21041 3 
21042 1 
21049 1 
21050 2 
21051 1 
21058 1 
21059 2 
21060 1 
604 1 
605 3 
606 1 
610 1 
611 3 
612 1 
613 1 
614 2 
615 1 
616 1 
617 3 
618 1 
664 1 
665 3 
666 1 
667 1 
668 3 
669 1 
679 1 
680 3 
681 1 
724 1 
725 2 
726 1 
727 1 
728 3 
729 1 
730 1 
731 3 
732 1 
736 1 
737 2 
738 1 
742 1 
743 3 
744 1 
790 1 
791 3 
792 1 
847 1 
848 3 
849 1 
853 1 
854 3 
855 1 
868 1 
869 2 
870 1 
904 1 
905 2 
906 1 
916 1 
917 2 
918 1 
1024 1 
1025 2 
1026 1 
1096 1 
1097 2 
1098 1 
1099 1 
1100 3 
1101 1 
1102 1 
1103 2 
1104 1 
1105 1 
1106 3 
1107 1 
1705 1 
1706 3 
1707 1 
1759 1 
1760 3 
1761 1 
1768 1 
1769 2 
1770 1 
1819 1 
1820 2 
1821 1 
1825 1 
1826 3 
1827 1 
1864 1 
1865 2 
1866 1 
1876 1 
1877 2 
1878 1 
1927 1 
1928 2 
1929 1 
1939 1 
1940 2 
1941 1 
1990 1 
1991 3 
1992 1 
1996 1 
1997 3 
1998 1 
2110 1 
2111 3 
2112 1 
2122 1 
2123 2 
2124 1 
2173 1 
2174 3 
2175 1 
2647 1 
2648 3 
2649 1 
2659 1 
2660 3 
2661 1 
2707 1 
2708 3 
2709 1 
2716 1 
2717 2 
2718 1 
2722 1 
2723 3 
2724 1 
2773 1 
2774 3 
2775 1 
2839 1 
2840 2 
2841 1 
2845 1 
2846 2 
2847 1 
2962 1 
2963 3 
2964 1 
3010 1 
3011 3 
3012 1 
3022 1 
3023 3 
3024 1 
3784 1 
3785 3 
3786 1 
3841 1 
3842 2 
3843 1 
3844 1 
3845 2 
3846 1 
3850 1 
3851 3 
3852 1 
3856 1 
3857 2 
3858 1 
3868 1 
3869 2 
3870 1 
3919 1 
3920 3 
3921 1 
3925 1 
3926 3 
3927 1 
3970 1 
3971 3 
3972 1 
3979 1 
3980 2 
3981 1 
3982 1 
3983 3 
3984 1 
4030 1 
4031 3 
4032 1 
4036 1 
4037 3 
4038 1 
4144 1 
4145 2 
4146 1 
4168 1 
4169 2 
4170 1 
4204 1 
4205 2 
4206 1 
4267 1 
4268 2 
4269 1 
4921 1 
4922 3 
4923 1 
4927 1 
4928 2 
4929 1 
5041 1 
5042 3 
5043 1 
5065 1 
5066 3 
5067 1 
5176 1 
5177 2 
5178 1 
5182 1 
5183 3 
5184 1 
5236 1 
5237 2 
5238 1 
5242 1 
5243 2 
5244 1 
5281 1 
5282 2 
5283 1 
5404 1 
5405 2 
5406 1 
5407 1 
5408 2 
5409 1 
5416 1 
5417 2 
5418 1 
5428 1 
5429 2 
5430 1 
6070 1 
6071 3 
6072 1 
6076 1 
6077 2 
6078 1 
6079 1 
6080 3 
6081 1 
6085 1 
6086 2 
6087 1 
6121 1 
6122 3 
6123 1 
6130 1 
6131 3 
6132 1 
6133 1 
6134 3 
6135 1 
6136 1 
6137 3 
6138 1 
6145 1 
6146 3 
6147 1 
6202 1 
6203 2 
6204 1 
6244 1 
6245 3 
6246 1 
6268 1 
6269 3 
6270 1 
6325 1 
6326 3 
6327 1 
6364 1 
6365 2 
6366 1 
6373 1 
6374 2 
6375 1 
6379 1 
6380 3 
6381 1 
6382 1 
6383 2 
6384 1 
6385 1 
6386 2 
6387 1 
6424 1 
6425 2 
6426 1 
6436 1 
6437 3 
6438 1 
6490 1 
6491 2 
6492 1 
6493 1 
6494 3 
6495 1 
6496 1 
6497 2 
6498 1 
6556 1 
6557 2 
6558 1 
6568 1 
6569 2 
6570 1 
6607 1 
6608 3 
6609 1 
6625 1 
6626 2 
6627 1 
6628 1 
6629 2 
6630 1 
7273 1 
7274 3 
7275 1 
7276 1 
7277 3 
7278 1 
7279 1 
7280 2 
7281 1 
7282 1 
7283 2 
7284 1 
7285 1 
7286 2 
7287 1 
7330 1 
7331 3 
7332 1 
7342 1 
7343 3 
7344 1 
7390 1 
7391 2 
7392 1 
7399 1 
7400 2 
7401 1 
7450 1 
7451 2 
7452 1 
7462 1 
7463 2 
7464 1 
7528 1 
7529 2 
7530 1 
7579 1 
7580 3 
7581 1 
7636 1 
7637 3 
7638 1 
7699 1 
7700 2 
7701 1 
7705 1 
7706 2 
7707 1 
8362 1 
8363 2 
8364 1 
8419 1 
8420 3 
8421 1 
8422 1 
8423 3 
8424 1 
8464 1 
8465 2 
8466 1 
8470 1 
8471 3 
8472 1 
8476 1 
8477 3 
8478 1 
8527 1 
8528 3 
8529 1 
8530 1 
8531 3 
8532 1 
8533 1 
8534 3 
8535 1 
8539 1 
8540 2 
8541 1 
8545 1 
8546 2 
8547 1 
8590 1 
8591 2 
8592 1 
8593 1 
8594 2 
8595 1 
8599 1 
8600 3 
8601 1 
8644 1 
8645 3 
8646 1 
8653 1 
8654 3 
8655 1 
8665 1 
8666 3 
8667 1 
8722 1 
8723 3 
8724 1 
8764 1 
8765 2 
8766 1 
8785 1 
8786 3 
8787 1 
9364 1 
9365 2 
9366 1 
9367 1 
9368 2 
9369 1 
9373 1 
9374 3 
9375 1 
9424 1 
9425 2 
9426 1 
9427 1 
9428 3 
9429 1 
9430 1 
9431 3 
9432 1 
9433 1 
9434 2 
9435 1 
9439 1 
9440 2 
9441 1 
9445 1 
9446 3 
9447 1 
9484 1 
9485 3 
9486 1 
9496 1 
9497 2 
9498 1 
9505 1 
9506 2 
9507 1 
9508 1 
9509 3 
9510 1 
9556 1 
9557 3 
9558 1 
9607 1 
9608 2 
9609 1 
9616 1 
9617 2 
9618 1 
9625 1 
9626 2 
9627 1 
9739 1 
9740 3 
9741 1 
9748 1 
9749 2 
9750 1 
9790 1 
9791 3 
9792 1 
9844 1 
9845 2 
9846 1 
9853 1 
9854 2 
9855 1 
9928 1 
9929 3 
9930 1 
10561 1 
10562 3 
10563 1 
10630 1 
10631 3 
10632 1 
10633 1 
10634 3 
10635 1 
10645 1 
10646 3 
10647 1 
10690 1 
10691 3 
10692 1 
10741 1 
10742 3 
10743 1 
10756 1 
10757 3 
10758 1 
10759 1 
10760 3 
10761 1 
10765 1 
10766 3 
10767 1 
10801 1 
10802 2 
10803 1 
10807 1 
10808 2 
10809 1 
10810 1 
10811 3 
10812 1 
10822 1 
10823 3 
10824 1 
10870 1 
10871 3 
10872 1 
10882 1 
10883 2 
10884 1 
10942 1 
10943 2 
10944 1 
10948 1 
10949 2 
10950 1 
10987 1 
10988 2 
10989 1 
11005 1 
11006 2 
11007 1 
11065 1 
11066 3 
11067 1 
11644 1 
11645 2 
11646 1 
11647 1 
11648 3 
11649 1 
11722 1 
11723 2 
11724 1 
11764 1 
11765 2 
11766 1 
11767 1 
11768 2 
11769 1 
11770 1 
11771 3 
11772 1 
11821 1 
11822 3 
11823 1 
11905 1 
11906 2 
11907 1 
11959 1 
11960 3 
11961 1 
12001 1 
12002 2 
12003 1 
12007 1 
12008 2 
12009 1 
12016 1 
12017 3 
12018 1 
12661 1 
12662 2 
12663 1 
12664 1 
12665 2 
12666 1 
12676 1 
12677 2 
12678 1 
12685 1 
12686 2 
12687 1 
12727 1 
12728 3 
12729 1 
12730 1 
12731 3 
12732 1 
12733 1 
12734 2 
12735 1 
12745 1 
12746 2 
12747 1 
12790 1 
12791 2 
12792 1 
12805 1 
12806 3 
12807 1 
12865 1 
12866 2 
12867 1 
12907 1 
12908 2 
12909 1 
12964 1 
12965 3 
12966 1 
12970 1 
12971 3 
12972 1 
13087 1 
13088 2 
13089 1 
13096 1 
13097 3 
13098 1 
13645 1 
13646 2 
13647 1 
13690 1 
13691 3 
13692 1 
13702 1 
13703 3 
13704 1 
13708 1 
13709 3 
13710 1 
13750 1 
13751 2 
13752 1 
13813 1 
13814 3 
13815 1 
13870 1 
13871 2 
13872 1 
13873 1 
13874 2 
13875 1 
13876 1 
13877 2 
13878 1 
13879 1 
13880 2 
13881 1 
13930 1 
13931 2 
13932 1 
13990 1 
13991 2 
13992 1 
14002 1 
14003 2 
14004 1 
14005 1 
14006 2 
14007 1 
14059 1 
14060 3 
14061 1 
14068 1 
14069 2 
14070 1 
14113 1 
14114 3 
14115 1 
14116 1 
14117 3 
14118 1 
14119 1 
14120 2 
14121 1 
14182 1 
14183 2 
14184 1 
14767 1 
14768 3 
14769 1 
14773 1 
14774 2 
14775 1 
14776 1 
14777 3 
14778 1 
14833 1 
14834 2 
14835 1 
14881 1 
14882 3 
14883 1 
14893 1 
14894 3 
14895 1 
14941 1 
14942 3 
14943 1 
14947 1 
14948 2 
14949 1 
14953 1 
14954 2 
14955 1 
14968 1 
14969 3 
14970 1 
15082 1 
15083 3 
15084 1 
15139 1 
15140 2 
15141 1 
15142 1 
15143 2 
15144 1 
15181 1 
15182 2 
15183 1 
15247 1 
15248 2 
15249 1 
15250 1 
15251 2 
15252 1 
15262 1 
15263 3 
15264 1 
15781 1 
15782 2 
15783 1 
15796 1 
15797 2 
15798 1 
15805 1 
15806 2 
15807 1 
15865 1 
15866 3 
15867 1 
15916 1 
15917 3 
15918 1 
15964 1 
15965 3 
15966 1 
15985 1 
15986 2 
15987 1 
16030 1 
16031 3 
16032 1 
16084 1 
16085 3 
16086 1 
16087 1 
16088 3 
16089 1 
16090 1 
16091 3 
16092 1 
16156 1 
16157 3 
16158 1 
16168 1 
16169 3 
16170 1 
16210 1 
16211 3 
16212 1 
16216 1 
16217 3 
16218 1 
16219 1 
16220 3 
16221 1 
16264 1 
16265 2 
16266 1 
16273 1 
16274 2 
16275 1 
16276 1 
16277 2 
16278 1 
16285 1 
16286 2 
16287 1 
16816 1 
16817 3 
16818 1 
16819 1 
16820 3 
16821 1 
16825 1 
16826 3 
16827 1 
16921 1 
16922 2 
16923 1 
16930 1 
16931 3 
16932 1 
16942 1 
16943 2 
16944 1 
16945 1 
16946 2 
16947 1 
16948 1 
16949 3 
16950 1 
16981 1 
16982 3 
16983 1 
16984 1 
16985 3 
16986 1 
16999 1 
17000 2 
17001 1 
17008 1 
17009 2 
17010 1 
17041 1 
17042 2 
17043 1 
17044 1 
17045 3 
17046 1 
17050 1 
17051 2 
17052 1 
17056 1 
17057 3 
17058 1 
17101 1 
17102 2 
17103 1 
17104 1 
17105 3 
17106 1 
17113 1 
17114 2 
17115 1 
17125 1 
17126 3 
17127 1 
17164 1 
17165 3 
17166 1 
17167 1 
17168 3 
17169 1 
17188 1 
17189 2 
17190 1 
17221 1 
17222 3 
17223 1 
17227 1 
17228 2 
17229 1 
17236 1 
17237 3 
17238 1 
17248 1 
17249 2 
17250 1 
17824 1 
17825 2 
17826 1 
17881 1 
17882 2 
17883 1 
17884 1 
17885 2 
17886 1 
17890 1 
17891 2 
17892 1 
17896 1 
17897 2 
17898 1 
17908 1 
17909 3 
17910 1 
17941 1 
17942 2 
17943 1 
17947 1 
17948 3 
17949 1 
17950 1 
17951 3 
17952 1 
17965 1 
17966 3 
17967 1 
18010 1 
18011 2 
18012 1 
18022 1 
18023 3 
18024 1 
18061 1 
18062 3 
18063 1 
18067 1 
18068 3 
18069 1 
18076 1 
18077 3 
18078 1 
18124 1 
18125 2 
18126 1 
18130 1 
18131 2 
18132 1 
18136 1 
18137 3 
18138 1 
18181 1 
18182 3 
18183 1 
18184 1 
18185 3 
18186 1 
18190 1 
18191 2 
18192 1 
18193 1 
18194 3 
18195 1 
18253 1 
18254 3 
18255 1 
18301 1 
18302 2 
18303 1 
18328 1 
18329 3 
18330 1 
18901 1 
18902 3 
18903 1 
18925 1 
18926 2 
18927 1 
18982 1 
18983 2 
18984 1 
18985 1 
18986 3 
18987 1 
18988 1 
18989 2 
18990 1 
19024 1 
19025 2 
19026 1 
19081 1 
19082 2 
19083 1 
19096 1 
19097 2 
19098 1 
19099 1 
19100 2 
19101 1 
19144 1 
19145 3 
19146 1 
19147 1 
19148 2 
19149 1 
19150 1 
19151 3 
19152 1 
19159 1 
19160 3 
19161 1 
19168 1 
19169 2 
19170 1 
19201 1 
19202 3 
19203 1 
19204 1 
19205 3 
19206 1 
19213 1 
19214 2 
19215 1 
19219 1 
19220 3 
19221 1 
19261 1 
19262 3 
19263 1 
19264 1 
19265 2 
19266 1 
19279 1 
19280 3 
19281 1 
19285 1 
19286 3 
19287 1 
19393 1 
19394 3 
19395 1 
19939 1 
19940 3 
19941 1 
19948 1 
19949 2 
19950 1 
19987 1 
19988 2 
19989 1 
20005 1 
20006 2 
20007 1 
20044 1 
20045 2 
20046 1 
20110 1 
20111 3 
20112 1 
20113 1 
20114 3 
20115 1 
20122 1 
20123 3 
20124 1 
20176 1 
20177 2 
20178 1 
20221 1 
20222 2 
20223 1 
20236 1 
20237 2 
20238 1 
20245 1 
20246 2 
20247 1 
20284 1 
20285 3 
20286 1 
20293 1 
20294 3 
20295 1 
20344 1 
20345 3 
20346 1 
20347 1 
20348 2 
20349 1 
20365 1 
20366 3 
20367 1 
20401 1 
20402 3 
20403 1 
20407 1 
20408 2 
20409 1 
20419 1 
20420 3 
20421 1 
20422 1 
20423 2 
20424 1 
20461 1 
20462 3 
20463 1 
20464 1 
20465 3 
20466 1 
20485 1 
20486 2 
20487 1 
21067 1 
21068 2 
21069 1 
21070 1 
21071 2 
21072 1 
21073 1 
21074 2 
21075 1 
21139 1 
21140 2 
21141 1 
21142 1 
21143 3 
21144 1 
21190 1 
21191 2 
21192 1 
21199 1 
21200 3 
21201 1 
21244 1 
21245 3 
21246 1 
21307 1 
21308 2 
21309 1 
21325 1 
21326 3 
21327 1 
21328 1 
21329 2 
21330 1 
21430 1 
21431 3 
21432 1 
21433 1 
21434 3 
21435 1 
21448 1 
21449 3 
21450 1 
21490 1 
21491 2 
21492 1 
21493 1 
21494 3 
21495 1 
21499 1 
21500 2 
21501 1 
21562 1 
21563 2 
21564 1 
571 1 
572 2 
573 1 
595 1 
596 2 
597 1 
634 1 
635 2 
636 1 
640 1 
641 2 
642 1 
652 1 
653 2 
654 1 
658 1 
659 3 
660 1 
694 1 
695 3 
696 1 
706 1 
707 2 
708 1 
709 1 
710 3 
711 1 
712 1 
713 3 
714 1 
715 1 
716 3 
717 1 
751 1 
752 2 
753 1 
811 1 
812 2 
813 1 
814 1 
815 2 
816 1 
823 1 
824 2 
825 1 
892 1 
893 3 
894 1 
955 1 
956 3 
957 1 
958 1 
959 3 
960 1 
997 1 
998 3 
999 1 
1000 1 
1001 2 
1002 1 
1009 1 
1010 2 
1011 1 
1051 1 
1052 2 
1053 1 
1120 1 
1121 3 
1122 1 
1711 1 
1712 3 
1713 1 
1732 1 
1733 3 
1734 1 
1738 1 
1739 2 
1740 1 
1777 1 
1778 3 
1779 1 
1786 1 
1787 2 
1788 1 
1792 1 
1793 3 
1794 1 
1837 1 
1838 2 
1839 1 
1846 1 
1847 3 
1848 1 
1900 1 
1901 2 
1902 1 
1903 1 
1904 3 
1905 1 
1909 1 
1910 3 
1911 1 
1912 1 
1913 3 
1914 1 
1915 1 
1916 2 
1917 1 
1954 1 
1955 3 
1956 1 
1966 1 
1967 2 
1968 1 
1972 1 
1973 2 
1974 1 
1975 1 
1976 2 
1977 1 
2020 1 
2021 3 
2022 1 
2086 1 
2087 2 
2088 1 
2095 1 
2096 3 
2097 1 
2146 1 
2147 2 
2148 1 
2671 1 
2672 3 
2673 1 
2674 1 
2675 2 
2676 1 
2680 1 
2681 3 
2682 1 
2686 1 
2687 3 
2688 1 
2731 1 
2732 3 
2733 1 
2791 1 
2792 2 
2793 1 
2797 1 
2798 3 
2799 1 
2806 1 
2807 3 
2808 1 
2818 1 
2819 2 
2820 1 
2851 1 
2852 3 
2853 1 
2872 1 
2873 2 
2874 1 
2926 1 
2927 2 
2928 1 
2932 1 
2933 2 
2934 1 
2935 1 
2936 2 
2937 1 
2986 1 
2987 2 
2988 1 
3037 1 
3038 2 
3039 1 
3040 1 
3041 3 
3042 1 
3046 1 
3047 2 
3048 1 
3103 1 
3104 2 
3105 1 
3154 1 
3155 3 
3156 1 
3172 1 
3173 3 
3174 1 
3175 1 
3176 3 
3177 1 
3817 1 
3818 3 
3819 1 
3886 1 
3887 3 
3888 1 
3931 1 
3932 3 
3933 1 
3952 1 
3953 2 
3954 1 
3994 1 
3995 3 
3996 1 
3997 1 
3998 2 
3999 1 
4003 1 
4004 2 