ITEM: TIMESTEP
60000000
ITEM: NUMBER OF ATOMS
180
ITEM: BOX BOUNDS pp pp pp
0.0000000000000000e+00 5.0000000000000000e+01
0.0000000000000000e+00 5.0000000000000000e+01
0.0000000000000000e+00 5.0000000000000000e+01
ITEM: ATOMS id type vx vy vz 
20855 3 -1.38632 -1.42297 -0.059401 
20856 1 -3.50465 -4.89422 -0.632455 
19866 1 -4.06628 0.522459 -1.2804 
20854 1 -4.2937 3.23991 -2.32854 
2475 1 -1.95312 7.24478 -7.52977 
460 1 3.37258 0.357049 1.63499 
1367 2 3.16269 5.02909 -2.1531 
1366 1 -1.31796 -2.06725 -0.2995 
461 2 0.478176 -5.93932 2.17225 
1368 1 -8.27911 0.461464 -3.96403 
19864 1 -1.85029 1.71941 2.27299 
19865 2 -1.59668 -2.14446 0.653861 
2474 2 1.40332 0.778786 -3.53139 
13782 1 -2.45844 -0.554997 -0.868361 
2473 1 -1.92216 -1.84532 5.26698 
462 1 -3.05456 -3.19665 -1.56861 
18778 1 0.451736 -2.74981 -0.64389 
18780 1 -0.562495 -2.32055 -2.66484 
14028 1 4.7805 -3.22772 0.240359 
18779 2 -1.48609 -2.71157 -0.59816 
8809 1 0.813519 -4.72298 3.23924 
17521 1 0.652823 3.71207 2.52551 
12278 2 3.03401 -1.25761 -4.29458 
12277 1 3.47035 -2.15925 2.26107 
12279 1 -7.1935 -5.28303 1.3667 
21346 1 0.679459 -1.16009 -0.962408 
6804 1 1.92523 -8.36369 -9.4653 
6803 2 5.23103 -3.46991 1.1094 
6802 1 -1.42979 1.52791 2.75571 
6033 1 2.03934 1.0346 2.98117 
6032 2 -0.298622 1.92606 -1.62608 
3371 3 2.21674 4.88658 -0.734883 
12526 1 -7.04949 3.57143 -5.70102 
12527 2 1.82903 0.939509 -3.87479 
6031 1 2.85899 3.25812 2.46222 
20989 1 -1.56899 4.67045 0.153427 
20990 2 -0.97611 0.490162 -1.76073 
20991 1 0.524603 5.27452 2.59357 
3372 1 -2.43659 -3.79629 -5.81062 
12528 1 2.75062 2.33261 0.370047 
5193 1 0.74352 2.51592 2.13237 
5191 1 3.23417 0.0390923 3.26672 
3370 1 -1.7734 -2.08531 3.41855 
5192 2 4.08194 0.505778 -1.05406 
21097 1 1.95741 -1.98605 1.70177 
7680 1 -1.57896 0.24648 2.51734 
21098 2 4.49453 -1.62272 2.30742 
21099 1 -1.37003 -1.49866 -4.70425 
2296 1 -2.15622 1.44258 1.62761 
6533 2 -0.390864 2.15298 2.93646 
6534 1 -1.3444 -3.21176 1.68422 
6532 1 4.6468 4.36305 3.43273 
2297 2 -1.08762 0.188056 2.41088 
13780 1 -0.0052157 2.22133 0.737113 
2298 1 2.78036 -1.16689 4.44481 
13781 2 -0.18962 0.58146 2.40215 
14027 2 2.4422 -0.281314 2.99457 
14026 1 -1.72625 -5.36133 2.25384 
10538 2 -0.768762 0.821668 -1.61037 
10537 1 -5.8579 5.01341 -5.66953 
177 1 -1.22291 -2.7901 -5.44085 
176 3 2.56813 -0.655782 -8.02731 
175 1 2.42558 2.77343 6.44253 
10539 1 0.537052 -5.36314 3.34559 
7853 3 4.13233 1.80963 -2.83185 
7852 1 -3.15123 -3.88943 1.47515 
2279 2 0.719867 -0.995309 2.71736 
15486 1 -3.01728 -0.402425 1.30093 
7854 1 -8.29205 2.4162 3.82522 
15484 1 3.12505 3.9178 -2.02051 
2280 1 2.0718 -1.5976 -4.46138 
15485 2 3.49101 1.60883 1.14574 
7679 2 -5.55882 -2.51934 1.56725 
7678 1 -8.6101 -1.63516 -0.983016 
11881 1 -2.62732 -6.48614 1.14312 
11882 2 3.28659 -1.73389 1.54888 
2278 1 6.5002 -3.91578 0.330586 
11883 1 1.14771 5.85101 1.96581 
13264 1 3.55575 -4.1821 0.0939273 
13221 1 0.81951 -6.80552 -0.544639 
15378 1 4.14458 -0.0566875 -0.75169 
15377 2 0.6852 4.56847 0.46359 
15376 1 -2.69483 -0.876932 4.04143 
21505 1 -2.58813 -0.50153 -1.75664 
21506 2 0.380728 -0.865066 3.15509 
3710 2 0.629463 -0.698515 -1.14351 
21507 1 -2.24311 0.766709 -1.63831 
3709 1 -0.119216 1.97811 -0.909927 
3711 1 4.52962 2.63441 0.733011 
13265 2 -0.911148 1.99611 2.65938 
13266 1 -2.24803 -5.07499 5.93095 
15012 1 -5.22153 -0.5558 3.3867 
15011 2 -1.2863 -0.65356 4.90068 
15010 1 -2.94544 -4.47602 -3.3935 
1170 1 2.53117 2.03953 -0.032416 
1169 2 5.13428 -0.245635 1.4722 
1168 1 2.98364 5.82175 -0.427395 
14234 2 2.67564 0.832739 2.94348 
5080 1 6.79075 2.81557 4.96016 
9940 1 1.99521 -5.44257 -4.52323 
9942 1 -1.1702 -1.59616 2.18638 
14233 1 -3.50877 -2.95665 -1.83849 
9941 2 -0.993658 -1.79301 4.74556 
19728 1 -3.37697 6.38691 -1.28027 
19727 2 -2.05811 -0.0437152 0.973011 
3319 1 -3.47589 4.41756 0.637361 
21531 1 2.25138 -0.679544 1.42102 
3320 2 2.2954 1.02301 1.73919 
3321 1 -2.72855 -1.49356 -1.51091 
3618 1 -1.04328 5.72426 0.200823 
3617 2 -1.09929 0.625816 3.44378 
3616 1 -3.25008 0.811605 -3.3874 
19030 1 0.791255 -4.0158 -1.03877 
6894 1 -6.81489 1.84507 1.6956 
19031 2 -1.9339 3.0955 -2.25966 
19032 1 1.07164 1.35145 3.19508 
13220 2 1.86866 -1.61399 1.6373 
13219 1 -1.24029 1.52342 -6.20123 
19726 1 -0.726596 2.8778 4.40265 
17318 2 1.896 2.37973 0.761091 
17317 1 -0.458358 -1.91381 -4.15056 
17319 1 1.24332 -2.11243 0.125516 
608 2 0.962718 4.87302 0.903158 
609 1 -1.21014 0.737833 -1.39214 
8730 1 -6.41061 4.08966 -2.16174 
14235 1 -3.49103 -5.27558 4.19278 
8811 1 0.199542 0.109425 -1.4384 
5081 2 -5.26569 -0.980172 -2.09925 
5082 1 -1.87672 3.17774 -2.39847 
8971 1 2.30888 -8.08335 3.51348 
8972 2 -4.55784 2.51841 -2.17365 
8973 1 -0.0131239 1.34647 -0.731158 
7432 1 -0.488464 -7.61254 -5.12748 
8810 2 1.94952 -0.98535 -4.01644 
21530 3 2.13327 -0.0603471 2.44589 
21529 1 2.16705 4.89358 1.64361 
20889 1 6.57597 5.2758 1.23384 
390 1 -0.453879 -2.64447 -1.18485 
20888 2 -2.55498 2.5064 0.893582 
20887 1 -1.29761 2.59206 -6.32388 
6892 1 1.36659 5.26952 -5.56634 
6893 2 2.98049 -2.45505 1.90037 
607 1 2.12343 -1.51811 -0.946909 
19333 1 -3.8609 -4.57709 -1.52667 
19334 2 0.647986 0.364415 -1.48346 
8729 2 0.274101 1.47 -1.43138 
9160 1 -1.1473 4.17365 -2.07672 
9161 2 -1.12277 -4.90238 -0.69614 
9162 1 -5.335 0.269296 -0.92907 
2565 1 -2.46342 0.191579 3.38352 
12987 1 3.73675 1.45805 3.57259 
8728 1 0.983881 -0.0299341 2.09143 
12986 2 2.55737 -0.365206 2.08573 
12985 1 -1.97649 -3.43006 4.47145 
7236 1 -3.96753 -0.636933 0.654045 
7235 2 2.89978 -0.417362 0.997382 
17522 2 -4.22549 0.762191 0.264855 
14867 3 -1.95825 0.735135 -0.00138751 
14868 1 3.66776 -4.37941 -4.5157 
19335 1 0.355817 -5.72041 1.01033 
14866 1 2.71023 2.11063 -0.2561 
17523 1 3.49467 4.90557 -2.98256 
21347 2 -0.155424 -0.891823 -0.134618 
7433 2 -1.62486 -0.087894 -0.704453 
21348 1 -2.2947 0.102527 4.77673 
7434 1 -6.13459 3.07533 2.61343 
389 2 -0.0396744 0.910277 1.45064 
388 1 1.60604 -1.25111 3.49852 
3207 1 -2.96919 -2.60696 -2.03362 
10378 1 1.29443 -1.01971 0.0266018 
10379 2 -2.11671 -0.756788 0.0769271 
3206 2 -2.92067 -0.266183 -0.678851 
10380 1 0.217133 1.87765 4.99777 
11029 1 1.70406 -1.6668 8.52325 
11030 2 0.14541 1.40961 2.57035 
7234 1 -3.32552 6.08845 -2.35013 
11031 1 2.64075 -0.364594 -3.4203 
2564 2 0.809583 -1.66269 3.13971 
2563 1 -2.37372 -5.46409 -1.41102 
3205 1 0.572866 1.04389 -1.14502 
