ITEM: TIMESTEP
60000000
ITEM: NUMBER OF ENTRIES
173
ITEM: BOX BOUNDS pp pp pp
0 50
0 50
0 50
ITEM: ENTRIES c_binfo[1] c_binfo[2] c_binfo[3] 
3 20855 20856 
1 19866 20856 
3 20854 20855 
2 460 461 
1 460 1366 
2 1367 1368 
2 1366 1367 
2 461 462 
1 1368 19864 
2 19864 19865 
2 19865 19866 
2 2474 2475 
2 2473 2474 
1 2473 13782 
1 462 18778 
2 18778 18779 
1 14028 18780 
2 18779 18780 
2 8809 8810 
2 17521 17522 
2 12278 12279 
2 12277 12278 
1 12279 17521 
2 21346 21347 
1 6804 21346 
2 6803 6804 
2 6802 6803 
1 6033 6802 
2 6032 6033 
3 3371 3372 
2 12526 12527 
2 12527 12528 
2 6031 6032 
1 6031 20989 
2 20989 20990 
2 20990 20991 
1 3372 20991 
1 5193 12528 
2 5191 5192 
3 3370 3371 
1 3370 5191 
2 5192 5193 
2 21097 21098 
1 7680 21097 
2 21098 21099 
2 2296 2297 
1 2296 6534 
2 6533 6534 
2 6532 6533 
1 6532 21099 
2 2297 2298 
2 13780 13781 
1 2298 14026 
2 13781 13782 
2 14027 14028 
2 14026 14027 
2 10538 10539 
2 10537 10538 
1 177 10537 
3 176 177 
3 175 176 
1 175 3618 
3 7853 7854 
3 7852 7853 
1 7852 15378 
2 2279 2280 
1 7854 15486 
2 15484 15485 
1 2280 15484 
2 15485 15486 
2 7679 7680 
2 7678 7679 
1 7678 11881 
2 11881 11882 
2 11882 11883 
2 2278 2279 
1 2278 11883 
2 13264 13265 
1 13221 13264 
2 15377 15378 
2 15376 15377 
1 15376 21505 
2 21505 21506 
2 21506 21507 
2 3710 3711 
2 3709 3710 
1 3709 5080 
1 3711 15012 
2 13265 13266 
1 13266 15010 
2 15011 15012 
2 15010 15011 
2 1169 1170 
2 1168 1169 
2 14234 14235 
2 5080 5081 
2 9940 9941 
1 9940 21507 
1 9942 14233 
2 14233 14234 
2 9941 9942 
2 19727 19728 
2 3319 3320 
1 3319 21531 
2 3320 3321 
2 3617 3618 
2 3616 3617 
1 3616 19030 
2 19030 19031 
1 6894 19032 
2 19031 19032 
2 13220 13221 
2 13219 13220 
1 13219 17319 
2 19726 19727 
2 17318 17319 
2 17317 17318 
1 17317 19726 
2 608 609 
1 609 8730 
1 8811 14235 
2 5081 5082 
1 5082 8971 
2 8971 8972 
2 8972 8973 
2 7432 7433 
1 7432 8973 
2 8810 8811 
3 21530 21531 
3 21529 21530 
1 20889 21529 
1 390 20887 
2 20888 20889 
2 20887 20888 
2 6892 6893 
2 6893 6894 
2 607 608 
1 607 19333 
2 19333 19334 
2 19334 19335 
2 8729 8730 
2 9160 9161 
2 9161 9162 
1 2565 9162 
2 8728 8729 
1 8728 12987 
2 12986 12987 
2 12985 12986 
1 7236 12985 
2 7235 7236 
2 17522 17523 
3 14867 14868 
1 14868 19335 
3 14866 14867 
1 14866 17523 
2 21347 21348 
2 7433 7434 
1 7434 21348 
2 389 390 
2 388 389 
1 3207 10378 
2 10378 10379 
2 10379 10380 
2 3206 3207 
1 10380 11029 
2 11029 11030 
2 11030 11031 
2 7234 7235 
1 7234 11031 
2 2564 2565 
2 2563 2564 
1 2563 3205 
2 3205 3206 
