ITEM: TIMESTEP
60000000
ITEM: NUMBER OF ENTRIES
2314
ITEM: BOX BOUNDS pp pp pp
0 50
0 50
0 50
ITEM: ENTRIES c_binfo[1] c_binfo[2] c_binfo[3] 
3 20467 20468 
2 703 704 
1 703 1021 
2 1021 1022 
2 704 705 
2 4021 4022 
1 4021 20766 
2 4022 4023 
1 4023 7419 
2 19814 19815 
1 19815 20043 
1 13233 20041 
3 20041 20042 
3 20042 20043 
3 13048 13049 
1 3123 13048 
3 13049 13050 
2 16 17 
1 16 14215 
2 17 18 
3 14215 14216 
2 13013 13014 
1 13014 16462 
2 19813 19814 
3 11191 11192 
1 11191 19813 
3 11192 11193 
3 9256 9257 
1 9256 11193 
3 9257 9258 
1 9258 14250 
3 14249 14250 
3 4054 4055 
1 969 4054 
2 968 969 
2 967 968 
3 4055 4056 
3 20468 20469 
1 1533 20469 
2 1532 1533 
2 3181 3182 
2 1531 1532 
1 1531 3181 
3 4165 4166 
1 4165 7572 
1 3516 6619 
2 6619 6620 
2 6620 6621 
1 6621 14559 
2 3515 3516 
2 14558 14559 
3 10991 10992 
1 10992 15654 
3 15653 15654 
3 15652 15653 
1 6861 15652 
3 7570 7571 
3 7571 7572 
2 5029 5030 
1 5029 7570 
2 5030 5031 
1 2244 5031 
2 1022 1023 
1 1023 14008 
2 20765 20766 
2 20764 20765 
1 20764 21273 
2 21272 21273 
2 21271 21272 
1 21036 21271 
2 14008 14009 
2 14009 14010 
2 3514 3515 
2 154 155 
1 154 3514 
1 156 14010 
2 155 156 
2 11834 11835 
3 10990 10991 
1 10990 11872 
2 11872 11873 
2 11873 11874 
2 401 402 
2 400 401 
3 2243 2244 
3 2242 2243 
3 292 293 
1 292 2242 
1 294 14217 
3 293 294 
3 14216 14217 
2 16463 16464 
1 16464 17076 
2 17075 17076 
2 17074 17075 
1 11970 17074 
2 11969 11970 
2 16564 16565 
2 412 413 
1 412 16564 
2 413 414 
1 414 18246 
2 11968 11969 
1 11968 13507 
2 18245 18246 
3 9728 9729 
3 8936 8937 
3 8935 8936 
1 8935 9729 
1 2595 8937 
3 13232 13233 
1 7929 12013 
3 12013 12014 
3 12014 12015 
3 13231 13232 
1 13231 13404 
3 2594 2595 
3 2593 2594 
1 2593 12015 
3 3122 3123 
3 7928 7929 
3 7927 7928 
1 7927 19405 
3 19405 19406 
3 19406 19407 
3 3121 3122 
1 3121 11850 
3 10681 10682 
1 10681 19407 
3 10682 10683 
3 2849 2850 
3 1265 1266 
2 13012 13013 
1 13012 13800 
2 13799 13800 
2 13798 13799 
1 13798 14056 
2 14056 14057 
2 16462 16463 
2 13384 13385 
2 5930 5931 
1 5931 18244 
2 18244 18245 
2 5929 5930 
1 5929 13384 
2 13385 13386 
3 15436 15437 
3 15437 15438 
3 14248 14249 
1 14248 15438 
1 11733 15436 
2 15241 15242 
2 15242 15243 
1 8418 16978 
2 8021 8022 
2 8417 8418 
2 8020 8021 
2 4939 4940 
1 4939 8020 
2 8416 8417 
2 4940 4941 
1 5817 8416 
2 5815 5816 
1 5815 18025 
2 5816 5817 
2 18025 18026 
2 18026 18027 
2 4033 4034 
1 4033 18027 
2 4034 4035 
1 4035 20791 
2 1699 1700 
1 1699 2614 
2 1700 1701 
1 1701 4656 
2 4655 4656 
2 4654 4655 
1 4654 5848 
2 5848 5849 
3 10853 10854 
2 17621 17622 
2 17620 17621 
3 2117 2118 
3 2116 2117 
1 2116 5685 
3 5684 5685 
2 9596 9597 
1 2616 4941 
2 9595 9596 
1 6708 9595 
2 6706 6707 
2 5260 5261 
1 5260 6706 
2 6707 6708 
2 2615 2616 
2 5261 5262 
2 11663 11664 
2 11662 11663 
1 11662 15907 
1 2652 11664 
2 2614 2615 
2 2651 2652 
2 20791 20792 
2 13961 13962 
2 13960 13961 
2 2650 2651 
1 2650 13960 
2 20792 20793 
1 5262 20793 
1 3183 13962 
2 3182 3183 
3 5923 5924 
3 5924 5925 
1 723 20379 
3 20377 20378 
3 20378 20379 
2 722 723 
2 721 722 
1 721 17622 
1 12360 17620 
3 4166 4167 
3 14131 14132 
1 4167 14131 
3 14132 14133 
3 12359 12360 
3 12358 12359 
1 12358 17388 
3 17387 17388 
3 17386 17387 
3 15691 15692 
1 15691 17386 
3 18916 18917 
3 18917 18918 
1 7515 21034 
2 21034 21035 
2 21035 21036 
2 15907 15908 
2 15908 15909 
2 7514 7515 
2 7513 7514 
1 7513 14395 
2 14395 14396 
2 14396 14397 
1 14397 19996 
2 19996 19997 
2 178 179 
1 15 14557 
2 14557 14558 
2 14 15 
3 8078 8079 
3 8077 8078 
3 10613 10614 
1 8079 10614 
3 6860 6861 
3 10612 10613 
1 10612 18426 
3 5599 5600 
3 4699 4700 
1 3753 14133 
3 3752 3753 
3 3751 3752 
1 3751 5599 
3 15692 15693 
1 7605 19794 
3 19793 19794 
3 6859 6860 
1 6859 7603 
3 7603 7604 
3 10363 10364 
3 16738 16739 
1 16738 18916 
3 16739 16740 
3 12769 12770 
1 12769 16740 
3 10364 10365 
3 12770 12771 
3 7247 7248 
1 7248 10365 
1 12771 12795 
3 12794 12795 
3 18712 18713 
3 7246 7247 
1 7246 18712 
2 12088 12089 
1 12088 18918 
1 2013 12090 
2 12089 12090 
3 2012 2013 
2 17803 17804 
1 5055 11835 
2 5054 5055 
2 5053 5054 
1 5053 17803 
2 11833 11834 
1 11833 14275 
2 17804 17805 
1 6405 17538 
2 17537 17538 
1 14277 16566 
2 16565 16566 
2 13 14 
1 13 17536 
2 17536 17537 
2 14275 14276 
2 14276 14277 
3 21565 21566 
3 21566 21567 
3 18425 18426 
1 9723 18424 
3 18424 18425 
1 6978 9721 
3 9721 9722 
3 9722 9723 
3 1124 1125 
3 7604 7605 
3 6976 6977 
3 6977 6978 
3 13403 13404 
3 13402 13403 
1 10197 13402 
3 10196 10197 
3 12793 12794 
3 10195 10196 
1 10195 12793 
3 11849 11850 
3 9512 9513 
1 9513 11848 
3 11848 11849 
1 11322 20697 
3 9511 9512 
1 9511 20695 
3 20695 20696 
3 20696 20697 
3 2008 2009 
3 1264 1265 
1 1264 2008 
2 2041 2042 
2 2042 2043 
1 2043 18441 
2 18440 18441 
2 13507 13508 
3 9727 9728 
1 9727 15621 
3 15620 15621 
1 4836 5457 
3 5456 5457 
3 5455 5456 
1 5455 18736 
3 18736 18737 
3 18737 18738 
1 18738 20967 
3 11617 11618 
3 18970 18971 
3 18971 18972 
1 2850 18970 
3 5068 5069 
1 5068 18972 
3 2848 2849 
1 2848 11619 
3 11618 11619 
3 5069 5070 
3 4835 4836 
3 4834 4835 
1 4194 4834 
3 4193 4194 
3 4192 4193 
1 4192 10639 
3 10639 10640 
3 10640 10641 
3 3052 3053 
1 3052 4980 
3 3053 3054 
1 10683 10777 
3 10777 10778 
3 10778 10779 
1 3054 10779 
3 14872 14873 
3 11732 11733 
1 10641 18079 
3 18079 18080 
3 18080 18081 
3 4978 4979 
1 4978 18081 
3 4979 4980 
1 11574 14872 
3 11572 11573 
3 1747 1748 
1 1747 11572 
3 11573 11574 
1 1749 11731 
3 11731 11732 
3 1748 1749 
3 1415 1416 
3 1414 1415 
1 1416 9358 
3 9358 9359 
2 121 122 
1 121 18135 
2 18134 18135 
3 8134 8135 
1 8134 18133 
3 8135 8136 
1 8136 15243 
2 18133 18134 
3 9359 9360 
2 16388 16389 
2 16387 16388 
2 8581 8582 
1 8581 16389 
1 8583 9360 
2 8582 8583 
1 7629 10071 
2 7829 7830 
1 7830 9675 
3 9674 9675 
3 9673 9674 
1 9673 17686 
2 7828 7829 
2 6938 6939 
2 14827 14828 
1 14827 21102 
2 9922 9923 
1 9922 14829 
2 9923 9924 
2 14828 14829 
1 9924 13180 
2 13180 13181 
2 13181 13182 
1 2646 13182 
1 123 8158 
2 8158 8159 
2 8159 8160 
1 8160 12126 
2 122 123 
2 2645 2646 
2 2644 2645 
1 2644 7804 
2 7804 7805 
2 5849 5850 
2 8815 8816 
2 16594 16595 
1 2505 16594 
2 2504 2505 
3 12221 12222 
2 2503 2504 
1 2503 12222 
1 8010 12220 
3 12220 12221 
3 7627 7628 
1 7627 16075 
3 7628 7629 
3 16075 16076 
3 8009 8010 
3 9065 9066 
3 9064 9065 
1 9064 10854 
1 9066 17688 
3 16076 16077 
3 17687 17688 
3 17686 17687 
3 3560 3561 
1 3561 19725 
3 19724 19725 
2 15809 15810 
3 3895 3896 
1 3895 10350 
3 10349 10350 
1 18111 20701 
3 13918 13919 
1 13918 15810 
3 20701 20702 
2 15808 15809 
1 15808 20703 
3 20702 20703 
3 3896 3897 
3 5683 5684 
2 5521 5522 
1 5521 5683 
3 2104 2105 
1 2104 10348 
3 2105 2106 
2 5522 5523 
1 2106 5523 
3 10348 10349 
3 902 903 
2 1238 1239 
3 8513 8514 
1 1239 8514 
2 19589 19590 
2 12124 12125 
1 12124 18000 
2 17999 18000 
2 17998 17999 
1 17998 19588 
2 19588 19589 
2 12125 12126 
1 7941 15786 
2 15785 15786 
2 15784 15785 
2 2938 2939 
1 2938 15784 
2 3632 3633 
1 2190 3633 
2 8816 8817 
2 3631 3632 
1 3631 11941 
1 2001 5850 
2 2939 2940 
1 2940 4458 
2 4457 4458 
2 11941 11942 
2 4456 4457 
1 4456 21115 
3 16514 16515 
3 2189 2190 
2 1999 2000 
1 1999 7626 
3 7625 7626 
3 16513 16514 
2 2000 2001 
3 2188 2189 
1 2188 16515 
1 8112 20377 
3 7624 7625 
1 7624 10852 
3 10852 10853 
1 843 16513 
3 842 843 
3 841 842 
1 841 7720 
3 7720 7721 
3 7721 7722 
3 8111 8112 
3 8110 8111 
1 8110 17295 
3 15226 15227 
3 7364 7365 
1 7722 19723 
3 19723 19724 
3 8090 8091 
3 15227 15228 
3 7363 7364 
1 7363 8089 
3 8089 8090 
3 13102 13103 
1 13102 15228 
3 13919 13920 
1 1950 3559 
3 3559 3560 
3 1948 1949 
1 1948 13920 
3 1949 1950 
2 12340 12341 
1 12340 18714 
3 18713 18714 
3 15581 15582 
3 901 902 
1 901 15580 
3 15580 15581 
2 12341 12342 
2 1237 1238 
1 1237 12342 
2 15649 15650 
2 899 900 
1 3492 15649 
2 3491 3492 
2 7100 7101 
2 7099 7100 
1 7099 19590 
2 8518 8519 
1 8518 15909 
2 8519 8520 
2 898 899 
1 898 8520 
2 3490 3491 
1 3490 19998 
2 1076 1077 
2 19997 19998 
2 1075 1076 
1 1075 5883 
2 3076 3077 
1 3076 11943 
2 11942 11943 
2 21115 21116 
1 180 15019 
2 179 180 
2 15019 15020 
2 15020 15021 
3 4139 4140 
3 17776 17777 
3 4138 4139 
1 4138 17776 
1 5925 6805 
3 6805 6806 
3 17777 17778 
3 6806 6807 
1 4140 21117 
2 21116 21117 
1 3810 17778 
1 7365 8077 
3 17294 17295 
3 17293 17294 
1 5664 6807 
3 5663 5664 
1 10509 17293 
3 4700 4701 
3 12004 12005 
1 4701 12006 
3 12005 12006 
3 5600 5601 
3 13103 13104 
1 5967 13104 
3 5966 5967 
3 5965 5966 
1 5965 19792 
3 19792 19793 
3 9767 9768 
3 10685 10686 
3 18523 18524 
1 7662 18523 
3 10684 10685 
1 10684 12667 
3 11321 11322 
3 7660 7661 
1 7660 11320 
3 7661 7662 
3 2011 2012 
1 2011 4767 
3 11320 11321 
3 4766 4767 
3 4765 4766 
1 4765 8347 
3 8347 8348 
2 6404 6405 
2 18439 18440 
2 6403 6404 
1 6403 18439 
2 5882 5883 
2 5881 5882 
1 5881 17805 
2 13508 13509 
1 10581 13509 
2 10580 10581 
3 5644 5645 
3 6701 6702 
3 5645 5646 
1 2154 5644 
1 6702 17286 
3 2152 2153 
1 2152 15021 
3 2153 2154 
2 10579 10580 
3 6700 6701 
1 6700 10579 
3 9266 9267 
3 11333 11334 
3 9265 9266 
3 11332 11333 
1 11332 15619 
3 15619 15620 
1 5646 21567 
3 5662 5663 
1 5662 9267 
3 1123 1124 
3 8234 8235 
3 8233 8234 
1 8233 12354 
1 5601 8235 
3 20965 20966 
3 20966 20967 
3 11741 11742 
3 11740 11741 
1 11740 20965 
1 10686 11742 
3 2009 2010 
3 9547 9548 
1 9547 11617 
3 9976 9977 
1 2010 9976 
3 9977 9978 
2 8899 8900 
1 8899 11919 
1 8901 13528 
2 13528 13529 
2 3106 3107 
1 3106 12501 
2 8900 8901 
2 12500 12501 
2 12499 12500 
1 12499 21468 
1 3750 15597 
3 3749 3750 
3 15596 15597 
3 10703 10704 
3 15595 15596 
3 10702 10703 
1 10702 15595 
1 7773 10704 
3 10715 10716 
1 10716 14770 
3 14770 14771 
3 10714 10715 
1 10714 20460 
3 20458 20459 
1 5070 20458 
2 11918 11919 
2 3013 3014 
1 3013 11917 
2 11917 11918 
2 20476 20477 
2 307 308 
1 307 20476 
2 308 309 
2 20477 20478 
1 690 20478 
3 689 690 
3 14179 14180 
3 688 689 
1 688 14179 
3 14180 14181 
3 20459 20460 
2 15400 15401 
1 13302 15400 
2 7373 7374 
3 12824 12825 
2 7372 7373 
1 7372 12825 
1 4074 7374 
3 12823 12824 
1 12823 14874 
3 14873 14874 
1 2949 15022 
2 2948 2949 
2 2947 2948 
3 20239 20240 
3 20240 20241 
1 1542 20241 
1 3591 6661 
2 6661 6662 
2 6662 6663 
2 4753 4754 
2 4754 4755 
1 4755 16510 
3 16510 16511 
3 16511 16512 
1 16512 19705 
3 19706 19707 
3 19705 19706 
3 10069 10070 
1 10069 19707 
3 10070 10071 
3 14690 14691 
3 14689 14690 
1 13521 14689 
3 13520 13521 
3 13519 13520 
1 13519 18109 
2 6277 6278 
2 14369 14370 
1 6279 14370 
2 6937 6938 
2 6278 6279 
2 3590 3591 
1 4557 6277 
2 3589 3590 
1 3589 6937 
2 11212 11213 
2 11213 11214 
1 11175 11212 
2 19715 19716 
2 19714 19715 
1 6129 19714 
2 7805 7806 
1 7806 8815 
2 16595 16596 
3 739 740 
1 739 16596 
3 740 741 
1 741 5767 
3 15197 15198 
3 5767 5768 
3 13372 13373 
1 13372 16077 
1 14406 15198 
3 14405 14406 
3 8008 8009 
3 18109 18110 
3 4183 4184 
1 4183 18336 
3 4184 4185 
1 4185 10734 
3 4867 4868 
1 4867 10732 
3 10733 10734 
3 10732 10733 
3 556 557 
1 556 16386 
3 557 558 
3 18110 18111 
3 16385 16386 
3 16384 16385 
1 15255 16384 
3 15254 15255 
3 8512 8513 
1 8512 17722 
1 12693 17724 
3 17722 17723 
3 17723 17724 
1 12081 16620 
2 12080 12081 
2 12079 12080 
2 6065 6066 
2 16618 16619 
2 6064 6065 
1 14091 16618 
2 4235 4236 
1 4236 6064 
2 4556 4557 
2 16619 16620 
2 4555 4556 
1 4555 12079 
1 6273 14535 
2 6128 6129 
2 7940 7941 
2 4234 4235 
1 4234 7939 
1 12921 19615 
2 7939 7940 
2 6127 6128 
1 6127 15571 
2 15571 15572 
2 15572 15573 
3 3754 3755 
1 3754 15573 
1 3756 11613 
1 1119 11245 
2 6271 6272 
1 6271 8817 
2 6272 6273 
1 7980 12796 
3 12796 12797 
3 7979 7980 
3 12797 12798 
3 15196 15197 
1 12798 15196 
3 3755 3756 
3 3808 3809 
1 3808 13374 
3 16613 16614 
3 16612 16613 
3 6721 6722 
1 6721 16612 
3 13373 13374 
3 6722 6723 
3 14404 14405 
1 14404 16614 
3 3809 3810 
3 4868 4869 
3 13498 13499 
1 13498 19908 
3 13499 13500 
3 2200 2201 
1 2200 13500 
3 2201 2202 
1 2202 8091 
3 7508 7509 
1 7509 14286 
1 4869 15226 
3 15253 15254 
1 15253 21108 
3 21107 21108 
3 21106 21107 
3 8224 8225 
1 8224 21106 
3 8225 8226 
1 3531 8226 
3 3530 3531 
3 3529 3530 
3 1726 1727 
1 1726 3529 
3 4586 4587 
3 1727 1728 
3 12692 12693 
3 12691 12692 
3 8686 8687 
1 8686 12691 
1 1728 4585 
3 4585 4586 
2 9916 9917 
2 9917 9918 
2 15650 15651 
1 15651 19609 
2 19609 19610 
2 19610 19611 
1 9918 18772 
2 18773 18774 
2 7334 7335 
2 18772 18773 
1 7101 9916 
2 14533 14534 
2 12919 12920 
1 12919 14533 
2 12920 12921 
2 14534 14535 
2 769 770 
1 769 900 
2 770 771 
2 11245 11246 
2 11246 11247 
2 17276 17277 
1 11247 17275 
2 17275 17276 
2 3077 3078 
1 3078 11890 
3 11890 11891 
3 11891 11892 
3 7978 7979 
3 6838 6839 
1 6838 7978 
1 6840 11892 
3 6839 6840 
3 13532 13533 
3 10507 10508 
3 7801 7802 
1 7801 10507 
1 1983 13533 
3 1982 1983 
3 1981 1982 
1 1981 6723 
3 7802 7803 
3 10508 10509 
3 7507 7508 
1 7507 9585 
3 12643 12644 
3 9205 9206 
1 9205 12643 
3 9584 9585 
3 9206 9207 
3 9583 9584 
1 9207 9583 
3 12644 12645 
3 13363 13364 
1 12645 13363 
3 13364 13365 
1 18525 18825 
3 18824 18825 
3 18823 18824 
3 12667 12668 
3 12668 12669 
3 18524 18525 
1 315 13365 
1 8349 8853 
1 2700 18823 
3 2698 2699 
1 2698 8851 
3 8851 8852 
3 8852 8853 
3 2699 2700 
3 7444 7445 
1 7444 12669 
1 4587 7446 
3 8348 8349 
3 7445 7446 
2 13529 13530 
1 1695 13530 
2 1694 1695 
2 1693 1694 
1 1693 7333 
2 7333 7334 
2 7472 7473 
1 771 3739 
2 3739 3740 
2 9179 9180 
1 9180 21466 
2 21466 21467 
2 21467 21468 
2 3740 3741 
2 2464 2465 
1 2464 3741 
2 9178 9179 
1 9178 17277 
3 2144 2145 
3 2143 2144 
3 8947 8948 
1 8947 10161 
3 10160 10161 
3 10159 10160 
3 532 533 
1 532 10159 
3 17285 17286 
3 13531 13532 
1 13531 17284 
3 17284 17285 
1 5577 7803 
3 8948 8949 
3 5576 5577 
1 8949 11334 
3 7771 7772 
3 5575 5576 
1 5575 7771 
3 7772 7773 
3 12353 12354 
3 12352 12353 
1 3129 12352 
3 3128 3129 
3 3127 3128 
1 3127 3883 
3 3883 3884 
3 3884 3885 
1 3885 7383 
3 10423 10424 
3 9766 9767 
1 9766 10423 
3 10424 10425 
1 10425 13491 
3 13490 13491 
3 13489 13490 
1 5793 13489 
3 9548 9549 
3 16067 16068 
3 1918 1919 
1 1918 16066 
3 16066 16067 
3 1919 1920 
1 1920 9549 
3 12050 12051 
3 12049 12050 
2 3107 3108 
2 1504 1505 
1 1504 1620 
2 1619 1620 
2 1618 1619 
1 1618 3108 
2 13897 13898 
1 13897 18627 
2 13898 13899 
3 15539 15540 
3 15538 15539 
3 7240 7241 
1 7240 15538 
3 7241 7242 
1 3258 7242 
3 3257 3258 
3 14287 14288 
3 7687 7688 
1 7687 14287 
3 7688 7689 
3 14288 14289 
1 14289 15237 
3 14771 14772 
3 11035 11036 
1 11035 14772 
2 3014 3015 
1 309 8682 
1 9540 15540 
2 21385 21386 
2 9538 9539 
1 9538 21385 
2 9539 9540 
2 21386 21387 
2 4072 4073 
1 4072 21387 
1 14181 15235 
3 15235 15236 
3 15236 15237 
2 13301 13302 
2 13300 13301 
1 13300 21357 
2 21356 21357 
2 21355 21356 
1 9000 21355 
2 8680 8681 
1 8680 8998 
2 8998 8999 
2 8999 9000 
2 8681 8682 
2 4073 4074 
3 18682 18683 
1 18682 21226 
3 18683 18684 
3 21226 21227 
3 21227 21228 
3 18412 18413 
1 18412 18684 
3 18413 18414 
1 15024 18414 
3 15022 15023 
3 15023 15024 
2 9647 9648 
2 9646 9647 
1 9646 16119 
2 1541 1542 
2 1540 1541 
1 1540 9648 
3 1346 1347 
3 1345 1346 
3 21334 21335 
1 8832 21334 
3 21335 21336 
3 18335 18336 
1 14691 21235 
3 8831 8832 
3 8830 8831 
1 8830 21237 
3 21235 21236 
3 21236 21237 
3 6485 6486 
2 14368 14369 
1 2982 14368 
2 2980 2981 
1 2980 13614 
2 2981 2982 
2 11173 11174 
2 11174 11175 
2 7124 7125 
1 7125 10456 
3 10456 10457 
2 20564 20565 
1 19716 20674 
3 20674 20675 
3 20675 20676 
3 10457 10458 
3 5768 5769 
1 5058 20676 
3 5057 5058 
3 5056 5057 
1 5056 15564 
3 15563 15564 
3 15562 15563 
1 15562 18144 
1 5937 15075 
3 15074 15075 
3 15073 15074 
1 15073 18334 
3 18334 18335 
3 18142 18143 
1 18142 21336 
3 18143 18144 
3 398 399 
1 558 12036 
3 19907 19908 
1 14640 19906 
3 14639 14640 
3 14638 14639 
3 397 398 
1 397 14638 
3 19906 19907 
3 9449 9450 
3 12035 12036 
3 12034 12035 
1 6486 12034 
3 11675 11676 
3 11674 11675 
1 11674 19474 
3 19474 19475 
3 19475 19476 
1 5253 19476 
3 5252 5253 
1 6066 14089 
2 14089 14090 
2 13613 13614 
2 14090 14091 
2 19811 19812 
2 19615 19616 
2 5894 5895 
2 5893 5894 
1 5893 20565 
2 19616 19617 
2 19810 19811 
1 19617 19810 
2 1117 1118 
1 948 1117 
2 947 948 
2 946 947 
1 946 12210 
2 20563 20564 
2 12208 12209 
1 12208 17151 
2 1118 1119 
1 6555 20563 
3 6554 6555 
3 18967 18968 
3 6553 6554 
1 6553 18967 
3 18968 18969 
1 18969 20140 
1 5769 11679 
3 20140 20141 
3 20141 20142 
3 11678 11679 
3 4709 4710 
1 4710 16665 
3 11902 11903 
1 11902 20142 
3 11677 11678 
3 11614 11615 
1 11614 11677 
3 11615 11616 
3 20960 20961 
3 20959 20960 
1 15849 20959 
3 5935 5936 
3 5936 5937 
3 15847 15848 
3 15848 15849 
3 12925 12926 
1 12925 20961 
3 12926 12927 
1 9147 12927 
3 9146 9147 
3 9145 9146 
1 9145 9777 
3 9776 9777 
3 5075 5076 
3 5074 5075 
1 5074 9775 
3 9775 9776 
3 5251 5252 
1 5076 17298 
3 17297 17298 
3 17296 17297 
1 17296 20970 
3 13838 13839 
3 1735 1736 
1 1735 13837 
3 13837 13838 
3 1736 1737 
3 8687 8688 
2 4093 4094 
1 4093 19611 
2 2066 2067 
1 2067 4095 
2 4094 4095 
1 18774 20442 
1 7335 7587 
2 7586 7587 
2 7585 7586 
1 7585 10588 
2 10588 10589 
2 10589 10590 
2 8716 8717 
1 8716 17149 
2 8717 8718 
2 17150 17151 
2 17149 17150 
1 372 8718 
3 11611 11612 
3 11612 11613 
1 3966 11611 
3 3965 3966 
3 3964 3965 
1 3964 10590 
1 11616 15174 
1 3648 3987 
3 5035 5036 
1 5035 15172 
3 15173 15174 
3 15172 15173 
3 3986 3987 
3 3985 3986 
1 3985 14284 
3 14285 14286 
1 8985 20389 
3 8983 8984 
1 8983 17026 
3 14284 14285 
3 8984 8985 
3 164 165 
3 17026 17027 
1 165 11988 
3 163 164 
1 163 6027 
3 20389 20390 
3 20390 20391 
3 20969 20970 
3 20968 20969 
3 17092 17093 
1 17092 20968 
3 17093 17094 
3 314 315 
3 349 350 
1 349 17094 
1 351 16068 
3 350 351 
2 20440 20441 
2 5668 5669 
1 5668 20440 
2 20441 20442 
2 5320 5321 
1 5320 7473 
2 5321 5322 
1 5322 8317 
2 370 371 
1 370 20179 
2 20179 20180 
2 8317 8318 
2 1505 1506 
2 20180 20181 
2 8318 8319 
1 8319 18625 
2 18625 18626 
2 18626 18627 
2 371 372 
2 2465 2466 
1 2145 2466 
3 1861 1862 
1 1861 3780 
3 1862 1863 
3 7621 7622 
3 7622 7623 
3 1696 1697 
1 1696 20232 
3 1697 1698 
3 20231 20232 
3 3748 3749 
1 3748 20230 
3 20230 20231 
1 534 1863 
3 533 534 
3 3256 3257 
1 3256 13474 
3 13474 13475 
3 13475 13476 
3 3647 3648 
3 5036 5037 
1 5037 13476 
1 897 7689 
3 3646 3647 
3 895 896 
1 895 3646 
3 896 897 
3 18607 18608 
3 18608 18609 
3 1391 1392 
3 1390 1391 
1 1390 18609 
3 19556 19557 
3 7382 7383 
3 6301 6302 
3 7381 7382 
1 7381 11037 
1 6303 19557 
3 6302 6303 
3 12758 12759 
3 13894 13895 
3 12757 12758 
1 12757 13894 
3 11036 11037 
3 2107 2108 
3 313 314 
1 313 2107 
3 2108 2109 
1 2109 2365 
3 5792 5793 
3 5791 5792 
1 5791 13821 
3 13820 13821 
3 13819 13820 
1 13819 15904 
3 15904 15905 
3 15905 15906 
1 15906 16059 
3 16058 16059 
3 16057 16058 
1 12051 16057 
3 11635 11636 
1 11635 13899 
3 11636 11637 
1 11637 20031 
3 20030 20031 
3 20029 20030 
1 6288 10875 
3 6287 6288 
3 6286 6287 
1 6286 7635 
3 2150 2151 
1 2151 7633 
3 7633 7634 
3 7634 7635 
3 2683 2684 
1 2683 11412 
3 2149 2150 
1 2149 14377 
3 14377 14378 
3 11411 11412 
3 10106 10107 
3 10105 10106 
1 10105 10123 
3 10123 10124 
3 7838 7839 
3 11369 11370 
3 7837 7838 
1 7837 11368 
3 11368 11369 
3 14378 14379 
3 12343 12344 
1 12343 15631 
3 12344 12345 
1 12345 21228 
3 15631 15632 
3 16117 16118 
3 16118 16119 
2 9769 9770 
3 20417 20418 
3 5803 5804 
1 5803 20418 
3 6484 6485 
1 6484 21429 
2 2288 2289 
2 9770 9771 
2 7123 7124 
2 6649 6650 
1 6649 10458 
2 6650 6651 
1 6651 9553 
3 9553 9554 
3 9554 9555 
1 9126 14643 
1 1050 9555 
3 9125 9126 
3 13370 13371 
3 1049 1050 
3 1048 1049 
1 1048 13371 
3 5804 5805 
1 5805 20157 
3 11195 11196 
3 13369 13370 
1 11196 13369 
3 20156 20157 
3 8738 8739 
3 4601 4602 
3 4600 4601 
1 4600 9450 
3 20155 20156 
1 399 14556 
3 14555 14556 
3 9448 9449 
1 9448 20155 
3 14554 14555 
1 8127 17209 
3 17209 17210 
3 17210 17211 
3 8737 8738 
1 8737 17211 
1 3525 6924 
1 4602 11676 
1 8457 14554 
3 8456 8457 
3 8455 8456 
3 21428 21429 
3 21427 21428 
3 1420 1421 
1 1420 21427 
3 1421 1422 
1 1422 14229 
3 14228 14229 
3 14227 14228 
3 2623 2624 
1 2623 14227 
3 2624 2625 
1 2289 15135 
2 8461 8462 
1 8461 19812 
2 15134 15135 
2 15133 15134 
1 4758 15133 
2 4757 4758 
2 4756 4757 
2 12209 12210 
3 2156 2157 
1 2157 14074 
2 17078 17079 
2 17077 17078 
3 9124 9125 
1 9124 17079 
3 16768 16769 
1 16768 17077 
3 16769 16770 
3 18452 18453 
3 16664 16665 
3 16663 16664 
1 16663 18453 
3 14642 14643 
3 14641 14642 
3 18451 18452 
1 18451 19807 
3 11903 11904 
1 12171 14641 
3 12170 12171 
3 9470 9471 
3 11194 11195 
1 2070 11194 
3 2069 2070 
1 11904 15847 
3 11992 11993 
3 2068 2069 
1 2068 11992 
3 11993 11994 
3 3524 3525 
1 1512 17028 
3 1511 1512 
3 1510 1511 
1 1510 3523 
3 3523 3524 
3 20434 20435 
1 15558 20434 
3 145 146 
1 145 8455 
3 19382 19383 
3 19381 19382 
3 10652 10653 
3 10651 10652 
1 10651 19383 
3 146 147 
3 881 882 
3 880 881 
1 880 7857 
3 18776 18777 
3 12520 12521 
1 12520 19381 
3 12521 12522 
1 12522 18775 
3 18775 18776 
1 18777 20398 
3 20398 20399 
3 20399 20400 
1 20400 21483 
3 21482 21483 
1 2625 8157 
3 21481 21482 
1 8691 21481 
2 5704 5705 
1 5704 19242 
2 19241 19242 
2 5705 5706 
2 2065 2066 
1 2065 13771 
2 8462 8463 
2 13771 13772 
1 3270 4822 
2 4822 4823 
2 13772 13773 
1 5706 7116 
2 3269 3270 
2 3268 3269 
3 2155 2156 
1 2155 3268 
1 7074 14920 
2 7073 7074 
3 14920 14921 
2 7072 7073 
3 14074 14075 
1 14922 16770 
3 14921 14922 
3 4271 4272 
1 4272 10440 
3 4270 4271 
1 4270 14076 
3 4708 4709 
1 4708 21294 
3 9469 9470 
3 10439 10440 
3 10438 10439 
3 4489 4490 
1 4489 10438 
3 4490 4491 
1 4491 9469 
3 11150 11151 
1 11994 13425 
3 19517 19518 
3 21293 21294 
1 19518 21292 
3 21292 21293 
3 20048 20049 
3 19516 19517 
3 11986 11987 
1 11986 19516 
1 13635 20049 
3 20047 20048 
3 13424 13425 
3 17027 17028 
3 13423 13424 
1 13423 14745 
3 11987 11988 
3 20435 20436 
1 20436 20976 
3 20975 20976 
3 20974 20975 
3 6026 6027 
3 6025 6026 
1 6025 10653 
3 7856 7857 
3 7855 7856 
3 1636 1637 
1 1636 7855 
3 1637 1638 
3 15310 15311 
1 15310 20974 
3 6434 6435 
1 1638 2367 
2 1138 1139 
2 1139 1140 
2 7114 7115 
2 4775 4776 
2 4774 4775 
1 4774 7114 
2 7115 7116 
1 1506 2211 
2 2210 2211 
1 13773 20839 
2 20839 20840 
2 2209 2210 
1 2209 4776 
2 20840 20841 
1 5001 20841 
3 3779 3780 
3 3778 3779 
1 3778 8515 
3 8515 8516 
3 8516 8517 
3 18539 18540 
1 213 18607 
3 13634 13635 
3 13633 13634 
3 211 212 
1 211 13633 
3 6092 6093 
3 212 213 
3 14744 14745 
3 14743 14744 
1 14743 19195 
2 19195 19196 
2 19196 19197 
3 19555 19556 
1 19197 19555 
1 13896 15312 
3 13895 13896 
3 15311 15312 
3 10874 10875 
3 10873 10874 
1 10873 11493 
1 2685 12420 
3 12419 12420 
3 12418 12419 
1 12418 12759 
3 2684 2685 
3 16109 16110 
3 11654 11655 
3 2366 2367 
3 2365 2366 
1 11655 16110 
3 16108 16109 
3 7231 7232 
1 7231 16108 
3 17129 17130 
3 17128 17129 
3 7232 7233 
3 13462 13463 
1 13462 17130 
3 13655 13656 
1 5289 13654 
3 13654 13655 
3 3403 3404 
1 3403 3603 
3 3404 3405 
3 3601 3602 
1 3601 7254 
3 3602 3603 
1 3405 21523 
3 21523 21524 
3 21524 21525 
1 6765 13626 
3 13625 13626 
3 2543 2544 
3 11410 11411 
3 7648 7649 
1 7648 11410 
1 2544 20803 
3 10724 10725 
1 9396 10725 
3 9395 9396 
3 9394 9395 
1 9394 10107 
3 10124 10125 
1 7839 13656 
3 10858 10859 
3 10859 10860 
1 10860 17061 
3 1807 1808 
1 1807 14379 
3 1808 1809 
1 1809 7171 
2 7171 7172 
2 7172 7173 
1 10125 11386 
3 11386 11387 
3 3968 3969 
1 3969 10858 
3 3967 3968 
1 3967 11388 
3 11387 11388 
3 21568 21569 
1 15633 21568 
3 21569 21570 
1 13545 21570 
2 5092 5093 
1 5092 7173 
2 5093 5094 
3 15632 15633 
3 16016 16017 
1 16017 17307 
3 20416 20417 
2 248 249 
1 249 20416 
2 247 248 
1 247 19105 
2 19105 19106 
3 8125 8126 
1 4668 8125 
2 4667 4668 
3 8126 8127 
2 4666 4667 
2 19106 19107 
3 1598 1599 
1 8739 19893 
3 1597 1598 
1 1597 7195 
3 7195 7196 
3 7196 7197 
3 17959 17960 
1 17959 19107 
3 17960 17961 
1 9564 17961 
3 9563 9564 
3 6923 6924 
1 1584 17505 
3 1583 1584 
3 9562 9563 
3 19330 19331 
3 19331 19332 
3 17348 17349 
1 5115 17347 
3 17347 17348 
3 5114 5115 
3 5113 5114 
1 5113 10393 
3 17608 17609 
3 17609 17610 
2 5876 5877 
3 2537 2538 
2 5875 5876 
3 2536 2537 
1 2536 5875 
1 5877 14157 
3 19807 19808 
3 19808 19809 
1 19809 20946 
3 12169 12170 
3 17684 17685 
3 17683 17684 
3 8776 8777 
1 8776 17683 
1 14001 17685 
3 19892 19893 
1 9471 15679 
3 15679 15680 
1 15681 19891 
3 19891 19892 
3 15680 15681 
3 12077 12078 
3 12076 12077 
1 12076 15556 
3 2134 2135 
1 2134 12078 
3 16622 16623 
1 7197 16621 
3 16621 16622 
3 6922 6923 
3 15557 15558 
3 15556 15557 
3 9413 9414 
1 9414 19102 
3 19102 19103 
3 1582 1583 
1 1582 9412 
3 9412 9413 
1 882 1395 
1 2271 9562 
1 147 8341 
3 8341 8342 
3 8342 8343 
3 2270 2271 
3 2269 2270 
3 2182 2183 
1 2182 2269 
3 2183 2184 
1 2184 7615 
3 1394 1395 
3 7615 7616 
3 1393 1394 
1 1393 18634 
3 18634 18635 
3 18635 18636 
1 7683 18636 
3 7616 7617 
3 17498 17499 
1 4503 17499 
3 4502 4503 
3 8156 8157 
3 4501 4502 
1 4501 11539 
3 11539 11540 
1 11541 16477 
2 16477 16478 
2 16478 16479 
3 8155 8156 
1 16479 19909 
2 19909 19910 
2 8690 8691 
2 8689 8690 
1 8689 10597 
2 10597 10598 
2 10598 10599 
2 7708 7709 
1 4824 7708 
2 4823 4824 
3 11800 11801 
2 5000 5001 
2 4999 5000 
3 14075 14076 
3 14156 14157 
3 14155 14156 
1 11802 14155 
3 18604 18605 
3 18605 18606 
3 11801 11802 
3 8777 8778 
3 20945 20946 
3 20944 20945 
1 18606 20269 
1 11151 20944 
1 11820 20271 
3 20270 20271 
3 20269 20270 
3 11819 11820 
3 4325 4326 
1 8778 9807 
3 9806 9807 
3 11818 11819 
1 11818 17124 
3 17123 17124 
3 17122 17123 
3 4900 4901 
1 4900 17122 
3 9805 9806 
1 3867 9805 
3 4901 4902 
3 19103 19104 
1 4902 19104 
3 3875 3876 
3 3067 3068 
1 3067 8343 
3 3068 3069 
3 16301 16302 
1 3069 19753 
3 19753 19754 
3 16300 16301 
3 14392 14393 
1 14392 16302 
3 6433 6434 
1 6433 12589 
3 12589 12590 
3 17497 17498 
3 12604 12605 
1 12604 17497 
3 12590 12591 
3 12605 12606 
3 11557 11558 
1 11557 12591 
3 11558 11559 
3 20213 20214 
3 20212 20213 
2 14836 14837 
1 14836 19819 
3 19819 19820 
1 7233 19821 
3 19820 19821 
1 13227 20212 
2 14837 14838 
1 1140 14838 
2 7709 7710 
1 7710 8643 
2 8642 8643 
2 8641 8642 
3 1579 1580 
1 1579 3889 
3 3889 3890 
3 3890 3891 
1 1845 18604 
3 1844 1845 
3 1843 1844 
1 1843 8517 
3 18538 18539 
3 11866 11867 
1 11866 18538 
3 11867 11868 
3 11149 11150 
1 11149 12091 
3 12091 12092 
3 12092 12093 
1 12093 18748 
3 18748 18749 
3 4213 4214 
1 4213 11868 
3 4214 4215 
1 4215 18586 
3 18586 18587 
3 18587 18588 
3 6091 6092 
1 6091 18750 
1 6093 7252 
3 7252 7253 
3 18749 18750 
1 7524 18588 
3 7523 7524 
3 7522 7523 
1 7522 17268 
3 7253 7254 
3 11492 11493 
3 17267 17268 
3 6815 6816 
1 6816 17266 
3 17266 17267 
3 6814 6815 
1 6814 11491 
3 11491 11492 
3 19754 19755 
3 14393 14394 
3 11653 11654 
1 10368 11653 
3 10367 10368 
3 10366 10367 
1 10366 21525 
1 543 13624 
1 14394 15853 
3 15853 15854 
3 15854 15855 
3 499 500 
1 499 15855 
3 500 501 
3 13624 13625 
3 7649 7650 
1 13437 13464 
3 13463 13464 
3 13436 13437 
1 2421 7650 
3 2420 2421 
3 17780 17781 
3 17779 17780 
3 4712 4713 
3 17912 17913 
3 17911 17912 
1 4713 17911 
1 17913 20182 
3 5288 5289 
3 5287 5288 
1 5287 8719 
3 8719 8720 
3 8720 8721 
1 8721 15579 
1 12471 14562 
3 10039 10040 
3 6764 6765 
3 6763 6764 
1 6763 10039 
3 2542 2543 
1 2542 13986 
3 12470 12471 
3 12469 12470 
1 12469 19863 
3 19862 19863 
1 14448 19861 
3 19861 19862 
3 1403 1404 
1 1404 20805 
3 20804 20805 
3 20803 20804 
3 1402 1403 
1 1402 15859 
2 15859 15860 
3 10723 10724 
3 4711 4712 
1 4711 10723 
3 7901 7902 
3 7900 7901 
1 7900 13482 
3 13481 13482 
3 14561 14562 
3 17060 17061 
3 14560 14561 
3 13480 13481 
1 13480 14560 
3 17059 17060 
1 10041 17059 
3 10040 10041 
2 15860 15861 
1 7902 13543 
3 13543 13544 
3 13544 13545 
3 16015 16016 
2 17306 17307 
1 537 17305 
2 17305 17306 
3 536 537 
3 535 536 
1 535 10881 
2 10880 10881 
2 10879 10880 
1 10879 17503 
3 17503 17504 
3 17504 17505 
3 7429 7430 
3 7430 7431 
2 17681 17682 
2 17680 17681 
3 10393 10394 
3 10394 10395 
1 10395 17682 
3 14000 14001 
3 13999 14000 
1 7314 13999 
3 7313 7314 
3 15028 15029 
3 778 779 
1 778 15028 
3 779 780 
3 2135 2136 
1 780 2136 
3 16733 16734 
3 16732 16733 
1 4896 16732 
3 7682 7683 
1 7617 11490 
3 7681 7682 
1 7681 16734 
3 11488 11489 
3 11489 11490 
3 3274 3275 
3 3275 3276 
3 11540 11541 
2 19910 19911 
2 18730 18731 
2 18731 18732 
2 8237 8238 
2 8236 8237 
3 4324 4325 
1 4324 8236 
3 7312 7313 
1 1617 7312 
3 10141 10142 
1 10141 11937 
3 10142 10143 
3 1616 1617 
3 1615 1616 
1 1615 17308 
3 11936 11937 
3 3866 3867 
3 17308 17309 
3 11935 11936 
1 11343 11935 
3 11342 11343 
3 11341 11342 
1 11341 17512 
3 17512 17513 
3 17513 17514 
1 3876 4419 
3 3865 3866 
1 3865 4417 
3 4417 4418 
3 4418 4419 
3 4895 4896 
3 3874 3875 
1 2598 3874 
1 3798 11488 
3 3797 3798 
3 4894 4895 
1 4894 9058 
3 3796 3797 
1 3796 14364 
3 9058 9059 
3 9059 9060 
3 820 821 
1 820 9060 
3 15607 15608 
3 14362 14363 
1 14362 15607 
3 13172 13173 
3 13226 13227 
3 13171 13172 
3 18895 18896 
3 13225 13226 
1 13225 18895 
3 18896 18897 
3 6526 6527 
1 6526 18897 
3 8228 8229 
3 6527 6528 
3 7126 7127 
1 7126 19911 
3 7127 7128 
1 1581 18732 
3 1580 1581 
3 12551 12552 
3 1481 1482 
1 10143 12550 
3 12550 12551 
1 1482 17781 
3 11003 11004 
3 11002 11003 
3 1480 1481 
1 1480 11002 
3 1499 1500 
3 17320 17321 
3 17321 17322 
3 1498 1499 
1 1498 17322 
1 2364 17514 
3 2363 2364 
3 15578 15579 
3 15577 15578 
3 2362 2363 
1 2362 15577 
3 542 543 
3 2597 2598 
3 2596 2597 
3 541 542 
1 541 2596 
3 821 822 
1 822 13984 
3 13984 13985 
3 13985 13986 
3 15608 15609 
3 14446 14447 