LAMMPS data file via write_data, version 5 Jun 2019, timestep = 120000000

180 atoms
3 atom types
173 bonds
3 bond types
166 angles
3 angle types

0.0000000000000000e+00 5.0000000000000000e+01 xlo xhi
0.0000000000000000e+00 5.0000000000000000e+01 ylo yhi
0.0000000000000000e+00 5.0000000000000000e+01 zlo zhi

Masses

1 0.25
2 0.5
3 0.5

Bond Coeffs # harmonic

1 6000 0.15
2 2000 0.4
3 2000 0.4

Angle Coeffs # harmonic

1 100 180
2 5 180
3 5 180

Atoms # angle

1170 1 1 3.4430182808982082e+01 2.6283812348683288e+01 9.9019096873344168e+00
1169 2 2 3.4802838960034556e+01 2.6338179980174289e+01 9.8249231015835026e+00
1168 1 1 3.5236983904536800e+01 2.6339326418934174e+01 9.7109664252968990e+00
13780 1 1 3.5974232812614062e+01 3.1379036043666567e+01 2.6233242976345707e+01
13781 2 2 3.6264156149180529e+01 3.1401278021698108e+01 2.5958383417662024e+01
13782 1 1 3.6645347609632054e+01 3.1272855659889643e+01 2.5899864575888252e+01
2474 2 2 3.7124680729039341e+01 3.1111729086933416e+01 2.5678332787303251e+01
2473 1 1 3.6792818770851362e+01 3.1206120212212458e+01 2.5874682881167477e+01
2475 1 1 3.7449804308679717e+01 3.1412018654247561e+01 2.5791403115907858e+01
9161 2 2 9.7326161418850177e-01 3.4730972702790929e+01 2.5473661116637228e+01
9162 1 1 9.0751381265517217e-01 3.4504715957591678e+01 2.5753723786846955e+01
2565 1 1 8.8745493746321347e-01 3.4427702906782976e+01 2.5910040223901213e+01
9160 1 1 1.2587651568634997e+00 3.4901515445006858e+01 2.5204061290006948e+01
2564 2 2 8.2383001913782583e-01 3.4331096156114640e+01 2.6275344107057684e+01
15486 1 1 4.7518304775789328e+00 3.0197004719642727e+01 2.7684194267835771e+01
15485 2 2 4.7553560371736436e+00 2.9766809378597781e+01 2.7763663764901107e+01
8809 1 1 5.4024872564981874e-01 3.1571388297411264e+01 2.6898950872210438e+01
8810 2 2 7.4323720181609554e-01 3.1311604252243225e+01 2.6693212722672175e+01
8811 1 1 1.1332125762893057e+00 3.1355494211449219e+01 2.6589017410268561e+01
14235 1 1 1.2806742768694592e+00 3.1405871291799944e+01 2.6594474835696722e+01
9942 1 1 2.1753938703610300e+00 3.1610108068670328e+01 2.6819092886925624e+01
14234 2 2 1.6671088466020281e+00 3.1503268812389948e+01 2.6620167416686886e+01
14233 1 1 2.0172016818723506e+00 3.1579401485871863e+01 2.6763001297043722e+01
9941 2 2 2.6145502557014133e+00 3.1669684549384591e+01 2.6860435383095062e+01
15378 1 1 4.4184928857145227e+00 3.1277748154405092e+01 2.7581967151512711e+01
7852 1 1 4.5015146090925713e+00 3.1140794141873279e+01 2.7602446766777323e+01
7853 3 3 4.6490373604104338e+00 3.0751954027894509e+01 2.7654506885591474e+01
15377 2 2 4.2034570450298752e+00 3.1624241754511100e+01 2.7464663580280853e+01
7854 1 1 4.7283058351637965e+00 3.0334311973111728e+01 2.7657496546705346e+01
10380 1 1 3.4305261863017450e-01 3.3131681888046643e+01 2.7905646137489590e+01
9940 1 1 2.9455650080651519e+00 3.1831969764628159e+01 2.6926828280459894e+01
21507 1 1 3.0594376551841376e+00 3.1891836643890414e+01 2.6991071986954729e+01
21505 1 1 3.7429278019952030e+00 3.1939115126929060e+01 2.7374854986916336e+01
15376 1 1 3.8788940366521119e+00 3.1875140677099498e+01 2.7390246800191786e+01
21506 2 2 3.3423231802259967e+00 3.2041161569966270e+01 2.7262951837103675e+01
3205 1 1 7.9701906582412707e-01 3.4187179898296080e+01 2.6819743212261073e+01
3207 1 1 5.5616991725763820e-01 3.3898471917144825e+01 2.7452188148151375e+01
3206 2 2 7.8431137177641774e-01 3.4090649344681196e+01 2.7197806285868996e+01
10378 1 1 4.8301764560453658e-01 3.3797913114151072e+01 2.7529218607698315e+01
2563 1 1 8.0373597869604230e-01 3.4242631445986525e+01 2.6670222503067247e+01
10379 2 2 3.5087469782199066e-01 3.3512152212747644e+01 2.7704936364690546e+01
12277 1 1 2.2214472702305672e+00 2.9585019732353210e+01 2.8298911773151669e+01
12278 2 2 2.6180904306388579e+00 2.9632790680263383e+01 2.8428068648231157e+01
12279 1 1 2.9957550464503457e+00 2.9859241653282144e+01 2.8415964448780297e+01
17521 1 1 3.1344998903018455e+00 2.9916926956122690e+01 2.8414026647530882e+01
17522 2 2 3.4914023076165837e+00 3.0094249635672696e+01 2.8463585452277616e+01
11883 1 1 4.8666297942735355e+00 2.9130532025762907e+01 2.9141013241954877e+01
2278 1 1 4.8629042145331187e+00 2.9182944418448201e+01 2.8998309856190218e+01
2279 2 2 4.9175620842603474e+00 2.9275347989673929e+01 2.8599187942055877e+01
2280 1 1 4.8448574782992235e+00 2.9440144302943370e+01 2.8276440592191179e+01
15484 1 1 4.8128452512757836e+00 2.9516798439908602e+01 2.8159096190966132e+01
607 1 1 2.9004674955488308e+00 3.1678381175963025e+01 2.9354798707368420e+01
19333 1 1 3.0268153998246623e+00 3.1646285135802383e+01 2.9301360265184496e+01
17523 1 1 3.6725626327669931e+00 3.0432670659413972e+01 2.8659686566523803e+01
14866 1 1 3.7303887630998491e+00 3.0555775533896195e+01 2.8696475819513104e+01
14867 3 3 3.9360135459643488e+00 3.0865173665259881e+01 2.8824747452297007e+01
19335 1 1 3.6501555157557362e+00 3.1250099202020628e+01 2.9062249274546165e+01
14868 1 1 3.7364779401579260e+00 3.1153084414029919e+01 2.8992251522212243e+01
19334 2 2 3.3481457329346624e+00 3.1464481010652857e+01 2.9200926453069325e+01
7234 1 1 8.6034681327840978e-01 3.2807804391707833e+01 2.8570541302805019e+01
7235 2 2 1.1869406812145351e+00 3.2848168139478695e+01 2.8741316872466683e+01
11031 1 1 7.0922263280651343e-01 3.2791056969106521e+01 2.8476285378221483e+01
11030 2 2 4.1055569624379418e-01 3.2700988655238085e+01 2.8204758476441757e+01
7236 1 1 1.3434135028358596e+00 3.2915349493651888e+01 2.9080188950478398e+01
11029 1 1 3.6155309537531838e-01 3.2989212791975412e+01 2.7986587464672365e+01
12985 1 1 1.4367036412401064e+00 3.2953937851342175e+01 2.9205964063306357e+01
7679 2 2 4.4695446139802462e+00 2.8949826413160629e+01 3.0349482509971796e+01
7680 1 1 4.2594455532336388e+00 2.8879442079054765e+01 3.0748261319242896e+01
21097 1 1 4.1677164592034126e+00 2.8855947860776599e+01 3.0884530732205583e+01
11881 1 1 4.6024885407147984e+00 2.9022892509822075e+01 2.9822784345334028e+01
7678 1 1 4.5495602884603876e+00 2.9003138533958879e+01 2.9955191491136969e+01
11882 2 2 4.7618108721981223e+00 2.9065005107056049e+01 2.9508360603693916e+01
608 2 2 2.5394614305623069e+00 3.1752536884509393e+01 2.9534411652929570e+01
8729 2 2 1.9473726500693331e+00 3.2315254876223648e+01 2.9978614623433586e+01
12986 2 2 1.6702629492804224e+00 3.3091649164185974e+01 2.9493533953962359e+01
609 1 1 2.2941178760530150e+00 3.1981110382089465e+01 2.9701763996878604e+01
8730 1 1 2.2069483375810597e+00 3.2075225860841556e+01 2.9759247128757789e+01
12987 1 1 1.8147453643189557e+00 3.2768430851934966e+01 2.9644612490609727e+01
8728 1 1 1.8298112035526373e+00 3.2629181092245531e+01 2.9741926085818463e+01
6532 1 1 3.5999614156001987e+00 2.8783782953446863e+01 3.1626556215574372e+01
6533 2 2 3.2713727441195570e+00 2.8698784833047000e+01 3.1849349867689476e+01
2297 2 2 2.7129656857258575e+00 2.9302420787061447e+01 3.2293046092915340e+01
2296 1 1 2.9640079251291787e+00 2.9034238805833883e+01 3.2156490410134786e+01
2298 1 1 2.7407991387788142e+00 2.9700803264262877e+01 3.2433185648640148e+01
14026 1 1 2.7421805777348536e+00 2.9814715436754788e+01 3.2476784504742263e+01
6534 1 1 3.0537652294880200e+00 2.8915920818356120e+01 3.2084006808327544e+01
21098 2 2 3.9460995085725945e+00 2.8875247560322340e+01 3.1228994229916509e+01
21099 1 1 3.6939751544347392e+00 2.8817294844441118e+01 3.1546572213558811e+01
18779 2 2 3.0398671750951123e+00 3.1111711353739317e+01 3.2611008515363537e+01
18780 1 1 2.9266952822236405e+00 3.0719985723743356e+01 3.2633314544772475e+01
1367 2 2 4.4625111789906082e+00 3.1632440571760089e+01 3.2327330561340148e+01
1366 1 1 4.0750082078636947e+00 3.1738888490985541e+01 3.2487132487380670e+01
460 1 1 3.9207149927428704e+00 3.1785782544693923e+01 3.2539161626972493e+01
1368 1 1 4.8158190819914157e+00 3.1433326049815772e+01 3.2398917392193148e+01
19864 1 1 4.9345785736216916e+00 3.1332583775536019e+01 3.2396206648016744e+01
19865 2 2 5.2482401013609286e+00 3.1131679568765840e+01 3.2430611961657213e+01
14027 2 2 2.7976658560441536e+00 3.0195880869891997e+01 3.2659113309818345e+01
14028 1 1 2.8868593750399283e+00 3.0570740838024392e+01 3.2653239228645120e+01
462 1 1 3.3943015623503463e+00 3.1535638444977270e+01 3.2667819654977222e+01
18778 1 1 3.2880310298839404e+00 3.1431442232966532e+01 3.2659083701422880e+01
20856 1 1 5.6985980566150332e+00 3.0934034670196269e+01 3.2730782816183151e+01
19866 1 1 5.5740112539541506e+00 3.0986999126788660e+01 3.2668538713071214e+01
20855 3 3 6.0607701671906815e+00 3.0758001060785393e+01 3.2867087453962924e+01
20854 1 1 6.4168143117178831e+00 3.0951304962378295e+01 3.2788265588935687e+01
461 2 2 3.5826296889388627e+00 3.1844109077448504e+01 3.2657641765011633e+01
17317 1 1 4.9337139571034797e+01 3.3053182169959470e+01 2.7454249840930682e+01
19726 1 1 4.9430420240716067e+01 3.2898657948633172e+01 2.7426654583777150e+01
19727 2 2 4.9608534699483059e+01 3.2559385679646930e+01 2.7274958619834877e+01
19728 1 1 4.9932595537125103e+01 3.2306133113823563e+01 2.7255668286230499e+01
17318 2 2 4.9182792843700341e+01 3.3379898258002818e+01 2.7550060871283179e+01
17319 1 1 4.9066707167824724e+01 3.3463364111382269e+01 2.7909178209465821e+01
13219 1 1 4.9039278619578795e+01 3.3500376979565836e+01 2.8044705655795330e+01
13220 2 2 4.8937871450091038e+01 3.3646767443213641e+01 2.8475008628419946e+01
13221 1 1 4.8904573491829588e+01 3.3564204606231527e+01 2.8873828834480395e+01
13264 1 1 4.8871232655770790e+01 3.3546588678844003e+01 2.9008425081134185e+01
13265 2 2 4.8764370111070470e+01 3.3511117698011219e+01 2.9400345628617885e+01
10539 1 1 3.3174338167772724e+01 2.7695030155860746e+01 3.0599997758088580e+01
10538 2 2 3.3198461822326763e+01 2.7515625471811884e+01 3.0920849721222286e+01
3711 1 1 4.8803945009227512e+01 3.3389473503024504e+01 3.0797139136645541e+01
15012 1 1 4.8766039875520647e+01 3.3419296457262362e+01 3.0661212769839494e+01
15011 2 2 4.8643063810143538e+01 3.3414924488027033e+01 3.0280956608089728e+01
13266 1 1 4.8675549288512443e+01 3.3549489805923628e+01 2.9752873309179485e+01
15010 1 1 4.8647536741097703e+01 3.3545865967212890e+01 2.9915803517191698e+01
176 3 3 3.2535244388204489e+01 2.7408741060170648e+01 3.1656230173436537e+01
177 1 1 3.2859349461884470e+01 2.7441130606160954e+01 3.1362328761122765e+01
3617 2 2 3.2069449980829788e+01 2.7851465863934482e+01 3.2460368945468240e+01
175 1 1 3.2385404310044443e+01 2.7596970133397640e+01 3.1986113878302152e+01
3618 1 1 3.2300161119136149e+01 2.7681406835849014e+01 3.2105596202576017e+01
3616 1 1 3.1873390659363288e+01 2.8132252070937032e+01 3.2369257467493945e+01
19030 1 1 3.1764129769247315e+01 2.8256268723394399e+01 3.2299742149538361e+01
19031 2 2 3.1502338453673396e+01 2.8561844045187524e+01 3.2081868087316963e+01
10537 1 1 3.2968175894130930e+01 2.7469161091280544e+01 3.1233708598164320e+01
19032 1 1 3.1619144773048319e+01 2.8864479545425123e+01 3.1868067437294709e+01
6894 1 1 3.1648172322728875e+01 2.8994461420860024e+01 3.1800488891272703e+01
6893 2 2 3.1724468103189739e+01 2.9319470484176229e+01 3.1614388356846668e+01
6892 1 1 3.1833947213181325e+01 2.9603889608896040e+01 3.1305544337892414e+01
3710 2 2 4.8951083725424191e+01 3.3315153755459583e+01 3.1188978092378598e+01
3709 1 1 4.8899087548748149e+01 3.3448459706769462e+01 3.1535587561975955e+01
5080 1 1 4.8865923849694454e+01 3.3511665917291623e+01 3.1710129843870899e+01
5082 1 1 4.8666836013914626e+01 3.3801649551715464e+01 3.2349979329469839e+01
8971 1 1 4.8589660622983232e+01 3.3823901665335548e+01 3.2461195041753228e+01
5081 2 2 4.8817270041070245e+01 3.3699118816759572e+01 3.2029518463418277e+01
8973 1 1 4.8209871741234323e+01 3.3921055978358531e+01 3.3142232176820869e+01
7434 1 1 4.7980499628919901e+01 3.4304489607504124e+01 3.3891447503269305e+01
21348 1 1 4.8053446849122466e+01 3.4363932769952058e+01 3.4011257207308937e+01
7433 2 2 4.7907630094633333e+01 3.4098899468460466e+01 3.3580657118726386e+01
7432 1 1 4.8150922076819441e+01 3.3949606812048344e+01 3.3254916222903987e+01
8972 2 2 4.8361281770972262e+01 3.3865105252751889e+01 3.2786042250094361e+01
21347 2 2 4.8287663413643408e+01 3.4565036352523940e+01 3.4252750156608890e+01
21346 1 1 4.8522662250793708e+01 3.4639768495478819e+01 3.4595692694853078e+01
6804 1 1 4.8589306292511907e+01 3.4665728872154553e+01 3.4726976329062602e+01
6033 1 1 4.8522516705062799e+01 3.4694021048671310e+01 3.5631946574676064e+01
6803 2 2 4.8745355148913703e+01 3.4734422231584553e+01 3.5144459989944806e+01
6802 1 1 4.8553666544119814e+01 3.4694829711598068e+01 3.5494308340665235e+01
3319 1 1 4.6891852898450232e+01 3.1248169806542474e+01 3.6687194696684507e+01
21531 1 1 4.6821202666026721e+01 3.1300772436942381e+01 3.6795889222542627e+01
21530 3 3 4.6602118095446549e+01 3.1486959939957913e+01 3.7046582500123868e+01
3320 2 2 4.7039168623432452e+01 3.1040153151720936e+01 3.6337468561493175e+01
3321 1 1 4.7325395706774898e+01 3.1012710039011328e+01 3.6069544092886339e+01
20889 1 1 4.6652669181628291e+01 3.1957104900282314e+01 3.6798241882180164e+01
21529 1 1 4.6634518773395271e+01 3.1848383726057911e+01 3.6859793675887808e+01
20888 2 2 4.6649111415089635e+01 3.2330677883187754e+01 3.6626899606561473e+01
20887 1 1 4.6643330526767862e+01 3.2665893242592695e+01 3.6450920129292577e+01
390 1 1 4.6655446193979607e+01 3.2807169940723291e+01 3.6402051264517276e+01
389 2 2 4.6814024849638393e+01 3.3139923228679848e+01 3.6231014424988075e+01
388 1 1 4.6829081174840077e+01 3.3414696656278473e+01 3.5933406455415536e+01
20989 1 1 4.8373318078992128e+01 3.4631927582451979e+01 3.6552745253202055e+01
20990 2 2 4.8340880660981760e+01 3.4541890850393521e+01 3.6936143640587630e+01
6031 1 1 4.8373989106886569e+01 3.4649095499744185e+01 3.6411434107032690e+01
6032 2 2 4.8404560135798199e+01 3.4695602072245805e+01 3.6022526833571312e+01
20991 1 1 4.8453678876169299e+01 3.4311704904660012e+01 3.7247214846109408e+01
12527 2 2 4.9549189792701547e+01 3.2309079542206320e+01 3.7767417191775351e+01
12526 1 1 4.9559896951241811e+01 3.2144639805011941e+01 3.8110049714765339e+01
12528 1 1 4.9310602875501893e+01 3.2669627063978680e+01 3.7736488123403916e+01
5193 1 1 4.9233786323349882e+01 3.2809342218572304e+01 3.7713798139262437e+01
5192 2 2 4.9018460722473868e+01 3.3147490500230511e+01 3.7787208332260541e+01
3372 1 1 4.8504529848934119e+01 3.4209259511838155e+01 3.7389672698636502e+01
3370 1 1 4.8760897668641775e+01 3.3661418127541154e+01 3.7725428324212771e+01
3371 3 3 4.8634184177471823e+01 3.4004867560090183e+01 3.7635969038103795e+01
5191 1 1 4.8814739504824516e+01 3.3521394888796294e+01 3.7767455994546886e+01

Velocities

1170 -4.7660777320508547e+00 -2.9093719509916771e+00 3.3971424088035072e+00
1169 4.3470208141235815e+00 2.2820458352507256e+00 7.7782088257063975e-01
1168 2.1551844587482849e+00 3.7185489416584588e-01 1.1124819086394649e-02
13780 3.0962855203462416e+00 -1.2927885599608646e+00 2.3685284011043115e+00
13781 2.0382444299311442e+00 1.5271843120639024e+00 7.1913508920707553e-02
13782 -3.4680389216019960e+00 2.3914119352057575e+00 8.6422184874295049e-01
2474 1.8718082375147751e+00 -1.4016450026704468e+00 1.5313756714528015e+00
2473 -1.6480383059535364e+00 -1.8821211618446250e+00 1.4439084172959098e+00
2475 -1.7944055614351671e+00 5.2422681013404997e+00 2.9589056380404113e+00
9161 -2.7517706228195155e-01 6.0945336038886855e-01 -6.3061130036204038e-01
9162 1.1414602671241332e+00 -9.5707699232123278e-01 3.0713368062643287e+00
2565 -2.5734114637485606e+00 8.9235141394230832e-02 1.3780044776910940e+00
9160 6.5050747920905323e+00 6.3505554390489105e-02 -7.0996313548435550e+00
2564 -1.5745758590725856e+00 -2.4497503301647563e+00 -1.0948325532655752e+00
15486 5.1288955118883237e+00 9.0834585754018016e-01 -4.2761413684084149e+00
15485 8.8956343246280312e-01 -1.3986839527765786e+00 1.2474483259501952e+00
8809 1.3565215380371951e+00 -4.8091996812868576e-02 -3.7350652021652908e+00
8810 2.1575985335158334e+00 1.3464784706973107e+00 -3.1327367279472083e+00
8811 1.5323216788721158e-01 3.4087783641840756e+00 3.2218232303458316e-01
14235 4.3310265563933132e+00 -6.2820314613070360e-02 -7.7033890412363988e+00
9942 -2.9218499232890061e+00 2.9921093253766538e+00 -4.9836042074383382e+00
14234 2.7556585864164536e+00 2.1801114517988109e+00 -3.8099042617277520e-02
14233 -4.4899152066085284e+00 5.9157772904496198e-01 -4.7940235585822333e-01
9941 -5.1654183485824068e-02 1.8461100358824316e+00 2.8042275683301128e+00
15378 -2.7552236676803727e+00 2.3454455375953138e+00 -2.2178538925588986e+00
7852 -1.5777785516295386e+00 -1.8321513849285509e-01 -2.0517981979980409e+00
7853 1.7053399707148871e+00 -6.7197155091072491e-01 2.0873296258953791e+00
15377 -2.6823688357739023e-01 -3.2659008270462517e+00 8.2587428881908220e-01
7854 -7.2002203223793348e-01 -1.6904879640791961e+00 -6.9785407817577241e+00
10380 -2.1526517259113165e+00 1.8804952895662568e+00 3.0072340319461834e+00
9940 1.5117523245639051e+00 -7.1387597297067531e+00 -1.9575349706641632e-01
21507 -3.0597371717169819e-01 -1.1509576451772938e+00 -1.3739781571230605e+00
21505 1.8426545622997474e+00 -5.0059080039836357e-01 1.0279925521587425e+00
15376 -2.6205963145390165e+00 3.6686294270230912e+00 -1.3447768585374791e+00
21506 1.8647748790146856e+00 3.3101907147148606e+00 -2.6036970161332160e+00
3205 -1.7808211221632819e+00 4.6866240093325784e-01 -2.9963577520910429e+00
3207 3.9251635816774750e+00 -2.7291031895997127e+00 3.6841911372402074e+00
3206 -1.1809336311989407e+00 1.1976227430002795e+00 7.1989371619742704e-01
10378 -1.1528890685237401e+00 5.9095865264074225e+00 -1.9924654466141132e+00
2563 1.2967747977141060e+00 -1.2302307075964980e-01 -1.9716796756867980e-01
10379 -1.5431919364025493e-01 -2.0443232456531870e+00 -7.4495449835082930e+00
12277 2.6018470027515157e+00 -8.0430987727607679e+00 1.2173967848236766e+00
12278 6.3801576422102912e-01 -2.0140878790939931e+00 2.9475432521368466e-01
12279 2.2751062775958451e+00 -2.4272458470071263e+00 -4.9207449399395822e+00
17521 8.5859152515865080e+00 1.7646172491218945e+00 -3.1201768097982425e+00
17522 -1.0679879193710273e+00 3.5460437740366437e+00 4.8174890325988751e-01
11883 6.6239506942377684e+00 -2.4442117222229771e+00 -4.2355128284667716e+00
2278 -7.3201349537504035e-01 3.5987983372133714e-02 5.9987798433654520e+00
2279 -1.2128446388361278e+00 1.3244840682692387e+00 3.2578700391094833e+00
2280 -6.6095081106185285e+00 -1.4741540935975934e+00 -3.2183773115196570e+00
15484 -4.0556560497651040e-01 1.8096128148369477e+00 1.0461617161023349e+00
607 1.7634336071220971e-01 -3.5934227431379333e+00 8.1952046323323779e-01
19333 -3.1902586238388215e+00 3.9021727769485013e+00 4.7247341200526627e-01
17523 -5.9610821630094490e-01 2.6449611892497932e-01 -6.4855199280198610e+00
14866 -7.4862628461703928e-01 -5.0948677680646948e-01 -1.4798207010037780e+00
14867 -3.2128067191062368e+00 -2.7940132823046895e+00 1.9549491485535260e+00
19335 7.3847176120594982e-01 -8.9967271207070865e-01 -2.6172701074571734e+00
14868 -8.4504598500028205e+00 -5.9502974964474564e-01 -9.9302138371975734e-01
19334 4.0315171976573783e-01 4.4506657006686368e-01 4.0586627161538598e+00
7234 -3.1496678772018449e-01 -1.5779649125666992e+00 5.3247912027702959e+00
7235 -2.9837552045382778e+00 1.0557228288751579e+00 -1.8808527137546882e-01
11031 3.1940170683018176e+00 -5.3063568196530753e-01 -1.6926341261421862e-01
11030 1.4369653756549696e+00 1.0886634809003195e+00 -6.3494948071719792e-01
7236 8.2775827118997771e+00 1.3650894178601158e+00 -6.4394327030348397e-01
11029 8.9913404216729442e-02 -2.9530017285258747e+00 9.8823464075773249e-01
12985 5.8404085626722768e-01 6.2617175189528416e+00 -2.3588443215097441e+00
7679 8.0742916906109630e-01 -1.0675315261561964e-01 -3.9754051461158237e+00
7680 -6.3783774693665141e+00 -8.6465273511925966e-01 4.5427100716131017e+00
21097 -1.6859884118657329e+00 -2.9381347397909310e+00 -4.1960668343314573e+00
11881 -1.9945075049344090e+00 4.6209224062566040e-01 3.3018965451756430e+00
7678 -3.3620897662579363e-01 -2.8503698437721825e+00 2.1966865819227119e+00
11882 -3.9717620105347216e+00 1.4573758100127014e+00 2.7865036439124817e+00
608 9.0678577529166071e-01 1.7494967319880224e+00 -1.1271410707632856e+00
8729 -9.6401251055559167e-01 7.0885483925188808e+00 1.1473367778758448e-01
12986 -2.2488566315130527e-02 6.8477017594321721e-01 2.9267586271811501e+00
609 -3.9364835120425261e+00 -2.2580883972637613e+00 1.3465997198870139e-01
8730 3.0124652501751048e+00 5.9422435668866580e+00 -5.4430135151562844e+00
12987 -2.4858050359946042e+00 -1.0474385590335966e-01 2.7913922830878724e+00
8728 -3.6534617567278413e+00 -3.0746102892735222e-01 7.9916686306146003e+00
6532 -8.8773108208828500e-01 4.4380672664333681e-01 5.3978766450523192e+00
6533 -8.5924262938422563e-02 -2.0903274257878426e+00 3.7695511155625114e+00
2297 1.0648940049560520e+00 -4.5333413324377050e+00 -6.2292388161768253e-01
2296 4.0330802246062225e-01 -1.4546388251513633e+00 -2.4784910628110510e+00
2298 -2.7641999815687368e-01 8.1434818673498621e-01 -1.2774313590805904e+00
14026 -6.3135901794963367e-01 1.8203142566618913e+00 -2.8973446947691106e+00
6534 -2.6206095617458538e+00 2.3133801041282078e+00 -2.0773364396769227e+00
21098 1.4157450423351774e+00 -1.4659005027290224e+00 -2.9437503305880077e+00
21099 -1.9617474589247255e+00 -1.0107153780475968e+00 -8.6666154334892767e+00
18779 2.5892250253974258e+00 -9.6394662644194318e-01 -1.0004762507110212e+00
18780 -2.6093952493134616e+00 -2.8065567178932795e+00 -4.0127506237348829e+00
1367 -1.4900025871544548e-01 2.0757801170698116e+00 -5.8248308413471479e+00
1366 1.1655929331106063e-01 3.4462554453885712e+00 1.5153976055260112e+00
460 -5.4010823291638896e+00 -2.1084278798398577e+00 -5.4605884129631947e+00
1368 -2.0868183076383884e-01 2.0233544356749968e+00 -1.6332879655763115e+00
19864 1.9340206894276439e+00 4.4666471197076407e-01 7.7725358340065309e-01
19865 1.4309457025771391e-01 -2.5427218784734267e+00 3.2994432857855838e+00
14027 3.0541376555435029e+00 -4.7413274119573838e+00 -2.3137305621081201e+00
14028 -3.1997544126359267e+00 8.5699168225025293e+00 1.4932177629760814e+00
462 -1.8021331402071132e+00 -2.0874624256560379e+00 1.8858310408910758e-01
18778 5.8615829391859864e-01 -5.1644254532990108e-01 -2.4234868847531437e+00
20856 -4.4714774949717850e-01 -6.6008843726765110e-01 5.4947384552158693e+00
19866 1.4041776253796270e+00 -7.5290860166611528e-01 -3.0120955049665952e+00
20855 3.2424272151158116e+00 -2.7812534325475915e+00 1.7313299249725236e+00
20854 8.3125315045597192e-01 1.9934735649626345e+00 -4.3492780293485049e+00
461 -7.6925001433251561e-01 3.0859364088282448e+00 2.5239047158679297e+00
17317 4.3978860634325923e+00 -3.6198865770499848e+00 -3.7703516935624375e+00
19726 -2.4986801021424974e+00 5.0213805303326602e+00 -1.8605445223276769e+00
19727 -1.4282448455855972e+00 6.0826752694476044e-02 -2.9873795112881756e+00
19728 3.0068439345873954e-01 3.6460812730123378e+00 -2.5050647327589393e+00
17318 -4.3509910253419459e+00 1.6716302819507984e+00 -2.2870185865574184e+00
17319 4.2713504692552222e+00 6.9107828615267310e+00 -6.5076445395867513e+00
13219 -6.6899780032123657e-02 1.7394921324972403e+00 -1.8411070789937773e+00
13220 8.3116930530203637e-01 -1.0239033976688956e+00 2.4177043031634065e+00
13221 -2.5075966196615838e+00 -8.3163717828425154e-01 -9.8897197950398077e+00
13264 -3.4541532791885143e+00 1.7152659072701322e+00 -2.7186844532482377e+00
13265 -3.1764742146837648e+00 -1.5395417522642869e+00 -6.2646398880339338e-01
10539 3.0290280414070829e+00 2.1049355288431171e+00 2.0225441036450049e+00
10538 3.3664090144314831e+00 -5.7250504342401909e-01 8.3525099172788619e-01
3711 7.0383052017962189e-01 -4.3070161749189033e+00 5.4243569319535094e+00
15012 3.4919963880388633e-01 1.6765534055036464e+00 -3.3149597791873489e+00
15011 3.2069706540891391e-01 3.8786137860262421e-01 -3.4215566149645116e+00
13266 -1.8904889355951799e+00 -2.6625162729838077e+00 -8.1731772927565860e+00
15010 3.1957149707607155e+00 -3.1377913577503733e+00 6.4178622712930988e-01
176 6.0779704886053199e-01 2.6539382448682353e-01 1.4046516951789639e-01
177 3.2333724068728613e+00 4.2497969654433110e-01 -6.9744932285599583e+00
3617 -1.6777607520971767e+00 -2.0926928028120177e+00 7.9389649062101442e-02
175 -5.8362444645651124e-01 6.4334979302024173e+00 -1.5141704475630418e+00
3618 -4.7111659943449471e+00 -2.4212683876125864e+00 -8.8959780455039583e-01
3616 4.2247034123229348e+00 -6.0612053432563746e+00 8.6817624877472994e+00
19030 2.4925186067158895e+00 -1.7331332686085690e+00 -3.7517803833877981e+00
19031 1.7314728610308603e+00 2.0204592011518665e+00 9.5129420663815645e-01
10537 -2.4365734149671137e+00 -8.2796298236453025e-01 6.6033213950318750e+00
19032 -1.9320178019655367e+00 3.6782206452067161e+00 3.8596427178902890e+00
6894 6.2323366063670047e+00 -3.5383261976033126e-01 -1.7577958571748029e+00
6893 -1.9857096494146076e+00 -1.1164218235362113e+00 -1.9446458755663490e-02
6892 1.8675607151356788e+00 2.0588066584794729e+00 4.4594001656270947e+00
3710 9.9793597119680144e-01 -1.6193520254892597e+00 -1.7060048168529196e+00
3709 -3.2493982955248191e+00 2.1022930707068466e+00 -1.6880468523498164e+00
5080 2.1568662038750506e+00 -7.8507811017945905e-01 -5.6933586554821476e+00
5082 -5.0232784947609643e-01 7.8581495173895610e-01 -6.0668450256416095e-02
8971 -2.1374167766304542e-01 -2.1816818865998444e+00 1.7162295948374027e+00
5081 9.6304167934540191e-02 2.8596850951485142e+00 1.9359035000902023e+00
8973 -7.3321422465112631e+00 2.3478134149642109e+00 2.4534487547943029e+00
7434 4.6700694512434531e+00 5.2988124204349880e+00 1.7527454653358481e+00
21348 -1.2739629446372127e+00 -8.7170020611451893e+00 2.0747515217226264e+00
7433 -1.2901534455271686e+00 7.4413500580691661e-01 3.0513007101857598e-01
7432 3.0323929474477573e+00 -5.1485622573808483e+00 -2.7771660021694706e+00
8972 -1.6685359751807012e+00 -2.2532289812654613e+00 -1.9490149392909322e+00
21347 1.3048825608942230e-01 1.9705079820746800e+00 2.4151261902526642e+00
21346 -5.6162271457774171e-01 -2.3736125396677066e-01 -5.3869064502758213e-01
6804 2.6865624946866702e+00 1.2301989134478339e+00 -1.8794975883836029e+00
6033 4.2808273667346253e+00 -3.7518328022899805e+00 2.1940904218025699e+00
6803 -9.9886645621029213e-01 -1.2555957171640140e+00 -1.6298281188714265e+00
6802 -2.8724643194765589e+00 -4.0206337497121840e+00 2.0593577392145210e+00
3319 3.3281037937295004e+00 7.3482536736935229e+00 -1.0849563209554440e+00
21531 -1.7859361048450646e+00 -2.2400306415907345e-01 -1.4179052806473218e+00
21530 -1.5396009047202734e+00 -7.1324897681963710e+00 1.2815479853059764e+00
3320 -3.5564220726977109e+00 1.2711913934821437e+00 -1.4630610964880664e+00
3321 7.9123477756733402e+00 3.0355523598216771e-01 8.0101108269511645e+00
20889 -3.6498641802259022e+00 3.2015302331254616e+00 1.0958384471230043e-01
21529 -3.4790352764296522e+00 -1.8318319085475157e+00 -7.1834077651498678e+00
20888 -2.3793980656507787e+00 -6.9629255217540320e-01 2.9267759392529742e+00
20887 2.0493750208507837e+00 1.5287911226350555e+00 5.0166821223618570e+00
390 -1.1303221921260214e+00 -2.8489032186015101e-01 8.0363642938260060e-01
389 4.9030022523740713e-01 9.5906924899865209e-01 -1.0993299760669286e+00
388 6.8393728591296687e-01 -3.0706712454865297e+00 -2.0430483881744421e+00
20989 -1.3692048294356836e+00 -3.6136512536866920e+00 -2.3873731030638936e+00
20990 -7.1138384620684851e+00 3.1162274036575260e-02 2.2090407894016990e+00
6031 2.5161857898758511e-01 -1.2215626253115106e+00 2.7044658847527723e+00
6032 1.7837656192931632e+00 -6.0155082160962703e+00 -1.5644485021889738e+00
20991 -2.7991530849855567e-01 7.8074819797804940e-01 2.4982844906607373e+00
12527 3.1729256812291418e+00 -1.8657627948367350e-01 -2.6863605389199080e-01
12526 -2.4710635021192981e+00 -7.7528652801106346e-01 4.6599846400828158e+00
12528 6.8459453088483748e+00 -8.0860603987434772e+00 -9.8151312723217536e+00
5193 -1.2377955624639725e-02 2.4859298872851676e+00 -1.4061386902638997e+00
5192 4.5099187349056002e-01 -2.6268985941768102e+00 4.2774308625670940e+00
3372 2.0227748098924088e+00 -5.3313888460021164e-02 -5.9273003699013893e-01
3370 1.7927205436863971e+00 8.6147081214178145e-01 -4.6740939952769036e+00
3371 5.4205664580336297e+00 1.1365504622655298e+00 1.9281754247806160e+00
5191 -4.4602225944342244e-01 -1.8042505550391903e+00 2.1529664745812132e+00

Bonds

5003 2 1169 1170
5004 2 1168 1169
10473 2 13780 13781
10474 2 13781 13782
10477 2 2474 2475
10478 2 2473 2474
10479 1 2473 13782
10663 2 9161 9162
10664 1 2565 9162
10666 2 9160 9161
10670 2 2564 2565
11376 2 15485 15486
11397 2 8809 8810
11401 2 8810 8811
11402 1 8811 14235
11408 1 9942 14233
11409 2 14234 14235
11410 2 14233 14234
11411 2 9941 9942
11414 3 7852 7853
11415 1 7852 15378
11416 3 7853 7854
11417 2 15377 15378
11418 1 7854 15486
11443 1 10380 11029
11446 2 9940 9941
11447 1 9940 21507
11456 2 21505 21506
11457 2 15376 15377
11458 1 15376 21505
11459 2 21506 21507
11485 2 3205 3206
11486 1 3207 10378
11487 2 3206 3207
11488 2 10378 10379
11489 2 2563 2564
11490 1 2563 3205
11491 2 10379 10380
12081 2 12277 12278
12082 2 12278 12279
12083 1 12279 17521
12084 2 17521 17522
12090 2 17522 17523
12093 2 2278 2279
12094 1 2278 11883
12095 2 2279 2280
12096 1 2280 15484
12097 2 15484 15485
12127 2 607 608
12128 1 607 19333
12129 2 19333 19334
12130 3 14866 14867
12131 1 14866 17523
12132 3 14867 14868
12133 1 14868 19335
12134 2 19334 19335
12147 2 7234 7235
12148 1 7234 11031
12149 2 7235 7236
12150 2 11030 11031
12151 1 7236 12985
12152 2 11029 11030
12154 2 12985 12986
12829 2 7679 7680
12830 1 7680 21097
12831 2 21097 21098
12833 2 11881 11882
12834 2 7678 7679
12835 1 7678 11881
12840 2 11882 11883
12853 2 608 609
12884 2 8729 8730
12885 2 12986 12987
12886 1 609 8730
12887 2 8728 8729
12888 1 8728 12987
13538 2 6532 6533
13539 1 6532 21099
13540 2 6533 6534
13557 2 2297 2298
13558 2 2296 2297
13559 1 2296 6534
13560 1 2298 14026
13561 2 14026 14027
13562 2 21098 21099
13587 2 18779 18780
13594 2 1367 1368
13597 2 1366 1367
13599 2 460 461
13600 1 460 1366
13606 1 1368 19864