ITEM: TIMESTEP
60000000
ITEM: NUMBER OF ENTRIES
1829
ITEM: BOX BOUNDS pp pp pp
0 50
0 50
0 50
ITEM: ENTRIES c_binfo[1] c_binfo[2] c_binfo[3] 
2 6941 6942 
1 6942 15826 
3 15826 15827 
3 15827 15828 
3 19091 19092 
3 19090 19091 
3 20780 20781 
2 18157 18158 
1 18157 20779 
3 20779 20780 
1 5586 15828 
2 7003 7004 
1 7003 20781 
3 5584 5585 
1 5584 7005 
2 7004 7005 
3 5585 5586 
2 6940 6941 
2 4453 4454 
1 4453 6940 
2 13639 13640 
2 9136 9137 
1 9136 13639 
2 9137 9138 
1 9138 19336 
2 19336 19337 
2 19337 19338 
2 4618 4619 
1 5397 9793 
3 9793 9794 
3 9794 9795 
2 10129 10130 
2 7795 7796 
1 7795 10129 
2 7796 7797 
1 4620 9795 
2 4619 4620 
2 5396 5397 
3 10120 10121 
1 10120 10299 
2 16568 16569 
2 13286 13287 
2 13285 13286 
1 13287 16567 
2 16567 16568 
1 10017 16569 
2 4454 4455 
1 4455 8803 
2 8803 8804 
2 15005 15006 
2 8804 8805 
2 13421 13422 
2 13420 13421 
1 13422 15006 
2 20147 20148 
1 7797 20146 
2 20146 20147 
1 10836 20148 
2 5395 5396 
1 5395 5421 
3 5420 5421 
3 5419 5420 
1 5419 6691 
2 6691 6692 
2 6692 6693 
1 6693 14031 
3 10121 10122 
3 4439 4440 
3 4438 4439 
1 4438 21388 
3 21388 21389 
2 13330 13331 
2 13331 13332 
1 11304 13330 
2 15004 15005 
1 15004 18042 
2 18040 18041 
1 18040 19090 
2 18041 18042 
2 12265 12266 
3 6217 6218 
1 6217 12265 
3 1895 1896 
2 4576 4577 
2 4577 4578 
1 1896 4578 
3 6218 6219 
2 10834 10835 
2 10835 10836 
3 3400 3401 
1 3400 4440 
3 3401 3402 
1 3402 6669 
3 6668 6669 
3 6667 6668 
3 1894 1895 
1 1894 10153 
2 10153 10154 
1 10155 10815 
2 10154 10155 
2 18158 18159 
2 15628 15629 
1 15628 18159 
2 15629 15630 
1 8385 15630 
2 1888 1889 
2 1889 1890 
1 1890 20133 
2 20132 20133 
2 3928 3929 
1 3928 18882 
2 3929 3930 
2 18881 18882 
2 18880 18881 
2 18628 18629 
1 18628 18880 
2 4301 4302 
2 10130 10131 
2 14314 14315 
1 14314 16383 
2 16382 16383 
3 9707 9708 
3 10298 10299 
3 10297 10298 
3 1873 1874 
1 1873 10297 
3 9706 9707 
3 1874 1875 
1 1875 9706 
1 546 9105 
3 9104 9105 
3 9103 9104 
1 9103 13488 
3 10016 10017 
3 545 546 
3 10015 10016 
1 10015 18573 
3 544 545 
1 544 12981 
3 12980 12981 
3 18572 18573 
2 3619 3620 
1 3619 12282 
1 30 3930 
2 12280 12281 
1 12280 14460 
2 12281 12282 
2 9251 9252 
2 29 30 
2 28 29 
1 28 10303 
2 10303 10304 
1 9252 10305 
2 10304 10305 
2 18817 18818 
1 4260 18817 
2 4259 4260 
2 4258 4259 
1 4258 8379 
2 9250 9251 
1 9250 16381 
2 16381 16382 
2 2314 2315 
1 2314 15216 
2 15215 15216 
2 15214 15215 
1 15214 16471 
2 14315 14316 
2 14030 14031 
2 14029 14030 
1 7866 14029 
3 7865 7866 
3 7864 7865 
3 1756 1757 
1 1756 10356 
3 1757 1758 
3 10355 10356 
3 13276 13277 
1 4431 7864 
3 12979 12980 
1 2586 12979 
3 4430 4431 
3 4429 4430 
1 4429 16870 
3 16870 16871 
3 16871 16872 
1 10971 16872 
3 2585 2586 
3 2584 2585 
3 18571 18572 
3 21389 21390 
1 12135 21390 
3 12134 12135 
3 6551 6552 
3 6550 6551 
3 12133 12134 
1 6552 19645 
3 19645 19646 
3 15109 15110 
3 4570 4571 
1 4570 15109 
3 19340 19341 
3 4571 4572 
1 4572 19339 
3 19339 19340 
2 4201 4202 
1 4201 13332 
2 4202 4203 
1 4203 7881 
2 14459 14460 
2 8168 8169 
2 12266 12267 
2 14458 14459 
1 10221 14458 
2 10220 10221 
2 10219 10220 
2 2443 2444 
1 2443 10219 
2 2444 2445 
2 8378 8379 
2 2315 2316 
1 2316 12267 
2 14495 14496 
2 14494 14495 
1 2592 14494 
1 5679 10354 
3 10354 10355 
3 5678 5679 
3 5677 5678 
1 5677 12123 
3 12122 12123 
3 15935 15936 
1 7719 15936 
3 15110 15111 
3 10970 10971 
3 10969 10970 
3 208 209 
3 7054 7055 
1 7054 15111 
3 209 210 
3 7055 7056 
2 4937 4938 
2 12878 12879 
2 12877 12878 
2 4936 4937 
1 4936 12879 
2 7021 7022 
1 7021 12877 
1 2445 3795 
2 7022 7023 
1 7023 11230 
2 11230 11231 
2 10814 10815 
2 10813 10814 
2 3794 3795 
2 3793 3794 
1 3793 17856 
1 11265 17958 
3 6419 6420 
3 6418 6419 
3 17956 17957 
3 17957 17958 
3 9856 9857 
1 9856 17956 
1 9858 15934 
3 15934 15935 
3 9857 9858 
3 21007 21008 
1 6420 21007 
2 11264 11265 
2 11263 11264 
2 3277 3278 
1 3277 17668 
2 17668 17669 
2 8383 8384 
1 8383 17670 
2 8384 8385 
2 3278 3279 
1 8736 11293 
2 11294 11295 
2 11293 11294 
1 3279 11295 
2 13640 13641 
2 8734 8735 
1 8734 13641 
2 8735 8736 
2 20131 20132 
2 17953 17954 
1 12783 17953 
2 17954 17955 
1 17955 20131 
3 12782 12783 
2 6319 6320 
2 1753 1754 
1 1753 6319 
1 2238 3297 
2 8573 8574 
2 2237 2238 
2 13412 13413 
2 2236 2237 
1 2236 12619 
2 12619 12620 
2 1754 1755 
2 8572 8573 
1 138 8572 
2 14489 14490 
2 14488 14489 
1 4302 13413 
2 4300 4301 
1 4300 18819 
2 18818 18819 
2 13123 13124 
1 13123 14488 
2 15457 15458 
1 14490 15457 
2 15458 15459 
2 15466 15467 
2 15467 15468 
1 15459 15466 
1 12231 16269 
1 4461 15271 
3 11735 11736 
3 15272 15273 
1 15273 15468 
3 15271 15272 
3 16267 16268 
1 11736 13486 
3 13486 13487 
3 13487 13488 
3 3907 3908 
1 3907 14637 
3 3908 3909 
3 16268 16269 
3 14635 14636 
3 6503 6504 
1 6504 14635 
3 14636 14637 
3 3286 3287 
1 3286 15852 
3 3287 3288 
3 15851 15852 
3 9223 9224 
3 9224 9225 
3 15850 15851 
1 15850 20008 
3 20009 20010 
1 6615 9223 
3 6614 6615 
3 6613 6614 
1 6613 19341 
3 20008 20009 
1 16395 20010 
3 8146 8147 
1 8148 20226 
3 20225 20226 
3 20224 20225 
3 8147 8148 
2 13684 13685 
2 13616 13617 
2 13615 13616 
1 13615 16744 
2 3296 3297 
2 13685 13686 
2 7924 7925 
1 7924 13686 
2 7925 7926 
1 5049 13684 
2 7555 7556 
1 7555 7926 
2 12620 12621 
2 8425 8426 
1 8425 12621 
2 8426 8427 
1 8427 12852 
2 3347 3348 
2 16471 16472 
2 4534 4535 
1 4534 14316 
2 4535 4536 
2 3346 3347 
1 3346 4536 
2 16472 16473 
1 11880 16473 
3 11879 11880 
3 11878 11879 
1 11878 21364 
3 13277 13278 
3 8345 8346 
3 8344 8345 
1 8344 13278 
3 4949 4950 
1 1758 3909 
3 1985 1986 
3 4948 4949 
3 1984 1985 
1 1984 4948 
1 1986 3094 
3 4831 4832 
1 4831 20794 
3 4832 4833 
1 3288 19647 
3 19646 19647 
3 20794 20795 
3 20795 20796 
2 7879 7880 
1 7879 15475 
2 7880 7881 
1 5985 13617 
2 15475 15476 
2 5984 5985 
2 5983 5984 
1 5121 5983 
2 379 380 
1 379 14971 
2 14971 14972 
2 5120 5121 
1 2268 12850 
2 9167 9168 
2 7556 7557 
1 1290 9166 
2 9166 9167 
2 1289 1290 
2 12850 12851 
2 1288 1289 
1 1288 7557 
2 12851 12852 
2 14972 14973 
2 17851 17852 
1 14973 17851 
2 17852 17853 
2 6019 6020 
1 6019 17853 
2 8377 8378 
3 21484 21485 
2 2591 2592 
2 7639 7640 
1 7639 8377 
2 7640 7641 
1 7641 20313 
2 20312 20313 
2 20311 20312 
1 20311 21484 
2 9229 9230 
2 2590 2591 
1 2590 6501 
3 6500 6501 
3 6499 6500 
1 6499 13344 
3 13343 13344 
3 12121 12122 
1 12121 12888 
1 11205 18621 
3 11204 11205 
3 11203 11204 
1 11203 13342 
3 13342 13343 
1 210 1078 
3 1078 1079 
1 1080 18619 
3 18619 18620 
3 1079 1080 
3 18620 18621 
3 17735 17736 
3 7717 7718 
1 7717 17734 
3 7718 7719 
3 17734 17735 
3 12614 12615 
3 3799 3800 
1 3799 5073 
3 5072 5073 
3 5071 5072 
1 5071 7056 
1 12615 17736 
3 12613 12614 
1 12613 16120 
2 15476 15477 
1 3465 15477 
2 1685 1686 
2 1684 1685 
1 1684 2670 
1 1686 13716 
2 6341 6342 
2 11231 11232 
1 6342 11232 
2 6340 6341 
1 6340 14106 
2 17855 17856 
2 6020 6021 
1 1419 17854 
2 9230 9231 
2 17854 17855 
1 6021 9231 
1 1242 17766 
3 12886 12887 
1 12886 17764 
3 12887 12888 
3 17764 17765 
3 17765 17766 
1 2781 16972 
3 16973 16974 
3 16972 16973 
3 21008 21009 
1 16974 21009 
3 3800 3801 
2 2669 2670 
2 9565 9566 
2 9566 9567 
3 8770 8771 
1 8770 9567 
2 2668 2669 
1 2668 2973 
2 2972 2973 
3 1417 1418 
1 1417 2971 
2 2971 2972 
3 19402 19403 
3 1418 1419 
2 1241 1242 
3 6736 6737 
1 6736 15670 
3 15670 15671 
1 15672 19854 
3 15671 15672 
2 136 137 
1 136 21156 
2 15913 15914 
2 8396 8397 
2 13411 13412 
2 9193 9194 
1 9193 13411 
1 8397 15913 
2 15914 15915 
2 137 138 
2 9194 9195 
1 9195 20482 
2 20483 20484 
2 20482 20483 
1 6657 8395 
2 8395 8396 
2 6656 6657 
2 6655 6656 
1 3624 6655 
3 15095 15096 
3 15094 15095 
2 3623 3624 
2 3622 3623 
1 3622 15094 
3 12781 12782 
3 11734 11735 
1 11734 12781 
3 6502 6503 
3 2191 2192 
1 2191 6502 
3 19852 19853 
1 2193 17448 
3 2894 2895 
1 2895 9225 
3 2192 2193 
3 2893 2894 
1 2893 19852 
3 19853 19854 
1 8301 16393 
3 16394 16395 
3 8300 8301 
3 16393 16394 
3 8299 8300 
1 8299 9342 
3 6062 6063 
2 6320 6321 
1 6321 13125 
2 13124 13125 
2 17444 17445 
2 17443 17444 
1 9027 17445 
2 15661 15662 
1 15661 20514 
3 1129 1130 
1 1129 17443 
3 1130 1131 
2 16375 16376 
1 1131 14326 
3 14326 14327 
1 13107 16375 
2 2248 2249 
1 2248 16377 
2 16376 16377 
3 14327 14328 
2 2249 2250 
3 12230 12231 
3 13105 13106 
3 12229 12230 
1 12229 13105 
3 13106 13107 
3 4460 4461 
3 11099 11100 
1 11100 16267 
3 15815 15816 
3 15814 15815 
1 5352 15814 
3 5351 5352 
3 12118 12119 
3 5350 5351 
1 5350 12118 
1 3714 8997 
3 3713 3714 
3 3712 3713 
1 3712 21595 
3 21595 21596 
1 15480 15816 
3 12119 12120 
1 12120 14988 
3 14986 14987 
3 4888 4889 
1 4888 14986 
3 14987 14988 
3 4792 4793 
1 4792 10504 
3 10504 10505 
3 10505 10506 
1 10506 17691 
3 4889 4890 
3 17690 17691 
1 15483 17689 
3 17689 17690 
3 15482 15483 
3 1535 1536 
1 1536 5484 
3 5483 5484 
3 15481 15482 
3 5482 5483 
1 5482 15481 
3 1534 1535 
1 1534 12336 
3 12335 12336 
3 12334 12335 
1 12334 17988 
2 18379 18380 
1 18379 20224 
2 685 686 
1 685 9465 
1 11373 14466 
2 686 687 
2 11372 11373 
2 11371 11372 
1 11371 18381 
2 18380 18381 
2 9464 9465 
3 14465 14466 
3 14464 14465 
1 8190 14464 
2 4163 4164 
2 4162 4163 
1 4162 5047 
2 5047 5048 
2 20513 20514 
1 381 19323 
2 5048 5049 
2 20512 20513 
2 19322 19323 
2 19321 19322 
1 19321 20512 
2 9025 9026 
1 9025 13887 
2 9026 9027 
2 8335 8336 
1 8335 16629 
2 16628 16629 
2 13886 13887 
2 16627 16628 
1 3348 16627 
2 5348 5349 
1 13767 21366 
3 21365 21366 
3 21364 21365 
3 4459 4460 
3 11687 11688 
3 9938 9939 
1 9939 20893 
3 20893 20894 
3 20894 20895 
3 11686 11687 
3 11098 11099 
3 9937 9938 
1 9937 11098 
1 3096 8995 
3 8995 8996 
3 15478 15479 
1 15478 17637 
3 17636 17637 
3 17635 17636 
1 17635 17694 
3 3095 3096 
3 15479 15480 
3 8996 8997 
3 17693 17694 
3 3094 3095 
3 17692 17693 
1 4833 17692 
3 12338 12339 
3 11869 11870 
1 11869 12337 
3 12337 12338 
3 11870 11871 
1 11028 16122 
1 4353 4890 
3 11027 11028 
3 5996 5997 
3 2533 2534 
1 2533 5995 
3 5995 5996 
3 2534 2535 
1 2535 6754 
1 5997 20796 
3 6754 6755 
3 4352 4353 
3 11026 11027 
1 11026 14313 
3 4954 4955 
3 4955 4956 
2 380 381 
2 11795 11796 
2 11794 11795 
2 17662 17663 
1 11796 17662 
2 17663 17664 
2 8336 8337 
1 10533 11794 
2 10532 10533 
2 10531 10532 
1 8337 10531 
2 9404 9405 
2 9403 9404 
1 9403 16879 
2 16879 16880 
3 21485 21486 
2 2266 2267 
1 2266 9405 
2 5347 5348 
2 2267 2268 
3 16501 16502 
1 16501 20895 
3 13766 13767 
3 13765 13766 
1 144 13765 
3 20882 20883 
3 20881 20882 
3 286 287 
1 286 20881 
3 143 144 
1 1965 20883 
3 142 143 
1 142 16357 
3 16357 16358 
3 16358 16359 
3 4738 4739 
1 4738 16359 
3 4739 4740 
3 16120 16121 
3 6401 6402 
3 6400 6401 
1 6400 14581 
3 14581 14582 
3 14582 14583 
1 6402 11871 
3 16121 16122 
3 7871 7872 
1 7872 14583 
3 6755 6756 
1 6756 17328 
3 17327 17328 
3 7870 7871 
2 6542 6543 
2 3463 3464 
1 3463 6543 
2 6541 6542 
1 6541 7915 
2 8365 8366 
2 16208 16209 
2 16207 16208 
1 8199 16207 
2 8198 8199 
1 7761 8365 
2 8035 8036 
2 8197 8198 
1 8197 8772 
2 3464 3465 
1 8037 14104 
2 14104 14105 
2 14105 14106 
2 8036 8037 
2 6983 6984 
1 4392 6982 
2 6982 6983 
2 4391 4392 
3 287 288 
2 19039 19040 
1 288 19039 
3 2779 2780 
3 15065 15066 
3 2780 2781 
3 6098 6099 
3 6097 6098 
3 15064 15065 
2 16163 16164 
3 12724 12725 
1 12724 16164 
1 3801 15064 
3 12725 12726 
2 8366 8367 
1 8367 10650 
3 10648 10649 
3 10649 10650 
3 19403 19404 
1 12072 19404 
2 12071 12072 
2 1240 1241 
2 16162 16163 
3 2741 2742 
3 2740 2741 
1 2740 6738 
3 6737 6738 
1 2742 10261 
3 10261 10262 
1 5559 14413 
3 14413 14414 
3 14414 14415 
3 5558 5559 
2 16967 16968 
1 14328 16966 
2 16966 16967 
1 15096 16968 
1 14415 17446 
3 17446 17447 
3 17447 17448 
3 9341 9342 
3 17987 17988 
3 11642 11643 
3 17986 17987 
3 11641 11642 
1 11641 17986 
3 9340 9341 
3 359 360 
3 6061 6062 
1 6061 9340 
3 358 359 
1 358 6063 
1 360 687 
3 1003 1004 
1 1003 13410 
2 19109 19110 
2 15662 15663 
2 12361 12362 
1 12361 15663 
2 19669 19670 
1 12363 20544 
3 908 909 
1 909 19671 
3 907 908 
1 907 12813 
2 19670 19671 
3 4075 4076 
1 4075 12811 
3 4076 4077 
1 4077 17424 
3 12811 12812 
3 12812 12813 
3 18269 18270 
3 12127 12128 
1 12127 18270 
3 12128 12129 
1 20472 21597 
3 21596 21597 
1 7014 19501 
3 19501 19502 
3 7013 7014 
3 20471 20472 
3 20470 20471 
1 20470 21376 
3 21376 21377 
3 7012 7013 
3 4793 4794 
1 4794 8799 
3 8798 8799 
3 2810 2811 
3 2809 2810 
1 2809 8619 
3 16129 16130 
3 16130 16131 
3 13333 13334 
1 13333 16129 
3 13334 13335 
1 13335 20493 
1 13077 17269 
3 17269 17270 
3 17270 17271 
1 6003 17271 
3 6002 6003 
3 3061 3062 
1 3061 5436 
3 3062 3063 
3 6001 6002 
1 6001 12012 
2 9463 9464 
1 9463 12010 
3 12010 12011 
3 12011 12012 
3 8188 8189 
1 8188 16401 
3 8189 8190 
1 4164 9213 
2 13409 13410 
2 13408 13409 
2 241 242 
1 241 13408 
2 242 243 
2 9212 9213 
2 12362 12363 
2 13885 13886 
1 243 13885 
2 11530 11531 
1 11530 15979 
2 15979 15980 
2 15980 15981 
2 11531 11532 
1 11532 19669 
2 12916 12917 
1 12916 15981 
3 20032 20033 
3 11221 11222 
1 11221 20032 
3 11222 11223 
3 20033 20034 
3 589 590 
1 589 2958 
3 2957 2958 
3 590 591 
3 6008 6009 
3 12161 12162 
3 19502 19503 
1 591 19503 
3 21553 21554 
1 14025 21553 
3 11788 11789 
3 11789 11790 
3 14024 14025 
1 11790 14748 
3 8618 8619 
3 8617 8618 
1 8617 14746 
3 14746 14747 
1 2811 12339 
3 14747 14748 
3 15772 15773 
3 13076 13077 
3 14311 14312 
1 14311 15774 
3 15773 15774 
3 4351 4352 
1 4351 13075 
3 13075 13076 
3 14312 14313 
1 1653 8053 
3 8053 8054 
3 20492 20493 
3 5435 5436 
3 1652 1653 
3 11938 11939 
3 1651 1652 
1 1651 11938 
3 3388 3389 
1 3388 20950 
3 20950 20951 
3 3389 3390 
2 11468 11469 
2 16880 16881 
2 11467 11468 
1 11467 16881 
2 6671 6672 
2 6670 6671 
1 6670 14419 
2 14419 14420 
2 14420 14421 
2 4390 4391 
1 4390 6672 
3 1963 1964 
1 1963 11223 
3 2132 2133 
3 1964 1965 
3 2956 2957 
1 2956 20787 
3 2131 2132 
1 2131 20785 
3 20785 20786 
3 20786 20787 
3 9190 9191 
1 9190 17619 
3 17617 17618 
3 17618 17619 
3 16502 16503 
1 16503 17617 
3 21554 21555 
3 4621 4622 
1 4621 21555 
3 4622 4623 
1 4740 5548 
3 4513 4514 
1 4513 4623 
3 11347 11348 
1 11347 18030 
3 4505 4506 
3 4504 4505 
1 4504 18028 
3 18028 18029 
3 18029 18030 
3 4514 4515 
1 4506 17326 
3 17326 17327 
3 8054 8055 
1 8055 19719 
3 19718 19719 
1 12711 19717 
3 19717 19718 
3 20951 20952 
2 7915 7916 
2 7916 7917 
2 7760 7761 
2 8752 8753 
2 7759 7760 
1 7759 8752 
2 2863 2864 
1 2863 15624 
2 2864 2865 
1 2865 8035 
1 2133 12325 
3 12325 12326 
3 12326 12327 
2 19040 19041 
3 9191 9192 
1 12327 19041 
3 5548 5549 
3 5549 5550 
1 5550 6759 
3 6758 6759 
1 4515 12726 
3 15623 15624 
1 552 12070 
2 551 552 
2 550 551 
2 12070 12071 
2 181 182 
2 182 183 
1 183 2532 
3 3542 3543 
3 3541 3542 
1 3541 19063 
3 19063 19064 
3 10262 10263 
1 10263 10470 
3 14525 14526 
3 5557 5558 
1 5557 14524 
3 14524 14525 
3 10469 10470 
3 11980 11981 
3 10468 10469 
1 10468 11980 
3 11981 11982 
1 10731 14526 
1 11982 18114 
3 18113 18114 
3 3544 3545 
1 3544 18112 
3 18112 18113 
1 15819 19021 
3 19021 19022 
3 19022 19023 
1 8121 19023 
3 8120 8121 
3 8119 8120 
1 8119 13593 
3 13592 13593 
3 13591 13592 
2 19108 19109 
3 19064 19065 
1 6951 19065 
1 16131 18507 
3 18506 18507 
3 16586 16587 
3 16585 16586 
1 16585 19134 
3 19133 19134 
3 19132 19133 
1 11643 19132 
2 16400 16401 
2 16399 16400 
1 1005 19110 
3 1004 1005 
2 10375 10376 
2 2074 2075 
1 2074 10375 
2 2075 2076 
2 10376 10377 
2 20543 20544 
2 7000 7001 
3 4736 4737 
3 17423 17424 
3 17422 17423 
1 10362 17422 
3 12313 12314 
3 10361 10362 
3 10360 10361 
1 10360 12313 
3 3812 3813 
3 3811 3812 
1 3811 14545 
1 10938 17343 
3 10937 10938 
3 17342 17343 
3 17341 17342 
3 18268 18269 
3 12889 12890 
1 12889 18268 
3 10936 10937 
3 3254 3255 
3 3253 3254 
1 3253 21301 
3 21301 21302 
3 21302 21303 
1 6090 21303 
3 20680 20681 
3 4633 4634 
1 4633 20680 
1 4635 21378 
3 20681 20682 
3 18616 18617 
1 18616 20682 
3 4634 4635 
3 21377 21378 
3 8797 8798 
1 2832 8797 
3 2831 2832 
3 2830 2831 
1 2830 9444 
3 2015 2016 
1 3063 10921 
3 10921 10922 
3 10922 10923 
2 15884 15885 
3 1960 1961 
1 1960 15885 
2 15883 15884 
1 2076 7048 
2 7048 7049 
2 10789 10790 
2 7049 7050 
1 7050 12918 
2 19580 19581 
2 20542 20543 
1 12714 20542 
2 12917 12918 
2 12712 12713 
1 12712 13891 
2 13891 13892 
2 13892 13893 
2 12713 12714 
2 8042 8043 
2 8041 8042 
1 8041 17859 
3 4735 4736 
1 4735 8043 
1 3813 4444 
3 4444 4445 
1 4446 20034 
3 4445 4446 
3 2222 2223 
3 13417 13418 
3 12160 12161 
1 12160 13417 
3 6007 6008 
1 6007 17341 
3 3418 3419 
1 3418 12162 
3 12890 12891 
3 6089 6090 
3 6088 6089 
1 6088 13929 
1 12891 14023 
3 14023 14024 
3 18617 18618 
3 13928 13929 
3 9443 9444 
3 9442 9443 
1 9442 21249 
3 13927 13928 
1 6480 13927 
3 6479 6480 
3 6478 6479 
1 6478 15772 
3 21248 21249 
3 2404 2405 
3 2014 2015 
1 2014 2404 
3 20491 20492 
1 2406 20491 
3 1360 1361 
3 1361 1362 
3 2405 2406 
3 21509 21510 
3 21415 21416 
1 21415 21510 
3 11939 11940 
1 1962 11940 
3 5434 5435 
1 4041 5434 
3 4039 4040 
1 4039 21508 
3 21508 21509 
3 4040 4041 
3 1961 1962 
2 10951 10952 
1 10791 10951 
2 10790 10791 
2 9245 9246 
2 9244 9245 
1 2952 9244 
3 2951 2952 
2 4882 4883 
1 4882 11469 
2 4883 4884 
1 4884 9246 
2 20723 20724 
2 12586 12587 
1 12586 20722 
2 20722 20723 
1 20724 20931 
2 17858 17859 
2 17857 17858 
1 14421 17857 
3 20930 20931 
3 20929 20930 
3 13418 13419 
1 13419 20929 
3 11359 11360 
1 11359 14715 
3 11360 11361 
3 9347 9348 
3 3419 3420 
3 9346 9347 
1 9346 11361 
1 3420 11814 
3 11813 11814 
3 11812 11813 
1 11349 11812 
3 11348 11349 
3 12496 12497 
3 12497 12498 
1 9534 12496 
3 9533 9534 
3 14626 14627 
3 9532 9533 
1 9532 14628 
3 12709 12710 
3 2710 2711 
1 2710 14626 
3 2711 2712 
3 12710 12711 
3 14627 14628 
1 1362 2712 
3 21416 21417 
2 2923 2924 
1 2923 21417 
2 2924 2925 
2 12587 12588 
1 9192 9348 
3 4142 4143 
1 4143 7737 
3 4141 4142 
1 4141 6757 
3 6757 6758 
3 15622 15623 
2 2531 2532 
3 10729 10730 
1 10729 18406 
3 18406 18407 
3 18407 18408 
1 16323 18408 
3 16322 16323 
3 16321 16322 
1 16321 19036 
2 2530 2531 
1 2530 21423 
3 10730 10731 
3 15818 15819 
3 3545 3546 
3 15817 15818 
1 16587 20761 
3 20761 20762 
3 19036 19037 
3 19037 19038 
1 19038 20763 
3 20762 20763 
2 2521 2522 
1 2521 13591 
2 2522 2523 
2 7001 7002 
1 1311 7002 
3 1310 1311 
3 1309 1310 
3 796 797 
1 796 1309 
3 797 798 
3 6949 6950 
1 6949 12129 
3 6950 6951 
3 18505 18506 
1 3546 18505 
1 10923 14826 
1 2523 14824 
3 14824 14825 
3 14825 14826 
2 17089 17090 
2 7711 7712 
1 7711 17547 
1 10377 17091 
2 17090 17091 
2 7712 7713 
2 16396 16397 
1 7713 16396 
2 16397 16398 
2 6715 6716 
1 6715 17089 
3 16316 16317 
3 16315 16316 
3 31 32 
1 31 4737 
3 32 33 
1 33 16315 
3 15166 15167 
1 15166 20598 
3 13699 13700 
1 13699 13831 
3 13831 13832 
3 20108 20109 
3 20597 20598 
3 15167 15168 
3 3334 3335 
1 3334 20109 
3 12314 12315 
3 3335 3336 
1 3336 12315 
3 14545 14546 
3 14546 14547 
3 3586 3587 
1 3586 14547 
3 3587 3588 
1 3588 18469 
3 18469 18470 
1 3255 4686 
3 4685 4686 
3 4684 4685 
1 4684 15328 
3 15328 15329 
3 2245 2246 
1 2016 2245 
3 2246 2247 
1 2247 16135 
3 16135 16136 
3 7457 7458 
3 7456 7457 
1 7456 17502 
3 17501 17502 
3 17500 17501 
1 15942 17500 
2 17545 17546 
1 17545 19581 
2 17546 17547 
2 937 938 
2 938 939 
1 939 13833 
3 13832 13833 
3 698 699 
1 699 20107 
3 20107 20108 
3 697 698 
1 697 19260 
3 3326 3327 
3 2221 2222 
1 2221 3327 
3 3325 3326 
3 2944 2945 
1 2944 3325 
3 12617 12618 
3 12616 12617 
1 1137 12616 
3 2945 2946 
1 2946 3144 
3 3143 3144 
3 3142 3143 
1 3142 6565 
3 15751 15752 
1 15751 18618 
3 15752 15753 
1 6285 15753 
3 6566 6567 
3 6565 6566 
3 16292 16293 
3 16291 16292 
3 21247 21248 
3 2998 2999 
1 2998 21247 
2 15940 15941 
2 15941 15942 
3 2950 2951 
3 19258 19259 
3 14713 14714 
1 14713 19258 
3 14714 14715 
3 19259 19260 
3 11630 11631 
1 11631 16497 
3 16496 16497 
3 11629 11630 
1 11629 12618 
3 21061 21062 
3 11713 11714 
1 11713 21061 
3 11714 11715 
3 16495 16496 
1 16495 21063 
3 21062 21063 
1 11715 12498 
3 3533 3534 
1 3534 5368 
3 5368 5369 
3 3532 3533 
1 3532 7735 
3 2999 3000 
1 3000 15081 
3 7735 7736 
3 7736 7737 
1 798 20596 
3 20596 20597 
3 15329 15330 
1 15330 18699 
3 18697 18698 
1 3444 18697 
3 3443 3444 
3 13700 13701 
2 187 188 
1 187 15168 
2 188 189 
2 15788 15789 
2 15787 15788 
3 1135 1136 
1 1135 15787 
1 3939 18471 
3 3938 3939 
3 18470 18471 
3 3937 3938 
1 3937 8773 
3 8773 8774 
1 6222 8775 
3 8774 8775 
3 6221 6222 
3 6220 6221 
1 6220 14620 
3 14620 14621 
3 14621 14622 
3 20414 20415 
3 16136 16137 
1 16137 20413 
3 20413 20414 
1 14622 19356 
3 19355 19356 
3 1136 1137 
3 6283 6284 
1 6283 20415 
3 6284 6285 
3 15079 15080 
3 13768 13769 
1 13768 15079 
3 13769 13770 
3 18487 18488 
1 13770 18487 
1 5370 6567 
3 5369 5370 
3 15080 15081 
3 14902 14903 
1 14902 16398 
3 14903 14904 
3 18698 18699 
3 3442 3443 
1 3442 19354 
3 19354 19355 
3 18488 18489 
2 15487 15488 
1 1461 15487 
2 15488 15489 
2 20999 21000 
2 12761 12762 
1 12762 20998 
2 20998 20999 
2 12760 12761 
2 6865 6866 
1 6865 12760 
2 6866 6867 
2 3620 3621 
1 3621 8805 
2 11303 11304 
2 11302 11303 
2 1460 1461 
2 5461 5462 
1 5461 11112 
2 5462 5463 
1 5463 11233 
2 11233 11234 
2 11234 11235 
2 5845 5846 
1 5845 11235 
2 1459 1460 
1 1459 4110 
2 4109 4110 
2 4108 4109 
1 4108 10135 
2 10135 10136 
2 10136 10137 
2 5846 5847 
2 18629 18630 
3 4613 4614 
3 4612 4613 
1 4612 12351 
2 17399 17400 
2 17398 17399 
1 11088 15346 
1 5847 6877 
2 11087 11088 
2 11086 11087 
1 11086 16746 
2 6877 6878 
2 6878 6879 
2 16745 16746 
2 3295 3296 
1 3295 6879 
2 16744 16745 
2 15346 15347 
1 12468 15348 
2 12466 12467 
2 12467 12468 
2 15347 15348 
1 4938 14673 
2 3628 3629 
1 3628 12466 
2 13567 13568 
2 13568 13569 
2 8494 8495 
1 3630 8494 
1 8496 15553 
2 8495 8496 
2 14671 14672 
2 14672 14673 
2 8167 8168 
2 3629 3630 
2 1108 1109 
1 1108 18457 
2 14011 14012 
2 14012 14013 
2 1109 1110 
2 9287 9288 
1 9054 9288 
2 9053 9054 
2 9286 9287 
1 1110 9286 
2 4288 4289 
1 1755 5869 
2 9052 9053 
1 5871 9052 
2 5870 5871 
2 5869 5870 
2 4289 4290 
1 8574 10137 
2 12350 12351 
2 11506 11507 
2 2447 2448 
1 2448 3861 
2 3860 3861 
2 3859 3860 
1 3859 15555 
2 12349 12350 
1 12349 19650 
2 19648 19649 
2 19649 19650 
2 11 12 
2 15554 15555 
2 15553 15554 
2 5119 5120 
2 13714 13715 
2 9920 9921 
1 9921 15516 
2 9919 9920 
1 9919 13714 
2 13715 13716 
3 8771 8772 
2 19676 19677 
2 5776 5777 
2 5777 5778 
1 5778 19675 
2 19675 19676 
2 259 260 
1 259 5776 
2 1349 1350 
2 1348 1349 
1 1348 6108 
2 11507 11508 
3 12863 12864 
2 2446 2447 
1 2446 19677 
1 2889 14709 
1 1176 11508 
2 14708 14709 
1 1350 14707 
2 14707 14708 
2 2888 2889 
2 2887 2888 
1 2887 12864 
2 10 11 
1 10 1690 
2 1690 1691 
2 1691 1692 
2 1175 1176 
2 1174 1175 
1 1174 17664 
1 45 9273 
2 43 44 
1 43 1692 
2 44 45 
3 15514 15515 
3 15515 15516 
3 1069 1070 
3 1070 1071 
2 6107 6108 
2 6106 6107 
1 2637 6106 
2 2636 2637 
2 2635 2636 
1 2635 13665 
3 12862 12863 
2 9211 9212 
1 9211 9271 
2 9271 9272 
2 9272 9273 
2 8006 8007 
2 8753 8754 
2 8005 8006 
1 1071 8005 
1 8007 8754 
3 6299 6300 
3 6298 6299 
1 8508 19579 
2 8507 8508 
2 11156 11157 
2 11155 11156 
2 8506 8507 
1 8506 11155 
2 13664 13665 
2 19579 19580 
1 6300 10411 
2 10411 10412 
2 601 602 
1 601 19399 
2 602 603 
2 19399 19400 
2 19400 19401 
1 603 13663 
2 13663 13664 
2 10412 10413 
2 5276 5277 
2 5275 5276 
1 5275 10413 
2 10952 10953 
1 6717 20196 
2 6716 6717 
2 20195 20196 
2 20194 20195 
1 19401 20194 
2 2282 2283 
2 2281 2282 
1 2281 9421 
2 566 567 
2 565 566 
1 565 12876 
2 16331 16332 
2 12875 12876 
2 11669 11670 
2 17669 17670 
2 11110 11111 
1 11110 21397 
2 21397 21398 
2 21398 21399 
2 11111 11112 
2 9421 9422 
2 11668 11669 
2 9422 9423 
1 4818 11668 
2 4817 4818 
2 4816 4817 
1 4816 21399 
1 9423 18630 
2 12874 12875 
1 471 12874 
2 470 471 
2 469 470 
1 469 16330 
2 16330 16331 
2 13511 13512 
2 5363 5364 
1 13512 17442 
2 13510 13511 
2 5362 5363 
1 5362 8272 
2 8272 8273 
1 8274 11670 
2 8273 8274 
2 17441 17442 
2 18457 18458 
2 12151 12152 
1 12151 16332 
1 12153 18459 
2 12152 12153 
2 18458 18459 
2 3656 3657 
1 14940 20484 
1 2100 13510 
2 2099 2100 
2 2098 2099 
1 2098 4638 
2 3655 3656 
1 3655 13861 
2 13861 13862 
1 13863 14938 
2 14939 14940 
2 14938 14939 
2 21155 21156 
2 4636 4637 
1 4636 15915 
2 4637 4638 
2 13862 13863 
1 5364 17214 
2 17213 17214 
2 8879 8880 
2 17212 17213 
1 8880 17212 
2 17440 17441 
1 17440 18409 
2 18409 18410 
2 18410 18411 
2 7198 7199 
1 7198 18411 
2 2789 2790 
2 2788 2789 
1 2788 8298 
2 8297 8298 
1 2790 3657 
2 8296 8297 
2 1157 1158 
2 1156 1157 
2 4120 4121 
1 4120 8296 
2 4121 4122 
2 260 261 
2 21149 21150 
1 7512 21150 
2 7511 7512 
2 7510 7511 
1 7510 21154 
2 21154 21155 
1 261 1156 
2 12115 12116 
1 12115 16252 
2 16252 16253 
2 12116 12117 
2 8878 8879 
1 8878 12117 
2 16253 16254 
2 7403 7404 
1 7404 9685 
2 14899 14900 
2 7402 7403 
1 7402 14899 
2 14900 14901 
2 21422 21423 
2 21421 21422 
1 7200 21421 
2 7199 7200 
2 9685 9686 
2 3832 3833 
1 3832 4122 
1 1158 14901 
2 3833 3834 
3 6448 6449 
1 3834 6448 
2 21148 21149 
2 8488 8489 
1 8488 21148 
2 8489 8490 
1 8490 10306 
2 10306 10307 
2 9686 9687 
1 9687 17482 
2 17482 17483 
2 17483 17484 
2 4159 4160 
1 4159 17484 
2 14122 14123 
3 6449 6450 
1 6450 14122 
2 14123 14124 
2 10307 10308 
2 5044 5045 
1 5044 10308 
2 5045 5046 
1 5046 11157 
2 4160 4161 
3 5657 5658 
3 5656 5657 
1 5656 16050 
2 16049 16050 
1 4161 16048 
2 16048 16049 
