ITEM: TIMESTEP
60000000
ITEM: NUMBER OF ENTRIES
5555
ITEM: BOX BOUNDS pp pp pp
0 50
0 50
0 50
ITEM: ENTRIES c_binfo[1] c_binfo[2] c_binfo[3] 
3 17566 17567 
3 12031 12032 
1 12031 17566 
3 17567 17568 
1 13326 14907 
3 14906 14907 
3 12623 12624 
1 12033 12622 
3 12622 12623 
3 12032 12033 
2 13325 13326 
2 13324 13325 
1 12624 15219 
1 8910 13324 
3 8909 8910 
3 14905 14906 
3 15218 15219 
1 13620 14905 
3 13619 13620 
3 4733 4734 
3 4732 4733 
1 4732 14187 
3 14945 14946 
1 15279 17568 
2 15277 15278 
3 11179 11180 
1 11179 15277 
2 15278 15279 
3 11180 11181 
3 2180 2181 
3 2179 2180 
1 2179 8661 
3 19268 19269 
3 8353 8354 
1 2181 8353 
1 14145 19269 
3 14530 14531 
3 14143 14144 
1 14143 14530 
3 14144 14145 
3 14531 14532 
3 8660 8661 
1 14532 20053 
3 15217 15218 
1 15217 21219 
3 21218 21219 
3 15767 15768 
3 12391 12392 
1 2178 15768 
3 4147 4148 
1 4147 12391 
3 12392 12393 
3 2177 2178 
3 2176 2177 
1 2176 18673 
3 18673 18674 
3 21217 21218 
1 6453 21217 
3 6452 6453 
3 21550 21551 
3 9493 9494 
1 9493 21550 
3 6451 6452 
1 6451 21552 
3 14944 14945 
1 5451 14944 
3 21551 21552 
3 5449 5450 
1 5449 16575 
3 5450 5451 
3 16574 16575 
2 21260 21261 
3 16045 16046 
2 12190 12191 
1 12190 16045 
2 12191 12192 
1 12192 21259 
2 21259 21260 
3 4784 4785 
3 4783 4784 
1 354 19267 
3 19267 19268 
1 11181 18964 
3 18964 18965 
3 4349 4350 
3 18965 18966 
3 6562 6563 
1 6562 18966 
3 6563 6564 
3 14579 14580 
3 5317 5318 
1 5317 8659 
3 8659 8660 
3 5318 5319 
3 11836 11837 
3 11837 11838 
1 5319 15733 
3 15733 15734 
3 4148 4149 
3 15766 15767 
1 8031 11836 
3 8030 8031 
3 8029 8030 
1 7266 8029 
3 7265 7266 
3 7264 7265 
1 7264 11383 
1 2556 17937 
3 2555 2556 
3 9494 9495 
3 4423 4424 
1 4423 9495 
3 2554 2555 
1 1044 2554 
3 4424 4425 
3 206 207 
3 1043 1044 
1 4149 17889 
3 17888 17889 
3 16573 16574 
3 205 206 
1 205 16573 
3 16046 16047 
3 4519 4520 
1 4519 16047 
1 4521 11299 
3 11299 11300 
3 11300 11301 
3 4520 4521 
3 10081 10082 
3 8612 8613 
3 8611 8612 
1 8611 12030 
3 15734 15735 
3 19048 19049 
3 1850 1851 
3 14194 14195 
1 14194 19048 
3 14195 14196 
3 10556 10557 
3 16192 16193 
3 10555 10556 
1 10555 16192 
3 16193 16194 
1 14196 14503 
3 14503 14504 
1 2409 6310 
3 6310 6311 
3 2408 2409 
1 4101 8673 
3 1042 1043 
1 1042 11758 
3 11758 11759 
3 4100 4101 
3 8672 8673 
3 11759 11760 
3 6311 6312 
3 8671 8672 
3 7597 7598 
1 7597 8671 
3 7598 7599 
1 7599 15549 
3 7118 7119 
3 15548 15549 
1 7119 15646 
3 15646 15647 
3 4799 4800 
3 4798 4799 
1 1629 4798 
3 7117 7118 
3 15647 15648 
1 7449 8634 
3 15547 15548 
1 15547 19537 
3 19537 19538 
3 19538 19539 
3 18502 18503 
1 18502 19539 
3 7448 7449 
3 7447 7448 
1 7447 9378 
3 18503 18504 
3 8633 8634 
3 9376 9377 
1 9376 14997 
3 9377 9378 
1 7824 18504 
3 7823 7824 
3 12269 12270 
3 12268 12269 
3 1849 1850 
1 1849 10051 
3 10051 10052 
3 10052 10053 
1 5061 10053 
3 5060 5061 
3 10954 10955 
1 10954 12268 
1 10956 13041 
3 13040 13041 
3 538 539 
3 539 540 
3 10955 10956 
3 5059 5060 
1 5059 9525 
3 13039 13040 
3 9524 9525 
3 9523 9524 
3 14504 14505 
1 7305 13039 
3 215 216 
1 6312 19192 
3 19192 19193 
3 19193 19194 
1 216 19408 
3 19408 19409 
3 8323 8324 
1 8323 13161 
3 8324 8325 
1 4800 19194 
3 18878 18879 
3 18877 18878 
1 9303 18879 
3 3689 3690 
1 3690 4552 
3 3688 3689 
1 3688 7117 
3 9302 9303 
3 4552 4553 
3 4553 4554 
3 15943 15944 
1 7470 15943 
3 7468 7469 
1 7468 10035 
3 7469 7470 
3 7822 7823 
1 7822 10693 
3 10693 10694 
3 10694 10695 
3 8428 8429 
1 5976 8428 
3 5975 5976 
3 8429 8430 
1 8430 10785 
1 10695 10887 
3 10886 10887 
3 10885 10886 
2 5728 5729 
1 5728 10885 
3 20600 20601 
3 20599 20600 
3 5014 5015 
1 5014 20599 
3 5015 5016 
1 11409 20455 
3 11408 11409 
3 2755 2756 
1 2755 8206 
3 8206 8207 
3 13159 13160 
1 8208 13159 
3 8207 8208 
3 7304 7305 
3 5284 5285 
1 5284 6561 
3 19409 19410 
3 11608 11609 
1 11608 14716 
3 14716 14717 
3 13160 13161 
3 17552 17553 
1 12492 17553 
3 17551 17552 
3 14717 14718 
1 8325 19294 
3 20432 20433 
3 12491 12492 
3 12490 12491 
1 12490 20431 
3 20431 20432 
1 19125 20433 
3 21095 21096 
3 21094 21095 
3 12656 12657 
1 4554 21096 
3 15944 15945 
3 3452 3453 
3 3451 3452 
1 3451 8290 
3 8290 8291 
3 19562 19563 
1 15945 19764 
1 3453 4804 
3 15124 15125 
3 5437 5438 
1 5437 15124 
3 4804 4805 
3 4805 4806 
1 4806 4879 
3 4879 4880 
3 4880 4881 
1 4881 10396 
2 5729 5730 
1 5730 12426 
3 5438 5439 
3 3139 3140 
1 3139 5439 
3 3140 3141 
3 5932 5933 
1 5932 11706 
3 14045 14046 
3 14044 14045 
1 14044 16807 
1 14046 15969 
3 15968 15969 
3 11705 11706 
3 16807 16808 
1 5979 11704 
3 11704 11705 
3 5978 5979 
3 5285 5286 
3 2756 2757 
1 2757 3519 
3 21208 21209 
3 21209 21210 
1 5286 21208 
3 3518 3519 
3 3517 3518 
1 3517 19804 
3 19804 19805 
3 19805 19806 
3 1633 1634 
1 1633 21210 
3 12476 12477 
1 1146 12477 
3 2036 2037 
3 12475 12476 
1 12475 21283 
3 17194 17195 
3 21283 21284 
3 2035 2036 
1 2035 9127 
3 9127 9128 
3 17195 17196 
1 3132 17196 
3 4172 4173 
3 12655 12656 
2 1987 1988 
1 1987 4173 
3 3130 3131 
1 3130 7618 
3 3131 3132 
3 7618 7619 
3 7619 7620 
3 6409 6410 
1 6409 12655 
3 6410 6411 
1 8292 15339 
3 8291 8292 
3 15338 15339 
1 5547 14712 
3 6140 6141 
1 6141 6411 
3 493 494 
1 493 8412 
3 8411 8412 
3 5546 5547 
3 5545 5546 
1 5545 11931 
3 8410 8411 
3 18602 18603 
1 3141 14445 
3 14444 14445 
1 4155 14443 
3 14443 14444 
1 8862 13860 
2 13859 13860 
2 13858 13859 
1 13858 18127 
3 18127 18128 
3 18128 18129 
2 12443 12444 
2 7745 7746 
2 7744 7745 
1 7744 9634 
3 9634 9635 
3 9635 9636 
1 7950 9636 
2 12442 12443 
3 6709 6710 
3 3382 3383 
1 3382 8908 
3 8908 8909 
3 6710 6711 
1 3384 15162 
3 1483 1484 
1 1483 6711 
3 1484 1485 
1 1485 8038 
3 3383 3384 
3 15161 15162 
3 18674 18675 
3 17899 17900 
1 17899 18675 
3 17900 17901 
1 17901 18019 
3 18019 18020 
3 18020 18021 
3 7948 7949 
3 7949 7950 
3 18005 18006 
3 17887 17888 
3 12994 12995 
1 12994 17887 
3 12995 12996 
3 18004 18005 
1 12996 18004 
3 6517 6518 
1 6517 18006 
3 6518 6519 
3 4348 4349 
3 352 353 
3 353 354 
3 304 305 
1 304 4348 
3 305 306 
3 8038 8039 
3 8039 8040 
1 306 12958 
3 12958 12959 
3 12959 12960 
1 12960 15129 
3 17936 17937 
3 17935 17936 
1 8040 17935 
3 15127 15128 
1 15127 18021 
3 5185 5186 
3 11261 11262 
3 11260 11261 
1 5187 11260 
1 207 11262 
3 5186 5187 
3 9371 9372 
2 12029 12030 
3 7420 7421 
1 7420 12028 
2 12028 12029 
3 7421 7422 
1 1578 11838 
3 1577 1578 
3 1576 1577 
1 1576 7422 
3 15461 15462 
1 6645 15460 
3 15460 15461 
3 6643 6644 
1 6643 12333 
3 6644 6645 
3 12332 12333 
3 12331 12332 
3 4099 4100 
1 4099 12331 
1 10095 15648 
3 8632 8633 
1 8632 9372 
3 10687 10688 
1 10687 10930 
3 10688 10689 
3 9370 9371 
1 9370 10689 
2 12059 12060 
3 21113 21114 
3 21112 21113 
3 21556 21557 
3 21557 21558 
3 6610 6611 
1 10608 14505 
3 10607 10608 
3 10606 10607 
1 4854 10606 
3 6611 6612 
1 6612 10093 
3 10094 10095 
3 10093 10094 
3 10751 10752 
3 11806 11807 
3 10750 10751 
1 10750 11806 
3 5822 5823 
3 5821 5822 
1 5821 10752 
3 9301 9302 
1 9301 10033 
3 10033 10034 
1 5823 14602 
3 14602 14603 
2 12058 12059 
1 12058 14604 
3 14603 14604 
3 2882 2883 
3 2881 2882 
1 2881 19942 
2 19942 19943 
3 10034 10035 
2 19943 19944 
1 5346 19944 
2 5345 5346 
1 2883 5974 
3 5974 5975 
3 8521 8522 
1 8521 20601 
3 16019 16020 
3 16018 16019 
1 8523 16018 
3 8522 8523 
2 1942 1943 
1 1942 2077 
2 1943 1944 
3 20456 20457 
3 20455 20456 
1 540 13783 
3 13783 13784 
3 13784 13785 
1 13785 16039 
3 16039 16040 
3 16040 16041 
3 10352 10353 
3 11407 11408 
3 10351 10352 
1 10351 11407 
3 11807 11808 
1 10353 11808 
1 3600 13632 
1 13803 17551 
3 13802 13803 
3 19294 19295 
3 9886 9887 
3 13631 13632 
3 13630 13631 
3 9887 9888 
1 9888 13630 
1 2526 21094 
3 19295 19296 
3 2263 2264 
1 2263 19296 
3 2264 2265 
1 2265 20121 
3 2525 2526 
3 2524 2525 
3 562 563 
1 562 2524 
3 20120 20121 
3 20119 20120 
3 17929 17930 
1 17929 20119 
3 19300 19301 
3 19301 19302 
1 4152 19300 
3 15125 15126 
3 9380 9381 
3 9379 9380 
1 9379 13923 
3 13922 13923 
3 5825 5826 
3 13921 13922 
1 13921 13993 
3 13993 13994 
3 12425 12426 
3 5824 5825 
1 5824 17136 
3 17135 17136 
3 12424 12425 
2 8170 8171 
2 8171 8172 
1 1944 8170 
1 8172 16809 
3 16808 16809 
1 5310 16041 
3 5309 5310 
1 9222 20457 
3 9221 9222 
3 9220 9221 
3 3598 3599 
1 3598 9220 
2 17905 17906 
1 3831 15418 
3 15418 15419 
3 15419 15420 
3 3830 3831 
1 15420 17905 
3 13801 13802 
3 3829 3830 
1 3829 13801 
3 5680 5681 
1 5680 9886 
3 5681 5682 
3 21284 21285 
1 5682 21285 
3 563 564 
1 564 676 
2 676 677 
3 4171 4172 
1 4171 17931 
2 677 678 
3 17930 17931 
2 11623 11624 
1 678 11623 
3 4091 4092 
3 4090 4091 
1 4092 19302 
3 11930 11931 
3 12701 12702 
3 11929 11930 
1 11929 12700 
3 12700 12701 
3 1085 1086 
3 494 495 
1 495 17134 
3 17134 17135 
3 8860 8861 
3 8861 8862 
2 18106 18107 
1 9552 18108 
2 18107 18108 
3 9550 9551 
1 9550 15160 
3 15160 15161 
3 9551 9552 
3 15128 15129 
2 4853 4854 
1 4878 10932 
2 10930 10931 
2 10931 10932 
2 4852 4853 
1 4852 17587 
3 17587 17588 
2 4877 4878 
2 4876 4877 
1 4876 17589 
3 17588 17589 
1 2079 16020 
2 2078 2079 
2 2077 2078 
3 3599 3600 
2 5344 5345 
3 4150 4151 
1 4150 5344 
3 4151 4152 
3 13994 13995 
2 11590 11591 
2 11591 11592 
3 5308 5309 
1 5308 11592 
3 3733 3734 
3 2666 2667 
1 2667 3733 
3 20341 20342 
3 2665 2666 
1 2665 20341 
3 20342 20343 
2 16777 16778 
1 16777 20343 
2 16778 16779 
2 17273 17274 
1 7770 17274 
2 7769 7770 
3 10259 10260 
3 10258 10259 
3 20537 20538 
3 20536 20537 
2 17272 17273 
1 17272 20536 
3 19094 19095 
3 19093 19094 
2 6887 6888 
2 6886 6887 
2 8404 8405 
3 3538 3539 
1 3538 8404 
3 3539 3540 
2 8405 8406 
1 8406 19089 
3 19087 19088 
2 5617 5618 
1 5617 19087 
2 5618 5619 
3 19088 19089 
3 2335 2336 
1 2337 14512 
3 2336 2337 
2 14512 14513 
2 14513 14514 
1 11913 19093 
2 11912 11913 
2 11911 11912 
2 13175 13176 
2 5639 5640 
1 3807 5640 
3 3805 3806 
3 3806 3807 
2 236 237 
2 235 236 
1 235 5023 
3 5023 5024 
1 621 5152 
3 620 621 
2 5152 5153 
3 619 620 
1 619 20586 
3 11116 11117 
1 6210 11118 
3 11117 11118 
3 6209 6210 
3 6208 6209 
1 6208 15948 
3 20585 20586 
3 20584 20585 
1 3021 20584 
3 3020 3021 
3 3019 3020 
1 3019 4795 
3 17975 17976 
3 17974 17975 
3 4795 4796 
3 4796 4797 
2 15946 15947 
2 15947 15948 
1 8745 15946 
2 8743 8744 
1 8743 20958 
2 8744 8745 
1 2772 4797 
2 15838 15839 
1 15838 20404 
2 15839 15840 
1 4395 15840 
2 20404 20405 
2 20405 20406 
3 13000 13001 
3 1319 1320 
3 13844 13845 
2 5993 5994 
2 5992 5993 
1 5992 13843 
3 13843 13844 
3 4394 4395 
3 4393 4394 
3 16036 16037 
3 16037 16038 
3 18583 18584 
1 16038 18583 
3 18584 18585 
1 13845 16036 
2 7768 7769 
1 7768 9487 
3 9487 9488 
1 10914 18585 
3 10913 10914 
3 12541 12542 
1 12541 17811 
3 17809 17810 
3 17810 17811 
1 1296 17809 
3 1295 1296 
1 12543 13002 
3 13001 13002 
3 12542 12543 
3 20498 20499 
3 1318 1319 
1 1318 14253 
2 16034 16035 
2 8714 8715 
2 8713 8714 
1 459 8713 
2 458 459 
2 12290 12291 
2 12289 12290 
3 5129 5130 
3 5128 5129 
1 5128 12289 
3 8432 8433 
3 8431 8432 
1 8431 20538 
1 8433 13816 
3 13816 13817 
3 9488 9489 
3 863 864 
3 862 863 
1 862 9489 
3 19637 19638 
3 8963 8964 
1 8964 20499 
3 1555 1556 
1 1555 19638 
2 3281 3282 
2 3280 3281 
3 1556 1557 
1 1557 3280 
3 8962 8963 
1 1305 8962 
3 4232 4233 
3 4231 4232 
1 4231 20497 
3 20497 20498 
3 9460 9461 
1 9460 16056 
3 575 576 
3 9461 9462 
1 576 9462 
2 16100 16101 
2 16099 16100 
2 8578 8579 
1 8578 16099 
2 8579 8580 
1 7020 16101 
2 7019 7020 
2 7018 7019 
1 7018 21391 
2 21391 21392 
2 21392 21393 
2 16033 16034 
2 457 458 
1 6687 21187 
2 21187 21188 
2 6686 6687 
2 6685 6686 
1 6685 8044 
2 7145 7146 
1 2433 7144 
2 7144 7145 
3 2432 2433 
3 2431 2432 
1 672 6886 
3 671 672 
3 670 671 
1 670 12447 
3 12446 12447 
3 12445 12446 
3 17863 17864 
3 13817 13818 
3 17864 17865 
3 14477 14478 
1 13818 14476 
3 14476 14477 
1 4524 14478 
3 16054 16055 
3 20279 20280 
3 10906 10907 
1 10906 20280 
3 10907 10908 
3 20278 20279 
3 16055 16056 
1 5580 9850 
2 5579 5580 
2 5578 5579 
1 5578 19983 
2 9605 9606 
2 19982 19983 
1 9606 11208 
1 5205 9604 
2 9604 9605 
2 5204 5205 
2 5203 5204 
1 5203 7416 
2 7415 7416 
2 7414 7415 
1 7414 8400 
2 21188 21189 
2 10624 10625 
1 10624 21189 
2 10625 10626 
2 20062 20063 
2 13174 13175 
2 11509 11510 
1 11509 13174 
1 10626 20062 
2 8399 8400 
2 11510 11511 
2 5638 5639 
2 8044 8045 
2 8045 8046 
1 8046 18120 
2 18119 18120 
2 18118 18119 
1 18118 20964 
2 4865 4866 
1 510 12445 
3 3377 3378 
1 3378 10000 
3 10000 10001 
3 3376 3377 
1 3376 18222 
3 18221 18222 
3 1172 1173 
3 18220 18221 
1 1173 18220 
3 1171 1172 
3 5024 5025 
1 5025 7779 
3 7778 7779 
3 7777 7778 
1 7777 9114 
3 9688 9689 
1 9688 10908 
3 9689 9690 
1 9690 10138 
2 10138 10139 
2 10139 10140 
1 10140 21361 
2 11434 11435 
1 11434 21363 
2 21361 21362 
2 21362 21363 
2 15452 15453 
2 19981 19982 
2 15451 15452 
1 15451 19981 
2 11435 11436 
1 11436 15201 
2 15200 15201 
2 15199 15200 
2 19880 19881 
2 19879 19880 
2 5153 5154 
1 8334 11511 
1 4518 19881 
2 8398 8399 
1 1038 8398 
2 1037 1038 
2 1036 1037 
1 1036 11755 
2 11755 11756 
2 11756 11757 
1 1383 5638 
2 1382 1383 
2 8333 8334 
2 8332 8333 
2 106 107 
1 106 8332 
2 107 108 
1 108 13122 
2 1381 1382 
3 13085 13086 
2 4462 4463 
1 4462 13086 
2 4463 4464 
3 13084 13085 
1 4464 9664 
3 3578 3579 
3 3577 3578 
1 3577 18201 
1 3579 10002 
3 10001 10002 
3 18256 18257 
1 18256 18733 
3 18733 18734 
3 18257 18258 
3 18734 18735 
1 17763 18735 
3 5903 5904 
3 5902 5903 
1 5902 18432 
3 18430 18431 
3 18431 18432 
2 17920 17921 
2 17921 17922 
3 12224 12225 
2 52 53 
1 52 12223 
3 12223 12224 
1 17922 18745 
2 18745 18746 
2 11666 11667 
2 18746 18747 
1 11667 18747 
2 18478 18479 
2 18479 18480 
2 11665 11666 
1 11665 16329 
2 16327 16328 
2 12061 12062 
1 12061 16327 
2 16328 16329 
2 12062 12063 
2 4517 4518 
2 4516 4517 
1 4516 19684 
2 19684 19685 
1 3309 12063 
2 3308 3309 
2 3307 3308 
1 3307 5643 
2 5642 5643 
1 480 13084 
2 479 480 
2 9073 9074 
2 478 479 
1 478 9073 
2 9074 9075 
3 16997 16998 
3 7886 7887 
3 7885 7886 
1 7885 8481 
2 2608 2609 
1 2608 7783 
2 7783 7784 
2 2609 2610 
1 2610 5064 
2 7784 7785 
1 12240 21084 
3 12239 12240 
3 12238 12239 
3 13052 13053 
3 13051 13052 
2 18863 18864 
3 8819 8820 
3 8818 8819 
1 8820 21319 
2 21319 21320 
2 21320 21321 
3 5512 5513 
1 5512 8818 
3 11581 11582 
1 10335 11581 
3 10334 10335 
1 11583 18864 
3 11582 11583 
2 18862 18863 
1 18862 19311 
3 19310 19311 
3 19309 19310 
1 9165 19309 
3 5513 5514 
3 9164 9165 
3 9163 9164 
3 2617 2618 
3 391 392 
1 391 2617 
3 392 393 
1 393 4525 
3 4525 4526 
3 16223 16224 
3 2618 2619 
1 2619 14740 
3 14740 14741 
1 12738 21441 
2 12737 12738 
2 12736 12737 
1 4047 12736 
3 21440 21441 
3 4046 4047 
3 4045 4046 
1 4045 20982 
3 20981 20982 
3 20980 20981 
3 12625 12626 
1 12625 20980 
1 7863 13051 
3 2300 2301 
1 2301 5194 
3 5195 5196 
3 5194 5195 
3 2299 2300 
1 2299 11415 
3 5465 5466 
3 10912 10913 
1 4527 10912 
3 2800 2801 
3 2801 2802 
3 1546 1547 
1 1546 2800 
1 2802 5466 
3 4526 4527 
3 17246 17247 
3 1547 1548 
3 17245 17246 
3 1294 1295 
1 1294 17245 
3 3862 3863 
1 3862 9150 
3 3863 3864 
1 3864 16222 
3 16222 16223 
1 1548 1765 
1 17247 21544 
3 21544 21545 
1 16224 17847 
3 7459 7460 
3 14741 14742 
3 7460 7461 
1 7461 14742 
3 574 575 
1 574 7459 
1 13812 15013 
3 15013 15014 
3 14252 14253 
1 15015 21439 
3 21439 21440 
3 14251 14252 
3 12196 12197 
1 12196 14251 
3 12197 12198 
2 7309 7310 
1 7309 19785 
2 19784 19785 
1 19467 19783 
2 19466 19467 
2 19465 19466 
1 8715 19465 
2 19783 19784 
2 836 837 
2 835 836 
1 835 12291 
2 5162 5163 
2 5161 5162 
1 1932 5161 
3 1931 1932 
3 18365 18366 
1 15888 18364 
3 18364 18365 
3 15887 15888 
3 1930 1931 
1 1930 13341 
3 13340 13341 
3 13339 13340 
1 864 5196 
3 9149 9150 
3 1304 1305 
3 6457 6458 
1 6457 17262 
3 1303 1304 
1 1303 6459 
3 6458 6459 
1 2589 11199 
3 11198 11199 
3 2588 2589 
3 9851 9852 
3 9148 9149 
1 9148 14349 
3 14348 14349 
3 14347 14348 
1 14347 17152 
3 17152 17153 
3 17153 17154 
3 13811 13812 
3 13810 13811 
3 11536 11537 
1 11536 13810 
1 9852 11538 
3 11537 11538 
1 7311 8580 
2 7310 7311 
2 5692 5693 
1 5692 21393 
2 5693 5694 
1 5694 7788 
2 18418 18419 
2 8872 8873 
1 8872 18418 
2 18419 18420 
2 15845 15846 
1 8874 15846 
2 8873 8874 
2 15844 15845 
1 5181 15844 
2 7078 7079 
2 5180 5181 
2 5179 5180 
1 5179 11043 
2 11042 11043 
3 15886 15887 
3 5560 5561 
1 5560 15886 
3 5561 5562 
1 5562 15876 
3 4523 4524 
3 10826 10827 
1 10827 19636 
3 19636 19637 
3 19826 19827 
3 19825 19826 
3 12403 12404 
1 12403 20334 
3 10825 10826 
1 10825 19827 
3 4522 4523 
1 4522 12405 
3 12404 12405 
3 13535 13536 
3 20125 20126 
1 13536 20125 
3 20332 20333 
3 20333 20334 
3 8369 8370 
3 8368 8369 
1 8368 19272 
3 11197 11198 
1 11197 14956 
3 14956 14957 
3 14957 14958 
1 14958 21345 
3 13534 13535 
1 13534 19432 
3 19432 19433 
3 9850 9851 
1 8001 17154 
3 21344 21345 
2 1301 1302 
3 11207 11208 
3 11206 11207 
1 11206 19786 
2 19786 19787 
1 19782 19788 
2 19787 19788 
2 1300 1301 
1 1300 14499 
2 14498 14499 
2 14497 14498 
2 6355 6356 
1 6355 11500 
2 6356 6357 
1 6357 20064 
2 20063 20064 
2 4729 4730 
2 190 191 
1 190 4729 
2 12595 12596 
2 9040 9041 
1 9040 12595 
2 9041 9042 
2 7921 7922 
2 7787 7788 
2 12596 12597 
2 7786 7787 
1 7786 9966 
2 11977 11978 
1 11977 12597 
2 11978 11979 
2 5326 5327 
1 5326 11979 
2 5327 5328 
1 5328 16405 
2 16405 16406 
2 9964 9965 
2 16406 16407 
2 9965 9966 
2 5305 5306 
1 5305 16407 
2 2833 2834 
1 2833 10512 
2 4339 4340 
2 10511 10512 
2 10510 10511 
2 4864 4865 
1 4864 10510 
2 3731 3732 
2 3730 3731 
1 3730 9666 
2 4340 4341 
2 509 510 
2 508 509 
1 508 14223 
1 4341 14205 
2 14222 14223 
2 14221 14222 
2 85 86 
1 85 14221 
3 15875 15876 
3 13676 13677 
3 13675 13676 
3 13022 13023 
3 13021 13022 
1 13021 13677 
3 1477 1478 
1 1477 13675 
3 1478 1479 
3 21229 21230 
1 11658 21229 
3 11657 11658 
3 21230 21231 
1 8370 21231 
3 9113 9114 
3 9112 9113 
3 3025 3026 
1 3025 9112 
3 3026 3027 
1 3027 18841 
3 18841 18842 
3 8275 8276 
2 856 857 
1 856 8275 
2 857 858 
3 8276 8277 
1 858 14553 
3 21343 21344 
1 8277 21343 
3 19780 19781 
3 6118 6119 
1 6118 19780 
3 19781 19782 
3 6119 6120 
1 6120 14527 
3 14527 14528 
2 9988 9989 
1 9988 15453 
2 9989 9990 
1 1272 9990 
3 1271 1272 
2 92 93 
1 93 3694 
2 1750 1751 
1 1750 9042 
2 17233 17234 
1 17233 19879 
2 17234 17235 
1 4731 17235 
2 4730 4731 
2 5021 5022 
2 1751 1752 
1 1752 5022 
2 1924 1925 
2 3694 3695 
2 12911 12912 
2 15136 15137 
2 12910 12911 
1 12910 15136 
1 12912 12936 
2 20963 20964 
1 867 11757 
2 20962 20963 
2 12935 12936 
2 12934 12935 
1 12934 20962 
2 13121 13122 
2 20528 20529 
2 866 867 
2 9664 9665 
2 9665 9666 
2 13120 13121 
1 13120 20527 
2 20527 20528 
2 16699 16700 
1 16699 20529 
2 9241 9242 
1 9241 19938 
2 9242 9243 
2 86 87 
2 19898 19899 
3 14677 14678 
1 14677 18258 
3 14678 14679 
1 13866 14679 
3 13865 13866 
1 3597 7221 
3 17762 17763 
3 1658 1659 
1 1479 1659 
1 10584 11656 
3 11656 11657 
3 10583 10584 
3 10582 10583 
1 10582 13864 
3 13864 13865 
3 3596 3597 
3 16159 16160 
1 16159 20707 
3 16160 16161 
3 13982 13983 
3 1657 1658 
1 1657 17752 
3 17752 17753 
3 17753 17754 
1 6372 17754 
3 6371 6372 
3 13981 13982 
1 13981 16161 
3 20707 20708 
3 14528 14529 
3 6370 6371 
1 6370 14529 
1 765 20169 
3 764 765 
3 20708 20709 
3 8542 8543 
2 14552 14553 
1 2694 14551 
2 14551 14552 
3 2693 2694 
1 15636 20167 
2 15635 15636 
2 15634 15635 
3 2692 2693 
1 2692 8542 
3 20168 20169 
3 20167 20168 
2 886 887 
2 887 888 
1 888 4788 
2 4787 4788 
2 3695 3696 
1 3696 15634 
2 1925 1926 
2 14192 14193 
2 14191 14192 
1 6531 14191 
2 4786 4787 
1 4786 8376 
2 773 774 
2 19685 19686 
2 772 773 
1 772 19686 
2 15137 15138 
2 6530 6531 
2 6529 6530 
1 6529 15138 
1 774 4060 
2 4060 4061 
2 865 866 
1 865 4375 
2 4375 4376 
2 4376 4377 
1 1803 6843 
1 4377 18694 
2 6842 6843 
2 5641 5642 
1 5641 13389 
2 18694 18695 
2 18695 18696 
1 18696 19218 
2 19217 19218 
2 19216 19217 
1 19216 21369 
3 19936 19937 
3 19937 19938 
2 21368 21369 
2 21211 21212 
2 21212 21213 
3 2866 2867 
1 2866 3195 
2 3193 3194 
2 3194 3195 
3 2867 2868 
3 16915 16916 
1 16915 21213 
3 16916 16917 
3 16996 16997 
3 8480 8481 
3 8479 8480 
1 8479 15694 
2 15694 15695 
2 15695 15696 
1 435 15696 
2 434 435 
2 433 434 
1 433 9531 
2 9530 9531 
3 19979 19980 
1 2394 7785 
3 2392 2393 
3 2393 2394 
3 8449 8450 
3 8450 8451 
1 8451 19980 
3 7259 7260 
3 7258 7259 
1 7258 20592 
3 20591 20592 
3 20590 20591 
3 10435 10436 
1 10435 20590 
3 10436 10437 
3 2992 2993 
1 2992 7071 
3 7069 7070 
1 7069 13696 
3 13696 13697 
3 21083 21084 
3 7070 7071 
3 21082 21083 
3 11527 11528 
1 11946 19080 
3 8068 8069 
3 11528 11529 
3 19079 19080 
1 7905 12904 
3 12904 12905 
3 12905 12906 
1 6258 12906 
2 16271 16272 
1 1143 16270 
2 16270 16271 
2 1142 1143 
3 4919 4920 
3 4918 4919 
2 1141 1142 
1 1141 5604 
3 5063 5064 
2 9529 9530 
1 9529 17727 
3 5062 5063 
1 4920 5062 
3 7474 7475 
3 3331 3332 
1 3331 7474 
3 3332 3333 
1 3333 11337 
3 17726 17727 
1 7476 11725 
3 11726 11727 
3 11725 11726 
3 10333 10334 
1 10333 11727 
3 7475 7476 
3 7177 7178 
1 7177 18015 
1 2634 5514 
3 7178 7179 
3 2633 2634 
3 2632 2633 
1 2632 14847 
3 13697 13698 
3 17716 17717 
1 13698 17716 
3 13459 13460 
3 13460 13461 
3 4321 4322 
1 4321 13459 
3 14681 14682 
3 14680 14681 
3 17717 17718 
1 9909 17718 
3 6943 6944 
1 6943 14680 
2 11945 11946 
2 11944 11945 
2 5695 5696 
1 5695 14682 
1 5697 11944 
2 5696 5697 
3 18208 18209 
3 11125 11126 
1 11125 18208 
3 11126 11127 
3 18209 18210 
3 19078 19079 
3 6718 6719 
1 6718 19078 
3 6719 6720 
1 2496 17832 
3 2495 2496 
3 1979 1980 
3 1978 1979 
1 1978 11127 
1 6720 10498 
3 10498 10499 
3 10499 10500 
3 17831 17832 
3 7904 7905 
3 7903 7904 
3 6055 6056 
1 6055 10500 
3 12626 12627 
3 12052 12053 
1 12052 12627 
3 11335 11336 
3 6344 6345 
3 6343 6344 
3 4366 4367 
1 4366 6343 
3 11413 11414 
1 963 11413 
3 7862 7863 
3 11336 11337 
3 962 963 
3 961 962 
1 961 6885 
3 11414 11415 
3 7861 7862 
1 7861 16969 
3 16969 16970 
3 16970 16971 
3 5464 5465 
1 5464 6265 
3 6266 6267 
3 6265 6266 
3 7531 7532 
1 7531 16971 
3 14846 14847 
3 14845 14846 
3 7996 7997 
1 7996 14845 
3 7997 7998 
1 7998 8707 
3 15605 15606 
1 7179 15606 
3 4322 4323 
1 4323 17251 
3 1765 1766 
3 1766 1767 
1 1032 1767 
3 9908 9909 
3 9907 9908 
1 8250 9907 
3 8249 8250 
3 17251 17252 
3 17252 17253 
3 8248 8249 
1 17253 17850 
3 17846 17847 
3 17845 17846 
1 15777 17845 
3 15776 15777 
3 12967 12968 
3 12968 12969 
1 12969 18210 
3 1031 1032 
3 12250 12251 
1 12250 12967 
3 15014 15015 
3 17830 17831 
3 14540 14541 
3 14539 14540 
3 6056 6057 
1 6057 6769 
3 12053 12054 
1 1209 12054 
2 17111 17112 
2 17110 17111 
1 2910 17110 
2 1208 1209 
2 1207 1208 
1 1207 3456 
3 14963 14964 
3 14962 14963 
3 517 518 
1 517 14962 
1 1683 13339 
1 1923 6267 
3 1922 1923 
3 1921 1922 
1 1921 7525 
3 1682 1683 
3 17261 17262 
3 8707 8708 
3 17260 17261 
3 1681 1682 
1 1681 17025 
3 17024 17025 
3 17023 17024 
1 17023 17260 
1 6969 8709 
3 8708 8709 
3 21545 21546 
3 6968 6969 
3 2587 2588 
1 2587 9063 
3 18595 18596 
3 9061 9062 
1 9061 18595 
3 6967 6968 
1 6967 18597 
3 9062 9063 
3 12251 12252 
3 1030 1031 
1 1030 4698 
3 4697 4698 
3 4696 4697 
1 4696 14151 
1 11514 12252 
3 11513 11514 
3 11512 11513 
1 11512 19119 
3 14150 14151 
3 14149 14150 
3 3145 3146 
1 3145 14149 
1 3684 11829 
3 11828 11829 
3 11827 11828 
2 5198 5199 
2 9904 9905 
1 9904 18420 
2 2908 2909 
2 2909 2910 
2 5197 5198 
2 9905 9906 
1 5199 9906 
2 20360 20361 
2 3454 3455 
1 3454 20359 
2 20359 20360 
2 3455 3456 
2 7079 7080 
2 11041 11042 
2 799 800 
1 799 11041 
2 800 801 
1 801 16239 
2 16238 16239 
3 4750 4751 
1 4750 19140 
3 7009 7010 
1 7009 19825 
3 518 519 
1 519 7011 
3 7010 7011 
3 14543 14544 
3 14542 14543 
1 14542 19138 
3 19138 19139 
1 12789 14544 
3 12788 12789 
3 12787 12788 
1 12787 20530 
3 20530 20531 
3 20531 20532 
1 19710 20532 
3 19709 19710 
3 19433 19434 
1 6369 19434 
3 19708 19709 
3 8000 8001 
3 6368 6369 
3 19117 19118 
3 19118 19119 
3 6367 6368 
1 6367 19117 
3 12688 12689 
1 12688 19270 
3 12689 12690 
3 14858 14859 
1 12690 14859 
3 14857 14858 
3 3682 3683 
1 3682 14857 
3 3146 3147 
3 7999 8000 
1 1302 3147 
3 7036 7037 
1 7036 7999 
3 7037 7038 
1 3126 20439 
3 3683 3684 
2 11500 11501 
3 10637 10638 
2 191 192 
1 192 10638 
2 20438 20439 
2 20437 20438 
1 11502 20437 
2 11501 11502 
2 7922 7923 
2 8402 8403 
2 4006 4007 
1 4006 7923 
2 4007 4008 
1 4008 8401 
2 8401 8402 
1 4371 7080 
2 4370 4371 
2 4369 4370 
1 4369 10530 
2 2834 2835 
2 13082 13083 
2 6601 6602 
1 6601 13083 
2 10009 10010 
1 10009 17533 
2 17533 17534 
2 10010 10011 
2 17534 17535 
2 13081 13082 
1 7893 13081 
2 14204 14205 
2 14203 14204 
3 278 279 
3 4751 4752 
1 4752 12837 
3 12836 12837 
1 279 19899 
3 15874 15875 
3 442 443 
1 442 15874 
3 277 278 
1 277 12318 
3 12317 12318 
1 444 10696 
3 443 444 
3 10696 10697 
3 10697 10698 
3 12316 12317 
1 12316 16666 
3 16666 16667 
3 11240 11241 
1 10698 19612 
3 16667 16668 
3 20126 20127 
1 7899 20127 
3 7898 7899 
3 7897 7898 
1 5088 19708 
3 20750 20751 
3 5086 5087 
1 5086 20751 
3 5087 5088 
3 18842 18843 
3 16408 16409 
1 16408 21064 
3 19271 19272 
3 19270 19271 
3 4745 4746 
1 4746 19816 
3 19816 19817 
1 14697 18843 
3 2512 2513 
1 2512 19818 
3 19817 19818 
3 4744 4745 
3 14695 14696 
1 14695 18981 
3 14696 14697 
3 5842 5843 
1 5842 7038 
2 91 92 
1 91 5844 
3 5843 5844 
3 1270 1271 
1 1270 7909 
3 8011 8012 
1 8011 18582 
3 8012 8013 
3 7909 7910 
3 7910 7911 
2 5020 5021 
1 5020 18975 
2 16895 16896 
2 16894 16895 
1 16894 17647 
2 18973 18974 
1 8013 18973 
2 18974 18975 
2 17648 17649 
2 17647 17648 
2 4664 4665 
1 17649 19464 
2 19463 19464 
1 4665 9954 
2 4663 4664 
1 4663 13284 
2 9971 9972 
2 5306 5307 
2 9953 9954 
2 9952 9953 
1 5307 9952 
2 15416 15417 
2 15415 15416 
2 7891 7892 
1 7891 15415 
2 11494 11495 
1 11494 15063 
2 15062 15063 
2 9970 9971 
1 9970 15061 
2 15061 15062 
2 7892 7893 
1 10011 16701 
2 16700 16701 
2 4469 4470 
2 1664 1665 
2 1663 1664 
1 1663 19734 
1 1665 9837 
2 1957 1958 
1 1957 4468 
2 4468 4469 
1 87 7542 
2 7540 7541 
2 7541 7542 
1 4470 7540 
3 7780 7781 
1 6084 7780 
3 6083 6084 
3 6082 6083 
3 9758 9759 
1 14787 19897 
2 19897 19898 
3 14786 14787 
3 14785 14786 
1 9759 14785 
3 11239 11240 
1 11239 21471 
3 21470 21471 
3 15035 15036 
3 21469 21470 
1 15036 21469 
1 7062 16668 
3 7061 7062 
3 7060 7061 
1 7060 18037 
3 18037 18038 
3 18038 18039 
1 9843 18039 
3 7219 7220 
1 7219 16918 
3 7220 7221 
3 16918 16919 
3 16244 16245 
1 13983 16245 
3 16409 16410 
3 20749 20750 
3 15256 15257 
1 15256 16410 
3 15257 15258 
3 16243 16244 
1 16243 20749 
1 15258 16671 
1 2514 20752 
3 20752 20753 
3 20753 20754 
3 2513 2514 
1 7044 20754 
3 13763 13764 
3 14108 14109 
3 14107 14108 
1 13764 14107 
3 13762 13763 
1 7911 8499 
2 8498 8499 
1 9474 14109 
3 9473 9474 
3 9472 9473 
2 8806 8807 
1 8806 19492 
2 19492 19493 
2 8807 8808 
2 19493 19494 
2 14083 14084 
2 7799 7800 
2 19462 19463 
2 15503 15504 
2 7798 7799 
1 7798 15504 
2 4061 4062 
2 8981 8982 
1 4062 15163 
2 15163 15164 
2 2395 2396 
1 2395 15417 
2 2396 2397 
2 1802 1803 
2 1801 1802 
1 1801 8980 
2 8980 8981 
2 15164 15165 
2 4537 4538 
1 4537 15165 
2 20746 20747 
1 2397 20746 
1 1959 9957 
2 20747 20748 
2 1958 1959 
1 7269 10974 
2 7268 7269 
2 9956 9957 
2 9836 9837 
2 7267 7268 
1 7267 9835 
2 9835 9836 
1 13452 15714 
2 21367 21368 
2 13450 13451 
1 13450 21367 
2 13451 13452 
2 15713 15714 
2 17462 17463 
2 9049 9050 
1 9049 17463 
2 9050 9051 
2 17461 17462 
1 17461 21211 
1 2868 15667 
3 15667 15668 
1 13206 16917 
3 15668 15669 
3 13205 13206 
3 13204 13205 
1 10014 13204 
3 10013 10014 
3 10012 10013 
1 10012 14806 
3 14806 14807 
3 5446 5447 
3 5447 5448 
1 6582 8076 
3 6581 6582 
3 6580 6581 
1 6580 19978 
3 19978 19979 
3 8075 8076 
1 15669 16042 
3 16042 16043 
3 16043 16044 
3 16460 16461 
1 6948 16461 
1 16044 17613 
3 16459 16460 
3 7960 7961 
1 7960 18622 
3 18622 18623 
3 17612 17613 
3 17611 17612 
1 2994 17611 
3 7961 7962 
1 7962 20164 
3 2993 2994 
3 20164 20165 
3 20165 20166 
3 6545 6546 
3 1159 1160 
1 1159 6546 
3 1160 1161 
1 1380 6544 
3 6544 6545 
1 1161 14736 
3 14735 14736 
3 14734 14735 
1 8070 14734 
3 4106 4107 
3 8069 8070 
1 4107 20301 
3 20300 20301 
3 14291 14292 
3 14290 14291 
1 1980 14290 
3 20299 20300 
2 6256 6257 
2 6257 6258 
2 7292 7293 
1 7293 20229 
3 5603 5604 
1 5448 5602 
3 5602 5603 
2 20228 20229 
2 20227 20228 
1 20227 20923 
3 20923 20924 
3 20924 20925 
3 17725 17726 
1 17725 18978 
3 18977 18978 
3 18976 18977 
1 7485 18976 
3 7484 7485 
3 18689 18690 
3 7544 7545 
3 7543 7544 
1 7543 18688 
3 18688 18689 
3 18013 18014 
3 18623 18624 
3 18014 18015 
1 7545 16459 
1 7533 13725 
3 13724 13725 
3 13723 13724 
3 13315 13316 
1 13315 13723 
1 1731 18624 
1 10437 11830 
3 11830 11831 
3 11831 11832 
1 2103 11832 
3 13316 13317 
3 1378 1379 
1 1378 13461 
3 1379 1380 
3 6944 6945 
1 6945 13186 
3 2081 2082 
3 2056 2057 
1 2056 2082 
3 2080 2081 
1 2080 4105 
3 2057 2058 
3 4105 4106 
3 12074 12075 
3 12073 12074 
3 13186 13187 
3 13682 13683 
3 13681 13682 
1 2403 13681 
3 2402 2403 
3 2494 2495 
1 2494 15105 
3 12038 12039 
3 12037 12038 
1 7521 12037 
3 7519 7520 
1 7519 20299 
3 7520 7521 
3 15104 15105 
3 6160 6161 
1 6160 7033 
3 7033 7034 
3 15103 15104 
1 6162 15103 
3 6161 6162 
3 476 477 
3 2194 2195 
3 3460 3461 
1 3460 8598 
2 8597 8598 
2 8596 8597 
3 3461 3462 
3 475 476 
1 475 8596 
3 4367 4368 
1 4368 12495 
1 477 2194 
3 18668 18669 
3 7483 7484 
1 7483 7908 
3 18667 18668 
1 3120 18667 
3 7532 7533 
3 6884 6885 
3 6883 6884 
1 6883 17067 
3 17066 17067 
3 3119 3120 
3 10628 10629 
3 15604 15605 
3 2102 2103 
3 1273 1274 
1 1273 15604 
3 1274 1275 
3 2101 2102 
1 2101 3084 
3 3083 3084 
3 3082 3083 
1 3082 5250 
3 13187 13188 
1 1263 13188 
3 1262 1263 