ITEM: TIMESTEP
60000000
ITEM: NUMBER OF ATOMS
3057
ITEM: BOX BOUNDS pp pp pp
0.0000000000000000e+00 5.0000000000000000e+01
0.0000000000000000e+00 5.0000000000000000e+01
0.0000000000000000e+00 5.0000000000000000e+01
ITEM: ATOMS id type xs ys zs
1111 1 0.484724 0.661995 0.283488
5292 1 0.473046 0.62459 0.308797
5291 2 0.471603 0.629938 0.30301
15445 1 0.474318 0.622213 0.311367
8105 3 0.482656 0.645535 0.300739
8106 1 0.477738 0.639312 0.30103
5290 1 0.475971 0.636389 0.301791
8104 1 0.484646 0.651007 0.29596
1113 1 0.485624 0.652661 0.293657
1112 2 0.488167 0.656835 0.288383
6680 2 0.473279 0.531289 0.345641
12997 1 0.505816 0.532923 0.336135
12998 3 0.508276 0.532223 0.329332
13321 1 0.504969 0.533378 0.339222
12999 1 0.511721 0.527543 0.322643
13322 2 0.502295 0.533942 0.346267
10570 1 0.465048 0.562709 0.322857
10571 2 0.459722 0.558895 0.328199
10572 1 0.457682 0.558923 0.33576
13900 1 0.457266 0.559259 0.338356
13901 3 0.456852 0.560173 0.346493
13197 1 0.484942 0.566309 0.34692
15068 2 0.500749 0.559696 0.344218
15067 1 0.505589 0.554897 0.347137
16605 1 0.52853 0.57909 0.330565
16604 2 0.52148 0.584848 0.32854
16603 1 0.515611 0.585464 0.333877
2025 1 0.513355 0.585145 0.33626
2024 2 0.508637 0.584172 0.341909
18996 1 0.480439 0.61831 0.326978
15447 1 0.479499 0.618084 0.323826
18995 3 0.480744 0.619399 0.334719
15446 2 0.476586 0.616634 0.317111
18994 1 0.480292 0.62113 0.341826
2204 2 0.526806 0.634243 0.344512
13272 1 0.501704 0.634322 0.337544
2205 1 0.523775 0.636243 0.33749
13271 2 0.498285 0.637164 0.330993
11443 1 0.498008 0.649027 0.329041
13270 1 0.497871 0.645785 0.329507
11444 2 0.497757 0.656598 0.328246
11859 1 0.476028 0.647401 0.347102
12399 1 0.479069 0.646989 0.34693
12398 2 0.486941 0.64683 0.346575
12397 1 0.495036 0.647098 0.346741
1518 1 0.498126 0.647283 0.346946
17439 1 0.522942 0.636936 0.334679
11445 1 0.501813 0.661044 0.332223
17438 2 0.520598 0.638272 0.327236
17437 1 0.516325 0.638896 0.32053
15878 3 0.446738 0.476162 0.358875
15877 1 0.453968 0.481719 0.360317
15879 1 0.443679 0.470609 0.355831
7348 1 0.456881 0.483304 0.361531
7349 3 0.46327 0.486259 0.364029
20260 1 0.484435 0.513948 0.358935
11403 1 0.487994 0.500846 0.368368
12097 1 0.470937 0.49378 0.365219
7350 1 0.468638 0.491535 0.365318
12098 2 0.476639 0.499202 0.366309
12099 1 0.484586 0.5005 0.367571
11402 2 0.495021 0.502631 0.370176
11401 1 0.500888 0.506497 0.375483
17179 1 0.503516 0.508007 0.37691
10945 1 0.465544 0.537019 0.351981
1804 1 0.459061 0.544054 0.366582
10947 1 0.459377 0.543765 0.363927
10946 3 0.461095 0.54105 0.356335
6679 1 0.467386 0.535513 0.350371
1805 3 0.45831 0.543994 0.374168
11702 3 0.442352 0.526393 0.37329
11703 1 0.436641 0.523506 0.36894
20261 2 0.486457 0.519877 0.355038
6681 1 0.479271 0.528042 0.349461
20262 1 0.481021 0.525763 0.351279
6421 1 0.529667 0.539859 0.377152
16802 2 0.52905 0.520765 0.363614
19348 1 0.50453 0.540108 0.356977
13323 1 0.503656 0.538257 0.353983
18267 1 0.527476 0.537978 0.378928
16803 1 0.523203 0.520494 0.358229
19349 2 0.507562 0.544205 0.362823
18542 2 0.46184 0.564692 0.364043
13902 1 0.457327 0.563378 0.35348
18541 1 0.458214 0.564182 0.356525
13196 2 0.480509 0.567956 0.352289
17572 1 0.497449 0.573072 0.366643
15261 1 0.496712 0.574835 0.368946
20277 1 0.485914 0.571897 0.37758
15259 1 0.488397 0.573799 0.376352
18543 1 0.467722 0.565687 0.369228
13195 1 0.475784 0.574225 0.356296
17393 2 0.52982 0.553527 0.34938
549 1 0.524631 0.561733 0.351722
17392 1 0.526247 0.559576 0.351299
15069 1 0.50087 0.563119 0.351331
17573 2 0.499599 0.567949 0.360042
17574 1 0.500603 0.564521 0.353796
548 2 0.520705 0.568185 0.353965
20985 1 0.514495 0.549326 0.370599
19350 1 0.512778 0.547846 0.368117
20984 2 0.51913 0.552818 0.377072
547 1 0.519944 0.573057 0.359973
8928 1 0.519484 0.575222 0.362185
21017 3 0.464375 0.601664 0.360151
21016 1 0.466784 0.594077 0.36106
15260 2 0.494506 0.579025 0.374471
12861 1 0.474628 0.576589 0.358064
12859 1 0.468122 0.590677 0.361622
12860 2 0.472032 0.582864 0.36228
10062 1 0.495931 0.596134 0.359172
14919 1 0.495844 0.598177 0.361674
10061 2 0.496773 0.590263 0.355107
14918 2 0.495979 0.603361 0.367377
14917 1 0.496776 0.602903 0.37483
9900 1 0.497581 0.602165 0.378014
12410 2 0.528292 0.601576 0.349028
12411 1 0.522329 0.605508 0.350904
2023 1 0.505272 0.586416 0.348157
10060 1 0.503146 0.587438 0.350338
8926 1 0.520332 0.585366 0.371826
14014 1 0.520693 0.587866 0.3742
8927 2 0.518254 0.579364 0.368276
14015 2 0.521647 0.593196 0.378371
21018 1 0.467438 0.609535 0.361682
6652 1 0.468432 0.61274 0.36247
6653 3 0.469718 0.620822 0.36283
6654 1 0.476737 0.626836 0.363632
19045 1 0.47894 0.628978 0.364341
19046 2 0.484973 0.635007 0.365655
13505 2 0.514124 0.611415 0.352654
13506 1 0.51354 0.618322 0.355323
9903 1 0.513304 0.620692 0.356934
15322 1 0.510021 0.632183 0.373016
9901 1 0.510716 0.630515 0.370096
9902 2 0.513128 0.626685 0.362281
13504 1 0.519653 0.607074 0.35157
268 1 0.524235 0.61678 0.37846
6572 3 0.400644 0.664783 0.360129
6571 1 0.39666 0.65987 0.354028
3165 1 0.430797 0.66326 0.360051
12322 1 0.427506 0.663361 0.358801
12323 2 0.41921 0.663372 0.355756
12324 1 0.411059 0.664803 0.358962
6573 1 0.408352 0.665138 0.359796
3164 2 0.439328 0.663383 0.363666
3685 1 0.460611 0.653917 0.352339
3686 3 0.454204 0.656991 0.355213
3163 1 0.444761 0.65991 0.360138
3687 1 0.447467 0.658632 0.358744
11857 1 0.462767 0.652651 0.350666
9175 1 0.460183 0.643614 0.378347
11858 2 0.468527 0.649094 0.348014
19047 1 0.488437 0.642138 0.366924
17109 1 0.490397 0.644584 0.367224
17108 2 0.495284 0.649912 0.368575
17107 1 0.498618 0.656125 0.373385
14896 1 0.480962 0.661165 0.349077
14897 2 0.486791 0.665058 0.355002
12846 1 0.52911 0.656885 0.347785
12845 2 0.522607 0.658351 0.349784
1517 2 0.506243 0.649337 0.347657
7190 2 0.527814 0.646681 0.368157
7191 1 0.524038 0.65277 0.369574
1516 1 0.513637 0.652779 0.350757
12844 1 0.517025 0.654749 0.35098
2356 1 0.523372 0.655198 0.370203
2357 2 0.522895 0.663245 0.372723
15323 2 0.507526 0.636641 0.37841
18793 1 0.499753 0.657813 0.374836
7288 1 0.437877 0.682667 0.375322
14898 1 0.493705 0.666806 0.356991
19483 1 0.496667 0.667255 0.35733
19484 2 0.505212 0.667285 0.357801
2358 1 0.522613 0.670016 0.378183
19485 1 0.508684 0.671948 0.362042
19385 2 0.512308 0.680477 0.369134
19386 1 0.509708 0.673795 0.364187
19384 1 0.509871 0.687396 0.373869
4959 1 0.509396 0.689709 0.375302
8161 1 0.526171 0.717697 0.369348
13739 2 0.518704 0.726062 0.369267
13740 1 0.523858 0.720055 0.368777
13738 1 0.512552 0.731231 0.366901
12654 1 0.510337 0.733306 0.366262
12652 1 0.500813 0.745103 0.365434
12653 3 0.505203 0.740075 0.365212
16240 1 0.529395 0.481184 0.410355
13198 1 0.521363 0.482156 0.397017
5028 1 0.421735 0.513729 0.406324
5027 3 0.427051 0.509101 0.402979
21207 1 0.421146 0.501521 0.41007
5026 1 0.423125 0.503453 0.408191
13735 1 0.467473 0.511944 0.383238
13736 2 0.47464 0.509101 0.386187
13737 1 0.479951 0.513535 0.389676
1284 1 0.48207 0.515112 0.390882
17180 2 0.50933 0.512222 0.381076
17677 1 0.518523 0.511807 0.38651
17181 1 0.516214 0.51208 0.385192
17678 2 0.525218 0.510623 0.390901
13200 1 0.512039 0.489596 0.385644
13199 2 0.515563 0.485307 0.392
15037 1 0.394568 0.518326 0.396798
8887 1 0.404917 0.525714 0.40833
15039 1 0.403493 0.523542 0.406617
15038 2 0.399864 0.517492 0.402075
17517 1 0.425782 0.537559 0.381909
17516 3 0.430081 0.545301 0.38267
1806 1 0.459882 0.544772 0.382459
21451 1 0.459886 0.532135 0.391329
8844 1 0.46271 0.532949 0.3916
21452 3 0.452373 0.531063 0.388515
11701 1 0.44638 0.527824 0.379672
21453 1 0.447958 0.528436 0.381713
14325 1 0.493357 0.544045 0.386467
4912 1 0.49556 0.542849 0.385983
8843 3 0.470471 0.535895 0.391925
1283 3 0.486397 0.519274 0.395259
1282 1 0.488619 0.524844 0.399579
17496 1 0.489285 0.52689 0.400645
17495 2 0.490711 0.533633 0.403444
8842 1 0.477227 0.541203 0.38903
14323 1 0.479579 0.542507 0.388465
17494 1 0.495857 0.535854 0.40904
18266 2 0.521117 0.532402 0.382568
4913 2 0.503455 0.54002 0.385271
1741 1 0.523933 0.533765 0.401713
1742 2 0.516258 0.530442 0.403716
18265 1 0.513794 0.536068 0.382634
4914 1 0.511121 0.537433 0.383094
9270 1 0.526777 0.535099 0.40105
1743 1 0.511034 0.524345 0.408146
17281 1 0.509319 0.522014 0.408963
14177 3 0.446697 0.553079 0.389182
14178 1 0.439129 0.551589 0.38555
17515 1 0.436629 0.549984 0.384566
13245 1 0.455897 0.557715 0.387013
14176 1 0.45347 0.556139 0.38745
13244 2 0.462667 0.560513 0.386529
20276 2 0.479845 0.567384 0.379433
20275 1 0.471975 0.564054 0.381538
14324 2 0.486022 0.547015 0.387151
14442 1 0.487995 0.571931 0.3989
3475 1 0.48554 0.559749 0.404682
15411 1 0.48851 0.558333 0.405166
15410 2 0.495493 0.554199 0.405362
13243 1 0.469969 0.563404 0.382551
3476 2 0.477298 0.560737 0.403017
5911 1 0.469155 0.558173 0.408695
3477 1 0.471574 0.558617 0.406841
5212 1 0.525785 0.575001 0.391656
20983 1 0.519044 0.552638 0.385047
15409 1 0.500998 0.54863 0.408217
20097 1 0.519949 0.552874 0.403147
18333 1 0.519949 0.552063 0.406001
20096 2 0.519423 0.554288 0.395299
20095 1 0.519022 0.553018 0.387657
13361 2 0.512004 0.569731 0.4104
5214 1 0.517169 0.575684 0.402745
13360 1 0.515622 0.573912 0.404841
16485 1 0.527799 0.574407 0.389862
11378 3 0.422802 0.603437 0.407424
11377 1 0.425584 0.600128 0.400735
14441 2 0.492986 0.576067 0.395817
17732 2 0.474845 0.592293 0.38293
17733 1 0.474723 0.599975 0.387368
17731 1 0.477633 0.585147 0.38102
9899 2 0.49852 0.599646 0.385529
14016 1 0.526356 0.594384 0.385933
5213 2 0.52172 0.578957 0.397659
14440 1 0.501005 0.577035 0.394713
15040 1 0.501339 0.594538 0.395901
9898 1 0.500034 0.59637 0.392672
15041 2 0.504023 0.591681 0.402433
15042 1 0.504294 0.590527 0.410347
7563 1 0.528099 0.594683 0.388368
7675 1 0.414943 0.626952 0.394828
7676 3 0.420925 0.624016 0.399231
8269 1 0.431547 0.620826 0.401673
7677 1 0.428488 0.621784 0.401111
8270 2 0.439463 0.617591 0.402465
8271 1 0.446743 0.61579 0.400503
13167 1 0.463755 0.621596 0.392547
7027 1 0.449578 0.614991 0.399831
7029 1 0.461876 0.619488 0.393349
7028 2 0.457105 0.613244 0.397095
9177 1 0.461764 0.634433 0.386398
13165 1 0.463558 0.632403 0.386976
2220 1 0.483122 0.609126 0.404502
18718 1 0.482725 0.606781 0.405941
2219 2 0.485055 0.61559 0.400266
13166 2 0.468958 0.627003 0.389727
8025 1 0.488472 0.622876 0.393461
2218 1 0.487701 0.621354 0.395145
8024 2 0.492711 0.627976 0.387356
8023 1 0.49865 0.631915 0.382485
8144 2 0.52801 0.618154 0.398706
15324 1 0.501221 0.633487 0.381252
1543 1 0.525127 0.628269 0.395481
9983 2 0.513625 0.615201 0.382877
9984 1 0.51013 0.616191 0.391245
16080 1 0.509319 0.616673 0.393837
9982 1 0.521051 0.616585 0.379593
1544 2 0.524817 0.636085 0.392745
16079 2 0.507354 0.618285 0.401274
8145 1 0.525309 0.625401 0.396431
8143 1 0.52793 0.613167 0.405345
16078 1 0.509918 0.620343 0.409317
18868 1 0.527681 0.611355 0.407221
9176 3 0.457543 0.639961 0.38492
1234 1 0.456601 0.66385 0.396994
8289 1 0.457506 0.662179 0.39941
8288 2 0.460962 0.657741 0.404573
8287 1 0.465452 0.653474 0.408722
11522 2 0.480307 0.66271 0.386993
11523 1 0.484683 0.658016 0.391821
663 1 0.486123 0.656212 0.393721
662 2 0.49035 0.650316 0.398156
661 1 0.49439 0.645412 0.402065
4474 1 0.49626 0.643295 0.403959
14238 1 0.467677 0.651819 0.41017
4475 2 0.499425 0.637487 0.408839
18794 2 0.503408 0.663636 0.381044
1545 1 0.521561 0.642499 0.394141
5625 1 0.520149 0.645326 0.394612
5624 2 0.517693 0.652448 0.394734
5623 1 0.5208 0.658168 0.400134
1492 1 0.522392 0.659924 0.402242
1493 2 0.526503 0.665254 0.407922
7289 3 0.440272 0.677084 0.380228
1236 1 0.447708 0.67123 0.385426
7290 1 0.445345 0.672716 0.383929
1235 3 0.453004 0.666853 0.38992
11521 1 0.479761 0.670575 0.384725
13670 2 0.496907 0.682365 0.391109
320 2 0.488286 0.672985 0.404915
321 1 0.49251 0.676318 0.398937
13669 1 0.493517 0.678028 0.396875
20654 2 0.529449 0.686278 0.400037
13671 1 0.501576 0.687196 0.395231
18795 1 0.509398 0.669843 0.383574
4128 1 0.51163 0.671345 0.385315
4127 2 0.517742 0.675858 0.389704
4126 1 0.521824 0.679791 0.393973
20653 1 0.524257 0.681321 0.396056
17772 1 0.504152 0.689114 0.39739
4958 2 0.508712 0.696405 0.380733
17771 2 0.510432 0.692492 0.400975
7104 1 0.528041 0.711902 0.389935
15149 2 0.517651 0.711827 0.387246
4957 1 0.512285 0.703559 0.382754
15150 1 0.513724 0.705561 0.383693
17770 1 0.515481 0.698161 0.403867
19846 1 0.516437 0.700512 0.404824
19847 2 0.520318 0.706673 0.40936
15148 1 0.52519 0.712054 0.388764
10092 1 0.33376 0.479696 0.426722
10091 3 0.341456 0.477737 0.429609
14927 2 0.357107 0.476085 0.440019
10090 1 0.347045 0.476636 0.434597
14926 1 0.349551 0.476036 0.436188
20548 1 0.440639 0.478241 0.440113
18096 1 0.443351 0.478737 0.439722
7601 3 0.450424 0.484048 0.417192
7600 1 0.458679 0.480667 0.417576
18095 3 0.452295 0.480175 0.438827
12412 1 0.481277 0.470477 0.42849
19947 1 0.497949 0.471864 0.421031
19946 3 0.491863 0.468655 0.424355
19945 1 0.484095 0.470108 0.427514
12413 3 0.473681 0.47338 0.431478
16521 1 0.495686 0.48234 0.441339
12414 1 0.472834 0.473681 0.439682
2751 1 0.50037 0.473297 0.419593
2750 3 0.505467 0.476599 0.413921
2749 1 0.510741 0.481476 0.414803
12163 1 0.512674 0.483367 0.414976
129 1 0.404796 0.504722 0.434928
21205 1 0.411371 0.492337 0.415884
21206 3 0.41714 0.496828 0.413433
128 3 0.408627 0.511306 0.430864
10276 1 0.414499 0.492907 0.439703
10277 3 0.420218 0.490764 0.435414
127 1 0.415918 0.51456 0.429372
20088 1 0.412032 0.493779 0.441402
10278 1 0.428168 0.491192 0.43281
12610 1 0.430834 0.491904 0.43187
19914 1 0.435838 0.512536 0.44164
12612 1 0.442199 0.490356 0.423187
7602 1 0.444535 0.488849 0.421392
12611 3 0.436963 0.493805 0.427576
5125 1 0.438024 0.514332 0.44056
5127 1 0.451453 0.513911 0.431796
9130 1 0.453403 0.513034 0.430815
9131 3 0.459749 0.509446 0.427514
9132 1 0.466491 0.504825 0.42541
16519 1 0.498245 0.492319 0.43095
1714 1 0.497733 0.494234 0.428791
1715 3 0.496618 0.499999 0.421962
16520 3 0.499027 0.486398 0.436308
12164 2 0.517168 0.489815 0.415
1716 1 0.499479 0.506245 0.416966
17283 1 0.500841 0.508837 0.415844
12165 1 0.522878 0.496621 0.415495
17232 1 0.524398 0.498957 0.415307
17230 1 0.528315 0.513418 0.416169
17231 2 0.52777 0.505738 0.413214
6482 3 0.387072 0.527667 0.435634
6481 1 0.380055 0.525456 0.43895
6483 1 0.394306 0.529152 0.436799
1945 1 0.396905 0.529333 0.437159
1946 3 0.404606 0.531211 0.438877
2471 3 0.425741 0.519245 0.427658
2472 1 0.417918 0.515394 0.428722
2470 1 0.431544 0.524892 0.426589
8888 2 0.40902 0.533119 0.410753
8889 1 0.413776 0.535934 0.415603
16392 1 0.415754 0.536661 0.417419
16391 3 0.420113 0.539822 0.422774
16390 1 0.420094 0.545131 0.429233
5126 3 0.444919 0.51697 0.436845
11784 1 0.463711 0.541922 0.43306
12483 1 0.461194 0.540716 0.433831
18249 1 0.444907 0.538048 0.441994
12481 1 0.447315 0.538239 0.439882
12482 3 0.454213 0.538439 0.436363
9622 1 0.476386 0.520738 0.440153
11783 3 0.471039 0.545117 0.431095
12832 1 0.497923 0.536771 0.411257
18327 1 0.529801 0.53007 0.422996
17282 2 0.505291 0.51559 0.412011
12833 2 0.501744 0.539707 0.418401
12834 1 0.500905 0.534917 0.424626
8670 1 0.501345 0.532575 0.426702
8965 1 0.508406 0.545427 0.437797
8669 3 0.501468 0.526218 0.430872
8668 1 0.50865 0.525229 0.434954
2064 1 0.511757 0.524668 0.436402
18325 1 0.52808 0.516036 0.417348
2063 2 0.518818 0.523628 0.439676
2062 1 0.525934 0.523541 0.440568
14329 1 0.528491 0.523728 0.441185
18326 2 0.525815 0.522603 0.42059
20314 1 0.435677 0.550936 0.419
11329 1 0.420372 0.546786 0.431527
11330 3 0.421446 0.550208 0.437855
20315 3 0.442964 0.551244 0.414868
5912 3 0.463346 0.555735 0.413945
20316 1 0.451817 0.551478 0.415638
5913 1 0.455327 0.552425 0.415243
11782 1 0.477534 0.548001 0.429863
15231 1 0.480139 0.549219 0.428818
15230 3 0.486065 0.552582 0.426764
1055 2 0.498748 0.566332 0.423986
15229 1 0.49042 0.557439 0.426358
1056 1 0.49278 0.559791 0.425526
6261 1 0.468106 0.565575 0.441856
6260 2 0.470883 0.572112 0.438084
18332 2 0.520725 0.551166 0.413604
17449 1 0.51069 0.545662 0.435844
17451 1 0.517951 0.548096 0.423112
17450 2 0.516153 0.546431 0.42992
18331 1 0.518321 0.549092 0.420316
1054 1 0.504116 0.568157 0.417877
13362 1 0.506644 0.568232 0.415573
6216 1 0.528662 0.573177 0.439409
15955 1 0.52874 0.570507 0.440929
3893 2 0.454824 0.60154 0.415694
3892 1 0.448439 0.598109 0.411853
3894 1 0.460562 0.60533 0.41961
8409 1 0.467008 0.594439 0.436411
18719 2 0.481817 0.601167 0.411513
6259 1 0.475579 0.575833 0.4323
18720 1 0.480611 0.594525 0.416194
2638 1 0.480599 0.591795 0.417326
2639 2 0.481227 0.584939 0.419696
2640 1 0.484447 0.584059 0.426623
8241 1 0.485976 0.584148 0.429373
8240 2 0.49051 0.584219 0.435026
8239 1 0.497487 0.587666 0.438443
2979 1 0.528522 0.598453 0.432363
21458 2 0.523934 0.587169 0.418142
18870 1 0.525865 0.598407 0.415844
21459 1 0.52564 0.59523 0.416797
6215 2 0.527655 0.580935 0.436446
6214 1 0.525046 0.583299 0.428605
18363 1 0.50231 0.59975 0.425898
21457 1 0.524283 0.584215 0.425761
20554 1 0.502426 0.596298 0.425429
20555 2 0.504193 0.589127 0.421114
20556 1 0.504132 0.590118 0.413233
2978 2 0.522151 0.599909 0.43533
2977 1 0.515095 0.597361 0.438611
20617 1 0.49992 0.588997 0.439276
20619 1 0.512609 0.596376 0.439665
2941 1 0.404243 0.620728 0.423399
2942 2 0.396026 0.62331 0.423567
2943 1 0.391997 0.616018 0.426025
11379 1 0.418997 0.608405 0.413916
8683 1 0.417365 0.610862 0.416115
8684 3 0.413394 0.615201 0.42192
8685 1 0.406585 0.619607 0.42356
19822 1 0.44337 0.612443 0.439748
19823 2 0.44193 0.616998 0.432499
9755 2 0.44834 0.628775 0.4215
9756 1 0.446781 0.634353 0.415777
19824 1 0.444135 0.622819 0.428339
9754 1 0.445423 0.624853 0.42631
14518 1 0.462656 0.606792 0.42143
14519 2 0.466607 0.61186 0.427051
20906 2 0.467259 0.62978 0.432884
8246 2 0.475197 0.627408 0.413711
8247 1 0.475719 0.635691 0.414298
14520 1 0.467712 0.618671 0.428768
20907 1 0.46776 0.621623 0.429317
18361 1 0.497239 0.612768 0.424255
10828 1 0.495044 0.614764 0.424086
10829 2 0.489705 0.619276 0.423886
10830 1 0.483481 0.621844 0.41931
8245 1 0.481409 0.623116 0.417532
20905 1 0.473238 0.632453 0.436349
2229 1 0.476236 0.634366 0.437843
18362 2 0.502406 0.608298 0.425963
18869 2 0.526852 0.6065 0.412884
1285 1 0.514155 0.621966 0.426526
1286 2 0.515373 0.622493 0.418793
1287 1 0.511412 0.621108 0.412373
13717 1 0.514388 0.621491 0.429369
16805 2 0.52758 0.633858 0.433861
13718 2 0.513029 0.6214 0.436791
13719 1 0.508686 0.616966 0.441581
14236 1 0.475335 0.638762 0.413924
14237 2 0.47251 0.64579 0.412758
2228 2 0.480891 0.638436 0.44106
1357 1 0.489121 0.639998 0.432906
2227 1 0.486842 0.639284 0.435304
3721 1 0.496624 0.664423 0.42387
3722 2 0.489144 0.664194 0.427158
4476 1 0.496028 0.638123 0.416475
1358 2 0.49289 0.642833 0.426577
1359 1 0.495024 0.638987 0.41871
17844 1 0.526627 0.660724 0.433027
5400 1 0.499611 0.663777 0.42256
5399 2 0.506516 0.660673 0.420864
16804 1 0.522051 0.638575 0.431982
18018 1 0.520298 0.640143 0.431211
18017 2 0.515114 0.644532 0.42905
18016 1 0.511779 0.651878 0.425685
5398 1 0.510226 0.654651 0.424382
21560 2 0.516866 0.662961 0.439186
21561 1 0.509816 0.659883 0.441022
19654 1 0.507192 0.659111 0.441553
21559 1 0.524073 0.661195 0.435333
3723 1 0.487951 0.666956 0.433766
3717 1 0.487218 0.66808 0.436301
2350 1 0.484944 0.689766 0.423194
2351 2 0.488656 0.684444 0.41995
2352 1 0.488831 0.679534 0.413734
319 1 0.488726 0.677495 0.410831
1494 1 0.523704 0.670866 0.413119
4903 1 0.522974 0.673204 0.414777
4904 2 0.522207 0.679695 0.418874
13472 2 0.510064 0.69342 0.422904
4905 1 0.516631 0.685708 0.420417
13471 1 0.514829 0.688695 0.421282
993 1 0.527959 0.68652 0.440305
11328 1 0.508923 0.682461 0.440364
991 1 0.511716 0.683035 0.440887
11327 2 0.502375 0.680777 0.439692
2968 1 0.496134 0.715209 0.416584
18271 1 0.495366 0.717586 0.414913
18272 3 0.49377 0.724028 0.410992
2969 2 0.499822 0.708711 0.42129
13473 1 0.505948 0.69976 0.421895
2970 1 0.504277 0.702523 0.421401
16190 2 0.529781 0.705371 0.425605
19848 1 0.524283 0.706199 0.416504
16191 1 0.525634 0.706315 0.41921
18273 1 0.493505 0.731782 0.411151
4298 2 0.452474 0.448778 0.45765
4297 1 0.449723 0.441457 0.45537
4467 1 0.473416 0.445776 0.459534
4466 3 0.474688 0.451069 0.454113
14928 1 0.363381 0.480542 0.442928
19347 1 0.365843 0.482088 0.443893
20549 3 0.432972 0.476626 0.442196
13059 1 0.424575 0.476522 0.450318
20550 1 0.426461 0.476686 0.448153
13058 3 0.420022 0.475976 0.45642
13057 1 0.42044 0.473293 0.463773
6487 1 0.421196 0.472277 0.466501
6488 3 0.423605 0.469974 0.473015
4299 1 0.45413 0.455853 0.461132
18442 1 0.454116 0.458142 0.461943
18443 3 0.456023 0.465384 0.46492
14047 1 0.458465 0.475702 0.468974
18444 1 0.457725 0.472827 0.467965
14048 3 0.459605 0.483659 0.471913
11454 1 0.495035 0.481378 0.443363
4465 1 0.478362 0.455694 0.44943
4273 1 0.472092 0.47361 0.442683
4274 3 0.470262 0.473416 0.451232
4275 1 0.473049 0.476229 0.459125
11453 3 0.492166 0.478034 0.451254
11452 1 0.49778 0.473281 0.453754
13254 1 0.474526 0.477176 0.461195
13253 3 0.478656 0.479891 0.466515
13252 1 0.479313 0.483337 0.472818
15301 1 0.506056 0.464476 0.464534
15302 3 0.504832 0.46715 0.471973
19346 3 0.373289 0.485324 0.445044
10770 1 0.371893 0.497114 0.471132
19345 1 0.377213 0.493139 0.445012
20454 1 0.388447 0.488162 0.461459
20453 3 0.395702 0.485915 0.462908
20452 1 0.400323 0.485901 0.469361
18924 1 0.40149 0.485129 0.471674
18614 3 0.394875 0.512085 0.447358
18613 1 0.398409 0.505008 0.445973
20086 1 0.399724 0.50236 0.445982
16417 1 0.374131 0.49853 0.46979
16418 3 0.380494 0.503196 0.467047
16419 1 0.387643 0.506353 0.465606
4471 1 0.390667 0.507005 0.465842
4472 3 0.399016 0.508823 0.465869
20087 3 0.40568 0.496528 0.446029
19913 3 0.430882 0.5075 0.444995
11787 1 0.419817 0.501482 0.467902
17904 1 0.419403 0.502047 0.470775
11785 1 0.426877 0.50285 0.455138
11786 3 0.422143 0.500444 0.460036
19912 1 0.428605 0.504436 0.452927
4473 1 0.406149 0.512926 0.464967
930 1 0.40916 0.514591 0.464706
18094 1 0.455737 0.486387 0.443387
3820 1 0.457267 0.488667 0.445002
12537 1 0.440754 0.494019 0.469863
7497 1 0.442157 0.495979 0.467496
7496 3 0.445001 0.501558 0.462411
7495 1 0.449372 0.507684 0.461454
3821 3 0.4613 0.493631 0.448821
3822 1 0.465884 0.49771 0.453617
12276 1 0.450856 0.510714 0.461213
1689 1 0.467698 0.49908 0.455396
1688 3 0.472835 0.502426 0.460809
4180 1 0.469908 0.507339 0.471009
1687 1 0.470632 0.506028 0.468271
1116 1 0.49371 0.507286 0.460034
3375 1 0.493223 0.509756 0.458759
1115 3 0.495154 0.500938 0.463393
3005 3 0.520256 0.49968 0.468169
8829 1 0.529786 0.493945 0.468185
3006 1 0.527733 0.496086 0.468399
3004 1 0.519985 0.507391 0.464959
3352 1 0.515076 0.490594 0.451807
3354 1 0.503037 0.496823 0.457197
1114 1 0.501048 0.49792 0.459246
3353 3 0.508503 0.495417 0.452891
19773 1 0.51918 0.510351 0.463505
755 2 0.340826 0.525366 0.459968
756 1 0.33401 0.523565 0.463569
5503 1 0.371829 0.526945 0.456381
6100 1 0.368678 0.527528 0.456309
754 1 0.348615 0.525812 0.457351
6102 1 0.351469 0.526443 0.456616
6101 3 0.360041 0.529308 0.455911
18615 1 0.392605 0.519282 0.450667
5504 3 0.379863 0.524531 0.457112
5505 1 0.387893 0.527199 0.457771
3976 1 0.390291 0.527815 0.458231
3977 3 0.398376 0.530158 0.458959
3978 1 0.405117 0.535949 0.461285
1947 1 0.411026 0.53111 0.443466
4291 1 0.413656 0.531103 0.444435
4292 3 0.420097 0.530979 0.447952
4293 1 0.428042 0.533923 0.44645
18247 1 0.430616 0.534849 0.446652
10522 1 0.40658 0.537306 0.46163
10523 3 0.412021 0.54233 0.463629
10524 1 0.418269 0.542822 0.466459
5010 1 0.420448 0.542737 0.46802
5009 3 0.426035 0.543275 0.473341
929 3 0.415646 0.519325 0.465203
928 1 0.421993 0.518999 0.470245
2478 1 0.424452 0.518477 0.471685
18248 3 0.437753 0.536563 0.445958
12275 3 0.452915 0.518801 0.461411
12274 1 0.454765 0.526198 0.45855
4230 1 0.46746 0.532871 0.449001
4229 3 0.464239 0.53869 0.453636
8967 1 0.495197 0.539806 0.444689
9623 3 0.468665 0.522633 0.444273
9624 1 0.468273 0.530387 0.447739
3374 3 0.49087 0.516157 0.456742
3373 1 0.488416 0.522823 0.452026
830 3 0.487939 0.533204 0.447242
831 1 0.488218 0.525679 0.450876
829 1 0.493574 0.53863 0.444976
20254 1 0.489128 0.544544 0.469071
20255 3 0.483455 0.539086 0.471099
20256 1 0.477819 0.536255 0.473558
8966 2 0.501913 0.544711 0.443021
10283 2 0.526437 0.544889 0.452329
10284 1 0.521392 0.541049 0.457469
19702 1 0.519206 0.540001 0.459772
19703 3 0.513863 0.538311 0.465886
19704 1 0.511945 0.541888 0.472687
19772 2 0.516172 0.517557 0.461958
19771 1 0.510373 0.519279 0.466717
7047 1 0.508261 0.519988 0.468648
11331 1 0.421824 0.554877 0.444964
18802 1 0.421407 0.556239 0.447757
18803 3 0.421477 0.558881 0.454524
18804 1 0.423261 0.566731 0.458472
12952 1 0.423843 0.569152 0.459661
17466 1 0.443498 0.554026 0.460508
17465 3 0.449695 0.550127 0.464585
4228 1 0.462535 0.546513 0.44989
20932 1 0.462355 0.549473 0.448855
17464 1 0.455875 0.551016 0.468985
10408 1 0.458683 0.551378 0.470309
10655 3 0.456953 0.57316 0.459222
10656 1 0.464925 0.572747 0.459905
17730 1 0.467623 0.572737 0.46013
20933 3 0.461413 0.556728 0.446121
20934 1 0.466471 0.563033 0.443233
10409 3 0.465817 0.551799 0.473197
15423 1 0.491328 0.546701 0.468055
15422 3 0.496178 0.551311 0.465034
17729 2 0.475965 0.573261 0.460899
3055 1 0.486695 0.574977 0.455863
17728 1 0.48374 0.574551 0.456729
3056 2 0.494269 0.575577 0.452581
15956 2 0.5294 0.563045 0.444197
15421 1 0.501576 0.557567 0.464203
15957 1 0.528547 0.554752 0.447594
10282 1 0.528041 0.551885 0.448941
7819 1 0.503618 0.559725 0.464267
7820 2 0.508582 0.564743 0.464776
7821 1 0.51335 0.571235 0.46326
5280 1 0.515008 0.57316 0.462216
12953 3 0.424777 0.576262 0.463798
12954 1 0.429987 0.583361 0.462577
12112 1 0.431961 0.586179 0.46129
12113 3 0.435819 0.590947 0.458758
10654 1 0.453111 0.578864 0.463729
7480 1 0.464467 0.605405 0.448815
8408 2 0.463124 0.59656 0.442556
8407 1 0.464355 0.603221 0.447371
20085 1 0.440788 0.59945 0.453053
20084 2 0.443007 0.605945 0.448993
12114 1 0.439491 0.596742 0.454878
289 1 0.465697 0.589717 0.469686
290 3 0.457223 0.588508 0.471888
291 1 0.450012 0.585748 0.47313
4294 1 0.468567 0.590753 0.468811
16641 1 0.484389 0.595191 0.462053
4296 1 0.481605 0.595095 0.462568
4295 2 0.47423 0.59494 0.465653
16640 2 0.492058 0.594782 0.460463
16639 1 0.498692 0.595021 0.459647
16492 1 0.527329 0.585897 0.458234
8779 1 0.501449 0.595412 0.460111
3057 1 0.502451 0.57774 0.450459
8780 2 0.507598 0.597807 0.462222
8781 1 0.505969 0.604777 0.465782
5278 1 0.525786 0.583491 0.458406
5279 2 0.520938 0.577712 0.458247
20618 2 0.506396 0.591824 0.442749
7481 3 0.465702 0.611446 0.455134
20083 1 0.443417 0.610359 0.4423
7482 1 0.472994 0.610472 0.451826
14218 1 0.475912 0.610434 0.450884
5583 1 0.493342 0.612379 0.446907
14219 2 0.483225 0.609488 0.447338
14220 1 0.489985 0.611876 0.447186
7262 2 0.48317 0.617351 0.467692
7261 1 0.489379 0.623871 0.46668
5582 2 0.501309 0.612449 0.447437
14387 2 0.503943 0.614292 0.471201
14388 1 0.505844 0.62192 0.468337
3153 1 0.507252 0.62435 0.467213
14386 1 0.505368 0.607226 0.467118
5581 1 0.507299 0.615643 0.442699
9010 1 0.521997 0.613508 0.447554
9011 2 0.521177 0.615067 0.455015
9012 1 0.522717 0.614231 0.463298
3152 2 0.50976 0.631111 0.463481
3151 1 0.512165 0.635884 0.459052
6177 1 0.523652 0.613949 0.466415
19656 1 0.493875 0.651987 0.447119
19655 2 0.500526 0.655987 0.444098
12187 1 0.513456 0.637428 0.45735
513 1 0.526483 0.646169 0.449944
12188 2 0.517121 0.642243 0.452857
12189 1 0.523773 0.645108 0.451013
3637 1 0.511886 0.658894 0.468312
13596 1 0.512958 0.660795 0.466277
13595 2 0.516866 0.666625 0.462829
9969 1 0.484502 0.672052 0.452379
3716 2 0.483352 0.671936 0.442174
3715 1 0.48398 0.671782 0.449701
9968 2 0.485277 0.672037 0.461382
9967 1 0.486706 0.670816 0.468575
14614 1 0.487344 0.670062 0.470989
992 2 0.519647 0.685642 0.443432
13594 1 0.52399 0.667461 0.460297
5337 1 0.502293 0.684045 0.450411
11326 1 0.502373 0.682893 0.447712
5336 2 0.50062 0.686279 0.456853
5335 1 0.501392 0.690289 0.464101
16939 1 0.501542 0.692799 0.467107
2913 1 0.527148 0.668092 0.459126
3496 1 0.524716 0.690311 0.464218
3497 2 0.520193 0.685806 0.467648
3498 1 0.516119 0.682707 0.473066
2734 1 0.527368 0.691582 0.462133
9642 1 0.498725 0.719816 0.464717
16403 3 0.493375 0.722216 0.473106
16404 1 0.497093 0.720373 0.467257
5630 3 0.525015 0.72295 0.460422
5631 1 0.516682 0.720358 0.46004
9641 2 0.504503 0.719218 0.459601
9640 1 0.513158 0.720194 0.459849
16940 2 0.500789 0.697239 0.47349
18923 3 0.40645 0.484326 0.478974
18922 1 0.411193 0.481595 0.484969
6489 1 0.427179 0.470304 0.479559
9169 1 0.429241 0.470327 0.481821
9170 3 0.43571 0.471177 0.487509
5790 1 0.412467 0.480664 0.487406
5788 1 0.417781 0.484461 0.498978
5789 3 0.415705 0.479382 0.493988
9171 1 0.444083 0.469656 0.489195
14508 1 0.446957 0.469281 0.489597
14507 3 0.454713 0.468155 0.491267
14506 1 0.462748 0.469016 0.492999
5107 1 0.465859 0.469151 0.493686
5108 3 0.47431 0.470149 0.496508
5109 1 0.481539 0.467998 0.494857
5757 1 0.483723 0.466624 0.494419
5756 3 0.490533 0.462985 0.493246
5755 1 0.49057 0.455262 0.493046
18754 1 0.480247 0.484789 0.474863
7131 1 0.521076 0.471806 0.482098
819 1 0.524254 0.456822 0.488005
15303 1 0.510601 0.472154 0.475049
7129 1 0.513124 0.473993 0.476696
7130 3 0.517919 0.478993 0.481142
17005 1 0.515919 0.480933 0.504108
12057 1 0.513445 0.482943 0.503722
818 2 0.525936 0.461414 0.482952
817 1 0.522464 0.468713 0.482335
10768 1 0.363653 0.492898 0.480672
10769 3 0.367812 0.492413 0.47467
4873 1 0.372404 0.502984 0.488491
4874 3 0.376727 0.50621 0.496514
4875 1 0.381173 0.510804 0.502408
15730 1 0.382758 0.511946 0.50431
17903 3 0.416481 0.502625 0.478109
16027 1 0.418294 0.486482 0.500803
12535 1 0.432897 0.487199 0.476222
17902 1 0.416817 0.507529 0.485264
10525 1 0.417283 0.50895 0.488955
10526 3 0.417258 0.511782 0.495967
16028 3 0.42002 0.491638 0.504848
14049 1 0.460538 0.486945 0.479545
12536 3 0.438461 0.491356 0.47649
4181 3 0.467294 0.51044 0.477576