ITEM: TIMESTEP
50000000
ITEM: NUMBER OF ENTRIES
3341
ITEM: BOX BOUNDS pp pp pp
0 50
0 50
0 50
ITEM: ENTRIES c_binfo[1] c_binfo[2] c_binfo[3] 
2 10573 10574 
1 10573 12858 
2 10574 10575 
1 2982 19708 
2 2980 2981 
2 2981 2982 
3 19708 19709 
3 10067 10068 
3 10066 10067 
3 4304 4305 
1 4305 10068 
2 8569 8570 
2 8570 8571 
1 8571 10197 
3 10196 10197 
2 11963 11964 
2 11962 11963 
1 11964 17838 
3 17837 17838 
2 15731 15732 
3 3452 3453 
3 18061 18062 
3 18062 18063 
3 3451 3452 
1 3451 13560 
3 3962 3963 
3 3961 3962 
1 3961 18036 
2 8023 8024 
2 8024 8025 
2 18125 18126 
2 18124 18125 
1 9948 13080 
2 9947 9948 
2 9946 9947 
3 13079 13080 
3 4858 4859 
3 4859 4860 
2 12856 12857 
1 12856 20992 
3 20992 20993 
3 20993 20994 
1 4860 8712 
3 12694 12695 
2 12857 12858 
3 12695 12696 
2 10552 10553 
1 10552 12696 
2 10553 10554 
3 16927 16928 
3 16928 16929 
1 4293 10554 
3 12035 12036 
3 7525 7526 
1 7525 12036 
3 15439 15440 
3 12034 12035 
1 7527 15763 
3 7526 7527 
3 15763 15764 
3 15764 15765 
3 13078 13079 
1 13078 21349 
3 21349 21350 
3 21350 21351 
3 17938 17939 
1 17938 20994 
3 2021 2022 
3 9508 9509 
1 2022 9508 
3 19709 19710 
3 2020 2021 
1 2020 19710 
3 13064 13065 
3 13063 13064 
1 13063 15765 
3 17939 17940 
1 19119 19678 
1 17940 19117 
3 19118 19119 
3 19117 19118 
3 19678 19679 
3 19679 19680 
3 4292 4293 
3 4291 4292 
1 4291 21160 
3 21160 21161 
3 32 33 
3 10795 10796 
3 10796 10797 
3 6826 6827 
3 31 32 
1 31 5433 
2 5432 5433 
2 5431 5432 
1 5431 5821 
3 5821 5822 
3 6827 6828 
1 6828 16717 
2 16717 16718 
2 16718 16719 
3 6266 6267 
3 19907 19908 
3 19906 19907 
2 18088 18089 
1 3930 19906 
2 17650 17651 
2 17651 17652 
1 16737 17652 
2 16736 16737 
1 10797 21027 
2 21026 21027 
2 21025 21026 
3 10195 10196 
1 10195 13701 
3 13700 13701 
3 13699 13700 
1 13699 20815 
3 20815 20816 
1 10326 21025 
3 5822 5823 
3 10325 10326 
3 18962 18963 
1 6270 16719 
3 14333 14334 
3 14332 14333 
3 10963 10964 
1 10963 14332 
3 10964 10965 
3 6269 6270 
3 18961 18962 
3 15283 15284 
1 15283 18961 
3 17836 17837 
3 6268 6269 
1 6268 18004 
3 18004 18005 
3 18005 18006 
3 12391 12392 
1 12391 18006 
2 9998 9999 
2 9997 9998 
3 2194 2195 
1 2194 9997 
2 18089 18090 
3 6577 6578 
1 6577 18090 
3 6578 6579 
1 6579 10339 
3 10339 10340 
3 10340 10341 
3 3332 3333 
3 3331 3332 
1 3331 8637 
1 7872 18063 
2 16735 16736 
1 16735 19731 
3 19730 19731 
3 19729 19730 
3 4450 4451 
1 4450 19729 
3 4451 4452 
3 20816 20817 
3 13559 13560 
3 349 350 
1 349 4452 
3 13558 13559 
1 4833 13558 
3 15284 15285 
3 9358 9359 
1 9358 20817 
3 9359 9360 
3 4832 4833 
1 9360 12873 
3 4831 4832 
1 4831 18826 
1 15285 15622 
3 6436 6437 
1 6436 17836 
3 6437 6438 
3 15622 15623 
3 18035 18036 
3 15623 15624 
1 114 15624 
3 113 114 
3 12392 12393 
3 112 113 
1 112 21136 
1 6438 7581 
3 18034 18035 
3 21136 21137 
2 15730 15731 
1 1803 15730 
2 1802 1803 
3 2195 2196 
1 2196 9564 
2 1801 1802 
1 1801 15198 
3 15197 15198 
3 15196 15197 
1 8025 19491 
1 14364 15196 
3 14363 14364 
3 10648 10649 
1 10648 18124 
1 10341 12262 
3 12262 12263 
3 12263 12264 
3 10649 10650 
1 10650 15756 
3 15755 15756 
3 14362 14363 
3 13591 13592 
1 13591 14362 
3 15754 15755 
3 8782 8783 
1 8782 15754 
3 8711 8712 
3 361 362 
3 362 363 
1 363 2421 
3 2420 2421 
3 2419 2420 
1 2419 14293 
3 14293 14294 
3 8783 8784 
3 7871 7872 
3 18826 18827 
3 14294 14295 
3 7870 7871 
1 7870 15043 
3 15043 15044 
3 15044 15045 
3 350 351 
1 351 4087 
3 4087 4088 
1 15045 16120 
3 16120 16121 
3 16121 16122 
3 18827 18828 
3 3124 3125 
1 3124 16929 
3 10921 10922 
1 10921 18034 
1 18828 20241 
3 20240 20241 
3 20239 20240 
1 6312 20239 
3 3125 3126 
3 6311 6312 
2 1939 1940 
2 1940 1941 
3 19490 19491 
3 2683 2684 
1 2683 19489 
3 19489 19490 
3 2684 2685 
1 2685 20278 
3 20278 20279 
3 7468 7469 
1 7468 20280 
3 13592 13593 
3 15440 15441 
3 2837 2838 
3 2836 2837 
1 2836 17788 
3 20279 20280 
3 17788 17789 
3 17789 17790 
1 17790 21574 
1 741 13593 
3 21574 21575 
3 740 741 
3 7469 7470 
1 6222 15441 
3 14140 14141 
1 14140 20242 
1 20244 21351 
3 20243 20244 
3 21575 21576 
1 8784 10557 
3 10556 10557 
3 10555 10556 
1 10555 18238 
3 18238 18239 
3 20242 20243 
1 171 21576 
3 8710 8711 
1 8710 10126 
3 10126 10127 
1 14295 16549 
3 18239 18240 
3 10127 10128 
1 1500 10128 
3 1499 1500 
3 16549 16550 
3 1498 1499 
1 1498 9064 
3 9064 9065 
3 16550 16551 
3 21161 21162 
1 1428 16122 
3 10631 10632 
3 1427 1428 
3 10630 10631 
3 1426 1427 
1 1426 10630 
3 8611 8612 
1 8611 21162 
1 3126 3690 
3 919 920 
1 919 10632 
2 19567 19568 
2 593 594 
2 592 593 
1 592 14634 
2 19568 19569 
3 14633 14634 
2 17879 17880 
2 17878 17879 
3 5995 5996 
1 5995 17878 
1 19569 19803 
2 19802 19803 
3 15481 15482 
1 15481 19801 
2 19801 19802 
2 20540 20541 
2 3929 3930 
2 5402 5403 
2 5401 5402 
1 5401 9000 
2 5372 5373 
2 16531 16532 
2 8999 9000 
2 8998 8999 
1 8998 10947 
3 10946 10947 
3 667 668 
3 3829 3830 
1 3829 5823 
3 668 669 
3 3830 3831 
1 669 12955 
3 12955 12956 
3 12956 12957 
1 3831 7950 
1 10965 19287 
3 6265 6266 
1 5673 6265 
3 926 927 
3 5996 5997 
1 5997 14602 
3 14602 14603 
3 14603 14604 
3 5672 5673 
3 5671 5672 
1 5671 20923 
1 14604 16408 
3 20923 20924 
3 20924 20925 
3 16408 16409 
3 15482 15483 
3 16459 16460 
1 16459 20925 
3 7909 7910 
2 4639 4640 
3 7996 7997 
3 7997 7998 
2 3928 3929 
1 3928 13692 
2 4640 4641 
3 64 65 
1 64 4641 
3 65 66 
3 13691 13692 
2 15661 15662 
2 5371 5372 
1 5371 15661 
1 7998 18358 
3 18358 18359 
3 10945 10946 
1 10945 20325 
3 13690 13691 
1 1161 13690 
3 1160 1161 
3 20324 20325 
3 1159 1160 
1 1159 14842 
3 14842 14843 
2 15662 15663 
3 10996 10997 
1 10996 15663 
3 8636 8637 
3 8635 8636 
1 8635 20286 
3 10324 10325 
1 10324 18493 
3 18493 18494 
3 20323 20324 
3 18494 18495 
3 1120 1121 
1 1120 18495 
3 18691 18692 
1 18691 20323 
1 12957 18264 
3 18692 18693 
3 2764 2765 
1 2764 18693 
3 18263 18264 
3 19286 19287 
3 7949 7950 
3 12872 12873 
3 1121 1122 
3 7948 7949 
1 7948 10042 
3 10042 10043 
3 10043 10044 
1 10044 21495 
1 1122 14830 
3 14830 14831 
3 16409 16410 
3 12871 12872 
1 12871 17511 
3 21494 21495 
3 19285 19286 
3 15226 15227 
1 15226 19285 
3 15227 15228 
3 3052 3053 
1 3052 15228 
3 3053 3054 
3 21493 21494 
1 2703 16410 
3 7910 7911 
3 9563 9564 
3 9562 9563 
1 9562 19329 
3 18359 18360 
1 7911 20859 
3 20858 20859 
3 20857 20858 
3 9175 9176 
1 9175 20857 
3 19328 19329 
3 5368 5369 
1 5368 18360 
3 9176 9177 
3 10174 10175 
1 10174 12264 
3 10175 10176 
3 5369 5370 
3 14843 14844 
1 3024 5370 
3 3023 3024 
3 20285 20286 
1 10176 20446 
3 20446 20447 
3 14260 14261 
1 14260 14844 
3 20284 20285 
3 14794 14795 
1 14794 20284 
3 2765 2766 
3 14261 14262 
3 10000 10001 
1 10000 14262 
3 20447 20448 
3 10001 10002 
3 4088 4089 
3 14795 14796 
1 2694 2766 
1 4089 20127 
1 14796 15420 
3 14831 14832 
3 12520 12521 
1 12520 14832 
3 15419 15420 
3 12521 12522 
1 12093 21493 
3 20126 20127 
3 17510 17511 
3 17509 17510 
3 15172 15173 
1 15172 17509 
3 15173 15174 
1 12420 12522 
3 12419 12420 
3 12092 12093 
3 12418 12419 
3 20125 20126 
1 20125 21022 
1 8991 12418 
3 8638 8639 
1 1941 14290 
3 14290 14291 
3 19327 19328 
3 20929 20930 
3 19033 19034 
1 19033 19327 
3 20930 20931 
1 8259 20931 
3 8258 8259 
3 14291 14292 
1 14292 21007 
3 21007 21008 
3 8257 8258 
3 13625 13626 
3 19034 19035 
1 6 19035 
3 5 6 
3 4 5 
1 4 13624 
3 3022 3023 
1 3022 15132 
3 13624 13625 
3 2440 2441 
1 2440 8257 
1 4836 12069 
3 739 740 
1 276 739 
3 275 276 
3 15131 15132 
3 12068 12069 
3 15130 15131 
1 15162 20448 
3 15161 15162 
3 12067 12068 
1 12067 15130 
3 274 275 
1 274 8646 
1 2658 18240 
3 15700 15701 
3 15160 15161 
3 15418 15419 
1 12642 16551 
3 6985 6986 
1 6985 15160 
1 6987 15700 
3 6986 6987 
3 6001 6002 
1 6001 15418 
3 6002 6003 
3 2657 2658 
3 15701 15702 
3 12641 12642 
3 12640 12641 
1 12640 17757 
3 1057 1058 
1 1057 6003 
3 1058 1059 
3 21022 21023 
1 12039 21024 
3 21023 21024 
3 12038 12039 
3 17756 17757 
3 7409 7410 
3 7408 7409 
1 7408 7858 
3 7858 7859 
3 7859 7860 
1 7860 13446 
3 796 797 
2 10619 10620 
2 10618 10619 
1 5832 10618 
2 20788 20789 
3 13445 13446 
3 13444 13445 
1 6336 13444 
2 6335 6336 
2 6334 6335 
2 19465 19466 
1 6132 19465 
3 20023 20024 
3 4825 4826 
2 19466 19467 
3 797 798 
1 798 18196 
2 18196 18197 
2 2650 2651 
2 6536 6537 
1 6537 18198 
2 18197 18198 
2 6535 6536 
1 6535 14797 
2 16532 16533 
3 5831 5832 
3 5830 5831 
1 5830 12156 
2 3421 3422 
1 3421 16533 
2 3422 3423 
1 3423 10873 
3 10873 10874 
2 13772 13773 
2 20789 20790 
3 12155 12156 
3 12154 12155 
1 12154 21478 
3 21478 21479 
3 21479 21480 
1 16383 20790 
1 2697 6334 
2 20329 20330 
3 2696 2697 
3 925 926 
1 925 15768 
2 16382 16383 
2 16381 16382 
3 14548 14549 
1 14548 16381 
3 14549 14550 
2 20330 20331 
3 2695 2696 
1 2695 13105 
3 13105 13106 
1 15483 17472 
3 17470 17471 
1 17470 18328 
3 17471 17472 
3 13106 13107 
3 20024 20025 
3 7117 7118 
1 7117 13107 
1 9081 20331 
3 16918 16919 
1 16918 20025 
2 2651 2652 
2 14797 14798 
1 2652 12310 
2 12310 12311 
2 12311 12312 
1 9300 12312 
2 9299 9300 
3 10874 10875 
2 14798 14799 
3 10997 10998 
2 14861 14862 
3 11878 11879 
1 11878 14862 
1 10998 12454 
3 12454 12455 
1 14799 14860 
2 14860 14861 
2 9298 9299 
1 4719 9298 
1 16197 21480 
3 16196 16197 
3 11879 11880 
3 3025 3026 
1 3025 10875 
3 3026 3027 
1 3027 10470 
3 10469 10470 
3 15767 15768 
3 18262 18263 
1 4800 18262 
3 4799 4800 
3 16195 16196 
1 13257 16195 
3 15766 15767 
1 10293 15766 
3 13256 13257 
3 13255 13256 
3 3217 3218 
1 3217 13255 
3 4798 4799 
1 4798 13741 
3 10292 10293 
3 3218 3219 
3 13741 13742 
1 14550 18924 
3 7118 7119 
3 2702 2703 
3 10291 10292 
1 7119 16026 
3 1351 1352 
1 1351 10291 
3 1352 1353 
1 1353 18739 
3 18739 18740 
3 16025 16026 
3 2701 2702 
1 2701 5466 
1 66 19518 
3 3797 3798 
3 3796 3797 
1 3796 19374 
2 19373 19374 
2 19372 19373 
1 3783 19372 
2 3782 3783 
3 19517 19518 
3 19516 19517 
1 9861 19516 
3 9860 9861 
3 9859 9860 
1 8040 9859 
3 4718 4719 
3 4717 4718 
1 4717 10240 
3 10240 10241 
3 10241 10242 
3 10468 10469 
1 10468 12690 
3 12455 12456 
1 855 12456 
3 854 855 
3 853 854 
1 853 1507 
3 1507 1508 
1 4899 10242 
3 4898 4899 
3 8039 8040 
3 1508 1509 
3 2693 2694 
3 2692 2693 
1 2692 18489 
3 12689 12690 
3 13742 13743 
3 12688 12689 
1 12688 14868 
3 14867 14868 
3 14866 14867 
3 18488 18489 
3 18487 18488 
1 10614 14866 
3 12091 12092 
1 12091 18129 
1 7629 13743 
3 7628 7629 
3 7627 7628 
3 3433 3434 
1 3433 7627 
3 3434 3435 
3 18740 18741 
2 6191 6192 
1 1050 9177 
3 1049 1050 
3 1048 1049 
1 1048 20622 
3 20621 20622 
2 3781 3782 
1 3781 19827 
3 19826 19827 
3 19825 19826 
1 11784 19825 
3 11783 11784 
3 20620 20621 
1 10002 18504 
3 8038 8039 
1 6816 8038 
3 6815 6816 
3 13156 13157 
3 6814 6815 
1 6814 13156 
3 13157 13158 
3 14350 14351 
1 14350 20620 
1 2226 13158 
1 2031 9852 
1 1509 9472 
3 18503 18504 
3 18502 18503 
3 9472 9473 
3 9851 9852 
3 9473 9474 
1 9474 17706 
3 17705 17706 
3 9850 9851 
1 9850 18502 
3 4333 4334 
1 4333 18487 
3 8989 8990 
1 8989 12804 
1 1059 16258 
3 16258 16259 
3 11759 11760 
3 4334 4335 
3 8990 8991 
1 3435 9819 
3 7543 7544 
1 7543 11760 
1 4335 7545 
3 7544 7545 
3 6667 6668 
3 6668 6669 
1 6669 9606 
2 845 846 
2 844 845 
1 844 6813 
3 6812 6813 
2 14684 14685 
3 6811 6812 
2 547 548 
1 547 6811 
2 13771 13772 
1 13771 19366 
2 19366 19367 
2 19367 19368 
2 11579 11580 
2 11578 11579 
1 4686 11578 
3 2179 2180 
3 2180 2181 
1 2181 8151 
3 8150 8151 
3 6082 6083 
3 6083 6084 
1 6084 16030 
3 16030 16031 
3 4685 4686 
3 4684 4685 
1 4684 7957 
3 7957 7958 
2 2561 2562 
2 2560 2561 
1 2560 5967 
3 5966 5967 
3 5965 5966 
1 5965 8208 
3 8207 8208 
3 16031 16032 
1 5010 6379 
3 6379 6380 
2 9605 9606 
3 9080 9081 
2 9604 9605 
3 5008 5009 
1 5008 9604 
3 9079 9080 
1 345 9079 
3 8206 8207 
1 8206 14248 
3 344 345 
3 5009 5010 
2 548 549 
1 549 1788 
1 14508 19368 
2 1787 1788 
2 1786 1787 
1 1786 20838 
3 14507 14508 
3 20837 20838 
3 14506 14507 
1 14506 16009 
3 16009 16010 
3 6643 6644 
3 6644 6645 
3 16010 16011 
1 633 6645 
3 632 633 
1 14073 16011 
3 631 632 
1 631 14286 
3 14072 14073 
3 73 74 
1 73 7959 
3 7958 7959 
3 8149 8150 
1 6096 8149 
3 6095 6096 
3 6094 6095 
1 6094 8487 
3 8486 8487 
3 14285 14286 
3 8485 8486 
3 14248 14249 
3 18923 18924 
3 18922 18923 
1 10593 18922 
3 10592 10593 
1 14250 18876 
3 14249 14250 
3 10591 10592 
1 10591 11332 
3 11332 11333 
3 343 344 
1 343 19539 
3 2698 2699 
1 2698 8485 
2 5408 5409 
2 5407 5408 
1 5407 21255 
3 21254 21255 
3 20836 20837 
3 16453 16454 
1 16453 20836 
3 21253 21254 
3 14545 14546 
1 14545 21253 
3 14546 14547 
3 16454 16455 
3 9688 9689 
1 9688 11880 
3 9689 9690 
1 9690 16066 
1 612 16455 
3 14071 14072 
1 14071 20842 
3 20842 20843 
3 16066 16067 
3 611 612 
3 610 611 
1 610 10770 
3 20843 20844 
3 16067 16068 
1 16068 18649 
3 14284 14285 
3 12490 12491 
1 12490 14284 
3 18649 18650 
3 12491 12492 
3 2113 2114 
1 2113 12492 
3 6118 6119 
1 6118 20844 
1 3219 9406 
3 11333 11334 
3 3094 3095 
1 3094 6445 
3 2114 2115 
3 6445 6446 
3 9406 9407 
3 6446 6447 
3 2699 2700 
3 9407 9408 
1 2700 18925 
1 2115 2379 
1 6447 9408 
2 18925 18926 
3 10613 10614 
3 16631 16632 
3 16630 16631 
1 16630 21487 
1 8847 21489 
1 14547 17265 
3 21487 21488 
3 21488 21489 
3 18020 18021 
3 11782 11783 
1 11782 18021 
3 4897 4898 
1 4897 17067 
3 17066 17067 
3 10769 10770 
3 17264 17265 
3 10768 10769 
1 10768 16809 
3 17263 17264 
3 11636 11637 
3 11635 11636 
1 11635 17263 
3 17065 17066 
1 4680 11637 
3 19861 19862 
3 17023 17024 
1 17023 17065 
1 17025 19861 
3 18650 18651 
3 17024 17025 
1 8721 18651 
3 8720 8721 
3 16808 16809 
3 18344 18345 
3 17704 17705 
1 17704 18343 
3 8719 8720 
1 8719 9924 
3 18343 18344 
3 17591 17592 
2 2378 2379 
3 10612 10613 
1 10612 12306 
3 12305 12306 
3 17590 17591 
3 12304 12305 
1 12304 17590 
2 9923 9924 
2 2377 2378 
1 2377 19410 
2 14683 14684 
3 19486 19487 
3 19487 19488 
3 568 569 
3 569 570 
3 14704 14705 
3 14705 14706 
3 74 75 
3 3529 3530 
1 3529 16032 
1 75 7755 
3 3530 3531 
1 3531 19636 
3 19636 19637 
3 7754 7755 
3 18874 18875 
1 18874 19444 
3 18875 18876 
3 19637 19638 
1 19638 21523 
3 21523 21524 
3 21524 21525 
3 6119 6120 
3 7753 7754 
1 7753 13752 
1 6120 12033 
2 13751 13752 
2 18926 18927 
1 12180 21525 
3 4621 4622 
1 4621 18927 
2 13750 13751 
2 4597 4598 
1 4597 13750 
2 4598 4599 
1 4599 18001 
3 18001 18002 
2 12179 12180 
3 16807 16808 
3 8863 8864 
1 8863 16807 
3 12032 12033 
3 12031 12032 
3 8864 8865 
2 1564 1565 
1 1564 12031 
3 10211 10212 
3 10210 10211 
2 1565 1566 
1 1566 10210 
3 19409 19410 
3 18002 18003 
1 3909 13065 
3 9509 9510 
1 9510 16825 
3 16825 16826 
3 16826 16827 
3 16663 16664 
1 16663 16827 
3 16664 16665 
2 7030 7031 
3 4303 4304 
1 4303 7030 
1 1980 16665 
2 7031 7032 
3 1979 1980 
3 18898 18899 
3 9260 9261 
3 18899 18900 
3 9259 9260 
1 9259 11163 
3 6221 6222 
3 11161 11162 
3 11162 11163 
3 397 398 
1 397 11161 
3 398 399 
3 6220 6221 
1 6220 9525 
3 9524 9525 
1 7470 16621 
3 3908 3909 
3 3907 3908 
1 3907 4059 
3 170 171 
3 9523 9524 
3 169 170 
1 169 5980 
3 5980 5981 
1 4077 9523 
3 4076 4077 
3 4075 4076 
1 4075 9495 
3 4058 4059 
3 5981 5982 
1 1635 5982 
3 12325 12326 
1 12325 14142 
3 12326 12327 
1 12327 18204 
3 1634 1635 
3 4057 4058 
1 4057 4713 
3 14141 14142 
1 18225 19680 
3 18224 18225 
3 18223 18224 
3 18203 18204 
3 12175 12176 
3 12176 12177 
1 13227 18223 
3 13226 13227 
3 18202 18203 
1 9066 12175 
1 5253 12177 
3 16345 16346 
1 16345 18202 
3 9065 9066 
3 9494 9495 
3 9493 9494 
1 9493 15916 
3 15916 15917 
3 4712 4713 
3 4711 4712 
1 4711 18588 
3 15917 15918 
3 18587 18588 
2 1768 1769 
1 1768 15918 
3 1978 1979 
1 1978 8590 
2 8590 8591 
3 18586 18587 
2 8591 8592 
1 1965 18586 
3 16346 16347 
3 10102 10103 
1 10102 16347 
3 1964 1965 
3 1963 1964 
1 1963 18733 
1 4413 8592 
3 10103 10104 
3 16231 16232 
3 16232 16233 
3 18733 18734 
3 18734 18735 
3 15580 15581 
1 15580 18900 
3 3368 3369 
1 3369 5226 
3 5225 5226 
3 15581 15582 
3 3367 3368 
1 3367 8640 
3 21008 21009 
3 8639 8640 
3 16621 16622 
3 5224 5225 
1 5224 16093 
3 16093 16094 
3 6370 6371 
1 6370 21009 
3 6371 6372 
1 6372 14812 
3 14812 14813 
3 14813 14814 
3 6952 6953 
1 6952 15582 
3 2441 2442 
3 16622 16623 
3 20086 20087 
3 20087 20088 
1 1551 16623 
3 1550 1551 
3 17329 17330 
1 17329 20088 
1 13626 20086 
3 17330 17331 
3 8645 8646 
3 1549 1550 
1 1549 11827 
3 11827 11828 
3 2656 2657 
1 1824 2656 
3 1633 1634 
1 1633 8968 
3 8644 8645 
1 1584 8644 
3 1823 1824 
3 1583 1584 
3 1582 1583 
1 1582 10561 
3 10561 10562 
3 10562 10563 
1 15702 20109 
3 1822 1823 
1 1822 6400 
3 20108 20109 
3 6400 6401 
3 8446 8447 
1 8446 17755 
3 20107 20108 
3 6401 6402 
3 8447 8448 
1 15105 20107 
3 17755 17756 
1 399 2056 
3 6953 6954 
1 6954 15166 
3 15166 15167 
3 15167 15168 
3 6478 6479 
1 6478 15168 
3 2056 2057 
1 14814 17142 
3 6479 6480 
3 2057 2058 
1 2058 8722 
3 8722 8723 
3 8723 8724 
1 8724 11625 
3 17141 17142 
3 17140 17141 
1 2166 17140 
3 2165 2166 
3 8968 8969 
2 1769 1770 
1 10563 14337 
3 11828 11829 
1 11829 17727 
3 17726 17727 
3 17725 17726 
1 3240 17725 
3 3239 3240 
3 8969 8970 
3 5596 5597 
1 5596 6402 
3 4735 4736 
1 4735 8970 
3 14336 14337 
3 4736 4737 
3 5597 5598 
1 4737 16288 
3 16288 16289 
3 14335 14336 
3 3886 3887 
1 3886 14335 
3 16289 16290 
1 5598 18069 
3 386 387 
3 385 386 
1 385 16231 
1 4875 6480 
3 4874 4875 
3 4873 4874 
1 4873 20182 
3 20182 20183 
2 11624 11625 
2 11623 11624 
1 5139 11623 
3 5138 5139 
3 5137 5138 
3 3424 3425 
1 3424 5137 
3 3425 3426 
1 1770 11866 
3 11866 11867 
3 11867 11868 
3 3238 3239 
1 9 11868 
1 1698 3238 
3 8 9 
3 7 8 
1 7 6922 
3 1697 1698 
3 6922 6923 
3 1696 1697 
1 3426 13252 
3 6923 6924 
3 13252 13253 
1 15618 17716 
3 17716 17717 
3 17717 17718 
2 15617 15618 
1 2442 6198 
2 15616 15617 
3 6197 6198 
3 15169 15170 
1 15169 15616 
3 6196 6197 
1 348 6196 
3 18428 18429 
3 18427 18428 
1 12015 18427 
2 6190 6191 
1 6190 18429 
3 347 348 
3 15145 15146 
3 15146 15147 
1 14352 15145 
3 8650 8651 
1 8650 15147 
3 346 347 
1 346 1704 
1 8439 17331 
3 4835 4836 
3 14351 14352 
3 4834 4835 
1 4834 14446 
3 14446 14447 
3 14447 14448 
3 2225 2226 
3 8651 8652 
1 14448 15579 
3 2224 2225 
1 2224 14958 
3 14957 14958 
1 8652 10095 
3 15578 15579 
1 2091 16260 
3 15104 15105 
3 15103 15104 
3 13498 13499 
1 13498 15103 
3 2029 2030 
1 2029 7209 
3 7208 7209 
3 7207 7208 
1 7207 14790 
3 14789 14790 
3 15577 15578 
1 15577 21207 
3 16259 16260 
3 2030 2031 
3 16094 16095 
3 15170 15171 
1 16095 16852 
3 16852 16853 
3 16853 16854 
3 11551 11552 
1 11551 15171 
3 11552 11553 
1 16392 16854 
3 2164 2165 
1 2164 18033 
1 11553 14608 
3 16391 16392 
3 1703 1704 
3 1702 1703 
1 1702 17053 
3 17053 17054 
3 14608 14609 
3 16390 16391 
3 11773 11774 
1 11773 16390 
3 17054 17055 
3 8438 8439 
3 18032 18033 
3 8437 8438 
3 475 476 
1 475 8437 
3 476 477 
3 10094 10095 
3 11929 11930 
1 11929 17055 
1 477 12757 
3 11930 11931 
3 12757 12758 
3 3887 3888 
3 1891 1892 
1 1891 3888 
3 12758 12759 
3 21206 21207 
3 21205 21206 
1 16182 21205 
3 16181 16182 
3 16180 16181 
1 12759 20466 
3 20183 20184 
3 11774 11775 
1 11775 15819 
1 17844 20184 
3 15818 15819 
3 10051 10052 
1 10051 11931 
3 18031 18032 
3 1708 1709 
1 1708 18031 
3 1709 1710 
1 1710 20346 
3 15817 15818 
1 7599 15817 
2 17843 17844 
3 7598 7599 
3 20345 20346 
1 429 1696 
1 12624 20464 
3 20464 20465 
3 428 429 
3 20465 20466 
3 20344 20345 
1 17799 20344 
3 12623 12624 
2 17842 17843 
3 12334 12335 
1 12334 17842 
3 12335 12336 
1 12336 19450 
3 19450 19451 
3 19451 19452 
3 13253 13254 
1 13254 16983 
3 16982 16983 
3 17798 17799 
3 11581 11582 
1 11581 17797 
3 17797 17798 
3 11582 11583 
3 16981 16982 
3 2554 2555 
1 2554 19452 
3 2555 2556 
2 18284 18285 
2 18283 18284 
3 5944 5945 
1 5944 18283 
3 5945 5946 
1 5946 18469 
3 18469 18470 
3 18470 18471 
3 8846 8847 
3 12014 12015 
1 1842 8845 
3 8845 8846 
3 1841 1842 
3 5629 5630 
1 5629 18019 
3 1840 1841 
1 1840 19668 
3 19667 19668 
3 4679 4680 
3 5630 5631 
3 12013 12014 
3 6499 6500 
1 6499 12013 
3 19666 19667 
3 6500 6501 
3 18019 18020 
3 19862 19863 
3 14956 14957 
3 4771 4772 
1 4771 5631 
3 4772 4773 
1 9018 19863 
3 9017 9018 
1 4773 19402 
3 19237 19238 
1 19237 19666 
3 19402 19403 
1 3177 14956 
3 4217 4218 
3 9016 9017 
1 9016 10182 
3 3176 3177 
3 13547 13548 
3 13546 13547 
1 13546 18345 
3 10181 10182 
1 13548 15850 
3 15850 15851 
3 4216 4217 
1 4216 9922 
3 10180 10181 
1 10180 15223 
3 3175 3176 
1 3175 11179 
2 9922 9923 
1 18471 19474 
3 19474 19475 
3 14609 14610 
3 19475 19476 
1 6612 14610 
1 6450 19476 
3 6449 6450 
3 6448 6449 
3 3595 3596 
1 3595 6448 
1 6501 13465 
3 13465 13466 
3 3596 3597 
3 10093 10094 
1 10093 17976 
3 13466 13467 
3 19403 19404 
3 12253 12254 
1 12253 13467 
3 12254 12255 
1 16059 19404 
1 5559 12255 
3 19238 19239 
3 17975 17976 
3 11179 11180 
3 17974 17975 
1 11181 20397 
3 16058 16059 
3 10633 10634 
1 10633 17974 
3 11180 11181 
3 16057 16058 
3 10634 10635 
1 12027 16057 
3 12026 12027 
3 11377 11378 
3 11378 11379 
3 6611 6612 
3 6610 6611 
1 6610 17806 
3 10052 10053 
3 17806 17807 
3 17807 17808 
3 7621 7622 
1 7621 17808 
3 7622 7623 
3 5558 5559 
3 7597 7598 
1 10053 12489 
3 1502 1503 
3 5557 5558 
1 5557 19219 
3 1501 1502 
1 1501 10635 
3 19219 19220 
3 12488 12489 
3 12487 12488 
1 12487 14409 
3 19220 19221 
3 14408 14409 
3 94 95 
1 94 7623 
3 4084 4085 
1 4084 7597 
3 4085 4086 
1 4086 12288 
3 20368 20369 
3 95 96 
3 14407 14408 
1 14407 20368 
3 12287 12288 
3 12286 12287 
3 6409 6410 
3 6410 6411 
1 7233 8865 
3 4678 4679 
1 4678 15270 
3 15269 15270 
3 15268 15269 
1 15268 16528 
3 16528 16529 
3 7232 7233 
3 16529 16530 
3 15223 15224 
1 4218 16677 
3 7231 7232 
1 7231 11647 
3 11647 11648 
3 11648 11649 
1 11649 12927 
3 9976 9977 
1 9976 10212 
3 12926 12927 
1 3597 20443 
3 9865 9866 
1 9865 19239 
3 9866 9867 
1 9867 15375 
1 16530 18976 
3 15224 15225 
3 18976 18977 
3 20695 20696 
3 18977 18978 
1 8112 20695 
3 8111 8112 
3 8110 8111 
1 8110 18978 
3 15374 15375 
3 12025 12026 
3 20443 20444 
3 20444 20445 
3 19693 19694 
1 19693 20445 
3 19694 19695 
3 13376 13377 
3 17749 17750 
1 17749 19695 
1 13377 19221 
3 15373 15374 
3 8701 8702 
1 8701 15373 
3 8702 8703 
1 2859 8703 
3 934 935 
1 934 12025 
3 17750 17751 
3 13375 13376 
3 646 647 
1 96 3885 
3 3884 3885 
3 3883 3884 
1 3883 6411 
1 648 17751 
3 647 648 
3 20696 20697 
3 2857 2858 
1 2857 14166 
3 2858 2859 
1 3786 10923 
3 19133 19134 
3 19132 19133 
1 13731 19132 
3 13730 13731 
3 3785 3786 
3 13729 13730 
3 15338 15339 
3 15337 15338 
1 5595 15337 
3 5594 5595 
3 7580 7581 
3 5194 5195 
3 5195 5196 
1 5196 12393 
1 3669 5194 
3 10922 10923 
3 3668 3669 
3 21137 21138 
3 18014 18015 
3 7579 7580 
1 7579 19050 
3 19049 19050 
3 19048 19049 
1 6288 19048 
3 18013 18014 
1 18013 21138 
3 6287 6288 
3 6286 6287 
3 5446 5447 
1 5446 6286 
3 6310 6311 
1 6310 6919 
3 6920 6921 
3 6919 6920 
3 3689 3690 
3 3784 3785 
1 3784 9726 
3 9725 9726 
3 9724 9725 
1 9724 13341 
3 17576 17577 
3 5447 5448 
1 5448 17577 
3 17575 17576 
2 12602 12603 
2 12601 12602 
1 12601 15036 
1 6921 17952 
1 921 10812 
3 8612 8613 
3 3688 3689 
1 3688 16186 
3 16186 16187 
3 16187 16188 
1 16188 21435 
3 920 921 
1 6615 8613 
3 3583 3584 
1 3583 15366 
3 13340 13341 
3 13339 13340 
3 21434 21435 
3 3584 3585 
1 3585 13339 
3 21433 21434 
1 1734 21433 
3 15365 15366 
3 13225 13226 
1 13225 15595 
1 2247 5251 
3 5251 5252 
3 15595 15596 
3 5252 5253 
3 6614 6615 
3 6613 6614 
1 6613 17004 
3 17003 17004 
3 15596 15597 
1 15597 18886 
3 18886 18887 
3 11989 11990 
3 1732 1733 
1 1732 11989 
3 1733 1734 
3 17002 17003 
3 9928 9929 
1 9928 17002 
3 9929 9930 
3 15829 15830 
3 15830 15831 
3 11935 11936 
1 11935 15831 
3 4412 4413 
3 4411 4412 
1 4411 14826 
1 10104 15829 
3 18887 18888 
3 15313 15314 
1 15313 18888 
1 9930 13335 
3 13334 13335 
1 15315 18909 
3 15314 15315 
2 18908 18909 
1 12849 18735 
3 2992 2993 
1 2992 12847 
3 12848 12849 
3 12847 12848 
3 18617 18618 
3 14824 14825 
1 14824 18618 
3 14825 14826 
3 11936 11937 
2 12146 12147 
3 18616 18617 
2 12145 12146 
1 12145 18616 
2 18907 18908 
2 13621 13622 
1 13621 18907 
2 13622 13623 
1 8079 13623 
3 8078 8079 
3 15590 15591 
2 2353 2354 
1 2353 18381 
2 2354 2355 
3 14632 14633 
1 12795 14632 
3 12794 12795 
3 10348 10349 
1 8514 10348 
3 8513 8514 
3 10349 10350 
3 5593 5594 
1 5593 10906 
3 10906 10907 
2 20539 20540 
3 8512 8513 
1 8512 20539 
3 17266 17267 
1 2508 17266 
3 17267 17268 
3 16460 16461 
1 10350 20055 
3 16862 16863 
3 16861 16862 
3 16816 16817 
1 16816 16861 
1 16461 16863 
3 20054 20055 
3 10907 10908 
3 20053 20054 
3 9202 9203 
1 9202 20053 
3 9221 9222 
3 9220 9221 
3 5509 5510 
1 5509 9220 
1 9222 10908 
3 16817 16818 
3 2317 2318 
1 2317 3495 
3 3494 3495 
3 2318 2319 
1 2319 8164 
3 8164 8165 
3 3667 3668 
1 3667 15510 
1 3054 3493 
3 3493 3494 
1 6912 15174 
3 18128 18129 
1 15717 18015 
1 16818 20454 
3 5510 5511 
1 14865 15508 
3 14864 14865 
3 15508 15509 
3 15509 15510 
3 5215 5216 
1 5215 5511 
3 14863 14864 
3 11215 11216 
1 11215 14863 
3 5216 5217 
1 5217 14976 
3 14975 14976 
3 6910 6911 
3 1294 1295 
1 1294 6910 
3 1295 1296 
1 1296 12421 
3 12421 12422 
3 12422 12423 
3 15716 15717 
3 6911 6912 
3 17951 17952 
3 8165 8166 
3 3713 3714 
1 3714 19456 
3 19456 19457 
3 3712 3713 
1 3712 15715 
3 15715 15716 
3 19457 19458 
3 11216 11217 
1 1845 8166 
1 11217 21124 
3 21124 21125 
3 21125 21126 
1 14697 21126 
3 21175 21176 
3 15035 15036 
3 15034 15035 
3 13708 13709 
1 13708 21175 
1 13710 17575 
3 13709 13710 
3 12037 12038 
1 12037 18843 
3 17950 17951 
1 17950 20692 
3 18841 18842 
3 15943 15944 
1 15943 18841 
3 18842 18843 
3 15944 15945 
1 3942 10810 
3 10534 10535 
3 20692 20693 
3 10810 10811 
3 3941 3942 
1 8448 10534 
3 10811 10812 
1 12423 13983 
3 20693 20694 
1 20694 20757 
3 20756 20757 
3 20755 20756 
3 20155 20156 
1 20155 20755 
3 10366 10367 
1 10366 19458 
3 10367 10368 
1 10368 13693 
3 13693 13694 
3 13694 13695 
3 2749 2750 
1 2749 13503 
3 2750 2751 
1 2751 15364 
3 21176 21177 
3 15364 15365 
3 20156 20157 
3 10535 10536 
3 2216 2217 
3 18068 18069 
3 7733 7734 
3 7732 7733 
1 7732 10536 
1 7734 16965 
3 2215 2216 
1 2215 2245 
3 2245 2246 
3 2246 2247 
3 16964 16965 
3 3940 3941 
1 3940 20908 
3 20908 20909 
3 20909 20910 
1 3489 20910 
3 3488 3489 
3 11990 11991 
3 13333 13334 
3 19192 19193 
3 3487 3488 
1 3487 20713 
3 5434 5435 
1 5434 20157 
3 8851 8852 
1 8851 19194 
3 8852 8853 
3 19193 19194 
3 20713 20714 
3 5435 5436 
1 11991 19192 
3 18247 18248 
3 13502 13503 
3 13501 13502 
3 12793 12794 
1 12793 17722 
3 17722 17723 
3 17723 17724 
3 7105 7106 
1 7105 17724 
3 6130 6131 
1 4827 20701 
1 3288 6130 
3 4826 4827 
3 6131 6132 
3 20701 20702 
3 20702 20703 
3 3287 3288 
1 11550 20703 
3 11549 11550 
1 16920 17245 
3 11548 11549 
3 16919 16920 
3 2507 2508 
3 2506 2507 
3 7106 7107 
3 21062 21063 
1 7107 21061 
3 21061 21062 
3 7918 7919 
1 7918 21063 
3 7919 7920 
3 18328 18329 
3 17245 17246 
3 18329 18330 
1 18330 18370 
3 18370 18371 
3 18371 18372 
3 7864 7865 
1 7864 16024 
3 17246 17247 
3 13417 13418 
1 13417 18372 
3 5465 5466 
3 16024 16025 
3 3031 3032 
1 3031 11548 
3 9203 9204 
3 3032 3033 
1 3033 15609 
3 15608 15609 
3 15607 15608 
3 1948 1949 
1 1948 9204 
3 15049 15050 
1 15049 15607 
3 15050 15051 
3 13418 13419 
3 18853 18854 
1 7920 18853 
3 18854 18855 
1 18855 19179 
2 19178 19179 
2 19177 19178 
3 7865 7866 
3 18127 18128 
1 18127 20124 
3 5464 5465 
3 2854 2855 
1 2854 5464 
3 2855 2856 
1 2856 13824 
3 9644 9645 
3 13823 13824 
3 9643 9644 
1 9643 18741 
3 20453 20454 
3 1949 1950 
3 20452 20453 
1 3969 20452 
3 3968 3969 
3 6124 6125 
1 6124 13419 
3 6125 6126 
1 6126 11182 
3 11182 11183 
3 3967 3968 
1 3967 15733 
3 13822 13823 
3 15733 15734 
1 1950 4978 
3 4978 4979 
3 4979 4980 
1 4980 10321 
3 10321 10322 
3 10322 10323 
3 7084 7085 
1 7084 10323 
3 14974 14975 
1 14974 16297 
3 16297 16298 
3 14476 14477 
3 14477 14478 
3 9818 9819 
3 20123 20124 
3 20122 20123 
1 17562 20122 
3 17561 17562 
3 9817 9818 
1 9817 12673 
3 12803 12804 
3 12673 12674 
3 12802 12803 
1 12802 17328 
1 2724 9645 
3 1844 1845 
3 17560 17561 
1 6771 13822 
3 1843 1844 
1 1843 8977 
3 2542 2543 
1 2542 17560 
3 6770 6771 
3 6769 6770 
1 6769 13492 
3 13492 13493 
3 13493 13494 
3 2543 2544 
3 8977 8978 
3 8978 8979 
3 14696 14697 
3 15734 15735 
1 3009 15735 
3 3008 3009 
3 3007 3008 
1 1608 3007 
3 1607 1608 
3 16298 16299 
3 14695 14696 
1 14695 15520 
3 7085 7086 
1 16299 20521 
3 20521 20522 
3 20522 20523 
1 12741 20523 
1 7086 18078 
3 12740 12741 
3 12739 12740 
3 11758 11759 
1 3501 11758 
3 17327 17328 
3 17326 17327 
1 2526 17326 
3 3500 3501 
3 2089 2090 
1 2089 17578 
3 2090 2091 
3 17578 17579 
1 13902 15945 
3 13982 13983 
1 2544 10851 
3 13981 13982 
1 13981 16872 
3 2525 2526 
3 10850 10851 
3 16871 16872 
3 2524 2525 
1 2524 4527 
3 4526 4527 
3 16870 16871 
3 12940 12941 
1 12940 16870 
1 6162 8979 
1 6609 13695 
3 6161 6162 
3 6160 6161 
1 6160 6174 
3 6173 6174 
3 12941 12942 
3 15520 15521 
3 1606 1607 
1 1606 21292 
3 21292 21293 
3 6172 6173 
1 6172 19080 
3 15521 15522 
1 15522 18193 
3 18193 18194 
3 18194 18195 
1 5880 18195 
3 19079 19080 
3 6608 6609 
3 21293 21294 
1 12084 12739 
2 12083 12084 
2 12082 12083 
3 13186 13187 
1 13186 14788 
1 4473 13500 
3 17579 17580 
1 7242 17580 
3 13187 13188 
3 4472 4473 
3 14788 14789 
3 7241 7242 
3 13499 13500 
3 13901 13902 
3 13900 13901 
1 13900 19300 
3 7240 7241 
3 19300 19301 
3 4525 4526 
1 4525 5479 
3 19301 19302 
3 6139 6140 
1 6139 7240 
3 6140 6141 
3 5479 5480 
1 19302 21556 
3 21556 21557 
3 16963 16964 
1 5436 20860 
3 20860 20861 
3 1612 1613 
1 1612 12942 
3 1613 1614 
3 21557 21558 
1 1614 18979 
3 18979 18980 
3 20861 20862 
3 6607 6608 
1 6607 10741 
3 10741 10742 
3 10742 10743 
3 18980 18981 
3 18884 18885 
3 19078 19079 
1 5739 19078 
1 7437 18981 