ITEM: TIMESTEP
50000000
ITEM: NUMBER OF ATOMS
2895
ITEM: BOX BOUNDS pp pp pp
0.0000000000000000e+00 5.0000000000000000e+01
0.0000000000000000e+00 5.0000000000000000e+01
0.0000000000000000e+00 5.0000000000000000e+01
ITEM: ATOMS id type xs ys zs
9291 1 0.131834 0.555346 0.719488
10594 1 0.0591717 0.433944 0.751791
7391 2 0.0202218 0.516183 0.748878
3637 1 0.00985454 0.511098 0.750768
7390 1 0.0130367 0.512079 0.749881
7392 1 0.0266864 0.520115 0.746665
6376 1 0.0295159 0.521712 0.745954
9610 1 0.0520879 0.502798 0.749328
16914 1 0.0547658 0.503444 0.747798
16913 3 0.0616676 0.504488 0.74447
6939 1 0.0706955 0.506555 0.741899
16912 1 0.0681677 0.506179 0.742546
6938 2 0.0778489 0.509333 0.739954
6937 1 0.0853871 0.514204 0.739322
8265 1 0.0876283 0.515615 0.739362
166 1 0.0942474 0.495185 0.751195
7867 1 0.0968482 0.495943 0.751161
16887 1 0.114572 0.501593 0.749677
7869 1 0.111782 0.500535 0.749821
7868 2 0.103575 0.498395 0.751289
8264 2 0.0949515 0.518291 0.739974
8263 1 0.101684 0.520344 0.740411
19923 1 0.104502 0.521239 0.740047
5212 1 0.133021 0.508037 0.74631
5213 2 0.140027 0.510696 0.746425
5214 1 0.147122 0.51265 0.743497
16886 2 0.122436 0.504403 0.748658
16885 1 0.130113 0.507257 0.746989
13846 1 0.150418 0.513412 0.742744
13847 3 0.158002 0.515342 0.742513
13848 1 0.164663 0.519196 0.740733
3283 1 0.167852 0.520234 0.739691
3872 2 0.176956 0.501924 0.746321
3871 1 0.169391 0.499378 0.747817
10748 2 0.15922 0.495585 0.750768
10749 1 0.166809 0.498532 0.748678
3873 1 0.184108 0.503671 0.747439
14745 1 0.226206 0.515579 0.749509
6377 2 0.0373403 0.525087 0.744629
6378 1 0.0439297 0.528709 0.742406
2874 1 0.045893 0.529315 0.742021
2873 2 0.0537864 0.53254 0.740119
3617 2 0.0809412 0.553197 0.751285
2872 1 0.0614528 0.534885 0.738533
12790 1 0.0642067 0.535138 0.737788
1095 1 0.0835155 0.538347 0.733807
12792 1 0.0812228 0.537528 0.733996
12791 2 0.0728477 0.53628 0.735382
19922 2 0.111783 0.52373 0.739204
19921 1 0.119227 0.527165 0.737855
14467 1 0.116139 0.547693 0.726545
1094 2 0.0922051 0.540945 0.733592
1093 1 0.100453 0.54067 0.732109
14468 2 0.110598 0.542852 0.729772
14469 1 0.102771 0.540768 0.730704
9289 1 0.118237 0.549427 0.725481
4675 1 0.110777 0.541306 0.75075
2719 1 0.108328 0.540092 0.751253
4676 2 0.117632 0.544805 0.749343
922 1 0.146114 0.554495 0.745016
2949 1 0.121874 0.528284 0.737435
2948 2 0.128626 0.530431 0.735982
2947 1 0.13601 0.532531 0.734172
18303 1 0.139208 0.533718 0.732798
18302 2 0.145909 0.536483 0.731164
47 2 0.136683 0.551008 0.745724
46 1 0.14353 0.553624 0.745132
9290 2 0.124832 0.552257 0.722172
48 1 0.128646 0.548173 0.746763
4677 1 0.126123 0.547287 0.747453
18301 1 0.152337 0.539785 0.728406
6363 1 0.154934 0.541265 0.727988
14884 1 0.169302 0.541544 0.748838
3284 2 0.175399 0.523568 0.738422
6362 2 0.161484 0.545317 0.727409
18056 2 0.179075 0.545748 0.744748
18055 1 0.171931 0.542554 0.747454
6361 1 0.168371 0.549518 0.72686
14886 1 0.15553 0.534693 0.751233
14885 2 0.162559 0.538341 0.75099
17160 1 0.152456 0.533607 0.751592
20520 1 0.203655 0.550621 0.735075
3285 1 0.183102 0.526535 0.736957
12519 1 0.185914 0.527044 0.735914
12517 1 0.20008 0.530284 0.730645
12518 2 0.192783 0.528354 0.732902
18057 1 0.186767 0.547188 0.741366
20518 1 0.189424 0.547807 0.740647
20519 2 0.19569 0.549574 0.737954
10596 1 0.0528858 0.42376 0.76172
13210 1 0.00496955 0.453759 0.782234
12170 3 0.015274 0.445688 0.767157
12169 1 0.00799573 0.44369 0.767936
12171 1 0.0230281 0.448731 0.766329
13891 1 0.0259886 0.449991 0.765629
7756 1 0.0256498 0.435038 0.775437
10080 1 0.0420325 0.441412 0.777782
7757 2 0.0321706 0.437803 0.777437
10078 1 0.0549933 0.450248 0.777439
10595 2 0.0564154 0.42968 0.757312
13892 2 0.0337483 0.453206 0.76319
13893 1 0.0408092 0.455931 0.762006
4170 1 0.0438162 0.456857 0.760851
7705 1 0.0575623 0.452191 0.777369
7758 1 0.0393264 0.440083 0.778075
10079 2 0.0487448 0.44556 0.777751
6151 1 0.0865875 0.425153 0.769739
6152 3 0.0851886 0.429537 0.776919
7706 2 0.0642963 0.457496 0.776682
6153 1 0.0841447 0.432722 0.783846
12893 3 0.0103332 0.465659 0.755043
12892 1 0.00292752 0.469723 0.754598
12894 1 0.0181906 0.462825 0.755229
13211 2 0.0111941 0.458552 0.781981
13212 1 0.0177016 0.462274 0.781115
15956 2 0.00570975 0.483203 0.777473
14719 1 0.0278088 0.47807 0.754468
12062 2 0.0278034 0.465244 0.780271
5728 1 0.0160491 0.484649 0.774449
15955 1 0.0134389 0.484106 0.775217
5729 2 0.0237635 0.487953 0.773706
12063 1 0.0204359 0.463611 0.78127
13906 1 0.0455622 0.479793 0.758949
13907 2 0.0526067 0.480866 0.759837
13908 1 0.0593784 0.483576 0.759698
4169 2 0.0515187 0.458894 0.757843
14720 2 0.0358273 0.477505 0.757261
12061 1 0.0357376 0.466069 0.779638
6886 1 0.0383907 0.466974 0.779572
4168 1 0.0595565 0.462094 0.756468
6887 2 0.0455836 0.470935 0.779552
6892 1 0.0555212 0.475734 0.778902
6888 1 0.052717 0.474438 0.779457
14721 1 0.0425391 0.479682 0.758826
5730 1 0.0315944 0.489765 0.773436
14430 1 0.0737795 0.461276 0.77827
7707 1 0.0707728 0.460156 0.777537
8241 1 0.0620614 0.484433 0.759194
8240 2 0.0701387 0.487206 0.757851
8239 1 0.0773075 0.489415 0.754777
20202 1 0.0625916 0.463017 0.756093
20201 2 0.0702668 0.46426 0.756179
14429 2 0.0813284 0.464463 0.777794
6893 2 0.0631197 0.477885 0.778138
6894 1 0.0700895 0.481182 0.775803
15274 1 0.072289 0.481995 0.775695
20200 1 0.0774122 0.468096 0.756535
3273 1 0.0803587 0.469174 0.756357
3272 2 0.0871045 0.472054 0.756179
15275 2 0.0796159 0.486014 0.775491
15276 1 0.0871498 0.488026 0.774363
3574 1 0.0900995 0.488837 0.773734
14428 1 0.0882317 0.465691 0.776842
15148 1 0.0915482 0.466406 0.775982
3271 1 0.0948017 0.474486 0.75611
10404 1 0.0979939 0.474974 0.755667
4626 1 0.109468 0.471973 0.773829
14793 1 0.117395 0.480459 0.754838
10402 1 0.114623 0.479379 0.754935
10403 2 0.106691 0.476755 0.754722
4625 2 0.117874 0.473864 0.77324
15149 2 0.0989984 0.469089 0.775324
15150 1 0.106453 0.471268 0.773623
14792 2 0.124718 0.481822 0.753284
14791 1 0.131567 0.484968 0.752356
20655 1 0.134226 0.486286 0.752138
4624 1 0.126121 0.475519 0.773711
3165 1 0.129008 0.476527 0.773591
3164 2 0.136365 0.479381 0.772692
3163 1 0.142606 0.482007 0.771526
13665 1 0.14536 0.482931 0.771414
20654 2 0.140809 0.488747 0.75237
13636 1 0.168414 0.471634 0.778362
13637 2 0.164076 0.468154 0.781833
13664 2 0.152141 0.486231 0.771545
3638 2 0.00160847 0.510657 0.753756
21058 1 0.00465007 0.508071 0.774257
21169 1 0.00769575 0.507462 0.773498
21170 2 0.0148899 0.507123 0.772415
21171 1 0.0228311 0.507823 0.771143
4377 1 0.0263174 0.508418 0.771188
9612 1 0.0370046 0.497189 0.755399
9611 2 0.0442442 0.49975 0.753019
4266 1 0.0347145 0.490567 0.773582
4265 2 0.0416837 0.493128 0.773457
4376 2 0.0329704 0.510809 0.770492
4375 1 0.0401346 0.514257 0.768643
1867 1 0.0429375 0.515323 0.767459
1868 2 0.0499485 0.516574 0.763903
4264 1 0.0494765 0.494974 0.772332
13234 1 0.0517643 0.495827 0.771107
13235 2 0.0584925 0.498101 0.769031
1869 1 0.0560567 0.519444 0.760254
1314 1 0.0590107 0.520305 0.759444
2043 1 0.0722923 0.518901 0.780504
167 2 0.0875087 0.492673 0.751874
2042 2 0.0663442 0.516411 0.782963
168 1 0.0800362 0.490418 0.753839
13236 1 0.0663376 0.500958 0.768594
6430 1 0.0690535 0.501806 0.768457
6431 2 0.0764756 0.504382 0.76761
6432 1 0.0839066 0.506539 0.76585
16815 1 0.0866732 0.507283 0.76539
4378 1 0.0748095 0.520286 0.779754
6185 2 0.106371 0.51002 0.783061
16903 1 0.115409 0.514349 0.782141
6186 1 0.113019 0.513027 0.782228
3575 2 0.0987479 0.49195 0.772262
3576 1 0.106158 0.495524 0.772267
19690 1 0.108164 0.496742 0.772053
19691 2 0.116215 0.498828 0.770001
16814 2 0.0925989 0.510836 0.763985
16813 1 0.100629 0.514215 0.763041
11227 1 0.103447 0.514664 0.76263
11228 2 0.110957 0.51765 0.761413
16904 2 0.121034 0.517874 0.78076
11229 1 0.11862 0.520005 0.759031
7612 1 0.121042 0.521077 0.758419
16905 1 0.127513 0.523008 0.779176
20653 1 0.149311 0.492045 0.752449
19692 1 0.123962 0.500902 0.768192
15909 1 0.127062 0.501575 0.767541
15908 2 0.134559 0.503666 0.765907
15907 1 0.141976 0.506253 0.764756
9595 1 0.144652 0.507545 0.764093
14489 2 0.176903 0.522017 0.782375
10747 1 0.152081 0.492673 0.752399
9596 2 0.152173 0.511131 0.762585
13663 1 0.159343 0.490832 0.771648
13809 1 0.162035 0.492302 0.771186
7806 1 0.178178 0.519949 0.760659
13808 2 0.168407 0.496424 0.771877
9597 1 0.159578 0.515047 0.762587
7804 1 0.162552 0.516149 0.762641
13807 1 0.175753 0.500805 0.770698
7805 2 0.17058 0.518127 0.762659
19012 1 0.178551 0.502315 0.770478
12342 1 0.180562 0.521383 0.759959
19013 2 0.185999 0.504738 0.769761
19014 1 0.194017 0.505834 0.768421
7540 1 0.211544 0.509943 0.759905
7541 2 0.204873 0.507832 0.764739
7542 1 0.197091 0.506415 0.767557
20791 1 0.224064 0.518951 0.783212
21457 1 0.226173 0.519475 0.782702
21458 2 0.234276 0.521043 0.782984
14743 1 0.21385 0.510683 0.758703
14744 3 0.220452 0.512498 0.754339
21459 1 0.241488 0.522471 0.783593
20748 1 0.000389282 0.528656 0.769422
10401 1 0.0227946 0.552878 0.759617
17989 1 0.0197552 0.552127 0.761247
16226 2 0.0231156 0.547791 0.783244
17991 1 0.00674209 0.550356 0.767273
17990 2 0.0125506 0.550797 0.763814
20747 2 0.00876176 0.528875 0.768763
20746 1 0.017212 0.530245 0.767656
17772 1 0.02018 0.530959 0.767095
17771 2 0.0283385 0.532907 0.765809
5231 2 0.0435028 0.530007 0.780031
5232 1 0.0364323 0.527795 0.781923
1358 2 0.0395278 0.553442 0.776024
10400 2 0.0308343 0.553862 0.756788
2425 1 0.0334666 0.526791 0.782748
16227 1 0.0308994 0.550171 0.780662
1359 1 0.033236 0.551277 0.779902
5230 1 0.0498905 0.533635 0.777944
4578 1 0.0524257 0.534761 0.777097
17770 1 0.0359737 0.535578 0.763636
370 1 0.0387189 0.536552 0.762379
371 2 0.0454963 0.53947 0.75956
372 1 0.0532375 0.542298 0.758132
4577 2 0.0588691 0.536836 0.7735
20863 1 0.0562496 0.542953 0.757751
4379 2 0.0816226 0.523379 0.776723
4380 1 0.0886097 0.525784 0.775696
3618 1 0.0721278 0.551526 0.752667
20865 1 0.0700088 0.550225 0.753144
20864 2 0.0632337 0.546252 0.755439
2358 1 0.0867087 0.548991 0.770335
15544 1 0.0843058 0.547327 0.771177
15545 2 0.0764465 0.544444 0.771564
15546 1 0.0688998 0.541494 0.77096
4576 1 0.0658511 0.539955 0.771363
1313 2 0.0666804 0.523123 0.757979
1312 1 0.0745406 0.525493 0.756477
16483 1 0.0768877 0.52666 0.755517
16484 2 0.0845347 0.530636 0.754591
2357 2 0.0933294 0.552883 0.767655
16485 1 0.0915866 0.532459 0.754341
2720 2 0.101668 0.536562 0.753246
2721 1 0.0943348 0.533693 0.753921
17538 1 0.0917359 0.52671 0.775297
17537 2 0.0992613 0.530191 0.774002
13979 2 0.115245 0.538593 0.771437
13978 1 0.10893 0.534901 0.772321
17536 1 0.106222 0.533178 0.772931
17816 2 0.150141 0.5491 0.764923
18085 1 0.129594 0.524189 0.778766
13980 1 0.122252 0.542561 0.769175
18087 1 0.145501 0.527764 0.775781
17815 1 0.143123 0.547087 0.765879
13565 2 0.132603 0.543989 0.766536
18086 2 0.137928 0.526437 0.776738
7613 2 0.127546 0.525487 0.756261
13564 1 0.140088 0.546238 0.765959
7614 1 0.134268 0.528533 0.753599
17158 1 0.137034 0.529536 0.752968
17159 2 0.145162 0.531811 0.751972
13566 1 0.124873 0.543172 0.768045
17394 1 0.148191 0.528519 0.775547
18547 1 0.166397 0.55477 0.782615
9646 1 0.16863 0.555746 0.781814
17817 1 0.158058 0.552607 0.763241
6841 1 0.161038 0.554104 0.762761
7639 1 0.166599 0.533105 0.772498
7641 1 0.180659 0.541502 0.76752
7640 2 0.173119 0.537632 0.769827
17392 1 0.163689 0.531945 0.773465
17393 2 0.156475 0.530263 0.77447
11889 1 0.211875 0.541715 0.752116
12340 1 0.191601 0.532436 0.755189
12341 2 0.186397 0.526976 0.757882
2282 2 0.207986 0.554249 0.767172
6182 2 0.201509 0.537904 0.752006
9769 1 0.20083 0.531602 0.777047
14488 1 0.183829 0.523785 0.779686
6183 1 0.209339 0.540862 0.7522
9771 1 0.186571 0.524549 0.779275
2281 1 0.201537 0.550325 0.768809
6181 1 0.194065 0.534307 0.754373
13614 1 0.198234 0.548924 0.768909
13613 2 0.190672 0.546613 0.768498
4823 2 0.209927 0.535633 0.774978
13612 1 0.183644 0.54263 0.767459
9770 2 0.193169 0.528098 0.778235
4824 1 0.203301 0.533167 0.776568
4822 1 0.217912 0.540047 0.773404
18610 1 0.220144 0.541563 0.773048
18611 2 0.227176 0.545344 0.773263
11887 1 0.226912 0.547234 0.753399
11888 2 0.219392 0.543807 0.752659
14311 1 0.230156 0.548267 0.75376
14312 3 0.237932 0.550284 0.75546
18612 1 0.233608 0.548398 0.773194
14313 1 0.244913 0.551776 0.759719
1175 2 0.00928424 0.421109 0.800962
1174 1 0.0171334 0.421442 0.798486
4740 1 0.0197899 0.42158 0.798131
4739 3 0.0270699 0.425136 0.797072
1176 1 0.00161406 0.421174 0.803415
4738 1 0.0338134 0.42986 0.796662
12459 1 0.0362075 0.431965 0.797094
21391 1 0.0153072 0.449124 0.796971
2716 1 0.018171 0.450195 0.796745
2717 2 0.0255044 0.45363 0.797084
21392 2 0.00794149 0.446122 0.796766
21393 1 9.49174e-06 0.443003 0.79696
2718 1 0.0331465 0.455766 0.796816
12458 2 0.0431545 0.435982 0.797126
14298 1 0.0366747 0.456843 0.797088
12457 1 0.0504557 0.43926 0.797175
18499 1 0.0534706 0.440614 0.797625
14297 2 0.0439945 0.459745 0.797512
14296 1 0.0511768 0.462593 0.796071
18500 2 0.0612736 0.445546 0.798474
18501 1 0.0691393 0.449473 0.800061
6877 1 0.0720451 0.45087 0.79981
6878 2 0.0792574 0.454774 0.79742
6879 1 0.086643 0.457843 0.797265
13585 1 0.0895074 0.45862 0.796576
369 1 0.0909001 0.440751 0.807333
460 1 0.119966 0.452156 0.794267
367 1 0.103437 0.445345 0.799652
13586 2 0.0953817 0.461668 0.794181
462 1 0.105795 0.445981 0.798564
461 2 0.113056 0.449166 0.795391
368 2 0.0965206 0.442938 0.803407
1545 1 0.106248 0.457474 0.811483
1544 2 0.112109 0.462448 0.812687
9540 1 0.142959 0.448713 0.810979
11197 1 0.122976 0.453118 0.793067
11199 1 0.137354 0.457235 0.790995
17291 2 0.147434 0.460835 0.790874
17290 1 0.139838 0.458161 0.790887
11198 3 0.130135 0.454974 0.791908
17794 1 0.0106133 0.474772 0.794125
15367 1 0.00763066 0.473965 0.794063
17795 2 0.0188741 0.476632 0.794734
913 1 0.017251 0.492098 0.814617
17796 1 0.0270012 0.480639 0.795379
2119 1 0.0297371 0.482061 0.795735
18528 1 0.0204793 0.492961 0.814307
19438 1 0.0536304 0.463579 0.795522
2120 2 0.0366831 0.483876 0.795801
2121 1 0.044673 0.486874 0.793709
20251 1 0.0469371 0.488078 0.793145
20252 2 0.0547889 0.491195 0.793094
15498 1 0.0581966 0.483381 0.812418
15497 2 0.0509699 0.479347 0.812806
19439 2 0.0610646 0.465897 0.79479
12139 1 0.0606609 0.484903 0.812503
19440 1 0.0680248 0.470454 0.794427
9117 1 0.0702112 0.472194 0.794384
9116 2 0.0771923 0.476232 0.795011
9115 1 0.0846281 0.479702 0.794945
16107 1 0.0870947 0.481099 0.794393
12141 1 0.0744454 0.491039 0.808241
8674 1 0.0782741 0.492032 0.807697
12140 2 0.0677186 0.488176 0.810144
21146 2 0.0893465 0.474117 0.813502
1543 1 0.11911 0.465583 0.814442
13587 1 0.102614 0.466486 0.793395
9880 1 0.105656 0.46843 0.793186
9881 2 0.112908 0.471807 0.794223
9882 1 0.121075 0.474472 0.796737
16106 2 0.0945049 0.484062 0.793364
16105 1 0.101556 0.487071 0.79075
15199 1 0.111082 0.486736 0.810062
6574 1 0.113636 0.488053 0.810099
15786 1 0.104459 0.48787 0.790177
15785 2 0.112145 0.49085 0.78889
15200 2 0.104789 0.48276 0.810814
15201 1 0.0990866 0.478945 0.811839
21147 1 0.0966131 0.477154 0.812275
6575 2 0.120244 0.490305 0.809241
15784 1 0.119631 0.493827 0.788372
13249 1 0.123819 0.47592 0.797357
13250 2 0.131397 0.478884 0.7977
13251 1 0.139234 0.480738 0.796893
17658 1 0.141857 0.482007 0.795865
17657 2 0.149211 0.484653 0.794401
11826 1 0.156308 0.484122 0.814292
1594 1 0.153792 0.482938 0.814358
17292 1 0.155042 0.463525 0.787535
17656 1 0.155526 0.487674 0.793246
13638 1 0.157427 0.464987 0.786027
2790 1 0.158165 0.489162 0.793358
11824 1 0.171196 0.491138 0.812854
5236 1 0.173845 0.49281 0.812267
2789 2 0.165722 0.492144 0.792899
11825 2 0.16331 0.487027 0.814371
18527 2 0.0281972 0.495141 0.812745
794 2 0.0146323 0.49772 0.79286
795 1 0.0225883 0.499401 0.791711
12273 1 0.0246134 0.500394 0.791521
4262 2 0.0231954 0.516268 0.806315
4261 1 0.016416 0.513425 0.807399
13005 1 0.0131184 0.512111 0.807896
16847 2 0.00868319 0.520773 0.787602
13004 2 0.00554287 0.510148 0.81009
16846 1 0.0155818 0.52232 0.784942
2427 1 0.0184275 0.523193 0.784354
16848 1 0.00289954 0.518732 0.791534
4510 1 0.00449525 0.49645 0.794651
793 1 0.00747976 0.497266 0.794037
18337 1 0.00037091 0.518419 0.792711
19047 1 0.0567109 0.514284 0.786771
4263 1 0.0306375 0.518527 0.804874
6408 1 0.0332443 0.519006 0.804196
12272 2 0.0321692 0.504094 0.790414
11038 1 0.0512287 0.50507 0.808547
11039 2 0.0447967 0.502306 0.809828
11040 1 0.0379059 0.498629 0.809828
18526 1 0.0353822 0.497704 0.810553
21477 1 0.0535027 0.506223 0.807779
21476 2 0.0600384 0.509353 0.80566
6407 2 0.0401022 0.521389 0.802409
6406 1 0.0473847 0.524422 0.800051
19045 1 0.042365 0.50846 0.789483
19046 2 0.0492807 0.511303 0.787566
12271 1 0.039529 0.507392 0.789641
2041 1 0.0595828 0.515048 0.785757
20253 1 0.0624536 0.49477 0.792169
20580 1 0.0649035 0.495708 0.792127
20579 2 0.0720161 0.498762 0.791098
20578 1 0.0789975 0.500643 0.78984
21475 1 0.0680525 0.511747 0.804111
7879 1 0.071021 0.512468 0.803437
7880 2 0.0790664 0.515169 0.800647
8675 2 0.0848304 0.494201 0.807337
7881 1 0.0855241 0.517341 0.798935
4959 1 0.0876305 0.518462 0.798609
1167 1 0.0817649 0.500885 0.788853
1166 2 0.0887759 0.502324 0.786407
8676 1 0.092832 0.497555 0.807219
7749 1 0.0952045 0.499075 0.806849
7748 2 0.102517 0.503876 0.804633
7747 1 0.109434 0.508526 0.802673
6214 1 0.112251 0.510296 0.801946
4958 2 0.0942273 0.52228 0.79724
6215 2 0.118421 0.514385 0.801723
1165 1 0.0957504 0.50545 0.785305
6184 1 0.0984325 0.506744 0.784464
1023 1 0.122089 0.495283 0.788111
6576 1 0.126916 0.49554 0.807467
13429 1 0.129403 0.497707 0.807523
13430 2 0.13556 0.501527 0.807272
13431 1 0.142261 0.503578 0.807472
6216 1 0.125668 0.518409 0.801879
21360 1 0.128359 0.519656 0.801739
21359 2 0.134946 0.521764 0.800156
1021 1 0.134058 0.50142 0.785282
1022 2 0.127643 0.498658 0.786296
10798 1 0.137144 0.5025 0.785065
14097 1 0.145305 0.504887 0.806915
21358 1 0.141816 0.524549 0.798687
10800 1 0.151338 0.50797 0.786637
10799 2 0.145048 0.504541 0.785466
5237 2 0.18102 0.496455 0.811592
11133 1 0.175331 0.49858 0.791074
2788 1 0.172893 0.49682 0.791779
14096 2 0.1534 0.509347 0.806118
14095 1 0.160977 0.512315 0.805272
3949 1 0.163573 0.513153 0.805293
3950 2 0.170305 0.514882 0.804845
3951 1 0.177218 0.518584 0.80281
21202 1 0.1793 0.519835 0.802426
6233 2 0.161933 0.513359 0.786579
6232 1 0.154631 0.509622 0.786884
6234 1 0.168418 0.517506 0.785372
14490 1 0.170793 0.519172 0.784841
11132 2 0.182982 0.501547 0.789377
5238 1 0.188376 0.49932 0.811102
15628 1 0.191187 0.500722 0.81036
15629 2 0.198595 0.503365 0.808071
15630 1 0.206101 0.5071 0.80731
3244 1 0.209277 0.508219 0.806682
12485 2 0.199607 0.510011 0.786359
11131 1 0.19056 0.504586 0.787841
12486 1 0.19313 0.505855 0.787684
12484 1 0.206341 0.512309 0.786053
21203 2 0.18628 0.52312 0.800569
20793 1 0.20881 0.51351 0.785836
3245 2 0.216166 0.51022 0.806358
16388 2 0.233866 0.512734 0.804328
16389 1 0.241935 0.515338 0.800664
3246 1 0.223892 0.511671 0.805566
16387 1 0.226709 0.51153 0.805449
20792 2 0.216034 0.516848 0.785194
7432 1 0.244668 0.516406 0.799786
7433 2 0.250485 0.518577 0.796509
7434 1 0.257654 0.520467 0.792961
16225 1 0.0162788 0.545679 0.785473
4889 3 0.00572952 0.54343 0.788766
4971 1 0.0239483 0.539095 0.802896
21012 1 0.0260566 0.539904 0.802326
4970 2 0.0171155 0.536884 0.805975
4969 1 0.0101609 0.533902 0.809376
10570 1 0.00720415 0.532839 0.810437
4888 1 0.013379 0.545442 0.78607
2426 2 0.0257025 0.525201 0.784256
18949 1 0.0601281 0.552968 0.792082
21011 2 0.0336394 0.541912 0.800574
16608 1 0.0499216 0.525122 0.799322
21010 1 0.03998 0.545084 0.796634
14559 1 0.0431992 0.54596 0.795716
14558 2 0.0504957 0.547746 0.793934
16607 2 0.0569564 0.528956 0.797226
14557 1 0.0575463 0.55154 0.792894
7224 1 0.0596915 0.543222 0.812141
2574 1 0.0568144 0.541949 0.812729
2573 2 0.0499104 0.53964 0.814562
16606 1 0.0635144 0.532255 0.796028
15550 1 0.0665769 0.533305 0.795603
15551 2 0.074926 0.535236 0.793167
15552 1 0.081601 0.537977 0.790423
7701 1 0.0843382 0.539084 0.789004
7223 2 0.0666197 0.54653 0.811467
7700 2 0.0902887 0.543013 0.786437
14361 1 0.0791085 0.531629 0.814274
9273 1 0.0764655 0.530053 0.814784
14360 2 0.0861047 0.535303 0.814348
6601 1 0.0759614 0.553654 0.810878
7222 1 0.0725599 0.551484 0.811164
5222 2 0.118056 0.554022 0.805514
4957 1 0.0994497 0.526674 0.795578
8236 1 0.0987398 0.54972 0.784672
7699 1 0.0962914 0.547996 0.785271
5223 1 0.112451 0.549924 0.80667
7587 1 0.101938 0.528167 0.794674
7586 2 0.109326 0.531266 0.793919
2529 1 0.110125 0.548188 0.807249
7585 1 0.116534 0.534925 0.792175
20478 1 0.118954 0.53605 0.791397
2528 2 0.102193 0.544147 0.8096
2527 1 0.0965821 0.539431 0.811823
14359 1 0.0937036 0.537859 0.812834
8237 2 0.106261 0.553997 0.784539
1051 1 0.144401 0.525614 0.798219
14018 2 0.142453 0.54606 0.786234
20476 1 0.133419 0.541741 0.788783
20477 2 0.126533 0.539225 0.789762
20038 1 0.145857 0.545783 0.810486
14017 1 0.136313 0.543131 0.788046
8556 1 0.148822 0.546935 0.809825
20039 2 0.139587 0.542033 0.811706
20040 1 0.1324 0.538782 0.812722
7291 1 0.12974 0.537562 0.813819
14019 1 0.149344 0.547385 0.785771
1052 2 0.151431 0.528712 0.797009
1053 1 0.157679 0.531084 0.795789
17565 1 0.160484 0.531917 0.794888
17564 2 0.166836 0.535561 0.793074
8555 2 0.155043 0.55016 0.807828
17563 1 0.17382 0.537534 0.791536
3315 1 0.176422 0.538467 0.790917
14810 2 0.180289 0.537553 0.813461
18549 1 0.15197 0.548337 0.785597
8554 1 0.16178 0.553057 0.805474
3991 1 0.164547 0.553751 0.80547
18548 2 0.15862 0.551158 0.784449
3465 1 0.210591 0.55562 0.788479
18818 2 0.201556 0.550605 0.789348
13384 1 0.20415 0.546309 0.808828
18819 1 0.194775 0.545823 0.789821
3314 2 0.183905 0.541777 0.789873
21204 1 0.194262 0.525334 0.79954
11250 1 0.197155 0.526418 0.798844
11249 2 0.204415 0.528903 0.797602
13385 2 0.197958 0.542908 0.811027
13386 1 0.190278 0.540676 0.812923
14811 1 0.187935 0.540119 0.813312
3313 1 0.191622 0.544483 0.78958
11248 1 0.210495 0.532012 0.796374
4731 1 0.206946 0.547732 0.808267
18817 1 0.207597 0.554511 0.788627
4730 2 0.214051 0.552416 0.807997
2310 1 0.213425 0.533688 0.795862
2309 2 0.219798 0.537535 0.79451
17052 1 0.228736 0.542647 0.795596
2308 1 0.226312 0.541195 0.795324
17051 2 0.234933 0.547071 0.797513
17050 1 0.240772 0.551694 0.798253
16858 1 0.243595 0.553339 0.797706
10098 1 0.022264 0.444081 0.839352
10097 2 0.027185 0.438036 0.839922
12208 1 0.0144169 0.436542 0.820875
6396 1 0.0177511 0.437108 0.820595
10062 1 0.0194535 0.455952 0.837284
15468 1 0.0222016 0.457553 0.836611
6395 2 0.0251057 0.439605 0.818517
10061 2 0.0118145 0.453472 0.836499
10060 1 0.00572391 0.450103 0.837269
12209 2 0.00657161 0.433441 0.821477
8197 1 0.00726745 0.460543 0.817326
11481 1 0.0102572 0.461926 0.81684
15467 2 0.0288911 0.460634 0.835333
9747 1 0.00330894 0.448706 0.837694
8198 2 0.00019249 0.456797 0.818446
6394 1 0.0312242 0.442613 0.816803
7762 1 0.0341578 0.444461 0.816987
7763 2 0.0410524 0.447419 0.817612
7764 1 0.0478228 0.452327 0.817996
1717 1 0.0504552 0.453848 0.81816
1718 2 0.0572314 0.457813 0.818005
11344 1 0.0563153 0.449825 0.838338
11346 1 0.0418584 0.443097 0.835717
11345 2 0.0491184 0.44623 0.837955
5985 1 0.0588607 0.45091 0.837953
10096 1 0.0319715 0.432569 0.84007
5984 2 0.0661061 0.454654 0.837144
5983 1 0.0731893 0.458996 0.835727
14998 1 0.0766223 0.460706 0.835321
1719 1 0.063346 0.461775 0.817193
20307 1 0.096978 0.447872 0.845237
10251 1 0.112767 0.458065 0.841181
20305 1 0.110086 0.456282 0.841544
20306 3 0.10371 0.451647 0.84338
10250 2 0.119234 0.462949 0.840797
9539 2 0.136955 0.450751 0.81533
9538 1 0.129136 0.450656 0.816165
19722 1 0.00199472 0.484368 0.817965
6318 1 0.000822676 0.471189 0.838594
914 2 0.0103932 0.489061 0.816166
11480 3 0.0172304 0.465519 0.815643
8145 1 0.0175646 0.479856 0.834083
6316 1 0.0145683 0.478804 0.835138
6317 2 0.00737828 0.475387 0.837516
8144 2 0.023753 0.482243 0.832337
11479 1 0.0254745 0.468919 0.815446
18814 1 0.0282611 0.469866 0.815674
8143 1 0.0301527 0.485643 0.832253
915 1 0.00404491 0.485666 0.817207
15496 1 0.0444249 0.475086 0.81517
18816 1 0.0417796 0.473857 0.815386
18815 2 0.0349144 0.471024 0.815007
8880 1 0.0535643 0.47204 0.837028
8879 2 0.0461558 0.467599 0.83679
8878 1 0.0388181 0.465251 0.835212
15466 1 0.0364468 0.463849 0.834846
4705 1 0.0325313 0.487114 0.832142
4706 2 0.0398446 0.491078 0.830402
1833 1 0.0562582 0.473741 0.836829
21145 1 0.0829601 0.470981 0.815809
13125 1 0.0804039 0.47006 0.816539
13124 2 0.073187 0.468135 0.816207
13123 1 0.0656803 0.463649 0.816904
1832 2 0.0617753 0.478297 0.834977
1831 1 0.0691317 0.481323 0.833483
16605 1 0.0717844 0.48246 0.832779
16604 2 0.0797131 0.485575 0.830739
14999 2 0.0829745 0.464708 0.834751
16603 1 0.0873205 0.488848 0.83012
4788 1 0.090489 0.490757 0.830001
15000 1 0.0909702 0.468229 0.833821
20490 1 0.093604 0.469741 0.833256
20489 2 0.100231 0.473437 0.833806
20488 1 0.107356 0.476757 0.83297
13645 1 0.110055 0.478342 0.832251
13646 2 0.116737 0.482282 0.830172
4787 2 0.0970505 0.493596 0.829229
14616 1 0.121695 0.46619 0.815147
14615 2 0.129554 0.471466 0.816907
1595 2 0.146284 0.480081 0.816033
1596 1 0.139637 0.475582 0.817437
14614 1 0.136919 0.474335 0.817468
10249 1 0.125887 0.4668 0.838939
6918 1 0.128646 0.468418 0.838796
6917 2 0.135709 0.471502 0.838088
6916 1 0.141292 0.475453 0.83666
7113 1 0.144399 0.476981 0.836013
13647 1 0.123068 0.485652 0.828881
1789 1 0.125421 0.487067 0.828078
1790 2 0.131121 0.491733 0.828899
7112 2 0.151857 0.480385 0.834574
7111 1 0.159379 0.484388 0.834281
5259 1 0.0116603 0.503563 0.830419
6633 1 0.00923851 0.502066 0.830914
5258 2 0.0190894 0.50706 0.829418
5257 1 0.0257008 0.510646 0.828032
15742 1 0.0280916 0.511399 0.827753
6632 2 0.00246314 0.498338 0.831826
19873 1 0.00568818 0.524186 0.829199
3303 1 0.00804098 0.524848 0.828167
4707 1 0.0477739 0.494184 0.829131
15743 2 0.0365172 0.512559 0.826438
583 1 0.0502872 0.495208 0.828648
15744 1 0.0440053 0.514733 0.825709
10864 1 0.0466062 0.515825 0.825089
10865 2 0.0535816 0.518869 0.823297
584 2 0.0571188 0.496872 0.826941
4257 1 0.0587336 0.514282 0.840865
4256 2 0.0523522 0.510572 0.842163
4255 1 0.0450915 0.507843 0.843391
16276 1 0.0426713 0.506759 0.844013
10866 1 0.0604389 0.522268 0.821551
5359 1 0.0609674 0.515713 0.840878
585 1 0.0643244 0.50168 0.824364
14365 1 0.0667657 0.503157 0.823816
14366 2 0.0740455 0.506337 0.822676
14367 1 0.0811854 0.508918 0.821556
3087 1 0.0834822 0.509934 0.821344
5360 2 0.0672965 0.518741 0.840179
5361 1 0.074019 0.522651 0.839511
11390 2 0.0863113 0.508108 0.84433
9271 1 0.0634956 0.52347 0.820977
15415 1 0.0771972 0.524022 0.838962
3086 2 0.0912495 0.512995 0.82044
11391 1 0.0933428 0.511463 0.840337
4786 1 0.103892 0.496634 0.828
14599 1 0.106801 0.498089 0.827645
14600 2 0.113091 0.502849 0.827856
3231 1 0.109811 0.520956 0.839207
3085 1 0.0985972 0.516311 0.820719
18813 1 0.10143 0.517732 0.820263
12297 1 0.11213 0.522482 0.839246
3229 1 0.0959144 0.512792 0.839421
3230 2 0.103498 0.516476 0.838995
18812 2 0.108553 0.52278 0.818959
14601 1 0.119675 0.507225 0.824846
7417 1 0.121927 0.508969 0.823713
7418 2 0.128391 0.512412 0.822091
7419 1 0.135764 0.517157 0.820796
1791 1 0.139061 0.494796 0.828465
687 1 0.138397 0.518857 0.820118
686 2 0.144264 0.52415 0.818562
16765 1 0.142131 0.496321 0.828493
17086 1 0.148831 0.520161 0.841025
16766 2 0.148128 0.500451 0.827531
7743 1 0.145944 0.518572 0.840989
7742 2 0.138924 0.51427 0.840387
7741 1 0.131836 0.509646 0.843177
16174 1 0.129053 0.508679 0.844192
15718 1 0.173889 0.495904 0.830878
15719 2 0.179781 0.500574 0.832541
16767 1 0.155389 0.504036 0.82532
20630 2 0.164181 0.508652 0.823552
20631 1 0.157924 0.505303 0.824909
20629 1 0.172065 0.512083 0.821385
21295 1 0.175193 0.513804 0.821113
17087 2 0.156123 0.52358 0.840252
21296 2 0.182145 0.516597 0.820656
21297 1 0.189874 0.518803 0.819069
15987 1 0.192873 0.519561 0.818634
15986 2 0.200244 0.522033 0.818621
15985 1 0.207697 0.523906 0.819909
15720 1 0.186579 0.503214 0.833271
9864 1 1.05906e-05 0.545956 0.825617
9686 2 0.0259655 0.525221 0.84407
13641 1 0.00324258 0.54745 0.825035
8803 1 0.0178356 0.54396 0.840827
3302 2 0.015907 0.526855 0.823995
3301 1 0.0230551 0.529134 0.822049
12072 1 0.0252795 0.53002 0.821133
13640 2 0.0108364 0.55081 0.822575
5404 1 0.0151174 0.542676 0.841757
8804 2 0.0256859 0.547386 0.83926
13639 1 0.0177784 0.554463 0.820721
5405 2 0.00809909 0.537996 0.8447
3894 1 0.020676 0.555662 0.81996
8805 1 0.0321638 0.549473 0.837855
12071 2 0.0317701 0.532484 0.818411
3664 1 0.0347412 0.551012 0.836778
2572 1 0.0417699 0.537278 0.816003
12070 1 0.0388514 0.536186 0.816743
2369 2 0.0422617 0.531901 0.83685
2368 1 0.0500319 0.535378 0.835983
4807 1 0.0522767 0.536832 0.835714
2370 1 0.0348937 0.528518 0.840506
9685 1 0.0329217 0.527783 0.841589
4808 2 0.0585237 0.541279 0.834502
3665 2 0.0408047 0.554836 0.834099
8461 1 0.084097 0.555091 0.830888
9272 2 0.0700236 0.526373 0.818392
5690 2 0.0749651 0.551197 0.833086
4809 1 0.0652649 0.54631 0.833527
15416 2 0.0849851 0.528743 0.837475
5691 1 0.0677625 0.547959 0.833507
15417 1 0.0903986 0.53272 0.835352
5689 1 0.0813692 0.553839 0.831442
10590 1 0.0927283 0.534154 0.834521
7293 1 0.116809 0.530063 0.816768
18811 1 0.114243 0.527933 0.817467
10588 1 0.104915 0.542677 0.829621
10589 2 0.0983067 0.538225 0.83204
17821 1 0.107141 0.54388 0.829079
17822 2 0.114618 0.548382 0.827156
12296 2 0.118744 0.52593 0.838404
9336 1 0.13699 0.554367 0.845616
17823 1 0.12174 0.551914 0.826858
7292 2 0.123811 0.535221 0.815982
3265 1 0.124287 0.553433 0.826596
12295 1 0.125359 0.529146 0.835406
9009 1 0.128009 0.530692 0.834636
9008 2 0.134549 0.536084 0.832919
9007 1 0.140773 0.540102 0.832926
1588 1 0.143459 0.541197 0.832368
1589 2 0.150527 0.544175 0.830287
4764 1 0.178784 0.554501 0.825755
685 1 0.15198 0.527448 0.817854
3740 2 0.168171 0.551132 0.82835
14809 1 0.171422 0.535011 0.815224
17155 1 0.154816 0.528588 0.817559
17157 1 0.169364 0.534348 0.815708