ITEM: TIMESTEP
0
ITEM: NUMBER OF ATOMS
3942
ITEM: BOX BOUNDS pp pp pp
0.0000000000000000e+00 5.0000000000000000e+01
0.0000000000000000e+00 5.0000000000000000e+01
0.0000000000000000e+00 5.0000000000000000e+01
ITEM: ATOMS id type 
250 1 
251 3 
252 1 
301 1 
302 3 
303 1 
307 1 
308 2 
309 1 
481 1 
482 3 
483 1 
1201 1 
1202 3 
1203 1 
1210 1 
1211 3 
1212 1 
1264 1 
1265 3 
1266 1 
1324 1 
1325 2 
1326 1 
1384 1 
1385 3 
1386 1 
1441 1 
1442 2 
1443 1 
1561 1 
1562 2 
1563 1 
1567 1 
1568 2 
1569 1 
2227 1 
2228 2 
2229 1 
2287 1 
2288 2 
2289 1 
2344 1 
2345 2 
2346 1 
2350 1 
2351 2 
2352 1 
2401 1 
2402 3 
2403 1 
2581 1 
2582 2 
2583 1 
2584 1 
2585 3 
2586 1 
3190 1 
3191 2 
3192 1 
3241 1 
3242 2 
3243 1 
3310 1 
3311 2 
3312 1 
3370 1 
3371 3 
3372 1 
3484 1 
3485 2 
3486 1 
3610 1 
3611 2 
3612 1 
3724 1 
3725 2 
3726 1 
4324 1 
4325 3 
4326 1 
4330 1 
4331 2 
4332 1 
4381 1 
4382 3 
4383 1 
4627 1 
4628 2 
4629 1 
4744 1 
4745 3 
4746 1 
4810 1 
4811 3 
4812 1 
5524 1 
5525 3 
5526 1 
5887 1 
5888 3 
5889 1 
5941 1 
5942 3 
5943 1 
6670 1 
6671 2 
6672 1 
6724 1 
6725 3 
6726 1 
6781 1 
6782 2 
6783 1 
6787 1 
6788 2 
6789 1 
7021 1 
7022 2 
7023 1 
7024 1 
7025 2 
7026 1 
7081 1 
7082 3 
7083 1 
7744 1 
7745 2 
7746 1 
7981 1 
7982 3 
7983 1 
7990 1 
7991 3 
7992 1 
8101 1 
8102 3 
8103 1 
8170 1 
8171 2 
8172 1 
8221 1 
8222 3 
8223 1 
8281 1 
8282 3 
8283 1 
8284 1 
8285 2 
8286 1 
9181 1 
9182 2 
9183 1 
9301 1 
9302 3 
9303 1 
9970 1 
9971 2 
9972 1 
10024 1 
10025 3 
10026 1 
10084 1 
10085 2 
10086 1 
10087 1 
10088 3 
10089 1 
10141 1 
10142 3 
10143 1 
10270 1 
10271 2 
10272 1 
10330 1 
10331 2 
10332 1 
10390 1 
10391 3 
10392 1 
10504 1 
10505 3 
10506 1 
22 1 
23 3 
24 1 
76 1 
77 3 
78 1 
79 1 
80 3 
81 1 
256 1 
257 2 
258 1 
316 1 
317 2 
318 1 
1156 1 
1157 2 
1158 1 
1273 1 
1274 3 
1275 1 
1282 1 
1283 3 
1284 1 
1396 1 
1397 2 
1398 1 
1462 1 
1463 2 
1464 1 
2239 1 
2240 3 
2241 1 
2473 1 
2474 2 
2475 1 
3193 1 
3194 2 
3195 1 
3196 1 
3197 2 
3198 1 
3199 1 
3200 3 
3201 1 
3322 1 
3323 3 
3324 1 
3556 1 
3557 3 
3558 1 
3613 1 
3614 2 
3615 1 
3619 1 
3620 2 
3621 1 
3622 1 
3623 2 
3624 1 
3682 1 
3683 3 
3684 1 
4339 1 
4340 2 
4341 1 
4453 1 
4454 2 
4455 1 
4456 1 
4457 2 
4458 1 
4579 1 
4580 2 
4581 1 
4693 1 
4694 3 
4695 1 
4696 1 
4697 3 
4698 1 
4699 1 
4700 3 
4701 1 
4756 1 
4757 2 
4758 1 
4813 1 
4814 3 
4815 1 
4876 1 
4877 2 
4878 1 
5542 1 
5543 3 
5544 1 
5662 1 
5663 3 
5664 1 
5716 1 
5717 2 
5718 1 
5782 1 
5783 2 
5784 1 
5842 1 
5843 3 
5844 1 
5956 1 
5957 3 
5958 1 
6016 1 
6017 3 
6018 1 
6739 1 
6740 2 
6741 1 
6742 1 
6743 3 
6744 1 
6859 1 
6860 3 
6861 1 
6913 1 
6914 2 
6915 1 
6976 1 
6977 3 
6978 1 
7096 1 
7097 2 
7098 1 
7213 1 
7214 3 
7215 1 
7759 1 
7760 2 
7761 1 
7873 1 
7874 2 
7875 1 
8053 1 
8054 3 
8055 1 
8173 1 
8174 2 
8175 1 
8182 1 
8183 2 
8184 1 
8893 1 
8894 2 
8895 1 
8896 1 
8897 2 
8898 1 
8956 1 
8957 2 
8958 1 
9022 1 
9023 2 
9024 1 
9073 1 
9074 2 
9075 1 
9133 1 
9134 3 
9135 1 
9139 1 
9140 2 
9141 1 
9199 1 
9200 2 
9201 1 
9262 1 
9263 3 
9264 1 
9316 1 
9317 2 
9318 1 
9979 1 
9980 2 
9981 1 
10036 1 
10037 2 
10038 1 
10159 1 
10160 3 
10161 1 
10219 1 
10220 2 
10221 1 
10273 1 
10274 2 
10275 1 
10462 1 
10463 2 
10464 1 
10516 1 
10517 2 
10518 1 
10522 1 
10523 3 
10524 1 
214 1 
215 3 
216 1 
391 1 
392 3 
393 1 
505 1 
506 3 
507 1 
508 1 
509 2 
510 1 
1348 1 
1349 2 
1350 1 
1411 1 
1412 2 
1413 1 
1585 1 
1586 3 
1587 1 
1591 1 
1592 2 
1593 1 
2488 1 
2489 2 
2490 1 
2491 1 
2492 2 
2493 1 
3328 1 
3329 3 
3330 1 
3334 1 
3335 3 
3336 1 
3511 1 
3512 2 
3513 1 
3571 1 
3572 3 
3573 1 
3745 1 
3746 3 
3747 1 
4351 1 
4352 3 
4353 1 
4354 1 
4355 2 
4356 1 
4408 1 
4409 2 
4410 1 
4528 1 
4529 2 
4530 1 
4645 1 
4646 2 
4647 1 
4648 1 
4649 2 
4650 1 
4651 1 
4652 3 
4653 1 
4894 1 
4895 3 
4896 1 
5605 1 
5606 2 
5607 1 
5665 1 
5666 3 
5667 1 
5911 1 
5912 3 
5913 1 
5968 1 
5969 3 
5970 1 
5971 1 
5972 3 
5973 1 
6025 1 
6026 3 
6027 1 
6688 1 
6689 3 
6690 1 
6745 1 
6746 2 
6747 1 
6754 1 
6755 3 
6756 1 
6925 1 
6926 3 
6927 1 
6988 1 
6989 2 
6990 1 
7045 1 
7046 3 
7047 1 
7114 1 
7115 2 
7116 1 
7168 1 
7169 3 
7170 1 
7891 1 
7892 2 
7893 1 
8005 1 
8006 2 
8007 1 
8011 1 
8012 3 
8013 1 
8068 1 
8069 3 
8070 1 
8128 1 
8129 2 
8130 1 
8248 1 
8249 3 
8250 1 
8251 1 
8252 3 
8253 1 
8308 1 
8309 2 
8310 1 
8908 1 
8909 3 
8910 1 
9025 1 
9026 2 
9027 1 
9034 1 
9035 3 
9036 1 
9085 1 
9086 3 
9087 1 
9091 1 
9092 2 
9093 1 
9094 1 
9095 2 
9096 1 
9145 1 
9146 3 
9147 1 
9148 1 
9149 3 
9150 1 
9265 1 
9266 3 
9267 1 
9325 1 
9326 2 
9327 1 
9985 1 
9986 3 
9987 1 
10165 1 
10166 2 
10167 1 
10225 1 
10226 3 
10227 1 
10294 1 
10295 3 
10296 1 
10405 1 
10406 3 
10407 1 
10465 1 
10466 2 
10467 1 
10531 1 
10532 2 
10533 1 
37 1 
38 2 
39 1 
43 1 
44 2 
45 1 
103 1 
104 3 
105 1 
217 1 
218 3 
219 1 
226 1 
227 2 
228 1 
280 1 
281 2 
282 1 
403 1 
404 3 
405 1 
1177 1 
1178 3 
1179 1 
1180 1 
1181 2 
1182 1 
1306 1 
1307 2 
1308 1 
1417 1 
1418 3 
1419 1 
1597 1 
1598 3 
1599 1 
1603 1 
1604 3 
1605 1 
2320 1 
2321 3 
2322 1 
2323 1 
2324 3 
2325 1 
2386 1 
2387 3 
2388 1 
2437 1 
2438 2 
2439 1 
2497 1 
2498 3 
2499 1 
2563 1 
2564 2 
2565 1 
2620 1 
2621 2 
2622 1 
3223 1 
3224 3 
3225 1 
3226 1 
3227 3 
3228 1 
3280 1 
3281 2 
3282 1 
3340 1 
3341 2 
3342 1 
3403 1 
3404 3 
3405 1 
3577 1 
3578 3 
3579 1 
3580 1 
3581 2 
3582 1 
3697 1 
3698 2 
3699 1 
3760 1 
3761 3 
3762 1 
4357 1 
4358 3 
4359 1 
4483 1 
4484 2 
4485 1 
4606 1 
4607 2 
4608 1 
4660 1 
4661 2 
4662 1 
4840 1 
4841 3 
4842 1 
5560 1 
5561 3 
5562 1 
5797 1 
5798 2 
5799 1 
5800 1 
5801 2 
5802 1 
5863 1 
5864 2 
5865 1 
5926 1 
5927 3 
5928 1 
6043 1 
6044 3 
6045 1 
6760 1 
6761 2 
6762 1 
6763 1 
6764 3 
6765 1 
6823 1 
6824 3 
6825 1 
6883 1 
6884 3 
6885 1 
6940 1 
6941 2 
6942 1 
7003 1 
7004 2 
7005 1 
7843 1 
7844 3 
7845 1 
8017 1 
8018 2 
8019 1 
8083 1 
8084 2 
8085 1 
8917 1 
8918 3 
8919 1 
8986 1 
8987 3 
8988 1 
9046 1 
9047 3 
9048 1 
9217 1 
9218 2 
9219 1 
9277 1 
9278 2 
9279 1 
9340 1 
9341 3 
9342 1 
10237 1 
10238 2 
10239 1 
10360 1 
10361 3 
10362 1 
10540 1 
10541 3 
10542 1 
109 1 
110 3 
111 1 
409 1 
410 2 
411 1 
469 1 
470 2 
471 1 
472 1 
473 3 
474 1 
532 1 
533 3 
534 1 
535 1 
536 3 
537 1 
1189 1 
1190 3 
1191 1 
1255 1 
1256 2 
1257 1 
1309 1 
1310 3 
1311 1 
1489 1 
1490 2 
1491 1 
1495 1 
1496 2 
1497 1 
2332 1 
2333 2 
2334 1 
2569 1 
2570 3 
2571 1 
2578 1 
2579 3 
2580 1 
2629 1 
2630 2 
2631 1 
2635 1 
2636 2 
2637 1 
3292 1 
3293 3 
3294 1 
3358 1 
3359 2 
3360 1 
3409 1 
3410 2 
3411 1 
3475 1 
3476 2 
3477 1 
3592 1 
3593 2 
3594 1 
3649 1 
3650 2 
3651 1 
3655 1 
3656 2 
3657 1 
3715 1 
3716 2 
3717 1 
3718 1 
3719 2 
3720 1 
4435 1 
4436 3 
4437 1 
4732 1 
4733 3 
4734 1 
5515 1 
5516 2 
5517 1 
5632 1 
5633 3 
5634 1 
5758 1 
5759 3 
5760 1 
5932 1 
5933 3 
5934 1 
6709 1 
6710 3 
6711 1 
6775 1 
6776 2 
6777 1 
6832 1 
6833 3 
6834 1 
6889 1 
6890 3 
6891 1 
6955 1 
6956 3 
6957 1 
7072 1 
7073 2 
7074 1 
7078 1 
7079 2 
7080 1 
7132 1 
7133 3 
7134 1 
7135 1 
7136 2 
7137 1 
7255 1 
7256 2 
7257 1 
7789 1 
7790 2 
7791 1 
7792 1 
7793 2 
7794 1 
7855 1 
7856 3 
7857 1 
7975 1 
7976 2 
7977 1 
8032 1 
8033 3 
8034 1 
8098 1 
8099 3 
8100 1 
9109 1 
9110 3 
9111 1 
9112 1 
9113 3 
9114 1 
9169 1 
9170 3 
9171 1 
9172 1 
9173 3 
9174 1 
9178 1 
9179 2 
9180 1 
9238 1 
9239 2 
9240 1 
9295 1 
9296 2 
9297 1 
10015 1 
10016 3 
10017 1 
10072 1 
10073 2 
10074 1 
10252 1 
10253 3 
10254 1 
10312 1 
10313 3 
10314 1 
10369 1 
10370 2 
10371 1 
10372 1 
10373 2 
10374 1 
10375 1 
10376 2 
10377 1 
10429 1 
10430 3 
10431 1 
10489 1 
10490 3 
10491 1 
10498 1 
10499 3 
10500 1 
550 1 
551 2 
552 1 
721 1 
722 2 
723 1 
781 1 
782 2 
783 1 
784 1 
785 3 
786 1 
790 1 
791 3 
792 1 
850 1 
851 2 
852 1 
967 1 
968 2 
969 1 
1024 1 
1025 2 
1026 1 
1027 1 
1028 2 
1029 1 
1081 1 
1082 3 
1083 1 
1084 1 
1085 3 
1086 1 
1681 1 
1682 3 
1683 1 
1684 1 
1685 2 
1686 1 
1747 1 
1748 3 
1749 1 
1861 1 
1862 3 
1863 1 
1864 1 
1865 2 
1866 1 
1921 1 
1922 3 
1923 1 
1930 1 
1931 3 
1932 1 
2644 1 
2645 2 
2646 1 
2710 1 
2711 3 
2712 1 
2821 1 
2822 3 
2823 1 
2887 1 
2888 2 
2889 1 
2944 1 
2945 3 
2946 1 
3061 1 
3062 3 
3063 1 
3127 1 
3128 3 
3129 1 
3787 1 
3788 2 
3789 1 
3847 1 
3848 2 
3849 1 
4024 1 
4025 3 
4026 1 
4030 1 
4031 3 
4032 1 
4921 1 
4922 3 
4923 1 
5041 1 
5042 3 
5043 1 
5341 1 
5342 3 
5343 1 
6307 1 
6308 3 
6309 1 
6367 1 
6368 3 
6369 1 
6421 1 
6422 2 
6423 1 
7270 1 
7271 2 
7272 1 
7321 1 
7322 3 
7323 1 
7327 1 
7328 2 
7329 1 
7450 1 
7451 2 
7452 1 
7687 1 
7688 3 
7689 1 
8344 1 
8345 3 
8346 1 
8350 1 
8351 3 
8352 1 
8410 1 
8411 3 
8412 1 
8470 1 
8471 3 
8472 1 
8581 1 
8582 2 
8583 1 
8641 1 
8642 2 
8643 1 
8767 1 
8768 2 
8769 1 
8827 1 
8828 2 
8829 1 
9361 1 
9362 3 
9363 1 
9370 1 
9371 3 
9372 1 
9481 1 
9482 3 
9483 1 
9541 1 
9542 2 
9543 1 
9721 1 
9722 3 
9723 1 
9781 1 
9782 2 
9783 1 
9790 1 
9791 3 
9792 1 
9901 1 
9902 2 
9903 1 
9910 1 
9911 2 
9912 1 
10681 1 
10682 3 
10683 1 
10807 1 
10808 2 
10809 1 
10861 1 
10862 2 
10863 1 
10987 1 
10988 2 
10989 1 
10990 1 
10991 3 
10992 1 
733 1 
734 2 
735 1 
736 1 
737 2 
738 1 
1042 1 
1043 3 
1044 1 
1096 1 
1097 2 
1098 1 
1759 1 
1760 3 
1761 1 
1762 1 
1763 2 
1764 1 
1993 1 
1994 3 
1995 1 
1996 1 
1997 3 
1998 1 
2053 1 
2054 3 
2055 1 
2773 1 
2774 3 
2775 1 
2782 1 
2783 3 
2784 1 
2902 1 
2903 3 
2904 1 
3013 1 
3014 2 
3015 1 
3136 1 
3137 3 
3138 1 
3799 1 
3800 3 
3801 1 
3862 1 
3863 3 
3864 1 
3913 1 
3914 3 
3915 1 
4222 1 
4223 2 
4224 1 
4276 1 
4277 3 
4278 1 
4282 1 
4283 3 
4284 1 
4993 1 
4994 3 
4995 1 
5056 1 
5057 3 
5058 1 
5119 1 
5120 2 
5121 1 
5182 1 
5183 3 
5184 1 
5239 1 
5240 3 
5241 1 
5362 1 
5363 2 
5364 1 
5422 1 
5423 2 
5424 1 
6079 1 
6080 3 
6081 1 
6199 1 
6200 3 
6201 1 
6202 1 
6203 2 
6204 1 
6256 1 
6257 2 
6258 1 
6439 1 
6440 2 
6441 1 
6442 1 
6443 2 
6444 1 
6496 1 
6497 2 
6498 1 
7273 1 
7274 3 
7275 1 
7282 1 
7283 2 
7284 1 
7522 1 
7523 3 
7524 1 
7573 1 
7574 2 
7575 1 
7576 1 
7577 3 
7578 1 
8362 1 
8363 2 
8364 1 
8593 1 
8594 2 
8595 1 
8773 1 
8774 3 
8775 1 
8839 1 
8840 3 
8841 1 
9373 1 
9374 3 
9375 1 
9382 1 
9383 2 
9384 1 
9433 1 
9434 2 
9435 1 
9442 1 
9443 3 
9444 1 
9499 1 
9500 2 
9501 1 
9619 1 
9620 2 
9621 1 
9733 1 
9734 2 
9735 1 
9736 1 
9737 3 
9738 1 
9742 1 
9743 3 
9744 1 
10696 1 
10697 3 
10698 1 
10699 1 
10700 3 
10701 1 
10753 1 
10754 2 
10755 1 
10816 1 
10817 2 
10818 1 
10822 1 
10823 3 
10824 1 
10882 1 
10883 2 
10884 1 
10942 1 
10943 2 
10944 1 
11053 1 
11054 2 
11055 1 
628 1 
629 3 
630 1 
691 1 
692 3 
693 1 
1108 1 
1109 2 
1110 1 
1711 1 
1712 3 
1713 1 
1714 1 
1715 3 
1716 1 
2134 1 
2135 3 
2136 1 
2848 1 
2849 3 
2850 1 
2914 1 
2915 2 
2916 1 
3145 1 
3146 3 
3147 1 
3814 1 
3815 2 
3816 1 
3994 1 
3995 3 
3996 1 
4048 1 
4049 2 
4050 1 
4051 1 
4052 2 
4053 1 
4105 1 
4106 3 
4107 1 
4111 1 
4112 2 
4113 1 
4174 1 
4175 2 
4176 1 
4285 1 
4286 3 
4287 1 
4948 1 
4949 3 
4950 1 
4951 1 
4952 3 
4953 1 
4954 1 
4955 3 
4956 1 
5125 1 
5126 3 
5127 1 
5185 1 
5186 3 
5187 1 
5365 1 
5366 3 
5367 1 
5374 1 
5375 2 
5376 1 
5425 1 
5426 3 
5427 1 
6205 1 
6206 2 
6207 1 
6211 1 
6212 2 
6213 1 
6325 1 
6326 3 
6327 1 
6391 1 
6392 3 
6393 1 
6451 1 
6452 3 
6453 1 
6514 1 
6515 2 
6516 1 
7288 1 
7289 3 
7290 1 
7411 1 
7412 2 
7413 1 
7471 1 
7472 2 
7473 1 
7531 1 
7532 3 
7533 1 
7534 1 
7535 2 
7536 1 
7645 1 
7646 3 
7647 1 
7654 1 
7655 2 
7656 1 
8365 1 
8366 2 
8367 1 
8608 1 
8609 2 
8610 1 
8668 1 
8669 3 
8670 1 
8671 1 
8672 3 
8673 1 
9385 1 
9386 2 
9387 1 
9388 1 
9389 2 
9390 1 
9445 1 
9446 3 
9447 1 
9571 1 
9572 2 
9573 1 
9625 1 
9626 2 
9627 1 
9628 1 
9629 2 
9630 1 
9814 1 
9815 3 
9816 1 
9868 1 
9869 2 
9870 1 
10654 1 
10655 3 
10656 1 
10705 1 
10706 2 
10707 1 
10714 1 
10715 3 
10716 1 
10888 1 
10889 3 
10890 1 
10951 1 
10952 2 
10953 1 
11008 1 
11009 2 
11010 1 
580 1 
581 2 
582 1 
586 1 
587 2 
588 1 
757 1 
758 2 
759 1 
763 1 
764 3 
765 1 
823 1 
824 2 
825 1 
877 1 
878 2 
879 1 
1060 1 
1061 2 
1062 1 
1063 1 
1064 2 
1065 1 
1066 1 
1067 3 
1068 1 
1837 1 
1838 2 
1839 1 
1846 1 
1847 3 
1848 1 
1960 1 
1961 3 
1962 1 
2017 1 
2018 2 
2019 1 
2146 1 
2147 2 
2148 1 
2197 1 
2198 2 
2199 1 
2866 1 
2867 3 
2868 1 
2923 1 
2924 2 
2925 1 
2977 1 
2978 2 
2979 1 
3040 1 
3041 3 
3042 1 
3103 1 
3104 2 
3105 1 
3160 1 
3161 2 
3162 1 
3877 1 
3878 3 
3879 1 
4060 1 
4061 2 
4062 1 
4066 1 
4067 2 
4068 1 
4177 1 
4178 2 
4179 1 
4183 1 
4184 3 
4185 1 
4237 1 
4238 2 
4239 1 
4240 1 
4241 3 
4242 1 
4300 1 
4301 2 
4302 1 
4960 1 
4961 2 
4962 1 
5140 1 
5141 2 
5142 1 
5323 1 
5324 3 
5325 1 
5377 1 
5378 2 
5379 1 
5380 1 
5381 2 
5382 1 
6157 1 
6158 3 
6159 1 
6217 1 
6218 3 
6219 1 
6277 1 
6278 2 
6279 1 
6340 1 
6341 2 
6342 1 
6346 1 
6347 3 
6348 1 
6403 1 
6404 2 
6405 1 
6523 1 
6524 3 
6525 1 
7303 1 
7304 3 
7305 1 
7360 1 
7361 2 
7362 1 
7537 1 
7538 2 
7539 1 
7663 1 
7664 2 
7665 1 
7666 1 
7667 2 
7668 1 
7717 1 
7718 3 
7719 1 
7723 1 
7724 2 
7725 1 
8377 1 
8378 2 
8379 1 
8380 1 
8381 3 
8382 1 
8503 1 
8504 2 
8505 1 
8563 1 
8564 2 
8565 1 
8617 1 
8618 3 
8619 1 
8743 1 
8744 2 
8745 1 
8866 1 
8867 3 
8868 1 
9397 1 
9398 3 
9399 1 
9457 1 
9458 2 
9459 1 
9517 1 
9518 3 
9519 1 
9583 1 
9584 3 
9585 1 
9586 1 
9587 2 
9588 1 
9697 1 
9698 2 
9699 1 
9703 1 
9704 3 
9705 1 
9757 1 
9758 3 
9759 1 
9763 1 
9764 3 
9765 1 
9826 1 
9827 2 
9828 1 
9886 1 
9887 3 
9888 1 
9940 1 
9941 2 
9942 1 
10597 1 
10598 2 
10599 1 
10666 1 
10667 2 
10668 1 
10723 1 
10724 3 
10725 1 
10726 1 
10727 3 
10728 1 
598 1 
599 3 
600 1 
649 1 
650 3 
651 1 
652 1 
653 2 
654 1 
778 1 
779 3 
780 1 
889 1 
890 2 
891 1 
1015 1 
1016 2 
1017 1 
1735 1 
1736 3 
1737 1 
1849 1 
1850 3 
1851 1 
1858 1 
1859 3 
1860 1 
1909 1 
1910 3 
1911 1 
1969 1 
1970 3 
1971 1 
2032 1 
2033 2 
2034 1 
2098 1 
2099 2 
2100 1 
2755 1 
2756 3 
2757 1 
2758 1 
2759 3 
2760 1 
2818 1 
2819 2 
2820 1 
2938 1 
2939 2 
2940 1 
2995 1 
2996 2 
2997 1 
3109 1 
3110 3 
3111 1 
3118 1 
3119 3 
3120 1 
3172 1 
3173 3 
3174 1 
3178 1 
3179 2 
3180 1 
3835 1 
3836 3 
3837 1 
3958 1 
3959 2 
3960 1 
4012 1 
4013 3 
4014 1 
4129 1 
4130 2 
4131 1 
4252 1 
4253 2 
4254 1 
4258 1 
4259 2 
4260 1 
5095 1 
5096 3 
5097 1 
5209 1 
5210 2 
5211 1 
6112 1 
6113 2 
6114 1 
6115 1 
6116 3 
6117 1 
6169 1 
6170 2 
6171 1 
6289 1 
6290 2 
6291 1 
6349 1 
6350 3 
6351 1 
6358 1 
6359 2 
6360 1 
6469 1 
6470 2 
6471 1 
6595 1 
6596 2 
6597 1 
6658 1 
6659 3 
6660 1 
7318 1 
7319 3 
7320 1 
7378 1 
7379 2 
7380 1 
7429 1 
7430 3 
7431 1 
7438 1 
7439 2 
7440 1 
7489 1 
7490 3 
7491 1 
7495 1 
7496 3 
7497 1 
7498 1 
7499 2 
7500 1 
7552 1 
7553 3 
7554 1 
7618 1 
7619 3 
7620 1 
8395 1 
8396 2 
8397 1 
8452 1 
8453 2 
8454 1 
8458 1 
8459 3 
8460 1 
8518 1 
8519 2 
8520 1 
8749 1 
8750 3 
8751 1 
8758 1 
8759 2 
8760 1 
8815 1 
8816 2 
8817 1 
8818 1 
8819 3 
8820 1 
8875 1 
8876 2 
8877 1 
9412 1 
9413 3 
9414 1 
9778 1 
9779 2 
9780 1 
9829 1 
9830 3 
9831 1 
9892 1 
9893 2 
9894 1 
9958 1 
9959 3 
9960 1 
10855 1 
10856 3 
10857 1 
10978 1 
10979 2 
10980 1 
11164 1 
11165 3 
11166 1 
11221 1 
11222 3 
11223 1 
11290 1 
11291 2 
11292 1 
11404 1 
11405 3 
11406 1 
11407 1 
11408 3 
11409 1 
11464 1 
11465 2 
11466 1 
12064 1 
12065 2 
12066 1 
12184 1 
12185 2 
12186 1 
12241 1 
12242 2 
12243 1 
12370 1 
12371 3 
12372 1 
12427 1 
12428 3 
12429 1 
12547 1 
12548 3 
12549 1 
13204 1 
13205 3 
13206 1 
13327 1 
13328 2 
13329 1 
13390 1 
13391 2 
13392 1 
13447 1 
13448 2 
13449 1 
13561 1 
13562 3 
13563 1 
14287 1 
14288 3 
14289 1 
14404 1 
14405 3 
14406 1 
14521 1 
14522 2 
14523 1 
14527 1 
14528 3 
14529 1 
14647 1 
14648 2 
14649 1 
15301 1 
15302 3 
15303 1 
15421 1 
15422 3 
15423 1 
15484 1 
15485 2 
15486 1 
15490 1 
15491 3 
15492 1 
15664 1 
15665 2 
15666 1 
15667 1 
15668 3 
15669 1 
15724 1 
15725 3 
15726 1 
16330 1 
16331 2 
16332 1 
16384 1 
16385 3 
16386 1 
16501 1 
16502 3 
16503 1 
16504 1 
16505 2 
16506 1 
16681 1 
16682 3 
16683 1 
16684 1 
16685 2 
16686 1 
17287 1 
17288 3 
17289 1 
17404 1 
17405 2 
17406 1 
17461 1 
17462 2 
17463 1 
17464 1 
17465 3 
17466 1 
17647 1 
17648 2 
17649 1 
18601 1 
18602 3 
18603 1 
18604 1 
18605 3 
18606 1 
18664 1 
18665 3 
18666 1 
18667 1 
18668 3 
18669 1 
18724 1 
18725 2 
18726 1 
18781 1 
18782 2 
18783 1 
19564 1 
19565 2 
19566 1 
19570 1 
19571 2 
19572 1 
19681 1 
19682 3 
19683 1 
19744 1 
19745 2 
19746 1 
19747 1 
19748 3 
19749 1 
19804 1 
19805 3 
19806 1 
19807 1 
19808 3 
19809 1 
20641 1 
20642 2 
20643 1 
20647 1 
20648 2 
20649 1 
20704 1 
20705 3 
20706 1 
20707 1 
20708 3 
20709 1 
20770 1 
20771 3 
20772 1 
20827 1 
20828 2 
20829 1 
20887 1 
20888 2 
20889 1 
20941 1 
20942 2 
20943 1 
20944 1 
20945 3 
20946 1 
20950 1 
20951 3 
20952 1 
21001 1 
21002 2 
21003 1 
11173 1 
11174 2 
11175 1 
11176 1 
11177 2 
11178 1 
11293 1 
11294 2 
11295 1 
11299 1 
11300 3 
11301 1 
11302 1 
11303 2 
11304 1 
11473 1 
11474 3 
11475 1 
11482 1 
11483 3 
11484 1 
12079 1 
12080 2 
12081 1 
12256 1 
12257 2 
12258 1 
12322 1 
12323 2 
12324 1 
12373 1 
12374 3 
12375 1 
12379 1 
12380 2 
12381 1 
12382 1 
12383 3 
12384 1 
12433 1 
12434 3 
12435 1 
12436 1 
12437 2 
12438 1 
12493 1 
12494 3 
12495 1 
12499 1 
12500 2 
12501 1 
12616 1 
12617 3 
12618 1 
12619 1 
12620 2 
12621 1 
13276 1 
13277 3 
13278 1 
13279 1 
13280 2 
13281 1 
13336 1 
13337 2 
13338 1 
13402 1 
13403 3 
13404 1 
13522 1 
13523 2 
13524 1 
14596 1 
14597 2 
14598 1 
15433 1 
15434 3 
15435 1 
15556 1 
15557 3 
15558 1 
15736 1 
15737 3 
15738 1 
16333 1 
16334 3 
16335 1 
16396 1 
16397 2 
16398 1 
16402 1 
16403 3 
16404 1 
16516 1 
16517 3 
16518 1 
16522 1 
16523 2 
16524 1 
16633 1 
16634 3 
16635 1 
16702 1 
16703 3 
16704 1 
17353 1 
17354 3 
17355 1 
17356 1 
17357 3 
17358 1 
17413 1 
17414 2 
17415 1 
17419 1 
17420 2 
17421 1 
17473 1 
17474 2 
17475 1 
17476 1 
17477 3 
17478 1 
17479 1 
17480 2 
17481 1 
17482 1 
17483 2 
17484 1 
17713 1 
17714 3 
17715 1 
18553 1 
18554 3 
18555 1 
18613 1 
18614 3 
18615 1 
18682 1 
18683 3 
18684 1 
18802 1 
18803 3 
18804 1 
18856 1 
18857 2 
18858 1 
19453 1 
19454 3 
19455 1 
19459 1 
19460 3 
19461 1 
19513 1 
19514 2 
19515 1 
19519 1 
19520 3 
19521 1 
19573 1 
19574 2 
19575 1 
19813 1 
19814 2 
19815 1 
19822 1 
19823 2 
19824 1 
19882 1 
19883 2 
19884 1 
20593 1 
20594 2 
20595 1 
20656 1 
20657 3 
20658 1 
20662 1 
20663 3 
20664 1 
20722 1 
20723 2 
20724 1 
20779 1 
20780 3 
20781 1 
20839 1 
20840 2 
20841 1 
20899 1 
20900 3 
20901 1 
20902 1 
20903 3 
20904 1 
20956 1 
20957 2 
20958 1 
20959 1 
20960 3 
20961 1 
21016 1 
21017 3 
21018 1 
11134 1 
11135 2 
11136 1 
11188 1 
11189 3 
11190 1 
11245 1 
11246 2 
11247 1 
11368 1 
11369 3 
11370 1 
11431 1 
11432 2 
11433 1 
12085 1 
12086 2 
12087 1 
12088 1 
12089 2 
12090 1 
12094 1 
12095 2 
12096 1 
12211 1 
12212 2 
12213 1 
12265 1 
12266 2 
12267 1 
12274 1 
12275 3 
12276 1 
12328 1 
12329 3 
12330 1 
12331 1 
12332 3 
12333 1 
12445 1 
12446 3 
12447 1 
12571 1 
12572 2 
12573 1 
13228 1 
13229 2 
13230 1 
13285 1 
13286 2 
13287 1 
13288 1 
13289 2 
13290 1 
14251 1 
14252 3 
14253 1 
14314 1 
14315 2 
14316 1 
14371 1 
14372 3 
14373 1 
14425 1 
14426 3 
14427 1 
14485 1 
14486 2 
14487 1 
14551 1 
14552 2 
14553 1 
14611 1 
14612 3 
14613 1 
14665 1 
14666 3 
14667 1 
15328 1 
15329 3 
15330 1 
15514 1 
15515 3 
15516 1 
15568 1 
15569 3 
15570 1 
15571 1 
15572 2 
15573 1 
15691 1 
15692 3 
15693 1 
16354 1 
16355 2 
16356 1 
16411 1 
16412 2 
16413 1 
16468 1 
16469 3 
16470 1 
16714 1 
16715 2 
16716 1 
17308 1 
17309 3 
17310 1 
17428 1 
17429 3 
17430 1 
17485 1 
17486 3 
17487 1 
17554 1 
17555 2 
17556 1 
17665 1 
17666 3 
17667 1 
17674 1 
17675 3 
17676 1 
17731 1 
17732 2 
17733 1 
17791 1 
17792 2 
17793 1 
18394 1 
18395 3 
18396 1 
18454 1 
18455 3 
18456 1 
18511 1 
18512 2 
18513 1 
18568 1 
18569 3 
18570 1 
18571 1 
18572 3 
18573 1 
18685 1 
18686 3 
18687 1 
18688 1 
18689 3 
18690 1 
18808 1 
18809 2 
18810 1 
18871 1 
18872 3 
18873 1 
19528 1 
19529 3 
19530 1 
19531 1 
19532 2 
19533 1 
19651 1 
19652 3 
19653 1 
19705 1 
19706 3 
19707 1 
19714 1 
19715 2 
19716 1 
19765 1 
19766 3 
19767 1 
19888 1 
19889 3 
19890 1 
20608 1 
20609 2 
20610 1 
20611 1 
20612 2 
20613 1 
20785 1 
20786 3 
20787 1 
20845 1 
20846 3 
20847 1 
20848 1 
20849 3 
20850 1 
20905 1 
20906 2 
20907 1 
20914 1 
20915 2 
20916 1 
20965 1 
20966 3 
20967 1 
20971 1 
20972 2 
20973 1 
20974 1 
20975 3 
20976 1 
21034 1 
21035 2 
21036 1 
11140 1 
11141 2 
11142 1 
11257 1 
11258 3 
11259 1 
11260 1 
11261 3 
11262 1 
11500 1 
11501 2 
11502 1 
12157 1 
12158 3 
12159 1 
12160 1 
12161 3 
12162 1 
12217 1 
12218 3 
12219 1 
12346 1 
12347 3 
12348 1 
12406 1 
12407 2 
12408 1 
12463 1 
12464 3 
12465 1 
12577 1 
12578 3 
12579 1 
13177 1 
13178 3 
13179 1 
13243 1 
13244 2 
13245 1 
13480 1 
13481 3 
13482 1 
13483 1 
13484 3 
13485 1 
13540 1 
13541 2 
13542 1 
13600 1 
13601 3 
13602 1 
14326 1 
14327 3 
14328 1 
14377 1 
14378 3 
14379 1 
14563 1 
14564 2 
14565 1 
14623 1 
14624 2 
14625 1 
14677 1 
14678 3 
14679 1 
15400 1 
15401 2 
15402 1 
15460 1 
15461 3 
15462 1 
15463 1 
15464 2 
15465 1 
15640 1 
15641 2 
15642 1 
15697 1 
15698 3 
15699 1 
16357 1 
16358 3 
16359 1 
16363 1 
16364 2 
16365 1 
16417 1 
16418 3 
16419 1 
16540 1 
16541 3 
16542 1 
16597 1 
16598 3 
16599 1 
17323 1 
17324 3 
17325 1 
17380 1 
17381 2 
17382 1 
17383 1 
17384 2 
17385 1 
17500 1 
17501 3 
17502 1 
17503 1 
17504 3 
17505 1 
17566 1 
17567 3 
17568 1 
17617 1 
17618 3 
17619 1 
17623 1 
17624 2 
17625 1 
17683 1 
17684 3 
17685 1 
17686 1 
17687 3 
17688 1 
18460 1 
18461 3 
18462 1 
18463 1 
18464 2 
18465 1 
18466 1 
18467 2 
18468 1 
18520 1 
18521 3 
18522 1 
18523 1 
18524 3 
18525 1 
18577 1 
18578 2 
18579 1 
18646 1 
18647 3 
18648 1 
18703 1 
18704 2 
18705 1 
18760 1 
18761 3 
18762 1 
18820 1 
18821 2 
18822 1 
19597 1 
19598 3 
19599 1 
19603 1 
19604 2 
19605 1 
19663 1 
19664 2 
19665 1 
19717 1 
19718 3 
19719 1 
19726 1 
19727 2 
19728 1 
19783 1 
19784 2 
19785 1 
20740 1 
20741 3 
20742 1 
20743 1 
20744 2 
20745 1 
20797 1 
20798 2 
20799 1 
20806 1 
20807 2 
20808 1 
21043 1 
21044 2 
21045 1 
11209 1 
11210 3 
11211 1 
11269 1 
11270 3 
11271 1 
11329 1 
11330 3 
11331 1 
11335 1 
11336 3 
11337 1 
11338 1 
11339 3 
11340 1 
11398 1 
11399 2 
11400 1 
11449 1 
11450 3 
11451 1 
11458 1 
11459 3 
11460 1 
12109 1 
12110 3 
12111 1 
12238 1 
12239 3 
12240 1 
12289 1 
12290 2 
12291 1 
12355 1 
12356 2 
12357 1 
12529 1 
12530 3 
12531 1 
12538 1 
12539 2 
12540 1 
12589 1 
12590 3 
12591 1 
12595 1 
12596 2 
12597 1 
12652 1 
12653 3 
12654 1 
12658 1 
12659 2 
12660 1 
13195 1 
13196 2 
13197 1 
13258 1 
13259 3 
13260 1 
13369 1 
13370 3 
13371 1 
13372 1 
13373 3 
13374 1 
13435 1 
13436 3 
13437 1 
13438 1 
13439 3 
13440 1 
13489 1 
13490 3 
13491 1 
13549 1 
13550 3 
13551 1 
13552 1 
13553 2 
13554 1 
14278 1 
14279 3 
14280 1 
14338 1 
14339 2 
14340 1 
14515 1 
14516 2 
14517 1 
14518 1 
14519 2 
14520 1 
14572 1 
14573 2 
14574 1 
14629 1 
14630 2 
14631 1 
14698 1 
14699 3 
14700 1 
15349 1 
15350 2 
15351 1 
15352 1 
15353 3 
15354 1 
15409 1 
15410 2 
15411 1 
15412 1 
15413 3 
15414 1 
15772 1 
15773 3 
15774 1 
15775 1 
15776 3 
15777 1 
15778 1 
15779 3 
15780 1 
16429 1 
16430 3 
16431 1 
16492 1 
16493 2 
16494 1 
16552 1 
16553 2 
16554 1 
16615 1 
16616 3 
16617 1 
16618 1 
16619 2 
16620 1 
17398 1 
17399 2 
17400 1 
17452 1 
17453 2 
17454 1 
17515 1 
17516 3 
17517 1 
17692 1 
17693 3 
17694 1 
18409 1 
18410 2 
18411 1 
18472 1 
18473 3 
18474 1 
18478 1 
18479 2 
18480 1 
18652 1 
18653 3 
18654 1 
18769 1 
18770 2 
18771 1 
18772 1 
18773 2 
18774 1 
18838 1 
18839 3 
18840 1 
18889 1 
18890 3 
18891 1 
19612 1 
19613 3 
19614 1 
19615 1 
19616 2 
19617 1 
19795 1 
19796 2 
19797 1 
19798 1 
19799 3 
19800 1 
19858 1 
19859 2 
19860 1 
20632 1 
20633 3 
20634 1 
20635 1 
20636 2 
20637 1 
20689 1 
20690 3 
20691 1 
20698 1 
20699 2 
20700 1 
20749 1 
20750 3 
20751 1 
20809 1 
20810 2 
20811 1 
20818 1 
20819 3 
20820 1 
20872 1 
20873 3 
20874 1 
20935 1 
20936 3 
20937 1 
20938 1 
20939 2 
20940 1 
20998 1 
20999 2 
21000 1 
11521 1 
11522 2 
11523 1 
11704 1 
11705 3 
11706 1 
11761 1 
11762 2 
11763 1 
11767 1 
11768 2 
11769 1 
11884 1 
11885 2 
11886 1 
12787 1 
12788 3 
12789 1 
12844 1 
12845 2 
12846 1 
12910 1 
12911 2 
12912 1 
13024 1 
13025 2 
13026 1 
13027 1 
13028 3 
13029 1 
13081 1 
13082 2 
13083 1 
13084 1 
13085 3 
13086 1 
13090 1 
13091 3 
13092 1 
13627 1 
13628 3 
13629 1 
13681 1 
13682 3 
13683 1 
13861 1 
13862 2 
13863 1 
13864 1 
13865 3 
13866 1 
13921 1 
13922 3 
13923 1 
14710 1 
14711 3 
14712 1 
14767 1 
14768 3 
14769 1 
14821 1 
14822 3 
14823 1 
14941 1 
14942 3 
14943 1 
14944 1 
14945 3 
14946 1 
15010 1 
15011 2 
15012 1 
15061 1 
15062 2 
15063 1 
15067 1 
15068 2 
15069 1 
15184 1 
15185 2 
15186 1 
15904 1 
15905 3 
15906 1 
15910 1 
15911 3 
15912 1 
15961 1 
15962 2 
15963 1 
15967 1 
15968 3 
15969 1 
16021 1 
16022 3 
16023 1 
16084 1 
16085 3 
16086 1 
16144 1 
16145 3 
16146 1 
16150 1 
16151 2 
16152 1 
16744 1 
16745 2 
16746 1 
16864 1 
16865 3 
16866 1 
16921 1 
16922 2 
16923 1 
16930 1 
16931 3 
16932 1 
17044 1 
17045 3 
17046 1 
17107 1 
17108 2 
17109 1 
17110 1 
17111 2 
17112 1 
17221 1 
17222 3 
17223 1 
17227 1 
17228 2 
17229 1 
17824 1 
17825 2 
17826 1 
17941 1 
17942 2 
17943 1 
18121 1 
18122 3 
18123 1 
18187 1 
18188 3 
18189 1 
18241 1 
18242 2 
18243 1 
18250 1 
18251 3 
18252 1 
18307 1 
18308 2 
18309 1 
18910 1 
18911 3 
18912 1 
19084 1 
19085 2 
19086 1 
19141 1 
19142 2 
19143 1 
19144 1 
19145 3 
19146 1 
19261 1 
19262 3 
19263 1 
19267 1 
19268 3 
19269 1 
19270 1 
19271 3 
19272 1 
19384 1 
19385 2 
19386 1 
19387 1 
19388 2 
19389 1 
19987 1 
19988 2 
19989 1 
20221 1 
20222 2 
20223 1 
20230 1 
20231 3 
20232 1 
20341 1 
20342 3 
20343 1 
20407 1 
20408 2 
20409 1 
20461 1 
20462 3 
20463 1 
21181 1 
21182 2 
21183 1 
21187 1 
21188 2 
21189 1 
21244 1 
21245 3 
21246 1 
21301 1 
21302 3 
21303 1 
21430 1 
21431 3 
21432 1 
21490 1 
21491 2 
21492 1 
11836 1 
11837 3 
11838 1 
11899 1 
11900 2 
11901 1 
12679 1 
12680 2 
12681 1 
12973 1 
12974 3 
12975 1 
12982 1 
12983 3 
12984 1 
13033 1 
13034 3 
13035 1 
13093 1 
13094 3 
13095 1 
13816 1 
13817 3 
13818 1 
13819 1 
13820 3 
13821 1 
13996 1 
13997 2 
13998 1 
14053 1 
14054 2 
14055 1 
14059 1 
14060 3 
14061 1 
14062 1 
14063 2 
14064 1 
14113 1 
14114 3 
14115 1 
14179 1 
14180 3 
14181 1 
14716 1 
14717 3 
14718 1 
14899 1 
14900 2 
14901 1 
14902 1 
14903 3 
14904 1 
15022 1 
15023 3 
15024 1 
15133 1 
15134 2 
15135 1 
15139 1 
15140 2 
15141 1 
15799 1 
15800 2 
15801 1 
15856 1 
15857 2 
15858 1 
16102 1 
16103 2 
16104 1 
16156 1 
16157 3 
16158 1 
16159 1 
16160 3 
16161 1 
16219 1 
16220 3 
16221 1 
16282 1 
16283 3 
16284 1 
16882 1 
16883 2 
16884 1 
16933 1 
16934 2 
16935 1 
17056 1 
17057 3 
17058 1 
17182 1 
17183 2 
17184 1 
18016 1 
18017 2 
18018 1 
18073 1 
18074 3 
18075 1 
18082 1 
18083 3 
18084 1 
18133 1 
18134 2 
18135 1 
18913 1 
18914 3 
18915 1 
18916 1 
18917 3 
18918 1 
19093 1 
19094 3 
19095 1 
19096 1 
19097 2 
19098 1 
19153 1 
19154 2 
19155 1 
19156 1 
19157 3 
19158 1 
19162 1 
19163 3 
19164 1 
19282 1 
19283 2 
19284 1 
19333 1 
19334 2 
19335 1 
19336 1 
19337 2 
19338 1 
19393 1 
19394 3 
19395 1 
19933 1 
19934 3 
19935 1 
19936 1 
19937 3 
19938 1 
19939 1 
19940 3 
19941 1 
19942 1 
19943 2 
19944 1 
19996 1 
19997 2 
19998 1 
19999 1 
20000 3 
20001 1 
20002 1 
20003 2 
20004 1 
20119 1 
20120 3 
20121 1 
20302 1 
20303 2 
20304 1 
20356 1 
20357 2 
20358 1 
20419 1 
20420 3 
20421 1 
20479 1 
20480 2 
20481 1 
20482 1 
20483 2 
20484 1 
21082 1 
21083 3 
21084 1 
21142 1 
21143 3 
21144 1 
21262 1 
21263 2 
21264 1 
21373 1 
21374 2 
21375 1 
21502 1 
21503 2 
21504 1 
21553 1 
21554 3 
21555 1 
11545 1 
11546 3 
11547 1 
11614 1 
11615 3 
11616 1 
11668 1 
11669 2 
11670 1 
11734 1 
11735 3 
11736 1 
11848 1 
11849 3 
11850 1 
11911 1 
11912 2 
11913 1 
11914 1 
11915 3 
11916 1 
12754 1 
12755 3 
12756 1 
12868 1 
12869 2 
12870 1 
12874 1 
12875 2 
12876 1 
12985 1 
12986 2 
12987 1 
12988 1 
12989 2 
12990 1 
13048 1 
13049 3 
13050 1 
13051 1 
13052 3 
13053 1 
13054 1 
13055 3 
13056 1 
13885 1 
13886 2 
13887 1 
13945 1 
13946 3 
13947 1 
13948 1 
13949 3 
13950 1 
13954 1 
13955 2 
13956 1 
14068 1 
14069 2 
14070 1 
14134 1 
14135 2 
14136 1 
14191 1 
14192 2 
14193 1 
14725 1 
14726 2 
14727 1 
14845 1 
14846 3 
14847 1 
14965 1 
14966 2 
14967 1 
14971 1 
14972 2 
14973 1 
15025 1 
15026 3 
15027 1 
15265 1 
15266 2 
15267 1 
15808 1 
15809 2 
15810 1 
15865 1 
15866 3 
15867 1 
15928 1 
15929 2 
15930 1 
15931 1 
15932 2 
15933 1 
16045 1 
16046 3 
16047 1 
16048 1 
16049 2 
16050 1 
16111 1 
16112 2 
16113 1 
16165 1 
16166 2 
16167 1 
16171 1 
16172 2 
16173 1 
16294 1 
16295 2 
16296 1 
16768 1 
16769 3 
16770 1 
16888 1 
16889 3 
16890 1 
16945 1 
16946 2 
16947 1 
17005 1 
17006 3 
17007 1 
17851 1 
17852 2 
17853 1 
17854 1 
17855 2 
17856 1 
17914 1 
17915 2 
17916 1 
17971 1 
17972 2 
17973 1 
18148 1 
18149 3 
18150 1 
18268 1 
18269 3 
18270 1 
18331 1 
18332 2 
18333 1 
18934 1 
18935 3 
18936 1 
18994 1 
18995 3 
18996 1 
19051 1 
19052 3 
19053 1 
19165 1 
19166 3 
19167 1 
19345 1 
19346 3 
19347 1 
19405 1 
19406 3 
19407 1 
19945 1 
19946 3 
19947 1 
19948 1 
19949 2 
19950 1 
19951 1 
19952 3 
19953 1 
19954 1 
19955 3 
19956 1 
20071 1 
20072 2 
20073 1 
20188 1 
20189 2 
20190 1 
20194 1 
20195 2 
20196 1 
20245 1 
20246 2 
20247 1 
20428 1 
20429 2 
20430 1 
20485 1 
20486 2 
20487 1 
21085 1 
21086 3 
21087 1 
21088 1 
21089 3 
21090 1 
21091 1 
21092 3 
21093 1 
21208 1 