ITEM: TIMESTEP
50000000
ITEM: NUMBER OF ATOMS
4467
ITEM: BOX BOUNDS pp pp pp
0.0000000000000000e+00 5.0000000000000000e+01
0.0000000000000000e+00 5.0000000000000000e+01
0.0000000000000000e+00 5.0000000000000000e+01
ITEM: ATOMS id type vx vy vz 
19508 3 -1.4657 0.582605 0.680698 
19507 1 4.94924 -2.39543 -2.75958 
6562 1 -2.54248 3.47631 1.19214 
131 2 0.112989 -0.319339 0.155587 
132 1 -1.23173 -0.618802 -4.48243 
17081 3 4.20699 0.25836 -2.76616 
896 3 -1.86782 -4.82342 0.256314 
17082 1 -4.53057 -3.12309 -0.0295734 
895 1 1.88094 0.63085 2.94386 
17080 1 1.91082 0.996493 0.225745 
11325 1 -1.23503 -2.21158 0.12265 
897 1 -0.601491 -1.28574 1.17168 
12424 1 -4.68587 2.90447 4.07033 
3691 1 -0.498321 -0.397506 3.41216 
1132 1 6.01811 -3.14634 -2.86967 
1134 1 -1.81997 5.41147 1.17174 
1133 3 2.81442 -3.79763 1.97884 
6757 1 1.82489 0.0822194 -5.4041 
6758 3 -3.37375 -1.32841 -0.433912 
19887 1 -0.0296225 -4.18092 2.9541 
19886 3 -3.85099 0.501393 -0.898738 
19885 1 -3.69563 -4.25737 -0.78753 
19509 1 0.351601 3.28623 0.863874 
21238 1 0.487931 1.29496 -3.48529 
15450 1 3.55457 5.31071 7.00394 
12687 1 0.693417 6.24285 -6.47155 
12686 2 3.1788 -1.41946 2.29123 
6563 3 -2.30148 0.639902 -2.91726 
19817 3 4.6101 -1.78957 -0.578163 
19816 1 -1.12467 -5.61208 1.17863 
21271 1 0.572888 -0.518368 0.622449 
21272 2 -0.539951 -3.99527 -1.44208 
12685 1 0.405986 -0.543518 1.15439 
6163 1 1.2508 4.8603 -4.30012 
20018 2 -3.75365 1.97346 4.0332 
20017 1 3.45629 0.117409 -5.47549 
20019 1 1.37845 1.57123 5.77532 
6164 2 -3.58292 -0.57072 -0.677444 
6165 1 -1.88636 0.956938 5.80942 
4638 1 1.88363 -0.913226 -5.5309 
19255 1 3.11646 13.5135 -0.0793511 
2921 2 1.90893 -0.733093 2.53648 
2922 1 -1.10739 -0.726548 0.0091972 
2920 1 -3.42832 5.89985 -0.398228 
11323 1 -0.18765 -4.11716 -1.58946 
11324 2 0.545804 -2.50154 2.95904 
6564 1 -5.30933 9.13168 1.69509 
1285 1 -0.102994 -1.01897 -2.81969 
1287 1 -1.44842 -1.94605 -4.16084 
1286 2 2.48317 -3.45123 -0.00905711 
15938 2 1.09383 2.37526 -0.0388361 
15937 1 -1.43408 -2.53357 -6.06897 
15939 1 2.69188 3.45594 1.47754 
6487 1 -0.206511 2.84424 5.52467 
6488 3 -1.77208 -1.86113 3.78147 
1438 1 -3.12882 -2.49145 -4.17636 
1439 2 0.447958 3.15186 1.81834 
6489 1 4.93115 -1.60579 -1.54907 
1440 1 -6.15955 -10.0369 -3.0843 
16961 2 -4.78741 5.2717 -1.93231 
16960 1 -2.02152 5.72633 -0.539174 
18439 1 4.75152 -3.35785 5.8657 
12425 3 -1.53206 4.23493 1.8155 
12426 1 -1.33798 1.88195 2.27539 
16255 1 -6.25926 -4.69344 1.29833 
16256 2 -0.53774 -0.979125 1.60801 
16257 1 -0.420188 6.14556 -0.780244 
3692 3 -0.376123 -3.81565 -0.685215 
3693 1 2.76947 1.37661 -3.81381 
17994 1 1.47916 1.46044 4.06757 
17993 2 -2.69415 2.26659 -2.09338 
14918 2 -1.12173 1.33059 2.50597 
14919 1 -0.339384 -1.7618 6.09171 
14917 1 5.2499 -2.1768 3.09858 
8319 1 -3.32608 -1.97209 -0.999789 
6759 1 0.0990749 0.57413 -1.8551 
8356 1 -1.77977 7.67504 -6.20244 
8357 2 1.94645 1.9982 1.68965 
8358 1 -3.0392 -0.713967 -1.21995 
13972 1 -3.72581 -2.66226 -2.53379 
20878 1 1.32077 -7.08126 4.81654 
21239 3 1.01346 -2.38297 0.868415 
21240 1 -2.80993 4.26448 1.71623 
3043 1 -0.0102166 0.880068 -3.62459 
3044 2 2.73981 0.397659 -5.33799 
3045 1 1.9772 -1.56414 -5.39939 
12678 1 2.6345 -1.44682 2.88983 
17663 2 -1.05153 -1.80276 -0.671135 
11037 1 -0.449883 3.03738 -1.09723 
17887 1 -0.681009 1.44855 -1.05006 
17888 3 3.69262 -0.611469 -1.75197 
17889 1 -5.43655 3.35869 -0.24525 
18420 1 0.18565 5.29449 0.572893 
4281 1 -3.91491 2.54748 0.836929 
14276 2 2.86317 -2.23206 0.612796 
14275 1 3.91893 -2.65297 4.67035 
18418 1 -3.11075 -1.43522 -2.88001 
18419 2 -1.68084 1.32242 -0.0339959 
1886 2 1.76064 -0.137786 2.67376 
1887 1 0.67873 2.15807 1.6881 
10788 1 -3.98047 3.73208 -0.0647231 
10787 2 1.72825 0.472719 1.16913 
137 2 -0.308707 0.837883 1.19746 
138 1 5.49742 -2.9459 3.76922 
136 1 -2.62671 -4.62479 2.66036 
15984 1 -6.03884 2.0513 0.609093 
15982 1 2.98232 5.1813 -5.8039 
15983 2 -1.52434 -0.686125 -2.2312 
20534 2 3.61682 0.332223 -1.42881 
20533 1 1.13167 6.38021 0.228406 
10831 1 0.989309 0.00314085 -2.53517 
579 1 -2.77798 -1.71605 1.31984 
577 1 2.83253 0.0370678 4.32305 
20535 1 2.10944 -3.0306 -2.4151 
578 2 0.0236066 1.89698 6.93663 
4280 2 0.821628 1.29954 -2.44725 
12187 1 -2.17808 2.32897 -1.62147 
20439 1 2.97368 7.45965 7.06136 
4279 1 -0.754291 4.77753 0.253475 
4846 1 -4.51591 -1.96283 1.60757 
20438 2 -3.27901 -0.615633 -0.381722 
4847 2 -0.601971 0.159297 -0.914317 
12188 2 2.3243 -1.46854 0.132385 
12189 1 -4.1412 -0.966353 -1.14248 
15797 2 0.0932402 4.70039 0.989628 
15796 1 1.02455 -3.29592 -0.604598 
5877 1 -1.12293 1.98779 -0.271175 
5876 2 1.07752 4.34945 1.23899 
16753 1 1.02785 -4.2017 -4.96791 
5875 1 4.90498 -1.8765 -4.38483 
16754 2 -0.309188 -4.06953 4.51645 
19818 1 0.915634 5.67154 -9.92946 
6679 1 0.204768 -5.14456 0.512929 
4609 1 6.28189 0.529598 3.34227 
8385 1 -0.114393 -2.78906 -2.08714 
6051 1 -2.74618 0.0964293 -6.05093 
10832 2 -1.76875 1.38143 -9.02409 
21273 1 3.77584 1.67385 -4.12118 
9666 1 2.24341 5.62542 -1.26079 
21074 2 -0.911748 2.65913 -2.20309 
21073 1 -5.77253 5.81678 -5.08425 
17598 1 -0.225794 1.84054 -3.89318 
21075 1 -5.04391 1.28128 -4.47386 
14646 1 -6.7779 3.30072 -2.90013 
9665 2 -0.874753 -4.10653 -1.25405 
20437 1 0.94367 -2.43096 -3.62422 
17596 1 4.42085 -0.364713 -1.91889 
17597 2 -5.5008 -1.80838 2.39316 
19256 2 -2.7408 -3.37935 -0.41756 
13912 1 3.24181 3.56103 -6.33792 
19257 1 7.79652 3.10979 -1.72408 
12834 1 0.911127 1.19143 -0.151689 
12833 2 1.04593 3.09148 -3.14945 
12832 1 1.01325 3.38088 -4.26785 
19713 1 -6.12624 -5.014 -1.39869 
13913 2 0.0601513 -1.16409 5.95818 
7002 1 -1.73977 -2.04436 1.05763 
18153 1 0.267102 3.30123 -3.5947 
677 2 -3.46126 2.00177 -0.819708 
9568 1 -1.21679 -0.00704868 -0.495988 
9569 2 -1.62986 -0.330265 -1.69951 
6680 2 -1.02221 3.63758 -1.68287 
6681 1 1.4074 1.25048 1.35502 
678 1 3.08636 1.24664 -6.34343 
9570 1 1.7093 -3.82171 -1.90739 
7001 2 0.833319 1.71629 3.9297 
18152 2 5.55312 5.31459 1.09151 
8927 2 -2.41503 -0.632593 0.62336 
8926 1 -1.1679 -1.16817 -2.45397 
9917 2 1.69097 -2.52846 -3.38604 
5020 1 4.37607 0.295454 1.20769 
2160 1 3.46861 -2.30175 -3.29288 
8928 1 -3.2122 -4.09009 3.52333 
7386 1 5.68881 4.84638 -3.79439 
9918 1 -2.07539 -0.866293 1.0734 
9664 1 -3.26829 5.51445 -2.69922 
5022 1 4.04593 3.30111 2.15053 
5021 2 -0.051627 2.65565 1.53686 
16962 1 3.29705 4.42402 4.48413 
4636 1 3.26109 -2.92524 -1.25121 
1056 1 -6.40037 3.22204 -5.41138 
1055 2 -0.29687 2.37006 1.67736 
16126 1 0.393858 4.56982 2.06409 
16127 2 1.72433 2.31981 -1.35368 
1054 1 -0.07508 -6.32628 1.53469 
19525 1 0.279802 2.33547 -2.59328 
18440 2 -2.47705 4.19846 -4.29295 
4637 2 -2.94373 -2.09792 2.03629 
19712 2 3.61937 2.06636 -0.33101 
18441 1 -1.32255 2.37878 -1.82846 
8303 2 1.84999 -3.15593 -1.97357 
8304 1 -4.46009 5.04916 0.847228 
8302 1 4.54268 0.946171 2.23067 
3838 1 -1.80497 -7.19148 7.07018 
3839 2 2.79472 -5.94707 0.0609549 
10190 2 1.24681 -1.79557 1.15224 
17992 1 -2.59068 -2.91903 2.65387 
1902 1 2.42999 -4.12328 1.62098 
17439 1 -1.58224 -1.20723 4.81903 
17438 2 1.71051 0.112237 1.05604 
1901 2 2.11681 0.440274 1.01943 
20106 1 -0.136745 -1.16157 -1.33095 
20105 2 1.07938 -2.52749 1.19092 
10191 1 0.244115 1.97513 -2.92255 
1900 1 1.10029 2.07915 0.341292 
7557 1 -5.35912 2.84723 -1.56791 
7556 2 6.64861 2.54088 1.91421 
2158 1 -3.66783 -0.99626 -0.167881 
2159 2 0.643677 3.93791 -1.20649 
1289 2 -0.660513 -1.27973 -0.128563 
8318 2 -2.35187 0.589783 3.53992 
1288 1 2.50523 4.93994 1.12304 
8317 1 -1.1381 -1.76068 -5.71916 
19526 2 -0.050907 -0.650826 -5.11296 
19527 1 0.069154 -5.51155 -2.25002 
4071 1 -1.86888 -3.79307 -1.91721 
4070 2 0.438504 -0.72016 1.03316 
6651 1 3.60809 -0.93146 -3.00884 
19741 1 -0.243415 0.430623 0.963599 
20879 2 -1.28892 -0.561195 -3.4984 
1936 1 -2.48816 1.98504 -6.44401 
20880 1 -2.41568 2.14334 1.82962 
1937 2 5.36401 -1.7648 0.835681 
19742 2 -2.19622 0.685647 3.2552 
1938 1 0.244206 0.724673 -6.0188 
18859 1 -4.98972 -3.94922 4.18684 
13973 2 1.06282 1.43919 -0.264791 
2827 1 1.86748 4.76825 0.381698 
19743 1 -2.4897 2.74377 -0.672117 
13971 1 9.04814 -1.14731 -1.63701 
2983 1 -1.73371 1.94543 1.6325 
12677 2 -2.55459 1.10596 -2.21765 
12676 1 0.582158 3.90165 -3.04541 
2984 2 -1.66043 -0.905057 3.40339 
13970 2 0.311033 2.30977 -0.565515 
2828 2 -1.60058 -5.4746 -1.4843 
17662 1 -0.0745333 -3.22074 -5.4757 
2829 1 5.4051 -0.018554 4.93914 
5651 3 -4.95205 2.25096 -1.40844 
5652 1 0.373759 -8.48555 -3.32903 
5650 1 -2.81084 -5.83328 1.48708 
9920 2 1.29593 2.68765 2.80576 
9921 1 -3.5044 -0.0232602 -2.03806 
11035 1 -5.01754 -0.186793 1.88431 
9919 1 1.02002 -2.24162 2.049 
19900 1 -8.06258 0.327758 -6.13204 
11036 3 2.33024 -2.10461 -0.827614 
18582 1 -3.76488 5.04306 -0.91786 
13952 2 -1.43105 1.53659 -0.679834 
14277 1 3.67571 0.906513 -3.48564 
13951 1 4.28695 3.88609 -3.88528 
4943 2 -3.95989 -0.916028 -4.49533 
4944 1 -4.69238 5.4797 -0.831107 
4942 1 0.443472 -5.56403 0.45078 
5910 1 2.26794 2.29363 3.09968 
10786 1 -0.182445 0.307014 -3.39863 
13293 1 -0.924104 0.121728 10.8321 
4872 1 0.206487 -8.00587 -6.93705 
17442 1 7.29215 0.761334 -2.92216 
5896 1 0.440329 -6.99165 -6.4784 
17441 2 0.97359 -2.5314 -2.65577 
15897 1 -8.50579 1.61839 -6.71818 
13953 1 4.60828 6.14785 7.01502 
17440 1 0.00302568 3.07067 -4.6338 
19902 1 1.50717 -0.277435 -1.06612 
19901 2 -0.149448 0.891593 -1.95202 
8305 1 -4.41473 -1.01297 3.02028 
7281 1 0.979652 -5.93798 0.924972 
15896 2 -2.00273 -0.304971 -1.31979 
7280 2 -2.73101 0.0712063 1.58072 
15895 1 1.52341 5.91994 -7.40939 
7279 1 0.772399 -1.73812 -2.18596 
8306 2 -1.72034 0.887652 0.375077 
8307 1 -0.889357 1.88507 2.7391 
4848 1 -4.20336 -6.17066 -1.03635 
13291 1 -3.52645 -4.61113 -0.154568 
11560 1 -2.16546 4.79036 -2.01774 
21038 2 -2.04602 1.65727 2.60944 
11561 2 0.105485 2.89264 0.868205 
11562 1 0.945497 9.35426 2.32179 
11443 1 0.462488 -2.13603 -7.9983 
21037 1 0.619202 3.48738 1.00581 
13292 2 3.46945 -1.04069 -2.92677 
16755 1 -2.49748 -3.5442 -2.21121 
16079 2 0.630846 -1.73381 -1.80801 
21400 1 0.590389 -1.24117 1.28085 
2937 1 -6.2228 2.72967 -0.671229 
2936 2 1.59576 1.67048 5.64004 
2935 1 0.601616 0.745963 0.398753 
16080 1 -2.22582 -3.95935 0.139485 
21401 2 -0.995647 -0.264735 -4.23568 
16078 1 -4.18384 -0.828014 -0.313248 
12631 1 6.85751 -0.106622 -3.64146 
6050 2 1.42633 3.0412 2.05402 
6049 1 -0.824173 -2.61029 -0.994428 
5897 2 -3.73379 -0.173292 1.05657 
7852 1 2.92787 -0.387012 3.26081 
12077 3 -4.20648 -1.03767 -0.660169 
7853 3 -5.33318 0.374551 2.11137 
5898 1 4.88011 -5.21028 2.04369 
7854 1 3.50676 6.79198 0.727112 
2140 1 -1.10686 -5.93238 3.69919 
12076 1 -8.26848 3.19455 2.00262 
16377 1 -6.91771 -0.283035 1.51607 
14645 2 1.19003 1.97277 3.42618 
16376 2 -0.856362 -2.22629 2.89777 
10833 1 -3.2924 1.39537 -1.71906 
16375 1 0.405521 0.970809 -1.35916 
2187 1 2.41503 -3.50372 2.02037 
16314 1 2.28434 -7.85284 -0.909312 
2186 2 5.79182 -2.131 -1.48807 
16313 2 0.463347 1.45543 -1.19574 
2185 1 -3.44139 -4.08827 2.34075 
676 1 5.5492 -0.0960122 1.22602 
16312 1 4.82312 -4.79042 3.01665 
21039 1 1.01885 -0.35053 -4.86571 
11214 1 -0.26555 0.852862 -0.402315 
13914 1 2.42228 3.59341 2.69754 
3802 1 5.07978 6.02415 2.3571 
11213 2 0.0335698 1.24809 -2.29917 
3803 2 0.722882 0.541061 -3.40094 
11212 1 -0.78735 0.644413 0.654095 
3804 1 -1.19033 2.05448 3.48893 
1959 1 3.12036 -1.22341 0.582871 
20308 1 -7.41783 -2.79153 -5.29598 
1958 2 4.11792 -1.72797 4.23562 
10664 2 -1.8921 -2.36319 5.10852 
3115 1 5.39959 -1.37633 -0.261164 
5962 1 1.82881 0.926644 -1.07422 
4610 2 -0.462431 3.96237 0.943602 
10665 1 6.69827 -2.37587 -1.36961 
4611 1 1.00413 -0.240716 4.13375 
11091 1 0.827548 8.83061 6.42343 
11089 1 -2.04937 3.22451 -3.55917 
11090 2 0.709442 -0.789293 -0.491099 
7000 1 -0.0492129 -4.12239 -4.92421 
7192 1 -4.5741 2.61972 3.16164 
6019 1 4.24975 2.87481 -2.46443 
6031 1 -2.0257 -6.56601 3.86451 
9916 1 -0.81367 0.94094 -0.145417 
18459 1 -0.473339 -5.0594 3.96451 
2142 1 -1.93899 2.54221 0.711509 
18458 2 -2.19976 3.89193 2.65635 
2141 2 0.626742 -4.25489 3.2088 
18457 1 2.30666 -2.18262 2.58831 
21105 1 -3.3883 2.94494 3.67915 
7816 1 -0.653209 3.31809 -3.48114 
19240 1 -0.962768 0.328529 0.601586 
14644 1 4.61187 1.41788 -9.22687 
19242 1 -1.0783 3.02876 0.716232 
19241 2 -1.19443 -0.978167 1.07333 
8764 1 -6.03968 3.10284 -5.27674 
6780 1 5.08899 -0.127917 2.92928 
8765 2 1.23783 6.32531 -2.31884 
6779 2 -2.55081 0.0794556 -0.810693 
16128 1 0.608623 -4.9191 3.94139 
21583 1 1.02835 -2.2492 -3.66533 
17437 1 -1.4443 -1.46245 7.11291 
6778 1 2.78907 -0.47866 -0.18344 
11650 1 1.18133 -0.431735 0.691954 
19711 1 0.183133 5.67266 -1.08275 
1957 1 2.38239 0.676779 0.176354 
13745 2 3.12874 1.15632 -1.17358 
13744 1 -2.13493 8.85355 -3.67243 
11652 1 -3.80965 4.37064 -0.966829 
11651 2 -2.33761 1.72396 -1.89159 
3840 1 1.04604 -1.04686 7.57574 
19122 1 -4.51177 -3.49034 2.49839 
19626 1 7.57047 -2.54671 5.18137 
10140 1 -4.20323 -5.4784 2.45014 
7193 2 3.37714 -1.47709 -0.563442 
14182 1 4.21564 -4.36816 3.11748 
7194 1 0.563862 -1.24489 0.711043 
17041 1 -6.00604 -2.53521 -0.67752 
20104 1 1.50168 0.931434 0.824782 
17043 1 -1.15398 9.81725 5.09181 
17042 2 0.331202 -2.93607 1.34472 
10139 2 0.51494 1.89989 -2.59226 
1743 1 -1.47414 -3.0286 1.28909 
3766 1 -3.89437 -3.75097 2.70799 
3767 2 -0.647663 -0.95023 -1.28859 
3768 1 -0.10848 -3.98302 1.72789 
4574 2 -1.88761 5.18629 1.59748 
7384 1 0.749545 -3.90504 -0.82549 
6033 1 -4.66529 0.946993 -0.156995 
6032 2 2.37433 -1.32826 3.4069 
8781 1 4.97848 1.03616 -4.93846 
8779 1 0.13962 3.05131 -2.72701 
8780 2 -0.445223 -0.916065 0.528818 
4575 1 -1.56766 -0.870807 -5.1452 
7385 2 -2.40031 4.987 2.0844 
9106 1 8.99479 -4.76528 -2.47165 
14915 2 -2.33634 3.12019 -0.387367 
9107 2 2.37914 0.303446 -0.322625 
21104 2 -1.305 -0.0479268 -3.12091 
21103 1 -0.685177 -0.390849 -4.51741 
108 1 6.36792 -4.3948 0.832409 
14914 1 -3.77622 -1.78468 0.383504 
9108 1 -3.07698 -8.95589 2.27638 
13118 2 -0.506997 -0.51331 3.3487 
285 1 -0.701704 -1.11317 6.85473 
15676 1 -2.22266 1.2932 0.677165 
2754 1 -3.03395 2.30138 -0.251731 
2753 2 -0.222083 -1.21543 -0.465043 
4069 1 4.33072 -1.13579 -2.0281 
21584 2 2.83053 0.459668 1.26208 
13119 1 5.05524 2.35936 1.45306 
21585 1 5.42917 3.64838 0.602523 
14011 1 -0.891738 3.30092 -1.11408 
2752 1 0.631403 2.23976 -1.64888 
16140 1 -2.38411 3.27566 -3.29109 
16139 2 -0.443223 2.37917 0.856184 
14012 2 -1.72851 -2.86743 -1.62482 
19363 1 -0.458719 -0.621936 -2.36687 
10189 1 -3.58925 -1.40315 -1.79106 
14013 1 0.184889 -3.56092 5.15935 
15677 2 -0.647722 -3.35084 -1.17869 
15678 1 -2.13174 -6.70514 -2.17954 
10185 1 -2.50662 3.9246 -2.26772 
10184 2 -1.69338 -3.90878 0.34698 
2127 1 1.93137 -1.89049 8.24192 
10183 1 -0.691629 6.03909 0.553102 
2126 2 0.034518 -1.43621 4.76323 
2125 1 -1.84407 -1.15713 1.80173 
5131 1 1.91462 -5.10192 0.344622 
5132 2 1.21765 2.66005 2.30745 
1742 2 -2.87626 -0.355144 -3.72392 
2985 1 -2.61297 2.66325 -2.74831 
20065 1 0.366476 1.82191 1.32673 
6271 1 -4.22767 2.10284 5.71894 
20067 1 2.57731 -0.774637 -1.0691 
20066 2 0.238809 -0.00279846 -2.27698 
6272 2 4.88491 0.546302 1.20795 
2122 1 -1.7063 0.48722 3.671 
2464 1 0.744974 1.76396 -1.1512 
18580 1 1.35272 -4.67748 -1.82018 
20044 1 -3.43568 0.769222 7.15617 
18581 3 2.52524 2.02298 -1.31997 
19762 1 2.44827 0.142181 -0.74378 
19764 1 -5.47113 -2.16428 4.42446 
12246 1 0.421597 2.26199 1.57941 
12245 2 -1.85057 3.85871 2.35639 
12244 1 -2.37466 -2.74151 0.472019 
19763 3 -2.09634 -0.745403 -0.402506 
14833 1 8.09544 7.76742 -1.24952 
3385 1 -2.37225 -2.73482 0.705731 
20046 1 -7.4224 2.85737 0.256082 
20045 2 1.18389 -3.90786 -1.37618 
14835 1 1.56086 3.93571 0.744224 
3386 2 0.858076 -5.82391 -2.17021 
3387 1 -3.14226 -1.87443 -4.87582 
14834 2 -2.32009 -2.09921 -1.43227 
16892 2 -0.858064 -1.99306 -2.7094 
8562 1 4.75595 0.398821 -2.21331 
16893 1 5.8446 2.11447 -3.71783 
8561 3 4.1162 4.00655 2.97604 
8560 1 -1.04035 1.32125 -1.34511 
14325 1 -1.04593 -2.11085 -2.17369 
15953 2 -0.380679 1.24869 0.505837 
14323 1 -1.74971 3.38208 -3.91197 
14324 2 -2.51625 1.39243 -0.060077 
14168 2 -0.472662 3.78528 -1.56666 
14169 1 2.84483 -2.19504 -5.28826 
421 1 -3.63045 -0.0100545 0.644442 
422 3 2.5928 1.37389 1.55465 
15954 1 3.10487 0.485261 -2.00273 
14167 1 2.08077 -5.61252 2.22252 
15952 1 -0.108744 -3.20986 -7.67052 
11445 1 2.40343 -5.06853 -2.391 
11444 2 -5.53872 0.384259 -1.90849 
12410 2 2.74377 4.46316 0.86687 
1424 2 2.1292 2.37012 3.1244 
12409 1 -3.49053 3.84981 0.793066 
1423 1 2.02058 4.69955 -0.0535283 
21402 1 -2.9419 2.1451 1.68732 
9577 1 5.43377 -4.16929 0.44309 
2261 2 0.283943 -0.206666 -1.66986 
1425 1 2.30572 0.0339425 -3.87115 
5909 2 3.17286 1.59339 -2.53846 
5908 1 0.733945 -0.676795 3.17604 
5917 1 1.02994 -4.17475 -0.602237 
2262 1 4.20073 -4.58149 3.31156 
15342 1 -0.561668 -4.04762 6.42528 
15341 2 -0.00836502 0.127034 0.177829 
15340 1 -4.00702 1.42816 -3.87458 
4966 1 1.96495 -2.28773 0.411088 
5918 2 -3.59961 -1.2234 -2.63193 
7058 2 -3.91091 0.628177 1.54808 
5808 1 0.0615795 2.42172 -1.51066 
5807 2 3.21547 -4.09245 -0.684704 
12078 1 0.321707 -0.847855 5.01425 
16891 1 2.44939 -6.49524 -3.67198 
17175 1 3.02734 -8.31965 5.87075 
7059 1 -1.30888 0.0608581 -3.50226 
5806 1 0.587485 0.0734282 2.87773 
14322 1 -1.19232 5.16725 3.11006 
21592 1 0.747295 3.17141 3.19143 
4486 1 0.760616 1.94087 2.02696 
4487 2 0.385955 -3.80775 2.6064 
17174 3 4.32681 -0.252181 -0.65746 
14321 2 2.73936 -3.67564 1.76347 
21593 2 1.14017 -6.68286 4.19499 
13713 1 0.456169 -5.20132 0.764562 
21594 1 1.77277 3.72419 -7.74173 
5869 1 -2.07436 4.1987 -4.59024 
5871 1 -3.85531 4.31861 1.77784 
5870 2 -4.37087 2.73234 -2.5491 
115 1 -0.248983 0.673001 2.06938 
15052 1 0.839269 -3.61835 4.28858 
15053 2 0.330092 4.18709 -3.80297 
15054 1 -0.507639 -3.06955 1.30464 
20310 1 5.52273 0.654601 -0.703449 
9578 2 2.35248 1.36327 4.28767 
20309 2 -2.41615 -2.32776 0.464433 
9579 1 0.606609 -5.43326 -4.3509 
16069 1 2.73525 2.65549 3.04139 
10581 1 -1.46572 2.12155 -0.764797 
10580 2 -2.94664 0.0430064 -0.66251 
10579 1 5.64978 5.11828 0.0105301 
3936 1 -1.99046 5.08274 9.3904 
3935 2 -2.21612 0.957037 5.06117 
10663 1 3.60903 2.24076 -5.80704 
16070 2 -0.713492 -1.00631 0.730656 
9718 1 0.262559 -3.75818 -5.66844 
3116 2 -2.90396 -0.785819 4.06839 
6020 2 -2.74787 0.1688 -4.63596 
6021 1 -2.93557 1.39491 2.917 
8046 1 2.78728 3.75221 3.03968 
18676 1 2.71687 -0.839757 -4.07321 
18678 1 6.51872 -0.878689 -1.05524 
18677 2 1.24396 -1.05275 2.33583 
3117 1 -0.750527 5.0603 -1.79066 
8925 1 1.42755 -2.38846 -2.1876 
8924 2 1.83155 -0.103529 -1.46289 
449 2 1.53043 -0.550764 0.461392 
7057 1 -3.18236 2.44777 6.95825 
7985 2 1.56858 -1.32234 2.56041 
17932 1 -1.32955 -3.89116 -2.61188 
7984 1 -1.27163 4.59565 3.47588 
17934 1 -3.66554 -0.946234 -0.785341 
17933 2 2.02211 3.68485 0.340901 
448 1 -5.96784 -0.777607 -1.81997 
3547 1 1.26632 -1.99614 0.894852 
3548 2 -0.934976 -1.21253 -4.39775 
450 1 2.34963 2.44852 2.58015 
7817 2 -1.16599 -5.21452 5.71358 
17242 1 0.212103 1.87073 -6.41748 
12936 1 6.31747 -2.68843 -0.309111 
7818 1 -5.2461 -0.409796 2.16319 
12935 2 -4.55459 1.63008 -3.29492 
2449 1 6.13891 1.31273 0.812851 
4488 1 4.70579 -5.53343 2.04611 
12934 1 -0.620503 0.573062 -0.923778 
14836 1 -7.64833 1.46083 -0.0183852 
2450 2 -0.607024 -0.790599 0.689408 
21148 1 1.90252 2.84668 -3.01045 
8766 1 0.773825 -1.90769 -1.34084 
14837 2 0.994986 0.454512 -2.48075 
16992 1 2.19131 1.90897 -4.17603 
14838 1 -3.56697 -0.447088 0.361481 
13712 2 3.60544 -3.58561 0.160357 
17071 1 2.02833 1.79577 4.80348 
13711 1 -3.05711 -1.99388 0.383907 
17072 2 0.0734964 -2.62797 -0.770618 
16991 2 1.83823 3.4692 1.16037 
17073 1 3.08678 -3.30615 -5.35573 
322 1 -4.08137 -1.05603 -5.76545 
13746 1 -2.48877 1.50782 -2.5014 
17317 1 -2.5848 2.26267 -2.32298 
19120 1 -1.31738 4.6125 -4.02817 
19121 2 -3.30046 1.45881 0.197163 
502 1 1.67934 3.30184 -3.05142 
4915 1 3.35738 2.02394 4.79722 
4916 2 3.63319 2.92161 -2.75816 
17318 2 1.43044 2.63933 3.01256 
4917 1 -4.987 -0.235187 -0.298411 
503 2 -3.05316 0.423842 2.84307 
16909 1 2.11783 1.79065 -5.72944 
14183 2 -0.0330434 -2.27529 -3.09264 
14184 1 -1.60015 -5.65937 0.476748 
8923 1 -0.406837 1.13024 -2.83447 
1675 1 2.11853 -2.13093 -0.0620388 
7243 1 -0.563498 -1.19233 -0.980117 
10138 1 2.90261 -8.88516 1.31789 
3211 1 -1.34153 -5.7175 7.28156 
3212 2 0.688441 -2.38046 5.0523 
3213 1 0.299146 -3.33623 2.40247 
7244 2 -0.649377 -2.583 1.61744 
16910 2 -1.19861 -0.601591 -2.4519 
7477 1 -5.71837 1.93488 0.0794809 
7478 3 -3.47399 3.08617 0.33754 
12717 1 -4.53695 2.88013 -2.81692 
7479 1 -0.0246943 4.34983 2.06582 
17522 2 -0.202155 -3.71432 -5.27047 
3549 1 -0.692061 4.00545 -2.76476 
18561 1 1.18783 -0.0404982 -2.63582 
17523 1 -2.60148 -2.53263 2.1332 
106 1 4.71589 -0.190061 1.4267 
18560 2 0.11177 -1.22721 0.770111 
17521 1 -0.984992 -5.77622 0.285182 
10543 1 -1.70742 0.753209 4.29614 
11724 1 -3.60255 -0.195127 -1.07234 
107 2 1.68546 0.109248 2.79623 
5850 1 -4.12593 -1.21783 -6.87078 
13117 1 1.41537 0.916843 2.14543 
5848 1 1.8211 0.0500404 5.87131 
2451 1 2.22065 -1.57407 -1.96602 
11722 1 0.836284 2.69795 6.74146 
5849 2 -1.73699 -1.78423 -0.361992 
11723 2 1.04985 3.21275 -0.883979 
4839 1 0.562844 -2.81062 -2.67177 
192 1 -4.40957 -1.7618 0.52396 
190 1 -1.70366 -2.11258 0.488793 
16138 1 1.66585 0.823172 4.45641 
15792 1 0.930307 3.19629 -1.28446 
5675 2 -1.8641 0.0730758 -0.803015 
191 2 2.45664 0.552112 -2.41234 
5676 1 1.24913 1.17795 2.10802 
16990 1 2.96303 -4.0242 4.91107 
5674 1 -2.95686 -1.21509 0.514453 
4837 1 7.61977 6.4341 1.26099 
4838 2 3.4809 0.0260765 0.345885 
19217 2 2.02502 -0.035845 -0.830363 
5770 1 4.15238 3.82834 0.697873 
4132 1 4.03054 -3.1605 3.24253 
1741 1 4.57163 2.54168 -0.559498 
17319 1 3.92171 8.09681 -2.2616 
6273 1 -8.9116 -0.0357863 -3.21984 
6177 1 -1.64808 -2.99447 -1.96854 
5772 1 0.565525 -1.72808 -0.201444 
19218 1 -3.23458 1.70606 4.1108 
19216 1 0.179983 -0.93848 0.573202 
5771 2 -5.3447 1.34408 -1.64102 
5893 1 -2.18006 -2.96066 1.60078 
16279 1 -0.694925 1.87343 -2.09118 
16281 1 -7.27341 -2.83679 1.13528 
5133 1 -2.36825 -5.73343 3.20463 
8574 1 -3.16933 2.85026 3.71382 
8573 2 -1.58193 -0.90606 -0.892 
16280 2 0.241804 1.2897 1.21679 
7355 2 -0.446468 2.27926 1.76538 
755 2 -1.02177 -0.266829 -1.4208 
754 1 -2.90933 4.02906 -7.07622 
9003 1 5.71358 4.27615 1.23111 
756 1 -3.28173 -0.386342 3.12555 
9002 3 -2.48419 -0.109757 1.93715 
9001 1 -1.26179 -3.37774 -2.69485 
3736 1 2.32977 -0.952577 -0.27884 
4350 1 3.86736 -0.814335 3.4436 
17833 1 -1.28342 -1.01072 0.460743 
17834 2 0.965778 -0.0978053 -1.84016 
17835 1 4.58543 -2.42199 4.87776 
4348 1 0.156942 -4.74087 1.48863 
4349 3 -0.461312 -0.812053 2.44944 
3474 1 -5.60496 1.41192 -0.0983363 
5017 1 -2.21232 3.37366 2.01029 
21015 1 -7.2114 2.74946 3.91045 
21014 3 -1.02148 -3.37398 -2.67034 
2410 1 0.61927 2.06973 2.67818 
2411 2 -1.54906 -1.24554 -1.83164 
21013 1 -0.111083 -5.1614 -0.432357 
2412 1 1.81055 0.523374 5.04747 
5098 1 -1.47971 5.81305 5.76774 
16168 1 -1.20784 -4.75283 -1.06942 
16534 1 0.572444 -1.42678 0.47935 
16535 2 -6.11326 1.42913 -1.58231 
6997 1 -4.91772 0.584091 -0.992866 
17017 1 -0.479137 0.652729 0.855526 
3738 1 5.98107 -5.47274 -1.1862 
3737 2 -0.752432 -3.62494 -3.32801 
6998 3 1.40679 -2.62884 5.80827 
14233 1 0.474118 -0.361644 -0.868104 
14234 2 -2.32699 0.207483 1.48015 
17018 3 -0.803617 -4.6814 -1.67382 
7175 2 2.38629 2.82277 -2.76378 
7176 1 -1.32351 -3.14504 1.29796 
21461 2 -2.40528 -0.763509 -1.41635 
21462 1 1.67572 4.87247 1.59436 
3473 3 4.53228 -1.18658 0.15579 
1107 1 4.25512 -3.33652 -4.05395 
3472 1 -0.331037 -0.551902 2.38046 
21460 1 0.396341 -0.0994933 4.17762 
1105 1 3.97456 -3.6002 0.427041 
1106 3 -5.72723 1.72729 -2.59887 
18629 2 2.19528 -2.00728 1.33836 
18630 1 -1.17236 3.0751 2.88961 
5604 1 3.74049 0.000128122 -3.35015 
17305 1 1.26979 -1.69548 1.70694 
14235 1 1.39221 3.01528 -5.46166 
130 1 1.1922 -4.96665 -1.41868 
7174 1 -2.33993 -0.00625777 -2.86263 
15988 1 5.46587 0.657771 -0.840334 
15989 2 -2.07171 1.37657 -1.74608 
15990 1 -3.66413 1.48602 -4.9793 
18628 1 -0.692315 -2.88632 0.15413 
5018 2 0.682123 0.355454 1.99972 
20718 1 -7.26807 1.28643 -0.397578 
5019 1 -2.92531 0.754942 -0.700461 
20717 2 1.59945 -3.73704 -0.869623 
8451 1 -2.74162 -7.62105 -1.59823 
8450 3 3.3309 -0.0818104 3.50764 
5100 1 0.642144 0.345739 2.50107 
5099 3 1.89069 -1.01871 3.25343 
8449 1 3.31017 -0.545806 3.45093 
3865 1 -1.26771 3.55266 4.34132 
2727 1 1.37565 -0.84862 2.15811 
2726 3 -2.29527 3.53698 -1.96093 
2725 1 -7.51485 2.1932 1.6368 
3300 1 -3.05409 -0.144658 1.88315 
21600 1 -0.101901 -2.31729 3.17275 
4344 1 3.05622 2.28472 -0.896322 
4343 3 0.712199 1.07892 -0.582732 
11286 1 3.82705 -1.81143 -5.93133 
11284 1 3.01487 -6.38613 1.96797 
20601 1 -1.73305 3.70095 -3.32634 
20600 3 -1.23224 -0.717189 0.512293 
20599 1 0.586372 2.30595 0.165334 
16170 1 2.05455 -3.26868 -1.42221 
16169 3 0.218327 -4.4072 -1.45757 
5457 1 5.0419 1.38075 -1.54291 
11285 3 1.87056 3.76364 0.592354 
16536 1 5.22842 5.07463 3.12196 
21598 1 -0.904393 0.864546 -1.26249 
21599 3 -0.755251 4.5141 3.44568 
20597 3 0.710909 0.137784 2.96901 
20598 1 -2.24502 1.66845 -1.3942 
20596 1 2.09202 -1.66353 0.169848 
16482 1 -4.4584 2.022 0.0332088 
3589 1 4.15323 1.61943 1.19038 
3590 2 0.770059 -1.52259 0.743544 
3591 1 0.0501678 -6.41717 -0.269431 
17926 1 2.1921 -1.76293 2.89087 
17927 2 0.437437 0.608998 -2.0109 
6999 1 -3.55913 3.81373 1.95975 
6529 1 -2.83686 4.31106 -1.34433 
6530 2 0.952457 2.77417 1.26114 
6466 1 1.55113 0.595976 -3.07613 
6531 1 3.13556 1.0635 -2.50485 
6467 2 3.10636 -0.276491 -4.31878 
6468 1 -0.262431 5.14043 1.28111 
13409 2 -1.84047 -0.627403 1.44222 
12721 1 0.359248 -0.775684 1.21268 
13030 1 0.167831 -1.76702 1.23511 
17019 1 3.37396 -1.43627 -3.63656 
7546 1 0.0706886 -4.06045 -1.5197 
13410 1 -2.93896 1.44439 -2.42488 
7548 1 3.40092 -3.13911 4.00502 
7547 2 2.58016 1.17473 1.46726 
20372 2 -1.07938 1.69236 -3.39036 
15332 2 1.5984 1.90647 0.691432 
15333 1 -1.73423 -3.3092 -6.53897 
2616 1 -2.87515 0.738166 3.38097 
2615 2 1.07967 1.47471 1.69422 
20373 1 -7.30936 1.97022 2.50386 
15331 1 -2.77212 -0.148137 -2.22664 
14928 1 -7.96866 7.76737 -6.77896 
14927 2 2.20482 -3.109 -1.48405 
14926 1 -4.81898 -1.11183 0.398713 
5268 1 2.00383 -4.69092 -1.76553 
18852 1 6.29125 -1.33923 1.93439 
18851 2 -1.52005 0.0198315 0.224694 
5602 1 5.72435 -0.547763 0.113069 
5603 3 0.187788 2.34384 -1.23667 
18850 1 1.28124 -2.90807 -4.90705 
16670 3 1.07207 4.60751 0.591052 
16669 1 0.0276741 -0.609018 1.71691 
11085 1 -2.04968 0.857535 1.72035 
11083 1 -5.7328 4.54704 -2.79099 
11084 3 -0.602155 -1.81294 2.60227 
17306 2 3.54069 1.27542 1.73268 
19898 2 -2.43107 1.63325 4.66333 
17307 1 2.63159 -3.26179 -3.74277 
2259 1 -2.07093 -1.92869 3.89702 
2258 2 -1.91787 0.260906 1.65407 
19899 1 2.143 -4.10501 -2.08981 
13032 1 -4.76672 0.029681 3.61973 
2257 1 -2.35984 -1.57683 -2.07559 
4098 1 2.62961 -5.6633 -0.545098 
13031 2 -2.16614 0.555849 -3.64187 
4097 2 -1.36936 -1.25271 -0.400712 
4096 1 1.76399 1.00068 8.49171 
17533 1 3.66892 1.29302 -2.2217 
17534 2 5.15173 3.43347 -0.235862 
17535 1 -2.30949 5.33508 0.0573909 
13965 1 -4.47427 1.20505 0.292616 
2614 1 -0.0908273 0.50167 -6.30207 
13964 2 -3.2509 -0.809894 0.791352 
18443 3 -1.91607 1.35313 0.260954 
18444 1 1.86012 -0.372437 1.87575 
21496 1 -0.783322 0.549552 3.63314 
21497 2 -0.798158 3.11217 -1.95979 
21498 1 -5.24189 -4.24464 -2.12282 
11697 1 -2.47051 0.334424 -3.7288 
3560 3 1.85595 -0.527563 1.21877 
3559 1 -4.14484 1.26462 4.28518 
18442 1 -0.763278 5.18807 0.879311 
17103 1 1.13618 -0.959834 3.41081 
17102 2 0.703086 -3.95224 -0.342032 
11116 1 1.91263 1.3568 -1.93896 
3561 1 -3.82529 -4.13025 2.27581 
17143 1 6.01433 -4.38009 -0.0232341 
522 1 0.244485 3.83376 0.211344 
521 2 1.78672 -3.44505 0.18018 
520 1 -2.03346 3.46413 0.43118 
14458 1 -4.93042 4.81646 -1.21417 
1663 1 -0.645399 0.490731 -5.54442 
1664 2 4.6839 0.771317 0.262124 
15323 2 1.67023 -2.52849 -1.54907 
15322 1 -4.57104 -1.25727 1.54459 
12748 1 0.532388 -0.400654 5.70468 
12750 1 -2.01436 3.83568 -2.64646 
12749 2 -1.53723 -8.12062 0.380076 
17962 1 -0.277553 -0.263462 2.4862 
11695 1 -0.492137 2.71297 0.637302 
3866 3 -2.80529 -0.737192 4.63039 
11696 2 -0.393952 -1.11474 2.77955 
9284 3 0.828543 1.6818 3.56998 
3867 1 -6.29617 1.01632 -4.84008 
16512 1 1.55116 4.31437 -7.23933 
16511 3 3.81263 2.31252 1.51699 
16510 1 3.10348 6.26957 2.69891 
20716 1 -2.12574 1.6244 1.42425 
13990 1 0.555356 0.544964 4.04695 
9283 1 1.83307 -3.01454 -2.0211 
13991 2 2.20387 -1.90948 -1.25583 
13992 1 -3.60203 -6.17177 -3.62305 
1947 1 -0.201554 7.38234 0.500433 
1946 3 2.67957 -3.10054 2.70449 
19342 1 -4.57838 5.85685 2.67697 
1665 1 -1.60329 -2.75913 -1.06483 
16782 1 1.81493 0.309074 2.89279 
19344 1 1.55881 4.42071 -1.23046 
3299 3 -3.70394 -0.778663 0.947542 
11105 2 2.95756 0.519999 -0.63766 
16781 2 -3.39282 3.40156 -1.87835 
3298 1 -5.6926 -3.59775 -1.51659 
11104 1 2.34568 -1.34232 2.49613 
19343 3 -5.54859 -2.1247 -0.277748 
4342 1 1.73826 -0.389684 -9.7858 
15081 1 -3.76594 -4.48745 -0.833138 
15080 3 -1.59869 -1.70843 2.14664 
15079 1 -5.00335 -3.5393 -2.5271 
390 1 3.72438 -2.73769 2.20724 
5456 3 -1.00763 -0.738546 -0.90732 
6235 1 0.848665 -0.559586 1.37985 
16480 1 0.675905 -3.15561 -0.234104 
6236 2 -1.405 -1.50576 -0.304465 
16481 3 1.65694 -2.17972 5.56464 
6237 1 -5.36971 -5.28881 -1.937 
13858 1 0.422902 -1.6503 1.27944 
5455 1 0.717459 3.28139 -2.63957 
17664 1 1.11647 4.53887 1.38791 
7180 1 -2.91052 3.93754 -2.28278 
10408 1 -5.90582 0.609918 1.72041 
20060 2 -1.24461 -2.81466 -2.47944 
20059 1 6.50489 4.64259 0.901853 
17800 1 -0.0115645 -6.36477 1.40322 
15526 1 5.1941 0.566542 -0.825191 
17801 2 1.11866 -0.245972 -2.29755 
15527 3 5.23456 -3.67121 -2.33684 
17928 1 -4.0874 -1.88479 -1.42307 