ITEM: TIMESTEP
50000000
ITEM: NUMBER OF ENTRIES
2934
ITEM: BOX BOUNDS pp pp pp
0 50
0 50
0 50
ITEM: ENTRIES c_binfo[1] c_binfo[2] c_binfo[3] 
2 12571 12572 
2 12572 12573 
2 4580 4581 
2 4579 4580 
3 2570 2571 
3 6218 6219 
3 7532 7533 
1 14157 15024 
3 14156 14157 
3 15023 15024 
2 10238 10239 
3 5560 5561 
3 5561 5562 
3 14155 14156 
2 10237 10238 
2 3475 3476 
2 3476 3477 
3 8617 8618 
3 8618 8619 
2 12845 12846 
2 12844 12845 
2 722 723 
2 721 722 
3 20420 20421 
3 20419 20420 
3 15022 15023 
3 6956 6957 
3 6955 6956 
2 13195 13196 
2 13196 13197 
2 8362 8363 
3 17675 17676 
3 17674 17675 
2 3103 3104 
2 3104 3105 
3 18889 18890 
3 18890 18891 
2 19714 19715 
2 19715 19716 
2 20479 20480 
2 20480 20481 
2 16552 16553 
1 16552 18996 
2 16553 16554 
2 8363 8364 
3 3577 3578 
3 16469 16470 
3 16468 16469 
2 9911 9912 
2 9910 9911 
1 9910 16470 
2 5606 5607 
2 1256 1257 
2 1255 1256 
3 764 765 
3 763 764 
2 7663 7664 
2 7664 7665 
3 3173 3174 
3 6710 6711 
3 18995 18996 
3 18994 18995 
3 6709 6710 
3 3578 3579 
2 5605 5606 
3 3172 3173 
2 14522 14523 
2 14521 14522 
2 11176 11177 
2 11177 11178 
3 12052 12053 
3 12053 12054 
2 12086 12087 
2 16295 16296 
2 16294 16295 
2 11762 11763 
2 11761 11762 
2 6775 6776 
2 6776 6777 
2 4355 4356 
2 4354 4355 
2 9383 9384 
2 9382 9383 
3 11615 11616 
3 11614 11615 
1 14523 17665 
3 8101 8102 
1 10371 18217 
2 10369 10370 
2 10370 10371 
3 18217 18218 
3 1747 1748 
2 12085 12086 
1 12085 13489 
3 13489 13490 
3 1748 1749 
3 7577 7578 
3 7576 7577 
1 1749 7576 
3 20770 20771 
3 20771 20772 
3 13490 13491 
2 16882 16883 
1 13491 16882 
1 7578 12985 
2 12985 12986 
2 12986 12987 
1 4458 12987 
2 4457 4458 
2 20002 20003 
2 20003 20004 
1 11340 20002 
3 11338 11339 
3 11339 11340 
2 4456 4457 
3 2783 2784 
2 21034 21035 
2 21035 21036 
2 1027 1028 
1 1027 15969 
2 1028 1029 
3 15967 15968 
3 15968 15969 
2 15184 15185 
3 20975 20976 
3 13369 13370 
1 13369 17826 
3 13370 13371 
2 17825 17826 
3 20974 20975 
2 17824 17825 
2 19565 19566 
3 9133 9134 
3 9134 9135 
2 19564 19565 
2 1063 1064 
2 1064 1065 
2 11500 11501 
3 19682 19683 
1 11502 19681 
3 19681 19682 
2 11501 11502 
3 13819 13820 
3 2498 2499 
1 2499 13821 
3 13820 13821 
3 2497 2498 
3 599 600 
3 598 599 
3 8102 8103 
3 21283 21284 
3 21284 21285 
2 16883 16884 
3 2782 2783 
2 5716 5717 
2 5717 5718 
1 81 5718 
3 80 81 
2 14965 14966 
2 14966 14967 
2 3649 3650 
2 3650 3651 
2 15185 15186 
2 9094 9095 
2 9095 9096 
3 19139 19140 
3 19138 19139 
3 9583 9584 
3 9584 9585 
3 1066 1067 
3 1067 1068 
2 19387 19388 
1 1068 19387 
2 19388 19389 
1 8745 19389 
3 79 80 
1 79 7272 
2 7271 7272 
2 7270 7271 
2 19385 19386 
2 19384 19385 
3 19807 19808 
1 14967 19809 
3 19808 19809 
2 21263 21264 
2 21262 21263 
3 12328 12329 
3 12329 12330 
3 4277 4278 
3 6977 6978 
3 4276 4277 
1 4276 6978 
2 9317 9318 
2 9316 9317 
3 15109 15110 
3 15110 15111 
2 9140 9141 
2 9139 9140 
3 15668 15669 
3 15667 15668 
2 11140 11141 
2 11141 11142 
2 21511 21512 
2 21512 21513 
2 12080 12081 
2 12079 12080 
2 6514 6515 
2 6515 6516 
3 6976 6977 
1 6516 6976 
2 17216 17217 
2 17215 17216 
2 20941 20942 
2 20942 20943 
3 17309 17310 
3 17308 17309 
3 8344 8345 
2 11756 11757 
2 11755 11756 
3 2324 2325 
3 2323 2324 
2 2636 2637 
2 2635 2636 
3 403 404 
2 20153 20154 
2 20152 20153 
2 19948 19949 
2 19949 19950 
3 13085 13086 
3 13084 13085 
2 4259 4260 
3 4651 4652 
3 19951 19952 
3 19952 19953 
3 11566 11567 
3 11567 11568 
3 404 405 
3 481 482 
2 15821 15822 
3 9085 9086 
3 12275 12276 
3 482 483 
1 483 12274 
3 12274 12275 
2 15820 15821 
3 17354 17355 
3 17353 17354 
2 17077 17078 
2 4258 4259 
2 10862 10863 
2 10861 10862 
2 8308 8309 
2 8309 8310 
2 20429 20430 
2 20428 20429 
3 18613 18614 
3 18614 18615 
2 10271 10272 
2 10270 10271 
2 18769 18770 
2 8453 8454 
2 8452 8453 
3 13946 13947 
3 13945 13946 
2 9782 9783 
2 9781 9782 
2 7079 7080 
2 7078 7079 
2 3359 3360 
2 3358 3359 
3 15865 15866 
3 15866 15867 
2 14063 14064 
2 14062 14063 
2 10532 10533 
2 10531 10532 
3 3877 3878 
3 3878 3879 
3 7273 7274 
2 11173 11174 
2 11174 11175 
3 15779 15780 
3 15778 15779 
1 11175 15778 
1 3579 12406 
2 12406 12407 
2 12407 12408 
3 15736 15737 
3 15737 15738 
2 12089 12090 
3 5239 5240 
1 5239 14034 
3 5240 5241 
3 16022 16023 
3 16021 16022 
3 12347 12348 
1 9111 12346 
3 12346 12347 
3 7274 7275 
3 15515 15516 
3 15514 15515 
2 3959 3960 
2 3958 3959 
3 17515 17516 
3 17516 17517 
3 18395 18396 
1 15780 18396 
3 18394 18395 
2 3580 3581 
2 3581 3582 
2 12088 12089 
2 14032 14033 
2 14033 14034 
3 9110 9111 
3 6754 6755 
1 6754 21504 
2 21503 21504 
2 21502 21503 
3 9109 9110 
1 9109 21502 
3 6755 6756 
2 7793 7794 
2 7792 7793 
2 1442 1443 
2 1441 1442 
3 1735 1736 
3 1736 1737 
2 967 968 
2 968 969 
3 14678 14679 
3 14677 14678 
1 10824 14677 
3 10822 10823 
3 10823 10824 
2 4048 4049 
2 4049 4050 
2 12356 12357 
2 12355 12356 
3 7687 7688 
2 4339 4340 
1 4339 7687 
2 4340 4341 
3 7688 7689 
2 6988 6989 
2 6989 6990 
2 10597 10598 
2 10598 10599 
2 11911 11912 
2 11912 11913 
2 14900 14901 
2 14899 14900 
2 15799 15800 
2 15800 15801 
2 7975 7976 
2 4112 4113 
2 4111 4112 
3 9146 9147 
2 19532 19533 
2 19531 19532 
1 9147 19531 
3 9145 9146 
3 8345 8346 
2 7976 7977 
2 20915 20916 
2 20914 20915 
3 3334 3335 
1 3336 9619 
3 3335 3336 
2 9619 9620 
2 9620 9621 
3 16384 16385 
3 16385 16386 
2 8582 8583 
3 6079 6080 
2 1156 1157 
2 1462 1463 
2 1463 1464 
2 1157 1158 
2 16523 16524 
2 16522 16523 
2 5797 5798 
2 2018 2019 
2 2017 2018 
2 15947 15948 
2 15946 15947 
1 2019 15946 
3 15877 15878 
3 15878 15879 
3 9086 9087 
2 17078 17079 
2 8581 8582 
2 19823 19824 
2 19822 19823 
3 13816 13817 
2 3592 3593 
1 3592 13818 
2 3593 3594 
3 13817 13818 
3 8818 8819 
3 8819 8820 
3 6080 6081 
2 17732 17733 
1 4653 17731 
2 17731 17732 
3 4652 4653 
2 9625 9626 
1 9627 18918 
3 18917 18918 
2 9626 9627 
3 18916 18917 
2 11899 11900 
2 11900 11901 
2 1763 1764 
2 5798 5799 
2 20611 20612 
2 20612 20613 
3 5633 5634 
3 5632 5633 
1 5632 5799 
3 5056 5057 
3 4993 4994 
1 4993 5056 
3 4994 4995 
3 5057 5058 
2 7439 7440 
1 4995 7440 
2 18134 18135 
2 18133 18134 
2 16396 16397 
2 16397 16398 
3 2821 2822 
3 2822 2823 
2 17453 17454 
2 17452 17453 
2 20486 20487 
2 20485 20486 
3 11483 11484 
3 11482 11483 
2 17204 17205 
2 17203 17204 
3 18686 18687 
3 18685 18686 
2 17791 17792 
2 17792 17793 
2 14819 14820 
3 19346 19347 
3 19345 19346 
2 7534 7535 
1 7534 19345 
2 7535 7536 
2 20318 20319 
2 20317 20318 
3 10990 10991 
1 10990 20319 
2 11798 11799 
3 12160 12161 
2 17182 17183 
2 580 581 
2 581 582 
3 12161 12162 
2 4174 4175 
2 1762 1763 
2 1562 1563 
2 1561 1562 
2 17183 17184 
2 4175 4176 
3 19307 19308 
3 19306 19307 
3 4381 4382 
3 9341 9342 
3 9340 9341 
3 4382 4383 
2 18478 18479 
3 5663 5664 
3 21244 21245 
1 5664 21244 
3 21245 21246 
3 12332 12333 
3 19454 19455 
3 12331 12332 
1 12331 19455 
3 13949 13950 
3 13948 13949 
3 19453 19454 
2 8956 8957 
2 8957 8958 
2 14818 14819 
3 12700 12701 
1 12700 14818 
3 12701 12702 
3 20690 20691 
3 20689 20690 
2 9326 9327 
3 16501 16502 
2 9325 9326 
1 9325 16501 
3 16502 16503 
3 1042 1043 
1 1042 19815 
3 1043 1044 
2 19813 19814 
2 19814 19815 
3 10361 10362 
3 10360 10361 
2 11797 11798 
3 10991 10992 
3 692 693 
3 691 692 
3 11915 11916 
2 18241 18242 
2 18242 18243 
3 11914 11915 
1 11914 18243 
3 19651 19652 
3 19706 19707 
3 19705 19706 
3 6524 6525 
3 6523 6524 
3 17044 17045 
3 17045 17046 
2 4661 4662 
2 18479 18480 
2 4660 4661 
2 2332 2333 
2 2333 2334 
3 20902 20903 
3 20903 20904 
3 21089 21090 
2 18511 18512 
1 18511 21088 
3 21088 21089 
2 6256 6257 
1 6256 18513 
2 18512 18513 
2 19283 19284 
2 19282 19283 
2 21374 21375 
3 19652 19653 
1 18270 19519 
3 19519 19520 
3 18269 18270 
3 18268 18269 
3 19520 19521 
3 11546 11547 
3 11545 11546 
3 21553 21554 
3 21554 21555 
3 1850 1851 
3 1849 1850 
3 19528 19529 
3 19529 19530 
3 19267 19268 
3 6392 6393 
3 6391 6392 
3 4813 4814 
3 4814 4815 
1 4815 17046 
3 7045 7046 
3 7046 7047 
2 6289 6290 
2 6290 6291 
3 13795 13796 
3 13796 13797 
3 4105 4106 
3 4106 4107 
2 13024 13025 
2 20194 20195 
2 20195 20196 
2 6257 6258 
2 14134 14135 
2 21373 21374 
2 13669 13670 
3 20966 20967 
2 13670 13671 
2 13327 13328 
2 13328 13329 
2 14977 14978 
3 6725 6726 
2 17278 17279 
2 17279 17280 
3 6724 6725 
1 6724 17278 
2 8183 8184 
2 12265 12266 
1 12267 13602 
2 12266 12267 
3 13601 13602 
3 13600 13601 
2 8182 8183 
3 19268 19269 
2 10705 10706 
2 10706 10707 
3 12547 12548 
3 12548 12549 
3 214 215 
1 214 20887 
2 20888 20889 
2 20887 20888 
3 215 216 
2 16364 16365 
2 3310 3311 
1 3310 16363 
2 16363 16364 
2 3311 3312 
1 105 16365 
3 104 105 
3 18187 18188 
2 13025 13026 
2 4528 4529 
2 4529 4530 
3 18524 18525 
3 18523 18524 
3 15776 15777 
3 4352 4353 
3 15775 15776 
2 13280 13281 
2 13279 13280 
3 12239 12240 
3 12238 12239 
1 12240 13281 
2 12437 12438 
2 12436 12437 
2 21490 21491 
2 14339 14340 
2 14338 14339 
2 21491 21492 
3 19144 19145 
3 19145 19146 
3 6307 6308 
3 6308 6309 
2 15134 15135 
2 15133 15134 
2 12898 12899 
2 12899 12900 
3 18218 18219 
2 9734 9735 
2 9733 9734 
3 1969 1970 
3 1970 1971 
1 1971 3801 
3 3800 3801 
3 3799 3800 
2 5377 5378 
3 20077 20078 
2 11983 11984 
2 11984 11985 
2 5378 5379 
2 5801 5802 
2 5800 5801 
3 20078 20079 
3 14698 14699 
3 14699 14700 
2 8504 8505 
2 8503 8504 
3 18803 18804 
3 18802 18803 
3 4282 4283 
1 4282 8505 
3 4283 4284 
2 8894 8895 
3 1846 1847 
1 1846 8893 
2 8893 8894 
3 1847 1848 
2 14090 14091 
2 14089 14090 
1 14089 18804 
3 19934 19935 
2 21182 21183 
2 21181 21182 
3 4921 4922 
3 4922 4923 
3 7321 7322 
3 11209 11210 
3 11210 11211 
3 18838 18839 
3 18839 18840 
3 12382 12383 
3 12383 12384 
3 6859 6860 
1 6861 9169 
3 6860 6861 
3 15025 15026 
3 15026 15027 
2 18232 18233 
2 18233 18234 
3 9170 9171 
3 9169 9170 
2 3610 3611 
1 3612 9073 
2 9073 9074 
2 3611 3612 
2 21044 21045 
2 21043 21044 
1 2388 18936 
3 18935 18936 
3 18934 18935 
3 20818 20819 
2 9074 9075 
2 9779 9780 
3 9263 9264 
3 9262 9263 
1 9262 9780 
2 12868 12869 
2 12869 12870 
3 6452 6453 
3 6451 6452 
3 2387 2388 
3 2386 2387 
3 20780 20781 
3 20779 20780 
1 20779 20820 
3 20819 20820 
2 9778 9779 
1 9778 15267 
3 11617 11618 
2 12064 12065 
2 12065 12066 
2 8563 8564 
2 8564 8565 
2 16744 16745 
2 16745 16746 
3 7856 7857 
3 7855 7856 
3 11618 11619 
3 4286 4287 
3 4285 4286 
3 10016 10017 
3 392 393 
3 19945 19946 
3 19946 19947 
2 1025 1026 
2 1024 1025 
3 391 392 
1 391 1026 
2 16966 16967 
2 16967 16968 
1 6081 11521 
2 11522 11523 
2 11521 11522 
3 8069 8070 
3 8068 8069 
3 19933 19934 
3 1274 1275 
3 1273 1274 
1 1273 20245 
2 20245 20246 
2 20246 20247 
1 12876 20247 
2 12875 12876 
2 12874 12875 
3 3110 3111 
3 3109 3110 
3 5972 5973 
3 5971 5972 
2 758 759 
2 757 758 
2 12499 12500 
2 12500 12501 
2 18332 18333 
2 18331 18332 
3 1930 1931 
1 1930 9826 
2 9826 9827 
2 9827 9828 
3 1931 1932 
3 16702 16703 
1 16702 19996 
2 19996 19997 
3 16703 16704 
3 13067 13068 
3 13066 13067 
1 13066 14136 
2 6745 6746 
1 6745 13068 
2 6746 6747 
2 14135 14136 
3 17503 17504 
3 17504 17505 
3 9302 9303 
3 9301 9302 
2 20357 20358 
2 20356 20357 
3 5933 5934 
3 5932 5933 
2 14978 14979 
3 14945 14946 
2 19997 19998 
2 15929 15930 
3 16864 16865 
1 15930 16864 
3 16865 16866 
2 15928 15929 
3 18683 18684 
3 18682 18683 
2 18725 18726 
2 18724 18725 
3 5426 5427 
3 5425 5426 
1 5425 14938 
2 14938 14939 
2 14984 14985 
2 14983 14984 
3 21224 21225 
3 21223 21224 
2 19942 19943 
2 19943 19944 
3 3862 3863 
3 3863 3864 
2 20797 20798 
2 20798 20799 
3 13549 13550 
1 879 13551 
3 13550 13551 
2 20222 20223 
2 20221 20222 
1 2622 20221 
2 2621 2622 
2 2620 2621 
2 877 878 
2 878 879 
2 1396 1397 
2 1397 1398 
3 17683 17684 
3 17684 17685 
2 9572 9573 
3 9758 9759 
3 9757 9758 
3 20267 20268 
3 629 630 
3 628 629 
2 19069 19070 
2 19070 19071 
1 14979 19071 
3 12217 12218 
2 14563 14564 
2 14564 14565 
2 16330 16331 
2 16331 16332 
3 11335 11336 
3 11336 11337 
2 410 411 
2 409 410 
2 13886 13887 
2 13885 13886 
2 16844 16845 
2 16843 16844 
3 5342 5343 
2 4238 4239 
1 4239 5341 
3 5341 5342 
3 103 104 
2 4237 4238 
3 12218 12219 
3 9413 9414 
3 5942 5943 
3 5941 5942 
1 5941 16845 
3 6199 6200 
3 6200 6201 
3 20749 20750 
3 20750 20751 
2 6404 6405 
3 9412 9413 
2 13541 13542 
2 13540 13541 
2 4645 4646 
2 4646 4647 
2 14753 14754 
2 14752 14753 
3 17567 17568 
3 17566 17567 
2 19574 19575 
2 19573 19574 
1 17568 19573 
3 9266 9267 
2 13523 13524 
2 13522 13523 
1 8520 9265 
3 9265 9266 
1 1593 8518 
2 8518 8519 
2 8519 8520 
2 1592 1593 
2 1591 1592 
1 1591 6279 
3 4745 4746 
3 4744 4745 
2 6278 6279 
2 6277 6278 
2 10942 10943 
2 10943 10944 
3 21430 21431 
3 21431 21432 
2 11767 11768 
2 11768 11769 
2 15640 15641 
2 15641 15642 
2 20647 20648 
2 20648 20649 
3 3226 3227 
3 3227 3228 
3 784 785 
2 8876 8877 
3 4894 4895 
3 4895 4896 
2 8875 8876 
1 4896 8875 
3 4013 4014 
3 4012 4013 
3 17006 17007 
3 17005 17006 
2 3193 3194 
2 3194 3195 
2 17381 17382 
2 17380 17381 
3 1283 1284 
3 1282 1283 
3 785 786 
1 786 12375 
2 11432 11433 
2 11431 11432 
1 11431 21208 
3 12374 12375 
3 12373 12374 
1 11433 12373 
3 21208 21209 
3 21209 21210 
1 14904 21210 
2 5864 5865 
2 5863 5864 
3 2240 2241 
3 21164 21165 
3 21163 21164 
3 14903 14904 
3 14902 14903 
2 9278 9279 
2 9277 9278 
3 2239 2240 
3 4693 4694 
1 2586 9571 
2 9571 9572 
3 4694 4695 
3 2584 2585 
3 2585 2586 
3 19073 19074 
3 19072 19073 
3 3835 3836 
3 3836 3837 
3 18460 18461 
3 18461 18462 
3 15691 15692 
3 15568 15569 
3 15569 15570 
3 15692 15693 
3 5843 5844 
3 5842 5843 
1 5844 15568 
3 13481 13482 
3 13480 13481 
1 10524 19051 
3 19051 19052 
3 19052 19053 
3 10522 10523 
3 10523 10524 
3 19015 19016 
1 19015 19053 
3 19016 19017 
1 19017 20266 
3 20266 20267 
2 12289 12290 
2 12290 12291 
3 16402 16403 
3 16403 16404 
3 8672 8673 
2 12938 12939 
2 12937 12938 
3 12370 12371 
3 12371 12372 
2 13336 13337 
2 13337 13338 
2 14573 14574 
2 14572 14573 
2 11398 11399 
2 11399 11400 
3 10294 10295 
3 10295 10296 
2 21002 21003 
2 21001 21002 
3 19718 19719 
3 19717 19718 
1 19717 21003 
2 3280 3281 
2 3281 3282 
2 17033 17034 
1 3282 17034 
3 5927 5928 
3 5926 5927 
1 5926 13081 
2 13081 13082 
2 13082 13083 
3 1603 1604 
3 1604 1605 
2 2228 2229 
2 2227 2228 
2 16165 16166 
1 16165 18462 
2 16166 16167 
2 4409 4410 
2 4408 4409 
1 4408 10522 
3 10888 10889 
3 8671 8672 
3 20945 20946 
3 20944 20945 
3 15421 15422 
3 2320 2321 
3 2321 2322 
3 16972 16973 
3 16973 16974 
2 19883 19884 
2 19882 19883 
1 16974 17032 
2 17032 17033 
3 20705 20706 
3 20704 20705 
2 14314 14315 
2 14315 14316 
3 19430 19431 
3 18082 18083 
3 18083 18084 
2 12538 12539 
2 12539 12540 
3 19429 19430 
3 10889 10890 
3 7132 7133 
3 7133 7134 
3 15422 15423 
1 15423 16768 
3 16768 16769 
3 16769 16770 
3 9362 9363 
3 9361 9362 
3 21106 21107 
3 21107 21108 
3 16358 16359 
3 16357 16358 
3 13028 13029 
3 13027 13028 
3 20461 20462 
3 20462 20463 
2 8285 8286 
2 8284 8285 
1 8286 20959 
3 20959 20960 
3 10654 10655 
3 10655 10656 
2 15220 15221 
2 15221 15222 
3 23 24 
3 22 23 
2 17111 17112 
2 17110 17111 
2 7759 7760 
3 1177 1178 
1 1177 7759 
2 7760 7761 
1 7761 20961 
3 3040 3041 
1 3040 7431 
3 3041 3042 
3 20960 20961 
3 2054 2055 
3 7429 7430 
3 7430 7431 
2 4129 4130 
2 4130 4131 
3 2053 2054 
1 2053 4131 
3 13561 13562 
3 13562 13563 
2 587 588 
2 586 587 
3 13483 13484 
3 13484 13485 
3 2401 2402 
3 2402 2403 
3 12824 12825 
3 12823 12824 
2 9868 9869 
2 2288 2289 
2 2287 2288 
2 5374 5375 
3 1178 1179 
2 5375 5376 
3 4955 4956 
3 4954 4955 
1 4956 5376 
2 18049 18050 
2 18050 18051 
2 15350 15351 
3 17618 17619 
3 17617 17618 
3 6763 6764 
1 6763 17971 
2 17971 17972 
2 17972 17973 
1 11247 15412 
2 11245 11246 
2 11246 11247 
3 15412 15413 
3 15413 15414 
3 8350 8351 
2 8006 8007 
2 8005 8006 
2 10375 10376 
2 10376 10377 
2 18058 18059 
2 18059 18060 
2 9869 9870 
1 9870 18060 
3 8351 8352 
3 20900 20901 
3 20899 20900 
3 18688 18689 
3 18689 18690 
3 8840 8841 
3 8839 8840 
2 7096 7097 
3 7322 7323 
1 7098 7323 
2 7097 7098 
3 6217 6218 
3 20090 20091 
2 15349 15350 
3 20089 20090 
3 7531 7532 
3 6764 6765 
2 508 509 
2 509 510 
2 15571 15572 
2 15572 15573 
3 1190 1191 
3 1189 1190 
1 1189 12213 
2 12212 12213 
2 12211 12212 
3 10405 10406 
3 10406 10407 
3 19165 19166 
3 18188 18189 
3 18602 18603 
3 18601 18602 
2 14551 14552 
2 14552 14553 
2 9980 9981 
2 9979 9980 
3 6026 6027 
2 2563 2564 
2 2564 2565 
2 10808 10809 
2 10807 10808 
2 307 308 
2 308 309 
3 9398 9399 
3 9397 9398 
1 9397 20658 
3 20657 20658 
3 20656 20657 
3 14944 14945 
2 19142 19143 
2 14630 14631 
2 8768 8769 
2 8767 8768 
2 14629 14630 
2 10979 10980 
2 13244 13245 
2 13243 13244 
3 5666 5667 
3 5665 5666 
1 11850 19141 
2 19141 19142 
3 11849 11850 
3 11848 11849 
3 11800 11801 
3 11801 11802 
3 18871 18872 
3 18872 18873 
2 16934 16935 
2 16933 16934 
1 16935 18873 
2 4607 4608 
2 4606 4607 
1 4608 13627 
3 2849 2850 
3 2848 2849 
2 14869 14870 
2 14870 14871 
2 10978 10979 
2 7022 7023 
2 7021 7022 
2 9457 9458 
2 9458 9459 
3 14942 14943 
3 14941 14942 
2 14939 14940 
2 823 824 
2 824 825 
3 11741 11742 
3 11740 11741 
2 20641 20642 
2 20642 20643 
2 1307 1308 
2 1306 1307 
1 1306 18465 
2 18464 18465 
2 11134 11135 
2 11135 11136 
3 8866 8867 
3 8867 8868 
1 3405 11136 
3 3404 3405 
3 3403 3404 
1 3403 8866 
3 13628 13629 
3 13627 13628 
3 19123 19124 
3 19124 19125 
3 14179 14180 
3 14180 14181 
2 851 852 
2 850 851 
1 850 14181 
2 13777 13778 
2 13778 13779 
3 19597 19598 
2 18463 18464 
1 18463 19599 
3 19598 19599 
3 3224 3225 
2 8828 8829 
2 8827 8828 
2 12595 12596 
2 12596 12597 
2 19334 19335 
3 10714 10715 
3 10715 10716 
3 5365 5366 
3 6016 6017 
3 6017 6018 
3 3223 3224 
2 6421 6422 
3 11558 11559 
3 5912 5913 
1 5913 10084 
2 6422 6423 
2 10084 10085 
2 10085 10086 
2 6671 6672 
2 13955 13956 
2 13954 13955 
2 6670 6671 
1 6670 13954 
1 13956 18945 
2 18467 18468 
2 18466 18467 
2 9628 9629 
2 9629 9630 
3 18943 18944 
3 18944 18945 
2 15485 15486 
2 19333 19334 
3 7168 7169 
3 11557 11558 
3 11458 11459 
1 11458 11557 
3 11459 11460 
3 5911 5912 
3 20785 20786 
3 20786 20787 
2 3340 3341 
1 3340 15484 
2 15484 15485 
2 3341 3342 
3 7169 7170 
3 19804 19805 
3 19805 19806 
2 44 45 
2 43 44 
3 17287 17288 
3 17288 17289 
2 10816 10817 
2 3614 3615 
2 3613 3614 
3 11258 11259 
3 11257 11258 
2 13130 13131 
2 13129 13130 
1 10818 13131 
2 10817 10818 
2 16150 16151 
3 6688 6689 
3 6689 6690 
3 16073 16074 
3 16072 16073 
2 16151 16152 
3 5042 5043 
3 5041 5042 
3 10697 10698 
3 10696 10697 
1 10696 19066 
3 19066 19067 
2 38 39 
2 3409 3410 
2 3410 3411 
2 1412 1413 
2 1411 1412 
3 19067 19068 
2 37 38 
3 8458 8459 
2 20938 20939 
2 20939 20940 
3 19613 19614 
3 18572 18573 
3 18571 18572 
1 18571 20724 
2 20723 20724 
2 20722 20723 
3 8033 8034 
3 19612 19613 
3 8032 8033 
1 8032 19612 
3 15557 15558 
3 14024 14025 
3 14023 14024 
2 4177 4178 
2 4178 4179 
3 21334 21335 
3 8459 8460 
1 11370 12654 
3 12653 12654 
3 12652 12653 
3 21335 21336 
3 11369 11370 
3 18454 18455 
3 18455 18456 
1 6942 13206 
2 6941 6942 
2 6940 6941 
3 13205 13206 
3 13204 13205 
2 2645 2646 
2 2644 2645 
2 20512 20513 
2 20513 20514 
3 10682 10683 
1 10683 20514 
2 12767 12768 
2 12766 12767 
2 6913 6914 
2 6914 6915 
3 18074 18075 
3 1862 1863 
3 1861 1862 
3 9815 9816 
3 18569 18570 
2 18703 18704 
1 18570 18703 
2 18704 18705 
3 15556 15557 
3 18568 18569 
2 6358 6359 
1 6358 18568 
2 14933 14934 
3 19999 20000 
3 20000 20001 
2 14932 14933 
3 19166 19167 
3 11368 11369 
2 18770 18771 
2 3179 3180 
2 3178 3179 
2 15961 15962 
2 15962 15963 
1 2646 15963 
3 10681 10682 
3 18073 18074 
3 9814 9815 
2 6359 6360 
2 7573 7574 
1 6360 7573 
2 7574 7575 
3 21082 21083 
1 7575 21084 
3 21083 21084 
3 4351 4352 
3 16931 16932 
3 16930 16931 
3 20950 20951 
3 20951 20952 
3 12787 12788 
3 12788 12789 
2 11690 11691 
2 11689 11690 
3 20320 20321 
3 11875 11876 
3 11876 11877 
3 16157 16158 
3 9374 9375 
3 9373 9374 
2 15067 15068 
2 15068 15069 
2 19783 19784 
2 19784 19785 
3 2579 2580 
3 2578 2579 
3 302 303 
3 301 302 
3 17692 17693 
3 17693 17694 
1 303 14649 
2 653 654 
2 652 653 
2 15011 15012 
2 15010 15011 
3 8471 8472 
3 2569 2570 
2 4483 4484 
2 12659 12660 
2 12658 12659 
2 4484 4485 
3 4024 4025 
1 4024 4485 
3 4025 4026 
2 8816 8817 
2 8378 8379 
2 8377 8378 
1 6369 8379 
3 10855 10856 
3 10856 10857 
2 10882 10883 
2 10883 10884 
3 8470 8471 
3 1759 1760 
3 1760 1761 
3 4183 4184 
3 4184 4185 
2 3013 3014 
2 3014 3015 
2 2887 2888 
2 2888 2889 
2 17855 17856 
2 17854 17855 
2 3715 3716 
1 3715 13923 
2 3716 3717 
3 13922 13923 
2 17480 17481 
3 9829 9830 
3 9830 9831 
3 251 252 
3 250 251 
3 12835 12836 
2 19154 19155 
2 19153 19154 
3 12836 12837 
2 14816 14817 
2 14815 14816 
2 6442 6443 
1 6442 21144 
3 21143 21144 
3 13921 13922 
3 21142 21143 
2 17479 17480 
3 10499 10500 
3 16889 16890 
3 16888 16889 
3 7213 7214 
3 7214 7215 
3 11300 11301 
3 9112 9113 
1 9112 11301 
3 9113 9114 
3 11299 11300 
1 11299 14817 
2 6443 6444 
2 5362 5363 
2 5363 5364 
2 8758 8759 
2 8759 8760 
2 19603 19604 
2 19604 19605 
3 10498 10499 
2 13289 13290 
2 13288 13289 
3 15433 15434 
3 15434 15435 
2 3718 3719 
3 1922 1923 
3 1921 1922 
3 14425 14426 
3 14426 14427 
1 5364 9048 
3 9047 9048 
3 9046 9047 
3 4697 4698 
3 4696 4697 
2 3719 3720 
2 20635 20636 
2 20636 20637 
3 12529 12530 
3 12530 12531 
1 4962 12531 
3 12773 12774 
2 2099 2100 
2 2098 2099 
1 2098 12774 
2 1495 1496 
2 1496 1497 
2 6496 6497 
2 6497 6498 
3 6824 6825 
3 6823 6824 
3 21218 21219 
3 21217 21218 
3 2710 2711 
3 2711 2712 
2 5515 5516 
2 5516 5517 
2 13228 13229 
2 13229 13230 
2 4961 4962 
2 4960 4961 
3 4948 4949 
3 4949 4950 
2 8743 8744 
2 8744 8745 
3 12772 12773 
3 15491 15492 
3 15490 15491 
3 5969 5970 
3 5968 5969 
2 10666 10667 
2 10667 10668 
2 8083 8084 
2 8084 8085 
3 17323 17324 
3 17324 17325 
2 18308 18309 
2 18307 18308 
1 1266 18309 
2 20744 20745 
2 20743 20744 
3 11260 11261 
3 11261 11262 
3 9442 9443 
3 9443 9444 
1 9444 15490 
2 2978 2979 
2 2977 2978 
3 1585 1586 
1 1585 2977 
3 1586 1587 
3 2135 2136 
1 1587 2136 
3 2134 2135 
2 13862 13863 
2 13861 13862 
3 11404 11405 
1 11404 13861 
3 1264 1265 
3 1265 1266 
2 18347 18348 
2 18346 18347 
2 14519 14520 
3 4811 4812 
3 4810 4811 
1 4810 14518 
2 14518 14519 
2 14647 14648 
2 14648 14649 
2 9970 9971 
2 9971 9972 
2 8594 8595 
2 8593 8594 
2 20515 20516 
2 16618 16619 
2 16619 16620 
3 11405 11406 
2 20516 20517 
1 11406 20517 
2 15932 15933 
2 15931 15932 
1 15931 20121 
3 20120 20121 
3 20119 20120 
2 21188 21189 
3 15461 15462 
3 15460 15461 
3 14717 14718 
3 12434 12435 
3 12433 12434 
2 2437 2438 
2 2438 2439 
2 11294 11295 
2 21187 21188 
2 11293 11294 
2 8366 8367 
3 9986 9987 
3 6742 6743 
1 6742 9987 
3 6743 6744 
1 5211 6744 
2 5210 5211 
2 5209 5210 
3 20707 20708 
3 14710 14711 
3 14711 14712 
3 20708 20709 
3 10087 10088 
3 10088 10089 
1 10089 20343 
2 11668 11669 
2 11669 11670 
2 7115 7116 
2 7114 7115 
3 14716 14717 
3 12617 12618 
3 12616 12617 
1 10332 12616 
2 10331 10332 
2 10330 10331 
1 10330 20847 
3 1996 1997 
1 1996 8365 
2 8365 8366 
3 1997 1998 
3 20846 20847 
2 17419 17420 
2 17420 17421 
3 9985 9986 
2 15139 15140 
2 15140 15141 
2 7438 7439 
3 3371 3372 
2 2818 2819 
2 2819 2820 
3 3370 3371 
3 11735 11736 
3 8098 8099 
3 8099 8100 
3 20341 20342 
1 20341 20907 
2 20906 20907 
3 20342 20343 
2 7892 7893 
2 7891 7892 
2 16945 16946 
2 16946 16947 
3 16159 16160 
3 16160 16161 
3 6883 6884 
3 6884 6885 
2 12241 12242 
2 12242 12243 
2 17473 17474 
2 17474 17475 
3 20845 20846 
3 11938 11939 
3 10226 10227 
3 10225 10226 
3 11734 11735 
2 20905 20906 
3 20231 20232 
2 890 891 
2 889 890 
2 18809 18810 
2 18808 18809 
3 5662 5663 
3 6325 6326 
3 6326 6327 
3 7844 7845 
3 7843 7844 
2 18578 18579 
2 18577 18578 
3 11939 11940 
3 1210 1211 
3 17863 17864 
3 5887 5888 
1 5887 17865 
3 17864 17865 
3 1211 1212 
3 13681 13682 
3 13682 13683 
3 791 792 
3 790 791 
1 790 3624 
2 3623 3624 
3 1960 1961 
1 1960 18172 
2 18172 18173 
3 1961 1962 
3 3571 3572 
1 3571 21117 
2 21116 21117 
3 3572 3573 
3 14113 14114 
3 14114 14115 
2 21115 21116 
3 20230 20231 
1 20230 21115 
2 20609 20610 
2 20608 20609 
3 19393 19394 
3 19394 19395 
3 19162 19163 
3 19163 19164 
3 17429 17430 
3 17428 17429 
3 12428 12429 
3 12427 12428 
3 5888 5889 
2 5422 5423 
1 5422 5889 
2 5423 5424 
2 8128 8129 
2 3622 3623 
1 3622 10518 
2 10517 10518 
2 10516 10517 
2 18173 18174 
2 17228 17229 
2 17227 17228 
2 7136 7137 
2 7135 7136 
3 20632 20633 
3 20633 20634 
3 18646 18647 
3 18647 18648 
2 317 318 
2 316 317 
1 316 19338 
2 19337 19338 
2 19336 19337 
2 15299 15300 
2 15298 15299 
1 12429 15300 
3 20965 20966 
3 13034 13035 
3 13033 13034 
1 12495 13033 
2 8129 8130 
3 5185 5186 
3 5186 5187 
3 12494 12495 
3 15698 15699 
3 14288 14289 
3 14287 14288 
3 2944 2945 
3 2945 2946 
3 10024 10025 
3 10025 10026 
2 20807 20808 
2 782 783 
2 781 782 
1 781 20806 
2 20806 20807 
3 18109 18110 
3 18110 18111 
2 20189 20190 
2 20188 20189 
3 4240 4241 
3 4241 4242 
2 16505 16506 
2 16504 16505 
3 12983 12984 
3 12982 12983 
2 12256 12257 
1 12256 12982 
3 12493 12494 
3 15697 15698 
3 7991 7992 
3 7990 7991 
2 12257 12258 
3 21302 21303 
3 21301 21302 
3 16517 16518 
2 14485 14486 
1 14485 16516 
3 16516 16517 
2 14486 14487 
2 9182 9183 
3 6346 6347 
1 6346 9183 
3 6347 6348 
2 10219 10220 
1 10219 20935 
2 10220 10221 
3 20935 20936 
3 10489 10490 
3 10490 10491 
2 11053 11054 
2 11054 11055 
3 13090 13091 
3 13091 13092 
2 10372 10373 
2 10373 10374 
2 13135 13136 
2 13136 13137 
3 14612 14613 
3 14611 14612 
3 14666 14667 
3 14665 14666 
2 9181 9182 
3 17222 17223 
3 20936 20937 
3 17221 17222 
1 17221 20937 
1 1860 3198 
3 1858 1859 
3 1859 1860 
2 7499 7500 
3 11449 11450 
3 11450 11451 
2 7498 7499 
1 7498 11451 
3 9148 9149 
3 9149 9150 
2 19180 19181 
2 19181 19182 
2 16412 16413 
2 16411 16412 
2 10165 10166 
2 10166 10167 
3 18472 18473 
3 18473 18474 
2 16172 16173 
3 5525 5526 
3 14278 14279 
3 14279 14280 
2 13285 13286 
2 3160 3161 
1 3160 13392 
2 3161 3162 
2 13391 13392 
2 13390 13391 
2 13286 13287 
2 20593 20594 
2 20594 20595 
2 8017 8018 
2 8018 8019 
2 16171 16172 
3 5524 5525 
3 15056 15057 
3 15055 15056 
2 1837 1838 
1 1837 2475 
2 1838 1839 
1 1839 14280 
2 19003 19004 
3 8248 8249 
1 8248 19003 
2 19004 19005 
3 8249 8250 
3 13790 13791 
3 13789 13790 
1 3864 13791 
2 12323 12324 
3 14747 14748 
2 12322 12323 
1 12322 14748 
3 14746 14747 
2 2473 2474 
2 2474 2475 
2 5782 5783 
2 5783 5784 
3 12158 12159 
3 12157 12158 
3 3323 3324 
1 4842 7552 
3 7552 7553 
3 7553 7554 
3 8281 8282 
1 7554 8281 
3 8282 8283 
3 17056 17057 
3 17057 17058 
3 14821 14822 
1 14821 17058 
3 14822 14823 
3 10252 10253 
3 10253 10254 
3 13054 13055 
3 13055 13056 
3 3322 3323 
3 13793 13794 
3 13792 13793 
2 2915 2916 
2 2914 2915 
3 3061 3062 
3 3062 3063 
3 4840 4841 
3 4841 4842 
3 17200 17201 
3 17201 17202 
1 15858 17056 
2 15856 15857 
2 15857 15858 
3 16633 16634 
3 16634 16635 
3 9035 9036 
3 9034 9035 
2 18043 18044 
2 18044 18045 
3 13723 13724 
3 13724 13725 
2 19514 19515 
3 16333 16334 
3 16334 16335 
2 19513 19514 
3 4357 4358 
3 4358 4359 
3 472 473 
1 472 6471 
2 6470 6471 
3 473 474 
2 6469 6470 
2 7255 7256 
2 7256 7257 
2 12184 12185 
2 12185 12186 
3 18940 18941 
3 18941 18942 
3 13049 13050 
3 13048 13049 
1 6204 13048 
2 6202 6203 
2 6203 6204 
3 8410 8411 
3 13436 13437 
3 13435 13436 
3 13075 13076 
3 20663 20664 
3 20662 20663 
2 7004 7005 
2 2996 2997 
2 8396 8397 
2 8395 8396 
3 11836 11837 
3 11837 11838 
3 14371 14372 
3 14372 14373 
2 10036 10037 
1 10036 14373 
3 19262 19263 
2 10037 10038 
3 19261 19262 
2 11291 11292 
3 8411 8412 
2 11290 11291 
2 19085 19086 
2 19084 19085 
3 13076 13077 
2 7003 7004 
2 2995 2996 
1 12720 13561 
2 9239 9240 
2 9238 9239 
1 1713 10273 
3 1712 1713 
2 10273 10274 
2 10274 10275 
3 1711 1712 
3 9887 9888 
3 9886 9887 
3 14378 14379 
3 14377 14378 
1 14377 18250 
3 18250 18251 
3 18251 18252 
3 10700 10701 
3 10699 10700 
3 12718 12719 
3 12719 12720 
3 1418 1419 
3 1417 1418 
3 6890 6891 
3 3328 3329 
1 3328 4627 
2 4627 4628 
2 4628 4629 
3 6889 6890 
2 9296 9297 
3 1310 1311 
3 1309 1310 
1 1309 9297 
3 17500 17501 
3 17501 17502 
3 3329 3330 
2 3847 3848 
2 3848 3849 
2 9295 9296 
2 6788 6789 
2 6787 6788 
2 8815 8816 
3 7618 7619 
3 7619 7620 
1 7620 17223 
2 10463 10464 
2 10462 10463 
2 2147 2148 
2 2146 2147 
2 6403 6404 
2 1864 1865 
2 1865 1866 
2 18340 18341 
2 18341 18342 
3 14767 14768 
3 13052 13053 
3 13051 13052 
3 11164 11165 
3 11165 11166 
1 11166 13053 
3 19094 19095 
3 76 77 
1 76 19093 
3 77 78 
3 19093 19094 
3 8750 8751 
2 6596 6597 
2 6595 6596 
1 6595 8751 
3 8749 8750 
3 14768 14769 
2 3620 3621 
2 3619 3620 
2 15409 15410 
2 2032 2033 
3 3127 3128 
3 3128 3129 
2 2033 2034 
2 16492 16493 
2 16493 16494 
2 9389 9390 
2 9388 9389 
2 12094 12095 
2 12095 12096 
2 9902 9903 
2 9901 9902 
3 1597 1598 
2 3788 3789 
2 14158 14159 
2 14159 14160 
2 226 227 
2 227 228 
2 11464 11465 
2 3787 3788 
1 3787 11466 
2 11465 11466 
3 1598 1599 
2 13552 13553 
2 13553 13554 
2 8642 8643 
3 13841 13842 
2 8641 8642 
1 8641 13842 
3 13840 13841 
3 15911 15912 
3 15910 15911 
1 15912 20973 
2 20972 20973 
2 20971 20972 
2 8608 8609 
2 8609 8610 
2 4223 4224 
2 4222 4223 
2 19727 19728 
2 19726 19727 
3 7489 7490 
3 8909 8910 
3 8908 8909 
3 13403 13404 
3 13402 13403 
1 13402 14328 
3 7490 7491 
3 21233 21234 
3 14327 14328 
3 14326 14327 
3 7522 7523 
3 7523 7524 
3 19252 19253 
3 10313 10314 
3 8381 8382 
3 8380 8381 
2 18017 18018 
3 1084 1085 
3 1085 1086 
3 21232 21233 
3 19253 19254 
3 18914 18915 
2 18016 18017 
3 10312 10313 
3 6044 6045 
2 17852 17853 
2 17851 17852 
3 18913 18914 
3 2773 2774 
3 2774 2775 
3 6043 6044 
3 20848 20849 
3 19459 19460 
1 8775 19459 
3 19460 19461 
2 15238 15239 
2 15239 15240 
3 6368 6369 
3 6367 6368 
3 16681 16682 
3 16682 16683 
3 8774 8775 
3 16156 16157 
2 5140 5141 