ITEM: TIMESTEP
50000000
ITEM: NUMBER OF ENTRIES
6680
ITEM: BOX BOUNDS pp pp pp
0 50
0 50
0 50
ITEM: ENTRIES c_binfo[1] c_binfo[2] c_binfo[3] 
3 8224 8225 
2 6107 6108 
1 6108 12277 
2 12277 12278 
1 10881 11590 
2 10880 10881 
2 10879 10880 
2 6106 6107 
2 11590 11591 
2 12278 12279 
3 17809 17810 
3 17810 17811 
1 12279 17809 
3 8428 8429 
1 8428 17811 
1 2277 15312 
2 2276 2277 
2 11591 11592 
2 2275 2276 
1 2275 11592 
2 4400 4401 
2 4399 4400 
1 3417 4399 
3 15923 15924 
2 8035 8036 
1 8035 9028 
3 9028 9029 
3 9029 9030 
2 8036 8037 
3 15311 15312 
3 15310 15311 
1 4401 15310 
3 9673 9674 
3 17777 17778 
3 17776 17777 
3 9674 9675 
1 9675 20050 
2 20050 20051 
2 20051 20052 
2 5746 5747 
3 9062 9063 
3 9061 9062 
3 15922 15923 
2 11395 11396 
1 11395 15922 
2 11396 11397 
1 11397 16674 
2 16673 16674 
3 3416 3417 
2 9772 9773 
3 3415 3416 
1 3415 14724 
1 7530 8037 
2 14723 14724 
2 14722 14723 
1 14722 20082 
2 20081 20082 
1 1662 17778 
2 3308 3309 
2 1660 1661 
1 1660 3307 
2 3307 3308 
2 1661 1662 
2 1820 1821 
2 14587 14588 
1 14587 20052 
2 1819 1820 
1 1819 5695 
2 14588 14589 
1 84 14589 
2 5747 5748 
1 5748 16957 
2 16958 16959 
2 16957 16958 
2 10984 10985 
1 10984 16959 
3 15769 15770 
3 15770 15771 
2 2878 2879 
1 2878 15771 
1 7833 9063 
2 7832 7833 
2 7831 7832 
1 900 7831 
2 16672 16673 
2 8824 8825 
1 8824 16672 
2 8825 8826 
1 8826 18484 
2 899 900 
2 18484 18485 
2 9773 9774 
1 9774 16266 
2 16265 16266 
1 6693 20928 
2 20927 20928 
2 20926 20927 
1 7326 9753 
2 9752 9753 
2 20080 20081 
2 9751 9752 
1 9751 20080 
2 241 242 
1 241 19810 
2 19810 19811 
2 242 243 
1 243 3309 
2 19811 19812 
2 6692 6693 
2 6691 6692 
2 5915 5916 
2 5695 5696 
2 5696 5697 
1 5697 15891 
2 15890 15891 
2 5914 5915 
1 5914 10986 
2 10985 10986 
2 10478 10479 
2 2879 2880 
1 2880 7296 
2 7295 7296 
2 10477 10478 
2 7294 7295 
1 7294 11565 
2 898 899 
1 898 3262 
2 18485 18486 
2 236 237 
2 235 236 
1 235 18486 
2 3262 3263 
2 3263 3264 
2 17945 17946 
1 3264 9243 
1 237 7158 
2 17944 17945 
2 14111 14112 
3 17698 17699 
1 14112 17698 
3 17699 17700 
1 17700 20926 
2 16264 16265 
2 7324 7325 
1 7324 17946 
2 7325 7326 
1 1281 16264 
2 1279 1280 
1 1279 10426 
2 10426 10427 
2 1280 1281 
2 10427 10428 
2 5410 5411 
1 5410 19812 
2 5411 5412 
1 5412 6295 
2 6295 6296 
2 12808 12809 
1 12808 14130 
2 4211 4212 
2 4210 4211 
2 15889 15890 
2 14128 14129 
1 14128 15889 
2 14129 14130 
2 4669 4670 
2 4670 4671 
1 1032 10477 
2 11563 11564 
3 1031 1032 
3 1030 1031 
1 1030 13272 
2 11564 11565 
1 6648 11563 
2 13271 13272 
2 1738 1739 
1 1738 7156 
2 1739 1740 
2 6647 6648 
2 7048 7049 
2 7049 7050 
2 7157 7158 
2 7156 7157 
2 9242 9243 
2 9241 9242 
1 9241 20868 
2 20867 20868 
1 7050 17944 
2 20866 20867 
2 14110 14111 
3 1334 1335 
3 1333 1334 
1 1333 14110 
1 4212 11874 
1 13800 19659 
2 19658 19659 
1 10428 19657 
2 19657 19658 
2 11873 11874 
2 11872 11873 
2 6052 6053 
1 6052 11872 
2 6296 6297 
1 6297 13512 
2 12809 12810 
2 8209 8210 
1 4671 8211 
2 8210 8211 
1 2943 8209 
1 624 12810 
2 431 432 
2 21313 21314 
2 6646 6647 
1 6646 21313 
2 13270 13271 
1 13270 14673 
2 14672 14673 
2 14671 14672 
1 14671 17629 
2 17629 17630 
2 12349 12350 
1 12349 21315 
2 21314 21315 
1 1740 5620 
2 430 431 
2 19018 19019 
1 19018 20866 
2 16726 16727 
1 16726 19020 
2 19019 19020 
2 9098 9099 
1 9099 13798 
2 16727 16728 
2 9097 9098 
2 13798 13799 
2 6053 6054 
2 13799 13800 
1 6054 12949 
2 12949 12950 
2 12950 12951 
2 8176 8177 
1 8176 12951 
2 2942 2943 
2 8800 8801 
1 8800 12351 
2 12350 12351 
2 8801 8802 
3 287 288 
3 286 287 
1 286 6687 
2 17630 17631 
1 13758 17631 
2 13757 13758 
2 9055 9056 
1 7401 9055 
2 7819 7820 
1 7819 9097 
2 7400 7401 
2 7399 7400 
1 7399 16728 
2 7820 7821 
2 12151 12152 
1 7821 12151 
2 12152 12153 
2 2762 2763 
2 8177 8178 
2 2761 2762 
1 2761 8178 
3 9059 9060 
1 3381 8802 
3 3380 3381 
3 3379 3380 
1 3379 9058 
3 9058 9059 
3 16091 16092 
3 16090 16091 
2 6685 6686 
1 6685 16092 
2 6686 6687 
2 13756 13757 
2 4295 4296 
1 4803 13756 
2 4802 4803 
2 4801 4802 
2 4294 4295 
1 4294 4801 
2 17981 17982 
1 9057 17982 
1 2778 12153 
2 2777 2778 
2 2776 2777 
1 2776 17604 
2 9056 9057 
1 2763 18297 
1 7566 17980 
2 7565 7566 
2 17980 17981 
2 10559 10560 
2 10558 10559 
1 10558 16752 
1 4296 10560 
2 18844 18845 
2 18845 18846 
1 18846 20775 
2 17602 17603 
2 14419 14420 
2 17603 17604 
2 14420 14421 
1 14421 17602 
3 203 204 
2 16751 16752 
3 202 203 
1 202 16750 
2 16750 16751 
2 20773 20774 
2 20774 20775 
1 13605 14419 
3 13604 13605 
3 15437 15438 
3 13603 13604 
1 13603 15438 
3 15436 15437 
1 15436 17646 
2 19322 19323 
2 19321 19322 
3 17644 17645 
1 17644 19321 
3 17645 17646 
2 17669 17670 
2 17668 17669 
2 6314 6315 
2 6313 6314 
1 6315 9925 
3 8225 8226 
1 14703 17668 
2 14702 14703 
2 14701 14702 
3 4045 4046 
1 4045 14701 
3 4046 4047 
3 16733 16734 
3 58 59 
1 58 16734 
2 15059 15060 
2 15058 15059 
1 15058 18721 
2 18721 18722 
2 18722 18723 
2 12047 12048 
2 12046 12047 
2 1771 1772 
1 1771 5505 
3 5504 5505 
3 5503 5504 
3 14116 14117 
1 14116 14949 
3 9925 9926 
3 18235 18236 
1 9927 18235 
3 9926 9927 
3 18236 18237 
3 2905 2906 
3 14117 14118 
3 2906 2907 
1 2907 14118 
2 17827 17828 
3 12317 12318 
1 12318 17829 
2 17828 17829 
3 9739 9740 
3 965 966 
3 964 965 
1 964 7038 
1 966 4047 
1 4128 5953 
2 4127 4128 
3 9740 9741 
3 5953 5954 
2 4126 4127 
3 16732 16733 
1 8628 14220 
3 8626 8627 
1 8626 16732 
3 8627 8628 
3 7904 7905 
1 7905 20056 
2 20056 20057 
2 20057 20058 
2 12443 12444 
3 7903 7904 
1 7903 18723 
1 15513 20547 
1 12048 20545 
3 20546 20547 
3 20545 20546 
2 18265 18266 
2 16349 16350 
2 16348 16349 
1 1773 16348 
2 1772 1773 
2 14947 14948 
2 2434 2435 
1 2434 14947 
2 2435 2436 
1 16350 18265 
1 2436 12993 
2 14948 14949 
2 7202 7203 
2 7727 7728 
2 7726 7727 
1 7726 18237 
2 8333 8334 
1 5655 7728 
3 13378 13379 
2 8332 8333 
1 8332 13380 
3 13379 13380 
2 16508 16509 
2 16507 16508 
2 3917 3918 
2 3916 3917 
1 3916 7036 
3 7036 7037 
2 4864 4865 
1 4864 11310 
2 4865 4866 
2 11309 11310 
2 2314 2315 
1 2314 3918 
2 16201 16202 
1 7203 16203 
2 16202 16203 
1 20508 21501 
2 21500 21501 
3 12316 12317 
1 12316 17349 
1 3057 17347 
3 17347 17348 
3 17348 17349 
1 7191 10578 
2 15182 15183 
3 8429 8430 
1 8430 15183 
3 7037 7038 
3 5954 5955 
1 6972 9741 
2 6971 6972 
2 9536 9537 
1 5955 9537 
2 6970 6971 
1 4116 6970 
2 1871 1872 
2 7018 7019 
1 7018 10887 
2 14219 14220 
2 14218 14219 
1 14218 21499 
2 21499 21500 
2 7019 7020 
1 7020 19927 
3 10886 10887 
2 523 524 
1 523 20134 
2 20134 20135 
2 524 525 
1 525 20058 
3 15604 15605 
3 15605 15606 
1 9042 15606 
2 9041 9042 
3 17734 17735 
1 9294 17734 
3 17735 17736 
2 12442 12443 
1 12442 17736 
2 15512 15513 
2 18266 18267 
1 5838 15511 
2 15511 15512 
2 5837 5838 
1 18267 21406 
2 21406 21407 
2 5836 5837 
2 21407 21408 
2 5497 5498 
1 5497 16509 
2 5498 5499 
1 5499 6228 
2 6227 6228 
2 19919 19920 
2 19918 19919 
2 12992 12993 
2 12991 12992 
1 12991 19918 
2 7201 7202 
1 7201 7966 
2 7966 7967 
1 7968 15685 
2 15685 15686 
2 7967 7968 
2 15686 15687 
2 13166 13167 
2 2932 2933 
1 2932 19587 
2 19585 19586 
2 13165 13166 
1 13165 19585 
2 19586 19587 
2 3056 3057 
2 268 269 
1 268 15783 
2 269 270 
1 270 5653 
2 5654 5655 
2 7511 7512 
2 19352 19353 
1 7512 10830 
1 19353 21507 
2 5653 5654 
2 19351 19352 
1 8334 19351 
2 3055 3056 
1 3055 7510 
2 7510 7511 
2 12029 12030 
2 2315 2316 
1 2316 19788 
2 19787 19788 
1 15615 15813 
2 21152 21153 
2 11308 11309 
1 11308 21153 
2 21151 21152 
1 12030 21151 
2 20507 20508 
2 20506 20507 
1 9804 20506 
2 9803 9804 
2 9802 9803 
1 9802 20076 
2 7190 7191 
2 13555 13556 
1 771 13555 
2 770 771 
2 7189 7190 
1 7189 17574 
2 17573 17574 
2 17572 17573 
2 769 770 
1 769 15181 
2 15181 15182 
2 13556 13557 
2 7529 7530 
2 7528 7529 
1 7528 14533 
2 14533 14534 
2 15812 15813 
2 9535 9536 
1 9535 15811 
2 15811 15812 
2 932 933 
2 4118 4119 
2 4115 4116 
2 931 932 
1 931 4114 
2 4114 4115 
1 4119 10056 
2 4117 4118 
2 10055 10056 
2 3632 3633 
2 8434 8435 
1 933 8434 
2 1870 1871 
1 1870 4117 
2 19927 19928 
2 19928 19929 
1 4197 19929 
2 4196 4197 
2 21395 21396 
2 17434 17435 
2 3346 3347 
1 3346 17434 
2 5815 5816 
1 5815 10449 
2 5816 5817 
2 20135 20136 
1 5817 9040 
2 9040 9041 
1 20136 20569 
2 20569 20570 
2 20570 20571 
1 4536 14247 
2 4535 4536 
2 4534 4535 
1 4534 19920 
2 9293 9294 
2 9292 9293 
2 1342 1343 
1 1342 9292 
2 1343 1344 
1 1344 5628 
2 2933 2934 
1 414 19494 
2 413 414 
2 412 413 
1 412 21408 
1 4644 5836 
2 4643 4644 
2 4642 4643 
1 261 4642 
2 15781 15782 
1 15781 20562 
2 20561 20562 
2 15782 15783 
2 260 261 
2 6226 6227 
2 2833 2834 
1 2833 6226 
2 2834 2835 
1 2835 17338 
2 17338 17339 
2 17339 17340 
2 20650 20651 
2 5578 5579 
1 5578 20650 
1 5580 12028 
2 5579 5580 
2 12028 12029 
2 19462 19463 
1 19462 19524 
2 19463 19464 
1 15687 19464 
2 3107 3108 
2 8153 8154 
2 8152 8153 
1 8152 21505 
2 21506 21507 
2 21505 21506 
2 10829 10830 
1 3870 13557 
2 3869 3870 
2 10828 10829 
2 10564 10565 
1 10564 10828 
2 10565 10566 
1 8154 13653 
2 3868 3869 
1 3868 21265 
2 21265 21266 
2 15614 15615 
2 11485 11486 
1 11485 15261 
2 19786 19787 
2 15259 15260 
1 15259 19786 
2 15260 15261 
1 8436 15489 
2 15488 15489 
2 15613 15614 
1 4620 15613 
2 13261 13262 
2 11486 11487 
1 3108 20074 
2 20074 20075 
2 4619 4620 
2 4618 4619 
1 4618 13261 
2 20075 20076 
1 15 14274 
2 14 15 
2 14273 14274 
1 9465 17572 
2 14534 14535 
2 9464 9465 
2 16637 16638 
2 2279 2280 
2 2278 2279 
1 2278 14535 
1 2280 15099 
2 9463 9464 
1 9463 16638 
2 11024 11025 
2 6589 6590 
2 8435 8436 
1 3633 14101 
2 14101 14102 
2 14102 14103 
1 13116 14103 
2 10054 10055 
1 10054 19210 
2 19210 19211 
2 13115 13116 
2 19211 19212 
1 1632 6589 
2 4195 4196 
2 13 14 
1 13 4195 
2 17224 17225 
1 17224 19212 
1 2445 21396 
2 2444 2445 
2 2443 2444 
1 2443 10896 
2 10895 10896 
2 7262 7263 
1 4347 7263 
2 10448 10449 
2 10447 10448 
1 10447 15078 
3 15077 15078 
3 15076 15077 
2 19492 19493 
2 3448 3449 
1 3448 19492 
2 3449 3450 
2 19493 19494 
1 3450 18535 
2 18535 18536 
2 8413 8414 
1 8413 20571 
2 14246 14247 
2 15344 15345 
2 15343 15344 
2 8414 8415 
1 8415 15343 
2 20099 20100 
2 20098 20099 
2 14245 14246 
1 14245 20098 
2 12712 12713 
2 479 480 
1 480 5626 
2 5626 5627 
2 5627 5628 
2 14237 14238 
2 14236 14237 
1 14236 19522 
2 19522 19523 
1 1776 12712 
2 12713 12714 
2 7102 7103 
2 20560 20561 
1 1455 7102 
2 1454 1455 
2 259 260 
1 259 1453 
2 1453 1454 
2 13651 13652 
1 13651 18589 
2 18589 18590 
2 13652 13653 
2 18590 18591 
2 9467 9468 
2 9466 9467 
1 9466 11013 
1 9468 20560 
1 3630 7611 
2 3629 3630 
2 3628 3629 
1 3628 17340 
2 18680 18681 
1 11487 18681 
2 18679 18680 
2 12859 12860 
1 12859 18679 
2 1241 1242 
2 1240 1241 
1 1240 20652 
2 19523 19524 
2 20651 20652 
1 1242 16851 
2 3106 3107 
1 3106 12853 
2 12853 12854 
2 12854 12855 
2 8041 8042 
1 8041 12855 
2 18904 18905 
2 6076 6077 
1 6076 18904 
2 8042 8043 
2 21266 21267 
1 20985 21267 
2 20984 20985 
1 6357 10566 
2 6356 6357 
2 6355 6356 
1 6355 9813 
2 9812 9813 
1 10389 18720 
2 18719 18720 
2 10388 10389 
2 15487 15488 
1 4716 15487 
2 4715 4716 
2 4714 4715 
1 4714 15429 
2 15428 15429 
2 6077 6078 
1 6078 13263 
2 13262 13263 
2 4517 4518 
2 14272 14273 
2 4516 4517 
1 4516 7093 
2 5752 5753 
1 5752 14272 
2 5753 5754 
1 5754 21132 
2 7093 7094 
1 4518 17226 
2 21131 21132 
2 641 642 
2 16636 16637 
1 16636 18718 
2 18718 18719 
2 5164 5165 
1 5164 11025 
2 15098 15099 
2 946 947 
1 946 15097 
2 15097 15098 
2 947 948 
2 5165 5166 
2 3295 3296 
1 3295 5166 
1 12963 14344 
2 13114 13115 
1 13114 16810 
2 13321 13322 
1 13321 16812 
2 16811 16812 
2 16810 16811 
2 3296 3297 
2 1631 1632 
2 1630 1631 
1 1630 2236 
2 14344 14345 
2 640 641 
1 640 11469 
2 17225 17226 
2 12394 12395 
2 2236 2237 
2 10894 10895 
1 10894 11467 
2 11467 11468 
2 12395 12396 
2 11468 11469 
2 2237 2238 
1 1323 2238 
2 4108 4109 
1 4108 12394 
3 11003 11004 
3 11002 11003 
1 3759 14638 
3 14638 14639 
2 3758 3759 
1 14640 15345 
3 14639 14640 
2 478 479 
1 478 9982 
2 1316 1317 
2 9982 9983 
2 4144 4145 
1 4144 9984 
2 9983 9984 
2 4145 4146 
2 18550 18551 
1 1317 18550 
2 18779 18780 
2 18536 18537 
2 6274 6275 
1 6274 18537 
2 6275 6276 
1 7104 18778 
2 18778 18779 
2 7103 7104 
1 13332 18780 
1 18435 20100 
2 5639 5640 
2 7610 7611 
2 7609 7610 
1 2601 7609 
2 2600 2601 
1 5640 18433 
2 18434 18435 
2 18433 18434 
2 2599 2600 
1 2599 10966 
2 10966 10967 
2 7921 7922 
1 7921 14238 
2 16849 16850 
1 16849 17898 
2 17897 17898 
2 7922 7923 
1 7923 15870 
2 15869 15870 
2 1315 1316 
1 1315 12714 
2 11012 11013 
2 9244 9245 
1 9244 18591 
2 9245 9246 
1 9246 20677 
2 20677 20678 
2 16081 16082 
2 11011 11012 
1 11011 16081 
2 16082 16083 
1 16083 17022 
1 3168 9811 
2 3167 3168 
2 3166 3167 
1 3166 11844 
2 12860 12861 
2 1222 1223 
1 1222 12861 
2 1223 1224 
1 1224 21379 
2 9811 9812 
2 21379 21380 
2 16850 16851 
2 15163 15164 
1 15163 17031 
2 18905 18906 
1 8043 15165 
1 3234 21070 
2 15164 15165 
2 13273 13274 
1 13273 18906 
2 13274 13275 
2 3233 3234 
2 21070 21071 
2 20983 20984 
2 20617 20618 
1 20617 20983 
2 20618 20619 
2 229 230 
1 229 20619 
2 1751 1752 
2 5477 5478 
2 230 231 
2 5476 5477 
1 5476 7048 
2 17621 17622 
2 10387 10388 
1 10387 15760 
2 15760 15761 
2 15761 15762 
2 17620 17621 
2 15427 15428 
1 15427 17620 
2 16979 16980 
1 15762 16999 
2 16999 17000 
2 16978 16979 
1 16978 18361 
2 18361 18362 
1 13323 16980 
1 13389 17622 
2 3232 3233 
1 3232 21130 
2 7094 7095 
1 7095 19591 
2 21130 21131 
2 19591 19592 
2 19592 19593 
2 21371 21372 
2 21370 21371 
1 642 21370 
1 7551 21372 
2 13507 13508 
1 13507 13510 
2 1750 1751 
1 1750 16489 
2 16489 16490 
1 948 16491 
2 16490 16491 
2 13538 13539 
2 13537 13538 
2 6727 6728 
1 6727 13537 
2 6728 6729 
2 13511 13512 
2 13510 13511 
2 55 56 
1 55 13539 
2 12962 12963 
2 13322 13323 
1 3297 14172 
2 12961 12962 
2 14171 14172 
2 5723 5724 
2 5722 5723 
1 5722 12961 
1 5724 9270 
2 14170 14171 
1 10137 14170 
2 5242 5243 
1 5242 13405 
2 13405 13406 
1 12396 20767 
2 1322 1323 
2 20767 20768 
2 1321 1322 
1 1321 7123 
2 7124 7125 
2 7123 7124 
2 20768 20769 
2 13406 13407 
2 4891 4892 
1 4891 20769 
2 3098 3099 
3 4172 4173 
1 3099 4173 
3 4171 4172 
2 10130 10131 
2 3757 3758 
2 3097 3098 
1 3097 3757 
2 3277 3278 
2 3278 3279 
2 21362 21363 
1 15192 21363 
1 1383 9343 
2 9343 9344 
1 10131 14887 
2 14887 14888 
1 4146 14889 
2 14888 14889 
1 636 19441 
2 19441 19442 
2 635 636 
2 9344 9345 
1 6276 9400 
2 9401 9402 
2 9400 9401 
2 13331 13332 
2 13330 13331 
1 4203 13330 
2 4202 4203 
2 17020 17021 
1 1515 17020 
2 1514 1515 
2 5638 5639 
1 5638 21361 
2 21361 21362 
2 10967 10968 
2 745 746 
1 745 10968 
2 746 747 
2 1513 1514 
1 1513 18130 
2 17896 17897 
2 17030 17031 
2 19442 19443 
1 1650 17896 
2 1649 1650 
2 15868 15869 
1 15868 19443 
2 18659 18660 
2 1648 1649 
1 1648 18658 
2 17029 17030 
2 4850 4851 
2 18658 18659 
2 4849 4850 
1 4849 21280 
1 4851 17029 
2 5620 5621 
2 5621 5622 
2 17021 17022 
2 20678 20679 
2 5725 5726 
1 5725 20679 
2 5726 5727 
1 5727 11605 
1 6585 12883 
1 5622 11881 
2 11881 11882 
2 11843 11844 
2 5993 5994 
1 5994 21381 
2 11842 11843 
1 7827 11842 
2 21380 21381 
2 7826 7827 
2 5428 5429 
1 5428 13387 
2 13387 13388 
2 5429 5430 
2 13388 13389 
2 7825 7826 
1 7825 19291 
2 1373 1374 
1 1374 21072 
2 1372 1373 
1 1372 11925 
2 10721 10722 
2 21071 21072 
1 639 13275 
2 638 639 
2 637 638 
1 637 10720 
2 10720 10721 
2 12683 12684 
1 12684 16209 
1 54 5478 
2 12883 12884 
2 53 54 
2 12884 12885 
2 9367 9368 
1 231 12885 
1 1752 18423 
2 18422 18423 
2 18421 18422 
1 1812 18421 
2 52 53 
1 52 9367 
2 9368 9369 
2 17000 17001 
2 20563 20564 
1 17001 20563 
2 18362 18363 
2 20564 20565 
2 70 71 
1 70 19213 
2 11977 11978 
1 11977 18363 
2 11978 11979 
1 11979 17074 
2 19213 19214 
2 4246 4247 
1 4246 7549 
2 7549 7550 
2 19234 19235 
1 7125 19234 
2 7550 7551 
2 16207 16208 
1 16207 19593 
2 16208 16209 
2 8270 8271 
2 8269 8270 
1 8269 19236 
2 19235 19236 
2 11792 11793 
1 5502 6729 
2 5501 5502 
2 19790 19791 
2 5500 5501 
1 5500 12544 
2 12544 12545 
2 11791 11792 
1 11791 14391 
1 13509 19789 
2 19789 19790 
2 13508 13509 
2 14056 14057 
1 14056 15348 
2 10136 10137 
2 71 72 
1 72 10135 
2 10135 10136 
2 9269 9270 
1 8193 16699 
2 16700 16701 
2 16699 16700 
2 9268 9269 
1 9268 10948 
1 2736 16701 
2 10948 10949 
2 6416 6417 
1 14058 21261 
2 14057 14058 
2 8389 8390 
1 8389 13407 
2 10949 10950 
2 8390 8391 
2 5776 5777 
1 5776 8391 
2 5777 5778 
3 14561 14562 
3 11356 11357 
3 5678 5679 
3 5677 5678 
1 5677 10129 
2 10129 10130 
3 11357 11358 
1 9345 11356 
2 15191 15192 
3 14560 14561 
1 14560 14692 
3 14692 14693 
3 14693 14694 
2 15190 15191 
1 14694 15190 
3 2954 2955 
2 634 635 
1 634 11242 
3 2953 2954 
1 2953 11244 
3 11243 11244 
3 11242 11243 
3 21332 21333 
3 12431 12432 
2 4201 4202 
2 1624 1625 
1 1624 4201 
1 1626 12432 
2 1625 1626 
2 8741 8742 
2 8740 8741 
1 8740 18132 
2 18131 18132 
2 10318 10319 
1 10318 16272 
2 16271 16272 
2 18130 18131 
1 747 16270 
2 16270 16271 
2 5992 5993 
1 5992 12822 
3 12820 12821 
3 12821 12822 
3 21331 21332 
1 19011 21331 
2 19850 19851 
2 21280 21281 
1 18660 19009 
2 19009 19010 
2 19010 19011 
2 21281 21282 
2 19849 19850 
1 19849 21282 
2 18325 18326 
1 18325 19149 
2 18326 18327 
1 19851 20686 
2 20392 20393 
2 20393 20394 
2 11605 11606 
2 3170 3171 
2 17431 17432 
1 3171 11607 
2 6584 6585 
2 17546 17547 
2 11606 11607 
2 6583 6584 
1 6583 17547 
2 17432 17433 
1 11883 17431 
2 11882 11883 
2 16273 16274 
1 16273 17433 
2 19291 19292 
2 16562 16563 
1 5430 17364 
2 12368 12369 
2 19292 19293 
1 16563 19293 
2 17363 17364 
2 17362 17363 
1 9900 17362 
1 12369 14353 
2 9899 9900 
2 14353 14354 
2 4496 4497 
2 11924 11925 
1 10722 18327 
2 12682 12683 
2 1102 1103 
1 1102 12682 
1 1104 13309 
2 1103 1104 
2 13309 13310 
2 11923 11924 
1 11923 20392 
2 12569 12570 
2 1811 1812 
2 4987 4988 
1 4987 9369 
1 4989 18163 
2 4988 4989 
2 1810 1811 
1 1810 3522 
2 3521 3522 
2 18163 18164 
1 14355 20565 
2 14354 14355 
2 21212 21213 
2 19214 19215 
2 21211 21212 
1 19215 21211 
2 17074 17075 
2 17075 17076 
2 3520 3521 
1 3520 21102 
1 8271 20148 
2 1966 1967 
1 1966 18397 
1 4497 17076 
2 18398 18399 
2 1967 1968 
1 9528 20146 
2 20146 20147 
2 20147 20148 
2 18397 18398 
2 12545 12546 
2 12568 12569 
2 4909 4910 
1 4909 12568 
2 4910 4911 
2 14389 14390 
1 4911 19791 
2 85 86 
1 85 14389 
2 14390 14391 
2 86 87 
2 2341 2342 
1 2341 12546 
2 2342 2343 
1 8901 21220 
2 21220 21221 
2 869 870 
1 2343 4236 
2 12920 12921 
1 870 6975 
2 2735 2736 
2 12919 12920 
2 2734 2735 
1 2734 12919 
2 868 869 
1 868 18576 
1 12921 16720 
2 17345 17346 
1 5778 11667 
2 11665 11666 
1 11665 13203 
2 21260 21261 
2 11372 11373 
1 10950 18399 
2 11666 11667 
1 17346 21259 
1 11373 17583 
2 11371 11372 
2 6415 6416 
1 6415 11371 
2 21259 21260 
1 1581 20682 
3 1580 1581 
3 1579 1580 
3 18514 18515 
2 1213 1214 
1 1213 6637 
3 6637 6638 
1 12468 18514 
2 12467 12468 
3 3479 3480 
3 20681 20682 
2 12466 12467 
1 12466 20680 
3 20680 20681 
1 3480 18546 
3 3478 3479 
1 3478 13941 
3 19259 19260 
3 6638 6639 
3 18425 18426 
3 18424 18425 
1 14880 15745 
3 14879 14880 
3 15746 15747 
3 4552 4553 
1 4552 15747 
3 15745 15746 
3 15028 15029 
1 13443 15028 
1 2265 19759 
2 11698 11699 
1 11698 12613 
3 12613 12614 
3 12614 12615 
2 11699 11700 
3 5986 5987 
1 5986 18661 
2 18662 18663 
2 18661 18662 
1 13167 16710 
2 21383 21384 
2 16709 16710 
2 16708 16709 
3 5987 5988 
3 10628 10629 
1 5988 10627 
3 10627 10628 
1 10629 12744 
2 1214 1215 
1 1215 19773 
2 6085 6086 
1 6085 18516 
2 21382 21383 
2 19771 19772 
1 19771 21382 
2 19772 19773 
2 17114 17115 
2 6086 6087 
3 18515 18516 
1 6087 19249 
2 10343 10344 
1 10344 16582 
2 16582 16583 
2 16583 16584 
2 12743 12744 
2 12742 12743 
2 4790 4791 
2 17113 17114 
2 13940 13941 
2 13939 13940 
1 13939 17113 
2 6383 6384 
1 6384 17553 
3 19258 19259 
2 4789 4790 
1 4789 19258 
2 17435 17436 
1 4791 17436 
2 10342 10343 
1 10342 18426 
2 9839 9840 
2 15455 15456 
2 15454 15455 
1 1506 9513 
1 9840 11892 
3 2264 2265 
3 15029 15030 
3 2263 2264 
1 2263 11890 
3 11890 11891 
3 11891 11892 
3 1484 1485 
1 1485 5574 
2 5530 5531 
3 1456 1457 
1 1456 5530 
3 1457 1458 
1 1458 4615 
2 8540 8541 
2 8539 8540 
1 8539 13828 
3 13828 13829 
3 2251 2252 
1 2251 13830 
3 13829 13830 
3 2252 2253 
2 8566 8567 
1 8566 21384 
2 8567 8568 
1 8568 9324 
2 17207 17208 
2 9323 9324 
2 9311 9312 
2 19250 19251 
1 17208 19251 
2 10303 10304 
1 10303 17115 
2 10304 10305 
1 9255 10305 
2 9254 9255 
2 19249 19250 
2 3347 3348 
1 3348 9456 
2 9253 9254 
1 9312 13726 
2 13726 13727 
2 9838 9839 
1 13728 16584 
2 13727 13728 
2 10471 10472 
1 10471 20668 
2 20117 20118 
2 10472 10473 
1 6195 9838 
2 6193 6194 
1 6193 20118 
2 6194 6195 
2 20668 20669 
2 20669 20670 
2 20336 20337 
2 20335 20336 
1 6774 20335 
1 18288 18319 
2 18319 18320 
2 5860 5861 
1 5860 11289 
2 5852 5853 
2 6382 6383 
1 6382 13018 
2 13018 13019 
2 13019 13020 
2 5851 5852 
1 5851 13020 
2 11287 11288 
1 4020 11287 
2 2567 2568 
2 11288 11289 
2 5861 5862 
2 1505 1506 
1 15456 20670 
2 2284 2285 
1 2284 7851 
2 2285 2286 
2 1504 1505 
1 1504 18730 
2 18731 18732 
2 18730 18731 
1 2286 3687 
2 12226 12227 
1 12226 18732 
2 15532 15533 
3 1483 1484 
1 1483 6772 
2 3947 3948 
2 6772 6773 
2 6773 6774 
2 3946 3947 
1 3946 13146 
3 451 452 
1 451 5071 
3 17177 17178 
3 18286 18287 
1 17178 18286 
3 18287 18288 
3 5071 5072 
3 5072 5073 
3 17176 17177 
3 4615 4616 
3 4616 4617 
2 19670 19671 
1 2934 19671 
2 1774 1775 
1 1774 19669 
2 5260 5261 
1 5260 5340 
2 19669 19670 
2 17206 17207 
2 3904 3905 
1 3904 17206 
2 3905 3906 
2 5339 5340 
2 9322 9323 
2 5338 5339 
1 5338 9322 
2 12581 12582 
1 3906 21033 
2 4336 4337 
1 4336 12582 
2 21032 21033 
2 9310 9311 
1 2517 9310 
2 9497 9498 
2 2516 2517 
2 9496 9497 
2 2515 2516 
1 2515 9496 
1 8940 13932 
2 8939 8940 
2 13931 13932 
2 18988 18989 
2 18989 18990 
1 4338 9253 
2 4337 4338 
2 9455 9456 
2 9454 9455 
1 9138 9454 
2 9136 9137 
2 9137 9138 
2 15706 15707 
1 15706 19108 
2 19108 19109 
2 19109 19110 
2 4405 4406 
1 4405 9136 
2 19960 19961 
1 5853 19110 
2 16678 16679 
1 16678 19960 
2 15707 15708 
2 13930 13931 
1 13930 20116 
1 10473 13153 
2 13153 13154 
2 20116 20117 
2 9991 9992 
1 9991 13155 
2 13154 13155 
2 11863 11864 
2 11944 11945 
1 11944 12228 
2 11945 11946 
1 11946 16251 
2 12227 12228 
2 9992 9993 
1 4161 20337 
2 4160 4161 
2 4159 4160 
1 4159 18990 
2 15359 15360 
2 15358 15359 
1 6657 15358 
2 6656 6657 
2 18320 18321 
3 15470 15471 
2 4019 4020 
2 2566 2567 
1 2566 4404 
2 7261 7262 
2 19961 19962 
2 4403 4404 
2 4402 4403 
2 985 986 
1 985 4402 
2 4018 4019 
1 4018 19962 
2 7850 7851 
2 4702 4703 
1 4702 11863 
1 4668 15532 
2 4703 4704 
2 7849 7850 
1 4704 7849 
2 4556 4557 
2 4667 4668 
2 4666 4667 
1 4666 5833 
2 5833 5834 
2 5834 5835 
1 4557 20229 
2 5290 5291 
1 5290 7644 
2 20261 20262 
2 13145 13146 
1 5835 21535 
2 13144 13145 
2 6655 6656 
1 6655 13144 
2 4468 4469 
1 4468 20262 
2 4469 4470 
2 7642 7643 
2 7643 7644 
1 3606 15469 
2 3604 3605 
1 3604 5073 
2 3605 3606 
3 15469 15470 
2 19111 19112 
2 19112 19113 
2 4769 4770 
3 14047 14048 
3 14048 14049 
2 9913 9914 
1 9913 14049 
2 9914 9915 
2 7561 7562 
2 7562 7563 
2 5261 5262 
2 2930 2931 
2 2929 2930 
1 2929 5262 
2 5818 5819 
1 5818 16711 
2 1775 1776 
1 381 15232 
2 15232 15233 
2 380 381 
2 15233 15234 
2 16711 16712 
2 12580 12581 
1 12580 15501 
2 16712 16713 
2 21031 21032 
1 16713 21031 
2 15500 15501 
2 15499 15500 
1 15499 19369 
2 19369 19370 
2 4853 4854 
1 4854 19128 
2 4852 4853 
1 4407 4852 
1 1128 14491 
2 1127 1128 
2 8938 8939 
1 8938 10441 
2 10442 10443 
1 9993 18564 
1 9498 15234 
2 10441 10442 
1 4200 18562 
2 18562 18563 
2 18563 18564 
2 4199 4200 
2 433 434 
1 433 18988 
2 434 435 
1 12414 16420 
3 12413 12414 
2 16829 16830 
2 4406 4407 
1 14493 15708 
2 14492 14493 
1 8718 16680 
2 14491 14492 
2 8717 8718 
2 16679 16680 
2 17857 17858 
2 15370 15371 
1 15370 17857 
2 15371 15372 
2 8716 8717 
1 8716 16602 
2 11864 11865 
2 7414 7415 
1 7414 11865 
2 7415 7416 
1 1815 7416 
3 12412 12413 
1 12412 16249 
2 16250 16251 
2 16249 16250 
2 3259 3260 
1 3259 15360 
1 18105 21537 
3 18104 18105 
3 18103 18104 
2 3260 3261 
2 17893 17894 
1 17893 18103 
1 3261 16830 
1 12663 15471 
2 12662 12663 
2 12661 12662 
2 6178 6179 
1 6178 6492 
1 6321 7261 
2 986 987 
1 987 15372 
2 6320 6321 
2 12908 12909 
2 6319 6320 
1 6319 12909 
2 6179 6180 
1 6180 7299 
2 6491 6492 
2 3764 3765 
2 4555 4556 
1 4555 8181 
2 20411 20412 
2 8180 8181 
2 8179 8180 
1 8179 20412 
2 21535 21536 
2 21536 21537 
2 8314 8315 
1 8314 8685 
2 400 401 
1 400 9555 
2 8315 8316 
1 6618 8316 
3 8684 8685 
3 18277 18278 
3 18278 18279 
1 17586 18277 
1 18279 20496 
2 18551 18552 
2 19648 19649 
2 19649 19650 
2 4673 4674 
2 883 884 
1 883 2931 
2 5819 5820 
1 885 19650 
2 884 885 
2 20825 20826 
2 1678 1679 
1 1678 19315 
1 5820 20824 
2 19315 19316 
2 20824 20825 
2 19316 19317 
1 19317 19371 
2 379 380 
1 379 14281 
2 14281 14282 
2 14282 14283 
2 4672 4673 
1 4672 14283 
1 2772 19470 
2 2771 2772 
2 19370 19371 
2 19127 19128 
2 19126 19127 
2 5707 5708 
1 5707 19126 
2 5708 5709 
2 3515 3516 
1 3516 9045 
2 3514 3515 
2 1126 1127 
1 1126 3514 
2 15113 15114 
1 5709 20424 
2 15112 15113 
2 4198 4199 
2 2770 2771 
1 2770 4198 
2 12923 12924 
2 12922 12923 
2 1813 1814 
1 1813 12922 
2 1888 1889 
1 1888 12924 
2 16420 16421 
2 16421 16422 
1 4884 16422 
2 16828 16829 
1 15114 16600 
2 16600 16601 
2 16601 16602 
2 17096 17097 
2 9229 9230 
1 9229 17097 
2 9230 9231 
2 17858 17859 
2 3157 3158 
1 3157 17859 
2 3158 3159 
2 2005 2006 
1 2005 3159 
2 1814 1815 
2 2548 2549 
1 2548 2611 
2 2611 2612 
2 2612 2613 
2 2549 2550 
2 10924 10925 
2 8230 8231 
1 8230 10924 
1 2550 16656 
2 4883 4884 
2 17894 17895 
2 16943 16944 
2 16942 16943 
2 2374 2375 
1 2374 9546 
2 2375 2376 
1 2376 11718 
2 12907 12908 
2 12896 12897 
1 9231 12907 
2 12895 12896 
1 12895 16564 
2 16565 16566 
2 16564 16565 
2 7298 7299 
2 7297 7298 
1 7297 8232 
2 4136 4137 
2 4892 4893 
1 2613 20410 
2 20410 20411 
2 3763 3764 
2 8231 8232 
1 888 3763 
2 887 888 
2 886 887 
1 886 2926 
2 2926 2927 
2 2927 2928 
2 5569 5570 
1 5569 6933 
2 5570 5571 
1 5556 12903 
2 11717 11718 
2 6616 6617 
1 6616 16944 
3 9554 9555 
1 9693 21180 
2 6617 6618 
2 9692 9693 
2 9691 9692 
1 9691 12388 
3 9553 9554 
1 9553 11716 
2 11716 11717 
2 12388 12389 
3 17584 17585 
3 17585 17586 
3 8725 8726 
2 19421 19422 
2 19420 19421 
2 8294 8295 
1 8295 10737 
2 10736 10737 
2 10735 10736 
2 1382 1383 
2 1381 1382 
1 1381 18552 
1 16164 19648 
2 16162 16163 
1 16162 21252 
2 16163 16164 
2 21251 21252 
2 21250 21251 
2 1916 1917 
2 1336 1337 
1 1336 1917 
2 1915 1916 
1 1915 4674 
2 6293 6294 
2 6292 6293 
2 1679 1680 
2 11575 11576 
1 11575 20826 
2 10232 10233 
1 1680 12649 
2 11576 11577 
2 12649 12650 
1 10233 11577 
2 20606 20607 
2 12650 12651 
2 6475 6476 
1 6475 12651 
2 20605 20606 
2 20422 20423 
1 20422 20605 
2 20423 20424 
2 19469 19470 
2 19468 19469 
2 7567 7568 
1 7567 19468 
2 7568 7569 
1 7569 16695 
2 6853 6854 
1 6853 10050 
2 10049 10050 
1 603 15120 
2 28 29 
1 28 7935 
2 7934 7935 
2 7933 7934 
1 7933 15112 
2 29 30 
2 9044 9045 
2 9043 9044 
1 9043 10048 
2 10048 10049 
2 15119 15120 
2 1889 1890 
1 1890 15118 
2 9214 9215 
1 9214 14385 
2 15118 15119 
2 9215 9216 
1 2007 9216 
2 14120 14121 
2 14119 14120 
2 4247 4248 
1 4248 20784 
2 17095 17096 
1 2847 17095 
2 2846 2847 
2 2845 2846 
1 2845 3457 
2 3457 3458 
1 8337 10710 
2 3458 3459 
2 10709 10710 
2 263 264 
2 16654 16655 
1 14121 16654 
2 10925 10926 
2 2006 2007 
2 272 273 
1 273 10926 
2 271 272 
1 271 4551 
2 16655 16656 
2 223 224 
1 223 9492 
2 9491 9492 
2 224 225 
2 4882 4883 
2 871 872 
1 871 16942 
2 872 873 
2 9545 9546 
2 9544 9545 
2 725 726 
2 724 725 
2 8615 8616 
1 5766 16591 
2 16591 16592 
1 4893 10708 
2 10708 10709 
1 8586 16566 
2 5764 5765 
1 5764 10153 
2 4135 4136 
1 4135 4204 
2 4204 4205 
2 5765 5766 
1 4206 11146 
2 8584 8585 
2 8585 8586 
2 11146 11147 
1 264 8584 
2 4205 4206 
1 225 2928 
2 5116 5117 
1 5118 5571 
2 5117 5118 
2 2452 2453 
1 2452 5116 
1 3729 6909 
2 7945 7946 
2 12902 12903 
2 6908 6909 
1 726 12390 
2 12901 12902 
1 7947 12901 
2 7946 7947 
2 12389 12390 
2 6907 6908 
2 9211 9212 
1 9211 18274 
3 18274 18275 
2 8614 8615 
1 8614 9213 
2 9212 9213 
3 8227 8228 
3 8228 8229 
2 5491 5492 
1 5491 19362 
2 454 455 
1 454 10231 
2 455 456 
2 10231 10232 
1 8229 21250 
1 327 6477 
2 325 326 
2 326 327 
3 9710 9711 
1 456 9711 
2 6476 6477 
2 13297 13298 
2 19361 19362 
2 1337 1338 
1 1338 19360 
2 19360 19361 
2 13298 13299 
1 1305 16000 
2 16000 16001 
2 19619 19620 
1 1926 20607 
2 1924 1925 
1 1924 19620 
2 1925 1926 
2 16693 16694 
1 13299 16693 
2 16694 16695 
2 6854 6855 
2 17035 17036 
1 6855 17035 
2 17036 17037 
2 601 602 
1 601 18847 
2 18847 18848 
2 602 603 
3 10870 10871 
1 10870 18849 
2 16001 16002 
2 18848 18849 
2 5200 5201 
1 5200 14454 
2 13852 13853 
2 20783 20784 
2 20782 20783 
2 14452 14453 
1 14452 20782 
2 14453 14454 
1 30 5134 
1 5136 13852 
2 5135 5136 
2 5134 5135 
2 15391 15392 
2 15392 15393 
2 8360 8361 
2 1300 1301 
1 1300 19101 
2 8359 8360 
1 8359 15391 
2 14384 14385 
2 10145 10146 
2 10144 10145 
1 10144 14383 
2 14383 14384 
2 19100 19101 
2 5938 5939 
2 5939 5940 
1 9996 14119 
2 9995 9996 
2 9994 9995 
1 5940 9994 
2 613 614 
2 8336 8337 
1 3459 15393 
2 15649 15650 
1 15649 21051 
2 15650 15651 
2 8335 8336 
1 8335 15651 
2 262 263 
1 255 262 
2 17659 17660 
3 1346 1347 
2 254 255 
2 253 254 
1 253 1347 
2 16777 16778 
1 16777 17659 
2 4550 4551 
2 4549 4550 
1 4549 19099 
2 19099 19100 
2 16778 16779 
1 867 1246 
2 866 867 
2 865 866 
1 865 4569 
2 9490 9491 
1 615 9490 
2 614 615 
1 1623 19077 
2 10153 10154 
2 12164 12165 
2 12163 12164 
1 11148 12163 
1 11145 12165 