ITEM: TIMESTEP
50000000
ITEM: NUMBER OF ATOMS
3942
ITEM: BOX BOUNDS pp pp pp
0.0000000000000000e+00 5.0000000000000000e+01
0.0000000000000000e+00 5.0000000000000000e+01
0.0000000000000000e+00 5.0000000000000000e+01
ITEM: ATOMS id type xs ys zs
12571 1 0.0697014 0.0638152 0.00667528
12573 1 0.0761576 0.0771406 0.00292798
12572 2 0.0720926 0.0714024 0.00467666
4581 1 0.197651 0.07881 0.0098809
4580 2 0.203143 0.0735415 0.00654975
4579 1 0.20837 0.0692581 0.00304598
6219 1 0.0280618 0.179355 0.00432756
2571 1 0.0103979 0.179899 0.0035562
2570 3 0.00293736 0.175333 0.00352269
6218 3 0.0261917 0.172934 0.000621249
7533 1 0.0254362 0.222838 0.0106328
7532 3 0.0288358 0.220626 0.00404877
14157 1 0.275612 0.269083 0.0207684
14156 3 0.277269 0.274385 0.0150479
15024 1 0.275625 0.267391 0.0230131
15023 3 0.275778 0.262589 0.0297086
10239 1 0.314274 0.264871 0.0293706
10238 2 0.312539 0.271318 0.0262695
5560 1 0.259685 0.28507 0.0192907
6957 1 0.255945 0.297678 0.0268931
5561 3 0.258396 0.279817 0.0263264
14155 1 0.27794 0.279536 0.00988386
10237 1 0.308805 0.27883 0.023498
3475 1 0.0322121 0.366028 0.0280378
3477 1 0.0404347 0.374137 0.0173995
3476 2 0.0357489 0.371123 0.0234657
8619 1 0.033445 0.524979 0.0194582
8617 1 0.0420692 0.530014 0.0076322
8618 3 0.0378001 0.528056 0.0143497
12845 2 0.246711 0.636557 0.0288638
12844 1 0.243507 0.63889 0.0224132
1995 1 0.00616687 0.00341818 0.0324688
722 2 0.316573 0.0391055 0.053079
723 1 0.31503 0.0324644 0.0505164
721 1 0.31785 0.0472699 0.052184
20420 3 0.205671 0.141705 0.0457841
20421 1 0.197405 0.141314 0.04347
20419 1 0.213442 0.144024 0.0463867
15022 1 0.277627 0.25817 0.0363389
6956 3 0.262184 0.299781 0.030353
6955 1 0.268846 0.299386 0.0332717
5562 1 0.258913 0.275733 0.0310739
20481 1 0.316291 0.468428 0.05752
13197 1 0.00154705 0.591417 0.0425321
13195 1 0.0156632 0.59905 0.0351678
13196 2 0.0076078 0.595742 0.0379756
8362 1 0.0411768 0.626749 0.0597451
12846 1 0.249002 0.63574 0.0371412
17676 1 0.0926623 0.0612766 0.0666619
17675 3 0.0971494 0.0668272 0.0636323
17674 1 0.102193 0.0732983 0.060684
1257 1 0.164707 0.111605 0.0876958
3103 1 0.302608 0.115056 0.0798094
3104 2 0.301371 0.115279 0.0884442
18889 1 0.028463 0.216862 0.0607714
18891 1 0.0413541 0.223333 0.0690421
18890 3 0.0354119 0.219959 0.064681
19714 1 0.118174 0.224158 0.0738943
19716 1 0.111609 0.239315 0.078082
19715 2 0.115754 0.231617 0.0763319
20479 1 0.327206 0.46341 0.0691303
20480 2 0.321414 0.466128 0.062724
18996 1 0.150721 0.500217 0.0859126
16552 1 0.150618 0.501758 0.0835336
16554 1 0.148151 0.508961 0.0702818
16553 2 0.149735 0.506045 0.0771916
8363 2 0.0464236 0.631568 0.0622803
8364 1 0.050168 0.638557 0.0644956
3577 1 0.32868 0.618991 0.0857067
16469 3 0.264749 0.646509 0.0645865
16468 1 0.270365 0.641382 0.0609935
9912 1 0.251002 0.668644 0.0717922
9911 2 0.255809 0.663028 0.0697331
16470 1 0.260754 0.654004 0.0669355
9910 1 0.259445 0.656877 0.0672712
5607 1 0.168005 0.00492035 0.115208
5606 2 0.163875 0.00849156 0.120673
1256 2 0.161059 0.110884 0.0955488
1255 1 0.159891 0.112386 0.103076
765 1 0.203963 0.0961749 0.0948057
764 3 0.21221 0.0933737 0.0945745
763 1 0.218734 0.0926721 0.0914885
3105 1 0.300194 0.115624 0.0969671
7663 1 0.0722927 0.161656 0.11026
7664 2 0.068414 0.16188 0.11679
3173 3 0.247469 0.242472 0.115212
3174 1 0.249046 0.24797 0.109236
6711 1 0.115313 0.513009 0.110148
6710 3 0.112511 0.516749 0.104534
18995 3 0.150816 0.496853 0.0939337
18994 1 0.152653 0.492664 0.102099
6709 1 0.112149 0.522003 0.0991513
3578 3 0.334258 0.618242 0.0921659
5605 1 0.160438 0.0101574 0.127105
16296 1 0.191308 0.133262 0.144083
7665 1 0.0640123 0.163205 0.123216
3172 1 0.247319 0.237374 0.121424
14522 2 0.00442568 0.60059 0.147924
14521 1 0.00795475 0.603631 0.140377
11176 1 0.154554 0.618898 0.148936
11177 2 0.158095 0.623813 0.144718
11178 1 0.162393 0.630433 0.141614
12054 1 0.1436 0.669846 0.145011
12052 1 0.137935 0.656748 0.13946
12053 3 0.140621 0.663045 0.142727
12087 1 0.0470548 0.0869912 0.172005
12086 2 0.0479195 0.0900185 0.17969
16295 2 0.192066 0.133554 0.152114
16294 1 0.191816 0.133015 0.159828
11762 2 0.0564201 0.292666 0.166464
11763 1 0.0469042 0.293367 0.165749
11761 1 0.0647626 0.291552 0.167971
6775 1 0.281993 0.317188 0.158371
6777 1 0.275807 0.330758 0.155919
6776 2 0.279695 0.324105 0.158208
4356 1 0.182129 0.34291 0.160059
4355 2 0.174187 0.347486 0.159211
4354 1 0.168561 0.353061 0.160374
9383 2 0.0167225 0.378659 0.15593
9382 1 0.0241098 0.379252 0.15294
9384 1 0.00966395 0.378911 0.160403
20976 1 0.100998 0.425573 0.173822
11615 3 0.116127 0.55961 0.166837
11616 1 0.110346 0.564663 0.167275
11614 1 0.122028 0.553974 0.164838
14523 1 0.000635942 0.598917 0.154049
8101 1 0.0690195 0.755208 0.174028
10371 1 0.0297663 0.0101165 0.206856
10369 1 0.0224336 0.0249266 0.205778
10370 2 0.0260325 0.0173364 0.206807
18217 1 0.0310784 0.00682218 0.20676
1747 1 0.0667288 0.0598439 0.208062
12085 1 0.050223 0.0912638 0.18757
13489 1 0.0505303 0.0914372 0.190321
1748 3 0.0699529 0.0680899 0.207947
7577 3 0.0746206 0.0876625 0.204729
7576 1 0.0727084 0.0791649 0.206859
1749 1 0.0721477 0.0764311 0.207257
20770 1 0.00699673 0.106089 0.203676
20771 3 0.000201523 0.106328 0.207967
13490 3 0.0518968 0.0917578 0.198697
16882 1 0.0533589 0.0936537 0.208501
13491 1 0.0526408 0.0933445 0.205885
7578 1 0.0768553 0.094009 0.201348
12985 1 0.0780981 0.0967031 0.200289
12986 2 0.0816291 0.103015 0.196981
4458 1 0.0846909 0.113339 0.191952
12987 1 0.0846255 0.110867 0.193469
4457 2 0.0837674 0.12126 0.187576
20002 1 0.303086 0.111303 0.200418
20003 2 0.296203 0.108466 0.202701
20004 1 0.289719 0.106265 0.206147
11340 1 0.306227 0.112295 0.200417
11338 1 0.320031 0.116658 0.197322
11339 3 0.313798 0.114501 0.199545
4456 1 0.0832169 0.127959 0.183839
2783 3 0.261157 0.128924 0.210344
2784 1 0.262397 0.12263 0.203913
21034 1 0.315633 0.229167 0.185357
21036 1 0.3127 0.230627 0.201257
21035 2 0.313936 0.22909 0.193504
1027 1 0.327162 0.302869 0.206045
1028 2 0.331102 0.296521 0.204838
15967 1 0.3172 0.317565 0.208003
15969 1 0.325549 0.305214 0.206589
15968 3 0.320671 0.310444 0.207983
15184 1 0.0373845 0.408932 0.208847
20975 3 0.105337 0.426624 0.18141
13371 1 0.227598 0.399155 0.205961
17826 1 0.233492 0.414086 0.194968
13369 1 0.232963 0.411554 0.196084
13370 3 0.231149 0.405424 0.199895
17825 2 0.234439 0.420995 0.190569
20974 1 0.109393 0.428737 0.187987
17824 1 0.236143 0.428294 0.18585
19565 2 0.0704692 0.488097 0.188143
19566 1 0.0687978 0.484939 0.195832
9133 1 0.0278563 0.494766 0.196775
9135 1 0.0152934 0.500176 0.19035
9134 3 0.0207083 0.497829 0.1949
19564 1 0.0719404 0.492763 0.181947
1063 1 0.193095 0.565595 0.20411
1065 1 0.207402 0.574209 0.207246
1064 2 0.200022 0.570331 0.20507
11500 1 0.23252 0.646919 0.194561
19682 3 0.218622 0.66706 0.204915
11502 1 0.222159 0.658338 0.199816
19681 1 0.220948 0.660314 0.201337
11501 2 0.227476 0.652786 0.196958
13819 1 0.283236 0.663409 0.199269
2498 3 0.302602 0.653141 0.187475
2499 1 0.296937 0.656173 0.190614
13821 1 0.294817 0.65725 0.191917
13820 3 0.289058 0.660073 0.196183
2497 1 0.307632 0.648457 0.183977
599 3 0.0574015 0.683228 0.211056
598 1 0.0637517 0.682433 0.206529
19683 1 0.215922 0.673332 0.209486
8103 1 0.0726009 0.75246 0.189374
8102 3 0.070647 0.753267 0.182548
21283 1 0.112169 0.0587434 0.216072
21284 3 0.118089 0.0572694 0.221176
21285 1 0.125322 0.0576709 0.225069
16883 2 0.0558737 0.0937903 0.216956
16884 1 0.0575766 0.0958449 0.223767
2782 1 0.259746 0.136188 0.214797
5716 1 0.303709 0.126038 0.213398
5718 1 0.302337 0.127429 0.228566
5717 2 0.302684 0.126644 0.221205
81 1 0.301827 0.127531 0.231341
80 3 0.301591 0.126652 0.240118
14965 1 0.190065 0.273618 0.228594
14966 2 0.187253 0.271755 0.235356
3651 1 0.252745 0.273021 0.224451
3649 1 0.249936 0.287951 0.218026
3650 2 0.251402 0.280888 0.221442
15186 1 0.0297473 0.40292 0.221872
15185 2 0.0334479 0.405557 0.214629
9094 1 0.00869205 0.568151 0.227528
9095 2 0.0134529 0.573117 0.224387
9096 1 0.0189679 0.578724 0.222826
19139 3 0.0902227 0.616673 0.235239
19140 1 0.0831808 0.611933 0.235734
19138 1 0.0967502 0.620238 0.233435
600 1 0.0504584 0.683548 0.21597
9583 1 0.0748215 0.0534574 0.267863
9584 3 0.0718103 0.060568 0.267626
9585 1 0.0691651 0.0684234 0.267208
1066 1 0.0190894 0.0965535 0.263129
1067 3 0.0134355 0.102908 0.26095
19387 1 0.00709641 0.113078 0.260279
1068 1 0.00821156 0.110309 0.260768
19388 2 0.00672757 0.121258 0.258468
19389 1 0.00339119 0.128104 0.259634
8745 1 0.00207899 0.13051 0.260262
79 1 0.301325 0.13023 0.248519
7272 1 0.301648 0.131107 0.251113
7271 2 0.304786 0.133706 0.2586
7270 1 0.309282 0.137116 0.264288
19386 1 0.196261 0.171553 0.252373
19385 2 0.199774 0.17829 0.254173
19384 1 0.204542 0.183624 0.255555
19807 1 0.191443 0.268671 0.26373
14967 1 0.18784 0.269814 0.243871
19808 3 0.188617 0.268773 0.254814
19809 1 0.187761 0.269399 0.247071
21263 2 0.119827 0.437541 0.254394
21262 1 0.114373 0.431754 0.255904
21264 1 0.124748 0.442685 0.255163
12328 1 0.228 0.454565 0.266512
12330 1 0.229005 0.43838 0.271098
12329 3 0.227506 0.445885 0.26852
4277 3 0.0688814 0.481464 0.249772
4278 1 0.0700346 0.484431 0.243104
6977 3 0.0678458 0.473456 0.268287
6978 1 0.0687823 0.476933 0.259882
4276 1 0.0689992 0.478015 0.257172
9318 1 0.150241 0.483926 0.256626
9317 2 0.157352 0.484414 0.255653
9316 1 0.165083 0.484575 0.254804
15109 1 0.118589 0.511536 0.250229
15110 3 0.121639 0.518199 0.253577
17217 1 0.156236 0.502037 0.267049
9140 2 0.303138 0.51429 0.265402
9139 1 0.29575 0.510653 0.266269
9141 1 0.310296 0.514453 0.264155
15111 1 0.122775 0.524395 0.258677
15668 3 0.247343 0.528019 0.267262
15667 1 0.251462 0.532701 0.262101
11142 1 0.0155721 0.594896 0.254232
11140 1 0.00984333 0.581248 0.258732
11141 2 0.0128891 0.587339 0.255852
21511 1 0.2081 0.148859 0.289599
21512 2 0.205221 0.150507 0.296271
12081 1 0.301153 0.165434 0.275042
12080 2 0.302031 0.162316 0.282043
12079 1 0.302204 0.156635 0.287523
6514 1 0.0670768 0.464611 0.295035
6515 2 0.067197 0.467328 0.287161
6976 1 0.0682816 0.470246 0.275826
6516 1 0.0683703 0.469206 0.279141
17216 2 0.155499 0.496041 0.272038
17215 1 0.15257 0.488614 0.276018
20941 1 0.0587826 0.529103 0.288421
20943 1 0.0682198 0.530808 0.275315
20942 2 0.0639023 0.531256 0.281618
15669 1 0.24427 0.523763 0.272782
17309 3 0.0168913 0.0277017 0.322224
17310 1 0.0139251 0.0201639 0.320437
17308 1 0.0177689 0.0348278 0.325036
8344 1 0.333039 0.0527959 0.332104
11756 2 0.0428453 0.149765 0.32807
11755 1 0.040232 0.143671 0.323489
21513 1 0.20195 0.151267 0.302957
2324 3 0.0846474 0.180021 0.330743
2323 1 0.0888619 0.181328 0.324659
2637 1 0.258405 0.254432 0.314878
2636 2 0.265116 0.25794 0.319755
2635 1 0.271943 0.259476 0.32366
403 1 0.146049 0.311866 0.327729
20153 2 0.112334 0.443513 0.327314
20152 1 0.116218 0.448417 0.322495
19948 1 0.271216 0.48106 0.306479
19950 1 0.279152 0.471465 0.316072
19949 2 0.276102 0.476684 0.311632
4260 1 0.28531 0.487244 0.324416
13085 3 0.312379 0.460376 0.314771
13086 1 0.309229 0.459568 0.322154
13084 1 0.315924 0.459806 0.307239
4259 2 0.283512 0.493805 0.329023
3594 1 0.236888 0.0246413 0.360159
4651 1 0.152649 0.031293 0.354281
11901 1 0.0735132 0.101428 0.358751
19953 1 0.0128353 0.136742 0.346074
19951 1 0.00946787 0.150705 0.340323
19952 3 0.0104751 0.14393 0.343591
11757 1 0.0477307 0.154427 0.332613
2325 1 0.0829229 0.178696 0.33849
20613 1 0.27628 0.175994 0.360326
11566 1 0.197167 0.207439 0.355181
11567 3 0.198792 0.214615 0.356446
11568 1 0.198602 0.221048 0.359614
404 3 0.151828 0.309269 0.334303
405 1 0.155212 0.305497 0.34024
15879 1 0.332976 0.391417 0.339539
481 1 0.152259 0.424483 0.341454
15821 2 0.317812 0.423654 0.34209
15822 1 0.319964 0.416763 0.347298
9085 1 0.331375 0.416662 0.338038
20154 1 0.108757 0.43767 0.33233
12276 1 0.15176 0.455274 0.355831
12275 3 0.153899 0.448808 0.351928
482 3 0.152591 0.432385 0.344398
483 1 0.153869 0.439705 0.347105
12274 1 0.153923 0.441815 0.347823
15820 1 0.317886 0.429468 0.337106
17454 1 0.230192 0.478043 0.355347
17355 1 0.246207 0.476808 0.347603
17354 3 0.247378 0.469173 0.347954
17353 1 0.248024 0.46087 0.348713
17077 1 0.329943 0.477214 0.348476
4258 1 0.282138 0.500312 0.333284
10863 1 0.0802871 0.619904 0.337161
10862 2 0.0809276 0.627655 0.336362
10861 1 0.0811818 0.636255 0.334335
8308 1 0.494169 0.00560634 0.00392765
8309 2 0.495519 0.00138638 0.00985884
20430 1 0.356245 0.0896376 0.0189841
20429 2 0.361093 0.0830393 0.0222408
20428 1 0.365782 0.0773262 0.0238265
18615 1 0.446388 0.0878127 0.0075051
18613 1 0.433306 0.0798717 0.00239899
18614 3 0.439906 0.0840111 0.00486323
10271 2 0.460571 0.482848 0.00732344
10270 1 0.466939 0.477885 0.00998122
10272 1 0.454822 0.488994 0.00509549
18769 1 0.498791 0.678139 0.00629402
8454 1 0.481539 0.737991 0.0160009
8453 2 0.480045 0.743236 0.0208494
8452 1 0.47851 0.74967 0.0257346
13947 1 0.415159 0.0424833 0.0386213
13946 3 0.422953 0.0435569 0.0377056
13945 1 0.429868 0.0475068 0.0369345
9783 1 0.412187 0.0907733 0.0328082
9782 2 0.409835 0.0855576 0.0382096
9781 1 0.406725 0.081524 0.044749
7080 1 0.49077 0.679228 0.0506195
7079 2 0.495049 0.679654 0.0447206
7078 1 0.496288 0.677918 0.036864
3360 1 0.473726 0.72956 0.0446286
3359 2 0.471616 0.731419 0.0374323
3358 1 0.469065 0.735144 0.0307724
15865 1 0.393176 0.271386 0.0749207
15867 1 0.389124 0.285041 0.0668699
15866 3 0.390974 0.278562 0.0711594
14063 2 0.48149 0.491822 0.0701223
14062 1 0.474346 0.489638 0.0729831
14064 1 0.488513 0.495073 0.0675504
10532 2 0.341332 0.196612 0.100793
10531 1 0.344026 0.197486 0.0937245
10533 1 0.3401 0.195913 0.108431
3879 1 0.363346 0.241545 0.106872
3877 1 0.371186 0.234469 0.0941308
3878 3 0.366858 0.238051 0.101041
7273 1 0.470722 0.216134 0.117463
3960 1 0.411089 0.343245 0.115258
11173 1 0.393352 0.508301 0.0987587
11174 2 0.394256 0.516542 0.102248
15779 3 0.38943 0.53152 0.115578
15778 1 0.391289 0.525703 0.110105
11175 1 0.39183 0.52353 0.108052
3579 1 0.342338 0.616798 0.096069
12406 1 0.345231 0.616319 0.0981833
12407 2 0.352021 0.616502 0.103302
12408 1 0.357681 0.615337 0.109927
15736 1 0.409923 0.659057 0.110196
15737 3 0.403372 0.658356 0.1055
15738 1 0.396117 0.655962 0.102875
12089 2 0.422001 0.698634 0.119729
12090 1 0.417394 0.700133 0.11351
5239 1 0.423626 0.0558237 0.145496
14034 1 0.420989 0.0560486 0.147689
5240 3 0.429842 0.0562875 0.141761
5241 1 0.435084 0.0552618 0.135561
16022 3 0.337636 0.118597 0.145359
16021 1 0.340565 0.111233 0.144063
16023 1 0.334997 0.125535 0.144413
12348 1 0.344818 0.176386 0.139422
12347 3 0.350551 0.181135 0.142933
9111 1 0.357942 0.186805 0.149532
12346 1 0.355963 0.18479 0.147945
7274 3 0.475127 0.216668 0.12419
7275 1 0.478788 0.21698 0.131122
15515 3 0.403203 0.310819 0.14658
15514 1 0.403112 0.310322 0.138768
3959 2 0.409142 0.347156 0.122018
3958 1 0.407095 0.353064 0.128598
17515 1 0.355586 0.506852 0.144386
17517 1 0.340803 0.506196 0.14721
17516 3 0.347627 0.506753 0.145047
18395 3 0.384532 0.542931 0.127938
15780 1 0.387892 0.537296 0.120816
18396 1 0.386937 0.538957 0.122695
18394 1 0.380755 0.546175 0.134186
3580 1 0.356462 0.613726 0.133541
3581 2 0.36422 0.613824 0.137201
3582 1 0.372143 0.613528 0.140031
12088 1 0.426172 0.69623 0.126065
14032 1 0.409708 0.0592123 0.158076
14033 2 0.415196 0.0579706 0.152477
9110 3 0.362101 0.191308 0.154477
6754 1 0.380902 0.208842 0.167813
21504 1 0.378587 0.207393 0.167099
21503 2 0.372952 0.203575 0.16358
21502 1 0.367401 0.198994 0.159691
9109 1 0.366079 0.196859 0.158541
6755 3 0.386685 0.213062 0.172359
7793 2 0.344514 0.214755 0.17994
7792 1 0.347679 0.217739 0.173896
6756 1 0.392595 0.218219 0.175624
15516 1 0.402968 0.310487 0.154349
1442 2 0.484106 0.601579 0.177837
1441 1 0.490134 0.603019 0.173045
1735 1 0.423435 0.715098 0.166897
1737 1 0.431744 0.717775 0.154422
1736 3 0.427529 0.716363 0.159814
7794 1 0.340366 0.211777 0.185538
1029 1 0.335383 0.288169 0.204202
967 1 0.417611 0.578251 0.200362
968 2 0.410974 0.581242 0.204189
969 1 0.404649 0.583814 0.207502
1443 1 0.477855 0.601084 0.182262
14679 1 0.485861 0.20534 0.239042
14678 3 0.490562 0.210397 0.235113
14677 1 0.493618 0.215699 0.230921
10824 1 0.495081 0.217388 0.22918
10822 1 0.500532 0.228668 0.22001
10823 3 0.498183 0.222552 0.224857
4048 1 0.42553 0.27181 0.227897
4049 2 0.428536 0.278026 0.223673
4050 1 0.432624 0.28364 0.218281
12356 2 0.403416 0.357059 0.220067
12355 1 0.397593 0.358264 0.214082
12357 1 0.408986 0.356521 0.225994
7687 1 0.491692 0.402479 0.231144
4339 1 0.493121 0.403122 0.228684
4340 2 0.497268 0.405265 0.221022
4341 1 0.503072 0.407227 0.216534
7688 3 0.487376 0.402554 0.236936
2580 1 0.511691 0.280603 0.242608
6988 1 0.463056 0.323559 0.269035
6989 2 0.463426 0.325942 0.261279
6990 1 0.466197 0.326271 0.253607
10599 1 0.352005 0.379842 0.265817
10597 1 0.340743 0.370498 0.267077
10598 2 0.345272 0.375539 0.266871
7689 1 0.482863 0.402892 0.243386
11911 1 0.386806 0.511454 0.270231
11912 2 0.393451 0.509538 0.26531
11913 1 0.397853 0.507334 0.259922
14901 1 0.362256 0.549649 0.264457
14900 2 0.368857 0.553736 0.262009
14899 1 0.37495 0.557663 0.259553
15799 1 0.464539 0.685578 0.268752
15801 1 0.460318 0.675724 0.257081
15800 2 0.46187 0.680601 0.262465
7975 1 0.50376 0.0551112 0.300911
4113 1 0.362098 0.115235 0.294077
4112 2 0.368592 0.114234 0.289286
4111 1 0.374793 0.116046 0.285196
9146 3 0.421315 0.168417 0.292833
19532 2 0.403896 0.161477 0.297214
19531 1 0.411269 0.164081 0.295767
9147 1 0.414186 0.164818 0.294833
19533 1 0.397111 0.158651 0.29537
9145 1 0.429133 0.169924 0.290364
8345 3 0.337665 0.0580765 0.32688
8346 1 0.342148 0.0608669 0.321887
7976 2 0.500582 0.0605835 0.303145
7977 1 0.495867 0.0673298 0.302731
20915 2 0.347987 0.243743 0.304476
20916 1 0.340326 0.241076 0.303381
20914 1 0.355489 0.246925 0.306909
15948 1 0.387223 0.255411 0.328142
3334 1 0.363008 0.517325 0.306424
3336 1 0.378792 0.518749 0.308124
3335 3 0.371087 0.518198 0.30668
9619 1 0.382332 0.519341 0.30843
9620 2 0.390054 0.519986 0.310537
9621 1 0.398552 0.521318 0.3122
16384 1 0.41178 0.548642 0.31048
8583 1 0.36214 0.578567 0.32013
16386 1 0.410391 0.553952 0.327075
16385 3 0.412132 0.55096 0.319652
8582 2 0.364927 0.58124 0.327514
6079 1 0.438029 0.00765562 0.359911
1156 1 0.382133 0.0855143 0.360125
1462 1 0.372965 0.0810932 0.332646
1463 2 0.376503 0.0867232 0.337982
1157 2 0.390231 0.088387 0.361025
16524 1 0.380034 0.106647 0.349683
1464 1 0.37786 0.0933595 0.343302
16523 2 0.384548 0.112834 0.352865
16522 1 0.388586 0.120221 0.354938
5797 1 0.36936 0.148612 0.358793
2018 2 0.387175 0.243541 0.352388
2017 1 0.389953 0.239636 0.358642
15947 2 0.384806 0.251052 0.334835
15946 1 0.384472 0.248798 0.342894
2019 1 0.385323 0.24721 0.346102
15877 1 0.347555 0.391665 0.333057
15878 3 0.33974 0.391029 0.337051
9086 3 0.337767 0.414026 0.336123
9087 1 0.344498 0.412172 0.335995
17079 1 0.339518 0.469151 0.338069
17078 2 0.334838 0.472875 0.343577
8581 1 0.36789 0.581791 0.335241
19824 1 0.407864 0.588376 0.355588
19823 2 0.415319 0.590119 0.352005
19822 1 0.423418 0.590063 0.349716
13816 1 0.216197 0.0100274 0.387608
3592 1 0.229489 0.0160306 0.37284
3593 2 0.233952 0.0193141 0.366681
13818 1 0.22744 0.0146017 0.375463
13817 3 0.222237 0.0122808 0.381643
8818 1 0.299648 0.0174334 0.379615
8820 1 0.307968 0.0260793 0.393349
8819 3 0.304114 0.0227429 0.385184
6080 3 0.434439 0.00367842 0.366046
17732 2 0.141138 0.042225 0.376836
17733 1 0.135145 0.0449328 0.381087
4653 1 0.147446 0.0368441 0.369536
17731 1 0.145957 0.0378481 0.371405
4652 3 0.150491 0.0340819 0.362704
9625 1 0.208132 0.0495271 0.382656
18918 1 0.226235 0.0495975 0.377158
9627 1 0.223457 0.0494058 0.378588
18917 3 0.234404 0.049562 0.375768
9626 2 0.215088 0.0485631 0.380057
18916 1 0.242993 0.0507526 0.375338
11899 1 0.0720563 0.0868284 0.365561
1158 1 0.397674 0.0909726 0.36292
11900 2 0.0727684 0.0938479 0.363715
1763 2 0.197761 0.12987 0.393272
1764 1 0.203937 0.134375 0.389513
5798 2 0.372863 0.151016 0.365949
20611 1 0.272022 0.162962 0.370002
20612 2 0.274057 0.170216 0.36629
5633 3 0.376075 0.155889 0.383653
5634 1 0.375791 0.157246 0.390939
5799 1 0.375054 0.153904 0.373315
5632 1 0.375868 0.154281 0.376112
5058 1 0.482748 0.192106 0.385646
5056 1 0.492045 0.203224 0.39273
4993 1 0.494761 0.205804 0.393479
4994 3 0.500381 0.210839 0.394813
5057 3 0.486515 0.197977 0.390621
7440 1 0.507589 0.21922 0.393042
7439 2 0.513807 0.224825 0.390976
4995 1 0.505432 0.217439 0.39391
18134 2 0.404299 0.292121 0.38777
18135 1 0.406488 0.292821 0.39496
18133 1 0.400581 0.29351 0.38067
16398 1 0.378933 0.391453 0.36541
16396 1 0.366437 0.39618 0.374812
16397 2 0.372854 0.393771 0.369876
2821 1 0.34993 0.4383 0.385831
2822 3 0.354621 0.443834 0.383617
2823 1 0.359279 0.448248 0.380735
17453 2 0.230299 0.480767 0.362927
17452 1 0.231613 0.483699 0.370007
20486 2 0.0739835 0.533168 0.388176
20485 1 0.0744972 0.537176 0.394456
20487 1 0.0724321 0.530037 0.380661
11483 3 0.290276 0.576226 0.389655
11482 1 0.288723 0.572237 0.383179
12333 1 0.184961 0.588941 0.390838
17204 2 0.299507 0.591165 0.370638
17203 1 0.292242 0.5952 0.370769
17205 1 0.307975 0.588279 0.370616
18686 3 0.352772 0.609501 0.392124
18685 1 0.346725 0.607443 0.387749
18687 1 0.358967 0.612282 0.394817
17791 1 0.173841 0.676983 0.388325
17792 2 0.170856 0.673137 0.394722
14819 2 0.387669 0.674587 0.392353
14820 1 0.385838 0.672197 0.38412
18666 1 0.512345 0.674494 0.372174
16503 1 0.511719 0.7336 0.393317
19347 1 0.145883 0.0364146 0.40553
19346 3 0.152709 0.0404143 0.404027
19345 1 0.159164 0.0439281 0.403099
7534 1 0.161744 0.0452006 0.402289
7535 2 0.168406 0.0487903 0.399999
7536 1 0.176302 0.0508913 0.400176
20318 2 0.422003 0.0410896 0.419012
20317 1 0.4161 0.0420278 0.412834
10990 1 0.430195 0.0422729 0.426019
20319 1 0.42827 0.0420911 0.424114
11799 1 0.0456853 0.0695274 0.421769
11798 2 0.050976 0.0650101 0.425614
12160 1 0.067593 0.119556 0.417002
17182 1 0.24592 0.114269 0.406637
580 1 0.0480535 0.127299 0.409763
582 1 0.0600661 0.134965 0.400852
581 2 0.0540553 0.132181 0.405072
12161 3 0.0663405 0.123542 0.423261
4174 1 0.171514 0.151591 0.42533
1762 1 0.190531 0.127559 0.395424
1562 2 0.22031 0.146767 0.40239
1563 1 0.214749 0.140979 0.406002
1561 1 0.223777 0.150627 0.398377
17184 1 0.244023 0.129986 0.407055
17183 2 0.245258 0.122415 0.406619
4175 2 0.176249 0.156026 0.420861
4176 1 0.182014 0.161586 0.416885
19307 3 0.177477 0.258916 0.40476
19306 1 0.172187 0.254497 0.400722
19308 1 0.18413 0.26217 0.407734
4381 1 0.0946281 0.304071 0.401104
9341 3 0.190302 0.293706 0.409258
9342 1 0.193937 0.294927 0.416768
9340 1 0.18871 0.293979 0.401026
4383 1 0.0923793 0.316766 0.411478
4382 3 0.0934865 0.310242 0.405854
18478 1 0.445255 0.476965 0.425056
5663 3 0.512481 0.499853 0.414649
21244 1 0.500907 0.500594 0.412998
5664 1 0.503961 0.500369 0.413221
21245 3 0.492817 0.501496 0.413121
21246 1 0.485008 0.500321 0.415414
11484 1 0.294292 0.579673 0.395468
12332 3 0.188515 0.594764 0.395324
19454 3 0.198642 0.609356 0.403487
12331 1 0.192325 0.601328 0.399758
19455 1 0.194046 0.60373 0.400929
13949 3 0.422082 0.601343 0.400389
13948 1 0.415609 0.597903 0.401123
13950 1 0.428867 0.604547 0.401273
19453 1 0.204487 0.614422 0.406302
8958 1 0.229313 0.614915 0.397726
8956 1 0.232855 0.630261 0.396659
8957 2 0.230935 0.623286 0.398013
17793 1 0.169943 0.669824 0.400884
14818 1 0.389867 0.67824 0.398962
12700 1 0.391029 0.679753 0.40115
12701 3 0.392472 0.68285 0.406122
12702 1 0.395462 0.687341 0.411926
21090 1 0.488061 0.725733 0.425031
20690 3 0.103898 0.754644 0.424759
20689 1 0.103302 0.748881 0.419607
9327 1 0.491325 0.746487 0.418753
9326 2 0.495029 0.745429 0.410731
16501 1 0.501239 0.741716 0.403017
9325 1 0.499584 0.742924 0.405274
16502 3 0.506042 0.73707 0.397834
1042 1 0.0556995 0.0224567 0.437059
19815 1 0.0580468 0.0201915 0.436275
1043 3 0.0496724 0.0274135 0.439325
19813 1 0.0695157 0.0106634 0.436368
19814 2 0.0637492 0.0153283 0.435915
10361 3 0.328377 0.0033243 0.435932
10360 1 0.331827 0.0095557 0.430931
1044 1 0.0428565 0.033604 0.440485
11797 1 0.0562069 0.0604866 0.431537
10991 3 0.436038 0.0428079 0.432248
10992 1 0.443676 0.0451743 0.43466
693 1 0.0517411 0.0838607 0.433336
692 3 0.0568986 0.0852972 0.437857
691 1 0.0636008 0.0873267 0.441759
11915 3 0.180681 0.0846324 0.45924
18241 1 0.199646 0.0781288 0.442766
18242 2 0.195409 0.081804 0.44778
11914 1 0.187706 0.0835813 0.454917
18243 1 0.189936 0.0828143 0.453126
12162 1 0.0679604 0.127906 0.430632
19651 1 0.129215 0.136008 0.459521
19707 1 0.321411 0.145616 0.436033
19706 3 0.327517 0.14831 0.432602
19705 1 0.333951 0.151892 0.428825
6524 3 0.484515 0.148784 0.44202
6523 1 0.489245 0.142847 0.440563
6525 1 0.478863 0.154561 0.441505
14115 1 0.514342 0.401295 0.445779
17044 1 0.284584 0.444227 0.456407
17045 3 0.276729 0.442316 0.458972
4661 2 0.242574 0.484303 0.459515
18480 1 0.435559 0.466001 0.431655
18479 2 0.440759 0.471407 0.428344
4660 1 0.238369 0.48833 0.45625
2332 1 0.304876 0.577168 0.453773
2334 1 0.305412 0.588565 0.442416
2333 2 0.304915 0.582187 0.447659
20902 1 0.454511 0.627871 0.447553
20903 3 0.458053 0.634958 0.442951
20904 1 0.460804 0.641805 0.438167
21089 3 0.48774 0.731041 0.431193
20691 1 0.102876 0.761894 0.428819
18511 1 0.487585 0.737235 0.439522
21088 1 0.488116 0.735746 0.437221
6256 1 0.486747 0.745496 0.45549
18513 1 0.486343 0.74416 0.45336
18512 2 0.485431 0.741229 0.445779
11916 1 0.174686 0.0851983 0.463956
19284 1 0.198737 0.0705203 0.492433
19283 2 0.20696 0.0724996 0.492952
19282 1 0.21504 0.073879 0.492975
17430 1 0.00602073 0.091817 0.480373
21374 2 0.0533757 0.117009 0.491994
21375 1 0.0480764 0.123513 0.489178
19653 1 0.12361 0.122658 0.462884
19652 3 0.124982 0.129984 0.461401
18270 1 0.391275 0.147226 0.476091
19519 1 0.391595 0.149442 0.473912
18269 3 0.391029 0.14151 0.481212
18268 1 0.389884 0.136855 0.487105
19521 1 0.39176 0.160399 0.461259
19520 3 0.392389 0.15458 0.467445
11546 3 0.367057 0.292148 0.485689
11545 1 0.369636 0.299918 0.48494
11547 1 0.365445 0.284945 0.488309
21553 1 0.168338 0.31215 0.478169
21555 1 0.169122 0.320789 0.491644
21554 3 0.169778 0.316446 0.484948
1850 3 0.239872 0.364789 0.482634
1849 1 0.242837 0.356795 0.482909
19528 1 0.288589 0.363345 0.473699
1851 1 0.23474 0.371319 0.48289
19530 1 0.294737 0.376138 0.465686
19529 3 0.291886 0.370047 0.469293
19267 1 0.385716 0.393306 0.492009
6392 3 0.211386 0.443908 0.482038
6391 1 0.203366 0.445725 0.482793
6393 1 0.219772 0.443555 0.481687
4813 1 0.251508 0.439703 0.464843
4814 3 0.258187 0.440335 0.46345
4815 1 0.265992 0.440928 0.461898
17046 1 0.269082 0.441572 0.460737
4662 1 0.246199 0.479342 0.464304
7045 1 0.045566 0.511721 0.461784
7047 1 0.0311197 0.511051 0.470081
7046 3 0.0382761 0.51247 0.466387
6289 1 0.310095 0.507907 0.462372
6290 2 0.307328 0.499726 0.464898
6291 1 0.305685 0.492907 0.469901
13795 1 0.392139 0.570909 0.478847
13796 3 0.394802 0.576918 0.484354
4107 1 0.252202 0.603375 0.479049
4105 1 0.245119 0.597611 0.491578
4106 3 0.248369 0.601042 0.484538
13797 1 0.396216 0.583747 0.487643
13024 1 0.00875449 0.696536 0.488278
20196 1 0.374667 0.730121 0.483699
20194 1 0.366636 0.742951 0.477119
20195 2 0.369554 0.735409 0.479857
6258 1 0.488381 0.753171 0.469483
6257 2 0.487257 0.749494 0.462395
14134 1 0.266973 0.0718982 0.520403
21373 1 0.0588551 0.112119 0.495039
13669 1 0.310112 0.121598 0.509694
20966 3 0.00500189 0.131554 0.517603
20967 1 0.0113948 0.129439 0.516049
13671 1 0.295117 0.128958 0.510479
13670 2 0.30312 0.126095 0.510738
13327 1 0.232336 0.258573 0.49441
13329 1 0.231907 0.254123 0.507666
13328 2 0.232271 0.256384 0.501166
14977 1 0.347156 0.252964 0.524184
6726 1 0.306606 0.326914 0.524583
6725 3 0.306068 0.333529 0.519117
17278 1 0.302672 0.342229 0.514767
17279 2 0.29969 0.345733 0.509573
17280 1 0.293759 0.348914 0.504038
6724 1 0.303867 0.34071 0.516584
8183 2 0.339967 0.365363 0.525664
12265 1 0.456944 0.354175 0.503297
12267 1 0.468981 0.34569 0.508161
13602 1 0.471563 0.344289 0.508378
12266 2 0.462235 0.349429 0.506859
13601 3 0.479273 0.342416 0.508497
13600 1 0.488791 0.341097 0.508153
8182 1 0.34262 0.370101 0.520177
19268 3 0.38589 0.385906 0.495289
19269 1 0.385723 0.379462 0.499049
10705 1 0.461089 0.376421 0.518721
10707 1 0.474211 0.374685 0.510396
10706 2 0.467472 0.375729 0.514001
12547 1 0.137005 0.4111 0.520128
12549 1 0.149208 0.411022 0.510403
12548 3 0.142682 0.412071 0.515092
214 1 0.440242 0.419838 0.517398
20888 2 0.441577 0.408997 0.513536
20889 1 0.440954 0.402507 0.5106
20887 1 0.440221 0.417124 0.516342
215 3 0.440157 0.427457 0.520195
216 1 0.440303 0.434434 0.522908
16364 2 0.175408 0.554971 0.514114
3310 1 0.164942 0.555566 0.508631
16363 1 0.167518 0.555883 0.509968
3312 1 0.15271 0.557149 0.49832
3311 2 0.158925 0.555016 0.503777
16365 1 0.182567 0.553209 0.516912
105 1 0.185213 0.552597 0.518118
104 3 0.192029 0.55165 0.522464
18187 1 0.070724 0.594871 0.525871
13025 2 0.00479173 0.691667 0.493865
4528 1 0.502323 0.691942 0.50995
4529 2 0.501612 0.693267 0.518263
4530 1 0.500222 0.693761 0.526013
18524 3 0.130528 0.809376 0.0229787
18523 1 0.125259 0.814165 0.0248238
18525 1 0.135863 0.80307 0.021313
15777 1 0.0714362 0.915274 0.0284732
15776 3 0.0795284 0.913032 0.0303482
4352 3 0.107508 0.937384 0.00364826
4353 1 0.109008 0.932398 0.00898837
12438 1 0.0282931 0.897173 0.059957
15775 1 0.0867888 0.910851 0.0323182
13280 2 0.0258444 0.978396 0.0508247
13279 1 0.0175741 0.978121 0.0528318
12239 3 0.0428261 0.97703 0.0438846
12238 1 0.0482856 0.980301 0.0394748
13281 1 0.0337576 0.978245 0.0488376
12240 1 0.0363105 0.97793 0.0480039
12437 2 0.0274969 0.901222 0.0663997
14340 1 0.00852324 0.928131 0.068788
12436 1 0.0277814 0.906191 0.0720465
21490 1 0.135904 0.929914 0.082518
14339 2 0.00438352 0.93467 0.0672825
14338 1 0.000156107 0.940338 0.0631295
21492 1 0.143901 0.940485 0.0760272
21491 2 0.140196 0.933804 0.0777996
19144 1 0.130951 0.937138 0.120859