ITEM: TIMESTEP
50000000
ITEM: NUMBER OF ATOMS
2895
ITEM: BOX BOUNDS pp pp pp
0.0000000000000000e+00 5.0000000000000000e+01
0.0000000000000000e+00 5.0000000000000000e+01
0.0000000000000000e+00 5.0000000000000000e+01
ITEM: ATOMS id type vx vy vz 
9291 1 4.28447 2.15487 3.11026 
10594 1 -1.87358 3.0277 -9.16914 
7391 2 0.91239 -5.80245 1.15954 
3637 1 3.13647 2.6203 5.82325 
7390 1 -1.71004 1.62192 -3.66841 
7392 1 -3.00082 -0.0468771 -0.739595 
6376 1 4.28452 -0.359359 -0.849206 
9610 1 1.0896 -1.7079 -2.36785 
16914 1 3.75149 -6.88523 -0.52076 
16913 3 -1.05123 -0.841953 -1.45642 
6939 1 8.18567 -6.76406 1.35872 
16912 1 4.89998 -4.96784 -0.731843 
6938 2 -1.2929 -2.80337 -2.56429 
6937 1 1.42201 -1.1765 1.58188 
8265 1 -2.96156 -3.90274 4.40486 
166 1 1.31874 -6.11777 3.80751 
7867 1 3.62926 -2.02164 1.79532 
16887 1 4.88025 1.55117 3.7383 
7869 1 -3.05397 1.53184 -4.58349 
7868 2 3.74225 -1.22649 -0.693408 
8264 2 -0.536734 1.73532 -0.402086 
8263 1 2.82978 -2.05595 1.47735 
19923 1 -1.20808 -0.219729 3.77914 
5212 1 2.34612 0.554115 1.61399 
5213 2 -1.76073 -3.20809 -0.688285 
5214 1 0.480739 0.303414 -4.41782 
16886 2 -1.3862 5.99054 1.72678 
16885 1 -7.87743 3.50205 1.10614 
13846 1 2.44498 1.70804 2.47144 
13847 3 -2.50583 -4.35516 -1.37294 
13848 1 -0.0342111 -0.239139 -3.70589 
3283 1 4.89166 -3.66891 -2.3334 
3872 2 -0.205763 3.04602 -0.915609 
3871 1 -2.44794 -2.25805 -1.46597 
10748 2 0.949624 -1.71808 2.94506 
10749 1 -0.393381 0.519813 0.908937 
3873 1 0.614341 4.53367 2.26997 
14745 1 4.98445 -0.0212212 2.16361 
6377 2 0.286584 1.67665 1.12529 
6378 1 -1.25357 7.34204 -0.987994 
2874 1 -3.88206 -1.01732 3.51085 
2873 2 -1.09032 0.198068 1.78416 
3617 2 -4.93061 -0.880468 5.65241 
2872 1 -2.25446 3.14817 -1.84222 
12790 1 1.42508 -4.92129 -0.995173 
1095 1 2.83691 -0.397886 -1.98032 
12792 1 -6.2542 -5.10041 0.984617 
12791 2 -0.619881 -0.753171 1.62341 
19922 2 3.19324 2.4203 0.732382 
19921 1 -8.47778 -2.55238 0.613589 
14467 1 8.86046 -0.550514 -0.603392 
1094 2 1.81475 -0.352612 -2.04732 
1093 1 -3.12103 2.95812 3.3597 
14468 2 -0.322307 -3.82173 -0.745155 
14469 1 -3.61624 0.973718 -4.86537 
9289 1 -1.42394 -0.819407 -4.0088 
4675 1 0.398571 3.15088 5.23442 
2719 1 -8.60872 1.65372 1.98024 
4676 2 1.0518 0.965015 -0.39747 
922 1 3.57357 1.45014 -2.72534 
2949 1 -5.91828 2.06617 5.40865 
2948 2 3.66113 1.48132 1.3355 
2947 1 -2.62976 -2.55817 -1.0949 
18303 1 0.684843 -1.73027 -4.20092 
18302 2 0.53156 -2.00005 2.32121 
47 2 4.26175 4.58208 -2.90847 
46 1 -2.339 3.38418 5.98556 
9290 2 3.3472 -3.59041 -3.22583 
48 1 2.11672 -3.53162 -5.33809 
4677 1 2.11586 -2.94746 -3.26783 
18301 1 4.84135 3.97416 0.534989 
6363 1 -3.97946 -7.80641 -3.3689 
14884 1 4.17595 3.8643 2.98003 
3284 2 1.32149 3.16727 -0.586498 
6362 2 2.59647 1.34907 -1.88899 
18056 2 -3.77417 -1.62674 2.60553 
18055 1 -3.9365 3.43669 4.86025 
6361 1 -5.08974 -4.71669 -1.43237 
14886 1 -1.82388 5.26908 -3.49964 
14885 2 -0.472019 -3.7696 -4.59099 
17160 1 0.158715 1.73608 2.99863 
20520 1 -2.35968 0.64067 2.10896 
3285 1 -3.43967 3.60174 3.26321 
12519 1 -0.241435 4.0464 1.28098 
12517 1 -0.00128342 1.00061 1.78591 
12518 2 1.02511 -3.20928 -1.48195 
18057 1 4.10863 -2.09279 -4.86751 
20518 1 -2.02983 0.00550809 5.02493 
20519 2 0.114532 -2.02273 6.35113 
10596 1 2.02079 -3.7062 2.31498 
13210 1 -1.13594 0.275085 -0.707429 
12170 3 2.73156 -1.20297 -0.311655 
12169 1 1.01663 -0.384875 1.48608 
12171 1 -0.888041 -0.786326 1.71273 
13891 1 -0.487657 0.801768 -0.929235 
7756 1 -3.99564 -2.64163 -2.7228 
10080 1 1.94357 5.29703 0.566787 
7757 2 2.44812 -1.48542 -0.0547896 
10078 1 3.01228 6.12954 1.28938 
10595 2 -0.815311 0.875283 0.689048 
13892 2 0.843699 0.428336 -1.23838 
13893 1 3.01295 0.0710238 2.52609 
4170 1 -2.82594 0.265017 5.66947 
7705 1 3.41345 0.0221574 1.21814 
7758 1 4.14304 -5.84792 4.40815 
10079 2 0.944855 -0.511832 3.13916 
6151 1 3.25781 2.25182 -2.57589 
6152 3 -2.38191 1.60308 -1.90864 
7706 2 0.400503 -3.21669 -2.39548 
6153 1 -1.40706 1.36404 -1.08635 
12893 3 -2.41495 -0.500684 2.93137 
12892 1 3.71204 2.34507 0.484419 
12894 1 2.54613 -3.07384 6.13811 
13211 2 -2.65309 -0.535398 -1.07404 
13212 1 -2.05976 -3.9238 1.60505 
15956 2 0.618031 0.137465 0.221061 
14719 1 3.28313 -4.56114 -1.18387 
12062 2 0.806363 0.660937 -0.822665 
5728 1 -2.37604 -4.05237 -4.56175 
15955 1 3.4086 -1.96589 0.174991 
5729 2 0.923968 5.34412 2.06883 
12063 1 1.21322 1.37754 4.03023 
13906 1 -3.48904 2.32341 -1.91588 
13907 2 -1.45056 3.07191 3.3842 
13908 1 5.21343 -3.2568 2.58571 
4169 2 1.42789 0.927664 -1.42288 
14720 2 -3.34043 -4.0691 3.31276 
12061 1 6.1212 1.34567 7.8049 
6886 1 0.0577396 -0.0814475 -3.51577 
4168 1 1.15881 7.12052 0.187444 
6887 2 3.15418 -1.23366 0.98641 
6892 1 1.04788 -1.43191 0.937756 
6888 1 3.08295 -5.8742 3.58545 
14721 1 1.1303 1.55614 -3.09705 
5730 1 2.29158 -5.0129 -3.74217 
14430 1 -4.02333 -3.80135 1.40777 
7707 1 -1.92991 2.08972 -1.56526 
8241 1 2.30553 -5.42989 2.24678 
8240 2 0.671366 -5.12451 -4.87314 
8239 1 -3.71419 -1.43475 -3.00954 
20202 1 5.57441 -3.54439 -2.79058 
20201 2 -1.25552 1.42094 2.00883 
14429 2 3.31973 3.48295 -0.70954 
6893 2 -0.291563 4.59615 -0.304752 
6894 1 -0.523516 -0.538774 3.76065 
15274 1 3.22678 2.3636 -2.99087 
20200 1 -5.72204 2.32975 -2.19145 
3273 1 -0.210968 -3.24377 -3.50432 
3272 2 2.3376 2.41499 1.70684 
15275 2 -4.99176 4.26534 4.8925 
15276 1 4.14867 -1.81728 -1.24638 
3574 1 0.965999 0.515386 -4.04601 
14428 1 -3.08138 -0.31328 -7.3717 
15148 1 1.95124 4.67736 10.6501 
3271 1 -3.73971 -0.154197 -1.67329 
10404 1 -0.480036 11.7767 -3.61104 
4626 1 -2.49653 8.9338 0.352743 
14793 1 -3.52195 0.998205 3.27023 
10402 1 0.0278654 4.30085 -5.02696 
10403 2 0.24349 -0.791599 2.84455 
4625 2 -0.679282 -4.81123 -1.86023 
15149 2 1.71686 -0.429786 -3.98492 
15150 1 4.28561 2.26184 -1.77181 
14792 2 -1.71009 -3.79954 -1.61217 
14791 1 0.496349 0.0572228 -0.841457 
20655 1 1.73433 -1.60115 -2.45008 
4624 1 0.984625 -0.379953 1.95525 
3165 1 0.64236 3.28565 3.42544 
3164 2 0.106143 -0.341309 0.245034 
3163 1 -0.264836 3.68509 -4.76356 
13665 1 -4.02621 -2.33555 0.532943 
20654 2 -1.26581 -4.41536 -0.4826 
13636 1 -3.22421 -3.36112 -1.32879 
13637 2 -0.992372 1.40882 -5.10591 
13664 2 2.16987 -2.663 1.17991 
3638 2 -2.8274 0.33125 -1.34059 
21058 1 -3.64861 0.0507623 -2.64592 
21169 1 2.24496 1.57692 5.96075 
21170 2 1.36652 -0.545523 0.815958 
21171 1 1.89468 2.05316 0.114682 
4377 1 1.49272 -1.75971 2.69959 
9612 1 2.32619 -0.509267 -1.67586 
9611 2 2.45344 3.08271 2.29228 
4266 1 -2.22206 -2.24502 4.18795 
4265 2 3.34982 -2.10873 -1.79229 
4376 2 -0.802914 1.97275 1.72532 
4375 1 -2.54015 4.31293 0.781113 
1867 1 -4.16822 -3.74445 -3.76868 
1868 2 -2.8256 -2.66761 3.1084 
4264 1 -3.88948 0.287552 8.0572 
13234 1 -2.64703 0.661817 1.39259 
13235 2 -2.63007 1.17462 1.7444 
1869 1 -0.646481 1.68091 -0.0268376 
1314 1 -0.1062 -3.60004 1.80203 
2043 1 1.00627 -2.0351 0.0923513 
167 2 0.300567 1.59723 1.35868 
2042 2 -3.8866 0.100356 1.68007 
168 1 1.03927 -4.23968 2.43361 
13236 1 -3.40607 -6.85228 3.721 
6430 1 2.44977 -0.860759 -1.40805 
6431 2 3.88103 -3.56279 1.10565 
6432 1 -0.620047 0.913426 0.0585364 
16815 1 -2.92895 -0.311074 -6.25946 
4378 1 4.37723 4.53311 -2.90126 
6185 2 -1.10479 1.16563 -1.18036 
16903 1 -4.56405 -3.67039 2.73986 
6186 1 -3.99948 4.27253 -4.30909 
3575 2 4.72161 -0.608422 -2.5276 
3576 1 -0.12233 -0.635787 -0.572258 
19690 1 2.29924 2.65581 2.65934 
19691 2 -2.2522 -0.540005 -2.28777 
16814 2 -1.05086 4.19309 0.801575 
16813 1 0.782886 -4.19063 -3.3194 
11227 1 -2.32233 -1.70454 -3.77857 
11228 2 1.88451 0.962656 -1.90034 
16904 2 -0.367187 3.28936 2.78515 
11229 1 -3.35666 4.29578 0.603726 
7612 1 0.540438 -1.09363 1.61749 
16905 1 6.31535 -2.29582 -3.17814 
20653 1 -4.86593 -1.14746 1.79645 
19692 1 2.7646 0.74348 3.40471 
15909 1 -4.17064 4.16875 0.703792 
15908 2 4.36959 -0.281866 2.07693 
15907 1 -2.5289 -1.8626 -0.339668 
9595 1 -5.9875 -2.27171 -3.17274 
14489 2 -0.248303 0.563619 -0.773745 
10747 1 -1.33604 -4.58556 2.24558 
9596 2 1.01848 3.87448 -0.247439 
13663 1 -3.12595 -0.143685 -5.03473 
13809 1 3.61087 -0.649147 -3.90493 
7806 1 0.541754 0.0458144 -10.1324 
13808 2 0.144132 3.76963 2.22225 
9597 1 -1.12542 -1.84406 -1.47136 
7804 1 0.421139 -1.12249 3.19046 
13807 1 -2.90369 -3.40088 -3.66095 
7805 2 -1.26922 2.2771 3.33029 
19012 1 1.20956 5.17178 -1.0566 
12342 1 3.52543 2.45178 -1.55999 
19013 2 1.0022 3.8654 -0.86911 
19014 1 -1.36162 5.00263 3.80024 
7540 1 6.18237 -1.88403 -5.102 
7541 2 1.36299 -2.25844 -0.370266 
7542 1 5.16098 -0.649691 -2.60902 
20791 1 4.39441 -1.01757 -4.94811 
21457 1 -2.11879 -6.82553 -0.642962 
21458 2 -0.394114 -3.25086 -0.488253 
14743 1 -2.76649 0.0346389 6.43216 
14744 3 -2.49269 1.98127 -1.85522 
21459 1 -1.84724 8.30487 -3.87042 
20748 1 -2.46096 -5.20746 0.859865 
10401 1 -2.22515 -6.35777 2.73508 
17989 1 2.77956 1.51702 -3.20645 
16226 2 -0.286143 0.723964 -0.35064 
17991 1 -2.61039 1.73005 3.95545 
17990 2 -4.88444 -1.85192 3.8143 
20747 2 -0.708034 2.7113 2.23587 
20746 1 -0.619392 2.07134 -2.49865 
17772 1 -3.36527 -3.47598 2.39859 
17771 2 1.92267 1.94557 -0.848327 
5231 2 -1.28962 3.66239 -2.21514 
5232 1 -2.3589 -3.8653 6.91209 
1358 2 -0.471877 4.53953 -3.15869 
10400 2 0.803016 2.76798 -0.740299 
2425 1 1.31091 -1.14012 -3.48644 
16227 1 -1.33699 1.08511 -0.106758 
1359 1 -0.687863 -2.0801 -4.09945 
5230 1 4.59355 1.80089 4.52055 
4578 1 -5.66405 3.09507 1.23669 
17770 1 -5.51621 -0.0184406 3.33102 
370 1 0.882772 -1.12869 1.80653 
371 2 1.78049 -4.33848 -2.90431 
372 1 -0.826735 -2.97047 -2.23856 
4577 2 -3.19667 -0.481217 0.0587589 
20863 1 2.5596 -3.82136 -3.15335 
4379 2 -2.65886 1.96686 -0.633548 
4380 1 9.39635 -0.339392 4.8646 
3618 1 6.19597 2.84218 -0.89889 
20865 1 -0.966033 3.06245 3.99435 
20864 2 4.75379 -1.74 0.54788 
2358 1 0.207935 2.78523 -2.63996 
15544 1 0.846604 -4.35043 0.434484 
15545 2 4.44649 1.31176 3.5108 
15546 1 -5.94777 2.24783 -1.34586 
4576 1 0.649185 -2.87961 -3.21945 
1313 2 -0.00214768 1.50002 -6.12519 
1312 1 5.61832 -4.15184 2.30609 
16483 1 1.9962 -0.995622 -1.02282 
16484 2 -0.536317 0.602446 4.20759 
2357 2 1.762 3.47789 0.0856968 
16485 1 -3.49606 -3.14502 2.30241 
2720 2 -1.32652 0.872659 0.914458 
2721 1 -2.14704 1.8837 4.46125 
17538 1 -2.11568 -5.96774 -2.37531 
17537 2 -4.2735 0.802821 -0.303165 
13979 2 2.12031 4.40588 -2.14552 
13978 1 0.831364 1.05196 -5.37616 
17536 1 -3.72279 -6.3002 1.87618 
17816 2 -1.49994 2.33101 -4.03793 
18085 1 -0.160517 -0.273811 0.395777 
13980 1 -3.16715 0.58977 0.83214 
18087 1 -0.922896 -1.70036 -1.63611 
17815 1 -1.19523 -6.89992 -6.94743 
13565 2 -1.18953 1.8666 2.98299 
18086 2 3.45751 2.9829 -1.27139 
7613 2 2.56899 0.000434012 0.0982731 
13564 1 3.01671 -1.8058 -0.706474 
7614 1 3.8005 4.34336 -0.243811 
17158 1 3.59061 -0.81961 -4.32653 
17159 2 1.0705 -1.53502 2.25258 
13566 1 2.44058 5.70566 1.21589 
17394 1 -3.99828 -6.02624 -4.17854 
18547 1 0.377824 -0.850955 -3.2768 
9646 1 -1.5537 1.28943 -0.894465 
17817 1 -2.2968 -0.699446 5.54884 
6841 1 -2.71044 -0.576085 -4.39475 
7639 1 2.24757 -3.5149 -1.86446 
7641 1 3.95195 2.79194 -3.41995 
7640 2 -3.18721 -0.684302 -1.62504 
17392 1 -3.36286 5.39072 3.4479 
17393 2 0.593737 -0.346446 0.383792 
11889 1 -2.64404 -1.39514 1.07523 
12340 1 -4.48732 4.30968 -3.19111 
12341 2 1.57134 -5.11273 2.50595 
2282 2 -0.383222 0.526149 0.372165 
6182 2 1.9623 0.393707 -0.49988 
9769 1 -0.310356 -0.200336 4.17473 
14488 1 -1.67742 1.03772 -3.10572 
6183 1 2.42536 -5.32824 7.05834 
9771 1 -3.17757 -1.14187 2.49822 
2281 1 -1.23443 2.49477 2.05385 
6181 1 -5.56129 2.61867 -5.58214 
13614 1 3.72416 -3.65837 -1.63056 
13613 2 -2.78303 0.411876 0.692634 
4823 2 -3.65854 1.28701 -0.0919503 
13612 1 -8.69729 -1.76559 -1.279 
9770 2 1.61877 -2.47138 -5.24255 
4824 1 -2.20589 -2.39284 -4.15092 
4822 1 -0.0574846 -1.45505 2.77399 
18610 1 0.487437 0.584698 3.31686 
18611 2 6.25525 -0.121866 -1.48228 
11887 1 -1.26344 -0.655606 -2.69987 
11888 2 1.13002 -1.94401 -1.76411 
14311 1 -2.82127 -3.09835 2.46277 
14312 3 0.34839 -0.746085 2.59391 
18612 1 -2.68933 0.206392 1.66932 
14313 1 -3.77213 -0.00916028 2.01738 
1175 2 -4.64664 0.672657 0.3962 
1174 1 -0.34159 -1.67857 -0.274906 
4740 1 3.07523 1.3697 -1.13936 
4739 3 2.13146 2.14391 -0.512453 
1176 1 0.47383 0.00179262 -0.843096 
4738 1 -3.61153 -2.49363 2.12637 
12459 1 -4.39976 -1.96334 0.00403711 
21391 1 -5.19608 -0.244411 -1.39069 
2716 1 0.563488 4.09618 2.52244 
2717 2 1.12736 -3.97346 -0.834676 
21392 2 1.93889 3.48718 -2.59784 
21393 1 3.35548 -5.35535 0.485932 
2718 1 -1.00296 0.262787 -1.56807 
12458 2 4.63523 0.436077 2.13169 
14298 1 -1.20724 3.18045 5.04486 
12457 1 5.38786 3.21347 0.782327 
18499 1 0.350973 2.94749 -3.6657 
14297 2 0.670416 2.02229 -0.471622 
14296 1 1.58973 -0.541434 -3.50504 
18500 2 -2.87335 -3.41274 -0.942012 
18501 1 4.7887 -0.0547207 6.1105 
6877 1 -3.26368 -0.77279 4.67512 
6878 2 -2.04295 1.03447 3.49371 
6879 1 -2.55627 -0.168777 0.825366 
13585 1 -4.11987 -1.20365 0.337708 
369 1 3.52517 2.30359 2.00148 
460 1 0.684824 5.87201 4.91563 
367 1 4.23908 -2.6218 -0.467828 
13586 2 0.281344 1.62068 1.93095 
462 1 3.65357 -0.348377 3.89997 
461 2 1.68514 -3.6407 2.16784 
368 2 0.741133 2.31294 -3.67463 
1545 1 -2.37225 -1.87613 -2.57633 
1544 2 0.923676 -1.41671 1.93456 
9540 1 4.27181 9.9776 6.97474 
11197 1 -2.19807 5.34474 1.97102 
11199 1 -3.37351 5.09861 -6.94309 
17291 2 -1.597 -2.84393 -2.69301 
17290 1 -1.98015 1.64895 -1.23 
11198 3 2.61141 2.08133 -3.72366 
17794 1 -1.50604 1.1727 -2.74829 
15367 1 -4.90185 3.31718 -0.217832 
17795 2 -0.0383756 -3.7557 -1.31235 
913 1 4.95905 -1.24076 1.10266 
17796 1 -2.99668 0.974337 -2.88032 
2119 1 1.15936 -3.90706 -2.35316 
18528 1 -8.34544 -0.671171 -1.65083 
19438 1 -4.56366 1.00039 4.0992 
2120 2 4.48082 -1.67807 2.97638 
2121 1 -2.76173 -3.36698 4.98872 
20251 1 5.44256 -4.66237 1.60818 
20252 2 -0.160856 -3.28458 4.90364 
15498 1 0.127559 -3.40503 -0.567618 
15497 2 -1.41955 0.21346 0.213648 
19439 2 -0.102347 3.54511 -1.87549 
12139 1 -2.90077 -0.626359 -7.02151 
19440 1 4.12308 0.280546 2.48448 
9117 1 1.97582 -3.20435 1.02219 
9116 2 -1.26992 1.638 1.25436 
9115 1 3.32786 -1.34559 -2.44881 
16107 1 -1.1846 -3.32402 1.32802 
12141 1 9.67067 3.39827 4.31646 
8674 1 5.05982 1.69078 3.44909 
12140 2 1.45684 1.69337 -2.49599 
21146 2 -2.4329 2.17141 -1.23876 
1543 1 2.20956 -1.86193 -3.17594 
13587 1 0.0631258 1.88897 3.47498 
9880 1 3.05819 1.10414 1.15221 
9881 2 1.00964 -3.09002 -3.14577 
9882 1 2.83993 -1.16108 1.79368 
16106 2 -0.0936969 -0.177542 2.86928 
16105 1 5.76213 -5.03872 1.15288 
15199 1 -1.22017 -5.54612 -1.88616 
6574 1 -1.37256 -0.0703009 -1.04775 
15786 1 4.75497 -0.403067 -1.25895 
15785 2 -0.0763195 1.65781 -2.71322 
15200 2 -0.601883 0.708425 1.58471 
15201 1 -10.3393 1.0265 -1.07939 
21147 1 4.58765 -3.91301 0.11202 
6575 2 -1.47311 -2.05701 0.0961571 
15784 1 -1.44247 -2.74937 -0.444558 
13249 1 2.84386 1.03266 -1.97685 
13250 2 -1.68867 -0.869485 -3.59006 
13251 1 -5.77636 6.40566 3.07453 
17658 1 1.46077 -8.45208 -0.391625 
17657 2 -2.67942 -0.903793 -7.67317 
11826 1 -0.647259 -1.16624 -4.84186 
1594 1 0.761467 5.17549 -1.55187 
17292 1 -1.26804 -2.05029 -0.619073 
17656 1 3.27775 5.37454 5.90438 
13638 1 -5.01046 1.16716 0.83954 
2790 1 -2.63526 -0.933539 -2.15984 
11824 1 -2.49612 2.23778 2.20678 
5236 1 1.55862 -0.68306 -2.13925 
2789 2 -0.398814 -0.687905 1.97754 
11825 2 -4.84735 -0.263723 -5.41735 
18527 2 1.87764 3.12224 2.35904 
794 2 -2.46106 -1.4904 -3.87137 
795 1 0.159387 -2.31265 0.336844 
12273 1 5.32915 -1.71802 -3.09287 
4262 2 -2.3876 1.41772 -1.02367 
4261 1 7.57139 -3.24893 -3.67964 
13005 1 -2.61917 2.97574 -4.69483 
16847 2 -3.85118 -3.33364 1.72999 
13004 2 0.0676795 -0.610762 0.425196 
16846 1 -3.74551 -0.158352 2.73438 
2427 1 -1.99149 7.97347 -3.9402 
16848 1 -2.3893 -0.368993 -0.268769 
4510 1 -9.76266 -2.35107 -0.924475 
793 1 -4.43405 -2.02109 -0.318773 
18337 1 0.412891 6.61702 -0.349632 
19047 1 2.96565 -0.785939 -1.00199 
4263 1 1.20102 1.69084 -9.78112 
6408 1 -1.67329 0.778694 2.998 
12272 2 4.79579 1.04663 -0.593025 
11038 1 -9.04314 -0.813854 0.424309 
11039 2 3.96464 4.0365 2.22728 
11040 1 -1.61621 0.593014 2.59467 
18526 1 -0.69161 1.01811 -2.75892 
21477 1 -0.531953 1.19579 -7.52917 
21476 2 1.39977 1.01147 -1.18367 
6407 2 -1.71497 2.67722 -1.82545 
6406 1 -1.04189 2.12535 -1.1782 
19045 1 0.0634813 -2.67982 -4.08251 
19046 2 0.576778 -3.86704 1.72688 
12271 1 -0.189437 0.0983552 -1.61273 
2041 1 2.59539 3.44778 -2.29221 
20253 1 -0.986559 -3.3154 0.90721 
20580 1 -3.76074 -0.915978 -1.35445 
20579 2 0.823661 -0.406365 -6.05367 
20578 1 -6.41533 5.288 1.62108 
21475 1 1.92144 -1.53227 -3.15292 
7879 1 4.40521 2.03121 -1.63072 
7880 2 -2.01428 0.182043 0.484427 
8675 2 2.17285 -1.24906 -0.082813 
7881 1 -2.62959 -2.42041 4.44055 
4959 1 -7.60228 4.40737 5.83127 
1167 1 -3.60698 -8.38486 3.34947 
1166 2 -4.65498 0.135833 2.0389 
8676 1 -2.07661 0.800348 6.67016 
7749 1 4.11863 0.0788969 5.43611 
7748 2 -0.30255 -1.75115 -2.37664 
7747 1 2.50803 5.94929 1.16255 
6214 1 1.26195 2.66339 3.237 
4958 2 -2.13469 -3.18626 2.00229 
6215 2 -3.05292 1.48975 1.77007 
1165 1 1.24256 -3.37233 0.138188 
6184 1 -7.98759 7.52261 -1.3601 
1023 1 1.72544 -2.61796 -0.61794 
6576 1 5.35253 4.56263 1.20893 
13429 1 -1.22096 3.38687 4.04055 
13430 2 1.1314 -0.586444 -6.26443 
13431 1 1.95965 3.39341 0.400424 
6216 1 3.89167 -5.67239 0.229125 
21360 1 -4.10138 0.157285 0.977525 
21359 2 2.82731 1.03474 -4.09773 
1021 1 3.087 1.82364 -1.33367 
1022 2 0.480074 -1.24797 1.25381 
10798 1 0.653251 3.47509 3.13372 
14097 1 -3.8294 -5.37452 2.82716 
21358 1 -2.47659 0.218502 -2.59531 
10800 1 1.70178 1.79448 -9.59523 
10799 2 -2.89714 6.65202 0.415946 
5237 2 2.14432 -3.23421 1.56762 
11133 1 1.07374 1.28149 0.7932 
2788 1 2.27409 -0.266998 -1.01572 
14096 2 -3.78227 -0.249936 -1.27751 
14095 1 -1.18868 1.61103 -6.90877 
3949 1 4.15038 -0.779482 -3.58649 
3950 2 0.297916 -2.34897 1.50961 
3951 1 0.923027 4.45816 -0.136848 
21202 1 -3.54068 9.05206 -1.54276 
6233 2 -2.88226 0.791054 1.25732 
6232 1 7.70074 -0.751532 2.79862 
6234 1 5.51222 -0.808183 -7.11714 
14490 1 1.01207 5.46214 1.20277 
11132 2 -0.289083 3.82534 1.79125 
5238 1 5.42851 -2.3476 0.30922 
15628 1 -1.70975 -6.05527 7.37531 
15629 2 -1.91555 -2.79958 -3.81991 
15630 1 -2.13043 -0.179939 5.01809 
3244 1 -3.51962 -3.00984 -3.94032 
12485 2 -3.15469 -4.67149 0.132503 
11131 1 -1.3087 -5.31372 -1.70403 
12486 1 -5.24955 4.05258 -1.05344 
12484 1 0.545394 -2.19837 0.815605 
21203 2 -0.705327 -3.36311 -1.24381 
20793 1 -4.76392 -1.6375 -8.33629 
3245 2 1.44133 -0.0338319 2.43793 
16388 2 -2.54218 -0.356994 1.85843 
16389 1 2.07324 3.00866 0.505078 
3246 1 5.58064 -1.15984 1.70507 
16387 1 1.94895 0.367553 1.72798 
20792 2 -2.69625 -0.876642 -3.64581 
7432 1 5.0046 2.29854 -2.96554 
7433 2 -4.11549 4.57256 0.930919 
7434 1 -3.62361 -1.15643 -5.2109 
16225 1 0.706941 -1.03353 -4.6467 
4889 3 0.563664 -2.71527 -1.63107 
4971 1 -5.42915 2.86893 -0.890876 
21012 1 9.57675 2.20298 -0.77344 
4970 2 0.255161 0.371861 -0.560177 
4969 1 0.205678 -2.18671 3.567 
10570 1 8.08851 -3.02329 2.01362 
4888 1 -6.86151 -1.74863 0.767339 
2426 2 0.820847 3.07209 4.25418 
18949 1 1.29393 2.00702 -0.49788 
21011 2 -4.48079 -0.721004 -3.14014 
16608 1 -2.30029 1.31997 0.77876 
21010 1 7.79622 -3.47992 -0.210479 
14559 1 2.29784 -7.73316 -2.6336 
14558 2 2.96503 -2.04876 -0.887866 
16607 2 0.752182 -9.11574 0.997693 
14557 1 4.91314 1.65523 1.33932 
7224 1 2.02085 -2.45757 -2.85517 
2574 1 0.039905 0.730416 -4.0262 
2573 2 0.790972 1.13052 2.52666 
16606 1 3.3745 0.587822 -1.74487 
15550 1 4.21951 -0.700552 -2.95952 
15551 2 -1.80971 -1.28265 1.43691 
15552 1 -2.5389 -2.28601 -5.10793 
7701 1 3.16469 -1.57612 -3.85846 
7223 2 0.726794 -2.7496 -1.09261 
7700 2 -0.864234 -0.515363 -0.381051 
14361 1 3.4339 -0.328052 2.26412 
9273 1 -1.14971 1.883 1.64262 
14360 2 -2.48346 -1.516 -1.29308 
6601 1 -2.28256 -1.18986 1.12192 
7222 1 4.31119 -9.92449 2.48858 
5222 2 1.03675 -2.88419 0.232554 
4957 1 -1.01047 1.87508 0.600234 
8236 1 -0.744473 -2.89504 1.48442 
7699 1 1.66778 -6.84152 -6.56403 
5223 1 -4.3055 -2.09412 -4.21569 
7587 1 -4.54749 -2.05761 8.02772 
7586 2 0.912851 -1.67222 4.07279 
2529 1 -0.200817 0.111609 3.30009 
7585 1 -3.82978 5.25785 0.225049 
20478 1 2.66139 1.93156 -5.26186 
2528 2 -0.130577 1.36609 -2.53434 
2527 1 1.02126 0.954977 2.15845 
14359 1 3.16387 -0.194514 2.66278 
8237 2 0.116909 0.712043 -0.28034 
1051 1 6.1294 -2.8468 -2.73378 
14018 2 -1.66701 -0.893998 3.44354 
20476 1 1.76515 2.73464 0.703837 
20477 2 0.0891721 -0.954294 -0.65698 
20038 1 1.44988 -3.96817 0.252512 
14017 1 2.67329 -3.4572 1.40312 
8556 1 2.72416 0.927704 -10.1979 
20039 2 1.02142 1.05746 1.44654 
20040 1 -3.00768 3.24329 0.422961 
7291 1 2.07154 1.4582 0.783043 
14019 1 0.420719 -0.162868 -2.46907 
1052 2 -1.78188 -0.447584 1.02313 
1053 1 -1.57716 3.81947 1.37289 
17565 1 1.85771 -4.88732 3.15271 
17564 2 -0.923727 -1.14366 2.51578 
8555 2 3.7938 0.381285 -9.99536 
17563 1 -0.801498 0.678258 3.51107 
3315 1 3.45394 -1.05548 1.09655 
14810 2 1.0612 -1.95383 3.18846 
18549 1 5.98235 3.52014 -4.252 
8554 1 1.01917 1.20841 7.23442 
3991 1 2.83183 0.455739 3.22184 
18548 2 0.63904 3.28578 -1.49319 
3465 1 -2.77107 -0.620654 4.89725 
18818 2 2.5616 2.40078 -6.57754 
13384 1 -2.88415 -3.70228 0.482747 
18819 1 -1.53431 -2.45959 2.73548 
3314 2 1.34813 -0.0265577 3.31103 
21204 1 -1.82339 -1.97728 0.452489 
11250 1 -4.52763 -4.12213 4.2986 
11249 2 1.30784 1.19715 0.277402 
13385 2 -0.671571 -0.229725 -2.61121 
13386 1 -3.81014 -0.152462 6.85852 
14811 1 -3.92143 -2.29587 1.50529 
3313 1 5.67606 -2.50203 -1.24481 
11248 1 -9.77342 0.721701 -1.83916 
4731 1 2.3751 3.13279 5.75701 
18817 1 3.21422 4.54539 -0.684731 
4730 2 -0.560279 -1.81973 -2.52747 
2310 1 -2.72145 -0.635216 -2.26453 
2309 2 -1.034 0.856772 4.00251 
17052 1 0.153018 -0.353345 -1.92605 
2308 1 -4.4365 -5.66224 -2.42264 
17051 2 -0.0360885 -1.98945 -0.471242 
17050 1 -2.0904 0.933983 -1.91541 
16858 1 -1.51301 1.10439 1.63515 
10098 1 -5.6447 -3.1059 -0.248958 
10097 2 1.56446 -3.50624 -0.732441 
12208 1 -3.84285 -2.08552 -1.73246 
6396 1 4.61559 -3.16178 -5.31195 
10062 1 2.40082 2.04394 -4.80669 
15468 1 0.350209 -8.49608 -2.36592 
6395 2 2.962 0.697245 -1.24454 
10061 2 2.7823 -3.61974 4.16765 
10060 1 -5.3932 -1.00863 -4.99749 
12209 2 -3.30165 -0.872618 -0.512846 
8197 1 1.80021 -0.591148 -4.3689 
11481 1 -1.96383 0.0757462 2.59974 
15467 2 -3.8335 0.30221 1.83303 
9747 1 5.45763 0.516293 1.59987 
8198 2 0.989615 -5.88251 -1.10915 
6394 1 -2.21775 2.40478 2.99024 
7762 1 -2.27842 0.239917 -7.6677 
7763 2 -1.73454 -0.231758 -0.22631 
7764 1 -0.109857 -3.16249 1.40904 
1717 1 1.36365 -2.55933 2.05532 
1718 2 2.23533 -5.17557 2.36359 
11344 1 -5.851 4.04102 1.54304 
11346 1 1.01496 0.789896 5.38019 
11345 2 2.44802 0.972223 2.02775 
5985 1 -0.833764 1.73924 0.995498 
10096 1 -0.0824738 -1.771 3.88953 
5984 2 -2.13557 2.31518 1.87966 
5983 1 3.27475 5.2705 2.92035 
14998 1 0.723962 2.0296 -0.433196 
1719 1 -1.16327 -2.68838 -1.08262 
20307 1 -0.372616 -3.607 -6.79879 
10251 1 2.59706 5.46847 0.681278 
20305 1 -2.94336 2.29264 2.15098 
20306 3 -1.21384 0.181639 -5.1881 
10250 2 -1.67983 0.264484 -2.7549 
9539 2 0.230472 0.740805 1.57576 
9538 1 4.5583 0.285451 -1.54543 
19722 1 1.03636 0.870689 -3.7321 
6318 1 5.21209 1.95245 0.721822 
914 2 -1.34233 0.604097 -1.10129 
11480 3 -0.653239 0.530317 -1.93054 
8145 1 1.9364 -4.26789 0.401467 
6316 1 3.66036 0.603913 -2.03047 
6317 2 -3.50606 1.64216 7.02666 
8144 2 2.70139 1.24198 0.844756 
11479 1 7.3654 0.936642 -6.75665 
18814 1 0.319238 2.28714 -0.888881 
8143 1 -3.35262 -5.62232 -0.057948 
915 1 -0.610352 -0.555798 6.00529 
15496 1 6.82807 0.105187 -0.862284 
18816 1 2.91718 0.117179 1.09138 
18815 2 4.13278 2.82316 -1.57614 
8880 1 -3.50276 0.564135 1.68235 
8879 2 2.18576 1.84783 -4.81719 
8878 1 -2.63651 0.620394 -1.26633 
15466 1 -5.06171 -5.20998 -0.728182 
4705 1 0.282342 -3.82636 0.472153 
4706 2 4.23714 -0.449723 0.860917 
1833 1 -10.073 -1.9978 -0.818745 
21145 1 -3.32457 1.5923 -2.84378 
13125 1 -6.22044 1.59377 1.22664 
13124 2 2.29029 5.11666 -1.7349 
13123 1 1.55083 -7.10741 -2.40897 
1832 2 3.0941 -0.0726915 -3.36669 
1831 1 4.86199 1.96846 -3.26197 
16605 1 -1.81881 -0.814678 5.5002 
16604 2 -2.43406 1.99199 1.13911 
14999 2 6.05464 -0.949537 -0.0789937 
16603 1 -4.03439 6.81912 7.30656 
4788 1 -1.64203 -0.961441 -3.08965 
15000 1 3.22048 -10.0324 -4.87761 
20490 1 -4.43723 -2.59919 -2.51581 
20489 2 0.302302 -3.0879 -0.048769 
20488 1 -2.47688 0.59767 -2.15563 
13645 1 -2.97495 5.03049 -3.30829 
13646 2 -4.55803 -0.164741 2.50711 
4787 2 -0.644682 1.32216 1.01465 
14616 1 4.49772 2.47498 -0.755645 
14615 2 -0.893474 0.328684 -4.48139 
1595 2 3.38784 -0.82919 -0.754506 
1596 1 -6.75212 3.57986 4.39034 
14614 1 1.96077 4.49647 -7.69917 
10249 1 -0.209315 2.26348 3.15464 
6918 1 7.91701 3.74921 7.47506 
6917 2 4.43693 -1.2131 1.86481 
6916 1 0.448663 3.81064 -3.16356 
7113 1 -0.919492 -2.60287 3.78034 
13647 1 -3.51063 -0.514231 -0.725928 
1789 1 -0.0918432 -0.0440512 5.16418 
1790 2 -2.03507 -0.608044 2.92709 
7112 2 2.54136 0.912817 -3.07387 
7111 1 1.58483 0.509048 1.72679 
5259 1 5.59165 2.54779 0.629577 
6633 1 -3.73005 -3.1643 4.67072 
5258 2 0.204738 3.85398 -1.94311 
5257 1 3.01143 -6.71494 -4.96034 
15742 1 -1.17287 1.82568 -4.01558 
6632 2 -2.35845 -0.687 1.04365 
19873 1 4.42433 3.34837 6.6376 
3303 1 0.47042 0.749172 2.82437 
4707 1 -1.84408 2.40102 -6.64238 
15743 2 -2.75019 1.42435 -3.79622 
583 1 -3.14459 -0.0528881 -0.998598 
15744 1 5.70168 -0.294202 -3.75193 
10864 1 0.609993 -5.54637 0.130951 
10865 2 1.03909 0.449508 -3.44716 
584 2 -0.0468921 4.67767 -0.348427 
4257 1 -0.910575 0.223499 1.71118 
4256 2 -0.0228595 -2.73228 -0.64615 
4255 1 -3.95192 4.91959 1.68399 
16276 1 -1.74567 0.371076 3.06799 
10866 1 1.27377 1.98526 -4.17327 
5359 1 -2.3701 -10.2435 -3.28872 
585 1 -6.2738 -3.57531 -5.94917 
14365 1 -7.79303 1.04326 0.674261 
14366 2 -2.71964 -0.0242811 -1.66117 
14367 1 0.377195 2.69777 0.14323 
3087 1 0.22232 3.16007 -5.53417 
5360 2 -1.62753 4.63059 1.9309 
5361 1 0.185959 4.6189 5.90583 
11390 2 2.38802 -2.86862 -1.71113 
9271 1 -1.92274 2.58132 -1.83851 
15415 1 7.30307 3.39153 -1.54736 
3086 2 0.194056 4.3486 -2.50296 
11391 1 -3.60042 1.44392 -4.98945 
4786 1 -0.895521 -1.24871 -3.47775 
14599 1 3.36222 -3.26282 2.72513 
14600 2 4.18953 -1.34679 -0.0942262 
3231 1 7.9757 -1.28943 -0.207238 
3085 1 0.925212 2.06292 -0.186696 
18813 1 -1.23394 -4.22772 0.473744 
12297 1 1.13011 -0.0472998 2.83484 
3229 1 -0.137993 1.28648 1.07587 
3230 2 -1.13699 1.7923 2.19461 
18812 2 -0.249963 -3.71361 -4.41563 
14601 1 -2.92062 4.3974 6.58015 
7417 1 0.757003 -3.69041 -7.39304 
7418 2 1.50621 -0.694582 2.09555 
7419 1 7.58557 9.6832 -8.03213 
1791 1 -3.41338 1.01999 -4.01477 
687 1 0.177563 8.10498 -4.75897 
686 2 -0.509154 3.37899 2.43314 
16765 1 2.51582 -1.41651 1.06942 
17086 1 3.03455 3.04734 -2.92431 
16766 2 -2.53872 1.32217 -0.683873 
7743 1 -1.7731 -7.93553 -3.6023 
7742 2 0.407805 4.02274 -0.0215838 
7741 1 0.293477 -2.12912 -2.01632 
16174 1 0.845303 3.02406 -0.000623342 
15718 1 -2.73482 -7.53706 5.97922 
15719 2 0.612673 2.34525 -3.59839 
16767 1 -1.84165 4.02812 -1.47444 
20630 2 -1.05646 -0.956816 -0.317663 
20631 1 -3.55789 -2.95943 -0.50922 
20629 1 -2.76733 -3.18227 1.49734 
21295 1 1.69153 4.41588 -1.15339 
17087 2 0.0742883 -3.82681 -3.02508 
21296 2 0.544104 0.732155 -1.8537 
21297 1 -7.05332 0.361755 -3.57779 
15987 1 3.61896 3.68038 2.06462 
15986 2 1.07364 -1.06311 1.41965 
15985 1 -8.04638 1.99368 -2.11432 
15720 1 2.68624 -8.32517 -5.16272 
9864 1 1.53296 2.70371 0.794078 
9686 2 1.6253 -1.22508 2.54775 
13641 1 1.50275 3.90293 -4.22283 
8803 1 -4.55088 -1.84193 0.52538 
3302 2 1.41419 1.5182 0.906747 
3301 1 2.6776 0.578775 2.28603 
12072 1 -0.331884 -0.678349 -0.686396 
13640 2 -5.38603 -0.823181 0.998427 
5404 1 0.263583 2.59319 -0.934552 
8804 2 1.10093 1.66213 -1.77742 
13639 1 0.0161804 6.51859 -1.3562 
5405 2 3.92329 0.502902 -0.705933 
3894 1 0.957401 1.81305 -0.978132 
8805 1 -3.62123 -2.80311 -0.232123 
12071 2 -1.65529 -1.92059 -0.435762 
3664 1 1.35414 -0.671143 -4.19957 
2572 1 -0.657654 -1.14095 -1.41083 
12070 1 0.791505 -5.83514 -2.0975 
2369 2 -3.31587 -1.38693 -0.0701017 
2368 1 0.367431 1.36156 -2.53631 
4807 1 2.97014 0.429769 0.0576791 
2370 1 -2.97547 0.248556 -4.16527 
9685 1 -6.46794 -0.14469 5.94914 
4808 2 2.90404 0.314713 3.51453 
3665 2 -1.21267 -0.776563 3.36471 
8461 1 1.6057 -2.68371 -1.25727 
9272 2 0.525179 -0.113803 -3.02348 
5690 2 2.18075 -3.01506 -1.79197 
4809 1 -0.827537 -3.77828 -0.216836 
15416 2 -2.40542 0.973477 5.52194 
5691 1 7.86297 -2.80307 -0.90962 
15417 1 -6.11043 0.0437848 2.14605 
5689 1 5.62399 -6.98407 -1.69356 
10590 1 0.841098 -4.48439 2.11367 
7293 1 -4.47762 1.23783 -1.43781 
18811 1 1.01146 2.27586 -2.10734 
10588 1 1.70948 2.45338 4.04745 
10589 2 2.80023 0.945074 -4.87254 
17821 1 1.47018 -0.0287555 1.65134 
17822 2 2.52597 3.35362 -2.13328 
12296 2 1.73117 1.13712 2.79368 
9336 1 8.69698 -2.6838 -0.299152 
17823 1 3.70436 1.34109 6.25985 
7292 2 2.98819 4.13414 -1.29614 
3265 1 2.81577 -1.44566 -0.960782 
12295 1 1.09968 3.87994 0.0150175 
9009 1 -6.18489 -4.90144 -1.5845 
9008 2 0.740354 -2.88728 2.52665 
9007 1 0.149627 -5.05599 0.252842 
1588 1 -5.82431 -2.26126 1.63946 
1589 2 -1.17057 -2.73572 1.31448 
4764 1 -3.60798 -2.07468 0.49994 
685 1 0.261425 -0.860033 -3.35749 
3740 2 1.39232 1.68211 1.37957 
14809 1 -5.65638 -4.55368 3.18222 
17155 1 -4.20907 0.0524984 -7.6664 
17157 1 -0.8471 -4.60003 3.08558 
17156 2 -1.97502 -1.88233 -0.879121 
17088 1 6.00297 4.95598 0.529779 
3739 1 -0.613954 -2.60748 -5.49487 
9123 1 3.55681 4.98498 2.14389 
9122 2 5.39693 -1.64775 -2.37263 
1590 1 -2.02664 5.12253 1.26825 