ITEM: TIMESTEP
50000000
ITEM: NUMBER OF ATOMS
3942
ITEM: BOX BOUNDS pp pp pp
0.0000000000000000e+00 5.0000000000000000e+01
0.0000000000000000e+00 5.0000000000000000e+01
0.0000000000000000e+00 5.0000000000000000e+01
ITEM: ATOMS id type vx vy vz 
12571 1 2.642 -3.10738 -4.28938 
12573 1 3.12773 5.97172 2.81769 
12572 2 -5.65992 -0.416653 -3.2882 
4581 1 -5.56744 -2.07153 2.35559 
4580 2 2.45988 2.10316 1.83454 
4579 1 3.00068 -4.0801 0.420378 
6219 1 -3.33074 0.152707 -3.32393 
2571 1 2.1365 2.24416 -0.338475 
2570 3 1.02229 1.59548 -1.76456 
6218 3 0.610917 3.46681 4.62362 
7533 1 1.97162 -0.897591 -3.46376 
7532 3 2.1854 -0.99883 0.354924 
14157 1 3.49835 -2.0287 -8.39291 
14156 3 5.83817 3.28045 2.21776 
15024 1 -0.949862 4.19969 -1.56508 
15023 3 -0.952814 -2.95147 1.81845 
10239 1 0.548654 -0.278678 6.41803 
10238 2 0.499141 1.5598 1.50849 
5560 1 3.58091 6.41236 -10.491 
6957 1 1.30983 -1.59759 -8.03276 
5561 3 1.85242 3.91588 -3.37595 
14155 1 -2.62782 -2.37027 -6.4801 
10237 1 -2.70267 -7.25192 1.13403 
3475 1 -1.81607 -3.40433 -4.55178 
3477 1 7.8133 -2.9175 8.7585 
3476 2 3.61705 0.642317 -0.703862 
8619 1 5.7249 1.11323 -3.26241 
8617 1 -4.03994 3.99035 1.05637 
8618 3 -0.568845 -1.1873 0.288459 
12845 2 1.62847 4.98538 3.04247 
12844 1 1.47308 -2.81341 5.43397 
1995 1 -3.05576 1.01816 -4.33901 
722 2 -0.352419 -0.761418 0.457074 
723 1 1.39624 0.680344 2.74943 
721 1 2.26842 3.04983 -0.19391 
20420 3 -3.64467 1.88041 -0.734952 
20421 1 -2.22353 -0.12601 9.57446 
20419 1 -3.54512 3.52773 -3.95833 
15022 1 -0.646177 5.07866 -2.64428 
6956 3 4.04018 -0.362073 2.99226 
6955 1 5.09102 1.56961 3.76487 
5562 1 3.6092 1.74063 -0.441118 
20481 1 3.5862 -5.01949 -0.573798 
13197 1 0.968159 2.76585 -3.7107 
13195 1 2.40108 2.46963 -4.13894 
13196 2 4.33777 0.205472 -0.851942 
8362 1 0.152518 2.19119 3.58857 
12846 1 2.9607 -2.43429 -0.00031926 
17676 1 -7.22667 5.29683 -2.19658 
17675 3 -0.731526 2.39066 -3.75884 
17674 1 5.63832 3.27876 -2.13135 
1257 1 1.43412 -1.65285 2.30523 
3103 1 1.31437 5.02728 3.06972 
3104 2 2.68652 -3.63797 -0.651124 
18889 1 1.77893 1.72843 3.96878 
18891 1 -2.06614 -1.9108 -2.38797 
18890 3 -3.38212 -4.14841 -0.898521 
19714 1 -4.21181 -4.09169 -0.604147 
19716 1 -5.99015 0.843399 0.0271067 
19715 2 0.537884 1.40585 0.883304 
20479 1 4.70654 2.65701 -1.28713 
20480 2 -0.227019 0.84601 -1.15756 
18996 1 -0.344408 2.83029 2.22538 
16552 1 -2.44444 8.02249 -1.68656 
16554 1 -3.91784 -4.20882 -0.53771 
16553 2 2.12095 -1.20856 1.11345 
8363 2 -2.77673 -1.65321 2.38302 
8364 1 -3.32442 -1.59834 0.595342 
3577 1 1.1894 1.9113 9.08704 
16469 3 -1.10172 1.13143 -1.34834 
16468 1 -2.31401 1.76312 6.38743 
9912 1 -5.98241 -1.92216 -3.8942 
9911 2 -0.864977 -1.93973 -3.64915 
16470 1 1.36499 1.25622 0.469757 
9910 1 1.91596 -4.28542 4.29772 
5607 1 1.88832 6.22053 4.69678 
5606 2 3.45474 0.820834 0.0173641 
1256 2 -0.902911 -2.48946 -0.980283 
1255 1 0.0663603 -5.00532 -4.74895 
765 1 0.765922 3.32562 -0.0627606 
764 3 -1.92646 1.76642 -4.89175 
763 1 1.44406 -0.830038 0.599673 
3105 1 2.58489 2.26065 -0.967844 
7663 1 -2.53572 2.6603 -0.343677 
7664 2 -0.777518 5.55694 1.33155 
3173 3 1.14483 0.0916251 0.476131 
3174 1 -3.35282 2.68914 2.50961 
6711 1 -3.63401 -0.879942 3.28166 
6710 3 -1.57154 0.442292 -0.0620313 
18995 3 0.501068 -1.73572 1.93534 
18994 1 -3.08157 2.6254 -9.36444 
6709 1 -2.71137 -1.50351 -1.54365 
3578 3 1.82443 2.18996 -2.00448 
5605 1 -1.86217 0.812206 -4.25247 
16296 1 -4.38822 2.40832 2.00179 
7665 1 7.20479 -2.93136 -0.385643 
3172 1 -8.3486 1.82919 -2.55872 
14522 2 1.28388 -1.5153 -1.30041 
14521 1 -3.2754 2.80995 2.07928 
11176 1 2.4434 1.14484 4.8808 
11177 2 -5.20118 4.14882 -0.0664137 
11178 1 2.46178 -2.05528 3.63206 
12054 1 -0.31077 8.61826 -2.47077 
12052 1 2.10499 0.872281 0.653215 
12053 3 1.99577 0.0444979 -1.741 
12087 1 -0.317146 -4.32955 4.38142 
12086 2 -2.36914 -3.44646 -1.45291 
16295 2 4.51147 -2.97483 0.850409 
16294 1 -8.27576 -3.81534 -2.94587 
11762 2 -3.18787 -1.49778 0.611715 
11763 1 -2.10971 0.384586 -2.42608 
11761 1 0.595016 0.374939 -6.4092 
6775 1 -3.1877 0.203564 -0.667034 
6777 1 0.206848 -4.62322 -4.42492 
6776 2 -0.0194924 1.96019 0.224683 
4356 1 -3.28077 -0.6385 -0.68515 
4355 2 -2.14264 1.51562 -1.98342 
4354 1 5.19855 0.648136 -2.80941 
9383 2 0.473783 4.29921 -2.16728 
9382 1 -1.18239 4.13447 2.17557 
9384 1 4.83189 2.96496 -0.161402 
20976 1 -0.521782 -2.50293 3.52574 
11615 3 -3.52986 1.80383 2.20142 
11616 1 -0.418087 7.19648 -8.63143 
11614 1 6.49173 -1.85693 2.29889 
14523 1 2.20221 -0.608739 -4.95714 
8101 1 -6.02299 -2.11979 -0.997117 
10371 1 0.563509 -1.62829 -4.69327 
10369 1 1.24221 1.21996 -0.151571 
10370 2 5.50002 0.773153 3.03502 
18217 1 -0.257987 6.36723 -1.10547 
1747 1 -0.141726 6.88211 -1.0443 
12085 1 2.35196 0.703429 -2.02794 
13489 1 -2.96189 -1.44044 -1.38034 
1748 3 4.30256 4.30967 -2.26791 
7577 3 1.18296 4.84131 0.729239 
7576 1 -2.29047 7.18395 -1.08455 
1749 1 0.280865 -1.57797 1.23534 
20770 1 -4.6985 0.557133 3.76719 
20771 3 2.67473 -2.79284 1.53721 
13490 3 2.00476 4.46356 3.41126 
16882 1 2.10121 1.10804 1.70029 
13491 1 -5.80113 4.7901 8.14693 
7578 1 -2.67227 -0.294413 -3.58001 
12985 1 4.61947 -0.0490674 -0.845851 
12986 2 -1.93488 3.29211 -1.54494 
4458 1 0.711044 3.79212 4.41256 
12987 1 -2.03732 -4.11217 -0.493046 
4457 2 0.661992 1.83687 3.24205 
20002 1 -3.0724 2.90552 -3.83369 
20003 2 0.96511 0.0631452 -2.04936 
20004 1 -1.57329 -3.45436 -4.04559 
11340 1 4.1693 -2.53705 -4.88449 
11338 1 -4.2425 5.77116 -5.8001 
11339 3 -1.66547 -1.855 -5.00926 
4456 1 -0.580474 -2.84924 1.60863 
2783 3 1.87875 -2.40986 -1.0346 
2784 1 -0.869905 2.41847 4.80019 
21034 1 1.89499 1.00444 -4.07182 
21036 1 4.70472 0.607586 2.41102 
21035 2 -2.07838 2.05417 0.627207 
1027 1 3.99467 1.70606 0.163705 
1028 2 -0.0212486 -2.24796 -2.82971 
15967 1 -4.39734 -2.74451 0.584205 
15969 1 -1.13122 3.4579 0.779542 
15968 3 -3.35982 2.48251 -1.95367 
15184 1 6.43084 0.615511 5.97992 
20975 3 -0.599478 0.569548 -0.93401 
13371 1 2.12959 5.23273 -1.27722 
17826 1 3.70224 -3.17739 -1.44597 
13369 1 2.84887 2.52865 -5.254 
13370 3 -1.31969 3.28471 1.83384 
17825 2 -1.1679 -0.818211 0.386085 
20974 1 1.24001 -3.02854 6.80786 
17824 1 -7.89273 1.33906 4.22969 
19565 2 0.925404 -4.22107 -2.31425 
19566 1 -2.38058 -3.96384 2.2491 
9133 1 0.387933 4.93604 -2.28839 
9135 1 0.814957 -0.709768 0.268152 
9134 3 -1.01766 -1.82198 0.291479 
19564 1 -0.927581 2.02748 0.295936 
1063 1 -2.3183 0.0788072 -3.36591 
1065 1 0.918042 3.05075 1.45241 
1064 2 1.70781 1.69306 -0.802878 
11500 1 4.11067 -0.985318 0.344063 
19682 3 2.85968 -1.14002 1.73554 
11502 1 1.92614 3.16066 3.70071 
19681 1 -0.993578 -2.54596 -3.02107 
11501 2 -0.0852081 2.01047 -2.56922 
13819 1 3.43702 -5.7511 -0.803286 
2498 3 2.11748 6.32416 0.90239 
2499 1 -0.197769 8.56078 -0.174652 
13821 1 1.07634 0.937404 -2.0773 
13820 3 -0.384725 -1.21671 3.11029 
2497 1 -0.890048 -6.33636 0.196318 
599 3 -5.37588 2.62007 3.32313 
598 1 2.37817 3.69446 1.78467 
19683 1 -8.4943 0.261489 5.48365 
8103 1 -2.92301 -7.95196 4.64335 
8102 3 2.27594 1.44441 3.31764 
21283 1 2.12767 1.52876 2.84956 
21284 3 0.90049 2.26935 1.90812 
21285 1 -3.03865 0.844652 1.57354 
16883 2 -0.0386293 0.338748 1.17986 
16884 1 -0.0815511 -2.12579 -3.31715 
2782 1 -0.650073 -4.94062 -4.31617 
5716 1 0.473421 -4.30507 -2.43905 
5718 1 -5.63829 3.13944 -5.10577 
5717 2 0.623249 4.07487 0.0642743 
81 1 -2.35285 0.500083 1.0155 
80 3 -0.401136 -0.160962 -0.976419 
14965 1 0.282094 -2.18176 -2.50525 
14966 2 -2.71196 2.80387 1.65842 
3651 1 -1.28286 0.35748 2.30677 
3649 1 1.27352 -0.251791 -4.43278 
3650 2 -2.1442 2.84567 2.48752 
15186 1 0.739797 -5.22444 -0.474193 
15185 2 0.188215 -2.29235 0.512749 
9094 1 -1.30799 -0.476278 4.18834 
9095 2 -0.360926 0.887721 -5.29288 
9096 1 2.51363 -0.700041 -3.19665 
19139 3 -1.98515 1.92109 4.40997 
19140 1 1.16701 -0.731919 0.974176 
19138 1 6.09672 0.685118 2.99049 
600 1 0.0404966 6.25392 -0.544546 
9583 1 -3.85808 -2.94697 0.990382 
9584 3 -0.350668 -0.0583597 -4.77777 
9585 1 5.55965 -0.441764 3.01031 
1066 1 4.78454 1.0417 -1.09677 
1067 3 1.36234 2.20338 -1.71049 
19387 1 3.76317 -3.5192 3.05446 
1068 1 4.37435 3.37885 1.25653 
19388 2 -3.12071 2.58109 -2.50952 
19389 1 2.88765 -7.25313 4.34497 
8745 1 -3.08407 -5.31151 1.83109 
79 1 -1.0622 -2.5217 -0.437281 
7272 1 3.17713 -0.0170167 2.65019 
7271 2 -0.514904 1.1542 3.40975 
7270 1 -0.554592 2.07715 -3.04811 
19386 1 -5.79716 -0.122952 3.71289 
19385 2 0.368001 -0.162747 1.4593 
19384 1 0.210305 3.25827 -3.97605 
19807 1 4.40689 0.664528 -7.48041 
14967 1 -0.550721 2.52843 -1.75705 
19808 3 -0.0427112 -0.456076 -1.70717 
19809 1 0.752009 -4.78072 2.37616 
21263 2 0.678533 -0.965575 -2.42435 
21262 1 -0.231222 -2.01291 -5.27033 
21264 1 1.79893 -6.52872 1.15751 
12328 1 -1.885 -0.672677 -2.8013 
12330 1 0.0653253 1.21888 -1.45968 
12329 3 1.97803 3.32057 0.169062 
4277 3 -3.83602 0.692041 0.860857 
4278 1 2.23224 -2.30733 2.39893 
6977 3 -0.185922 -3.0797 -1.1981 
6978 1 4.86094 -2.42588 2.36719 
4276 1 -2.43542 -4.2708 -8.72845 
9318 1 2.00474 0.900923 2.40884 
9317 2 -1.05062 2.93215 2.05635 
9316 1 2.52707 -4.71088 -1.12543 
15109 1 4.89449 -6.54095 -2.768 
15110 3 -6.46087 3.85804 -0.356758 
17217 1 -0.341248 -1.84552 7.26886 
9140 2 -1.39928 -1.45076 3.01748 
9139 1 2.0501 2.89821 -5.06089 
9141 1 -0.188659 -2.2241 2.15652 
15111 1 -1.07045 -3.59667 1.79228 
15668 3 -1.49891 2.41767 6.18705 
15667 1 0.0989855 -5.19363 8.94257 
11142 1 -5.55056 4.06252 -5.99049 
11140 1 -2.55183 -0.245974 2.66404 
11141 2 2.46181 2.58155 -5.68969 
21511 1 -2.17917 1.77874 1.53911 
21512 2 -0.851229 -3.37247 -0.891729 
12081 1 0.862328 -8.56632 5.62968 
12080 2 2.75588 1.70754 -1.37976 
12079 1 0.566267 1.71569 4.12203 
6514 1 -1.87204 -0.931912 2.0818 
6515 2 1.28073 3.07568 0.578785 
6976 1 -0.906683 1.9194 1.32325 
6516 1 0.114639 -4.59855 -1.33648 
17216 2 2.24555 -3.2704 -1.36584 
17215 1 1.62191 1.28604 -3.44509 
20941 1 -2.602 -2.5761 2.65316 
20943 1 -0.00923346 -2.29156 -4.03311 
20942 2 -0.951238 -3.07365 -3.9781 
15669 1 0.78291 8.25521 0.907011 
17309 3 1.66239 -0.888956 3.68945 
17310 1 -2.35952 0.83195 5.78808 
17308 1 -1.21693 3.2867 0.89831 
8344 1 -3.35542 1.3319 -0.540515 
11756 2 0.630195 3.34105 -0.56953 
11755 1 2.21422 10.1348 -1.5686 
21513 1 5.0602 -1.91145 1.06086 
2324 3 -4.20078 -2.35475 -2.06225 
2323 1 4.11015 1.56978 -0.320693 
2637 1 2.88425 -0.175798 2.34356 
2636 2 0.854381 -1.13329 -0.417241 
2635 1 2.13728 -4.53613 -2.17187 
403 1 2.63414 1.59067 -5.82205 
20153 2 1.96326 -2.50791 1.04991 
20152 1 -0.129075 -3.60045 -0.863854 
19948 1 0.508299 -1.703 -1.60313 
19950 1 4.07922 1.47411 -1.62007 
19949 2 -0.548235 -2.37477 -2.79842 
4260 1 4.33191 0.4467 -4.87579 
13085 3 0.911178 2.54779 0.236837 
13086 1 -3.70872 0.39661 6.55729 
13084 1 3.82812 -2.11228 1.94977 
4259 2 -0.686254 -1.16545 -2.22204 
3594 1 3.67628 5.87116 -0.204283 
4651 1 1.7724 -1.95579 4.05739 
11901 1 4.40734 3.7191 1.31119 
19953 1 -3.32925 0.727391 -0.175886 
19951 1 3.8311 -1.1556 -1.9793 
19952 3 -5.64928 -0.992904 -1.50386 
11757 1 -2.83086 0.249563 7.12935 
2325 1 -5.49214 -9.70731 2.08038 
20613 1 3.93764 4.80465 3.01415 
11566 1 -4.20011 -0.43216 -4.79233 
11567 3 -5.08673 0.279042 -1.60472 
11568 1 -0.188638 0.288111 -1.5766 
404 3 -1.12766 -2.19845 5.78621 
405 1 2.20547 3.95984 -0.291139 
15879 1 -3.75686 -4.11253 0.0705235 
481 1 -0.423322 0.804922 2.54678 
15821 2 -3.5693 -4.19751 0.205043 
15822 1 -1.85506 2.78452 0.464204 
9085 1 2.48376 3.14173 3.79431 
20154 1 2.86722 -3.2962 -3.64174 
12276 1 2.31527 5.64802 -11.6733 
12275 3 -0.254056 1.10339 -2.50302 
482 3 4.61555 -2.71966 -0.76222 
483 1 -5.11059 -3.26154 -3.37183 
12274 1 -1.84352 -4.20196 -2.36175 
15820 1 11.9831 2.28138 -5.26735 
17454 1 2.65497 4.81493 5.85925 
17355 1 1.1049 3.00395 -1.78077 
17354 3 -0.534144 4.96817 -0.445635 
17353 1 -2.97532 -0.812434 3.61673 
17077 1 -2.54182 -2.4831 2.12014 
4258 1 -0.832726 -0.615291 -3.81168 
10863 1 -1.55437 -1.16598 2.97683 
10862 2 -2.14372 -3.16532 0.66867 
10861 1 -5.71684 0.316035 -2.26099 
8308 1 5.90246 -2.26486 1.32377 
8309 2 -0.626543 4.70862 4.94034 
20430 1 -1.87553 -0.64176 -0.216223 
20429 2 -3.36611 -1.64975 -2.31733 
20428 1 -1.27648 4.16802 2.01909 
18615 1 -3.68415 -11.5976 -3.57755 
18613 1 7.73922 4.18713 -0.832128 
18614 3 1.59913 1.5922 -1.06471 
10271 2 -0.950765 2.58592 3.05322 
10270 1 0.52103 -2.47464 -2.55341 
10272 1 3.18419 -0.093889 -0.791862 
18769 1 1.76037 4.92709 -1.99359 
8454 1 -1.01582 -1.56973 -4.73733 
8453 2 7.40649 -2.01129 0.379213 
8452 1 1.95198 2.93032 7.45795 
13947 1 -1.76229 6.34153 2.09153 
13946 3 1.46319 -1.79147 1.89206 
13945 1 -3.29949 1.64525 -3.22922 
9783 1 -6.44497 8.28233 3.02255 
9782 2 -5.52219 1.63799 -2.93029 
9781 1 0.458861 0.286729 -8.15523 
7080 1 -2.39806 -2.05878 1.15062 
7079 2 1.70298 -4.53363 -2.48731 
7078 1 -1.48252 1.08939 -2.46425 
3360 1 -0.598092 1.30953 -3.42073 
3359 2 -1.04547 2.0026 0.0792881 
3358 1 1.27847 0.091539 -0.548162 
15865 1 -9.66125 -2.7244 3.33675 
15867 1 2.73521 -1.16052 0.144536 
15866 3 -0.0412877 5.52128 -1.33917 
14063 2 4.58958 1.32638 -6.60232 
14062 1 2.77279 -0.893977 -3.34143 
14064 1 -2.92811 -1.69088 -5.06807 
10532 2 0.429639 -1.92797 -0.308271 
10531 1 -0.247869 -1.00029 -1.39526 
10533 1 -2.92984 3.30104 1.89811 
3879 1 -2.20039 1.99853 2.83019 
3877 1 2.02884 -1.70944 5.6352 
3878 3 2.54519 4.13162 4.08814 
7273 1 -2.85181 -0.702416 2.44093 
3960 1 -1.40924 -6.96987 -2.89637 
11173 1 -1.10139 1.93531 -2.21806 
11174 2 -0.572992 1.86794 -3.39589 
15779 3 -2.30103 4.60587 -0.492778 
15778 1 2.66497 -3.01475 -1.59915 
11175 1 9.36371 3.22439 4.43912 
3579 1 5.64708 -0.44575 3.43008 
12406 1 -3.25894 -0.0420546 2.49431 
12407 2 -1.00279 2.31002 0.432283 
12408 1 1.21779 3.69096 -3.77211 
15736 1 -3.73127 -3.80848 -0.892449 
15737 3 5.06157 -5.43933 1.00685 
15738 1 -0.990548 2.66728 8.25947 
12089 2 0.667479 0.0722428 5.53031 
12090 1 6.22977 -3.64795 -6.20012 
5239 1 0.671346 -1.17262 1.5817 
14034 1 -3.26119 1.27822 -6.76087 
5240 3 2.854 -2.84609 1.03308 
5241 1 -8.19407 2.29603 -3.54157 
16022 3 4.84328 3.82488 0.909669 
16021 1 -5.26103 -1.56459 -5.64245 
16023 1 4.86228 -4.79176 1.74085 
12348 1 -4.48051 -1.75855 0.714804 
12347 3 -5.74682 -1.09523 -0.110982 
9111 1 0.110513 -5.29166 3.17055 
12346 1 -0.338709 2.79136 -0.215557 
7274 3 -0.411699 -2.88093 -1.08248 
7275 1 -5.37746 4.79893 4.02231 
15515 3 2.1747 2.51736 -0.434064 
15514 1 2.58053 7.74776 -1.83856 
3959 2 3.32875 3.29221 -1.02852 
3958 1 1.10757 7.84145 0.0163647 
17515 1 0.439856 2.56365 6.68773 
17517 1 1.36605 2.9264 -0.619648 
17516 3 -2.68779 1.23036 1.89337 
18395 3 0.716906 2.86441 2.0025 
15780 1 0.386537 5.72089 -1.51878 
18396 1 0.440275 -0.261211 3.65505 
18394 1 2.94152 -0.312891 3.78715 
3580 1 -1.46143 -6.43563 2.70263 
3581 2 4.62655 1.23376 0.706705 
3582 1 2.29824 -1.88166 4.55354 
12088 1 -5.10262 2.80616 5.01065 
14032 1 1.37717 2.00574 2.65244 
14033 2 -0.324165 -0.519375 -0.323903 
9110 3 1.85721 -3.46162 -1.92739 
6754 1 0.91836 1.45731 4.23593 
21504 1 -1.37343 -6.61245 1.28942 
21503 2 -4.37827 1.50617 7.53544 
21502 1 -0.860465 3.03801 0.829014 
9109 1 -3.93654 -2.67469 -0.297584 
6755 3 -0.443787 1.42309 -1.37916 
7793 2 -2.63743 -0.217897 -1.37991 
7792 1 5.86192 -1.37039 -0.634567 
6756 1 3.25716 2.45941 -0.542999 
15516 1 3.30549 3.57373 1.20777 
1442 2 0.455575 4.08971 0.14538 
1441 1 -2.39952 1.33264 1.52698 
1735 1 1.3765 -4.69794 2.67316 
1737 1 1.1203 -3.03448 -7.19631 
1736 3 0.0129116 -0.2256 -2.987 
7794 1 -0.595151 3.46197 -1.7569 
1029 1 1.42365 -0.899395 1.72561 
967 1 -0.414586 0.541391 0.814494 
968 2 -2.62745 0.79882 2.63904 
969 1 0.172213 -1.59868 -2.59561 
1443 1 0.275544 -2.04432 -1.73462 
14679 1 -2.09125 0.72523 0.791873 
14678 3 -1.38015 3.53136 -0.306945 
14677 1 0.821701 3.15561 7.4862 
10824 1 -1.18818 3.54128 4.93592 
10822 1 2.86694 0.444303 -1.11387 
10823 3 -0.458174 -1.70815 -1.97119 
4048 1 -0.308763 -4.08948 12.0439 
4049 2 3.67039 -0.0631916 1.63363 
4050 1 2.40928 1.01971 1.60815 
12356 2 -1.62916 0.86782 0.755024 
12355 1 -1.82233 0.671248 -4.57381 
12357 1 -1.80425 -3.39719 0.761805 
7687 1 -3.83364 0.661416 -2.28938 
4339 1 -0.624507 1.62946 2.17358 
4340 2 0.912269 5.06349 0.0644618 
4341 1 5.30529 -0.836536 -3.84068 
7688 3 -1.86063 0.501893 -2.49835 
2580 1 0.626615 5.2001 -3.32597 
6988 1 -0.287333 1.23546 -7.24659 
6989 2 -0.416061 0.316389 -0.694581 
6990 1 -5.49347 5.06872 1.66649 
10599 1 4.89891 -3.10071 -1.14892 
10597 1 0.872708 2.44837 -2.64254 
10598 2 0.369235 2.62221 2.18955 
7689 1 1.69966 1.40227 4.44893 
11911 1 -1.31039 6.16766 -6.13217 
11912 2 0.888102 1.76713 1.09272 
11913 1 0.0757358 -1.26088 2.37001 
14901 1 -6.27337 -3.18667 -2.34519 
14900 2 -3.49858 3.35027 2.49367 
14899 1 -3.79874 -5.35465 5.15635 
15799 1 1.82698 2.22302 -5.82491 
15801 1 0.496691 -4.81967 -1.5082 
15800 2 2.41419 -3.40997 3.45707 
7975 1 -1.28065 -3.24962 -4.80266 
4113 1 -2.91146 1.27613 -2.00734 
4112 2 -0.63641 0.756845 -4.65389 
4111 1 -6.63659 3.51753 1.20812 
9146 3 -3.32108 -2.10881 -5.55591 
19532 2 0.55728 -2.43951 2.05114 
19531 1 0.309312 -3.22153 2.15834 
9147 1 -9.14423 -7.1292 4.26911 
19533 1 -1.41688 0.216853 -5.03159 
9145 1 5.98006 3.91854 1.73885 
8345 3 -1.684 -2.99474 -0.11513 
8346 1 5.56242 6.74163 1.10476 
7976 2 0.295208 -1.37488 6.9416 
7977 1 6.56329 5.37426 -1.98176 
20915 2 -1.63696 -1.82829 -1.20641 
20916 1 0.486529 -4.88693 1.06358 
20914 1 -3.43101 -0.616314 3.30173 
15948 1 -2.92857 7.64834 -0.374665 
3334 1 -3.42077 -2.982 2.73792 
3336 1 -4.35576 2.55847 -7.24873 
3335 3 -1.41239 2.19484 0.143372 
9619 1 -0.631948 0.713617 2.2938 
9620 2 0.754503 -2.09007 2.63657 
9621 1 1.54983 0.0579328 -1.13755 
16384 1 -8.07792 0.916858 -3.43875 
8583 1 -2.04817 2.63492 3.98372 
16386 1 3.46906 -0.433895 0.427772 
16385 3 2.40533 2.35559 -1.74637 
8582 2 -1.20334 -0.660045 2.53387 
6079 1 3.74865 2.54779 -0.208376 
1156 1 1.78495 -4.65411 -3.49863 
1462 1 3.18293 0.439037 0.0118956 
1463 2 -1.08397 -3.43989 1.32924 
1157 2 -0.155433 4.26388 -2.36078 
16524 1 0.466595 0.0768802 0.586271 
1464 1 0.22275 -1.73979 0.278042 
16523 2 0.761322 -0.0419204 0.163208 
16522 1 3.34172 0.975804 0.252971 
5797 1 -2.23522 -1.81398 -2.71266 
2018 2 2.08928 1.37608 4.01153 
2017 1 -3.53804 -5.40284 3.69008 
15947 2 1.7678 -0.908223 3.19234 
15946 1 2.62743 -2.23669 7.60393 
2019 1 0.0452158 -1.4224 -4.35734 
15877 1 -2.77638 3.6855 -3.35848 
15878 3 0.101944 2.37338 2.78474 
9086 3 1.35752 -0.162771 0.130115 
9087 1 -9.64873 -0.437172 2.54529 
17079 1 -0.83335 2.47784 -3.53316 
17078 2 2.06644 -3.31355 -3.30539 
8581 1 -0.54959 -1.27291 1.20955 
19824 1 -5.90305 1.40684 -4.21635 
19823 2 0.815027 -3.66819 0.0445812 
19822 1 -7.2149 0.333276 -0.228726 
13816 1 0.452452 1.82492 -1.25501 
3592 1 -1.02931 -4.02563 0.986426 
3593 2 -1.21278 2.59494 0.550676 
13818 1 3.47781 -4.97012 1.26044 
13817 3 1.96097 0.183171 -0.176326 
8818 1 1.11829 -0.701881 -4.27123 
8820 1 -2.57208 7.37533 -2.48282 
8819 3 1.15802 -2.61074 -2.35239 
6080 3 -0.371966 0.922669 -1.80007 
17732 2 2.1302 -0.462352 0.370303 
17733 1 -1.36501 -0.543357 -2.95234 
4653 1 3.71177 4.39775 5.46937 
17731 1 -1.94119 1.70597 5.97797 
4652 3 2.65526 0.594761 0.999583 
9625 1 -3.02937 -3.43349 -2.79453 
18918 1 -2.1992 -1.77846 -1.67526 
9627 1 -3.31689 -0.618668 0.33223 
18917 3 -3.06112 -1.34426 -1.46976 
9626 2 -0.852322 -1.60733 1.26703 
18916 1 -0.744135 -5.09636 0.0476569 
11899 1 -3.81999 -8.24544 -1.61013 
1158 1 -2.66702 0.941343 0.389907 
11900 2 2.61233 -2.65139 -2.59648 
1763 2 4.04858 1.71669 -0.449482 
1764 1 4.35335 2.34107 -3.40781 
5798 2 -2.29603 1.63183 2.15139 
20611 1 -0.460277 -0.105375 -2.11519 
20612 2 2.14332 2.87083 2.1389 
5633 3 -0.327854 0.857498 -0.138819 
5634 1 -0.820811 -6.22203 -3.01082 
5799 1 -0.097928 -3.55931 -1.00418 
5632 1 3.87924 6.01517 6.35419 
5058 1 2.04103 3.57834 1.21013 
5056 1 0.363576 -1.75608 2.00559 
4993 1 -3.17888 -1.19753 -7.28508 
4994 3 -3.77585 6.35394 1.57535 
5057 3 2.01311 0.378289 -0.638032 
7440 1 -1.87224 2.12728 -2.05831 
7439 2 -4.67259 -0.97914 3.62989 
4995 1 -2.04468 -0.67997 -5.27157 
18134 2 -2.08773 -2.18023 -1.71468 
18135 1 1.54535 -0.435509 -2.32996 
18133 1 -2.23118 -0.543939 0.238657 
16398 1 0.195454 2.78135 -3.32829 
16396 1 -2.28109 2.03604 -2.77841 
16397 2 -2.21727 -6.88585 2.30701 
2821 1 3.07324 8.24704 -1.89176 
2822 3 0.28466 -0.885931 -4.18995 
2823 1 -0.0652418 -5.64153 4.62969 
17453 2 -1.25705 1.10059 -0.671177 
17452 1 2.7757 2.00118 -2.22122 
20486 2 -4.87275 0.630443 3.32701 
20485 1 -5.89825 -0.087794 1.17989 
20487 1 1.82161 2.45096 0.0635037 
11483 3 0.0218762 0.317095 -4.67597 
11482 1 0.830207 3.75435 1.53115 
12333 1 -2.14193 4.82876 -2.56295 
17204 2 -1.74133 -0.772656 -1.43806 
17203 1 2.0356 -12.852 0.176535 
17205 1 5.93927 -0.711307 4.94434 
18686 3 4.10797 -2.79167 6.28437 
18685 1 -4.92945 -1.19158 2.26862 
18687 1 1.34315 -0.656134 -6.74578 
17791 1 5.71011 0.265533 4.8624 
17792 2 -1.88644 1.12013 -2.9484 
14819 2 -2.05765 -1.40064 1.05699 
14820 1 4.14695 6.42133 3.45013 
18666 1 0.00917108 9.33635 -1.46948 
16503 1 -0.678045 8.67239 -0.38549 
19347 1 6.96672 -7.17739 -3.52396 
19346 3 1.73957 -5.03495 -0.915632 
19345 1 -6.73648 -4.42461 4.22064 
7534 1 -0.0860667 6.70941 4.36722 
7535 2 0.135892 -2.76071 -3.60609 
7536 1 1.87194 -4.39643 -1.02797 
20318 2 -0.967008 -2.51306 1.97725 
20317 1 0.572635 0.0997421 -2.32838 
10990 1 -0.239793 -4.26279 0.160856 
20319 1 3.95676 -0.210508 0.266968 
11799 1 1.33069 -2.24099 -0.525983 
11798 2 -5.0599 2.19148 3.31313 
12160 1 2.40365 -4.20499 2.62422 
17182 1 -0.448931 -1.11423 4.26883 
580 1 -4.91537 -0.382274 2.16123 
582 1 4.49952 1.03068 -0.365952 
581 2 -2.27266 1.02158 3.5468 
12161 3 0.744733 -4.29804 -3.07932 
4174 1 1.25024 -6.31204 1.54928 
1762 1 1.11116 7.64568 -1.66445 
1562 2 0.710924 -0.690084 -1.62496 
1563 1 5.30415 6.29976 -3.34751 
1561 1 -4.8502 0.258551 1.56629 
17184 1 1.32358 -2.8241 -4.6891 
17183 2 1.81697 -2.8865 1.83838 
4175 2 -0.774412 -1.61103 0.815807 
4176 1 1.74352 1.73259 -1.60726 
19307 3 2.42498 -0.924129 -1.85394 
19306 1 3.79818 0.722495 4.88635 
19308 1 -1.92975 3.7483 -1.7508 
4381 1 -5.90102 -6.14535 6.60781 
9341 3 -0.507833 -1.88941 0.855973 
9342 1 -5.36131 -1.54898 -1.61791 
9340 1 -2.96424 -8.29109 -1.05561 
4383 1 -1.31667 -4.08953 -1.3756 
4382 3 -3.26405 -1.50506 -2.8717 
18478 1 1.65814 -2.98965 -2.39181 
5663 3 1.46448 4.4629 1.91479 
21244 1 2.10994 -3.42863 3.24418 
5664 1 1.28448 1.5434 0.454942 
21245 3 0.431065 0.184435 -5.67024 
21246 1 4.76005 -2.17703 -3.36914 
11484 1 0.392431 1.70663 -8.73861 
12332 3 1.33625 0.806221 1.91795 
19454 3 -0.78423 3.44429 0.501241 
12331 1 1.74941 4.40735 -1.02014 
19455 1 1.05548 -3.86306 6.18888 
13949 3 1.46024 1.53897 -1.71703 
13948 1 -5.54134 1.52836 -4.51592 
13950 1 -3.80773 -1.20843 1.58469 
19453 1 -1.98058 2.79961 1.83647 
8958 1 3.48061 1.59178 -3.10678 
8956 1 -3.2591 0.149193 -0.831942 
8957 2 3.5394 2.16689 1.33775 
17793 1 -0.622162 -5.14785 3.55962 
14818 1 -2.19126 -0.090155 -1.41651 
12700 1 0.98354 6.72965 0.353175 
12701 3 -4.11215 -0.947498 2.2653 
12702 1 -0.284814 6.39935 -4.82137 
21090 1 0.83416 -0.794276 0.46402 
20690 3 3.91286 -2.16235 1.30762 
20689 1 -5.02287 -1.33156 1.47916 
9327 1 -1.77574 -4.44708 6.96758 
9326 2 -1.16389 -3.60704 -2.89006 
16501 1 -1.73066 -1.16715 -0.366795 
9325 1 -0.381625 6.05426 -4.56088 
16502 3 -2.13007 -0.702426 -2.68154 
1042 1 2.375 -6.86167 -3.57857 
19815 1 -2.1515 -1.8345 1.99272 
1043 3 0.517054 1.34239 -0.219156 
19813 1 8.32273 1.16111 -9.1983 
19814 2 -2.57951 -2.00631 1.84995 
10361 3 -3.3178 1.0244 -2.29554 
10360 1 0.966204 2.68915 -6.71546 
1044 1 1.06888 -1.69331 3.95403 
11797 1 2.1499 -2.05914 -4.81415 
10991 3 -1.27477 -2.91949 -3.20538 
10992 1 1.34372 -0.242438 0.0537115 
693 1 -1.15754 6.38286 -2.10678 
692 3 2.21635 2.42705 -0.771314 
691 1 -6.15637 -1.73685 -0.191063 
11915 3 0.580874 2.33267 3.27631 
18241 1 3.07054 1.68361 -1.74831 
18242 2 0.352894 0.0985712 -3.18635 
11914 1 -1.55468 2.02694 -6.32862 
18243 1 0.989572 -0.833671 -0.659355 
12162 1 4.2044 -6.20802 -4.32271 
19651 1 -1.17901 0.258892 -7.53151 
19707 1 3.77301 0.891308 0.0734042 
19706 3 3.65507 2.83962 -1.52493 
19705 1 -4.12954 -4.68385 2.95041 
6524 3 0.775379 -5.25446 -2.63342 
6523 1 0.554471 -1.06631 -2.63894 
6525 1 -0.0828936 4.278 4.73517 
14115 1 7.91505 -1.18773 3.32507 
17044 1 4.92172 2.55296 -0.796423 
17045 3 -0.388971 2.27298 6.2774 
4661 2 1.92031 2.18613 3.05122 
18480 1 0.671936 -3.46041 -1.25782 
18479 2 0.448346 0.552196 1.27601 
4660 1 -0.212294 -4.28798 2.14198 
2332 1 1.8598 0.0399356 -2.6308 
2334 1 4.06489 -1.20102 15.1699 
2333 2 1.37941 0.426541 0.238776 
20902 1 0.127449 1.18616 1.07272 
20903 3 -0.297191 -0.358723 -0.806905 
20904 1 4.0458 7.25926 5.48788 
21089 3 1.78697 -0.0971257 0.752353 
20691 1 0.843554 4.93213 -7.95905 
18511 1 -0.406143 2.51041 3.30705 
21088 1 -3.19089 -2.58728 7.46659 
6256 1 -5.61751 -5.64385 2.21958 
18513 1 -0.666826 -3.8977 2.07156 
18512 2 -0.950902 2.93129 -2.14635 
11916 1 -1.90421 1.62739 1.36457 
19284 1 0.348299 3.00364 -0.454725 
19283 2 1.42588 1.22582 -0.976468 
19282 1 -0.402633 -1.11127 2.40852 
17430 1 -8.29589 5.28837 -4.23079 
21374 2 0.66048 -2.05693 -0.755118 
21375 1 1.68659 2.19697 -3.33725 
19653 1 0.149954 -4.82082 -2.82669 
19652 3 -0.2249 1.6527 -4.23158 
18270 1 1.48151 -0.524564 -1.45738 
19519 1 -1.97276 -1.36741 -2.67523 
18269 3 5.29683 3.27941 -0.790672 
18268 1 -2.51963 2.09067 8.13721 
19521 1 -0.168845 -6.4281 2.68229 
19520 3 -2.47554 -1.0114 4.33322 
11546 3 -0.0875714 2.22713 0.17379 
11545 1 -1.85259 -1.15876 -5.48107 
11547 1 -0.136287 -0.119819 0.813457 
21553 1 -5.15087 -0.612715 -2.03406 
21555 1 1.55477 -1.10964 0.477095 
21554 3 -1.58989 2.92661 1.24958 
1850 3 1.46726 -0.944624 0.322554 
1849 1 0.229208 -1.13107 1.79697 
19528 1 0.504229 2.92045 5.65734 
1851 1 -3.73734 -0.433868 1.54827 
19530 1 4.80361 -1.21588 0.453682 
19529 3 -0.862127 3.75599 2.32148 
19267 1 0.206272 4.59848 1.00528 
6392 3 1.21533 -1.07387 -0.40021 
6391 1 0.488428 0.675017 5.93566 
6393 1 1.23393 2.39108 6.85789 
4813 1 -5.60587 -4.18949 -4.57489 
4814 3 -1.41546 0.698531 -2.63992 
4815 1 0.645514 3.73529 -4.11112 
17046 1 3.93352 2.37587 -4.0521 
4662 1 0.911861 -3.16416 3.51936 
7045 1 3.26245 -0.356192 -2.89039 
7047 1 -1.82394 -9.66501 1.46457 
7046 3 -5.73961 2.34561 2.1119 
6289 1 -1.95967 1.77462 -2.21961 
6290 2 0.91379 2.95507 -0.614833 
6291 1 4.07353 -2.34854 0.655174 
13795 1 -6.16437 -0.876874 5.31823 
13796 3 -1.46018 5.3184 -2.66397 
4107 1 4.65038 0.0842083 5.59547 
4105 1 2.05005 6.04969 4.27005 
4106 3 3.60524 -0.642049 -0.814155 
13797 1 0.548012 -1.46699 -4.53206 
13024 1 0.411568 -1.44701 4.02993 
20196 1 1.30404 -1.03853 -3.77527 
20194 1 4.33395 5.73011 0.501056 
20195 2 2.00389 0.644928 1.59808 
6258 1 -0.356355 -1.84257 -1.43076 
6257 2 -0.831073 -1.43156 -0.287061 
14134 1 -4.0826 0.962355 -2.95212 
21373 1 4.6281 4.68382 -0.691106 
13669 1 4.55254 -0.410449 -4.12692 
20966 3 -1.02134 -2.61772 -1.19874 
20967 1 1.91916 0.763432 -6.12555 
13671 1 -1.60012 -0.135874 -6.21962 
13670 2 3.01292 0.297841 1.91767 
13327 1 -3.63923 -0.999146 -0.500342 
13329 1 3.86046 1.93058 1.01308 
13328 2 -0.686418 0.41748 0.0525087 
14977 1 -2.18349 6.553 -1.4086 
6726 1 -1.07009 -4.80485 -1.37861 
6725 3 -1.86993 -0.0543474 -5.30195 
17278 1 -6.63543 2.3288 -5.23641 
17279 2 -2.12599 0.12051 -1.18231 
17280 1 -2.64133 -1.41599 4.71979 
6724 1 3.42293 2.41516 1.33619 
8183 2 2.21924 -1.19335 2.04179 
12265 1 2.81918 -2.04366 1.8402 
12267 1 0.620919 -3.21479 6.08525 
13602 1 3.5581 -1.53779 -1.63043 
12266 2 -3.5028 -1.9405 -2.54775 
13601 3 5.01299 -3.19925 0.993471 
13600 1 1.26069 0.553748 -2.67456 
8182 1 4.87001 -0.0143563 1.42695 
19268 3 -6.39179 0.899911 0.108686 
19269 1 -3.60797 1.79152 1.90286 
10705 1 1.91588 -3.77457 1.89959 
10707 1 -0.802522 -1.95316 1.3622 
10706 2 -0.537514 -1.90062 -0.23384 
12547 1 0.14541 2.26354 -1.2681 
12549 1 0.823598 -0.13195 -2.37193 
12548 3 -0.843992 -0.95042 2.30045 
214 1 -0.480138 4.70021 1.1831 
20888 2 5.36443 1.42192 1.59687 
20889 1 -0.253829 -0.183963 0.526059 
20887 1 -1.06516 -0.0478218 -3.40151 
215 3 5.49991 -2.1445 0.980897 
216 1 -0.72482 1.22146 0.160555 
16364 2 -0.941208 2.22549 2.9112 
3310 1 -5.05655 -5.27205 0.289707 
16363 1 2.79267 -0.818147 4.19495 
3312 1 -0.196744 2.11221 1.0287 
3311 2 -3.55565 1.38689 -3.50321 
16365 1 -1.08053 0.181766 -1.32746 
105 1 -2.94833 -1.10435 1.65009 
104 3 2.47321 3.57066 1.3462 
18187 1 4.82906 7.87275 2.43896 
13025 2 -1.02847 3.74134 3.23735 
4528 1 0.846288 -1.99817 1.18563 
4529 2 2.14752 -0.223831 -1.49734 
4530 1 -4.56137 5.54107 -5.62749 
18524 3 2.12591 0.685041 0.0460255 
18523 1 -0.492485 2.31851 -0.644147 
18525 1 -0.146817 -2.67656 4.22994 
15777 1 -2.14055 -3.30892 5.12504 
15776 3 6.6548 1.89556 2.4441 
4352 3 -3.2954 0.369305 -1.7907 
4353 1 -4.07046 5.16625 -0.752509 
12438 1 4.82179 -5.22009 7.60512 
15775 1 -7.80427 2.61382 -1.2407 
13280 2 -4.28861 -0.740011 -0.544273 
13279 1 -4.39637 -1.9032 -2.6561 
12239 3 -1.24008 -2.33351 -0.44288 
12238 1 3.13892 -0.433224 -1.65139 
13281 1 1.07939 0.473788 -0.693584 
12240 1 4.122 4.24412 -2.71623 
12437 2 1.89503 3.13503 -1.33765 
14340 1 -4.19758 3.29579 1.37277 
12436 1 3.35197 -0.110537 -2.10379 
21490 1 1.86058 6.04158 3.97857 
14339 2 -0.984167 3.15718 -2.0814 
14338 1 -3.31555 -3.83862 1.37094 
21492 1 -1.59926 1.62857 2.69332 
21491 2 -1.02105 -1.00145 -1.38269 
19144 1 -1.65299 -7.43699 2.76268 
19146 1 0.924073 1.79277 -1.31971 
19145 3 -1.79384 1.78031 1.91005 
6307 1 0.440445 1.52951 -1.7834 
6308 3 -0.466539 2.19273 -1.64948 
6309 1 0.457017 -1.56714 1.60169 
15135 1 2.51991 2.10126 -2.50452 
15134 2 1.17313 -1.60192 0.427615 