ITEM: TIMESTEP
50000000
ITEM: NUMBER OF ATOMS
6861
ITEM: BOX BOUNDS pp pp pp
0.0000000000000000e+00 5.0000000000000000e+01
0.0000000000000000e+00 5.0000000000000000e+01
0.0000000000000000e+00 5.0000000000000000e+01
ITEM: ATOMS id type xs ys zs
8224 1 0.508503 0.471382 0.0819652
6107 2 0.503298 0.489191 0.0764734
6108 1 0.502294 0.489654 0.084671
12277 1 0.501658 0.490007 0.0871431
10881 1 0.501148 0.51649 0.0893462
10880 2 0.507024 0.511411 0.0851434
10879 1 0.510901 0.507334 0.0807251
6106 1 0.506057 0.489296 0.0692925
11590 1 0.498778 0.517828 0.0910143
12278 2 0.501451 0.491698 0.0943293
17809 1 0.505089 0.494492 0.104933
17810 3 0.508992 0.496615 0.111192
12279 1 0.503525 0.493687 0.101965
17811 1 0.512452 0.497554 0.11795
8428 1 0.513435 0.497488 0.120742
15312 1 0.472926 0.527423 0.116523
2277 1 0.474763 0.527421 0.114152
2276 2 0.480688 0.526108 0.108235
11591 2 0.492536 0.521023 0.095258
11592 1 0.488247 0.524052 0.100595
2275 1 0.486381 0.525126 0.102326
4400 2 0.466063 0.516384 0.139024
4399 1 0.469665 0.512504 0.144164
3417 1 0.47107 0.511191 0.1462
15924 1 0.492993 0.490249 0.137808
15923 3 0.49568 0.488739 0.14471
8035 1 0.507535 0.514876 0.141582
9028 1 0.506475 0.514567 0.138656
9030 1 0.5005 0.513118 0.124642
9029 3 0.504149 0.514467 0.131224
8036 2 0.509736 0.516062 0.149534
15311 3 0.468963 0.52654 0.123108
15310 1 0.465919 0.523317 0.130001
4401 1 0.465401 0.521773 0.132687
9673 1 0.50372 0.544998 0.122658
17777 3 0.489874 0.525547 0.140483
17776 1 0.487158 0.523072 0.133964
9674 3 0.505135 0.542882 0.13007
9675 1 0.505747 0.541015 0.137414
20050 1 0.506069 0.540819 0.140311
20051 2 0.507236 0.540777 0.14883
17778 1 0.491129 0.525892 0.148276
5746 1 0.505789 0.57943 0.146968
9062 3 0.480143 0.477369 0.170597
9061 1 0.47926 0.476498 0.163171
9063 1 0.483129 0.477657 0.179238
15922 1 0.497059 0.486479 0.151889
11395 1 0.497613 0.485888 0.153884
11396 2 0.500796 0.483241 0.160901
11397 1 0.50358 0.479271 0.167845
16674 1 0.50416 0.478258 0.170796
16673 2 0.505011 0.474957 0.17785
3416 3 0.476615 0.50754 0.151217
9772 1 0.477731 0.498341 0.177211
3415 1 0.481767 0.504161 0.155947
14724 1 0.483556 0.503214 0.157661
7530 1 0.512715 0.516544 0.159056
14723 2 0.48922 0.501921 0.162841
20082 1 0.496659 0.49907 0.171977
14722 1 0.495161 0.499698 0.169308
20081 2 0.5003 0.497897 0.17929
8037 1 0.511846 0.516848 0.156248
1821 1 0.48743 0.538563 0.164231
1662 1 0.492167 0.525811 0.151245
3308 2 0.497565 0.520313 0.175287
1660 1 0.49618 0.523129 0.164779
3307 1 0.496641 0.522108 0.167382
1661 2 0.494458 0.525442 0.158328
1820 2 0.489318 0.538842 0.171517
20052 1 0.509649 0.541198 0.156253
14587 1 0.510421 0.541104 0.159314
1819 1 0.491437 0.538573 0.178748
14589 1 0.513621 0.537581 0.176115
14588 2 0.512301 0.54001 0.167776
84 1 0.514637 0.536576 0.178468
5747 2 0.503728 0.575359 0.153169
5748 1 0.50433 0.570311 0.158848
16959 1 0.506051 0.561032 0.174091
16958 2 0.504816 0.564508 0.168298
16957 1 0.50449 0.568904 0.161279
10984 1 0.5069 0.559247 0.176965
15769 1 0.482311 0.44851 0.194778
15770 3 0.488702 0.450739 0.200862
15771 1 0.493542 0.450316 0.207019
2878 1 0.494959 0.450019 0.209389
7833 1 0.483896 0.477813 0.182081
7832 2 0.486239 0.479 0.189275
7831 1 0.487162 0.477898 0.196907
900 1 0.487386 0.477528 0.200176
16672 1 0.506289 0.472677 0.185641
8824 1 0.506417 0.471984 0.18802
8825 2 0.506522 0.471046 0.196509
8826 1 0.50769 0.470396 0.20396
899 2 0.489203 0.475665 0.207807
18484 1 0.507761 0.470176 0.20729
9773 2 0.481305 0.49983 0.184003
9774 1 0.483341 0.500574 0.191606
16266 1 0.483998 0.501167 0.194619
16265 2 0.484753 0.501321 0.20311
6693 1 0.465376 0.51745 0.194879
20928 1 0.465103 0.516115 0.198061
20927 2 0.463573 0.512462 0.20514
20926 1 0.460821 0.509404 0.211027
7326 1 0.504596 0.492115 0.207332
9753 1 0.504609 0.493039 0.204546
9752 2 0.504498 0.494818 0.196868
20080 1 0.502754 0.497302 0.186524
9751 1 0.503283 0.496925 0.188861
241 1 0.501287 0.515796 0.199833
19810 1 0.501915 0.515413 0.20262
3309 1 0.498383 0.517719 0.181874
242 2 0.499406 0.516428 0.192117
243 1 0.498455 0.517137 0.184758
19811 2 0.502685 0.512111 0.210216
6692 2 0.465227 0.521803 0.187087
6691 1 0.46514 0.526778 0.181293
5915 2 0.514633 0.547356 0.200828
5695 1 0.492181 0.538056 0.182185
5696 2 0.494894 0.537966 0.189454
5697 1 0.497717 0.537776 0.197415
15891 1 0.498881 0.536921 0.199784
15890 2 0.500773 0.53369 0.207046
10986 1 0.511281 0.552227 0.190714
5914 1 0.512173 0.551043 0.193854
10985 2 0.509698 0.555295 0.184174
10479 1 0.479567 0.456806 0.225073
10478 2 0.482045 0.456058 0.232304
2879 2 0.497523 0.448613 0.216003
2880 1 0.501471 0.446254 0.222882
7296 1 0.502355 0.445282 0.225759
7295 2 0.504846 0.442752 0.232291
10477 1 0.485384 0.454579 0.239096
7294 1 0.507588 0.441711 0.239036
898 1 0.491254 0.47514 0.215288
18485 2 0.508195 0.469357 0.214714
236 2 0.508806 0.465165 0.233616
18486 1 0.508502 0.467346 0.223083
235 1 0.508565 0.466475 0.226179
3262 1 0.491701 0.47458 0.218789
3263 2 0.493026 0.474022 0.227018
17946 1 0.508612 0.487849 0.224568
17945 2 0.509644 0.486005 0.231911
3264 1 0.493274 0.474673 0.235677
9243 1 0.493554 0.475048 0.238119
237 1 0.509014 0.462358 0.240854
17944 1 0.510291 0.484901 0.239459
14111 2 0.448492 0.502631 0.237981
17698 1 0.453082 0.505787 0.228484
14112 1 0.452037 0.505043 0.231187
17699 3 0.456832 0.506711 0.220332
17700 1 0.460181 0.508182 0.212983
16264 1 0.485888 0.502228 0.211748
7324 1 0.50828 0.488973 0.221242
7325 2 0.50623 0.490597 0.213873
1281 1 0.486319 0.502131 0.215085
1279 1 0.490551 0.499881 0.230477
10426 1 0.491315 0.498462 0.23351
1280 2 0.488288 0.502463 0.223301
10427 2 0.493817 0.495349 0.24086
19812 1 0.50505 0.509104 0.217723
5410 1 0.505774 0.508842 0.220202
5411 2 0.508417 0.50779 0.228224
5412 1 0.510179 0.506197 0.235531
6295 1 0.510656 0.505453 0.239168
12808 1 0.507705 0.527963 0.235021
4211 2 0.487795 0.521471 0.235766
4210 1 0.488962 0.526257 0.228303
15889 1 0.502155 0.531177 0.214364
14128 1 0.502914 0.530722 0.217363
14129 2 0.504578 0.529531 0.224889
14130 1 0.506866 0.528355 0.232096
4669 1 0.498001 0.546749 0.232775
4670 2 0.503464 0.546051 0.239342
1032 1 0.48655 0.454232 0.242001
11563 1 0.507835 0.434325 0.258017
1031 3 0.488567 0.452801 0.250038
11565 1 0.508424 0.440877 0.241708
1030 1 0.488337 0.451157 0.258083
13272 1 0.488682 0.450581 0.261393
11564 2 0.508705 0.436962 0.250234
6648 1 0.507751 0.433237 0.260882
13271 2 0.491632 0.449062 0.26896
1738 1 0.512575 0.457429 0.261164
1739 2 0.513409 0.455969 0.269575
6647 2 0.508096 0.431942 0.269541
7048 1 0.514154 0.479011 0.257022
7049 2 0.511774 0.481809 0.249269
7157 2 0.509259 0.459203 0.250475
7156 1 0.511885 0.457767 0.258248
7158 1 0.508864 0.461622 0.243755
9242 2 0.493968 0.47386 0.245397
20868 1 0.49484 0.471653 0.256056
9241 1 0.494509 0.472643 0.253355
20867 2 0.494257 0.469516 0.263574
7050 1 0.510331 0.484197 0.242339
20866 1 0.495613 0.467706 0.270947
14110 1 0.446847 0.498497 0.244397
1334 3 0.445477 0.493336 0.253506
1335 1 0.444318 0.491538 0.261511
1333 1 0.446674 0.496724 0.247127
4212 1 0.487348 0.517103 0.243063
13800 1 0.496283 0.489343 0.268902
19659 1 0.496308 0.489627 0.266042
19658 2 0.496655 0.490694 0.258588
10428 1 0.49498 0.493149 0.248088
19657 1 0.495681 0.492226 0.250952
11873 2 0.489969 0.513071 0.252771
11872 1 0.492183 0.513682 0.260927
6052 1 0.493315 0.513406 0.263845
6296 2 0.512163 0.503806 0.247446
6297 1 0.514184 0.502048 0.253877
11874 1 0.48778 0.516115 0.245629
13512 1 0.514671 0.501213 0.256802
12809 2 0.510755 0.525896 0.243111
8209 1 0.511488 0.545151 0.263338
4671 1 0.507065 0.546259 0.246012
8210 2 0.509832 0.545535 0.256128
2943 1 0.51236 0.544628 0.266061
8211 1 0.508046 0.545963 0.248918
12810 1 0.513198 0.523637 0.251174
624 1 0.513737 0.523282 0.253914
432 1 0.478695 0.449322 0.293469
431 2 0.472904 0.454132 0.290602
21313 1 0.509045 0.430084 0.279726
6646 1 0.509105 0.430848 0.27709
13270 1 0.494343 0.447376 0.276279
14673 1 0.495257 0.446875 0.279266
14672 2 0.497059 0.445036 0.285563
14671 1 0.497384 0.44188 0.293697
17629 1 0.497092 0.440634 0.296612
12349 1 0.510961 0.427397 0.299886
21314 2 0.509913 0.42828 0.288759
21315 1 0.510672 0.427989 0.296616
1740 1 0.514812 0.454523 0.275916
430 1 0.468089 0.458843 0.287041
19018 1 0.495835 0.466921 0.273829
16726 1 0.497205 0.46277 0.292323
19020 1 0.496732 0.463402 0.289077
19019 2 0.496673 0.465463 0.281403
9098 2 0.499999 0.4852 0.293572
9099 1 0.497256 0.486341 0.286848
16727 2 0.498145 0.46124 0.301063
9097 1 0.503061 0.483751 0.300774
13798 1 0.496752 0.486697 0.284336
6053 2 0.495223 0.512385 0.271857
13799 2 0.495803 0.488668 0.276354
6054 1 0.498464 0.509783 0.279146
12949 1 0.499444 0.509063 0.281548
12950 2 0.501609 0.507553 0.288482
12951 1 0.502856 0.506432 0.29725
8176 1 0.503769 0.505775 0.300112
2942 2 0.514522 0.542639 0.273002
12351 1 0.51174 0.423822 0.316094
8800 1 0.51175 0.422876 0.31878
12350 2 0.511508 0.425133 0.307826
8801 2 0.511703 0.41969 0.326586
8802 1 0.509402 0.415052 0.331824
287 3 0.47021 0.44433 0.315817
286 1 0.471274 0.440209 0.322558
6687 1 0.472068 0.439042 0.325213
288 1 0.469755 0.448748 0.309006
17630 2 0.49613 0.438701 0.304645
17631 1 0.495878 0.439211 0.31297
13758 1 0.495961 0.439097 0.316315
13757 2 0.495909 0.438605 0.324582
9055 1 0.500488 0.456095 0.330282
7401 1 0.500525 0.456039 0.32787
7819 1 0.503632 0.482943 0.303308
7400 2 0.500315 0.457844 0.31989
7399 1 0.498717 0.459868 0.311806
16728 1 0.498507 0.460459 0.309063
7820 2 0.503517 0.480076 0.311103
12151 1 0.503486 0.47749 0.320979
7821 1 0.503351 0.478163 0.318115
12152 2 0.504954 0.477111 0.328947
2762 2 0.511441 0.499637 0.324647
8177 2 0.505767 0.503385 0.307129
2761 1 0.509974 0.501791 0.317152
8178 1 0.508849 0.502259 0.314369
9060 1 0.503771 0.387736 0.357601
9059 3 0.504998 0.394029 0.352497
3381 1 0.508781 0.413207 0.333844
3380 3 0.507261 0.407959 0.339389
3379 1 0.505612 0.402725 0.344703
9058 1 0.50524 0.40036 0.346454
16091 3 0.470384 0.434825 0.35212
16090 1 0.471653 0.433873 0.360089
16092 1 0.471261 0.435375 0.343853
6685 1 0.471627 0.435489 0.341286
6686 2 0.472641 0.436386 0.333047
13756 1 0.495706 0.437419 0.33279
4295 2 0.497711 0.433525 0.3623
4803 1 0.49567 0.436746 0.336084
4802 2 0.495693 0.434511 0.344293
4801 1 0.496608 0.434816 0.351666
4294 1 0.497347 0.434241 0.354198
17981 2 0.507981 0.455611 0.355524
17982 1 0.505971 0.457275 0.348634
9057 1 0.504926 0.457777 0.345552
2778 1 0.507008 0.476122 0.340139
2777 2 0.507354 0.476181 0.347856
17604 1 0.509083 0.476733 0.359188
12153 1 0.506758 0.476232 0.33691
2776 1 0.508563 0.476676 0.356698
9056 2 0.503388 0.457829 0.338042
18297 1 0.514265 0.497679 0.335986
2763 1 0.513389 0.498264 0.333256
7566 1 0.512566 0.454195 0.365584
7565 2 0.514273 0.453809 0.372235
17980 1 0.511373 0.454758 0.362785
10559 2 0.497713 0.434997 0.380476
16752 1 0.498389 0.435527 0.390738
10558 1 0.498569 0.434866 0.387769
10560 1 0.496929 0.434459 0.373081
4296 1 0.496747 0.434184 0.370643
18844 1 0.497542 0.457059 0.374531
18845 2 0.494285 0.458473 0.381253
20775 1 0.489513 0.460791 0.390235
18846 1 0.490225 0.460446 0.388201
17602 1 0.511498 0.474397 0.375647
14419 1 0.511079 0.470106 0.392257
17603 2 0.51038 0.475641 0.367845
14420 2 0.511591 0.471141 0.3851
14421 1 0.511644 0.47357 0.378524
204 1 0.496129 0.448244 0.424031
203 3 0.496464 0.445405 0.415812
16751 2 0.498298 0.43762 0.39844
202 1 0.497996 0.441712 0.408819
16750 1 0.498294 0.440348 0.406241
20773 1 0.483237 0.463097 0.405224
20774 2 0.48671 0.462276 0.398202
13605 1 0.510609 0.469584 0.395438
13604 3 0.510117 0.469297 0.403449
15438 1 0.507357 0.469101 0.413968
15437 3 0.50509 0.467787 0.42074
13603 1 0.508493 0.46966 0.410636
15436 1 0.503036 0.46568 0.42774
19323 1 0.482602 0.462912 0.460543
19322 2 0.487149 0.463135 0.454483
19321 1 0.493571 0.463738 0.448149
17644 1 0.49539 0.463758 0.445829
17645 3 0.499069 0.46349 0.43903
17646 1 0.501966 0.465025 0.430678
17669 2 0.552863 0.512625 0.0524353
17668 1 0.555763 0.509571 0.0602453
17670 1 0.5505 0.515138 0.045429
6314 2 0.545 0.470736 0.0818754
6313 1 0.545021 0.472942 0.0744576
6315 1 0.544477 0.46858 0.0897526
8225 3 0.515673 0.46773 0.0826039
8226 1 0.52329 0.463754 0.0829141
14703 1 0.556776 0.50845 0.0629622
14702 2 0.558914 0.505485 0.07024
14701 1 0.560045 0.502041 0.0772787
4045 1 0.560229 0.500671 0.0795287
4046 3 0.55847 0.497409 0.0868085
16733 3 0.608951 0.50812 0.089566
58 1 0.610615 0.512282 0.079849
16734 1 0.610081 0.511096 0.0823992
15059 2 0.533673 0.427001 0.100137
15058 1 0.536236 0.42742 0.106778
18721 1 0.537217 0.427731 0.108939
18722 2 0.539996 0.426937 0.11647
12047 2 0.526891 0.450842 0.116599
12046 1 0.525907 0.45325 0.108978
15060 1 0.530996 0.425278 0.0925716
5505 1 0.555783 0.44806 0.113644
1771 1 0.555969 0.447446 0.116737
5504 3 0.555922 0.450417 0.105354
5503 1 0.555262 0.452339 0.0971487
14116 1 0.58241 0.453194 0.116498
14949 1 0.582728 0.45173 0.119042
9925 1 0.543883 0.467816 0.0929506
18235 1 0.541123 0.464718 0.110791
9927 1 0.541067 0.464648 0.107799
9926 3 0.542356 0.466067 0.100141
18236 3 0.542612 0.46481 0.118608
2905 1 0.579951 0.483861 0.102423
14117 3 0.581383 0.458487 0.110996
2906 3 0.580259 0.47617 0.102419
14118 1 0.580077 0.465185 0.10672
2907 1 0.579937 0.468413 0.105109
4866 1 0.581512 0.473987 0.118265
17827 1 0.525562 0.505605 0.098057
12317 3 0.536227 0.491761 0.115717
12318 1 0.534387 0.494421 0.109901
17829 1 0.532932 0.496007 0.107693
17828 2 0.528998 0.49945 0.101947
9739 1 0.548876 0.512998 0.110133
965 3 0.557646 0.491928 0.104917
7038 1 0.558859 0.487649 0.11511
964 1 0.558562 0.488993 0.112385
4047 1 0.55734 0.495624 0.0947228
966 1 0.556902 0.494557 0.0976211
4128 1 0.576845 0.499927 0.118777
4127 2 0.57638 0.502613 0.111123
9740 3 0.551352 0.509488 0.116797
5953 1 0.576742 0.499459 0.121788
4126 1 0.576718 0.504783 0.103468
16732 1 0.605916 0.504465 0.0966736
14220 1 0.597939 0.494721 0.115277
8628 1 0.598749 0.496465 0.112818
8626 1 0.604199 0.5036 0.0991416
8627 3 0.601146 0.500299 0.105576
7904 3 0.543532 0.424428 0.13422
7905 1 0.54374 0.422552 0.141199
20056 1 0.544153 0.421342 0.144446
20057 2 0.546453 0.419229 0.152654
12443 2 0.602101 0.422266 0.150074
7903 1 0.541243 0.426538 0.127209
18723 1 0.540737 0.4268 0.124568
20547 1 0.526989 0.44843 0.142831
15513 1 0.526975 0.447575 0.146348
12048 1 0.52713 0.450791 0.124555
20546 3 0.526231 0.450276 0.135507
20545 1 0.527005 0.450459 0.127369
18265 1 0.547756 0.439566 0.152201
16349 2 0.550915 0.441562 0.142332
16348 1 0.553199 0.442081 0.135485
1773 1 0.553905 0.442677 0.132687
1772 2 0.555572 0.445157 0.124783
14947 1 0.580048 0.444305 0.133559
2434 1 0.579562 0.442908 0.136116
2435 2 0.578343 0.441263 0.143951
16350 1 0.548519 0.439773 0.149856
2436 1 0.577067 0.43924 0.15155
12444 1 0.59946 0.428951 0.145279
14948 2 0.58245 0.447697 0.12581
7202 2 0.595923 0.45419 0.148504
18237 1 0.543628 0.465738 0.126655
7728 1 0.543729 0.462996 0.146528
7727 2 0.544173 0.464718 0.139049
7726 1 0.54367 0.465711 0.129593
8333 2 0.520633 0.46502 0.147852
5655 1 0.543567 0.461802 0.14931
13380 1 0.521657 0.469203 0.137432
13378 1 0.527849 0.476577 0.126326
8332 1 0.521444 0.468174 0.139982
13379 3 0.524152 0.472091 0.132126
16509 1 0.562586 0.455997 0.152352
16508 2 0.562937 0.460016 0.145032
16507 1 0.563119 0.465974 0.140355
3917 2 0.560906 0.480167 0.140003
3916 1 0.559638 0.482606 0.132576
3918 1 0.560286 0.47789 0.147231
7036 1 0.559984 0.483122 0.129522
4864 1 0.580677 0.471867 0.135556
4865 2 0.580858 0.472595 0.127451
11310 1 0.581077 0.47107 0.138897
11309 2 0.580899 0.468399 0.146462
2314 1 0.55969 0.477312 0.150354
16201 1 0.60292 0.4641 0.124551
7203 1 0.597521 0.457753 0.140976
16203 1 0.598023 0.459184 0.13844
16202 2 0.600206 0.462828 0.131637
20508 1 0.597249 0.478126 0.1489
21501 1 0.596973 0.479396 0.145664
21500 2 0.59541 0.484063 0.139311
12316 1 0.536443 0.48915 0.122628
3057 1 0.53906 0.48589 0.144439
17347 1 0.538828 0.486352 0.141505
17348 3 0.538093 0.487536 0.1343
7191 1 0.533098 0.513065 0.147476
17349 1 0.536681 0.488571 0.125849
15182 2 0.521868 0.494701 0.147203
8429 3 0.518005 0.495668 0.128313
8430 1 0.519432 0.495727 0.135816
10578 1 0.532403 0.51368 0.145071
15183 1 0.520169 0.495362 0.138744
9741 1 0.55382 0.506864 0.124525
7037 3 0.559486 0.485442 0.122551
5954 3 0.576961 0.497084 0.129886
6972 1 0.554077 0.505666 0.127394
6971 2 0.55473 0.502587 0.1349
9536 2 0.577094 0.491419 0.148472
9537 1 0.577443 0.494702 0.140587
5955 1 0.577352 0.495589 0.13761
6970 1 0.554377 0.501486 0.142782
4116 1 0.55449 0.501292 0.145529
1871 2 0.570595 0.515165 0.148561
7018 1 0.595377 0.506818 0.13613
14219 2 0.595846 0.492108 0.122619
14218 1 0.595152 0.48866 0.129503
21499 1 0.594918 0.487278 0.1326
7019 2 0.593203 0.503428 0.142516
7020 1 0.593211 0.500436 0.150005
10887 1 0.596447 0.508353 0.133923
10886 3 0.599028 0.512733 0.127024
20058 1 0.548893 0.418886 0.159576
523 1 0.556432 0.417123 0.176666
20134 1 0.557622 0.416857 0.179234
524 2 0.554422 0.418806 0.169445
525 1 0.550528 0.419069 0.162245
15604 1 0.575421 0.407266 0.153626
15605 3 0.575616 0.404027 0.160883
15606 1 0.574464 0.402254 0.168445
9042 1 0.574464 0.401708 0.171744
9041 2 0.574447 0.400324 0.178506
17734 1 0.600087 0.411646 0.175073
9294 1 0.599663 0.41104 0.178723
17735 3 0.600294 0.412533 0.166035
17736 1 0.602228 0.415797 0.159529
12442 1 0.602496 0.417665 0.156472
15512 2 0.52597 0.44543 0.155269
18266 2 0.545878 0.439206 0.159605
5838 1 0.523681 0.444109 0.165096
15511 1 0.524154 0.443947 0.162405
5837 2 0.522124 0.443134 0.173081
18267 1 0.544083 0.438396 0.167112
21406 1 0.543836 0.437882 0.169626
5836 1 0.521022 0.441454 0.18075
21407 2 0.543468 0.435856 0.17722
5497 1 0.562441 0.454801 0.155145
12993 1 0.576436 0.438118 0.154101
5498 2 0.561701 0.452205 0.161779
5499 1 0.562185 0.448862 0.168247
6227 2 0.563504 0.442529 0.17798
6228 1 0.562321 0.446945 0.171363
19919 2 0.578945 0.426058 0.179792
19918 1 0.577635 0.429858 0.172097
12992 2 0.576599 0.435088 0.161903
12991 1 0.577389 0.431682 0.169318
19587 1 0.614198 0.427061 0.177621
7201 1 0.595667 0.449388 0.155693
7966 1 0.59616 0.44777 0.158025
7968 1 0.599094 0.440791 0.171834
15685 1 0.599876 0.439925 0.17472
7967 2 0.596786 0.442939 0.16518
15686 2 0.600889 0.437682 0.182459
13166 2 0.615184 0.43799 0.153132
2932 1 0.614692 0.425605 0.180796
19585 1 0.614548 0.433362 0.16314
13165 1 0.614788 0.434844 0.160459
19586 2 0.614981 0.430631 0.170574
3056 2 0.538824 0.483614 0.153338
268 1 0.539409 0.455015 0.181445
269 2 0.541378 0.457014 0.173288
270 1 0.542729 0.458883 0.166886
5654 2 0.544076 0.460306 0.155671
7511 2 0.540548 0.481109 0.172578
19352 2 0.521119 0.463716 0.168585
7512 1 0.541626 0.480276 0.181061
19353 1 0.521673 0.463151 0.176431
21507 1 0.521939 0.462808 0.179337
5653 1 0.543112 0.459307 0.164127
19351 1 0.519654 0.463858 0.159102
8334 1 0.51974 0.463717 0.155586
3055 1 0.538901 0.482049 0.161451
7510 1 0.539242 0.48173 0.164775
12029 2 0.580805 0.457952 0.181043
2315 2 0.558874 0.47599 0.158392
2316 1 0.558499 0.475716 0.166909
19788 1 0.55856 0.474942 0.169951
19787 2 0.55925 0.471591 0.177759
15615 1 0.576629 0.482391 0.176887
15813 1 0.576049 0.484014 0.174259
21153 1 0.579041 0.466407 0.156686
21152 2 0.579123 0.464885 0.164973
11308 1 0.579105 0.466641 0.153723
21151 1 0.578822 0.461951 0.171791
12030 1 0.57974 0.460976 0.174125
20507 2 0.597839 0.475061 0.156806
20506 1 0.598762 0.472235 0.164678
9804 1 0.599251 0.471525 0.167325
9803 2 0.600458 0.468724 0.174089
9802 1 0.602313 0.465276 0.180817
7190 2 0.535373 0.510708 0.154768
13555 1 0.520752 0.489319 0.175467
771 1 0.520303 0.490232 0.172552
770 2 0.520255 0.491511 0.165671
7189 1 0.536594 0.507402 0.162922
17574 1 0.537031 0.506307 0.165414
17573 2 0.538251 0.503581 0.172801
17572 1 0.539963 0.502015 0.180914
769 1 0.520767 0.493093 0.158432
15181 1 0.521185 0.493359 0.154845
13556 2 0.522151 0.487217 0.183228
7529 2 0.515285 0.515236 0.166274
7528 1 0.517413 0.513634 0.174194
14533 1 0.51838 0.513487 0.17722
15812 2 0.575901 0.486094 0.167001
9535 1 0.576735 0.489013 0.15644
15811 1 0.576704 0.488204 0.159274
932 2 0.555946 0.493628 0.172067
4118 2 0.575445 0.510868 0.166162
4115 2 0.553937 0.499768 0.153599
931 1 0.552745 0.496002 0.164055
4114 1 0.552529 0.496558 0.161321
4119 1 0.576862 0.50831 0.172
10056 1 0.577208 0.507273 0.174996
4117 1 0.572959 0.512193 0.159479
10055 2 0.578108 0.503767 0.182549
3632 2 0.5564 0.512593 0.179528
8434 1 0.56031 0.490629 0.182379
933 1 0.559235 0.491502 0.179668
1870 1 0.571812 0.512766 0.156514
19927 1 0.593582 0.499761 0.153056
19928 2 0.59468 0.496941 0.161506
4197 1 0.596028 0.493012 0.169923
19929 1 0.5955 0.494064 0.167727
4196 2 0.596443 0.489686 0.176416
21395 2 0.595298 0.514557 0.178567
17434 1 0.615019 0.488504 0.158172
3346 1 0.615086 0.487312 0.160636
10449 1 0.573297 0.391112 0.207987
5815 1 0.572636 0.392496 0.205347
5816 2 0.571901 0.395155 0.198112
20135 2 0.560108 0.416575 0.186453
5817 1 0.571948 0.397638 0.189751
9040 1 0.572618 0.398301 0.186569
20136 1 0.560323 0.41443 0.194207
20569 1 0.560784 0.414267 0.197474
20570 2 0.560559 0.413027 0.206092
4536 1 0.579285 0.420685 0.205207
14247 1 0.579157 0.420281 0.208054
20571 1 0.558838 0.409475 0.212711
4535 2 0.57923 0.422316 0.1971
4534 1 0.579903 0.423934 0.190261
19920 1 0.580178 0.42427 0.187871
9293 2 0.600096 0.40931 0.186311
9292 1 0.599668 0.407749 0.194151
1342 1 0.599409 0.407246 0.197223
1343 2 0.596726 0.407111 0.205048
1344 1 0.594241 0.40447 0.212294
2933 2 0.614879 0.422646 0.187256
19671 1 0.61515 0.417842 0.196443
15783 1 0.539123 0.454134 0.1845
19494 1 0.541149 0.425128 0.205439
414 1 0.541031 0.425985 0.202729
413 2 0.541579 0.427959 0.195084
412 1 0.5423 0.431123 0.187452
4644 1 0.520797 0.440667 0.184152
21408 1 0.542622 0.432622 0.184636
4643 2 0.521491 0.437169 0.191724
4642 1 0.521872 0.437128 0.199311
261 1 0.521898 0.437004 0.202413
15781 1 0.540423 0.451025 0.198429
20562 1 0.540843 0.45026 0.200731
20561 2 0.541028 0.447262 0.20798
15782 2 0.540048 0.452702 0.191589
260 2 0.522377 0.435604 0.209189
6226 1 0.563529 0.438326 0.184814
2833 1 0.56341 0.437974 0.187988
2834 2 0.563099 0.436289 0.194602
2835 1 0.563342 0.435919 0.202342
17338 1 0.563088 0.435247 0.205499
17339 2 0.562813 0.433128 0.212981
20650 1 0.582871 0.443642 0.20855
5578 1 0.582771 0.445419 0.205391
5580 1 0.582429 0.452761 0.191873
5579 2 0.583155 0.448115 0.198356
12028 1 0.581956 0.454394 0.188997
19524 1 0.598524 0.428106 0.211572
19462 1 0.598617 0.428917 0.208971
19463 2 0.600682 0.431523 0.200708
19464 1 0.601352 0.434418 0.193055
15687 1 0.601572 0.435125 0.189991
3107 2 0.601082 0.453627 0.207992
10830 1 0.541633 0.479206 0.183836
8153 2 0.522891 0.458277 0.205439
8152 1 0.523295 0.458516 0.196348
21506 2 0.523256 0.460709 0.18633
21505 1 0.523546 0.458848 0.193625
10829 2 0.541805 0.476365 0.191053
3870 1 0.524738 0.484272 0.194216
3869 2 0.526312 0.482108 0.20154
10828 1 0.542342 0.472493 0.197991
10564 1 0.542585 0.471442 0.200249
10565 2 0.543127 0.469168 0.206896
13557 1 0.524308 0.485169 0.191052
8154 1 0.522226 0.457743 0.213406
3868 1 0.52725 0.481016 0.208923
10566 1 0.545184 0.465612 0.212214
21265 1 0.527726 0.479997 0.212007
15614 2 0.578564 0.478763 0.183601
11485 1 0.56119 0.458333 0.203449
19786 1 0.559529 0.46829 0.185776
15261 1 0.560708 0.459217 0.201056
15259 1 0.559688 0.467079 0.187937
15260 2 0.560676 0.462726 0.19451
15489 1 0.563243 0.481747 0.200013
8436 1 0.562968 0.482786 0.196795
15488 2 0.563745 0.479549 0.207538
15613 1 0.579447 0.475537 0.190523
4620 1 0.58018 0.474108 0.193172
13261 1 0.581623 0.463217 0.208649
11486 2 0.562858 0.456434 0.210741
3108 1 0.601306 0.45767 0.201804
20074 1 0.60126 0.45869 0.19924
4619 2 0.581839 0.468808 0.199101
4618 1 0.581796 0.46436 0.205849
20076 1 0.602531 0.464314 0.183492
20075 2 0.602399 0.46169 0.191273
15 1 0.598545 0.480439 0.201033
14274 1 0.598782 0.479361 0.203593
14 2 0.597234 0.483574 0.194309
14273 2 0.599215 0.475669 0.210625
9465 1 0.540529 0.500944 0.183981
14534 2 0.52027 0.512324 0.18464
9464 2 0.541426 0.498565 0.191169
14535 1 0.521158 0.508932 0.192066
16637 2 0.544666 0.493016 0.207503
2279 2 0.522179 0.505702 0.202799
2278 1 0.521478 0.507614 0.195534
2280 1 0.523585 0.502712 0.21024
16638 1 0.543384 0.496132 0.200169
9463 1 0.542946 0.496981 0.197664
15099 1 0.523314 0.501719 0.213228
11025 1 0.542468 0.512194 0.213011
11024 2 0.541874 0.515093 0.205561
6589 1 0.580484 0.514569 0.208876
8435 2 0.561187 0.48799 0.189326
3633 1 0.558163 0.509725 0.185528
14101 1 0.559102 0.508744 0.188486
14102 2 0.560672 0.508424 0.195963
14103 1 0.562232 0.506452 0.203859
13116 1 0.562687 0.505635 0.206723
10054 1 0.578549 0.500785 0.189266
19210 1 0.578722 0.499107 0.192321
13115 2 0.563285 0.502974 0.213295
19211 2 0.580542 0.495872 0.19914
1632 1 0.580937 0.513595 0.211129
7263 1 0.614872 0.513326 0.200311
4195 1 0.597302 0.487037 0.18387
21396 1 0.596419 0.511683 0.185108
13 1 0.597462 0.486289 0.18635
19212 1 0.581955 0.492552 0.206268
17224 1 0.582349 0.492143 0.209176
2445 1 0.596628 0.510066 0.188098
2444 2 0.597221 0.507527 0.194999
2443 1 0.597913 0.504673 0.202426
10895 2 0.59885 0.499427 0.210718
10896 1 0.597941 0.503488 0.204928
7262 2 0.614241 0.510586 0.207499
4347 1 0.614902 0.514984 0.197223
10448 2 0.574108 0.38755 0.215657
10447 1 0.573655 0.382923 0.222849
15078 1 0.573843 0.381277 0.225444
15077 3 0.574175 0.375101 0.231859
15076 1 0.575313 0.369844 0.2373
19492 1 0.542647 0.421432 0.221537
3448 1 0.542571 0.420041 0.224505
3449 2 0.541551 0.41763 0.232218
19493 2 0.542036 0.424256 0.214217
3450 1 0.54058 0.415576 0.239905
18535 1 0.540578 0.414981 0.243008
8413 1 0.5579 0.408639 0.215446
14246 2 0.578927 0.41828 0.216212
15344 2 0.557067 0.397726 0.2398
15343 1 0.557748 0.40069 0.232423
8414 2 0.556798 0.406305 0.223378
8415 1 0.557656 0.401841 0.230052
20099 2 0.577484 0.412236 0.233968
20098 1 0.57808 0.41613 0.227101
14245 1 0.577784 0.417054 0.224905
20100 1 0.577432 0.409768 0.241902
12712 1 0.61403 0.402921 0.229637
5628 1 0.593211 0.403308 0.215154
479 2 0.590219 0.394974 0.237309
480 1 0.589524 0.397711 0.230305
5626 1 0.589666 0.398996 0.227328
5627 2 0.590344 0.401018 0.220665
14237 2 0.598906 0.417075 0.236356
14236 1 0.597812 0.420246 0.229533
19522 1 0.597651 0.421465 0.226711
14238 1 0.599812 0.414933 0.243484
1776 1 0.614483 0.404141 0.227076
12713 2 0.613265 0.400169 0.23746
7102 1 0.523087 0.426258 0.23687
20560 1 0.540872 0.445993 0.215457
1455 1 0.523286 0.427542 0.23413
1454 2 0.52184 0.429264 0.226527
259 1 0.522119 0.43243 0.217265
1453 1 0.522195 0.431547 0.219506
13651 1 0.525103 0.452575 0.230721
18589 1 0.525021 0.451844 0.233965
13652 2 0.523964 0.454413 0.224601
18590 2 0.525275 0.447508 0.240582
9467 2 0.54162 0.441652 0.226254
9466 1 0.542791 0.438085 0.23479
11013 1 0.543564 0.43672 0.237539
9468 1 0.540909 0.444911 0.218597
3630 1 0.560963 0.426493 0.237213
7611 1 0.561386 0.425292 0.23961
3629 2 0.559923 0.42909 0.230825
3628 1 0.561462 0.431516 0.223548
17340 1 0.562009 0.432337 0.220314
18680 2 0.562917 0.44927 0.227483
18681 1 0.562374 0.45323 0.220561
11487 1 0.562538 0.45436 0.21792
18679 1 0.564783 0.44566 0.234499
12859 1 0.565633 0.44479 0.237402
1241 2 0.581131 0.432364 0.23301
20652 1 0.581559 0.43689 0.223807
1240 1 0.581341 0.435667 0.226223
19523 2 0.59724 0.425319 0.219382
20651 2 0.58177 0.440372 0.216782
1242 1 0.58259 0.430538 0.241177
16851 1 0.583113 0.429238 0.244072
3106 1 0.601679 0.448969 0.215562
12853 1 0.602258 0.447184 0.218357
12854 2 0.602723 0.444248 0.225906
12855 1 0.603622 0.441707 0.234071
8041 1 0.603654 0.439922 0.236717
18904 1 0.584847 0.451199 0.243795
6076 1 0.583987 0.452786 0.240981
8042 2 0.604497 0.43644 0.243771
13653 1 0.522459 0.457263 0.217007
21266 2 0.528112 0.477195 0.219879
20985 1 0.528131 0.473324 0.230632
21267 1 0.528016 0.474579 0.22762
20984 2 0.529924 0.469553 0.237589
6357 1 0.545845 0.464104 0.215114
6356 2 0.547004 0.461654 0.222211
18720 1 0.547029 0.480531 0.231747
6355 1 0.548088 0.459349 0.230041
9813 1 0.547984 0.4585 0.233061
9812 2 0.547597 0.456139 0.240374
10389 1 0.547934 0.479508 0.234292
18719 2 0.546658 0.484539 0.224585
10388 2 0.549619 0.478485 0.242465
15487 1 0.564754 0.477219 0.215252
4716 1 0.565147 0.476223 0.218114
4715 2 0.565113 0.472689 0.225947
4714 1 0.566411 0.468795 0.233119
15429 1 0.566142 0.467444 0.236189
15428 2 0.5668 0.465524 0.244326
6077 2 0.583567 0.45566 0.233124
13263 1 0.581962 0.458917 0.223393
6078 1 0.58234 0.457754 0.226101
13262 2 0.582005 0.461037 0.216186
4517 2 0.586904 0.479714 0.234416
14272 1 0.601319 0.472128 0.217587
4516 1 0.5876 0.476214 0.241588
5752 1 0.602084 0.471076 0.220295
5753 2 0.604549 0.467907 0.226622
5754 1 0.606788 0.46497 0.233427
21132 1 0.60735 0.463895 0.236163
7093 1 0.58787 0.475085 0.244231
17226 1 0.584514 0.484899 0.223949
4518 1 0.585578 0.483361 0.226185
21131 2 0.608316 0.460415 0.242675
641 2 0.606552 0.483746 0.242724
16636 1 0.545572 0.488816 0.214149
18718 1 0.545608 0.487598 0.216972
5164 1 0.543314 0.511373 0.215505
15098 2 0.524842 0.498581 0.219924
946 1 0.528056 0.494869 0.229941
15097 1 0.527283 0.495896 0.227681
947 2 0.529514 0.491683 0.23758
5165 2 0.54459 0.508937 0.222303
5166 1 0.545688 0.507163 0.230654
3295 1 0.546445 0.506233 0.233773
12963 1 0.566464 0.511651 0.241644
13114 1 0.56388 0.499087 0.219085
13321 1 0.566723 0.490421 0.237836
16812 1 0.566045 0.491024 0.235501
16811 2 0.565385 0.493487 0.227453
16810 1 0.563794 0.497396 0.221578
3296 2 0.548956 0.503731 0.240474
1631 2 0.581183 0.510914 0.218622
1630 1 0.581698 0.508109 0.226811
14344 1 0.565899 0.513192 0.239146
640 1 0.605732 0.488183 0.2371
17225 2 0.582669 0.48839 0.216811
12394 1 0.604276 0.511289 0.234111
2236 1 0.582524 0.506695 0.229256
10894 1 0.601961 0.4959 0.217044
11467 1 0.602625 0.494623 0.219245
11469 1 0.605689 0.489479 0.234754
12395 2 0.606562 0.507263 0.241267