ITEM: TIMESTEP
50000000
ITEM: NUMBER OF ATOMS
3435
ITEM: BOX BOUNDS pp pp pp
0.0000000000000000e+00 5.0000000000000000e+01
0.0000000000000000e+00 5.0000000000000000e+01
0.0000000000000000e+00 5.0000000000000000e+01
ITEM: ATOMS id type xs ys zs
10575 1 0.421809 0.182938 0.526073
12858 1 0.430125 0.199411 0.525544
10573 1 0.428375 0.197279 0.524395
10574 2 0.425248 0.190314 0.524024
2982 1 0.422395 0.227357 0.524747
2980 1 0.414248 0.218135 0.517522
2981 2 0.418144 0.222227 0.521725
19708 1 0.42372 0.229331 0.526174
10067 3 0.455569 0.263927 0.519522
10066 1 0.454504 0.256354 0.517298
10068 1 0.455811 0.271644 0.521099
4304 3 0.456128 0.282909 0.525756
4305 1 0.456039 0.274983 0.522554
8569 1 0.413781 0.138729 0.535927
8570 2 0.420724 0.140745 0.539882
8571 1 0.426398 0.142572 0.544773
10197 1 0.428735 0.142974 0.547206
10196 3 0.434697 0.145465 0.552638
18963 1 0.461107 0.153174 0.555849
11963 2 0.482625 0.144053 0.547866
11962 1 0.480163 0.138384 0.543341
11964 1 0.485777 0.149275 0.551947
17838 1 0.487122 0.151513 0.553565
17837 3 0.4907 0.156462 0.558343
15732 1 0.347006 0.189583 0.548446
15731 2 0.351891 0.192556 0.554131
18126 1 0.383972 0.195132 0.549544
3453 1 0.444097 0.168943 0.54205
3452 3 0.450979 0.169744 0.546892
18061 1 0.435335 0.187304 0.553381
18062 3 0.442661 0.18908 0.555727
3451 1 0.455654 0.172522 0.551979
13560 1 0.457229 0.173639 0.553978
3963 1 0.47883 0.17642 0.549511
3962 3 0.484661 0.180161 0.553016
3961 1 0.490983 0.184875 0.555535
18036 1 0.493565 0.186447 0.556683
8023 1 0.368741 0.214422 0.547539
8024 2 0.369936 0.218046 0.553612
18125 2 0.387115 0.200317 0.553662
18124 1 0.391942 0.204694 0.558339
9948 1 0.413938 0.214865 0.54573
9947 2 0.409179 0.208279 0.543571
13080 1 0.415435 0.217288 0.546113
9946 1 0.407229 0.201585 0.542392
13079 3 0.421101 0.224087 0.549139
4858 1 0.435731 0.205738 0.551556
4859 3 0.439449 0.211248 0.55479
12856 1 0.438432 0.213342 0.531609
20992 1 0.439965 0.21572 0.532659
20993 3 0.443522 0.222468 0.535787
4860 1 0.443852 0.216723 0.557786
12694 1 0.453631 0.206652 0.546519
12857 2 0.434074 0.206411 0.528624
12695 3 0.459711 0.211429 0.546521
12696 1 0.467556 0.214351 0.547695
10552 1 0.470661 0.215751 0.54846
10553 2 0.477493 0.218985 0.551367
10554 1 0.483258 0.224773 0.552354
16927 1 0.492069 0.205803 0.55413
16928 3 0.497208 0.21116 0.557612
4293 1 0.485626 0.22695 0.552926
12036 1 0.3832 0.248411 0.535951
12035 3 0.376027 0.248359 0.532333
7525 1 0.38649 0.248271 0.537194
15439 1 0.388812 0.247982 0.556443
12034 1 0.369082 0.249508 0.529164
7527 1 0.404593 0.250127 0.540483
7526 3 0.395512 0.248692 0.539286
15763 1 0.407454 0.250209 0.541177
15764 3 0.415287 0.250332 0.543919
15765 1 0.421942 0.253068 0.547704
19710 1 0.430571 0.241515 0.53119
13078 1 0.425673 0.229507 0.551556
21349 1 0.427809 0.231584 0.552547
21350 3 0.433732 0.236833 0.554769
17938 1 0.448778 0.231194 0.540975
20994 1 0.446858 0.228626 0.539701
2021 3 0.436872 0.249198 0.533916
21351 1 0.439114 0.242501 0.557607
9508 1 0.443207 0.256699 0.537511
2022 1 0.441225 0.254535 0.53656
19709 3 0.426915 0.234302 0.529365
2020 1 0.431618 0.243361 0.531634
13064 3 0.42901 0.258803 0.553236
13063 1 0.424057 0.254429 0.549116
17939 3 0.454926 0.236563 0.543528
19119 1 0.473133 0.252318 0.553651
17940 1 0.459918 0.241569 0.546241
19118 3 0.467582 0.248427 0.549418
19117 1 0.462319 0.243814 0.547211
19678 1 0.474507 0.254139 0.555192
19679 3 0.479077 0.260017 0.557532
4292 3 0.490413 0.232188 0.554639
4291 1 0.495153 0.237916 0.556519
21160 1 0.497048 0.240428 0.55688
19134 1 0.507116 0.235567 0.542913
33 1 0.418322 0.102381 0.567368
32 3 0.421943 0.108459 0.570775
10795 1 0.409921 0.124901 0.566327
10796 3 0.412672 0.130136 0.570138
6826 1 0.453147 0.106389 0.561045
31 1 0.424253 0.11462 0.574848
5433 1 0.425478 0.116958 0.576715
5432 2 0.429925 0.122317 0.581531
5431 1 0.433652 0.126975 0.585504
5821 1 0.435245 0.129255 0.586395
6827 3 0.457689 0.113038 0.561974
6828 1 0.463311 0.119682 0.562731
16717 1 0.466007 0.121937 0.563024
16718 2 0.471077 0.128601 0.563465
6267 1 0.467815 0.123307 0.590261
6266 3 0.474809 0.12798 0.58976
19908 1 0.376517 0.136424 0.582585
19907 3 0.378562 0.142535 0.586302
19906 1 0.381118 0.149666 0.589073
18088 1 0.367645 0.158495 0.568739
3930 1 0.382363 0.152363 0.589902
17650 1 0.394518 0.15066 0.570336
17651 2 0.40195 0.153073 0.570151
17652 1 0.409201 0.155934 0.570265
16737 1 0.412537 0.15766 0.569322
16736 2 0.4205 0.162544 0.568432
10797 1 0.415155 0.136866 0.573991
21027 1 0.416737 0.138867 0.576162
21026 2 0.419521 0.145012 0.581926
21025 1 0.42377 0.15127 0.584038
10195 1 0.439887 0.147884 0.558687
13701 1 0.441235 0.149109 0.561088
13700 3 0.445922 0.152428 0.566284
13699 1 0.45014 0.156769 0.571018
20815 1 0.451397 0.15861 0.572895
10326 1 0.425704 0.153716 0.585017
5822 3 0.438557 0.136261 0.589763
10325 3 0.429823 0.159618 0.587814
18962 3 0.467948 0.156187 0.560724
14334 1 0.45611 0.139261 0.574564
16719 1 0.475098 0.134723 0.566313
6270 1 0.477121 0.136481 0.567435
14333 3 0.46107 0.142755 0.579248
14332 1 0.466541 0.145499 0.584849
10963 1 0.468084 0.147211 0.586233
10964 3 0.472681 0.153426 0.589089
6269 3 0.483203 0.140873 0.570288
18961 1 0.472034 0.159909 0.566332
15283 1 0.473349 0.161486 0.568128
17836 1 0.495371 0.161006 0.560255
6268 1 0.488698 0.146365 0.573876
18004 1 0.490383 0.148103 0.575392
18005 3 0.495345 0.152646 0.57965
18006 1 0.500183 0.158105 0.581284
12391 1 0.502347 0.160239 0.581826
15339 1 0.508082 0.141356 0.574225
9998 2 0.357052 0.176812 0.587003
9999 1 0.358678 0.169548 0.585792
9997 1 0.35591 0.184515 0.588063
2194 1 0.356002 0.187717 0.58836
18089 2 0.372208 0.165429 0.571019
18090 1 0.37545 0.172166 0.573303
6577 1 0.376968 0.174833 0.574519
6578 3 0.382198 0.180893 0.577807
6579 1 0.386621 0.185069 0.581928
10339 1 0.389061 0.187016 0.582549
3333 1 0.406655 0.180621 0.581934
10340 3 0.39524 0.19206 0.584567
3332 3 0.413705 0.183771 0.584171
3331 1 0.420109 0.185236 0.587396
8637 1 0.422556 0.186506 0.588754
18063 1 0.448799 0.193587 0.560192
7872 1 0.450754 0.195249 0.561473
16735 1 0.426441 0.167691 0.568397
19731 1 0.42891 0.169675 0.568502
19730 3 0.436291 0.174864 0.5701
19729 1 0.441768 0.17961 0.572552
4450 1 0.443794 0.181875 0.573736
4451 3 0.448272 0.187123 0.577629
4452 1 0.453588 0.19322 0.579829
20816 3 0.455221 0.163359 0.576979
13559 3 0.461174 0.177994 0.558991
349 1 0.454965 0.195022 0.580762
13558 1 0.46573 0.183163 0.563662
4833 1 0.467624 0.184764 0.565446
15284 3 0.478547 0.166856 0.571997
20817 1 0.459254 0.168302 0.580753
9358 1 0.461065 0.170202 0.58192
9359 3 0.466376 0.176679 0.584789
4832 3 0.472504 0.189993 0.569473
9360 1 0.471756 0.180936 0.58892
12873 1 0.473838 0.182981 0.590613
4831 1 0.478188 0.195337 0.571475
15285 1 0.483601 0.172215 0.574498
6436 1 0.497745 0.163251 0.560299
6437 3 0.504394 0.166952 0.5612
15622 1 0.485915 0.174368 0.575374
18035 3 0.500044 0.190846 0.560896
15623 3 0.491652 0.178954 0.577077
15624 1 0.497046 0.182342 0.579388
114 1 0.499085 0.183741 0.580286
113 3 0.504191 0.189104 0.582433
12392 3 0.5075 0.164032 0.582949
112 1 0.510117 0.194132 0.584133
6438 1 0.510313 0.170931 0.562714
7581 1 0.513319 0.173024 0.563626
18034 1 0.506993 0.194535 0.562465
21136 1 0.513013 0.195572 0.58491
12393 1 0.514378 0.168318 0.584432
15730 1 0.355392 0.196092 0.560261
1803 1 0.357272 0.197193 0.562354
1802 2 0.363097 0.200207 0.568312
2195 3 0.357365 0.196321 0.587901
2196 1 0.361544 0.203163 0.589146
9564 1 0.363331 0.205066 0.58995
1801 1 0.370478 0.202201 0.571101
15198 1 0.372766 0.20343 0.572165
15197 3 0.37879 0.207613 0.574573
15196 1 0.38524 0.213223 0.577266
8025 1 0.370886 0.22202 0.560792
19491 1 0.371327 0.223757 0.563614
14364 1 0.387118 0.215624 0.57892
14363 3 0.392265 0.220795 0.581531
10648 1 0.393952 0.206464 0.560232
10341 1 0.400607 0.196802 0.585205
12262 1 0.402882 0.19899 0.58589
12263 3 0.407967 0.204606 0.588141
10649 3 0.397721 0.210655 0.565456
10650 1 0.404637 0.213951 0.567966
15756 1 0.406984 0.21497 0.568418
15755 3 0.414036 0.218948 0.570214
12264 1 0.413448 0.209419 0.590281
14362 1 0.398011 0.225414 0.583286
13591 1 0.400524 0.227545 0.583779
15754 1 0.421056 0.221647 0.571929
8782 1 0.423293 0.22267 0.572692
8712 1 0.445858 0.219075 0.55897
8711 3 0.45091 0.223948 0.562035
361 1 0.424438 0.195668 0.569235
362 3 0.431428 0.199583 0.571349
363 1 0.437382 0.203265 0.573533
2421 1 0.439169 0.205039 0.574912
2420 3 0.443794 0.210157 0.578579
2419 1 0.448896 0.215583 0.58149
14293 1 0.450941 0.218192 0.582537
8783 3 0.430671 0.226175 0.573892
7871 3 0.455692 0.199274 0.563456
18826 1 0.47994 0.19699 0.572752
14294 3 0.45741 0.223895 0.584201
7870 1 0.46064 0.204928 0.564126
15043 1 0.462568 0.206941 0.564333
15044 3 0.466608 0.212996 0.56753
350 3 0.460191 0.19887 0.58513
351 1 0.466427 0.203461 0.587611
4087 1 0.469318 0.205461 0.588388
15045 1 0.471656 0.218746 0.568917
16120 1 0.473515 0.220344 0.569542
16121 3 0.479813 0.224593 0.571817
16929 1 0.502084 0.217147 0.559968
18827 3 0.484938 0.201897 0.57538
3124 1 0.504201 0.219242 0.560742
10921 1 0.509596 0.196091 0.562676
18828 1 0.491662 0.205927 0.578024
20241 1 0.494557 0.207444 0.57903
20240 3 0.501153 0.210396 0.579279
20239 1 0.506274 0.215312 0.58149
6312 1 0.50867 0.217294 0.582468
3125 3 0.509146 0.225257 0.563376
6311 3 0.513994 0.22261 0.584653
1939 1 0.354068 0.237005 0.587928
1940 2 0.361483 0.241907 0.590353
19490 3 0.373374 0.229301 0.569461
2838 1 0.391015 0.229128 0.562119
2683 1 0.377973 0.236497 0.575539
19489 1 0.376248 0.234425 0.574051
2684 3 0.384475 0.24161 0.579151
2685 1 0.390806 0.246252 0.580184
20278 1 0.393261 0.247784 0.581082
7468 1 0.407252 0.256684 0.586207
13592 3 0.407712 0.231441 0.585518
15440 3 0.39497 0.252763 0.560056
2837 3 0.397852 0.231836 0.564313
2836 1 0.405147 0.23467 0.565221
20279 3 0.399365 0.251448 0.583501
17788 1 0.407878 0.236412 0.566072
17789 3 0.414562 0.2413 0.568682
17790 1 0.421176 0.245713 0.571129
13593 1 0.414109 0.235943 0.586825
741 1 0.417012 0.237665 0.587421
20280 1 0.404725 0.255282 0.584987
21574 1 0.423153 0.24765 0.571728
740 3 0.423112 0.241157 0.590041
7469 3 0.414389 0.260367 0.588707
15441 1 0.400159 0.257692 0.563383
6222 1 0.40278 0.259154 0.564245
14140 1 0.452949 0.25621 0.564533
20244 1 0.440926 0.244217 0.558501
20243 3 0.446326 0.249575 0.560908
21575 3 0.428446 0.252515 0.57356
8784 1 0.437096 0.230206 0.575063
10557 1 0.43909 0.231747 0.575673
10556 3 0.445125 0.236411 0.578127
10555 1 0.451053 0.240477 0.582079
18238 1 0.452712 0.242655 0.583507
20242 1 0.451084 0.254322 0.563447
21576 1 0.434166 0.256914 0.57672
171 1 0.436519 0.258649 0.57757
8710 1 0.455904 0.229563 0.564815
10126 1 0.457734 0.23153 0.566032
14295 1 0.463338 0.228477 0.588366
18239 3 0.457404 0.248563 0.58698
10127 3 0.463134 0.236685 0.568283
10128 1 0.469258 0.240837 0.570812
1500 1 0.471457 0.242172 0.571723
1499 3 0.477107 0.247218 0.573667
16549 1 0.465912 0.230417 0.589197
1498 1 0.48301 0.252507 0.57625
9064 1 0.484515 0.254361 0.576697
16550 3 0.472656 0.234929 0.590351
18240 1 0.462734 0.253109 0.590113
16122 1 0.486007 0.229122 0.573058
21161 3 0.502533 0.246414 0.560592
21162 1 0.50705 0.25272 0.56465
1428 1 0.488457 0.230699 0.574559
10631 3 0.504201 0.248346 0.585626
1427 3 0.494373 0.234699 0.577005
10630 1 0.500198 0.241858 0.582369
1426 1 0.49861 0.239536 0.581036
8611 1 0.509291 0.255241 0.566206
10632 1 0.509482 0.253839 0.587937
3126 1 0.514374 0.230691 0.566546
919 1 0.511291 0.255458 0.588799
14634 1 0.508439 0.0837624 0.612267
19567 1 0.490831 0.0909445 0.616664
594 1 0.500301 0.0717346 0.603739
593 2 0.504785 0.0766456 0.60798
592 1 0.507284 0.0822399 0.611238
19568 2 0.491249 0.0977311 0.613598
14633 3 0.513439 0.0885318 0.616319
5403 1 0.378453 0.126692 0.609238
17880 1 0.45349 0.114555 0.60107
17879 2 0.458196 0.121059 0.603773
17878 1 0.462056 0.127343 0.606936
5995 1 0.463738 0.130112 0.608128
20541 1 0.506586 0.115351 0.604334
19569 1 0.493642 0.105301 0.61461
19802 2 0.496708 0.115049 0.617224
19803 1 0.494629 0.107906 0.615126
15481 1 0.49931 0.125709 0.619952
19801 1 0.498402 0.123121 0.619073
20540 2 0.511434 0.121811 0.604737
3929 2 0.385121 0.159858 0.591267
5402 2 0.383058 0.132664 0.60742
5401 1 0.388569 0.137169 0.605486
9000 1 0.390755 0.139321 0.604942
5373 1 0.379497 0.157025 0.613125
5372 2 0.386045 0.161249 0.614326
16531 1 0.382056 0.141045 0.622727
8999 2 0.396569 0.144745 0.603434
8998 1 0.402112 0.151379 0.602719
10947 1 0.404251 0.15364 0.602799
10946 3 0.410143 0.159545 0.603198
667 1 0.423546 0.145666 0.61181
5823 1 0.443145 0.142134 0.592585
3829 1 0.44456 0.144735 0.593726
668 3 0.428914 0.151543 0.611893
3830 3 0.447875 0.150886 0.597347
669 1 0.433745 0.156887 0.613703
12955 1 0.436021 0.15859 0.614549
12956 3 0.441773 0.162654 0.616437
3831 1 0.452777 0.156263 0.600496
10965 1 0.477207 0.158576 0.591722
19287 1 0.479242 0.160745 0.592674
6265 1 0.481323 0.133319 0.591879
5673 1 0.483781 0.135309 0.592461
927 1 0.454499 0.141913 0.619781
7950 1 0.455422 0.15847 0.602147
926 3 0.457491 0.14801 0.62163
5996 3 0.467959 0.137855 0.609049
5997 1 0.473838 0.142133 0.609852
14602 1 0.475946 0.14479 0.610507
14603 3 0.480903 0.151651 0.612067
5672 3 0.48992 0.139991 0.594692
5671 1 0.495795 0.144494 0.597266
14604 1 0.48567 0.156784 0.614227
20923 1 0.497802 0.146076 0.598472
20924 3 0.503512 0.150072 0.601116
16408 1 0.487286 0.159043 0.615166
15482 3 0.500937 0.13255 0.622744
20925 1 0.508586 0.155253 0.603471
16459 1 0.510564 0.157554 0.604506
7909 1 0.356186 0.193001 0.615849
4639 1 0.371092 0.171531 0.618091
7996 1 0.366886 0.178811 0.599521
7997 3 0.371324 0.185549 0.600076
3928 1 0.387945 0.165905 0.594015
13692 1 0.389466 0.168727 0.595246
4640 2 0.374381 0.179062 0.619532
4641 1 0.376994 0.186457 0.622255
64 1 0.378537 0.188436 0.622553
65 3 0.384361 0.193676 0.622866
13691 3 0.393639 0.174562 0.598773
15661 1 0.393309 0.167614 0.617802
5371 1 0.39159 0.165827 0.616966
7998 1 0.377369 0.191985 0.601331
18358 1 0.378918 0.194293 0.602049
10945 1 0.415721 0.16619 0.605267
13690 1 0.397461 0.180748 0.600372
1161 1 0.399032 0.183009 0.60095
20325 1 0.417147 0.168346 0.606338
1160 3 0.404487 0.188522 0.603004
20324 3 0.421883 0.173884 0.609875
1159 1 0.409981 0.193001 0.606776
14842 1 0.41181 0.194937 0.608007
15662 2 0.396898 0.175112 0.619686
15663 1 0.402717 0.181451 0.621587
10996 1 0.404501 0.183087 0.62246
8636 3 0.428325 0.191025 0.59264
8635 1 0.434339 0.194953 0.5954
10324 1 0.434452 0.166444 0.591839
18493 1 0.436391 0.168564 0.593096
20323 1 0.427159 0.18014 0.612568
18494 3 0.441657 0.174121 0.596394
18495 1 0.44738 0.179321 0.598444
1120 1 0.449778 0.181343 0.599457
18691 1 0.429589 0.18172 0.613583
12957 1 0.446695 0.16851 0.619203
18264 1 0.448311 0.170932 0.620159
18692 3 0.435699 0.184642 0.616185
18693 1 0.441383 0.189987 0.617423
2764 1 0.44391 0.192135 0.618381
18263 3 0.452929 0.176915 0.622738
19286 3 0.484362 0.166241 0.594728
7949 3 0.460046 0.164279 0.60395
12872 3 0.479594 0.188049 0.593145
1121 3 0.456387 0.18618 0.601606
7948 1 0.466212 0.169182 0.606016
10042 1 0.468109 0.170853 0.60672
10043 3 0.474084 0.176116 0.610313
10044 1 0.479348 0.181743 0.612183
1122 1 0.461609 0.190535 0.603848
14830 1 0.463057 0.192542 0.60472
21495 1 0.481382 0.183455 0.612633
16409 3 0.491287 0.165252 0.61736
12871 1 0.485259 0.192256 0.59529
17511 1 0.487283 0.194245 0.595965
21494 3 0.486564 0.189449 0.615019
19285 1 0.49192 0.170554 0.597191
15226 1 0.49343 0.17206 0.597584
15227 3 0.499152 0.176583 0.5995
15228 1 0.504853 0.181596 0.601505
3052 1 0.506549 0.183347 0.60237
3053 3 0.512153 0.188407 0.603803
21493 1 0.493324 0.195123 0.617854
16410 1 0.495819 0.170847 0.619953
2703 1 0.498248 0.172833 0.621047
7910 3 0.362337 0.198201 0.618092
9563 3 0.367483 0.210955 0.593369
9562 1 0.37093 0.217743 0.594949
18359 3 0.384458 0.201179 0.602327
19329 1 0.373138 0.220396 0.595569
7911 1 0.368976 0.203174 0.618253
20859 1 0.370577 0.205316 0.618168
20858 3 0.376044 0.212757 0.618204
20857 1 0.381769 0.217546 0.619103
9175 1 0.384375 0.219264 0.61953
19328 3 0.378981 0.226265 0.597727
18360 1 0.38871 0.207311 0.60206
5368 1 0.390847 0.210142 0.602399
9176 3 0.389944 0.224641 0.621212
10174 1 0.41591 0.210683 0.590923
10175 3 0.423215 0.214022 0.59239
5369 3 0.397011 0.215252 0.603513
14843 3 0.417094 0.201681 0.609358
5370 1 0.402334 0.220794 0.60674
3024 1 0.404784 0.222515 0.607538
3023 3 0.411872 0.227121 0.608967
14844 1 0.422229 0.20701 0.611645
20286 1 0.436192 0.196799 0.59708
20285 3 0.441136 0.201873 0.598914
10176 1 0.429379 0.21704 0.594412
20446 1 0.431454 0.219012 0.595398
14260 1 0.424674 0.209045 0.612308
20284 1 0.447501 0.207638 0.601311
14794 1 0.450187 0.209748 0.602042
2765 3 0.449286 0.197624 0.619271
14261 3 0.430266 0.213791 0.613944
14262 1 0.4356 0.218351 0.616454
10000 1 0.437646 0.220165 0.617434
20447 3 0.437422 0.225357 0.596547
10001 3 0.444088 0.225087 0.620701
4088 3 0.475757 0.211134 0.590764
2766 1 0.455155 0.202538 0.621918
14795 3 0.455493 0.214111 0.602652
2694 1 0.45729 0.204598 0.622763
4089 1 0.481287 0.21584 0.592337
20127 1 0.483254 0.217797 0.592596
14796 1 0.460527 0.219884 0.605192
15420 1 0.462616 0.221934 0.6066
14831 3 0.467546 0.198324 0.605917
14832 1 0.473336 0.203194 0.608521
12520 1 0.47566 0.205113 0.609512
15419 3 0.467631 0.226072 0.610225
12521 3 0.481963 0.210433 0.612349
12093 1 0.494931 0.197316 0.618969
20126 3 0.488858 0.222448 0.593159
15174 1 0.512788 0.217716 0.60304
12522 1 0.486979 0.215761 0.616314
17510 3 0.492939 0.199534 0.59741
17509 1 0.498851 0.205432 0.599098
15172 1 0.500984 0.207234 0.599794
15173 3 0.506996 0.212913 0.601507
12420 1 0.489277 0.217463 0.616774
12419 3 0.495633 0.221782 0.619277
12092 3 0.501015 0.203098 0.621181
12418 1 0.501138 0.225873 0.621924
20125 1 0.494309 0.227849 0.59687
8991 1 0.502934 0.228143 0.622514
8638 1 0.359664 0.257988 0.616848
1941 1 0.367952 0.245936 0.591515
14290 1 0.37047 0.247841 0.592024
19327 1 0.384687 0.230781 0.600082
20929 1 0.365753 0.236073 0.618625
19033 1 0.387517 0.232473 0.600639
20930 3 0.373115 0.23881 0.616054
8259 1 0.381999 0.245227 0.61663
8258 3 0.388855 0.250942 0.617633
20931 1 0.379579 0.243344 0.616316
14291 3 0.377397 0.253414 0.593527
14292 1 0.384682 0.256595 0.596398
21007 1 0.386635 0.258246 0.596971
8257 1 0.395345 0.256149 0.61974
13625 3 0.421171 0.260415 0.610109
19034 3 0.39381 0.236775 0.601825
19035 1 0.399839 0.241519 0.60341
6 1 0.402025 0.243268 0.604199
5 3 0.407717 0.248132 0.605672
4 1 0.412714 0.253111 0.607017
3022 1 0.418432 0.230917 0.611164
13624 1 0.415309 0.255466 0.607809
15132 1 0.421086 0.232795 0.612103
2440 1 0.397275 0.258157 0.620301
9177 1 0.395115 0.230318 0.62283
4836 1 0.44692 0.257642 0.622852
20448 1 0.442353 0.230771 0.599253
739 1 0.428405 0.24484 0.59284
276 1 0.43092 0.24666 0.594197
275 3 0.437601 0.250916 0.59697
15131 3 0.42665 0.237644 0.614569
12068 3 0.438609 0.250118 0.620115
15130 1 0.432076 0.243783 0.616748
15162 1 0.444417 0.232482 0.600096
15161 3 0.451635 0.238109 0.60281
12067 1 0.433445 0.245507 0.617316
12069 1 0.444514 0.255517 0.622102
274 1 0.442623 0.255497 0.600542
8646 1 0.444614 0.258645 0.601683
2658 1 0.464577 0.254667 0.591293
15700 1 0.471925 0.256372 0.611966
16551 1 0.478478 0.240066 0.593345
15160 1 0.456293 0.242259 0.606862
15418 1 0.473867 0.229902 0.613219
12642 1 0.480309 0.241656 0.594149
6985 1 0.458202 0.24408 0.607744
6987 1 0.469217 0.254139 0.611559
6986 3 0.463984 0.24865 0.610279
6001 1 0.47621 0.231649 0.613996
6002 3 0.481466 0.237383 0.61603
2657 3 0.470569 0.260762 0.59306
15701 3 0.478729 0.260688 0.614148
12641 3 0.486183 0.246278 0.596665
6003 1 0.486876 0.242668 0.618123
12640 1 0.491401 0.251883 0.600133
1057 1 0.488692 0.244691 0.61951
1058 3 0.493934 0.250322 0.621407
21022 1 0.49682 0.229533 0.598347
12039 1 0.507441 0.242863 0.606066
21023 3 0.501671 0.234281 0.601837
21024 1 0.50556 0.240403 0.605026
17757 1 0.493486 0.253998 0.600884
12038 3 0.512937 0.247713 0.609303
17756 3 0.498398 0.260005 0.602357
7410 1 0.438625 0.0661209 0.646587
7409 3 0.441467 0.0743168 0.646248
7408 1 0.443671 0.0816107 0.646053
7858 1 0.444572 0.0847144 0.645427
7859 3 0.447587 0.0910869 0.643073
7860 1 0.45144 0.0975713 0.640975
19467 1 0.509374 0.0919528 0.644715
796 1 0.349519 0.125829 0.649483
10620 1 0.395865 0.119029 0.639831
10619 2 0.402572 0.120659 0.636437
10618 1 0.408176 0.123585 0.632552
5832 1 0.410239 0.125696 0.631563
13446 1 0.453332 0.100032 0.639466
20788 1 0.441943 0.127568 0.641892
13445 3 0.457064 0.106437 0.636942
13444 1 0.461838 0.112627 0.632955
6336 1 0.463523 0.115023 0.632018
6335 2 0.466734 0.120883 0.629226
6334 1 0.469976 0.12787 0.629697
19465 1 0.510307 0.106553 0.649219
6132 1 0.511612 0.108984 0.64959
20023 1 0.501519 0.128919 0.645934
4825 1 0.511939 0.111808 0.625118
19466 2 0.508432 0.0988976 0.648239
797 3 0.355343 0.132255 0.648081
798 1 0.36099 0.137426 0.647208
18196 1 0.363184 0.139444 0.646669
2650 1 0.357793 0.160026 0.637884
6536 2 0.382781 0.157098 0.642887
18198 1 0.374911 0.149804 0.642662
6537 1 0.377144 0.152377 0.64293
18197 2 0.369416 0.143741 0.644198
6535 1 0.388909 0.161954 0.643657
16532 2 0.389513 0.143064 0.626008
5831 3 0.415262 0.131524 0.630431
13773 1 0.394808 0.134993 0.646497
5830 1 0.420494 0.136379 0.630332
12156 1 0.422501 0.138465 0.630441
16533 1 0.395685 0.147159 0.627249
3421 1 0.397922 0.148666 0.627713
3422 2 0.403347 0.152443 0.629542
3423 1 0.409393 0.157513 0.629973
10873 1 0.412139 0.160214 0.630372
13772 2 0.397306 0.142122 0.650162
20789 2 0.446167 0.13419 0.643129
12155 3 0.427442 0.144143 0.632877
12154 1 0.430653 0.151365 0.635158
21478 1 0.432299 0.15361 0.636128
21479 3 0.436621 0.159316 0.639733
20790 1 0.451244 0.140117 0.642915
16383 1 0.453586 0.142558 0.643125
2697 1 0.471343 0.130519 0.62995
20329 1 0.473204 0.131694 0.649971
2696 3 0.4763 0.137731 0.629246
925 1 0.46193 0.153902 0.623998
15768 1 0.46398 0.156898 0.625609
16382 2 0.459387 0.148418 0.644876
16381 1 0.465509 0.15211 0.646661
14548 1 0.466993 0.153777 0.64802
14549 3 0.47111 0.159271 0.651499
20330 2 0.479301 0.13743 0.651605
2695 1 0.48097 0.14358 0.630826
13105 1 0.482953 0.145826 0.631684
15483 1 0.50336 0.139961 0.624019
17472 1 0.504971 0.142816 0.624868
17470 1 0.514082 0.155783 0.628324
17471 3 0.509321 0.149324 0.626327
13106 3 0.488302 0.152239 0.633651
13107 1 0.493574 0.157257 0.637089
20024 3 0.506095 0.135109 0.645028
7117 1 0.496048 0.159467 0.6384
20331 1 0.484619 0.142416 0.652639
9081 1 0.486519 0.144326 0.653352
20025 1 0.510634 0.142309 0.645597
16918 1 0.512221 0.144453 0.646258
2651 2 0.362629 0.166057 0.63649
14797 1 0.391365 0.163732 0.643974
3798 1 0.36398 0.188989 0.648724
2652 1 0.369132 0.171236 0.638073
12310 1 0.370949 0.173162 0.639041
12311 2 0.376394 0.178752 0.641162
12312 1 0.384206 0.183698 0.640973
9300 1 0.386734 0.185147 0.641054
9299 2 0.393416 0.189392 0.642413
10874 3 0.41774 0.165737 0.630885
14798 2 0.397515 0.16836 0.644558
10997 3 0.410826 0.186831 0.62451
14861 2 0.412394 0.180166 0.646431
14862 1 0.418571 0.184556 0.6497
11878 1 0.420865 0.185856 0.650467
10998 1 0.417556 0.192707 0.626392
12454 1 0.419614 0.194389 0.626915
14799 1 0.403563 0.173399 0.645226
14860 1 0.405452 0.175552 0.645527
9298 1 0.399638 0.19377 0.642928
4719 1 0.401874 0.195518 0.643365
10875 1 0.423508 0.170991 0.631661
21480 1 0.442064 0.164154 0.642135
16197 1 0.444809 0.166249 0.643106
16196 3 0.451434 0.169915 0.644619
11879 3 0.429765 0.189578 0.653409
3025 1 0.42523 0.172459 0.631843
3026 3 0.430709 0.177779 0.633958
3027 1 0.437349 0.18419 0.635818
10470 1 0.439843 0.185811 0.636427
10469 3 0.445904 0.191297 0.638796
15767 3 0.468811 0.163561 0.628031
18262 1 0.459573 0.18109 0.625621
4800 1 0.461671 0.183294 0.626409
4799 3 0.467292 0.187766 0.628273
16195 1 0.457523 0.17479 0.645282
13257 1 0.460166 0.176319 0.645629
15766 1 0.474962 0.169034 0.628964
10293 1 0.477394 0.170441 0.629601
13256 3 0.46703 0.18084 0.648511
13255 1 0.473336 0.186613 0.650781
3217 1 0.47516 0.18873 0.651603
4798 1 0.472492 0.19263 0.631714
10292 3 0.483207 0.176471 0.63307
3218 3 0.479604 0.19384 0.654527
13741 1 0.474547 0.194549 0.632435
14550 1 0.47706 0.163918 0.653027
18924 1 0.479269 0.165567 0.653986
5466 1 0.513138 0.184475 0.62671
7118 3 0.501326 0.163746 0.642643
2702 3 0.50445 0.177386 0.62339
10291 1 0.488884 0.180815 0.636933
16026 1 0.508144 0.17093 0.64653
7119 1 0.506318 0.169068 0.645789
1351 1 0.491574 0.183127 0.638503
1352 3 0.496691 0.187805 0.642158
1353 1 0.502849 0.193084 0.64482
18739 1 0.504811 0.195306 0.645234
16025 3 0.512862 0.176813 0.649183
2701 1 0.510499 0.182397 0.625796
66 1 0.390839 0.199021 0.623146
19518 1 0.393504 0.200648 0.623212
3797 3 0.364381 0.196209 0.645925
3796 1 0.367701 0.204546 0.644211
19374 1 0.369121 0.206872 0.64353
19373 2 0.37369 0.213675 0.642407
19372 1 0.380005 0.219495 0.642469
3783 1 0.38282 0.221508 0.642275
3782 2 0.388416 0.226208 0.642348
19517 3 0.398954 0.205736 0.624067
19516 1 0.404419 0.210384 0.62553
9861 1 0.406605 0.212051 0.626381
9860 3 0.413098 0.216804 0.62981
9859 1 0.420099 0.221696 0.631368
8040 1 0.422226 0.223121 0.631829
4718 3 0.408533 0.200329 0.644602
4717 1 0.415477 0.204809 0.645737
10240 1 0.417737 0.207301 0.646971
10241 3 0.422236 0.212939 0.64862
10468 1 0.451707 0.19598 0.641594
10242 1 0.427904 0.219122 0.650241
12455 3 0.42546 0.198995 0.630781
12456 1 0.431953 0.202085 0.636005
855 1 0.433822 0.203698 0.637512
854 3 0.440096 0.210127 0.638837
853 1 0.446135 0.215694 0.640337
1507 1 0.448563 0.217405 0.640468
4899 1 0.429659 0.220693 0.651002
4898 3 0.435293 0.225601 0.654182
8039 3 0.428233 0.227366 0.634011
1508 3 0.454197 0.222659 0.642066
12690 1 0.453865 0.197688 0.642671
2693 3 0.463857 0.209751 0.62531
2692 1 0.470283 0.214579 0.626863
18489 1 0.472488 0.217041 0.627446
12689 3 0.460429 0.202772 0.645205
13742 3 0.480175 0.199742 0.633598
12688 1 0.466816 0.206623 0.648451
14868 1 0.468507 0.208034 0.649007
14867 3 0.474215 0.214258 0.650352
14866 1 0.479667 0.219068 0.653476
18488 3 0.476614 0.223071 0.629946
18487 1 0.481176 0.227907 0.633425
10614 1 0.481778 0.22095 0.653825
13743 1 0.48545 0.205846 0.635078
12091 1 0.507229 0.208154 0.623771
18129 1 0.509817 0.209825 0.624312
7629 1 0.487488 0.207712 0.635688
7628 3 0.494711 0.212635 0.637931
7627 1 0.500509 0.218562 0.63937
3433 1 0.501968 0.2206 0.640486
3434 3 0.507581 0.226704 0.643169
18740 3 0.510886 0.200011 0.646858
6191 2 0.40183 0.260244 0.642607
1050 1 0.397362 0.232129 0.623252
1049 3 0.404115 0.236576 0.625281
1048 1 0.409661 0.241189 0.627461
20622 1 0.411572 0.24286 0.628707
20621 3 0.417256 0.248026 0.632389
3781 1 0.395848 0.231446 0.643672
19827 1 0.398715 0.233141 0.644689
19826 3 0.405511 0.236239 0.648225
19825 1 0.413555 0.240497 0.650936
11784 1 0.416289 0.242124 0.651511
11783 3 0.422566 0.24667 0.653099
20620 1 0.423622 0.253347 0.63473
6192 1 0.39572 0.254684 0.639427
10002 1 0.449044 0.230596 0.623195
18504 1 0.451164 0.233083 0.624141
8038 1 0.43207 0.231896 0.637533
6816 1 0.433519 0.233881 0.638225
6815 3 0.437706 0.239261 0.63973
13156 1 0.443736 0.248196 0.64076
6814 1 0.442349 0.246595 0.640471
13157 3 0.449899 0.253609 0.642013
14350 1 0.425572 0.255202 0.635291
2226 1 0.457862 0.259562 0.646503
13158 1 0.455934 0.257932 0.64532
2031 1 0.479411 0.258549 0.635892
1509 1 0.459736 0.22836 0.643567
18503 3 0.456171 0.239464 0.626808
18502 1 0.46204 0.2445 0.630007
9472 1 0.462344 0.230924 0.644978
9851 3 0.470233 0.251526 0.634088
9473 3 0.467039 0.236134 0.647561
9474 1 0.472007 0.240775 0.650505
17706 1 0.473926 0.242961 0.65133
17705 3 0.479137 0.24857 0.653133
9850 1 0.463859 0.245933 0.630983
9852 1 0.475961 0.256358 0.635439
4333 1 0.483598 0.229892 0.634483
8989 1 0.513136 0.239166 0.625974
1059 1 0.498761 0.255979 0.623415
16258 1 0.501353 0.258218 0.624083
11759 3 0.512081 0.260626 0.648339
4334 3 0.488838 0.235405 0.636337
8990 3 0.507458 0.23364 0.623626
3435 1 0.512826 0.231146 0.645904
11760 1 0.506657 0.256433 0.645168
7543 1 0.504909 0.254287 0.644498
4335 1 0.494246 0.240691 0.63926
7545 1 0.495915 0.242756 0.640401
7544 3 0.500456 0.248132 0.642473
2562 1 0.45269 0.127574 0.658342
6667 1 0.465786 0.117925 0.669182
6668 3 0.473105 0.121383 0.671216
6669 1 0.479315 0.125232 0.673259
9606 1 0.48178 0.126744 0.674062
846 1 0.349058 0.140133 0.683774
845 2 0.354588 0.144225 0.679711
844 1 0.359919 0.147991 0.674438
6813 1 0.361681 0.149477 0.672485
6812 3 0.36675 0.153337 0.666335
14684 2 0.384521 0.148875 0.681898
14685 1 0.384659 0.14854 0.67398
6811 1 0.373855 0.157196 0.663484
547 1 0.375997 0.158618 0.663268
13771 1 0.400247 0.148773 0.655283
19366 1 0.401199 0.151279 0.657211
19367 2 0.404089 0.157192 0.661414
19368 1 0.407896 0.162505 0.665503
11580 1 0.406874 0.136136 0.674307
11579 2 0.412469 0.143076 0.675781
11578 1 0.419372 0.146252 0.678856
4686 1 0.421463 0.148141 0.679387
2179 1 0.43532 0.140198 0.662261
2180 3 0.43972 0.146345 0.660445
2181 1 0.443908 0.152213 0.662052
8151 1 0.44577 0.154815 0.662609
8150 3 0.451036 0.160899 0.664797
6082 1 0.439192 0.139484 0.684931
6083 3 0.445493 0.143941 0.683447
6084 1 0.451497 0.147927 0.684604
16030 1 0.453614 0.150033 0.684691
4685 3 0.426464 0.154017 0.680727
4684 1 0.431785 0.158963 0.681715
7957 1 0.433765 0.160978 0.682537
2561 2 0.457655 0.133986 0.660575
2560 1 0.463075 0.139362 0.663526
5967 1 0.464807 0.141703 0.665232
5966 3 0.469236 0.147216 0.669546
5965 1 0.474647 0.152265 0.671229
8208 1 0.476852 0.154205 0.671993
8207 3 0.482829 0.158854 0.674566
16031 3 0.459136 0.155756 0.685392
5010 1 0.510118 0.14444 0.673364
6379 1 0.512768 0.145976 0.673525
9605 2 0.488706 0.130502 0.67647
9080 3 0.491824 0.148376 0.65615
9604 1 0.495171 0.134885 0.674757
5008 1 0.497574 0.136543 0.673875
9079 1 0.497575 0.152604 0.659253
345 1 0.499882 0.154821 0.660515
8206 1 0.488836 0.161726 0.676822
344 3 0.503659 0.160818 0.662135
5009 3 0.504639 0.140775 0.673945