ITEM: TIMESTEP
50000000
ITEM: NUMBER OF ATOMS
6861
ITEM: BOX BOUNDS pp pp pp
0.0000000000000000e+00 5.0000000000000000e+01
0.0000000000000000e+00 5.0000000000000000e+01
0.0000000000000000e+00 5.0000000000000000e+01
ITEM: ATOMS id type vx vy vz 
8224 1 8.47015 0.221022 4.09695 
6107 2 -0.175001 1.45163 1.72802 
6108 1 3.89039 5.29864 -1.94414 
12277 1 0.356153 5.07792 5.35026 
10881 1 -1.8104 -5.58019 1.98591 
10880 2 -0.714913 0.497618 -0.988665 
10879 1 10.501 3.72323 -1.2065 
6106 1 -0.968734 -7.24281 -2.17885 
11590 1 -6.51465 -2.39865 5.03551 
12278 2 5.4924 -0.373834 6.3589 
17809 1 2.42036 -1.6804 3.27026 
17810 3 1.07632 -3.71784 3.01186 
12279 1 -5.16986 -0.617569 3.14332 
17811 1 -1.05775 -7.51444 -3.29197 
8428 1 4.98685 -3.40444 0.137783 
15312 1 0.223533 6.18333 -1.8858 
2277 1 -2.69845 -0.270412 -0.471385 
2276 2 -2.91051 -1.29668 -1.1509 
11591 2 3.07224 0.186015 -1.31457 
11592 1 2.47459 0.724313 5.18086 
2275 1 -0.065258 0.524712 3.21065 
4400 2 0.715029 0.614877 -4.76918 
4399 1 -6.89285 1.86787 0.670413 
3417 1 -1.8142 -5.67313 -0.0137695 
15924 1 -6.96434 3.9329 -4.01061 
15923 3 -0.947244 3.47513 3.19579 
8035 1 2.21442 -1.5312 -6.13544 
9028 1 -3.45589 0.0755416 -1.14736 
9030 1 0.500961 3.05574 -0.587972 
9029 3 -2.15494 0.802307 -0.16988 
8036 2 -1.99954 2.32597 -0.766874 
15311 3 -0.69018 -0.240884 -1.42484 
15310 1 2.49936 4.65907 -0.140909 
4401 1 -3.49044 -3.02578 -1.68957 
9673 1 -1.61186 0.0836305 -1.53887 
17777 3 0.647965 1.97355 1.08609 
17776 1 -4.31369 1.72118 1.06164 
9674 3 2.02183 0.534397 -1.75683 
9675 1 -8.11326 -1.62009 0.0815831 
20050 1 1.66438 3.47223 0.251234 
20051 2 0.587863 -3.61806 -2.06295 
17778 1 0.303627 1.00024 9.51921 
5746 1 -2.76216 0.626087 3.01143 
9062 3 -0.580162 0.406496 -1.24514 
9061 1 -0.604875 -5.04416 4.652 
9063 1 4.57091 -1.45402 -6.25619 
15922 1 -4.36456 -2.92429 0.339192 
11395 1 0.722036 4.62764 -3.00143 
11396 2 -4.4439 -0.0286067 -3.18362 
11397 1 0.0210889 1.52699 4.19608 
16674 1 -1.74252 -0.184954 -2.45804 
16673 2 -0.73176 6.06319 1.74406 
3416 3 3.44194 2.09913 -1.36203 
9772 1 -1.48395 -1.99735 7.99578 
3415 1 0.127995 -0.647079 5.34768 
14724 1 -5.73323 -1.32764 -3.84116 
7530 1 -0.51973 -0.642471 1.43511 
14723 2 -1.40997 2.829 -1.17392 
20082 1 -4.0626 0.148729 -0.5394 
14722 1 -4.8227 0.952908 1.89152 
20081 2 3.24944 -0.971858 4.02118 
8037 1 8.28654 -1.02323 -3.87245 
1821 1 -5.70521 -8.75479 3.55536 
1662 1 -3.96381 -0.265051 -4.86015 
3308 2 -1.90823 0.824108 0.818145 
1660 1 4.25178 -5.82104 -4.83505 
3307 1 -4.4555 -2.0743 2.43454 
1661 2 0.622806 1.13727 -3.23026 
1820 2 1.5788 2.60142 0.709669 
20052 1 1.40319 -0.382241 -1.36867 
14587 1 -2.80494 2.56779 2.41442 
1819 1 3.19564 -3.48674 -5.63678 
14589 1 -1.31146 1.01539 6.99246 
14588 2 0.311022 -1.17871 1.80632 
84 1 1.22695 -1.59899 -5.53167 
5747 2 2.48204 1.24606 2.74417 
5748 1 -0.176869 4.63098 -4.6703 
16959 1 -6.24688 0.738431 5.54446 
16958 2 -4.02183 -2.54624 0.844505 
16957 1 -2.11634 3.96583 -0.79298 
10984 1 -3.80247 2.52017 -3.59137 
15769 1 -5.55627 -0.481157 0.284557 
15770 3 -2.89544 -2.07946 -3.73109 
15771 1 0.886762 -1.00285 -2.70587 
2878 1 -6.21314 -3.54486 5.17874 
7833 1 1.16085 1.37109 -0.614109 
7832 2 0.651998 1.62718 -0.840512 
7831 1 0.371156 1.84911 -3.30323 
900 1 -3.5487 -1.80035 1.96363 
16672 1 -3.29248 -2.55868 1.26506 
8824 1 1.85728 2.09465 -3.41241 
8825 2 -1.34623 -1.51627 3.26395 
8826 1 -0.446071 2.19777 4.0759 
899 2 -0.845226 2.12719 -1.31049 
18484 1 -4.15838 -0.227423 -5.74029 
9773 2 -1.05647 -1.79475 -3.83365 
9774 1 -3.94963 -0.599977 1.04996 
16266 1 -3.30012 -4.63851 -1.66089 
16265 2 -2.93973 2.23601 0.706539 
6693 1 1.18016 0.630127 -0.462496 
20928 1 0.00979776 1.3852 1.87083 
20927 2 4.91969 2.91906 2.65576 
20926 1 -1.96807 -3.23188 -1.15514 
7326 1 -0.729126 2.91473 -1.20255 
9753 1 -4.33704 0.284972 -0.571329 
9752 2 -1.87063 -2.41285 -0.66447 
20080 1 -2.3124 -1.10452 -0.60157 
9751 1 -4.53782 -0.977126 3.06374 
241 1 -4.37055 -1.91054 -7.62536 
19810 1 -3.83768 0.224024 4.73219 
3309 1 2.73839 0.136818 5.08358 
242 2 4.25217 -1.04504 1.26309 
243 1 1.36801 -0.415818 2.12869 
19811 2 0.856194 3.13431 -0.13459 
6692 2 -1.6222 -5.41152 -1.00907 
6691 1 1.69183 -1.48181 2.43507 
5915 2 -3.70211 -0.93498 3.61027 
5695 1 5.44826 0.999829 2.74664 
5696 2 3.24223 -2.38533 -0.00514606 
5697 1 -7.68866 4.16408 1.8646 
15891 1 -1.53121 -1.05204 -1.60757 
15890 2 0.839034 0.707417 0.506429 
10986 1 -1.64302 -2.8693 0.47277 
5914 1 1.20303 6.96898 -3.84879 
10985 2 0.0893818 -0.187345 -2.00826 
10479 1 3.19482 -1.26058 6.14096 
10478 2 3.52214 -1.13481 -4.12752 
2879 2 -0.972588 -1.02844 -4.81419 
2880 1 2.79947 -3.1552 -2.1857 
7296 1 6.67269 3.15795 -3.10433 
7295 2 -2.70325 0.880246 -0.487808 
10477 1 -1.69328 -1.41001 -3.74002 
7294 1 -3.05707 3.28013 -0.468078 
898 1 -0.733696 4.40067 0.602348 
18485 2 -0.501372 1.91866 1.4753 
236 2 0.72419 1.89307 2.00169 
18486 1 -4.14611 2.07729 2.39109 
235 1 0.70752 -0.825614 -2.08455 
3262 1 -0.597471 -4.55276 1.75107 
3263 2 0.784872 2.21611 -3.36323 
17946 1 -5.32822 -0.0144152 -0.936571 
17945 2 -0.860359 -3.56046 0.357874 
3264 1 -1.66039 1.78293 1.39402 
9243 1 3.26954 4.06216 5.01303 
237 1 -0.384242 -2.0283 1.70587 
17944 1 -1.79453 -0.22056 -0.917466 
14111 2 2.34492 0.0137635 -1.28713 
17698 1 -3.55142 0.382912 3.5229 
14112 1 -1.82095 -5.11651 -1.29528 
17699 3 -1.81265 0.807945 -0.0326722 
17700 1 -2.30807 -1.7717 1.1825 
16264 1 -1.61254 4.70829 -2.84089 
7324 1 1.5234 -1.8433 0.404228 
7325 2 -1.33043 0.123505 1.74901 
1281 1 -1.6844 -8.68123 0.881766 
1279 1 0.465797 -1.92803 1.80986 
10426 1 4.30843 5.90178 0.938223 
1280 2 -0.483964 3.82148 1.37161 
10427 2 2.58875 -1.07029 -1.03544 
19812 1 2.27484 -3.4577 -1.14122 
5410 1 -0.699861 -0.302647 -4.01174 
5411 2 -2.14735 -0.301323 -0.666981 
5412 1 -0.803146 -2.7314 1.05729 
6295 1 1.31595 -1.51983 0.267193 
12808 1 1.57341 -1.31882 -2.97083 
4211 2 2.25258 -4.53797 -1.12996 
4210 1 -3.88657 -2.51117 0.650799 
15889 1 -6.04559 2.0357 1.27372 
14128 1 -0.931723 3.86406 -2.18277 
14129 2 -2.67829 -0.297121 0.00926327 
14130 1 -0.0106673 0.298123 3.41404 
4669 1 2.07929 1.08001 -1.64997 
4670 2 -4.57436 4.37189 3.34333 
1032 1 -1.37904 3.97271 7.85414 
11563 1 -0.055096 -3.60787 0.507339 
1031 3 0.271966 0.353082 2.14592 
11565 1 0.136206 -2.33263 -0.68473 
1030 1 -2.28359 -7.65458 -1.03876 
13272 1 6.80806 -0.37458 1.27601 
11564 2 -3.87835 2.53375 2.88685 
6648 1 -6.97576 1.07681 2.76685 
13271 2 1.38449 4.02471 6.03339 
1738 1 -4.19481 2.37918 1.27041 
1739 2 1.37534 -1.58816 -2.87633 
6647 2 2.15082 1.07569 -0.554768 
7048 1 -2.97799 -4.95648 0.974997 
7049 2 2.74909 0.352063 0.175996 
7157 2 1.98913 -1.98687 -2.52246 
7156 1 -1.45718 -1.2516 10.8686 
7158 1 -1.2804 2.57599 -0.63662 
9242 2 -0.607302 2.18324 -1.54752 
20868 1 -0.746267 5.0203 0.254432 
9241 1 -2.72145 4.19426 -0.82552 
20867 2 -1.8238 -4.67389 -4.55608 
7050 1 -1.10136 0.648964 0.331856 
20866 1 3.10423 -3.94541 -8.34369 
14110 1 6.11256 -7.68706 3.01213 
1334 3 -2.03264 -0.799238 -1.38131 
1335 1 0.0315182 -0.0172604 -3.23836 
1333 1 -0.673661 1.50461 -2.30577 
4212 1 -3.86696 1.90401 1.56707 
13800 1 -1.89817 -1.12985 -3.87211 
19659 1 5.35105 2.27109 2.2545 
19658 2 2.52869 1.42024 1.29895 
10428 1 5.23636 -0.442598 0.69512 
19657 1 -2.4247 -5.12823 -0.234855 
11873 2 1.15152 1.29972 1.0635 
11872 1 -6.97732 -0.660135 5.74595 
6052 1 -3.53964 8.42021 -1.92807 
6296 2 1.4726 0.30008 -1.73391 
6297 1 2.00494 -4.77325 0.790721 
11874 1 4.18981 2.29346 4.33257 
13512 1 -1.349 0.17916 1.55618 
12809 2 1.93647 -3.29185 -0.0952601 
8209 1 0.38635 0.233678 -1.67965 
4671 1 1.52563 4.10848 3.41792 
8210 2 -2.93557 -0.851226 -2.22394 
2943 1 1.72929 -0.951845 -4.20114 
8211 1 8.14718 -1.0883 -4.05921 
12810 1 1.07863 -1.13152 7.98625 
624 1 -1.77008 -4.60057 3.7651 
432 1 -1.11876 2.58142 -0.447879 
431 2 -3.30509 2.90618 3.00811 
21313 1 -1.73275 -0.636084 5.18804 
6646 1 4.79628 -2.17641 6.23852 
13270 1 1.8282 -1.92852 -4.73561 
14673 1 0.320537 -1.82083 3.25881 
14672 2 0.171495 0.826847 -1.24753 
14671 1 -10.9434 -5.20124 -1.90858 
17629 1 -4.73207 -0.275197 -1.60889 
12349 1 3.14625 2.93583 -4.93714 
21314 2 1.87571 -0.926937 -0.660049 
21315 1 3.32158 1.18426 2.93783 
1740 1 0.477417 -1.23931 2.45888 
430 1 -3.36718 3.51743 1.34016 
19018 1 -0.704937 0.109358 1.89775 
16726 1 3.50735 0.418867 4.32254 
19020 1 1.94453 -7.89266 4.28735 
19019 2 -1.63531 -2.81978 2.63198 
9098 2 2.15363 -0.914037 1.9066 
9099 1 0.635189 1.27462 -7.96957 
16727 2 -3.61442 -2.00635 3.14822 
9097 1 -4.29637 -7.60567 9.7193 
13798 1 -1.60066 7.83205 3.10043 
6053 2 0.96319 1.12839 -1.02449 
13799 2 -1.25295 -0.366051 -0.489955 
6054 1 5.1421 3.23979 -1.19985 
12949 1 -5.82624 4.9816 1.50727 
12950 2 -5.67138 0.269062 -1.3102 
12951 1 0.339402 -2.41678 -4.87869 
8176 1 -6.43448 -4.59155 1.48345 
2942 2 -1.00818 -1.9007 0.189956 
12351 1 4.68298 -5.47072 -2.44121 
8800 1 -5.1451 -3.40221 -0.270498 
12350 2 -1.5665 2.27124 1.57438 
8801 2 1.66032 0.692452 2.68937 
8802 1 1.74133 -6.40504 -5.61078 
287 3 -0.113543 0.85354 2.33178 
286 1 3.8276 -0.190792 1.51215 
6687 1 3.48123 -0.688845 0.341056 
288 1 1.74353 -1.80136 5.42041 
17630 2 -1.58486 5.60982 -2.77362 
17631 1 1.56675 1.85968 3.53979 
13758 1 -1.38378 10.2724 3.19049 
13757 2 2.00674 0.200996 -0.0308313 
9055 1 1.42551 0.574185 -0.257952 
7401 1 -0.0417184 -2.01403 2.6843 
7819 1 -5.26305 -1.71818 -2.9766 
7400 2 -2.2436 3.15166 0.725848 
7399 1 1.64326 -2.56347 1.72852 
16728 1 0.191776 -10.7111 5.57793 
7820 2 2.28624 2.89555 4.7726 
12151 1 -0.100578 -1.28245 2.33691 
7821 1 2.79848 -0.561665 1.88659 
12152 2 -2.31986 -4.42346 1.61159 
2762 2 0.732818 2.67092 2.79302 
8177 2 0.770641 2.18496 -0.550024 
2761 1 0.989684 -5.50456 5.24275 
8178 1 -6.35853 -3.27956 -4.86521 
9060 1 6.01087 3.75616 1.95889 
9059 3 1.64044 5.08971 0.262447 
3381 1 -3.32481 -1.00733 -5.7951 
3380 3 -0.79849 -0.248285 0.160621 
3379 1 -0.592124 2.3621 0.339959 
9058 1 -3.48113 -0.747265 -0.729888 
16091 3 4.8329 1.21268 -0.217804 
16090 1 2.14892 0.15642 -2.16394 
16092 1 0.996523 -3.42631 0.110095 
6685 1 -7.31996 -1.28804 -1.43719 
6686 2 -3.254 -0.165665 -1.28848 
13756 1 2.295 1.88224 2.70634 
4295 2 -2.7293 0.269039 -0.729847 
4803 1 -0.979855 -0.812635 -4.28488 
4802 2 0.117467 1.18531 -2.18992 
4801 1 1.22326 -2.932 2.06808 
4294 1 2.46694 -3.7239 3.56729 
17981 2 -0.313117 -3.4935 -4.89673 
17982 1 -1.40887 1.90778 7.11485 
9057 1 0.156122 6.07999 -3.61937 
2778 1 -3.34323 -2.62855 -3.3214 
2777 2 2.56083 5.7677 0.399983 
17604 1 3.99419 7.18118 11.4793 
12153 1 8.14453 -0.488076 1.15891 
2776 1 5.06762 -3.4284 -0.370275 
9056 2 0.124474 -1.07313 3.36014 
18297 1 3.43836 -1.44473 1.31325 
2763 1 3.43751 6.0111 1.60189 
7566 1 -0.492156 -1.4706 0.00563551 
7565 2 -1.27317 -2.0491 -2.61451 
17980 1 -2.5853 -3.43186 1.44341 
10559 2 -0.439198 -0.533077 -1.83403 
16752 1 4.97967 -3.75272 -2.17991 
10558 1 -2.72812 -6.6189 -2.95839 
10560 1 -3.8195 0.740129 4.32652 
4296 1 -2.78609 -1.38184 1.03149 
18844 1 -2.23014 -2.93736 -2.81421 
18845 2 3.56382 -3.10002 -1.90819 
20775 1 -5.6816 -2.76945 2.64189 
18846 1 7.30753 -0.674638 1.92593 
17602 1 -2.9883 1.12735 0.012479 
14419 1 -2.51727 3.88235 3.97819 
17603 2 -4.56071 -2.52065 -3.78088 
14420 2 -0.0212475 3.48292 2.29523 
14421 1 4.7921 -0.518538 0.527184 
204 1 1.0203 -1.88636 -0.469504 
203 3 0.943147 -0.257436 0.862705 
16751 2 0.0474209 2.75929 0.0220695 
202 1 0.976909 -2.01442 1.08889 
16750 1 3.87728 2.40641 1.8151 
20773 1 3.33778 -3.60181 -1.51313 
20774 2 0.623835 -4.19264 0.802983 
13605 1 6.66122 3.90909 -5.12487 
13604 3 -1.73571 0.353219 0.476815 
15438 1 4.55573 5.76846 -0.281603 
15437 3 -1.63093 -0.950879 -2.54035 
13603 1 2.78175 3.23966 -3.80601 
15436 1 -3.0501 -4.72926 -0.0249301 
19323 1 -1.12487 -5.65051 6.40609 
19322 2 2.68901 -4.88747 -0.298577 
19321 1 4.81228 -1.91584 -8.53975 
17644 1 0.0299606 -1.20667 -4.17337 
17645 3 2.40129 -1.41724 1.7801 
17646 1 0.828584 1.25326 -1.06886 
17669 2 -3.41143 2.20983 4.79369 
17668 1 -4.79562 1.85383 0.564015 
17670 1 -0.732084 0.462192 -0.42004 
6314 2 -0.917583 -1.58309 -0.078716 
6313 1 -1.99003 3.16756 4.41049 
6315 1 -2.14651 -3.13077 1.70186 
8225 3 -3.35692 -2.8541 2.58779 
8226 1 -2.78153 -3.50007 0.704863 
14703 1 1.96604 -4.1903 4.0281 
14702 2 -1.34356 -1.10346 2.05438 
14701 1 -0.881486 -5.47128 -4.91979 
4045 1 -3.98537 2.79615 5.74759 
4046 3 2.44544 1.01054 1.30071 
16733 3 -0.506603 3.45697 -1.69343 
58 1 4.12361 -2.49245 1.60314 
16734 1 0.156778 -0.258575 -2.52084 
15059 2 1.07609 -2.67235 -1.42546 
15058 1 -5.17607 -5.30157 3.10939 
18721 1 -4.4874 4.58608 0.77105 
18722 2 2.19676 -1.63512 0.938359 
12047 2 -1.35701 1.20603 3.04021 
12046 1 -2.65571 4.89914 2.09419 
15060 1 -1.53126 -0.335348 5.01954 
5505 1 4.29557 4.08167 -6.92905 
1771 1 2.28674 -0.818834 6.51338 
5504 3 -2.30287 -0.97824 -5.43815 
5503 1 0.641073 -0.475734 4.34519 
14116 1 2.85612 -0.135585 4.99623 
14949 1 5.66194 1.39334 -0.00907551 
9925 1 -3.3016 -1.6724 6.2796 
18235 1 -3.41638 0.0810006 3.15531 
9927 1 0.316298 7.45405 1.28015 
9926 3 -3.34305 1.76908 0.281392 
18236 3 0.947276 -0.373195 4.60035 
2905 1 1.43346 -1.01143 5.49226 
14117 3 0.94991 -1.45767 2.62289 
2906 3 -0.41361 0.728682 -0.191266 
14118 1 -1.60683 -1.42185 1.86321 
2907 1 0.724648 0.414962 0.386139 
4866 1 -0.954361 4.36884 6.63146 
17827 1 0.122465 2.00109 -1.20119 
12317 3 1.09636 -0.668443 1.66675 
12318 1 2.94689 2.04908 1.2667 
17829 1 0.649106 4.1409 -0.268825 
17828 2 -0.887162 0.509125 -3.03556 
9739 1 2.2727 -3.17974 -0.249605 
965 3 -0.618573 1.87625 3.40841 
7038 1 -3.28855 -2.45125 4.19769 
964 1 -1.51849 2.24053 1.20809 
4047 1 -1.09923 1.00819 3.25849 
966 1 -0.775171 -1.76769 3.99762 
4128 1 4.89929 -2.3392 4.55641 
4127 2 4.9308 -2.25725 -0.63692 
9740 3 5.30931 0.936594 2.30324 
5953 1 -1.51171 1.21582 -5.15911 
4126 1 -0.707121 -4.64873 -2.2269 
16732 1 4.09063 -0.701237 2.74252 
14220 1 -2.76073 1.2564 0.0490086 
8628 1 2.89175 -3.50744 -1.13198 
8626 1 -0.606692 2.84823 4.24218 
8627 3 -1.75079 -0.334668 0.834543 
7904 3 0.501301 1.83661 -2.06547 
7905 1 0.151735 -3.53323 4.42285 
20056 1 -6.95422 -1.43759 1.02971 
20057 2 0.904998 3.72969 -0.691165 
12443 2 -1.50563 3.08315 0.964112 
7903 1 0.812882 -1.34531 -2.60926 
18723 1 -3.30944 3.85833 -1.48078 
20547 1 -2.96319 -2.69421 -4.84676 
15513 1 3.26557 5.80184 4.15259 
12048 1 -3.09291 1.79328 -5.3626 
20546 3 0.315894 4.32325 0.682612 
20545 1 5.66751 -0.785265 0.846783 
18265 1 2.80453 3.52331 1.06697 
16349 2 -0.534166 3.63609 -0.985362 
16348 1 -0.830378 -0.871149 8.4793 
1773 1 -1.555 -0.592932 -0.419017 
1772 2 -0.908339 0.194616 -0.337333 
14947 1 -3.33805 0.462336 -2.03337 
2434 1 -0.570737 0.11094 4.12872 
2435 2 0.837307 -0.269522 -3.2959 
16350 1 -0.0753912 -4.83532 -2.9128 
2436 1 -0.719414 2.69039 1.10094 
12444 1 4.30438 2.10877 -2.98643 
14948 2 -0.68824 0.978497 -0.111104 
7202 2 1.32955 3.68143 1.42235 
18237 1 1.54267 1.06964 0.687649 
7728 1 -1.8464 -1.41277 3.41881 
7727 2 -1.81091 -2.09167 1.28249 
7726 1 -5.60442 -0.58955 -1.61917 
8333 2 0.167818 1.68231 0.737842 
5655 1 -1.40938 1.58136 -3.51537 
13380 1 1.83753 5.20022 4.5522 
13378 1 -0.3975 -0.788067 4.13531 
8332 1 1.33471 0.91538 -3.32089 
13379 3 -0.679671 3.59601 -0.951148 
16509 1 -6.20207 2.3367 3.62013 
16508 2 -1.36662 -1.92723 0.230657 
16507 1 -0.745012 -1.08138 3.93436 
3917 2 -0.379562 -1.52157 3.1038 
3916 1 7.15869 0.237782 2.49275 
3918 1 4.70371 2.86325 0.00474422 
7036 1 -2.47382 2.32372 0.940356 
4864 1 0.910122 4.53325 -1.55296 
4865 2 3.52297 0.485484 0.0572656 
11310 1 3.04623 -4.33871 2.55957 
11309 2 -2.60361 -5.56025 -0.866368 
2314 1 1.21574 2.87892 -0.502342 
16201 1 -5.94227 2.22673 -8.09657 
7203 1 4.37182 -3.02606 -2.93465 
16203 1 -2.40323 3.02365 -2.1959 
16202 2 -1.94965 2.44675 -0.901012 
20508 1 1.6766 -4.22201 1.23638 
21501 1 -4.93744 6.87786 5.66424 
21500 2 0.833986 1.44152 -4.32681 
12316 1 -4.57389 1.61013 0.152694 
3057 1 -4.52139 -3.0101 2.24197 
17347 1 3.35072 -3.47312 8.88868 
17348 3 -3.24817 -4.11806 0.825991 
7191 1 -0.862493 -1.19691 -1.99358 
17349 1 1.31451 -0.352215 0.00502046 
15182 2 -0.381354 -5.59783 -1.52937 
8429 3 0.895037 -0.482279 3.79244 
8430 1 2.67754 -3.31652 -1.13191 
10578 1 3.895 1.55092 -4.48285 
15183 1 0.666685 -4.11553 1.19313 
9741 1 4.56748 1.26675 -2.11456 
7037 3 2.34053 -4.9895 -1.4268 
5954 3 -0.914438 2.70502 -1.31329 
6972 1 1.54926 -5.11095 2.71489 
6971 2 0.37541 0.439036 -0.316638 
9536 2 -2.21958 1.66836 2.40502 
9537 1 -4.50266 -1.44748 5.12969 
5955 1 1.06975 3.74541 9.76845 
6970 1 1.63946 -4.89301 -3.01527 
4116 1 -0.128926 -1.11762 -1.49273 
1871 2 -0.00340125 0.0182649 0.151422 
7018 1 -4.86212 2.18165 -4.74995 
14219 2 -0.959729 -1.46811 1.38252 
14218 1 0.565218 -2.00558 -1.25354 
21499 1 2.97034 1.93889 -0.942141 
7019 2 -1.80406 3.58712 -0.0708298 
7020 1 -3.27302 -3.27474 4.04054 
10887 1 3.77547 -0.53467 -1.45095 
10886 3 5.54223 -3.83128 0.348709 
20058 1 -2.29662 2.65039 0.585552 
523 1 1.12909 -1.21107 -3.35611 
20134 1 2.49727 2.46309 4.27061 
524 2 -1.55065 3.23269 2.26295 
525 1 -4.30455 -0.635269 -4.33261 
15604 1 2.168 -1.4645 1.97705 
15605 3 -1.71101 0.303096 -2.60703 
15606 1 -3.40774 -1.10877 -0.276296 
9042 1 -3.14933 0.676941 0.811628 
9041 2 -2.61067 -2.61251 0.391539 
17734 1 2.70656 -1.28275 3.38666 
9294 1 0.638659 -1.8036 -0.353685 
17735 3 2.18182 1.89494 -1.51363 
17736 1 5.31173 -6.55529 -0.00593634 
12442 1 4.73513 1.2719 9.71292 
15512 2 2.48199 -0.174033 -1.83923 
18266 2 1.78648 -1.93439 -0.584153 
5838 1 -5.38868 -1.4272 0.844382 
15511 1 -3.46625 0.733942 0.910296 
5837 2 -0.672848 -1.26763 -0.193476 
18267 1 2.18667 -3.60799 -6.38932 
21406 1 -4.99692 -2.6018 7.87939 
5836 1 -4.0854 2.1313 -3.81547 
21407 2 1.40724 -0.120901 0.0887891 
5497 1 2.23663 -0.0107499 -1.09549 
12993 1 4.06069 -5.19891 2.18286 
5498 2 1.83003 -0.699827 0.329338 
5499 1 -0.0194179 -0.613914 -3.73357 
6227 2 0.824408 0.437841 -0.545223 
6228 1 1.16743 5.44625 1.33409 
19919 2 -2.78387 0.471826 -0.125997 
19918 1 0.807909 -4.7895 -3.1198 
12992 2 -2.31468 2.79523 3.18968 
12991 1 -0.238981 -1.4147 -4.73756 
19587 1 -2.01887 -1.03838 -2.852 
7201 1 0.195711 5.25139 -2.01164 
7966 1 -6.82026 1.65968 4.83542 
7968 1 -4.96052 -3.26177 2.34916 
15685 1 -3.02229 -1.5253 -4.10203 
7967 2 1.52291 -1.53827 0.0728585 
15686 2 -1.47705 -1.26816 0.923407 
13166 2 2.55818 6.04748 2.26713 
2932 1 0.00946168 -3.38586 0.537337 
19585 1 6.02137 -2.77965 -1.03438 
13165 1 -2.68843 1.04171 4.36971 
19586 2 -0.716609 3.86546 2.81994 
3056 2 -0.430897 -1.8288 -4.23006 
268 1 4.30779 -6.7282 3.2692 
269 2 -0.922695 0.984669 2.95797 
270 1 2.46107 1.85476 1.2105 
5654 2 -1.11109 -1.91244 -2.00763 
7511 2 3.55002 1.09778 -0.803104 
19352 2 -3.61644 1.83646 -1.39907 
7512 1 -2.8565 -2.02414 -3.48711 
19353 1 0.266678 -0.846587 -3.39212 
21507 1 6.13531 5.56777 0.53247 
5653 1 3.39406 1.02919 3.62119 
19351 1 1.56305 0.106514 -1.0364 
8334 1 -3.62128 1.82079 -0.641578 
3055 1 -7.53268 2.05568 2.62169 
7510 1 -4.23184 -0.141325 0.0595457 
12029 2 3.16876 0.327871 2.52811 
2315 2 -1.79189 -0.685361 -2.00527 
2316 1 -5.40267 -11.4746 -6.93741 
19788 1 0.116222 -3.55171 3.82402 
19787 2 2.59835 0.321848 0.638928 
15615 1 -0.879331 -1.15662 2.05374 
15813 1 -0.574673 -1.74186 -2.06116 
21153 1 -3.01638 -2.03222 0.903259 
21152 2 1.00532 1.374 -1.1542 
11308 1 3.7078 -1.71181 -8.12216 
21151 1 2.55051 -1.09709 -6.44682 
12030 1 -1.3623 -0.407967 3.06877 
20507 2 1.12993 0.500975 2.64922 
20506 1 -3.58666 -9.31567 -5.19257 
9804 1 3.87235 -1.82775 -7.28165 
9803 2 -0.26133 -0.164145 -0.526229 
9802 1 -1.23812 3.05294 -1.19527 
7190 2 -1.53897 -2.48969 1.55893 
13555 1 -1.36556 -2.01961 4.85562 
771 1 -3.54489 0.929566 -3.2998 
770 2 3.93485 1.2679 4.25662 
7189 1 2.08801 0.102043 3.08584 
17574 1 -0.0725751 -2.18317 0.743412 
17573 2 -0.978978 -0.942803 1.52691 
17572 1 2.5781 3.69709 0.438772 
769 1 0.612805 2.07348 -3.41312 
15181 1 1.12596 -0.242468 0.220261 
13556 2 -3.29892 -0.0508298 1.6115 
7529 2 -3.85796 0.196114 5.96785 
7528 1 -3.09815 7.4553 -0.791071 
14533 1 8.62042 3.56524 7.46286 
15812 2 -3.44983 2.35377 5.83581 
9535 1 0.277631 -0.0689743 -3.37648 
15811 1 -4.43871 1.00982 3.68282 
932 2 -0.86868 0.066497 -2.88833 
4118 2 -3.46449 0.155022 0.179027 
4115 2 2.4502 -0.63336 0.039056 
931 1 -2.18401 -10.1168 -1.95918 
4114 1 2.00737 0.229273 2.86452 
4119 1 5.63563 -1.00569 0.179703 
10056 1 -7.13692 1.39747 9.09786 
4117 1 3.01928 5.43321 -3.59752 
10055 2 5.30815 1.64952 -1.74796 
3632 2 -3.44906 -3.68417 2.68097 
8434 1 -0.978438 2.48881 -1.81183 
933 1 3.77915 -5.71613 2.67172 
1870 1 3.50684 1.38454 0.782185 
19927 1 0.0565904 0.771282 4.26072 
19928 2 -3.43437 -0.00386685 -0.106726 
4197 1 -4.40515 -4.18968 1.53097 
19929 1 5.93897 -7.76392 -5.0157 
4196 2 -2.63776 -0.430626 1.27621 
21395 2 2.50433 1.24461 0.65156 
17434 1 -2.68479 5.35624 3.28684 
3346 1 -5.22601 0.382215 0.674588 
10449 1 4.7678 -0.89156 3.44473 
5815 1 1.7568 6.10668 -1.2351 
5816 2 -2.01185 1.69042 -0.852254 
20135 2 4.53476 -1.15813 -1.29401 
5817 1 0.0907639 -3.96144 -4.85038 
9040 1 1.7976 -3.87292 -1.40274 
20136 1 -2.76841 -1.29479 -1.55973 
20569 1 -1.53618 -0.961938 -8.99511 
20570 2 3.65964 2.07075 1.26117 
4536 1 2.4397 3.42365 2.01983 
14247 1 3.44197 -3.32098 2.12945 
20571 1 -0.289142 1.00889 2.16761 
4535 2 -1.40808 3.20683 -1.18992 
4534 1 -4.39555 4.20313 -2.77385 
19920 1 -1.60207 3.25786 -2.11331 
9293 2 3.81898 5.3593 2.94553 
9292 1 -2.83816 -2.82236 -0.453041 
1342 1 3.43651 -3.0617 -0.697789 
1343 2 3.50491 -0.347073 1.75213 
1344 1 -4.404 -2.33411 2.81572 
2933 2 0.821904 -2.37966 0.629595 
19671 1 4.14983 -5.0941 -4.68946 
15783 1 -1.05997 6.3571 -1.04664 
19494 1 -4.17677 1.03638 2.16939 
414 1 3.4016 0.262833 1.67487 
413 2 0.542749 -2.1749 -2.04287 
412 1 -4.6501 0.395512 -2.86361 
4644 1 -3.38245 -4.4817 1.8099 
21408 1 -2.68137 -1.9934 2.17642 
4643 2 0.221622 -2.48735 1.90759 
4642 1 0.253092 -3.17476 -3.23712 
261 1 -2.90726 3.5748 3.53625 
15781 1 1.47405 -7.93612 -1.72797 
20562 1 3.58828 -0.516323 -0.404804 
20561 2 -2.71738 -3.09169 -4.38779 
15782 2 -2.28117 2.5285 0.0432708 
260 2 -1.39914 -3.75351 -0.993701 
6226 1 7.4242 1.60132 1.12549 
2833 1 -4.36379 5.10331 -3.46928 
2834 2 2.09407 -2.0074 -0.4817 
2835 1 -1.98536 -4.17029 -4.52781 
17338 1 -6.13934 2.54854 -5.71859 
17339 2 2.6067 -0.888832 2.65976 
20650 1 -2.81089 4.75836 -0.468171 
5578 1 -3.48618 3.3902 -0.446641 
5580 1 -2.16012 2.75114 1.24971 
5579 2 1.46557 0.470951 2.50808 
12028 1 0.424262 -2.9706 3.65292 
19524 1 0.682131 -0.0820196 1.43963 
19462 1 3.46279 -2.80737 5.1876 
19463 2 -1.36874 -2.22482 0.140184 
19464 1 3.28636 2.82608 -0.343243 
15687 1 1.03281 1.2401 1.05486 
3107 2 -1.14927 -0.594049 -2.55278 
10830 1 -7.43866 -2.74406 1.24976 
8153 2 0.604202 -3.37549 -0.176477 
8152 1 -1.65448 -0.424285 2.56577 
21506 2 -1.50694 0.440194 -4.00727 
21505 1 4.25553 2.07486 -1.29869 
10829 2 -1.77627 4.7489 2.16819 
3870 1 -1.16769 -5.2845 -1.38952 
3869 2 6.48714 5.62336 -2.17762 
10828 1 -3.8339 4.3878 5.32503 
10564 1 -2.85621 5.43721 -3.50683 
10565 2 -0.42141 -1.22037 2.81469 
13557 1 0.932308 1.88373 2.89637 
8154 1 2.73976 0.418178 -3.78512 
3868 1 1.31872 -3.78834 -2.22307 
10566 1 5.11565 3.68968 3.09814 
21265 1 1.76193 1.02382 -1.34936 
15614 2 -1.0978 2.87809 -2.35485 
11485 1 3.21029 3.29658 -7.50772 
19786 1 3.33445 5.86983 0.915771 
15261 1 4.07198 -4.31469 0.836617 
15259 1 0.42461 -1.09335 1.55138 
15260 2 -1.21262 -1.30451 5.67482 
15489 1 0.211405 -5.69219 0.298368 
8436 1 0.197828 2.09063 -4.04664 
15488 2 -2.43405 -2.24406 1.44492 
15613 1 -4.07568 2.69235 0.295278 
4620 1 0.767711 -1.77603 -0.210001 
13261 1 -4.30594 -3.07349 9.10241 
11486 2 -2.43833 1.72375 4.02018 
3108 1 -3.97065 4.4808 3.59924 
20074 1 0.73724 -5.56877 0.265935 
4619 2 -3.38857 -3.41521 2.07634 
4618 1 -2.58916 -5.529 -5.41901 
20076 1 0.147951 -4.11861 2.63603 
20075 2 1.73145 1.48545 -1.94314 
15 1 2.8126 -0.749373 -4.54292 
14274 1 1.95646 -1.71816 -1.82094 
14 2 -0.544671 0.723891 4.96237 
14273 2 0.503812 -0.281108 2.58461 
9465 1 2.34314 6.16416 -0.800909 
14534 2 0.202822 1.39589 -2.43665 
9464 2 -0.331301 1.36694 -1.55215 
14535 1 1.50136 -0.409529 -0.278038 
16637 2 3.43337 -0.29426 -0.909118 
2279 2 6.81492 0.146906 -4.06303 
2278 1 -4.08254 7.14146 -5.81749 
2280 1 -0.354637 -1.26279 -5.51896 
16638 1 4.77461 1.94724 -1.68796 
9463 1 4.26048 3.09104 -2.70044 
15099 1 -2.01422 2.85291 -0.55218 
11025 1 2.35482 0.888285 -3.71047 
11024 2 -0.747642 4.59798 -0.281427 
6589 1 3.58283 -0.297434 -1.70834 
8435 2 0.189224 -1.25685 2.70507 
3633 1 4.23349 -0.441438 -2.57268 
14101 1 3.85424 2.81051 0.874868 
14102 2 -1.20338 -1.43063 -0.434108 
14103 1 -2.48756 -0.306034 -1.94251 
13116 1 -1.50465 2.01198 -0.84094 
10054 1 -3.53036 -3.6799 -4.34976 
19210 1 -6.79313 -9.29185 -4.82632 
13115 2 -0.203699 -1.45804 -0.440126 
19211 2 1.26708 2.57804 -0.638285 
1632 1 -2.60915 -3.23575 -3.22856 
7263 1 2.48056 4.10961 -2.69556 
4195 1 5.30578 0.540692 3.10967 
21396 1 0.475615 -1.48653 2.56406 
13 1 1.25814 3.188 0.303026 
19212 1 -2.46916 3.91636 -1.16687 
17224 1 -0.694924 -0.0216328 2.81878 
2445 1 -5.47852 -1.96471 -0.802098 
2444 2 -3.97293 -0.0647829 4.94487 
2443 1 -0.195155 0.487423 2.61139 
10895 2 -2.06037 -1.73192 2.46273 
10896 1 -0.18354 2.25486 1.04824 
7262 2 -1.17993 -0.215764 1.97255 
4347 1 -0.619971 1.78802 5.88053 
10448 2 0.630363 -1.37996 -1.1609 
10447 1 -0.91967 4.77568 -7.68328 
15078 1 -4.43457 0.724293 2.70137 
15077 3 -2.28228 -0.249495 -5.07488 
15076 1 -4.62227 0.578726 -4.83643 
19492 1 0.755091 -1.99591 4.65937 
3448 1 4.52297 -3.4684 -0.464743 
3449 2 3.161 -1.31495 1.92228 
19493 2 -0.683295 -0.916083 -1.54643 
3450 1 -2.12371 -0.684187 6.14308 
18535 1 -9.3233 3.3098 0.725162 
8413 1 1.11967 -1.27366 1.21912 
14246 2 4.4939 -2.09692 -1.71137 
15344 2 3.75424 2.00934 -1.74976 
15343 1 0.698208 -0.0206547 2.54934 
8414 2 4.07285 4.1235 -0.810364 
8415 1 -7.13692 -1.88017 1.18797 
20099 2 2.25425 3.42368 0.676846 
20098 1 -4.02866 4.34874 2.89041 
14245 1 -7.37731 -0.443298 -3.39015 
20100 1 -4.21416 5.67707 -0.0223716 
12712 1 -0.359909 2.11226 -0.299722 
5628 1 0.0215539 5.06632 1.35042 
479 2 2.65756 1.40192 -0.552505 
480 1 2.71029 -1.53608 -3.40622 
5626 1 -1.60172 -5.56244 -1.41298 
5627 2 -3.35064 3.7766 -0.411046 
14237 2 3.03464 -1.4975 0.51798 
14236 1 4.19949 4.13773 2.29592 
19522 1 1.39509 -4.48869 5.33311 
14238 1 -1.53146 0.426667 -0.093929 
1776 1 1.6632 5.16966 2.82606 
12713 2 0.054312 -2.91636 0.325123 
7102 1 6.93833 0.916986 -2.80332 
20560 1 -1.56636 -5.57792 -5.32026 
1455 1 2.83748 2.22501 -0.597328 
1454 2 2.54134 2.34289 -1.16731 
259 1 0.901921 -4.92018 2.32269 
1453 1 0.473403 3.62793 -0.187178 
13651 1 1.79467 1.34312 -4.2391 
18589 1 -2.89332 -1.81962 2.81601 
13652 2 -0.644531 4.67346 -0.602578 
18590 2 0.614635 2.30507 -4.60468 
9467 2 -1.64191 -0.527136 2.80042 
9466 1 -6.46238 -5.78079 -0.234657 
11013 1 3.81086 5.80276 -0.527254 
9468 1 -3.87186 7.24372 -0.719095 
3630 1 8.66293 1.73901 10.5816 
7611 1 -1.78508 -0.259155 1.67587 
3629 2 1.79542 -5.19284 1.97576 
3628 1 2.31306 4.73513 -1.7615 
17340 1 0.478186 7.99804 -4.58682 
18680 2 2.16373 -1.29564 -0.7301 
18681 1 0.891683 1.41507 -1.20635 
11487 1 0.864935 -5.71162 2.69508 
18679 1 1.32223 4.424 0.355253 
12859 1 1.88882 4.54757 3.83959 
1241 2 5.02476 -1.17708 -0.934968 
20652 1 -0.083791 2.47393 -6.12143 
1240 1 0.217362 -7.22402 1.73408 
19523 2 1.186 -2.77294 0.972795 
20651 2 -1.13401 -0.366127 1.58307 
1242 1 5.64037 -7.11976 -0.966479 
16851 1 1.81556 1.82401 1.65373 
3106 1 -2.22029 -3.09134 0.468811 
12853 1 0.774974 0.924206 -1.98205 
12854 2 -3.65031 -0.857533 -0.702186 
12855 1 -4.17184 2.5667 1.014 
8041 1 -1.41818 3.85323 0.0357516 
18904 1 2.97408 3.66264 2.92305 
6076 1 0.679131 0.627459 3.34305 
8042 2 -0.760461 1.59978 -5.55869 
13653 1 2.56182 2.88654 -1.16825 
21266 2 -5.21822 -2.16981 0.645704 
20985 1 -4.14056 1.29887 1.13482 
21267 1 -2.39037 -0.759203 0.347154 
20984 2 1.0524 0.250025 -0.21463 
6357 1 5.13715 -8.09192 2.97185 
6356 2 -0.0255376 1.17259 -1.07798 
18720 1 2.44224 7.36546 -4.73763 
6355 1 3.39818 -6.4258 -1.54793 
9813 1 -4.5746 3.5486 -4.19356 
9812 2 -1.06965 -1.56993 -1.6129 
10389 1 8.79904 -0.593803 5.31281 
18719 2 0.0554676 -3.49117 3.09528 
10388 2 -0.849306 0.212006 0.78885 
15487 1 -3.89621 -4.15641 -1.80804 
4716 1 -2.96154 0.536781 -0.480272 
4715 2 0.901263 -2.75995 4.66051 
4714 1 -0.756175 6.31713 4.21187 
15429 1 1.38652 -4.83858 3.27508 
15428 2 3.31848 3.80754 -2.64087 
6077 2 -4.43983 -0.964061 -1.34429 
13263 1 -0.322606 -0.688545 -1.3306 
6078 1 -2.80008 -3.83412 -1.41952 
13262 2 -1.3107 3.13627 -3.7802 
4517 2 1.23072 -1.02652 2.69075 
14272 1 0.267446 5.82321 -2.64603 
4516 1 -2.64669 -4.17482 2.13382 
5752 1 2.12674 1.05934 -2.21212 
5753 2 -2.79188 0.415152 0.613718 
5754 1 -2.20263 -3.71171 -2.28198 
21132 1 5.43857 3.80443 -1.11431 
7093 1 1.55379 3.53201 -4.27827 
17226 1 -1.98139 2.00213 4.44671 
4518 1 2.7753 0.14553 -0.357239 
21131 2 -0.11532 0.618019 -1.19289 
641 2 -3.5664 -0.186026 5.9663 
16636 1 0.431119 -4.28256 -0.891633 
18718 1 -3.11286 -0.309607 -2.20515 
5164 1 -5.17195 -1.95746 2.03814 
15098 2 4.41614 2.76888 -0.537771 
946 1 -0.670299 1.9781 -1.47482 
15097 1 -2.30664 4.03624 7.17676 
947 2 -2.10911 0.679995 -0.0437908 
5165 2 0.151372 3.16561 4.29432 
5166 1 2.97265 2.14929 0.639472 
3295 1 -0.548178 2.25621 3.90714 
12963 1 -0.75179 2.65566 9.99143 
13114 1 -0.0846253 -6.48398 -0.416288 
13321 1 -3.05301 -4.27402 -4.11278 
16812 1 0.727741 0.370424 -0.929925 
16811 2 0.743294 3.57034 -0.0896972 
16810 1 -6.55059 0.0582684 -2.73984 
3296 2 -6.60547 -3.22736 2.5888 
1631 2 -1.77622 -1.01745 2.52804 
1630 1 -0.234379 -2.59279 -6.21364 