ITEM: TIMESTEP
30000000
ITEM: NUMBER OF ENTRIES
2310
ITEM: BOX BOUNDS pp pp pp
0 50
0 50
0 50
ITEM: ENTRIES c_binfo[1] c_binfo[2] c_binfo[3] 
2 10331 10332 
2 10330 10331 
3 10757 10758 
2 5659 5660 
1 5659 20764 
2 20764 20765 
2 5660 5661 
1 1467 5661 
2 1466 1467 
2 1975 1976 
2 1465 1466 
1 1465 1975 
3 20417 20418 
3 20416 20417 
2 1976 1977 
1 1977 20416 
3 10756 10757 
1 10756 20418 
3 3443 3444 
1 14988 16374 
3 16373 16374 
3 3442 3443 
2 4774 4775 
1 4774 19843 
2 4775 4776 
3 19843 19844 
3 19844 19845 
3 12056 12057 
3 12055 12056 
2 1492 1493 
1 1492 12055 
3 20590 20591 
2 1493 1494 
3 20591 20592 
3 7220 7221 
1 357 20590 
1 1071 5293 
3 1070 1071 
3 1069 1070 
1 1069 16423 
3 5293 5294 
3 16372 16373 
2 16423 16424 
3 8015 8016 
1 4446 8014 
3 8014 8015 
1 3834 15117 
2 3833 3834 
3 7219 7220 
3 18622 18623 
2 356 357 
2 355 356 
1 355 7425 
3 18623 18624 
3 15116 15117 
3 11320 11321 
1 11320 18622 
3 21028 21029 
3 21029 21030 
2 4120 4121 
1 4120 21028 
2 4121 4122 
3 3749 3750 
3 1147 1148 
1 1147 3750 
3 9208 9209 
3 14152 14153 
3 14153 14154 
3 9209 9210 
3 13655 13656 
3 14987 14988 
3 13654 13655 
3 14986 14987 
1 4416 14986 
3 4415 4416 
3 4414 4415 
3 2956 2957 
1 2956 4414 
3 694 695 
1 694 3339 
1 18897 20592 
3 695 696 
3 18896 18897 
3 18895 18896 
3 10912 10913 
1 10912 18895 
1 696 7221 
3 3338 3339 
1 8961 14241 
3 5294 5295 
1 5295 6951 
3 6950 6951 
3 12626 12627 
3 6949 6950 
1 6949 11743 
3 11743 11744 
1 657 4143 
3 656 657 
3 15115 15116 
1 8976 15115 
3 8975 8976 
3 8974 8975 
1 8974 20553 
3 11321 11322 
1 11322 14239 
3 14239 14240 
3 14240 14241 
3 4010 4011 
3 4009 4010 
1 4009 12906 
1 4011 5289 
3 20552 20553 
3 17702 17703 
3 10171 10172 
1 10171 21030 
1 3939 17703 
3 10172 10173 
1 10173 12625 
3 12625 12626 
3 3938 3939 
3 3937 3938 
1 3937 5805 
3 13675 13676 
1 13675 18498 
3 18496 18497 
3 18497 18498 
3 13676 13677 
3 14356 14357 
1 14356 18496 
3 3748 3749 
1 3748 13104 
3 3112 3113 
1 3112 6580 
3 15898 15899 
1 15898 16311 
3 16310 16311 
3 16309 16310 
3 11275 11276 
1 11275 16309 
3 8026 8027 
3 8027 8028 
3 7466 7467 
3 1291 1292 
1 1291 7465 
3 7465 7466 
3 1292 1293 
1 1293 14154 
3 11276 11277 
3 2957 2958 
3 17125 17126 
3 17126 17127 
3 11554 11555 
1 11554 17125 
1 2958 3114 
3 3113 3114 
3 3827 3828 
1 3828 11745 
3 11744 11745 
3 3826 3827 
1 3826 7302 
3 8279 8280 
3 1394 1395 
3 8278 8279 
3 10913 10914 
3 3337 3338 
3 2206 2207 
1 2206 3337 
3 2207 2208 
1 2208 8148 
3 19540 19541 
3 19541 19542 
1 10914 17127 
3 8959 8960 
1 8959 19540 
3 8960 8961 
3 6412 6413 
1 6412 10455 
3 6413 6414 
1 6414 20551 
1 7179 19542 
3 20551 20552 
1 7383 12627 
3 7382 7383 
3 7381 7382 
1 7381 14770 
3 14770 14771 
3 14771 14772 
1 6600 15229 
3 6599 6600 
3 1136 1137 
1 1137 4225 
3 4225 4226 
1 1395 9309 
3 9308 9309 
3 9307 9308 
3 1135 1136 
1 1135 9307 
3 4142 4143 
3 14785 14786 
3 14786 14787 
3 4141 4142 
1 4141 14785 
1 14787 20037 
3 12905 12906 
3 12904 12905 
3 5269 5270 
1 5269 12904 
3 5270 5271 
3 9658 9659 
1 3420 19776 
3 13021 13022 
1 13021 13677 
3 13022 13023 
3 5804 5805 
3 3419 3420 
3 8902 8903 
1 8902 13023 
3 5803 5804 
1 5803 6598 
3 6598 6599 
3 19775 19776 
3 9125 9126 
3 9124 9125 
1 9124 15126 
1 14481 18145 
3 18145 18146 
3 6580 6581 
3 6581 6582 
3 11152 11153 
1 6582 11152 
3 15899 15900 
3 11153 11154 
1 4002 15900 
3 4001 4002 
3 4000 4001 
1 4000 15751 
3 8147 8148 
3 14480 14481 
3 14479 14480 
1 7467 14479 
3 13531 13532 
1 8478 13531 
3 13532 13533 
3 8146 8147 
1 8146 13533 
3 11555 11556 
1 11556 12345 
3 12344 12345 
3 7301 7302 
3 10279 10280 
3 7300 7301 
1 7300 10279 
3 10280 10281 
3 16267 16268 
1 16267 21412 
3 16268 16269 
3 1393 1394 
1 1393 1615 
3 2597 2598 
3 2596 2597 
1 1617 2596 
3 1616 1617 
3 1615 1616 
3 10454 10455 
3 10453 10454 
1 10453 17988 
3 17987 17988 
3 17986 17987 
1 10746 10983 
3 10982 10983 
3 5032 5033 
1 5032 17986 
3 7178 7179 
3 7177 7178 
1 7177 16731 
3 16730 16731 
3 21412 21413 
3 15229 15230 
1 14772 21414 
3 21413 21414 
3 6857 6858 
3 6856 6857 
1 6856 8904 
3 3214 3215 
1 3214 6858 
3 15230 15231 
3 13232 13233 
3 1186 1187 
1 1186 15231 
3 12248 12249 
3 12247 12248 
1 12249 19023 
3 12347 12348 
3 12346 12347 
3 9659 9660 
3 7130 7131 
3 10745 10746 
3 10744 10745 
3 15071 15072 
3 20036 20037 
1 5271 10744 
3 20035 20036 
3 7129 7130 
1 7129 20035 
3 15070 15071 
1 3933 15072 
3 10300 10301 
1 10300 11202 
1 9660 15070 
3 10301 10302 
3 8903 8904 
3 5392 5393 
1 5392 14544 
3 3418 3419 
1 3418 15709 
3 13231 13232 
1 13231 15711 
3 15125 15126 
3 15709 15710 
3 15124 15125 
3 2950 2951 
1 2950 15124 
3 15710 15711 
3 2951 2952 
3 11993 11994 
3 12838 12839 
1 12838 15753 
3 12839 12840 
3 18146 18147 
3 8860 8861 
1 8860 18147 
3 8861 8862 
2 8540 8541 
1 8541 19176 
1 8862 10459 
1 11154 19174 
3 19174 19175 
3 15752 15753 
3 19175 19176 
3 15751 15752 
3 20033 20034 
3 20032 20033 
3 2707 2708 
1 2707 20032 
3 2708 2709 
1 2709 10281 
3 13985 13986 
3 6302 6303 
3 13042 13043 
3 6301 6302 
1 6301 13042 
3 18517 18518 
3 18518 18519 
1 18519 21096 
3 8477 8478 
3 8476 8477 
3 3817 3818 
1 3817 8476 
3 3818 3819 
3 12959 12960 
3 12343 12344 
1 12343 19102 
3 19102 19103 
3 13984 13985 
1 13984 19104 
3 19103 19104 
1 16269 20980 
3 20980 20981 
3 20981 20982 
1 6138 20982 
1 17304 18039 
3 17303 17304 
3 18038 18039 
3 6137 6138 
3 19307 19308 
3 19306 19307 
1 2598 6303 
3 13937 13938 
1 7131 9448 
3 12958 12959 
1 5034 12958 
3 9448 9449 
3 5033 5034 
3 18713 18714 
1 9450 18714 
3 9449 9450 
3 10981 10982 
3 5218 5219 
1 5218 10981 
3 5219 5220 
3 20041 20042 
3 16729 16730 
1 16729 18037 
3 18037 18038 
3 2149 2150 
1 2149 5220 
1 13233 15321 
1 6798 14148 
3 3215 3216 
3 14146 14147 
1 3216 14146 
3 14147 14148 
3 20558 20559 
3 20557 20558 
3 7625 7626 
3 7624 7625 
1 7624 19021 
3 19021 19022 
3 19022 19023 
3 3932 3933 
3 11201 11202 
3 11200 11201 
1 11200 17527 
3 17527 17528 
3 3931 3932 
1 3931 11739 
3 11738 11739 
3 17528 17529 
1 7989 17529 
3 11737 11738 
1 11737 20041 
3 13460 13461 
3 7339 7340 
1 2109 20557 
3 2107 2108 
1 2107 2952 
1 141 7339 
3 139 140 
1 139 11671 
3 11671 11672 
3 3599 3600 
3 2108 2109 
3 3598 3599 
1 3598 14542 
3 14542 14543 
3 140 141 
3 14543 14544 
3 11672 11673 
1 3384 3600 
3 17512 17513 
3 13829 13830 
3 2251 2252 
1 2251 13830 
3 11894 11895 
3 11893 11894 
1 11893 12840 
2 8539 8540 
1 8539 13828 
3 10459 10460 
3 10460 10461 
3 8600 8601 
3 8599 8600 
1 8599 17763 
3 9511 9512 
1 9511 10461 
3 17762 17763 
3 13828 13829 
3 9512 9513 
3 10676 10677 
1 13986 18181 
3 18181 18182 
3 14510 14511 
3 18182 18183 
1 789 18183 
3 788 789 
1 10677 14509 
1 14511 20034 
1 8535 17712 
3 14509 14510 
3 12778 12779 
1 3819 17761 
3 21095 21096 
3 17761 17762 
3 19060 19061 
1 13044 19060 
3 11503 11504 
1 11503 12960 
1 1155 21094 
3 1154 1155 
3 21094 21095 
3 11504 11505 
1 6072 11505 
3 6071 6072 
3 19061 19062 
1 19062 21411 
3 13043 13044 
3 8534 8535 
3 14582 14583 
3 8533 8534 
3 17302 17303 
1 9396 17302 
3 9395 9396 
3 9394 9395 
1 9394 14581 
3 6136 6137 
1 6136 8533 
3 14581 14582 
3 4148 4149 
1 4149 6796 
3 6796 6797 
3 4147 4148 
1 4147 17557 
3 6797 6798 
3 17557 17558 
1 16956 20805 
3 20804 20805 
2 5530 5531 
3 1456 1457 
1 1456 5530 
3 1457 1458 
3 12779 12780 
2 5531 5532 
1 12780 13936 
3 13936 13937 
3 1913 1914 
3 6850 6851 
1 1914 6850 
3 7912 7913 
1 5532 7912 
3 6851 6852 
3 18712 18713 
1 7422 18712 
3 7421 7422 
3 7420 7421 
1 7420 12142 
3 12142 12143 
3 16465 16466 
3 20042 20043 
1 2367 16465 
3 16466 16467 
3 6028 6029 
1 6028 20043 
3 2150 2151 
3 6029 6030 
1 9132 20559 
3 20803 20804 
1 2151 20803 
3 9130 9131 
1 9130 14524 
3 9131 9132 
3 14524 14525 
3 14525 14526 
3 1912 1913 
1 1912 7626 
3 8234 8235 
3 4417 4418 
1 4417 16696 
3 16696 16697 
1 13314 13459 
3 13459 13460 
3 7988 7989 
3 7987 7988 
1 7987 16467 
3 13313 13314 
3 13312 13313 
1 13312 13357 
3 13357 13358 
3 16697 16698 
3 13358 13359 
3 8233 8234 
1 8233 16698 
1 3375 17514 
3 3374 3375 
1 681 5313 
3 17513 17514 
3 679 680 
1 679 11673 
3 680 681 
3 17342 17343 
1 6168 17343 
3 2252 2253 
2 1504 1505 
2 1669 1670 
1 1671 10675 
3 10675 10676 
2 1670 1671 
3 1153 1154 
1 1153 6696 
3 5572 5573 
1 5572 8601 
2 1505 1506 
1 1506 9513 
3 6694 6695 
3 5573 5574 
3 6695 6696 
3 14875 14876 
3 8708 8709 
3 18955 18956 
3 18956 18957 
3 787 788 
1 787 8707 
3 8707 8708 
1 2589 4125 
3 2588 2589 
3 2587 2588 
1 2587 14583 
3 17711 17712 
3 17710 17711 
1 17710 18957 
1 4029 18955 
3 17428 17429 
3 17429 17430 
1 6738 17497 
3 17497 17498 
3 17498 17499 
3 21410 21411 
3 21409 21410 
3 6070 6071 
1 6070 6736 
3 2269 2270 
1 2269 21409 
3 6736 6737 
3 6737 6738 
3 2270 2271 
1 3471 7503 
3 7502 7503 
3 7501 7502 
1 7501 12144 
3 14876 14877 
3 17780 17781 
3 16955 16956 
3 16954 16955 
1 186 16954 
3 185 186 
3 184 185 
3 17558 17559 
1 14877 17559 
1 10956 17781 
3 7913 7914 
3 4228 4229 
2 1795 1796 
1 1795 4228 
3 4229 4230 
3 12143 12144 
1 6852 8467 
3 8468 8469 
3 8467 8468 
3 2365 2366 
1 2365 9582 
3 2366 2367 
3 9581 9582 
3 9580 9581 
1 9580 16326 
1 3972 6030 
3 10955 10956 
3 14209 14210 
3 3971 3972 
3 10954 10955 
1 10954 14526 
3 3970 3971 
1 3970 17457 
3 6494 6495 
3 6493 6494 
1 6493 14209 
3 5311 5312 
1 5311 6495 
3 17456 17457 
1 4230 8235 
3 14527 14528 
3 6484 6485 
1 6484 13359 
3 6485 6486 
3 14528 14529 
3 5312 5313 
1 1131 6166 
3 6166 6167 
3 1130 1131 
3 6167 6168 
3 1129 1130 
1 1129 4963 
3 4963 4964 
2 3946 3947 
1 3946 13146 
2 3947 3948 
1 3132 3948 
3 3131 3132 
3 3130 3131 
1 3130 17499 
3 9830 9831 
2 10622 10623 
2 4027 4028 
1 4027 10623 
2 4124 4125 
2 4123 4124 
1 4123 17176 
3 17176 17177 
3 17177 17178 
1 17178 18286 
2 4028 4029 
3 18286 18287 
2 10621 10622 
3 3470 3471 
3 3469 3470 
1 8142 17779 
2 19970 19971 
2 5581 5582 
1 5581 19971 
2 19969 19970 
3 9829 9830 
3 17779 17780 
3 8141 8142 
2 1796 1797 
3 4183 4184 
3 4184 4185 
3 17455 17456 
2 5582 5583 
2 16325 16326 
3 14210 14211 
1 5583 17455 
2 16324 16325 
2 14455 14456 
1 14455 16324 
2 14456 14457 
3 13217 13218 
3 13216 13217 
3 4964 4965 
2 18320 18321 
2 18319 18320 
3 9553 9554 
1 18288 18319 
3 12617 12618 
3 12616 12617 
1 10332 12616 
2 6656 6657 
2 6655 6656 
1 6655 13144 
2 13144 13145 
2 13145 13146 
3 9554 9555 
3 18287 18288 
2 400 401 
1 400 9555 
2 401 402 
1 402 4498 
2 4498 4499 
2 6974 6975 
2 6973 6974 
2 869 870 
1 870 6975 
1 4500 19969 
2 868 869 
2 4499 4500 
3 8683 8684 
1 8683 14457 
3 8684 8685 
1 12123 17391 
3 17390 17391 
3 12122 12123 
3 12121 12122 
3 13775 13776 
3 13774 13775 
1 13774 17389 
3 17389 17390 
3 21544 21545 
2 1112 1113 
1 1113 13924 
3 13924 13925 
2 1111 1112 
3 4445 4446 
3 13925 13926 
1 13926 17196 
3 659 660 
3 13519 13520 
1 660 13519 
3 658 659 
1 658 17758 
3 8189 8190 
3 8188 8189 
3 17758 17759 
3 1390 1391 
1 1390 8188 
3 1391 1392 
3 1148 1149 
3 18583 18584 
3 18584 18585 
2 1045 1046 
1 1045 18583 
3 21545 21546 
3 8479 8480 
1 8479 11277 
1 8481 21546 
3 8480 8481 
3 17194 17195 
3 17195 17196 
1 14808 17194 
3 1934 1935 
3 14807 14808 
3 17048 17049 
3 17047 17048 
3 12994 12995 
1 12994 17047 
3 12995 12996 
3 16243 16244 
3 16244 16245 
3 4444 4445 
1 4444 18438 
1 9801 13102 
3 13103 13104 
3 19735 19736 
3 19736 19737 
1 17760 19737 
3 17759 17760 
3 18436 18437 
3 18437 18438 
3 1933 1934 
1 1933 18436 
3 9634 9635 
1 9634 19735 
3 13102 13103 
3 9800 9801 
3 2105 2106 
3 2104 2105 
1 2104 16543 
3 16543 16544 
3 16544 16545 
1 16245 17847 
3 17846 17847 
3 17845 17846 
2 12715 12716 
1 12715 17845 
2 12716 12717 
3 15421 15422 
3 15422 15423 
3 14020 14021 
3 4781 4782 
1 4782 20883 
3 20882 20883 
3 4780 4781 
1 4780 8190 
3 14021 14022 
3 19036 19037 
1 19036 20254 
2 1046 1047 
3 2111 2112 
1 1047 19038 
3 19037 19038 
1 2112 19770 
1 7479 12717 
3 8738 8739 
3 8737 8738 
1 8737 11029 
2 11029 11030 
2 3767 3768 
1 3768 7477 
3 7477 7478 
3 7478 7479 
2 7943 7944 
2 7942 7943 
1 102 7944 
1 1935 3735 
1 3093 7942 
3 14806 14807 
3 3091 3092 
1 3091 14806 
3 3092 3093 
3 3733 3734 
1 3733 12133 
3 12133 12134 
3 12134 12135 
3 3734 3735 
3 13424 13425 
3 13423 13424 
1 1416 18210 
3 18209 18210 
3 1415 1416 
3 9635 9636 
1 9636 13425 
3 16652 16653 
3 11608 11609 
1 11608 16653 
3 11609 11610 
3 2974 2975 
1 2974 3988 
3 3989 3990 
1 3990 9799 
3 3988 3989 
3 9799 9800 
3 20254 20255 
3 452 453 
3 18208 18209 
1 16545 18208 
3 14576 14577 
3 14575 14576 
1 14575 20256 
3 20255 20256 
1 3084 15561 
3 451 452 
1 451 5071 
3 12997 12998 
1 12997 14577 
3 16769 16770 
3 16768 16769 
1 15423 16768 
3 12314 12315 
3 12313 12314 
1 3255 12313 
1 12315 13536 
2 3790 3791 
3 19853 19854 
1 2844 10333 
3 11119 11120 
1 11119 19854 
3 20881 20882 
1 11610 20881 
3 11120 11121 
1 7482 11121 
3 1792 1793 
1 1792 14022 
3 1793 1794 
1 1794 14959 
3 14959 14960 
3 14960 14961 
3 10333 10334 
3 15560 15561 
3 2624 2625 
3 15559 15560 
1 15559 19768 
3 19768 19769 
3 19769 19770 
3 211 212 
1 211 2625 
3 18080 18081 
3 3254 3255 
3 3253 3254 
1 3253 8739 
3 12449 12450 
3 12448 12449 
1 12448 20719 
1 12450 18081 
3 20719 20720 
3 9874 9875 
3 3544 3545 
3 3545 3546 
1 3546 9874 
3 20434 20435 
1 438 20434 
3 9875 9876 
2 433 434 
2 100 101 
1 100 436 
3 436 437 
3 437 438 
2 101 102 
3 14620 14621 
1 3306 14620 
3 14621 14622 
2 434 435 
3 18799 18800 
3 18800 18801 
2 18169 18170 
1 18169 18799 
3 9793 9794 
1 9793 13423 
3 9794 9795 
3 3304 3305 
1 3304 12135 
3 3305 3306 
3 5959 5960 
1 5959 9795 
3 5960 5961 
3 5683 5684 
1 5683 15405 
3 15404 15405 
3 15403 15404 
1 2976 15403 
1 5961 11044 
3 1414 1415 
1 1414 18171 
2 18170 18171 
3 15203 15204 
1 15204 17544 
3 5071 5072 
3 15469 15470 
3 5072 5073 
2 3604 3605 
1 3604 5073 
2 3605 3606 
3 3977 3978 
3 3976 3977 
1 3976 19243 
3 19243 19244 
1 3606 15469 
1 3792 5085 
2 5084 5085 
2 5083 5084 
1 5083 10276 
2 3791 3792 
3 10276 10277 
3 2975 2976 
3 12440 12441 
1 12441 15523 
3 16651 16652 
3 15524 15525 
3 15523 15524 
1 15525 16651 
3 2797 2798 
1 2797 9381 
3 1187 1188 
1 12999 15202 
3 15202 15203 
3 12998 12999 
3 6143 6144 
1 3432 6144 
3 3083 3084 
3 3082 3083 
1 3082 13642 
3 13642 13643 
3 3431 3432 
3 3430 3431 
1 3430 14961 
3 13643 13644 
1 13644 18222 
3 5549 5550 
1 3978 13534 
3 13534 13535 
3 13535 13536 
1 8856 14964 
3 14963 14964 
3 8830 8831 
3 2843 2844 
3 9380 9381 
3 7481 7482 
3 9379 9380 
3 7480 7481 
1 7480 9379 
3 1730 1731 
1 1731 19150 
3 2842 2843 
1 2842 5037 
3 5036 5037 
3 19150 19151 
3 1729 1730 
1 1729 8830 
3 2623 2624 
1 2623 3376 
3 5035 5036 
1 5035 8313 
3 12628 12629 
3 3376 3377 
3 3377 3378 
1 3378 5548 
3 5548 5549 
1 8913 12628 
3 8912 8913 
3 20720 20721 
3 14962 14963 
1 14962 20721 
3 13844 13845 
3 5449 5450 
1 5449 13843 
1 13845 18807 
3 13843 13844 
3 5450 5451 
3 21223 21224 
3 21224 21225 
3 14227 14228 
3 14228 14229 
3 6242 6243 
1 6243 8343 
3 20435 20436 
3 6241 6242 
1 6241 20436 
3 11992 11993 
1 11992 14227 
2 3427 3428 
1 3427 9876 
2 3428 3429 
1 3429 12474 
3 1090 1091 
1 1090 3810 
2 12473 12474 
2 12472 12473 
3 7246 7247 
1 7246 14622 
3 7247 7248 
1 7248 17571 
3 1235 1236 
1 1236 11046 
3 21325 21326 
3 17570 17571 
3 1234 1235 
1 1234 2500 
1 8799 21325 
3 2500 2501 
3 16046 16047 
3 16045 16046 
1 3987 18801 
3 3986 3987 
3 3985 3986 
1 1092 3985 
3 1091 1092 
1 3366 11169 
2 15386 15387 
3 5684 5685 
3 11045 11046 
3 11044 11045 
3 10007 10008 
3 10006 10007 
1 5685 8797 
3 8797 8798 
3 8798 8799 
1 6936 10006 
1 10008 12439 
3 12439 12440 
3 7040 7041 
3 7039 7040 
1 7039 9280 
3 9280 9281 
3 6935 6936 
3 17543 17544 
3 17542 17543 
3 11167 11168 
1 11167 17542 
3 11168 11169 
3 13544 13545 
3 13543 13544 
1 13545 14739 
3 18220 18221 
3 11959 11960 
1 11959 13543 
1 13476 15387 
3 15470 15471 
1 6801 18220 
3 6800 6801 
3 19244 19245 
3 6799 6800 
1 6799 19990 
3 19990 19991 
3 13474 13475 
1 13474 19245 
3 13475 13476 
1 10674 21390 
2 5188 5189 
1 5190 10278 
2 5189 5190 
3 10277 10278 
3 15320 15321 
3 2798 2799 
1 1602 2799 
3 1601 1602 
3 1600 1601 
1 1600 2337 
3 9281 9282 
3 16235 16236 
1 1188 9282 
3 15319 15320 
1 15319 16236 
3 18221 18222 
3 6142 6143 
1 6142 11961 
3 11960 11961 
1 12480 21127 
3 21127 21128 
1 210 5550 
3 21128 21129 
3 209 210 
3 208 209 
1 208 2469 
3 2468 2469 
3 8855 8856 
3 8854 8855 
1 8854 21388 
3 21388 21389 
3 21389 21390 
1 6876 12024 
3 6875 6876 
3 6874 6875 
1 6874 18805 
3 17519 17520 
3 17518 17519 
3 14740 14741 
1 14740 17518 
3 14741 14742 
1 11097 11524 
3 3383 3384 
3 6784 6785 
1 6784 18699 
3 19151 19152 
3 18698 18699 
3 18697 18698 
1 18697 19152 
3 7342 7343 
3 6061 6062 
1 6061 7342 
3 11095 11096 
3 3658 3659 
1 3658 11095 
3 11096 11097 
3 6062 6063 
3 7343 7344 
3 8312 8313 
3 8311 8312 
1 8311 21129 
3 14483 14484 
3 8911 8912 
1 8911 9315 
3 9314 9315 
1 6063 16153 
3 9313 9314 
1 9313 14482 
3 14482 14483 
3 16153 16154 
3 19160 19161 
3 6653 6654 
3 18805 18806 
3 18806 18807 
3 5644 5645 
1 5644 6654 
3 5645 5646 
3 11122 11123 
1 11122 12051 
1 14229 18901 
3 18901 18902 
3 18902 18903 
3 10297 10298 
3 10298 10299 
3 3439 3440 
1 3439 10297 
3 3440 3441 
3 14078 14079 
1 3441 17569 
3 17569 17570 
3 8342 8343 
3 8341 8342 
3 14077 14078 
1 14077 18964 
3 3809 3810 
3 3808 3809 
2 17917 17918 
3 21326 21327 
1 15075 21327 
3 15074 15075 
3 15073 15074 
3 6880 6881 
1 6880 15073 
3 2501 2502 
1 20220 21306 
1 2502 14079 
3 21305 21306 
3 3365 3366 
3 4784 4785 
3 4783 4784 
3 3364 3365 
1 3364 4785 
1 3537 4783 
1 2808 10021 
3 10021 10022 
3 10022 10023 
3 2807 2808 
3 2806 2807 
1 2806 19992 
2 17918 17919 
3 16291 16292 
1 16291 17919 
2 15385 15386 
1 15385 16293 
3 16292 16293 
1 7041 7089 
3 20219 20220 
3 7087 7088 
1 7087 18256 
3 7088 7089 
3 18256 18257 
3 18257 18258 
3 14189 14190 
3 9226 9227 
3 9227 9228 
3 6934 6935 
1 6934 20218 
3 20218 20219 
3 2335 2336 
1 2335 9226 
1 9021 9228 
3 14738 14739 
3 14737 14738 
1 13464 14737 
3 13463 13464 
3 13462 13463 
3 7160 7161 
3 4748 4749 
3 10673 10674 
3 19991 19992 
3 10672 10673 
1 10672 12292 
3 12292 12293 
1 4272 4749 
3 4271 4272 
3 12293 12294 
3 16303 16304 
1 2184 16303 
2 13073 13074 
2 13072 13073 
1 13072 15690 
1 10971 16234 
3 803 804 
3 3382 3383 
3 19837 19838 
3 2336 2337 
3 12104 12105 
3 10969 10970 
1 10969 14190 
3 10970 10971 
1 6786 12105 
3 6785 6786 
3 12103 12104 
1 3744 12103 
3 16234 16235 
1 804 19837 
3 802 803 
1 802 3382 
3 12479 12480 
3 2467 2468 
1 2467 4747 
3 7159 7160 
3 12478 12479 
3 1765 1766 
1 1765 12478 
3 1766 1767 
1 1767 7159 
3 9151 9152 
3 730 731 
1 730 9151 
3 3703 3704 
1 3703 14484 
3 3704 3705 
1 3705 15271 
3 15271 15272 
3 15272 15273 
3 4747 4748 
3 9152 9153 
3 2183 2184 
3 12023 12024 
3 12022 12023 
3 2182 2183 
1 2182 12022 
3 16016 16017 
3 15688 15689 
1 15688 17520 
3 15689 15690 
3 13729 13730 
1 177 11067 
3 3373 3374 
1 3373 9249 
3 3659 3660 
1 3660 13896 
3 13895 13896 
3 13894 13895 
1 4056 13894 
3 21547 21548 
3 731 732 
3 16154 16155 
3 21548 21549 
1 732 16155 
1 19161 21064 
3 21064 21065 
3 6037 6038 
1 6037 21549 
3 21065 21066 
3 1144 1145 
1 1144 21066 
3 1145 1146 
3 12050 12051 
3 16015 16016 
3 2593 2594 
1 2593 16015 
1 2595 5646 
3 2594 2595 
3 10732 10733 
1 10732 21042 
3 832 833 
1 832 12049 
3 12049 12050 
3 833 834 
3 21041 21042 
3 10733 10734 
3 14047 14048 
3 20300 20301 
3 18964 18965 
3 18965 18966 
3 1004 1005 
3 1003 1004 
1 1003 3535 
1 1005 14307 
3 14048 14049 
1 9915 17917 
2 9914 9915 
2 9913 9914 
1 9913 14049 
3 20299 20300 
1 3540 18258 
3 6881 6882 
1 6882 20299 
3 10976 10977 
3 3538 3539 
1 3538 10977 
3 3539 3540 
3 3535 3536 
3 21304 21305 
3 3536 3537 
3 9337 9338 
1 9337 17740 
1 9339 21304 
3 17740 17741 
3 9338 9339 
3 10487 10488 
1 10488 16056 
3 6482 6483 
3 10486 10487 
1 10486 13462 
3 6481 6482 
1 6481 9436 
3 9436 9437 
3 16055 16056 
3 16054 16055 
2 17336 17337 
3 9020 9021 
3 14188 14189 
3 701 702 
3 700 701 
1 700 16725 
1 702 14188 
3 16724 16725 
3 3742 3743 
1 3742 21366 
3 21365 21366 
3 21364 21365 
3 9019 9020 
1 9019 9438 
3 9437 9438 
1 7161 20895 
3 20894 20895 
3 20893 20894 
1 12516 20893 
3 9556 9557 
1 9556 21364 
3 12515 12516 
3 665 666 
3 4270 4271 
3 406 407 
1 406 4270 
3 16304 16305 
2 17335 17336 
3 407 408 
1 408 17335 
3 19433 19434 
3 12004 12005 
1 12004 19434 
3 19432 19433 
1 16305 17748 
3 17747 17748 
3 17746 17747 
2 6373 6374 
2 6374 6375 
1 6375 10771 
2 10771 10772 
3 3743 3744 
1 19839 21079 
3 21079 21080 
3 21080 21081 
3 19838 19839 
3 8993 8994 
3 4054 4055 
1 4054 12513 
3 4055 4056 
3 8992 8993 
1 18657 21081 
3 12512 12513 
3 12511 12512 
1 666 2347 
1 2349 9153 
3 2348 2349 
3 2347 2348 
3 3139 3140 
1 3139 12511 
3 12005 12006 
1 12006 15273 
1 11001 16017 
3 6572 6573 
1 6573 11419 
3 11419 11420 
3 11000 11001 
3 10999 11000 
3 11420 11421 
3 2551 2552 
1 2551 10999 
3 5768 5769 
3 2552 2553 
3 13730 13731 
1 2553 6373 
3 9247 9248 
1 8994 9247 
3 176 177 
3 175 176 
1 175 5787 
3 5786 5787 
3 5785 5786 
3 9248 9249 
3 4504 4505 
3 118 119 
1 118 4504 
3 12269 12270 
1 8031 11461 
3 11461 11462 
3 6571 6572 
1 1146 6571 
3 11462 11463 
3 6038 6039 
1 6039 11463 
1 3672 20802 
3 20801 20802 
1 5751 12270 
3 20800 20801 
1 5769 19201 
3 19202 19203 
3 19201 19202 
1 19203 21040 
3 21040 21041 
3 5788 5789 
1 5788 20800 
3 19133 19134 
3 19132 19133 
1 13731 19132 
1 14124 20871 
2 14123 14124 
2 14122 14123 
1 14122 17742 
2 20870 20871 
2 14305 14306 
2 14306 14307 
2 14441 14442 
3 10975 10976 
2 4768 4769 
1 4768 10975 
2 4769 4770 
2 1486 1487 
1 1486 20685 
3 17741 17742 
2 818 819 
2 817 818 
1 819 6483 
2 20986 20987 
2 18625 18626 
1 18625 20986 
2 20987 20988 
2 14935 14936 
1 14935 17337 
2 14936 14937 
1 8658 14937 
2 18626 18627 
2 8657 8658 
3 8140 8141 
1 8140 14440 
2 14440 14441 
3 20684 20685 
3 16723 16724 
1 16723 20683 
3 20683 20684 
3 18655 18656 
3 9557 9558 
3 12202 12203 
1 12202 15637 
3 664 665 
3 12044 12045 
3 12043 12044 
1 12043 20988 
3 12203 12204 
2 15637 15638 
3 12514 12515 
3 10361 10362 
2 10772 10773 
3 18656 18657 
3 8623 8624 
1 8623 8992 
3 8624 8625 
3 8030 8031 
3 3140 3141 
1 3141 12204 
3 8029 8030 
1 8029 20589 
3 20588 20589 
3 20587 20588 
3 10360 10361 
3 5767 5768 
1 5767 14736 
3 14735 14736 
3 2116 2117 
1 2116 17197 
3 2117 2118 
2 17197 17198 
3 14734 14735 
2 10118 10119 
2 10117 10118 
3 4505 4506 
3 688 689 
1 688 18867 
3 5750 5751 
3 5749 5750 
1 690 5749 
3 689 690 
3 5789 5790 
1 2118 5790 
2 20869 20870 
2 3449 3450 
2 19492 19493 
2 3448 3449 
1 3448 19492 
2 1487 1488 
2 19493 19494 
2 8656 8657 
2 4033 4034 
1 4033 15639 
2 4034 4035 
2 15638 15639 
1 16341 17173 
3 17174 17175 
3 17173 17174 
3 5842 5843 
3 5843 5844 
1 5844 15568 
3 15569 15570 
3 15568 15569 
2 16339 16340 
2 16340 16341 
2 17198 17199 
2 4093 4094 
1 4093 17199 
2 4094 4095 
2 18865 18866 
2 18866 18867 
2 8596 8597 
1 8596 16339 
2 8597 8598 
3 5300 5301 
3 5299 5300 
1 5299 9105 
2 8558 8559 
2 3832 3833 
3 9104 9105 
3 9103 9104 
3 11204 11205 
1 11205 14358 
1 12771 20167 
3 11203 11204 
3 20167 20168 
3 10501 10502 
1 10501 11203 
3 14357 14358 
3 21235 21236 
3 466 467 
1 466 21235 
3 21236 21237 
3 2812 2813 
1 2812 5952 
3 2813 2814 
3 148 149 
1 148 7962 
3 149 150 
1 150 2998 
3 2998 2999 
3 5951 5952 
3 7961 7962 
1 2814 17701 
3 17701 17702 
3 3973 3974 
1 3973 11787 
3 11786 11787 
3 3974 3975 
1 11007 16075 
2 11006 11007 
3 16075 16076 
3 16076 16077 
1 4908 11005 
2 11005 11006 
2 3766 3767 
3 8531 8532 
2 7016 7017 
1 8532 10638 
3 10637 10638 
3 11731 11732 
1 11731 13222 
2 13222 13223 
3 11732 11733 
3 10636 10637 
1 7017 12769 
3 12769 12770 
3 12770 12771 
1 1809 21274 
3 21274 21275 
1 468 8127 
3 467 468 
3 21275 21276 
3 1808 1809 
3 21574 21575 
1 17790 21574 
3 17789 17790 
3 17788 17789 
3 2836 2837 
1 2836 17788 
3 1226 1227 
3 11785 11786 
3 16193 16194 
1 16194 18091 
3 16192 16193 
3 2671 2672 
1 2671 16192 
3 18091 18092 
3 1225 1226 
1 1225 11785 
3 2672 2673 
1 2013 4546 
3 2012 2013 
3 14504 14505 
3 2011 2012 
1 2011 14505 
2 13223 13224 
3 10156 10157 
3 10157 10158 
2 4547 4548 
1 4548 9589 
2 9589 9590 
2 9590 9591 
3 18092 18093 
2 4546 4547 
2 9439 9440 
3 4226 4227 
3 16774 16775 
1 4227 16774 
3 16775 16776 
2 14980 14981 
1 14980 16776 
2 14981 14982 
2 9440 9441 
3 655 656 
1 655 9441 
1 6465 19698 
3 19697 19698 
3 19696 19697 
2 8557 8558 
1 8557 19696 
3 6464 6465 
3 5287 5288 
1 5287 9103 
3 199 200 
1 199 20169 
3 200 201 
1 201 7677 
3 20168 20169 
3 5288 5289 
3 11393 11394 
3 8881 8882 
1 8881 21237 
3 8882 8883 
3 4387 4388 
1 4387 8883 
3 7960 7961 
1 7960 11149 
3 11149 11150 
3 4388 4389 
3 838 839 
1 838 5647 
3 5647 5648 
3 5648 5649 
3 11150 11151 
1 3975 12667 
3 12667 12668 
3 12668 12669 
3 12862 12863 
1 12862 13662 
3 13661 13662 
3 12863 12864 
3 13660 13661 
1 2673 13660 
1 11151 19852 
3 19852 19853 
1 12669 14020 
3 11803 11804 
3 4907 4908 
3 17636 17637 
3 17635 17636 
1 13650 17637 
3 11804 11805 
3 10327 10328 
1 10327 11805 
3 13649 13650 
3 14503 14504 
1 14503 17635 
3 4906 4907 
3 2110 2111 
1 2110 4906 
2 11030 11031 
3 10328 10329 
1 10329 18079 
2 9839 9840 
2 9838 9839 
3 8530 8531 
1 8530 17301 
3 16519 16520 
3 16520 16521 
3 808 809 
1 16521 21436 
3 21436 21437 
1 11733 13689 
3 809 810 
3 13688 13689 
3 13687 13688 
3 11488 11489 
1 11488 13687 
3 10213 10214 
3 1807 1808 
1 1807 10213 
3 10214 10215 
3 11489 11490 
3 5611 5612 
1 5611 14676 
3 5612 5613 
1 10215 11392 
1 5613 17901 
3 839 840 
3 11392 11393 
3 8549 8550 
1 840 8548 
3 8548 8549 
3 16949 16950 
3 2837 2838 
3 2677 2678 
3 2678 2679 
1 2679 3186 
3 11273 11274 
3 11272 11273 
1 11272 16042 
3 16042 16043 
1 15975 16147 
3 16147 16148 
3 16148 16149 
3 19055 19056 
3 19054 19055 
2 17300 17301 
2 17299 17300 
2 18907 18908 
2 5732 5733 
2 5731 5732 
1 5731 14635 
3 14635 14636 
3 17899 17900 
3 17900 17901 
3 14636 14637 
3 16948 16949 
3 21316 21317 
3 21317 21318 
3 4156 4157 
1 4156 21318 
3 21481 21482 
3 21482 21483 
3 12196 12197 
1 12196 21483 
3 6463 6464 
3 4990 4991 
1 4990 6463 
3 12197 12198 
3 21110 21111 
3 21109 21110 
1 21109 21438 
1 11571 21111 
3 2263 2264 
1 2263 11890 
3 21437 21438 
3 2264 2265 
3 4991 4992 
3 7676 7677 
1 11514 16539 
3 16538 16539 
3 11513 11514 
3 11512 11513 
1 11490 11512 
3 7675 7676 
1 7675 9126 
1 4992 9658 
3 2741 2742 
1 2742 17104 
1 5649 14185 
3 17104 17105 
3 2740 2741 
1 2740 11394 
3 14185 14186 
3 14186 14187 
1 8832 14187 
1 4182 19419 
3 17105 17106 
1 4389 19774 
3 19774 19775 
3 10334 10335 
1 10335 12864 
3 14392 14393 
3 10760 10761 
1 207 14392 
3 10759 10760 
1 10759 16044 
3 206 207 
1 8082 10761 
3 13648 13649 
1 213 13648 
3 11129 11130 
3 11128 11129 
1 11128 16989 
1 11130 19056 
3 16988 16989 
3 8081 8082 
3 134 135 
3 212 213 
3 16987 16988 
3 18079 18080 
3 11891 11892 
1 9840 11892 
3 11890 11891 
3 15313 15314 
1 15313 18888 
3 15314 15315 
3 18887 18888 
1 810 21579 
3 14674 14675 
3 10198 10199 
1 10198 14674 
3 14675 14676 
3 21578 21579 
3 21577 21578 
3 10199 10200 
1 10200 16998 
1 21426 21577 
3 8699 8700 
3 8698 8699 
1 7254 8698 
3 14905 14906 
1 16038 16950 
3 16037 16038 
3 16036 16037 
3 4180 4181 
1 4180 16036 
3 4181 4182 
3 20282 20283 
3 20281 20282 
1 7443 20281 
1 6210 8700 
3 16043 16044 
3 205 206 
1 205 3184 
3 3184 3185 
3 3185 3186 
1 4158 7351 
3 7351 7352 
3 7352 7353 
1 7353 9471 
3 9470 9471 
3 15974 15975 
3 15973 15974 
3 133 134 
1 15315 18909 
2 18908 18909 
2 15941 15942 
2 15940 15941 
3 2200 2201 
1 2200 15940 
3 7252 7253 
1 7252 14637 
3 7253 7254 
3 4192 4193 
1 4192 8403 
2 8401 8402 
2 8402 8403 
1 2202 14905 
3 2201 2202 
3 4193 4194 
1 4194 9039 
3 11260 11261 
3 11261 11262 
3 1114 1115 
3 8371 8372 
3 4157 4158 
3 1115 1116 
1 1116 8935 
3 8935 8936 
3 8936 8937 
1 5841 15942 
2 5839 5840 
2 5840 5841 
1 2265 19759 
3 19760 19761 
3 11570 11571 
3 11569 11570 
1 11569 18709 
3 18709 18710 
3 19759 19760 
3 18710 18711 
1 10302 12198 
3 7340 7341 
3 16537 16538 
3 13765 13766 
1 13765 16537 
3 13766 13767 
1 7341 13767 
3 7648 7649 
1 7648 9667 
3 16997 16998 
3 7649 7650 
3 9667 9668 
3 16996 16997 
3 5393 5394 
3 14857 14858 
1 14857 16996 
3 14858 14859 
3 19418 19419 
1 13995 19417 
3 19417 19418 
3 13994 13995 
3 13993 13994 
1 11526 13993 
3 14449 14450 
1 14449 14859 
1 5394 17106 
3 8831 8832 
3 14393 14394 
1 14394 17130 
3 17129 17130 
3 11641 11642 
3 1894 1895 
1 1894 11641 
3 11789 11790 
3 17128 17129 
1 7344 17128 
3 11788 11789 
1 11788 20674 
3 8080 8081 
1 8080 12630 
3 5438 5439 
1 5439 7591 
3 7591 7592 
3 5437 5438 
1 135 5437 
3 7592 7593 
3 20674 20675 
3 20675 20676 
3 12629 12630 
3 19499 19500 
1 5451 16987 
3 18886 18887 
1 7650 21424 
3 21425 21426 
3 21424 21425 
3 6121 6122 
1 6121 14907 
3 6122 6123 
1 6123 14401 
3 14906 14907 
3 14401 14402 
3 6209 6210 
3 6208 6209 
3 4099 4100 
1 4099 6208 
3 4100 4101 
1 4101 17322 
3 5483 5484 
3 5482 5483 
1 5482 18831 
1 5601 8373 
3 5600 5601 
3 9469 9470 
1 9469 11790 
3 11642 11643 
3 7442 7443 
3 7441 7442 
1 7441 11643 
3 2860 2861 
1 2860 5274 
3 2861 2862 
1 2862 7815 
3 5273 5274 
3 5599 5600 
1 5599 14530 
3 14530 14531 
3 2533 2534 
3 2534 2535 
1 2535 19500 
3 9037 9038 
1 5484 9037 
3 9038 9039 
3 8372 8373 
3 16091 16092 
3 5272 5273 
1 5272 8937 
3 22 23 
3 13484 13485 
3 11539 11540 
1 11539 17775 
3 17774 17775 
3 13483 13484 
3 17773 17774 
3 11602 11603 
1 11602 18711 
1 9669 17251 
3 17251 17252 
3 9668 9669 
3 17252 17253 
3 11603 11604 
3 17191 17192 
1 17191 17253 
1 11604 13461 
3 14450 14451 
3 1231 1232 
1 1231 14451 
3 17320 17321 
1 13215 20140 
1 6519 17320 
3 20140 20141 
3 6518 6519 
3 13214 13215 
3 6517 6518 
1 6517 12567 
3 1232 1233 
1 1233 17512 
3 1895 1896 
1 1896 7695 
3 7694 7695 
3 11525 11526 
3 7693 7694 
1 7693 15288 
3 11524 11525 
3 6652 6653 
1 6652 7593 
1 12945 19159 
3 12944 12945 
3 12943 12944 
1 12943 20676 
1 7509 15478 
3 15478 15479 
3 19498 19499 
3 4186 4187 
1 4186 19498 
3 4187 4188 
1 4188 11026 
3 7508 7509 
3 11026 11027 