ITEM: TIMESTEP
30000000
ITEM: NUMBER OF ATOMS
2472
ITEM: BOX BOUNDS pp pp pp
0.0000000000000000e+00 5.0000000000000000e+01
0.0000000000000000e+00 5.0000000000000000e+01
0.0000000000000000e+00 5.0000000000000000e+01
ITEM: ATOMS id type xs ys zs
7525 1 0.495795 0.332592 0.546946
7526 3 0.494266 0.334359 0.555685
7527 1 0.496195 0.33558 0.563302
15763 1 0.497764 0.336219 0.566056
10575 1 0.44949 0.266869 0.574291
10574 2 0.451768 0.273198 0.578831
10573 1 0.457162 0.27885 0.583661
12858 1 0.458888 0.280439 0.584999
2980 1 0.481796 0.268814 0.584151
2982 1 0.491687 0.275883 0.596468
2981 2 0.486816 0.272211 0.590805
12857 2 0.464641 0.284746 0.588333
12856 1 0.469219 0.290914 0.593723
20992 1 0.471057 0.29265 0.595171
18126 1 0.427679 0.337371 0.579883
18125 2 0.434631 0.339688 0.58413
9946 1 0.464066 0.33826 0.571172
9947 2 0.468319 0.335315 0.577663
10126 1 0.445991 0.321728 0.590738
10127 3 0.45316 0.32165 0.59382
10128 1 0.461073 0.321076 0.5969
1500 1 0.463663 0.321213 0.598468
10648 1 0.443566 0.342668 0.590122
18124 1 0.441112 0.341937 0.58827
15756 1 0.459616 0.343139 0.598556
10649 3 0.450361 0.343446 0.593051
10650 1 0.457229 0.34324 0.597248
9948 1 0.474868 0.335368 0.583511
13080 1 0.47784 0.335289 0.585362
13079 3 0.483516 0.335425 0.590449
13078 1 0.48934 0.335735 0.594782
21349 1 0.492507 0.335901 0.596593
15764 3 0.503095 0.336784 0.572519
18088 1 0.423959 0.363343 0.594296
18089 2 0.430203 0.360113 0.59868
5980 1 0.471675 0.354775 0.587388
561 1 0.504328 0.365059 0.580627
5981 3 0.477391 0.355991 0.591607
5982 1 0.484423 0.356906 0.594757
1635 1 0.487375 0.35672 0.595865
1634 3 0.494468 0.356526 0.598552
560 3 0.499018 0.371294 0.578657
2731 1 0.50619 0.362653 0.581504
16621 1 0.463415 0.390023 0.595718
16622 3 0.470676 0.385721 0.594285
6808 1 0.493735 0.380876 0.576871
559 1 0.495423 0.377952 0.577541
20162 2 0.479075 0.402828 0.57141
20163 1 0.483656 0.395424 0.572774
6810 1 0.484737 0.39329 0.573138
6809 3 0.488985 0.386426 0.575161
1551 1 0.479109 0.380676 0.596158
16623 1 0.476754 0.381942 0.595459
9524 3 0.496 0.400668 0.598597
9523 1 0.501283 0.395753 0.595248
4077 1 0.502871 0.393651 0.594635
20161 1 0.476173 0.409972 0.569519
351 1 0.494491 0.229863 0.625603
19708 1 0.49432 0.276382 0.598938
19709 3 0.500011 0.275964 0.604165
19710 1 0.506381 0.273984 0.60893
10554 1 0.472786 0.283228 0.617176
10553 2 0.465132 0.284456 0.61462
10552 1 0.458208 0.285276 0.612007
7872 1 0.449753 0.310813 0.607281
7871 3 0.457501 0.30972 0.611149
7870 1 0.463731 0.309332 0.616017
15043 1 0.46607 0.309188 0.617766
6312 1 0.45241 0.30214 0.629713
4293 1 0.475522 0.28286 0.618217
4292 3 0.482559 0.282669 0.620532
4291 1 0.489613 0.283267 0.62364
21160 1 0.492103 0.283433 0.62525
21161 3 0.49994 0.281134 0.627306
20993 3 0.475959 0.296475 0.599402
15044 3 0.473632 0.309025 0.622531
15045 1 0.4808 0.307662 0.626387
20994 1 0.480924 0.298614 0.604297
17938 1 0.482866 0.299503 0.605903
17939 3 0.489697 0.2999 0.609159
17940 1 0.497373 0.298433 0.610099
19117 1 0.500093 0.297877 0.611232
16120 1 0.483598 0.30714 0.62833
10795 1 0.382084 0.325778 0.629983
2421 1 0.42131 0.331383 0.611655
2420 3 0.429048 0.331711 0.612393
2419 1 0.436749 0.33327 0.613658
14293 1 0.439807 0.33348 0.614017
3333 1 0.431519 0.339393 0.629699
1499 3 0.470757 0.322265 0.602485
14294 3 0.448118 0.332761 0.614438
14295 1 0.455643 0.331496 0.616878
16549 1 0.458121 0.331059 0.617989
16550 3 0.466253 0.330405 0.621621
15755 3 0.465398 0.343251 0.603666
15754 1 0.47183 0.343238 0.607622
16551 1 0.473164 0.328582 0.6266
9065 3 0.486495 0.320551 0.608778
1498 1 0.477866 0.321406 0.605609
9064 1 0.479909 0.321221 0.606484
10557 1 0.492265 0.341199 0.616949
12175 1 0.495687 0.319883 0.613708
9066 1 0.493332 0.320016 0.612506
8782 1 0.474213 0.342848 0.609301
8784 1 0.489093 0.341073 0.615662
8783 3 0.482068 0.341432 0.611868
12642 1 0.475242 0.328303 0.628017
21350 3 0.500728 0.335999 0.598915
12176 3 0.502634 0.318777 0.617402
10556 3 0.500431 0.341103 0.619801
3249 1 0.380345 0.37036 0.626275
2579 3 0.420546 0.347233 0.62639
18090 1 0.435458 0.358234 0.604406
6577 1 0.438339 0.357213 0.606483
2580 1 0.423647 0.34582 0.619386
13591 1 0.457004 0.370976 0.603219
6578 3 0.444381 0.354797 0.611982
6579 1 0.449542 0.353722 0.617486
10339 1 0.452439 0.353312 0.619318
13592 3 0.461653 0.367673 0.607679
10340 3 0.459588 0.35208 0.623337
13593 1 0.468774 0.364939 0.609333
10341 1 0.46605 0.349876 0.628287
12262 1 0.468886 0.349881 0.629729
741 1 0.471354 0.363963 0.610167
740 3 0.478589 0.361848 0.613507
739 1 0.485326 0.362041 0.617355
276 1 0.487396 0.362225 0.618948
275 3 0.49448 0.361837 0.623654
8646 1 0.504102 0.360176 0.628706
1633 1 0.500771 0.355137 0.601999
274 1 0.501465 0.36056 0.627294
8968 1 0.503655 0.354492 0.603667
11828 3 0.503003 0.374334 0.608559
8921 3 0.361949 0.396477 0.624906
8920 1 0.357716 0.396788 0.617948
3248 2 0.381673 0.374977 0.62065
3247 1 0.386304 0.378717 0.614674
4640 2 0.426443 0.382569 0.62684
4639 1 0.419744 0.381365 0.622743
10164 1 0.472501 0.392825 0.613026
6 1 0.461741 0.385409 0.62164
5 3 0.469931 0.385432 0.621268
10163 3 0.472719 0.399956 0.607816
10162 1 0.472203 0.405001 0.602658
1550 3 0.486927 0.377809 0.599229
9525 1 0.489542 0.405629 0.602369
1549 1 0.493837 0.376021 0.603887
11827 1 0.497019 0.375439 0.605548
13626 1 0.496822 0.381661 0.625484
4 1 0.478403 0.385729 0.620377
13624 1 0.481279 0.385759 0.620795
13625 3 0.489139 0.383734 0.622532
20086 1 0.499428 0.380957 0.626193
6198 1 0.49911 0.403411 0.626527
2442 1 0.496726 0.40421 0.624553
2441 3 0.490984 0.405634 0.619709
8722 1 0.480443 0.422013 0.599315
2440 1 0.486503 0.409132 0.614904
8723 3 0.488661 0.421269 0.604931
8724 1 0.496386 0.420909 0.608439
11625 1 0.499073 0.420685 0.6093
11624 2 0.505946 0.420122 0.612752
11922 1 0.465589 0.217339 0.660781
4451 3 0.484815 0.23379 0.653093
4450 1 0.481172 0.233057 0.659563
350 3 0.492026 0.232241 0.633587
4452 1 0.488031 0.234348 0.64486
349 1 0.489099 0.234166 0.642192
18036 1 0.420265 0.273085 0.640015
18035 3 0.426529 0.269566 0.644834
18034 1 0.433453 0.266279 0.64808
10921 1 0.436267 0.265175 0.649005
3690 1 0.456086 0.276315 0.635151
3689 3 0.464079 0.274359 0.63486
10922 3 0.444149 0.262133 0.651074
3688 1 0.47183 0.271728 0.636101
10923 1 0.45067 0.262073 0.652856
3786 1 0.45323 0.261478 0.653293
3785 3 0.461256 0.260864 0.654399
3784 1 0.469 0.25954 0.653793
9726 1 0.47162 0.258585 0.653746
21137 3 0.46884 0.280903 0.657195
9724 1 0.488272 0.256115 0.655787
13341 1 0.49099 0.255107 0.657229
16186 1 0.47514 0.271449 0.636191
9725 3 0.480329 0.257277 0.653632
16187 3 0.483485 0.270931 0.637293
21434 3 0.50061 0.265968 0.64472
16188 1 0.490517 0.270241 0.639393
21435 1 0.493678 0.26952 0.640382
21138 1 0.476964 0.278611 0.658489
13340 3 0.49736 0.252608 0.660076
18013 1 0.479747 0.277828 0.659056
5745 1 0.504168 0.252247 0.630516
8570 2 0.406072 0.309885 0.647498
8569 1 0.397654 0.312234 0.6484
15622 1 0.424775 0.288562 0.655681
15623 3 0.431976 0.287835 0.655255
10195 1 0.432369 0.306819 0.65095
13701 1 0.435579 0.306997 0.651833
10196 3 0.425019 0.307248 0.649799
10197 1 0.416679 0.307246 0.647287
8571 1 0.413633 0.307537 0.647006
15624 1 0.44022 0.288035 0.654667
114 1 0.442816 0.287652 0.654899
112 1 0.45848 0.285308 0.656186
21136 1 0.461681 0.284087 0.656477
113 3 0.449798 0.286869 0.654582
13700 3 0.444285 0.307215 0.653551
6311 3 0.45858 0.29891 0.631172
6310 1 0.465687 0.297473 0.633553
6919 1 0.468274 0.296715 0.63509
13699 1 0.453218 0.306264 0.656337
20815 1 0.456152 0.305157 0.657538
20816 3 0.464051 0.302533 0.659457
16121 3 0.490878 0.306632 0.632146
6920 3 0.475507 0.295162 0.639469
16122 1 0.497873 0.305148 0.63459
1428 1 0.500879 0.304676 0.635408
6921 1 0.482897 0.294194 0.644254
17952 1 0.485471 0.293004 0.64552
17951 3 0.491929 0.289627 0.648275
17950 1 0.498911 0.286759 0.650075
20692 1 0.500942 0.28615 0.650426
12038 3 0.498561 0.30912 0.653566
12039 1 0.491359 0.31072 0.651569
21024 1 0.488399 0.311529 0.650899
12037 1 0.505772 0.306345 0.655921
21026 2 0.404087 0.337474 0.638522
10797 1 0.394843 0.334423 0.63464
21027 1 0.396853 0.335458 0.635534
10796 3 0.387685 0.331381 0.632176
10324 1 0.430734 0.333089 0.647391
18493 1 0.433149 0.332304 0.64857
18494 3 0.439468 0.331048 0.651871
10325 3 0.423345 0.33467 0.644617
21025 1 0.412547 0.336819 0.641842
10326 1 0.415253 0.336375 0.642888
3332 3 0.439389 0.340509 0.632305
4087 1 0.43868 0.317623 0.632028
20126 3 0.463376 0.317041 0.640742
20127 1 0.456681 0.318543 0.636432
4089 1 0.454474 0.318872 0.635457
4088 3 0.446875 0.318244 0.633372
8635 1 0.463651 0.336846 0.644229
20286 1 0.466382 0.336777 0.645423
18495 1 0.447196 0.32966 0.654961
1120 1 0.449725 0.329126 0.65585
1121 3 0.456902 0.326135 0.658953
8636 3 0.457309 0.338272 0.640772
3331 1 0.446642 0.340406 0.636216
8637 1 0.449554 0.340036 0.637885
20125 1 0.470526 0.315298 0.644199
20285 3 0.473174 0.335585 0.648172
21022 1 0.472683 0.315122 0.645333
15419 3 0.505947 0.327778 0.661609
21023 3 0.480371 0.313065 0.648984
20284 1 0.47957 0.333905 0.650878
14794 1 0.482126 0.3331 0.651728
12641 3 0.482593 0.326468 0.631613
12640 1 0.491336 0.325526 0.63476
17757 1 0.494099 0.32556 0.636091
14795 3 0.489019 0.33193 0.655151
14796 1 0.495524 0.329915 0.657338
15420 1 0.498841 0.32957 0.658653
17756 3 0.501493 0.32583 0.640361
667 1 0.40357 0.347806 0.6583
2578 1 0.418708 0.346001 0.63439
18691 1 0.423194 0.353796 0.650139
18692 3 0.430758 0.355977 0.652595
18693 1 0.437714 0.354329 0.655765
668 3 0.410272 0.346076 0.660935
3024 1 0.461104 0.368592 0.632279
2764 1 0.440546 0.353356 0.657015
3023 3 0.468976 0.367861 0.634116
1160 3 0.449836 0.358821 0.642273
1159 1 0.456352 0.355999 0.646909
14842 1 0.459173 0.355441 0.648266
14843 3 0.466239 0.354166 0.650841
2765 3 0.447982 0.350954 0.660918
1161 1 0.443914 0.362424 0.638613
12068 3 0.503952 0.365428 0.649451
10176 1 0.500188 0.346052 0.645024
14844 1 0.473384 0.354288 0.653928
12263 3 0.475599 0.34919 0.632248
10175 3 0.492964 0.346144 0.639656
10174 1 0.485973 0.347706 0.635564
14260 1 0.4759 0.354337 0.655029
12264 1 0.482879 0.348 0.634255
12067 1 0.495378 0.36593 0.647244
15131 3 0.485124 0.368424 0.642055
15130 1 0.491585 0.366421 0.646048
14261 3 0.483729 0.354258 0.659268
3022 1 0.476696 0.366931 0.636745
15132 1 0.479018 0.366764 0.637582
20446 1 0.503194 0.345741 0.646599
8922 1 0.366041 0.396511 0.631702
3121 1 0.367802 0.396297 0.63411
3122 3 0.371699 0.393582 0.641372
3421 1 0.398926 0.381772 0.660323
5637 1 0.378823 0.391339 0.64951
3123 1 0.376709 0.392128 0.647226
5636 2 0.384519 0.39037 0.656023
5635 1 0.390007 0.390698 0.661226
5373 1 0.406753 0.398355 0.644219
4641 1 0.433802 0.383532 0.630281
64 1 0.436566 0.38382 0.631907
15662 2 0.425251 0.380576 0.651473
15663 1 0.432476 0.377058 0.655344
10996 1 0.434822 0.376527 0.656603
5371 1 0.416629 0.38639 0.648235
15661 1 0.418805 0.384988 0.649183
5372 2 0.41064 0.391082 0.645872
10997 3 0.441961 0.375397 0.659461
65 3 0.444263 0.383335 0.636012
66 1 0.451041 0.383368 0.6405
19518 1 0.453489 0.383289 0.641678
19517 3 0.459706 0.383237 0.646005
19516 1 0.466138 0.382703 0.65029
9861 1 0.468507 0.38206 0.651942
19826 3 0.470278 0.403499 0.654403
14352 1 0.504276 0.385199 0.650886
6197 3 0.505687 0.401964 0.631562
20622 1 0.474378 0.390414 0.635629
19825 1 0.475163 0.399658 0.659378
9860 3 0.473997 0.379495 0.658032
20621 3 0.481735 0.391288 0.639607
20620 1 0.488448 0.390707 0.643315
14350 1 0.491186 0.390295 0.645221
14351 3 0.497391 0.387751 0.648553
11784 1 0.477176 0.398643 0.661271
2651 2 0.413099 0.421094 0.660192
2652 1 0.421192 0.418833 0.660932
19827 1 0.464112 0.408105 0.651554
3781 1 0.461089 0.410222 0.651091
3782 2 0.454582 0.414564 0.649958
3783 1 0.449391 0.421404 0.650851
6191 2 0.472397 0.434154 0.650787
12014 3 0.499145 0.410587 0.658686
18428 3 0.483089 0.419346 0.656586
18427 1 0.490021 0.415899 0.658355
12015 1 0.492061 0.414584 0.658472
6190 1 0.477799 0.428318 0.653013
18429 1 0.479041 0.426376 0.654049
12013 1 0.506046 0.407109 0.660384
6192 1 0.466432 0.439141 0.648105
20445 1 0.502695 0.439444 0.659468
11921 2 0.47088 0.221325 0.664061
11920 1 0.476638 0.224982 0.668936
18070 1 0.478589 0.226642 0.670956
18071 3 0.481729 0.229897 0.677149
18072 1 0.483526 0.232459 0.684638
2494 1 0.483524 0.233391 0.687261
3669 1 0.433687 0.275654 0.668101
5671 1 0.436352 0.280383 0.691373
5672 3 0.429481 0.280788 0.690744
20923 1 0.439801 0.279915 0.691717
3668 3 0.442194 0.274366 0.669898
3667 1 0.449509 0.272637 0.670688
15510 1 0.45222 0.271319 0.670993
15509 3 0.458291 0.267319 0.673209
15508 1 0.464857 0.263916 0.675158
20924 3 0.446829 0.278175 0.69236
14865 1 0.467132 0.262782 0.675521
14864 3 0.472934 0.26098 0.677835
11217 1 0.496933 0.253099 0.684128
21124 1 0.499718 0.252269 0.685907
13339 1 0.505067 0.2511 0.662852
14863 1 0.47971 0.25843 0.679062
11215 1 0.482678 0.257883 0.67959
18014 3 0.486566 0.27542 0.662631
18015 1 0.493957 0.273232 0.664225
11216 3 0.490375 0.255713 0.681106
15717 1 0.49661 0.27219 0.664759
2319 1 0.49898 0.277729 0.685948
15716 3 0.503644 0.270384 0.667047
8164 1 0.501938 0.276754 0.686736
21125 3 0.506609 0.250669 0.689947
2318 3 0.490697 0.279723 0.683654
6267 1 0.401998 0.284509 0.687172
5673 1 0.420739 0.281862 0.689777
6265 1 0.417723 0.282232 0.689584
6266 3 0.410629 0.283133 0.687848
19287 1 0.409937 0.303816 0.670685
19286 3 0.417955 0.301288 0.671346
19285 1 0.424801 0.298254 0.672151
15226 1 0.428224 0.297836 0.67247
15227 3 0.435982 0.295576 0.673841
5996 3 0.409117 0.311827 0.691809
20817 1 0.471936 0.300893 0.662005
15228 1 0.443957 0.294374 0.675058
3493 1 0.463763 0.286367 0.676939
3054 1 0.461112 0.287433 0.676477
3052 1 0.44722 0.293108 0.675362
3053 3 0.45447 0.290177 0.676098
21495 1 0.45934 0.309098 0.681001
10044 1 0.456481 0.310078 0.680225
21494 3 0.466446 0.306892 0.682903
3494 3 0.471509 0.284223 0.679002
21493 1 0.473161 0.3039 0.685014
12419 3 0.505275 0.311943 0.679168
9358 1 0.474821 0.299804 0.662696
12093 1 0.476201 0.30327 0.685439
2317 1 0.482425 0.281761 0.681526
3495 1 0.479817 0.282569 0.680669
12872 3 0.499362 0.29375 0.670284
9359 3 0.482193 0.29647 0.66468
9360 1 0.489333 0.294933 0.666719
12873 1 0.492057 0.294311 0.667821
12092 3 0.484429 0.301708 0.686746
12091 1 0.492061 0.299715 0.688463
18129 1 0.494551 0.299286 0.689279
18128 3 0.500632 0.296288 0.692384
12871 1 0.506223 0.29285 0.674172
17878 1 0.400028 0.316988 0.687338
5995 1 0.402203 0.315231 0.688133
17880 1 0.387303 0.326786 0.683547
17879 2 0.393433 0.321595 0.685107
7950 1 0.427151 0.32254 0.665412
7949 3 0.432415 0.318157 0.670654
12957 1 0.435042 0.338075 0.669228
18264 1 0.437888 0.337227 0.670445
15768 1 0.415038 0.328339 0.682539
15767 3 0.422261 0.327695 0.68539
12956 3 0.427574 0.340919 0.666609
12955 1 0.42004 0.342325 0.665081
669 1 0.417692 0.343039 0.664479
15766 1 0.429038 0.325384 0.687913
10293 1 0.431051 0.324758 0.688937
10292 3 0.437984 0.321849 0.691635
10043 3 0.449161 0.312733 0.677807
7948 1 0.439947 0.316437 0.674229
10042 1 0.443022 0.315416 0.675464
18263 3 0.445571 0.33387 0.674594
1122 1 0.462872 0.323049 0.66242
14830 1 0.465079 0.321966 0.66321
18262 1 0.451761 0.332441 0.678089
4800 1 0.454373 0.331966 0.679289
4799 3 0.46061 0.32948 0.682256
14831 3 0.471564 0.320068 0.666201
4798 1 0.466493 0.328525 0.687535
13741 1 0.468874 0.327825 0.688575
2692 1 0.470362 0.342401 0.671875
18489 1 0.472735 0.341328 0.673433
13742 3 0.476261 0.324941 0.692737
12420 1 0.497814 0.313755 0.675599
12522 1 0.495258 0.314109 0.674306
4334 3 0.49763 0.334024 0.683489
12521 3 0.487968 0.315418 0.670905
14832 1 0.477831 0.318654 0.669383
12520 1 0.480836 0.31737 0.670258
18487 1 0.487301 0.337448 0.680063
4333 1 0.490856 0.336183 0.681076
4335 1 0.5051 0.33053 0.687199
18488 3 0.479606 0.339101 0.67704
21478 1 0.407105 0.349229 0.679823
3025 1 0.431432 0.363277 0.673559
10875 1 0.428639 0.364202 0.672617
3026 3 0.437818 0.360347 0.677092
10874 3 0.421378 0.36656 0.669932
21479 3 0.414581 0.348414 0.684162
21480 1 0.422866 0.346142 0.686747
16197 1 0.425798 0.34567 0.687616
10873 1 0.414045 0.37031 0.666103
3423 1 0.411397 0.372016 0.66495
16196 3 0.433281 0.344201 0.691117
10998 1 0.448525 0.372967 0.662779
12454 1 0.451303 0.371655 0.664251
2766 1 0.455697 0.348998 0.663304
2694 1 0.458345 0.347974 0.664699
2693 3 0.464004 0.344836 0.667794
855 1 0.467223 0.364478 0.671164
3027 1 0.444149 0.356031 0.680864
10470 1 0.446691 0.35464 0.681993
10469 3 0.454463 0.354342 0.685746
12456 1 0.465012 0.365715 0.66998
10468 1 0.461433 0.352943 0.688471
12690 1 0.464119 0.352104 0.689993
12455 3 0.458076 0.369191 0.667606
9688 1 0.45777 0.374021 0.689332
854 3 0.472829 0.362091 0.674812
14262 1 0.491044 0.353256 0.663463
10000 1 0.493612 0.352684 0.664613
853 1 0.478881 0.359511 0.677947
1507 1 0.481647 0.358723 0.679078
1508 3 0.488011 0.357387 0.68295
1509 1 0.495625 0.356012 0.686289
9472 1 0.498238 0.354758 0.687748
10001 3 0.501718 0.351022 0.667687
6816 1 0.499504 0.371768 0.671898
8038 1 0.497202 0.372422 0.670271
8039 3 0.489124 0.373716 0.666232
9473 3 0.504165 0.352111 0.690546
3422 2 0.405296 0.375975 0.662607
13773 1 0.385159 0.399378 0.68361
13771 1 0.400679 0.397087 0.687838
19366 1 0.403361 0.396613 0.689042
13772 2 0.392539 0.398049 0.685893
14797 1 0.409927 0.395823 0.665288
14861 2 0.434869 0.388255 0.674272
14860 1 0.427385 0.391133 0.670074
14799 1 0.424156 0.391694 0.669083
14798 2 0.41643 0.393292 0.667728
1788 1 0.438456 0.405738 0.689149
6643 1 0.424021 0.379438 0.690833
14862 1 0.440969 0.384451 0.677491
11878 1 0.443175 0.383203 0.679122
11880 1 0.455199 0.375479 0.687513
11879 3 0.449002 0.379599 0.682863
4718 3 0.462449 0.3964 0.674732
9298 1 0.452356 0.401895 0.671784
4719 1 0.455416 0.40051 0.672813
9299 2 0.444845 0.405595 0.670301
4717 1 0.468627 0.392253 0.678704
1787 2 0.446005 0.403897 0.691702
10240 1 0.47109 0.390821 0.680356
9859 1 0.479985 0.378321 0.662411
8040 1 0.482393 0.377688 0.663922
11783 3 0.482975 0.39761 0.66589
11782 1 0.489514 0.396953 0.670643
18020 3 0.498341 0.393759 0.677322
10241 3 0.477729 0.387786 0.684624
10242 1 0.483768 0.384532 0.687943
18021 1 0.492061 0.395792 0.67236
4899 1 0.486046 0.383138 0.689583
4898 3 0.492516 0.379347 0.692768
17265 1 0.485735 0.403932 0.691112
14547 1 0.483832 0.405307 0.689985
18019 1 0.505992 0.390639 0.677989
2650 1 0.406171 0.423319 0.662289
12311 2 0.429358 0.414643 0.665217
12310 1 0.423526 0.417732 0.662124
12312 1 0.435684 0.411911 0.667672
9300 1 0.438448 0.410591 0.668612
549 1 0.435473 0.406947 0.688403
547 1 0.421692 0.414034 0.68089
548 2 0.428175 0.409964 0.685389
5409 1 0.439829 0.430062 0.679058
5408 2 0.445478 0.425218 0.679782
5407 1 0.451155 0.42091 0.681982
21255 1 0.453428 0.419637 0.682972
21254 3 0.46103 0.417177 0.684064
21253 1 0.468358 0.413778 0.685474
14545 1 0.471043 0.41277 0.685693
14546 3 0.478031 0.409293 0.686501
20427 1 0.479949 0.428166 0.682851
20426 3 0.47949 0.433629 0.676429
20425 1 0.481555 0.438994 0.670469
10321 1 0.504433 0.2394 0.723991
4572 1 0.499759 0.232625 0.709374
4980 1 0.501385 0.240672 0.723064
2495 3 0.484075 0.235441 0.694995
1949 3 0.477303 0.248656 0.717789
2496 1 0.486511 0.239454 0.702032
4978 1 0.487738 0.247869 0.719204
1950 1 0.484975 0.248416 0.718694
4979 3 0.493924 0.243952 0.72111
4571 3 0.506019 0.229274 0.705216
8844 1 0.415671 0.26055 0.708799
8843 3 0.418238 0.265156 0.713412
20055 1 0.436501 0.263428 0.703563
17402 3 0.430586 0.274881 0.723952
17403 1 0.425605 0.270724 0.719707
8842 1 0.4237 0.269037 0.718286
9204 1 0.46699 0.251294 0.715062
1948 1 0.469832 0.25085 0.716341
9202 1 0.452176 0.255612 0.710458
9203 3 0.459886 0.25265 0.711886
20054 3 0.442531 0.260404 0.706613
20925 1 0.453492 0.275668 0.693484
16459 1 0.456363 0.274393 0.694075
16460 3 0.463684 0.2705 0.69537
20053 1 0.449535 0.256858 0.709778
18329 3 0.470278 0.273046 0.718906
18328 1 0.463005 0.275473 0.715366
17470 1 0.460364 0.276869 0.714497
17471 3 0.452481 0.280363 0.712082
16461 1 0.469122 0.267224 0.697169
16863 1 0.47149 0.265735 0.697781
13824 1 0.50444 0.278271 0.709179
18330 1 0.477335 0.269319 0.722072
16862 3 0.479804 0.262844 0.699431
16861 1 0.487251 0.261091 0.702401
16816 1 0.490306 0.260202 0.703135
16817 3 0.498825 0.259002 0.706545
2856 1 0.501981 0.27918 0.708235
18370 1 0.47973 0.268472 0.723127
16818 1 0.505366 0.256973 0.708748
14602 1 0.418668 0.307534 0.693614
5997 1 0.415582 0.308884 0.693387
14603 3 0.426631 0.304581 0.694698
14604 1 0.433728 0.301896 0.695585
16408 1 0.436648 0.301206 0.695957
17219 3 0.421346 0.300767 0.724409
17220 1 0.426796 0.302614 0.719647
17472 1 0.444509 0.282553 0.709799
2695 1 0.445024 0.309874 0.714396
16409 3 0.444045 0.298911 0.69613
13105 1 0.447213 0.308229 0.715552
2703 1 0.454709 0.29569 0.696796
16410 1 0.451877 0.296875 0.69613
2702 3 0.462209 0.292915 0.697797
2701 1 0.46938 0.289254 0.698702
5466 1 0.47205 0.287989 0.699003
13106 3 0.452556 0.302275 0.716287
13107 1 0.458796 0.297241 0.718514
7117 1 0.461324 0.295688 0.719224
7118 3 0.468443 0.293304 0.721199
18740 3 0.472545 0.309956 0.706482
2723 3 0.505361 0.297506 0.714586
2855 3 0.495177 0.281141 0.705961
7119 1 0.475203 0.291582 0.724452
18741 1 0.47811 0.30645 0.708426
2854 1 0.488577 0.281955 0.703519
5464 1 0.485982 0.282874 0.702872
5465 3 0.478964 0.284682 0.70122
9643 1 0.480646 0.305235 0.708787
9644 3 0.488137 0.302201 0.709238
9645 1 0.495537 0.299882 0.710418
2724 1 0.497903 0.299492 0.711011
13446 1 0.399547 0.337677 0.707889
7860 1 0.396956 0.339488 0.708036
7859 3 0.391153 0.342998 0.71003
13445 3 0.405855 0.332771 0.707979
2696 3 0.438464 0.313596 0.71166
2697 1 0.432345 0.317626 0.7102
13444 1 0.412732 0.327758 0.708675
6334 1 0.429828 0.319536 0.710095
6335 2 0.422157 0.322299 0.710125
6336 1 0.415526 0.325981 0.709696
6095 3 0.44418 0.343053 0.720991
18739 1 0.4653 0.312862 0.703119
16195 1 0.440109 0.342074 0.694872
1353 1 0.463131 0.314031 0.702157
1351 1 0.448479 0.317979 0.695567
1352 3 0.455274 0.316466 0.699768
10291 1 0.445623 0.319182 0.694386
3218 3 0.463394 0.334442 0.710001
3217 1 0.457201 0.33652 0.706353
13255 1 0.455154 0.336972 0.704649
13256 3 0.448845 0.339601 0.70035
13257 1 0.442847 0.341713 0.695934
3219 1 0.470541 0.331876 0.712532
9406 1 0.472945 0.331315 0.713821
10593 1 0.45539 0.319827 0.722415
10592 3 0.463072 0.318635 0.723436
10591 1 0.470689 0.315694 0.724388
6445 1 0.504466 0.319209 0.72278
3094 1 0.506542 0.317923 0.7241
13743 1 0.482607 0.32351 0.6953
7629 1 0.485268 0.322775 0.696527
9407 3 0.480508 0.329693 0.716437
9408 1 0.488026 0.328031 0.717942
10614 1 0.495345 0.339601 0.703951
6447 1 0.490752 0.327114 0.718706
7628 3 0.492254 0.320626 0.698417
6446 3 0.498564 0.32378 0.720802
7627 1 0.499659 0.317643 0.700139
10613 3 0.502294 0.337304 0.707508
3433 1 0.502856 0.316754 0.701256
14866 1 0.492509 0.341105 0.702728
7410 1 0.366783 0.357829 0.71256
7409 3 0.373899 0.354622 0.710143
7408 1 0.381601 0.350255 0.70887
7858 1 0.385186 0.347779 0.709168
8149 1 0.435846 0.344809 0.715105
6096 1 0.437782 0.344415 0.717222
630 1 0.416642 0.366849 0.704385
6644 3 0.429109 0.374624 0.693364
8151 1 0.422241 0.345424 0.707432
8150 3 0.429149 0.344913 0.710902
6645 1 0.434644 0.370408 0.696875
633 1 0.437155 0.369 0.698875
4684 1 0.433899 0.370002 0.718534
7957 1 0.43631 0.368634 0.719816
628 1 0.408738 0.353105 0.706771
629 3 0.413136 0.359293 0.704248
4685 3 0.427256 0.373415 0.71471
12689 3 0.470268 0.349037 0.694065
9689 3 0.463465 0.370469 0.693623
14285 3 0.458237 0.355731 0.710672
14286 1 0.452348 0.358845 0.706321
631 1 0.45002 0.360095 0.704885
632 3 0.443144 0.364766 0.702346
14284 1 0.463887 0.354135 0.714242
12490 1 0.466758 0.353359 0.716141
9690 1 0.46928 0.368012 0.698269
16066 1 0.47164 0.367272 0.700177
7958 3 0.442387 0.364943 0.722722
8721 1 0.504492 0.356169 0.714825
17067 1 0.501975 0.374122 0.69526
12688 1 0.476819 0.347012 0.696074
14867 3 0.486337 0.344593 0.699428
14868 1 0.47944 0.346322 0.697116
16067 3 0.478385 0.365833 0.704639
18651 1 0.50213 0.356687 0.713741
18650 3 0.495106 0.35915 0.710686
12491 3 0.474114 0.352038 0.720253
18649 1 0.488363 0.362372 0.707868
16068 1 0.485452 0.363755 0.706807
12492 1 0.482248 0.349665 0.723641
11580 1 0.401689 0.383156 0.712335
11579 2 0.409775 0.379863 0.712216
14507 3 0.427951 0.39313 0.702716
14506 1 0.435356 0.391943 0.706861
14508 1 0.420431 0.393341 0.699951
19368 1 0.418057 0.393715 0.698721
11578 1 0.417889 0.376916 0.712389
4686 1 0.420885 0.376108 0.713318
16009 1 0.437226 0.391264 0.707999
19367 2 0.410402 0.395271 0.693733
20838 1 0.456068 0.402193 0.696277
1786 1 0.453008 0.402782 0.694395
20837 3 0.462947 0.398566 0.698401
16010 3 0.443975 0.389516 0.710901
16011 1 0.449851 0.386259 0.713947
14073 1 0.452412 0.384737 0.71494
14072 3 0.458687 0.380744 0.717624
14071 1 0.46499 0.378815 0.721895
20842 1 0.467488 0.37816 0.723479
20836 1 0.46955 0.394077 0.700911
16453 1 0.471663 0.392299 0.702081
11635 1 0.501294 0.396665 0.700238
17264 3 0.491722 0.401338 0.696506
4897 1 0.499429 0.375824 0.694472
16454 3 0.478258 0.388311 0.705266
16455 1 0.484379 0.384556 0.709837
612 1 0.486338 0.383667 0.710461
610 1 0.499327 0.378383 0.716245
611 3 0.492486 0.380826 0.713649
10770 1 0.501697 0.37766 0.717751
6287 3 0.486366 0.399377 0.72275
6288 1 0.479455 0.403925 0.72146
17263 1 0.498472 0.397961 0.699173
6286 1 0.493783 0.396221 0.724581
19048 1 0.476884 0.405532 0.720588
5447 3 0.503553 0.394511 0.724478
6612 1 0.445957 0.413379 0.720506
19049 3 0.469648 0.409593 0.71836
19050 1 0.461924 0.412182 0.716306
21062 3 0.502119 0.242715 0.746561
21061 1 0.495628 0.246333 0.744161
7107 1 0.492589 0.247529 0.743043
17401 1 0.438414 0.279832 0.724745
12795 1 0.442768 0.261753 0.726978
12793 1 0.457168 0.259718 0.732631
12794 3 0.450133 0.260741 0.730008
17722 1 0.459452 0.259271 0.733432
20703 1 0.468515 0.277016 0.741134
17723 3 0.468104 0.257478 0.734888
11550 1 0.470482 0.276543 0.742038
20702 3 0.461534 0.279695 0.738257
15609 1 0.50417 0.263886 0.754424
3033 1 0.501379 0.265604 0.753581
7106 3 0.486517 0.250873 0.740694
17724 1 0.475923 0.255234 0.737551
3032 3 0.493764 0.268724 0.751045
11549 3 0.47705 0.273724 0.744672
7105 1 0.478718 0.254421 0.738634
18371 3 0.487379 0.265088 0.725412
3031 1 0.486697 0.270589 0.749001
13417 1 0.497479 0.261522 0.728848
18372 1 0.494804 0.262499 0.727671
11548 1 0.483954 0.271293 0.748106
13418 3 0.503966 0.258991 0.732793
15565 1 0.432248 0.301436 0.754631
7146 1 0.429981 0.302958 0.753911
7144 1 0.417093 0.311559 0.751012
17218 1 0.41636 0.299937 0.731602
7145 2 0.423983 0.306969 0.752567
4825 1 0.440886 0.292014 0.726376
4826 3 0.447 0.287725 0.729964
16920 1 0.464544 0.301562 0.739797
16919 3 0.458207 0.305312 0.737824
20701 1 0.455718 0.28319 0.735139
4827 1 0.45339 0.284349 0.733334
16918 1 0.451832 0.307526 0.734532
20025 1 0.448633 0.308413 0.733916
20024 3 0.441619 0.311543 0.732313
17245 1 0.467367 0.30053 0.741032
9883 1 0.505534 0.300358 0.744986
11612 3 0.491844 0.292776 0.75421
17246 3 0.475126 0.299255 0.74465
16026 1 0.478329 0.29082 0.72542
11613 1 0.485081 0.296073 0.750039
17247 1 0.482725 0.29699 0.748831
16024 1 0.492526 0.286595 0.729865
16025 3 0.485482 0.288091 0.727215
7955 3 0.496542 0.304678 0.739505
7864 1 0.495383 0.285611 0.73094
7865 3 0.50198 0.28235 0.734495
7954 1 0.502926 0.301634 0.743797
7956 1 0.490325 0.307253 0.73325
11334 1 0.48814 0.308668 0.731537
11333 3 0.481839 0.312037 0.727813
20023 1 0.433735 0.313654 0.72944
6094 1 0.450654 0.341617 0.725496
8487 1 0.453459 0.340839 0.726609
8485 1 0.466907 0.335223 0.734412
2698 1 0.468964 0.334472 0.735426
8486 3 0.459726 0.338009 0.730145
11332 1 0.473745 0.314601 0.725278
2699 3 0.474474 0.331527 0.739215
18927 1 0.498696 0.324279 0.749815
18926 2 0.491332 0.325839 0.746287
18925 1 0.484855 0.329045 0.744345
2700 1 0.482014 0.329748 0.743183
4621 1 0.501932 0.323756 0.750714
2379 1 0.500763 0.343112 0.733601
7959 1 0.449832 0.362764 0.725724
75 1 0.463242 0.358256 0.738062
7755 1 0.465649 0.357276 0.739909
7754 3 0.471105 0.355113 0.743848
74 3 0.457775 0.360155 0.732517
73 1 0.45222 0.362081 0.727337
13750 1 0.492462 0.344045 0.754974
2113 1 0.484765 0.348207 0.725264
20844 1 0.480778 0.373749 0.730001
13751 2 0.487021 0.346896 0.750888
2115 1 0.498737 0.344296 0.732767
12032 3 0.505318 0.362655 0.74261
6118 1 0.483288 0.372601 0.731678
2114 3 0.491931 0.346259 0.729833
7753 1 0.477074 0.351755 0.747743
13752 1 0.479125 0.350795 0.748984
12033 1 0.499119 0.36624 0.739425
6120 1 0.496465 0.367113 0.737705
6119 3 0.49046 0.370151 0.73525
17806 1 0.452367 0.397307 0.730306
6610 1 0.451387 0.399845 0.728306
7998 1 0.471258 0.394042 0.752895
7622 3 0.456569 0.380055 0.752
17807 3 0.452803 0.391174 0.736015
7621 1 0.455184 0.385264 0.745579
17808 1 0.454416 0.387176 0.742754
18358 1 0.471792 0.392455 0.749926
18359 3 0.473166 0.386929 0.743487
13404 1 0.497506 0.388793 0.741498
13403 3 0.5044 0.385807 0.743746
20843 3 0.47458 0.375658 0.726771
5446 1 0.496414 0.395491 0.725127
18360 1 0.475255 0.382346 0.73731
6611 3 0.448992 0.406475 0.724815
5510 3 0.503864 0.247634 0.769583
14040 1 0.459412 0.27992 0.761407
16514 3 0.465865 0.271022 0.76329
16513 1 0.470305 0.264768 0.764334
16515 1 0.461448 0.2773 0.7616
5511 1 0.49857 0.25354 0.771209
5216 3 0.490804 0.260856 0.772279
5215 1 0.496639 0.255078 0.771452
14976 1 0.487242 0.271421 0.77159
5217 1 0.488301 0.268704 0.771969
14975 3 0.48464 0.279173 0.768759
15566 3 0.438427 0.296817 0.756823
14248 1 0.46397 0.30365 0.761342
14249 3 0.471742 0.301011 0.764165
14039 3 0.453578 0.285663 0.759999
15567 1 0.445032 0.292948 0.757726
14038 1 0.447455 0.291052 0.757622
14974 1 0.480105 0.284734 0.764586
19445 3 0.502317 0.294793 0.785589
14250 1 0.479071 0.299837 0.767972
18876 1 0.481568 0.299377 0.769566
18875 3 0.488037 0.298579 0.77555
18874 1 0.493906 0.298055 0.78003
19444 1 0.496028 0.297781 0.781882
11611 1 0.497899 0.289112 0.758256
18453 1 0.500253 0.287958 0.760367