ITEM: TIMESTEP
30000000
ITEM: NUMBER OF ENTRIES
2345
ITEM: BOX BOUNDS pp pp pp
0 50
0 50
0 50
ITEM: ENTRIES c_binfo[1] c_binfo[2] c_binfo[3] 
3 7525 7526 
3 7526 7527 
1 7527 15763 
3 15763 15764 
2 10574 10575 
2 10573 10574 
1 10573 12858 
2 2980 2981 
1 2982 19708 
2 2981 2982 
2 12857 12858 
2 12856 12857 
1 12856 20992 
3 20992 20993 
2 18125 18126 
2 9946 9947 
2 9947 9948 
3 10126 10127 
3 10127 10128 
1 1500 10128 
3 10648 10649 
1 10648 18124 
2 18124 18125 
3 10649 10650 
1 10650 15756 
1 9948 13080 
3 13079 13080 
3 13078 13079 
1 13078 21349 
3 21349 21350 
3 15764 15765 
2 18088 18089 
2 18089 18090 
3 5980 5981 
1 561 2731 
3 5981 5982 
1 1635 5982 
3 1634 1635 
3 560 561 
3 2731 2732 
3 16621 16622 
3 16622 16623 
3 6808 6809 
3 559 560 
1 559 6808 
2 20162 20163 
1 6810 20163 
3 6809 6810 
1 1551 16623 
3 9524 9525 
3 9523 9524 
1 4077 9523 
2 20161 20162 
3 19708 19709 
3 19709 19710 
2 10553 10554 
2 10552 10553 
3 7871 7872 
3 7870 7871 
1 7870 15043 
3 15043 15044 
1 4293 10554 
3 4292 4293 
3 4291 4292 
1 4291 21160 
3 21160 21161 
3 21161 21162 
3 20993 20994 
3 15044 15045 
1 15045 16120 
3 17938 17939 
1 17938 20994 
3 17939 17940 
1 17940 19117 
3 19117 19118 
3 16120 16121 
3 10795 10796 
3 2420 2421 
3 2419 2420 
1 2419 14293 
3 14293 14294 
3 1499 1500 
3 14294 14295 
1 14295 16549 
3 16549 16550 
3 16550 16551 
3 15755 15756 
3 15754 15755 
3 9065 9066 
3 1498 1499 
1 1498 9064 
3 9064 9065 
3 12175 12176 
1 9066 12175 
3 8782 8783 
1 8782 15754 
1 8784 10557 
3 8783 8784 
1 12642 16551 
3 21350 21351 
3 12176 12177 
3 10556 10557 
3 2579 2580 
3 6577 6578 
1 6577 18090 
3 13591 13592 
3 6578 6579 
1 6579 10339 
3 10339 10340 
3 13592 13593 
3 10340 10341 
1 10341 12262 
3 12262 12263 
1 741 13593 
3 740 741 
3 739 740 
1 276 739 
3 275 276 
3 1633 1634 
1 1633 8968 
3 274 275 
1 274 8646 
3 8968 8969 
3 11828 11829 
3 8921 8922 
3 8920 8921 
2 3248 3249 
2 3247 3248 
2 4640 4641 
2 4639 4640 
3 5 6 
3 10163 10164 
3 10162 10163 
3 1550 1551 
3 1549 1550 
1 1549 11827 
3 11827 11828 
1 13626 20086 
3 4 5 
1 4 13624 
3 13624 13625 
3 13625 13626 
3 20086 20087 
1 2442 6198 
3 2441 2442 
3 8722 8723 
3 2440 2441 
3 8723 8724 
1 8724 11625 
2 11624 11625 
3 4451 4452 
3 4450 4451 
3 350 351 
3 349 350 
1 349 4452 
3 18035 18036 
3 18034 18035 
3 10921 10922 
1 10921 18034 
3 3689 3690 
3 10922 10923 
3 3688 3689 
1 3688 16186 
1 3786 10923 
3 3785 3786 
3 3784 3785 
1 3784 9726 
3 21137 21138 
3 9724 9725 
1 9724 13341 
3 16186 16187 
3 9725 9726 
3 16187 16188 
3 21434 21435 
1 16188 21435 
3 13340 13341 
3 18013 18014 
1 18013 21138 
2 8570 8571 
2 8569 8570 
3 15622 15623 
3 15623 15624 
3 10195 10196 
1 10195 13701 
3 10196 10197 
1 8571 10197 
1 114 15624 
3 112 113 
1 112 21136 
3 21136 21137 
3 113 114 
3 13700 13701 
3 6311 6312 
3 6310 6311 
1 6310 6919 
3 6919 6920 
3 13699 13700 
1 13699 20815 
3 20815 20816 
3 20816 20817 
3 16121 16122 
3 6920 6921 
1 1428 16122 
1 6921 17952 
3 17951 17952 
3 17950 17951 
1 17950 20692 
3 20692 20693 
3 12038 12039 
1 12039 21024 
3 12037 12038 
1 12037 18843 
2 21026 21027 
1 10797 21027 
3 10796 10797 
3 10324 10325 
1 10324 18493 
3 18493 18494 
3 18494 18495 
3 10325 10326 
2 21025 21026 
1 10326 21025 
3 3332 3333 
3 4087 4088 
3 20126 20127 
1 4089 20127 
3 4088 4089 
3 8635 8636 
1 8635 20286 
3 1120 1121 
1 1120 18495 
3 1121 1122 
3 8636 8637 
3 3331 3332 
1 3331 8637 
3 20125 20126 
1 20125 21022 
3 20285 20286 
3 21022 21023 
3 15419 15420 
3 21023 21024 
3 20284 20285 
3 14794 14795 
1 14794 20284 
3 12641 12642 
3 12640 12641 
1 12640 17757 
3 14795 14796 
1 14796 15420 
3 17756 17757 
3 667 668 
3 2578 2579 
3 18691 18692 
3 18692 18693 
3 668 669 
3 2764 2765 
1 2764 18693 
3 3023 3024 
3 1160 1161 
3 1159 1160 
1 1159 14842 
3 14842 14843 
3 14843 14844 
3 2765 2766 
3 12068 12069 
1 10176 20446 
3 12263 12264 
3 10175 10176 
3 10174 10175 
1 10174 12264 
3 14260 14261 
1 14260 14844 
3 12067 12068 
1 12067 15130 
3 15131 15132 
3 15130 15131 
3 14261 14262 
3 3022 3023 
1 3022 15132 
3 20446 20447 
3 3121 3122 
1 3121 8922 
3 3122 3123 
2 3421 3422 
1 3123 5637 
2 5636 5637 
2 5635 5636 
3 64 65 
1 64 4641 
2 15662 15663 
3 10996 10997 
1 10996 15663 
2 5371 5372 
1 5371 15661 
2 15661 15662 
2 5372 5373 
3 10997 10998 
3 65 66 
1 66 19518 
3 19517 19518 
3 19516 19517 
1 9861 19516 
3 19826 19827 
1 14352 15145 
3 6197 6198 
3 19825 19826 
3 9860 9861 
3 20621 20622 
3 20620 20621 
3 14350 14351 
1 14350 20620 
3 14351 14352 
1 11784 19825 
2 2651 2652 
1 2652 12310 
2 3781 3782 
1 3781 19827 
2 3782 3783 
2 6191 6192 
3 12014 12015 
3 18428 18429 
3 18427 18428 
1 12015 18427 
2 6190 6191 
1 6190 18429 
3 12013 12014 
2 11921 11922 
2 11920 11921 
1 11920 18070 
3 18070 18071 
3 18071 18072 
3 2494 2495 
1 2494 18072 
3 5671 5672 
1 5671 20923 
3 5672 5673 
3 20923 20924 
3 3668 3669 
3 3667 3668 
1 3667 15510 
3 15509 15510 
3 15508 15509 
3 20924 20925 
1 14865 15508 
3 14864 14865 
1 11217 21124 
3 21124 21125 
3 13339 13340 
3 14863 14864 
3 11215 11216 
1 11215 14863 
3 18014 18015 
3 11216 11217 
1 15717 18015 
1 2319 8164 
3 15716 15717 
3 8164 8165 
3 21125 21126 
3 2318 2319 
1 5673 6265 
3 6265 6266 
3 6266 6267 
3 19286 19287 
3 19285 19286 
3 15226 15227 
1 15226 19285 
3 15227 15228 
3 5996 5997 
3 3493 3494 
1 3054 3493 
3 3052 3053 
1 3052 15228 
3 3053 3054 
1 10044 21495 
3 21494 21495 
3 3494 3495 
3 21493 21494 
3 12419 12420 
3 9358 9359 
1 9358 20817 
1 12093 21493 
3 2317 2318 
1 2317 3495 
3 12872 12873 
3 9359 9360 
1 9360 12873 
3 12092 12093 
3 12091 12092 
1 12091 18129 
3 18128 18129 
3 12871 12872 
1 12871 17511 
2 17878 17879 
3 5995 5996 
1 5995 17878 
2 17879 17880 
3 7949 7950 
1 12957 18264 
3 15767 15768 
3 12956 12957 
3 12955 12956 
1 669 12955 
3 15766 15767 
1 10293 15766 
3 10292 10293 
3 10043 10044 
3 7948 7949 
1 7948 10042 
3 10042 10043 
3 18263 18264 
1 1122 14830 
3 14830 14831 
3 18262 18263 
1 4800 18262 
3 4799 4800 
3 14831 14832 
3 4798 4799 
1 4798 13741 
3 13741 13742 
3 2692 2693 
1 2692 18489 
3 13742 13743 
1 12420 12522 
3 4334 4335 
3 12521 12522 
3 12520 12521 
1 12520 14832 
3 18487 18488 
3 4333 4334 
1 4333 18487 
1 4335 7545 
3 18488 18489 
3 21478 21479 
3 3025 3026 
1 3025 10875 
3 3026 3027 
3 10874 10875 
3 21479 21480 
1 16197 21480 
3 10873 10874 
1 3423 10873 
3 16196 16197 
1 10998 12454 
3 12454 12455 
1 2694 2766 
3 2693 2694 
1 855 12456 
1 3027 10470 
3 10469 10470 
3 10468 10469 
1 10468 12690 
3 12455 12456 
3 9688 9689 
1 9688 11880 
3 854 855 
3 10000 10001 
1 10000 14262 
3 853 854 
1 853 1507 
3 1507 1508 
3 1508 1509 
1 1509 9472 
3 9472 9473 
3 10001 10002 
1 6816 8038 
3 8038 8039 
3 8039 8040 
3 9473 9474 
2 3422 3423 
2 13771 13772 
1 13771 19366 
2 19366 19367 
2 13772 13773 
2 14797 14798 
2 14861 14862 
2 14860 14861 
1 14799 14860 
2 14798 14799 
3 6643 6644 
3 11878 11879 
1 11878 14862 
3 11879 11880 
3 4718 4719 
2 9298 9299 
1 4719 9298 
2 9299 9300 
3 4717 4718 
1 4717 10240 
2 1787 1788 
3 10240 10241 
3 9859 9860 
1 8040 9859 
3 11783 11784 
3 11782 11783 
1 11782 18021 
3 18020 18021 
3 10241 10242 
1 4899 10242 
3 4898 4899 
1 14547 17265 
3 18019 18020 
2 2650 2651 
2 12311 12312 
2 12310 12311 
1 9300 12312 
1 549 1788 
2 547 548 
2 548 549 
2 5408 5409 
2 5407 5408 
1 5407 21255 
3 21254 21255 
3 21253 21254 
3 14545 14546 
1 14545 21253 
3 14546 14547 
3 20426 20427 
3 20425 20426 
3 10321 10322 
1 4980 10321 
3 2495 2496 
3 1949 1950 
3 4978 4979 
1 1950 4978 
3 4979 4980 
3 4571 4572 
3 8843 8844 
3 17402 17403 
3 8842 8843 
1 8842 17403 
3 1948 1949 
1 1948 9204 
3 9202 9203 
1 9202 20053 
3 9203 9204 
3 20054 20055 
3 16459 16460 
1 16459 20925 
3 16460 16461 
3 20053 20054 
3 18329 18330 
3 18328 18329 
3 17470 17471 
1 17470 18328 
3 17471 17472 
1 16461 16863 
1 18330 18370 
3 16862 16863 
3 16861 16862 
3 16816 16817 
1 16816 16861 
3 16817 16818 
1 2856 13824 
3 18370 18371 
1 16818 20454 
3 14602 14603 
1 5997 14602 
3 14603 14604 
1 14604 16408 
3 16408 16409 
3 17219 17220 
3 2695 2696 
1 2695 13105 
3 16409 16410 
3 13105 13106 
1 2703 16410 
3 2702 2703 
3 2701 2702 
1 2701 5466 
3 13106 13107 
3 7117 7118 
1 7117 13107 
3 7118 7119 
3 18740 18741 
3 2723 2724 
3 2855 2856 
1 7119 16026 
3 2854 2855 
1 2854 5464 
3 5464 5465 
3 5465 5466 
3 9643 9644 
1 9643 18741 
3 9644 9645 
1 2724 9645 
1 7860 13446 
3 7859 7860 
3 13445 13446 
3 2696 2697 
1 2697 6334 
3 13444 13445 
2 6334 6335 
2 6335 6336 
1 6336 13444 
3 6095 6096 
3 18739 18740 
3 16195 16196 
1 1353 18739 
3 1351 1352 
1 1351 10291 
3 1352 1353 
3 10291 10292 
3 3218 3219 
3 3217 3218 
1 3217 13255 
3 13255 13256 
3 13256 13257 
1 13257 16195 
1 3219 9406 
3 9406 9407 
3 10592 10593 
3 10591 10592 
1 10591 11332 
3 6445 6446 
3 3094 3095 
1 3094 6445 
1 7629 13743 
3 9407 9408 
1 10614 14866 
1 6447 9408 
3 7628 7629 
3 6446 6447 
3 7627 7628 
3 10613 10614 
3 3433 3434 
1 3433 7627 
3 14866 14867 
3 7409 7410 
3 7408 7409 
1 7408 7858 
3 7858 7859 
3 8149 8150 
1 6096 8149 
3 6644 6645 
3 8150 8151 
1 633 6645 
3 4684 4685 
1 4684 7957 
3 7957 7958 
3 628 629 
3 629 630 
3 4685 4686 
3 12689 12690 
3 9689 9690 
3 14285 14286 
3 631 632 
1 631 14286 
3 632 633 
3 14284 14285 
3 12490 12491 
1 12490 14284 
1 9690 16066 
3 16066 16067 
3 7958 7959 
1 8721 18651 
3 12688 12689 
1 12688 14868 
3 14867 14868 
3 16067 16068 
3 18650 18651 
3 12491 12492 
3 18649 18650 
1 16068 18649 
2 11579 11580 
3 14507 14508 
3 14506 14507 
1 14506 16009 
1 14508 19368 
2 11578 11579 
1 4686 11578 
3 16009 16010 
2 19367 19368 
2 1786 1787 
1 1786 20838 
3 20837 20838 
3 16010 16011 
1 14073 16011 
3 14072 14073 
3 14071 14072 
1 14071 20842 
3 20842 20843 
3 20836 20837 
3 16453 16454 
1 16453 20836 
3 11635 11636 
1 11635 17263 
3 17264 17265 
3 4897 4898 
1 4897 17067 
3 16454 16455 
1 612 16455 
3 610 611 
1 610 10770 
3 611 612 
3 6287 6288 
1 6288 19048 
3 17263 17264 
3 6286 6287 
3 19048 19049 
3 5447 5448 
3 19049 19050 
3 21062 21063 
3 21061 21062 
1 7107 21061 
3 17401 17402 
3 12793 12794 
1 12793 17722 
3 12794 12795 
3 17722 17723 
3 17723 17724 
1 11550 20703 
3 20702 20703 
1 3033 15609 
3 7106 7107 
3 3032 3033 
3 11549 11550 
3 7105 7106 
1 7105 17724 
3 18371 18372 
3 3031 3032 
1 3031 11548 
3 13417 13418 
1 13417 18372 
3 11548 11549 
3 13418 13419 
3 15565 15566 
1 7146 15565 
2 7144 7145 
3 17218 17219 
2 7145 7146 
3 4825 4826 
3 4826 4827 
1 16920 17245 
3 16919 16920 
3 20701 20702 
1 4827 20701 
3 16918 16919 
1 16918 20025 
3 20024 20025 
3 17245 17246 
3 9883 9884 
3 11612 11613 
3 17246 17247 
1 11613 17247 
3 16024 16025 
3 16025 16026 
3 7955 7956 
3 7864 7865 
1 7864 16024 
3 7865 7866 
3 7954 7955 
1 7954 9883 
1 7956 11334 
3 11333 11334 
3 20023 20024 
3 6094 6095 
1 6094 8487 
3 8485 8486 
3 2698 2699 
1 2698 8485 
3 8486 8487 
3 11332 11333 
3 2699 2700 
2 18926 18927 
2 18925 18926 
1 2700 18925 
3 4621 4622 
1 4621 18927 
1 75 7755 
3 7754 7755 
3 74 75 
3 73 74 
1 73 7959 
2 13750 13751 
3 2113 2114 
1 2113 12492 
2 13751 13752 
1 2115 2379 
3 12032 12033 
3 6118 6119 
1 6118 20844 
3 2114 2115 
3 7753 7754 
1 7753 13752 
1 6120 12033 
3 6119 6120 
3 17806 17807 
3 6610 6611 
1 6610 17806 
1 7998 18358 
3 7622 7623 
3 17807 17808 
3 7621 7622 
1 7621 17808 
3 18358 18359 
3 18359 18360 
3 13403 13404 
3 20843 20844 
3 5446 5447 
1 5446 6286 
3 6611 6612 
3 5510 5511 
1 14040 16515 
3 16514 16515 
3 16513 16514 
3 5216 5217 
3 5215 5216 
1 5215 5511 
1 5217 14976 
3 14975 14976 
3 15566 15567 
3 14248 14249 
3 14249 14250 
3 14039 14040 
3 14038 14039 
1 14038 15567 
3 14974 14975 
3 19445 19446 
1 14250 18876 
3 18875 18876 
3 18874 18875 
1 18874 19444 
3 19444 19445 
3 11611 11612 
1 11611 18453 
3 18452 18453 
3 12154 12155 
3 344 345 
3 1604 1605 
1 345 9079 
3 12155 12156 
3 1603 1604 
3 9079 9080 
3 343 344 
1 343 19539 
1 4599 18001 
3 14893 14894 
3 11428 11429 
1 11428 14893 
3 11429 11430 
2 4598 4599 
3 19537 19538 
2 4597 4598 
1 4597 13750 
1 11430 19537 
3 18001 18002 
3 19538 19539 
1 9081 20331 
2 20329 20330 
2 20330 20331 
3 95 96 
2 9292 9293 
3 94 95 
1 94 7623 
3 9080 9081 
3 7997 7998 
3 7996 7997 
3 3127 3128 
3 3128 3129 
3 18803 18804 
2 14089 14090 
1 14089 18804 
2 14090 14091 
3 18802 18803 
2 9293 9294 
1 9294 17734 
3 17734 17735 
3 17735 17736 
2 12442 12443 
1 12442 17736 
2 12443 12444 
2 7915 7916 
2 7916 7917 
2 10619 10620 
1 5832 10618 
2 10618 10619 
1 7917 15021 
2 15020 15021 
2 15019 15020 
1 6420 15019 
3 3125 3126 
3 3124 3125 
1 3124 16929 
3 16928 16929 
3 21487 21488 
3 16927 16928 
3 21488 21489 
3 1537 1538 
3 13063 13064 
1 13063 15765 
3 13064 13065 
1 3909 13065 
3 3908 3909 
1 20244 21351 
3 20243 20244 
3 5831 5832 
3 5830 5831 
3 3907 3908 
1 3907 4059 
3 4058 4059 
3 4057 4058 
1 4057 4713 
3 1538 1539 
3 20182 20183 
1 17844 20184 
2 17843 17844 
2 17842 17843 
3 12334 12335 
1 12334 17842 
3 20183 20184 
3 12335 12336 
3 4873 4874 
3 4874 4875 
3 8969 8970 
3 2732 2733 
3 9493 9494 
1 9493 15916 
3 15916 15917 
3 9494 9495 
3 4075 4076 
1 4075 9495 
3 15917 15918 
2 1768 1769 
1 1768 15918 
2 1769 1770 
1 1770 11866 
3 4076 4077 
3 5744 5745 
3 6419 6420 
3 14225 14226 
3 6418 6419 
1 6418 12948 
3 12947 12948 
3 14224 14225 
2 21034 21035 
2 21035 21036 
3 12946 12947 
3 563 564 
1 2817 12946 
3 562 563 
1 562 15394 
3 2020 2021 
1 2020 19710 
3 8611 8612 
1 8611 21162 
3 2021 2022 
3 8612 8613 
1 2022 9508 
3 9508 9509 
3 9509 9510 
3 11692 11693 
1 9510 16825 
3 11693 11694 
3 16825 16826 
3 16826 16827 
3 16663 16664 
1 16663 16827 
1 13227 18223 
3 18223 18224 
3 18224 18225 
3 13225 13226 
3 16664 16665 
1 1980 16665 
3 1979 1980 
3 1978 1979 
1 1978 8590 
2 8590 8591 
1 4413 8592 
3 4411 4412 
3 4412 4413 
2 8591 8592 
3 1427 1428 
3 19118 19119 
3 19679 19680 
3 19678 19679 
1 19119 19678 
1 2247 5251 
3 5251 5252 
3 5252 5253 
1 5253 12177 
1 18225 19680 
3 2246 2247 
3 13226 13227 
3 2216 2217 
1 8847 21489 
3 8846 8847 
3 8845 8846 
1 1842 8845 
3 1841 1842 
3 2245 2246 
3 2215 2216 
1 2215 2245 
3 16345 16346 
1 16345 18202 
3 9562 9563 
1 9562 19329 
3 1840 1841 
1 1840 19668 
3 9563 9564 
3 19666 19667 
3 19667 19668 
3 16346 16347 
3 12848 12849 
1 12849 18735 
3 18734 18735 
3 12847 12848 
3 13097 13098 
1 240 6594 
3 239 240 
3 6593 6594 
3 6592 6593 
3 10555 10556 
1 10555 18238 
1 2658 18240 
3 4735 4736 
1 4735 8970 
3 4736 4737 
3 20242 20243 
3 14140 14141 
1 14140 20242 
3 18239 18240 
3 18238 18239 
1 4737 16288 
3 16288 16289 
3 14141 14142 
3 2657 2658 
3 2656 2657 
1 12327 18204 
3 16289 16290 
3 12326 12327 
3 15652 15653 
1 15652 16290 
3 12325 12326 
1 12325 14142 
3 15653 15654 
1 1824 2656 
3 16129 16130 
1 15654 16129 
3 4712 4713 
3 18202 18203 
3 18203 18204 
3 4711 4712 
1 4711 18588 
3 18587 18588 
3 18586 18587 
1 1965 18586 
3 1964 1965 
1 6924 15264 
3 1963 1964 
1 1963 18733 
3 18733 18734 
3 19451 19452 
3 19450 19451 
1 12336 19450 
3 2554 2555 
1 2554 19452 
3 6478 6479 
1 6478 15168 
1 4875 6480 
3 6479 6480 
3 2555 2556 
3 17329 17330 
1 17329 20088 
3 20087 20088 
1 1584 8644 
3 1583 1584 
3 8644 8645 
1 11829 17727 
3 8645 8646 
3 17725 17726 
3 17726 17727 
1 3240 17725 
3 1696 1697 
1 429 1696 
3 11866 11867 
3 3239 3240 
1 1698 3238 
3 3238 3239 
3 1697 1698 
3 16970 16971 
3 17783 17784 
1 9 11868 
1 16971 17784 
3 8 9 
3 11867 11868 
3 6922 6923 
3 7 8 
1 7 6922 
3 6923 6924 
3 6371 6372 
3 6196 6197 
1 14814 17142 
3 5138 5139 
3 14812 14813 
3 5137 5138 
3 14813 14814 
1 6372 14812 
3 3424 3425 
1 3424 5137 
3 3425 3426 
3 6370 6371 
3 17140 17141 
3 17141 17142 
1 2166 17140 
3 17782 17783 
3 1745 1746 
3 5743 5744 
1 3585 13339 
3 1744 1745 
1 1744 14224 
3 11449 11450 
3 11450 11451 
3 8851 8852 
1 8851 19194 
3 15395 15396 
1 9810 15396 
3 9809 9810 
3 9808 9809 
1 9808 13008 
3 8852 8853 
3 15394 15395 
3 21433 21434 
1 6615 8613 
3 1732 1733 
1 1732 11989 
3 11989 11990 
3 11990 11991 
3 1733 1734 
3 20155 20156 
1 20155 20755 
3 6614 6615 
1 1734 21433 
3 2815 2816 
3 2816 2817 
1 11991 19192 
3 19192 19193 
3 6613 6614 
1 6613 17004 
3 19193 19194 
3 17003 17004 
3 17002 17003 
3 9928 9929 
1 9928 17002 
3 20156 20157 
3 5434 5435 
1 5434 20157 
3 9929 9930 
1 9930 13335 
3 13333 13334 
3 13334 13335 
3 19327 19328 
1 4221 13333 
2 4220 4221 
2 11366 11367 
2 4219 4220 
1 4219 11365 
2 11365 11366 
3 17122 17123 
3 13501 13502 
3 13502 13503 
3 2749 2750 
1 2749 13503 
3 3584 3585 
3 3583 3584 
1 3583 15366 
1 14697 21126 
3 15365 15366 
3 14696 14697 
3 15364 15365 
1 2751 15364 
3 14695 14696 
1 14695 15520 
3 15520 15521 
3 17123 17124 
3 2750 2751 
3 16417 16418 
3 16418 16419 
1 6609 13695 
3 13694 13695 
2 13007 13008 
2 13006 13007 
2 20885 20886 
3 7459 7460 
1 7459 11367 
3 7460 7461 
3 8165 8166 
3 3712 3713 
1 3712 15715 
3 3713 3714 
1 3714 19456 
3 19456 19457 
1 1845 8166 
3 1844 1845 
3 15715 15716 
1 6912 15174 
3 19457 19458 
3 6910 6911 
1 10368 13693 
3 10366 10367 
1 10366 19458 
3 10367 10368 
3 5435 5436 
3 13693 13694 
3 1294 1295 
1 1294 6910 
1 5436 20860 
3 20860 20861 
3 1295 1296 
3 6911 6912 
3 20861 20862 
1 6069 20862 
3 6068 6069 
3 20909 20910 
2 20884 20885 
1 6435 20884 
3 6067 6068 
1 6067 6433 
3 6433 6434 
1 3489 20910 
3 20714 20715 
3 6434 6435 
3 20713 20714 
3 3487 3488 
1 3487 20713 
3 3488 3489 
3 1613 1614 
1 5880 18195 
3 5879 5880 
3 5878 5879 
3 12940 12941 
3 1612 1613 
1 1612 12942 
3 12941 12942 
3 3968 3969 
3 10322 10323 
1 3969 20452 
3 4570 4571 
1 4570 17124 
3 18194 18195 
3 3967 3968 
1 3967 15733 
3 15733 15734 
3 15521 15522 
1 15522 18193 
3 18193 18194 
3 15734 15735 
3 6608 6609 
3 6607 6608 
3 19079 19080 
3 8552 8553 
3 8551 8552 
3 6172 6173 
1 6172 19080 
3 6173 6174 
3 1843 1844 
1 1843 8977 
3 20452 20453 
3 20453 20454 
3 13823 13824 
3 13822 13823 
1 6771 13822 
3 6770 6771 
3 8977 8978 
3 6769 6770 
1 6769 13492 
3 13492 13493 
3 17560 17561 
3 8978 8979 
1 6162 8979 
3 6161 6162 
3 6160 6161 
1 6160 6174 
1 2544 10851 
3 2543 2544 
3 10850 10851 
3 2542 2543 
1 2542 17560 
1 1296 12421 
3 12421 12422 
3 12422 12423 
3 10849 10850 
1 12423 13983 
1 165 10849 
3 13982 13983 
3 7682 7683 
3 16870 16871 
3 7681 7682 
1 7197 7681 
3 16871 16872 
3 7196 7197 
3 13981 13982 
1 13981 16872 
3 7195 7196 
1 7195 9411 
2 9410 9411 
3 5480 5481 
2 9409 9410 
3 20603 20604 
3 18076 18077 
1 18076 20604 
3 20602 20603 
3 7918 7919 
1 7918 21063 
3 7085 7086 
3 7084 7085 
1 7084 10323 
3 7919 7920 
1 7086 18078 
3 11182 11183 
1 7920 18853 
3 18853 18854 
1 3009 15735 
3 3008 3009 
3 18077 18078 
3 11183 11184 
1 11184 19831 
3 19831 19832 
3 19832 19833 
3 7303 7304 
3 1606 1607 
3 7304 7305 
3 19078 19079 
3 3007 3008 
1 1608 3007 
3 1607 1608 
1 5739 19078 
3 1918 1919 
3 5738 5739 
2 16238 16239 
3 5737 5738 
1 5737 16239 
2 16237 16238 
1 7866 20352 
1 6126 11182 
3 20351 20352 
3 6124 6125 
1 6124 13419 
3 6125 6126 
3 20350 20351 
3 8419 8420 
1 8419 20350 
3 8420 8421 
3 15607 15608 
3 15608 15609 
3 13493 13494 
1 8421 13269 
1 6135 13494 
3 6134 6135 
3 13268 13269 
3 604 605 
1 604 20538 
3 20537 20538 
3 6133 6134 
1 1920 6133 
3 605 606 
3 1919 1920 
3 164 165 
3 20536 20537 
1 17613 20536 
3 17612 17613 
3 163 164 
1 163 2230 
3 2230 2231 
3 2231 2232 
1 2232 13618 
3 13618 13619 
3 13619 13620 
3 394 395 
1 394 13620 
3 395 396 
2 16672 16673 
2 16673 16674 
1 18855 19179 
2 19177 19178 
1 18102 19177 
2 18101 18102 
2 19178 19179 
2 18100 18101 
2 17275 17276 
1 17275 18100 
2 17276 17277 
3 5509 5510 
3 2386 2387 
3 18854 18855 
3 2387 2388 
3 2071 2072 
1 2071 15051 
3 13246 13247 
1 13246 19833 
3 2072 2073 
3 13247 13248 
3 1985 1986 
3 12259 12260 
1 12259 18451 
3 15049 15050 
1 15049 15607 
3 15050 15051 
3 12260 12261 
1 12261 20385 
3 20384 20385 
3 13267 13268 
1 4752 13267 
3 4514 4515 
3 4751 4752 
3 20383 20384 
1 1653 20383 
3 1652 1653 
3 1651 1652 
3 4513 4514 
1 4513 16204 
3 17611 17612 
3 16204 16205 
3 4750 4751 
3 16205 16206 
2 13576 13577 
1 13576 16206 
2 12178 12179 
1 12178 16132 
3 16132 16133 
2 12179 12180 
3 16133 16134 
2 12320 12321 
2 15748 15749 
1 12321 15748 
2 15749 15750 
1 12180 21525 
3 21524 21525 
3 21523 21524 
1 19638 21523 
1 396 17410 
2 17410 17411 
2 17411 17412 
1 15336 17412 
2 15658 15659 
3 9475 9476 
3 9476 9477 
1 9477 15658 
3 1984 1985 
2 15659 15660 
1 7887 15660 
3 7885 7886 
3 7886 7887 
3 12607 12608 
1 12607 20386 
3 20386 20387 
2 13577 13578 
3 12608 12609 
1 12609 19290 
2 19289 19290 
2 9544 9545 
2 9545 9546 
3 13364 13365 
1 3807 13365 
3 13363 13364 
1 13363 19107 
3 19637 19638 
3 3805 3806 
1 3805 16018 
3 16018 16019 
3 3806 3807 
3 16019 16020 
3 19636 19637 
1 3531 19636 
3 3530 3531 
3 3529 3530 
2 19288 19289 
1 18417 19288 
2 18416 18417 
2 18415 18416 
3 13831 13832 
1 13831 18415 
3 13832 13833 
3 10631 10632 
3 919 920 
1 919 10632 
3 18842 18843 
3 10630 10631 
1 20694 20757 
3 18841 18842 
3 15943 15944 
1 15943 18841 
3 10534 10535 
3 15944 15945 
3 20693 20694 
3 20756 20757 
3 20755 20756 
3 1426 1427 
1 1426 10630 
3 920 921 
1 921 10812 
3 10811 10812 
3 10810 10811 
3 7732 7733 
1 7732 10536 
3 7733 7734 
1 7734 16965 
3 10535 10536 
1 2217 20640 
3 20639 20640 
3 20638 20639 
3 5711 5712 
1 5712 20638 
3 5710 5711 
3 4996 4997 
1 4996 5710 
3 16964 16965 
3 19328 19329 
1 3942 10810 
3 3941 3942 
3 3940 3941 
1 3940 20908 
3 4997 4998 
1 4998 15873 
3 10103 10104 
3 15830 15831 
3 15829 15830 
1 10104 15829 
3 11935 11936 
1 11935 15831 
3 18068 18069 
3 15872 15873 
3 13096 13097 
3 11936 11937 
3 238 239 
1 8448 10534 
3 8447 8448 
3 20447 20448 
1 15162 20448 
3 15161 15162 
3 8446 8447 
1 8446 17755 
3 15160 15161 
3 17755 17756 
3 6001 6002 
1 6001 15418 
3 15418 15419 
3 6985 6986 
1 6985 15160 
3 1823 1824 
3 6986 6987 
3 1822 1823 
1 1822 6400 
3 6400 6401 
3 14336 14337 
1 10563 14337 
3 10562 10563 
1 6987 15700 
3 15700 15701 
3 6401 6402 
3 5596 5597 
1 5596 6402 
3 14335 14336 
3 3886 3887 
1 3886 14335 
3 5597 5598 
1 5598 18069 
3 3887 3888 
1 8292 16131 
3 8291 8292 
3 1891 1892 
1 1891 3888 
3 10102 10103 
1 10102 16347 
3 16130 16131 
3 8290 8291 
1 8290 10258 
3 10258 10259 
3 10259 10260 
1 10260 20754 
3 20753 20754 
3 17012 17013 
3 15263 15264 
3 15262 15263 
1 15262 17013 
3 15167 15168 
3 15166 15167 
1 6954 15166 
3 17011 17012 
3 6953 6954 
3 2963 2964 
3 20752 20753 
3 6952 6953 
1 8439 17331 
3 4835 4836 
1 4836 12069 
3 4834 4835 
1 4834 14446 
3 14446 14447 
3 14447 14448 
3 8651 8652 
3 15146 15147 
3 8650 8651 
1 8650 15147 
3 1582 1583 
1 1582 10561 
3 17330 17331 
3 10561 10562 
3 8438 8439 
3 8437 8438 
3 475 476 
1 475 8437 
3 476 477 
1 477 12757 
3 12757 12758 
3 428 429 
3 427 428 
1 427 1270 
3 1270 1271 
3 1271 1272 
3 1708 1709 
1 1708 18031 
3 1709 1710 
1 1272 8695 
3 8695 8696 
1 1710 20346 
3 18031 18032 
3 18032 18033 
3 8696 8697 
1 8697 10458 
3 3370 3371 
3 3371 3372 
3 16969 16970 
1 348 6196 
3 1703 1704 
3 346 347 
1 346 1704 
3 6499 6500 
1 6499 12013 
3 6500 6501 
1 6501 13465 
3 347 348 
3 15145 15146 
1 3426 13252 
3 1702 1703 
1 1702 17053 
3 17053 17054 
3 17054 17055 
1 13254 16983 
3 13253 13254 
3 2165 2166 
3 16982 16983 
3 11929 11930 
1 11929 17055 
3 13252 13253 
3 2164 2165 
1 2164 18033 
3 16981 16982 
3 16837 16838 
1 16837 16981 
3 16838 16839 
1 16029 16839 
3 16028 16029 
3 16027 16028 
1 16027 19924 
2 19924 19925 
2 19925 19926 
1 16215 19926 
3 16214 16215 
3 16213 16214 
1 8991 12418 
3 8990 8991 
3 8989 8990 
1 8989 12804 
3 12418 12419 
3 15172 15173 
1 15172 17509 
3 17509 17510 
3 15173 15174 
3 17510 17511 
3 18127 18128 
1 18127 20124 
3 12803 12804 
1 13902 15945 
3 13901 13902 
3 13900 13901 
1 13900 19300 
3 19300 19301 
3 16259 16260 
3 12802 12803 
1 12802 17328 
1 2091 16260 
3 19301 19302 
3 2090 2091 
3 16963 16964 
3 2143 2144 
1 2143 16963 
1 19302 21556 
3 21556 21557 
3 2144 2145 
1 2145 12783 
3 21557 21558 
3 2089 2090 
1 2089 17578 
3 20908 20909 
1 7683 21558 
3 12782 12783 
3 12781 12782 
1 12781 18400 
3 18400 18401 
3 18401 18402 
3 4243 4244 
1 4243 18067 
3 4244 4245 
1 4245 21588 
3 18067 18068 
3 15871 15872 
3 13499 13500 
1 4473 13500 
3 9205 9206 
1 9205 18402 
3 21587 21588 
3 21586 21587 
3 9206 9207 
1 10002 18504 
3 6002 6003 
3 18502 18503 
3 9850 9851 
1 9850 18502 
3 1057 1058 
1 1057 6003 
3 7544 7545 
3 7543 7544 
1 7543 11760 
3 9851 9852 
3 11759 11760 
3 18503 18504 
3 17705 17706 
3 16258 16259 
3 1058 1059 
1 1059 16258 
1 2031 9852 
3 2030 2031 
3 2029 2030 
1 2029 7209 
3 15701 15702 
1 15702 20109 
3 7208 7209 
3 20108 20109 
3 20107 20108 
1 15105 20107 
3 16181 16182 
3 16180 16181 
3 15104 15105 
1 6090 16180 
1 16182 21205 
3 21205 21206 
3 21206 21207 
3 1892 1893 
3 10456 10457 
1 1893 12339 
3 12338 12339 
3 13498 13499 
1 13498 15103 
3 15103 15104 
3 12337 12338 
1 12337 20451 
3 9823 9824 
1 9823 10456 
3 20450 20451 
3 9824 9825 
3 2962 2963 
3 20449 20450 
1 9474 17706 
1 8652 10095 
3 6814 6815 
1 6814 13156 
3 13156 13157 
3 13157 13158 
1 2226 13158 
3 4772 4773 
1 4773 19402 
3 17066 17067 
3 6815 6816 
1 14448 15579 
3 2225 2226 
3 10094 10095 
3 15577 15578 
1 15577 21207 
3 10093 10094 
1 10093 17976 
3 17975 17976 
3 15578 15579 
3 2224 2225 
1 2224 14958 
3 17974 17975 
3 10633 10634 
1 10633 17974 
3 19402 19403 
3 12758 12759 
3 10634 10635 
1 12759 20466 
3 20465 20466 
3 20464 20465 
3 12488 12489 
1 12624 20464 
1 10053 12489 
3 1501 1502 
1 1501 10635 
3 20345 20346 
3 10457 10458 
3 12487 12488 
1 12487 14409 
3 20344 20345 
1 17799 20344 
3 12623 12624 
3 12622 12623 
3 1327 1328 
1 1327 12622 
3 1328 1329 
3 17798 17799 
3 14408 14409 
3 17797 17798 
3 11581 11582 
1 11581 17797 
3 11582 11583 
2 10168 10169 
1 10168 11583 
2 10169 10170 
1 10170 19392 
3 19391 19392 
3 19390 19391 
1 15537 19390 
3 8702 8703 
3 13465 13466 
3 4771 4772 
1 4771 5631 
3 5630 5631 
3 13466 13467 
3 5629 5630 
1 5629 18019 
3 14678 14679 
3 11930 11931 
3 12253 12254 
1 12253 13467 
3 12254 12255 
1 5559 12255 
3 5558 5559 
3 10052 10053 
3 10051 10052 
1 10051 11931 
3 17561 17562 
1 17562 20122 
3 20122 20123 
1 3435 9819 
3 20123 20124 
3 9818 9819 
3 9817 9818 
1 9817 12673 
3 10351 10352 
3 12673 12674 
3 10352 10353 
3 2722 2723 
1 2722 10351 
3 3434 3435 
3 3095 3096 
3 17327 17328 
3 17326 17327 
3 12674 12675 
1 10035 12675 
1 2526 17326 
3 10034 10035 
3 12404 12405 
3 17578 17579 
3 2525 2526 
3 17579 17580 
3 2524 2525 
1 2524 4527 
3 698 699 
1 699 10615 
3 10615 10616 
3 697 698 
1 697 12405 
3 10616 10617 
3 5479 5480 
3 4526 4527 
3 4525 4526 
1 4525 5479 
1 7242 17580 
3 7241 7242 
3 7240 7241 
3 6139 6140 
1 6139 7240 
3 6140 6141 
3 4472 4473 
3 1429 1430 
3 4471 4472 
1 4471 7662 
3 7661 7662 
3 7660 7661 
3 10612 10613 
1 10612 12306 
3 17704 17705 
1 17704 18343 
3 12305 12306 
3 12304 12305 
1 12304 17590 
3 17590 17591 
3 18343 18344 
3 17591 17592 
2 9923 9924 
3 11758 11759 
3 18344 18345 
1 3501 11758 
3 12403 12404 
3 3499 3500 
1 3499 12403 
3 3500 3501 
3 13546 13547 
1 13546 18345 
3 13547 13548 
1 13548 15850 
3 15850 15851 
3 15253 15254 
1 15253 17592 
3 7207 7208 
1 7207 14790 
3 15851 15852 
3 14789 14790 
3 14788 14789 
3 13186 13187 
1 13186 14788 
1 11181 20397 
3 7936 7937 
1 7936 15852 
3 11180 11181 
3 7937 7938 
3 6089 6090 
3 13187 13188 
3 20396 20397 
3 1430 1431 
1 1431 13188 
3 6088 6089 
1 6088 15997 
3 15997 15998 
3 15998 15999 
1 15672 15999 
3 15671 15672 
3 15670 15671 
3 863 864 
3 2051 2052 
1 864 2052 
3 2050 2051 
3 17065 17066 
3 17023 17024 
1 17023 17065 
3 8719 8720 
1 8719 9924 
3 17024 17025 
1 17025 19861 
3 19861 19862 
3 10768 10769 
1 10768 16809 
3 8720 8721 
3 10769 10770 
3 14957 14958 
3 19862 19863 
1 9018 19863 
3 16058 16059 
1 16059 19404 
3 14956 14957 
1 3177 14956 
3 9017 9018 
3 19403 19404 
3 15268 15269 
3 11179 11180 
3 3175 3176 
1 3175 11179 
3 16057 16058 
3 3176 3177 
1 12027 16057 
3 1502 1503 
3 12026 12027 
1 1503 1908 
3 12025 12026 
3 934 935 
1 934 12025 
3 935 936 
3 862 863 
1 862 1329 
3 14407 14408 
1 14407 20368 
3 20368 20369 
3 1907 1908 
3 1906 1907 
1 1906 18112 
3 18112 18113 
3 18113 18114 
3 20369 20370 
3 13375 13376 
2 1780 1781 
1 1780 13375 
2 1781 1782 
1 12075 18114 
3 12074 12075 
3 12073 12074 
3 15536 15537 
3 15535 15536 
3 8701 8702 
1 8701 15373 
3 15374 15375 
1 9867 15375 
3 15373 15374 
3 8710 8711 
3 4678 4679 
1 4678 15270 
3 4679 4680 
1 4680 11637 
3 11636 11637 
3 9866 9867 
3 15269 15270 
3 18898 18899 
3 8711 8712 
3 16529 16530 
3 16528 16529 
3 5557 5558 
1 5557 19219 
3 19219 19220 
3 19220 19221 
1 13377 19221 
3 13376 13377 
3 8119 8120 
1 8119 10353 
3 9884 9885 
1 4794 9885 
3 4793 4794 
3 7862 7863 
3 7861 7862 
3 8120 8121 
3 4429 4430 
1 4429 7861 
1 3096 7863 
1 606 8121 
3 10033 10034 
1 10033 20671 
3 20671 20672 
3 4430 4431 
1 4431 6255 
3 6254 6255 
3 6253 6254 
1 6253 6555 
3 6791 6792 
3 12709 12710 
3 12710 12711 
3 20672 20673 
3 7475 7476 
3 7474 7475 
1 7474 18882 
1 12711 20673 
3 6554 6555 
2 18881 18882 
1 6792 7476 
3 4367 4368 
1 5103 10617 
3 5102 5103 
2 18880 18881 
3 5101 5102 
3 8788 8789 
1 8788 18880 
3 14263 14264 
1 4368 14263 
3 16160 16161 
3 4366 4367 
1 4366 12709 
1 11397 16674 
2 11396 11397 
3 15922 15923 
2 11395 11396 
1 11395 15922 
3 15923 15924 
3 16159 16160 
3 4622 4623 
2 2378 2379 
2 2377 2378 
1 2377 19410 
3 19409 19410 
3 19408 19409 
1 19408 19608 
3 1627 1628 
1 1627 4623 
2 9922 9923 
3 4216 4217 
1 4216 9922 
1 1566 10210 
3 10210 10211 
3 10211 10212 
3 15254 15255 
3 4217 4218 
1 4218 16677 
3 10031 10032 
3 6790 6791 
1 6790 15255 
3 19607 19608 
3 16676 16677 
1 10032 19606 
3 19606 19607 
3 16675 16676 
3 11647 11648 
3 12583 12584 
1 12583 16675 
3 12584 12585 
1 12585 15619 
3 15619 15620 
1 7938 19065 
3 15620 15621 
3 20395 20396 
1 10584 20395 
3 19064 19065 
3 16184 16185 
1 16185 19063 
3 19063 19064 
3 10583 10584 
3 16183 16184 
3 10582 10583 
3 20729 20730 
3 20728 20729 
3 13402 13403 
1 13402 14328 
2 1564 1565 
1 1564 12031 
2 1565 1566 
3 16808 16809 
3 16807 16808 
3 8863 8864 
1 8863 16807 
3 12031 12032 