ITEM: TIMESTEP
30000000
ITEM: NUMBER OF ATOMS
1950
ITEM: BOX BOUNDS pp pp pp
0.0000000000000000e+00 5.0000000000000000e+01
0.0000000000000000e+00 5.0000000000000000e+01
0.0000000000000000e+00 5.0000000000000000e+01
ITEM: ATOMS id type vx vy vz 
21570 1 1.309 -0.0831028 -3.4665 
21569 3 -1.09958 -2.23379 0.754639 
12417 1 10.6433 1.93714 -0.674927 
12416 2 -0.90112 0.47321 2.66812 
12415 1 3.02175 6.82325 -0.34322 
17767 1 4.55789 0.489231 0.652266 
15814 1 0.568959 -6.14673 -6.84965 
17768 3 -2.07338 3.36919 2.03076 
17769 1 5.33968 -3.1736 2.35115 
14131 1 -0.712495 1.49794 -4.28465 
14132 3 -2.26243 -3.3384 1.6111 
3647 3 2.97014 7.46496 -2.25758 
3648 1 -0.428898 -3.1401 0.458237 
3646 1 -1.0429 -0.288451 1.722 
15835 1 -2.25522 4.81108 -9.15294 
15836 2 -0.871557 1.48219 -0.242084 
21568 1 -8.5109 -2.47337 4.6053 
8653 1 -0.046786 1.42648 -9.91577 
8654 3 -0.713909 4.53975 -2.38255 
8655 1 -2.40001 -1.0291 -0.429026 
3490 1 5.20618 2.73652 2.98912 
3491 2 -4.57517 -1.91308 1.36622 
3492 1 8.15789 -1.58944 -0.215629 
13581 1 1.82602 -0.0375005 -0.336256 
17803 1 -1.61051 2.31422 -1.74143 
17804 2 -5.23285 3.94632 -2.37573 
5086 1 3.31978 -1.27594 -0.723362 
13039 1 -7.91037 -2.96955 -2.97061 
14206 1 -6.77861 -0.336242 2.04677 
5587 1 4.24311 -1.22565 0.471426 
10417 1 -3.88321 -5.99852 8.79409 
11976 1 3.90114 -0.660802 -3.48907 
10418 2 0.387472 -0.142368 -2.58126 
10419 1 2.09809 -2.05763 -3.35498 
20623 1 -1.69596 -0.540986 -2.71834 
17805 1 -4.65932 2.58918 5.02628 
13239 1 4.76632 -1.67725 0.233717 
13238 2 -4.22281 -1.33892 0.00357945 
16737 1 1.96081 5.67566 -3.15725 
19978 1 -1.13818 -7.55841 6.54292 
19979 3 0.0168043 0.606648 1.1649 
19980 1 2.25652 -4.19858 3.11827 
12753 1 -3.68967 -0.543589 -0.381162 
12752 3 -3.26013 -2.86825 -2.73355 
11975 3 4.73343 -1.83163 -2.54716 
11974 1 2.22792 -5.91528 -2.69299 
3498 1 3.88965 5.15362 -4.20603 
3497 2 -3.25269 4.69368 1.97642 
3496 1 2.85065 -3.41246 2.55165 
496 1 1.97855 2.75992 -3.73873 
5588 2 1.18188 -0.0619618 -0.340533 
5589 1 -5.03173 -3.64963 -2.15674 
15815 3 1.51683 -3.76962 3.11989 
15816 1 0.830892 2.46023 1.88412 
4318 1 2.57675 0.819311 2.73281 
4319 2 -3.56903 0.998504 -3.02609 
20624 2 1.36808 -0.192595 0.00546716 
20625 1 1.61792 -0.637766 0.302552 
4320 1 4.06085 -6.16765 -5.55926 
20193 1 -2.16538 -5.2296 -1.98942 
14133 1 0.524295 -2.27577 -2.11377 
16735 1 0.46334 4.91126 -5.53386 
2061 1 3.10317 1.63805 2.66386 
2060 2 -1.2922 0.685036 2.39193 
16736 2 -1.22702 0.545471 3.06122 
5163 1 -1.95047 -3.35636 0.290343 
12751 1 -2.47774 -0.678426 0.460511 
970 1 3.60213 -4.56045 4.59673 
971 2 -1.29439 -5.7509 -2.60077 
972 1 -0.537114 -0.803271 6.46153 
6385 1 -1.56688 -0.16105 -2.43915 
497 2 2.94517 -1.09334 -2.82112 
498 1 2.89439 3.4145 -0.718104 
4081 1 -3.02918 2.19327 -1.35618 
4082 2 4.20653 -0.476384 -1.81048 
6508 1 -0.408946 -1.98835 -0.398497 
16749 1 0.252359 0.858288 3.1081 
16748 2 2.40633 -2.90114 -2.89805 
6510 1 -3.58024 8.50558 2.4596 
16747 1 0.144713 -3.31251 2.42651 
6509 3 2.27223 -0.749207 -1.46605 
4083 1 -5.54697 -5.5019 3.93271 
2059 1 -2.08833 -3.33448 2.10132 
17014 1 0.894803 -3.71942 2.5102 
17015 2 1.68385 -0.95712 0.275273 
17016 1 0.351823 -0.845626 -3.51901 
2911 1 -5.36917 -1.95246 1.67502 
2912 2 4.92405 -0.782853 -1.3441 
14014 1 1.35 0.0501707 1.09294 
14015 2 -0.589363 -0.528633 -0.486223 
14016 1 -3.36937 2.39894 0.0166073 
12870 1 0.824246 0.506746 4.4796 
20778 1 1.86902 -2.31761 -0.0382602 
20777 2 -0.427653 -1.30514 -2.52396 
457 1 2.22986 -0.546598 -0.760421 
458 2 -2.32544 -1.61573 -1.29536 
459 1 3.38408 8.41703 0.663153 
19855 1 -1.32583 -4.06597 -2.26242 
19856 3 -2.66327 2.346 4.3947 
19857 1 6.33807 0.601825 0.938822 
542 3 2.92242 3.1965 -0.0895982 
541 1 3.70177 3.95234 -2.70317 
543 1 0.0531737 5.74394 5.847 
2456 3 -1.23878 -4.00729 2.68578 
15837 1 -0.221643 -4.39435 0.15294 
2455 1 -0.310401 0.0746506 -0.477932 
2457 1 3.51636 -3.77808 5.012 
10108 1 -1.09965 0.708404 -0.65907 
10109 2 2.6431 -0.628386 3.17488 
10110 1 -1.54379 -0.246947 -1.23767 
3303 1 5.50508 0.122978 2.25851 
5088 1 2.59621 -2.66474 -0.31579 
5087 3 2.50145 -0.0594617 -2.29104 
12964 1 -0.0735943 -2.7236 -2.16277 
13040 3 -1.10013 -1.85153 -3.84388 
14207 3 -4.42991 1.83789 0.962274 
18178 1 0.257013 -5.17311 -1.65016 
17250 1 1.98272 3.20986 4.21873 
14208 1 14.3042 4.02785 0.688341 
13960 1 0.399233 1.84837 -1.3011 
17249 2 -0.0618431 3.341 1.56429 
17248 1 -1.69284 2.32398 2.01003 
11424 1 -1.66341 -1.50113 7.44971 
13580 2 -0.594796 -2.41695 2.27061 
13961 2 -0.00594788 -1.88415 0.235627 
11423 2 0.562501 -0.300973 -0.90115 
10572 1 2.87812 3.01754 -0.806308 
13579 1 1.64099 -3.54803 -1.67263 
2604 1 0.682679 -0.233892 -4.54346 
2603 2 -1.71349 -1.35691 5.9528 
3302 2 2.04689 -1.35759 -3.98277 
3301 1 -1.74475 0.881763 -4.43025 
12072 1 -0.926381 2.44141 -2.78617 
12071 2 3.02217 5.87343 -1.90065 
2602 1 -1.69972 -0.606445 -1.1644 
5406 1 -3.92866 -1.54788 3.1606 
13237 1 -1.49402 -3.73282 -1.00141 
9862 1 -3.2573 0.159462 1.23763 
9863 2 -1.5026 0.565837 -1.59295 
10571 2 -2.43465 0.821789 -3.40343 
10570 1 -2.63108 -4.96675 4.73995 
4969 1 4.34519 1.85968 -3.03891 
4970 2 -2.07965 1.09741 -1.45193 
4971 1 4.80631 4.13531 -4.60578 
13882 1 -5.543 -1.7056 0.305516 
4888 1 2.73472 2.32977 2.82453 
16225 1 5.25277 -5.49983 0.334644 
13883 2 -2.55973 -0.195321 1.06162 
16226 2 -0.147187 -0.439065 -1.93744 
4890 1 -2.87927 -2.51858 -3.8734 
4889 3 0.27847 -2.08807 0.490253 
12965 3 0.124721 -0.712426 -0.893693 
12966 1 -5.68347 -2.30444 0.623 
6060 1 3.50316 1.1182 -0.294492 
6059 2 -0.578979 -3.64696 -1.09635 
8050 1 -2.01474 -2.48331 7.4517 
13041 1 1.17333 3.91276 -3.82056 
3897 1 -0.815958 -1.99761 1.4747 
3896 3 2.42299 0.890146 1.21895 
3895 1 -1.16883 0.758556 4.21028 
8051 3 -1.33055 0.185293 0.849453 
8052 1 0.97949 3.15639 -2.45616 
8200 1 0.616344 -1.70278 1.90758 
9955 1 2.0303 -0.396116 0.252956 
8201 2 0.25625 3.66784 0.391988 
6058 1 -3.66822 3.6275 5.63241 
13962 1 -3.83821 0.515893 -1.76523 
2203 1 4.78484 0.569991 -0.292242 
14008 1 0.68385 0.859796 -1.05817 
14009 2 2.17712 0.664124 2.72232 
14010 1 -3.72181 3.76587 -2.0644 
6073 1 -5.73844 -2.24581 2.72918 
6074 2 -1.37464 -2.20441 1.14019 
8202 1 -1.93757 -3.09024 2.47959 
2204 2 4.32307 0.0975951 3.60709 
1219 1 0.0337475 -6.59212 1.18244 
20192 2 0.383934 -1.26525 3.71552 
20191 1 5.27541 -7.8145 -3.5361 
9889 1 1.22827 3.26159 1.90168 
2205 1 -3.09818 -3.3257 2.72975 
5405 2 -2.41263 -2.67811 -3.02391 
5404 1 -0.556843 -5.35238 2.81427 
8803 1 1.89348 0.814045 1.28157 
8804 2 -1.56756 3.26647 -2.1975 
8805 1 -0.447137 -2.80575 1.17493 
9609 1 1.02678 -9.34766 0.338992 
3664 1 4.1407 8.9498 -3.19306 
21012 1 -0.454657 -4.86098 2.18117 
9864 1 -8.80127 -2.62845 -3.18232 
13641 1 -1.89269 -2.28243 -1.68364 
13640 2 1.0812 -3.60983 -1.71432 
13639 1 3.55226 1.34275 -4.24905 
3894 1 -4.46725 5.73579 -7.36888 
21011 2 -2.93851 3.74092 1.25552 
3893 2 2.11488 0.820683 -0.199461 
13884 1 7.38219 3.47286 -2.8505 
14416 1 2.2808 -2.24868 -4.0151 
14417 2 2.91494 5.08997 -3.81745 
14418 1 -4.49906 1.46677 0.275316 
2968 1 -1.76854 -1.13822 -5.82722 
2969 2 -0.737732 -0.480247 -0.840337 
16227 1 3.18067 -1.58648 -0.869687 
1359 1 -2.90183 -0.476415 4.08843 
1358 2 2.52742 -2.58266 -4.23603 
15543 1 -4.89134 -2.4124 -4.27688 
15542 2 -6.03426 -1.12805 0.355869 
10813 1 4.47348 -0.90863 1.64924 
10814 2 0.826394 0.35592 -1.81351 
10815 1 0.795724 -4.60873 4.32161 
8704 1 -1.18792 2.80019 -3.80734 
17167 1 -1.66323 -1.69657 0.679193 
17168 3 2.02374 -1.96896 -1.47527 
6386 2 2.68688 -2.55572 -2.1713 
8705 2 -1.29551 1.49324 0.610477 
1220 2 -1.6598 -1.00214 -4.16376 
1221 1 5.25395 1.26974 1.88345 
3291 1 -0.352899 -0.427476 2.54668 
3290 2 3.00115 0.766087 -1.47504 
3289 1 0.0969503 1.20027 -0.72928 
12784 1 -1.26814 -6.05989 -3.61576 
6387 1 -1.83874 1.20656 1.58432 
705 1 5.61611 -4.06807 -2.91153 
1243 1 -3.97516 -1.80521 -1.97668 
9608 2 -2.25752 0.561153 5.53278 
9607 1 0.675504 -2.1552 12.6251 
1244 2 -1.06733 2.36752 1.97767 
1245 1 -2.20383 -6.51184 -2.5755 
9890 2 -1.01284 -1.60384 -1.38736 
3665 2 -1.85205 -0.649131 -3.98846 
1852 1 6.62031 2.32676 4.90924 
5162 2 6.09345 -1.01237 -2.52607 
9891 1 -0.665846 -4.37196 3.13401 
19350 1 -3.06822 -1.02823 -2.8404 
3892 1 -4.11665 -0.40616 2.47281 
5161 1 -5.43767 0.564466 -1.67826 
12703 1 3.80716 4.88009 -1.37759 
12704 2 -3.12945 -1.20254 2.01654 
19349 2 -0.695629 7.01917 -4.8925 
19348 1 -8.33953 0.840999 -2.93357 
12705 1 -1.96566 -4.23882 -1.79929 
13192 1 -0.57113 -0.626596 -2.21826 
4657 1 1.07449 2.26147 0.270088 
4658 2 1.56162 -0.286904 -1.75709 
4659 1 0.715579 -6.50343 -3.32783 
12868 1 -0.277379 4.5831 1.81117 
12869 2 2.79261 -3.74449 -1.26264 
2970 1 -2.25165 -3.18644 5.05085 
4654 1 -5.04274 -1.36045 -8.41917 
4655 2 1.48763 -0.962221 2.34117 
4656 1 -8.88834 4.12708 1.90965 
20725 1 0.919382 5.53149 2.65514 
15541 1 -4.31759 1.65588 0.702796 
11232 1 -1.82084 2.16931 2.08749 
11231 2 -4.5528 -3.6809 2.31544 
11230 1 2.11659 -1.98049 -1.60015 
10789 1 -0.65086 -0.485273 0.600411 
228 1 2.26304 -4.05277 1.11412 
4779 1 -8.47453 -4.73284 2.81681 
5418 1 -2.10717 5.04049 -4.46721 
4778 2 0.434145 -2.06545 -4.02209 
4777 1 0.817197 -0.171535 1.41662 
11497 1 1.81609 3.65743 -1.82944 
11498 2 1.57306 2.04515 0.962291 
6631 1 -0.570312 -4.12943 -3.3124 
6632 2 -0.933313 1.21232 -1.41731 
6633 1 3.02685 -5.47101 -0.100775 
5259 1 0.618908 -5.54654 -2.8346 
5643 1 -4.29486 -3.81589 -0.953208 
5642 2 3.18802 1.31632 -4.9759 
5641 1 7.42001 -0.917515 -2.82685 
19720 1 -2.15086 2.92025 -1.49592 
18246 1 0.514551 3.10995 -1.5172 
18245 2 5.53826 -4.7301 2.58352 
6507 1 0.48121 4.35559 -5.095 
18244 1 1.61492 -1.40803 -1.09032 
11499 1 -1.04912 1.64363 2.2807 
4255 1 -1.2628 -1.59695 -3.04635 
15600 1 5.61229 2.12492 5.96177 
15599 3 -0.472778 -4.39457 -4.64027 
15598 1 4.82771 1.76015 1.14772 
8811 1 2.70254 -2.9416 0.259857 
8810 2 -2.72028 4.54863 -2.65979 
18179 2 1.68254 -1.16239 -1.08548 
15138 1 2.52 2.66654 -0.779764 
13195 1 -0.255106 1.93146 -2.26421 
4256 2 1.6704 3.05691 -5.51827 
18180 1 -0.488479 -4.30761 3.98853 
4257 1 -4.82132 2.21789 -1.73484 
5359 1 -1.31901 2.45424 0.470196 
5360 2 -2.62192 -0.202418 1.68962 
5361 1 1.43385 0.0582263 -2.65858 
15415 1 5.03503 3.27409 0.743411 
13975 1 4.58971 1.47392 3.44482 
15416 2 0.493217 3.28753 -2.24034 
11422 1 1.1943 3.78855 -2.05854 
9687 1 -2.61301 4.65496 3.59221 
12070 1 0.624892 7.09886 6.06239 
2572 1 1.32135 2.18469 7.88306 
19721 2 0.314383 -0.166276 3.20885 
5258 2 -1.37465 -0.0311255 0.714736 
5257 1 0.0312788 2.86069 -2.64519 
15742 1 4.21891 3.36763 0.168167 
15743 2 -1.14087 -0.318395 1.63688 
15744 1 0.647073 -2.40494 -4.16418 
10864 1 -0.593867 7.15998 3.10827 
6506 2 -0.448593 5.16737 2.78732 
6505 1 -5.47119 -0.144276 -5.66554 
13003 1 -1.02159 3.04345 -2.45494 
13004 2 -2.23497 -0.570688 1.14279 
13005 1 -4.9926 -8.01752 -1.32344 
4261 1 4.69565 -0.350402 -5.45611 
16848 1 -0.243326 3.58476 0.488128 
19045 1 3.78338 -4.13994 6.03827 
16847 2 -3.60757 -1.56454 2.55968 
16846 1 3.02405 -0.81813 -0.440605 
2427 1 0.0167023 2.07447 -1.45149 
17772 1 -7.64225 1.04724 -4.09322 
17771 2 1.23057 -4.41404 0.376939 
17770 1 -0.705843 -0.902757 1.85969 
7202 2 0.666745 1.34587 0.55052 
7201 1 1.19131 -4.37091 1.74381 
9956 2 0.43145 2.31574 0.793267 
8809 1 4.01528 5.18729 1.83444 
11298 1 -7.46081 -4.06405 -4.18572 
11297 2 1.15324 2.85783 -0.859646 
11296 1 -5.21368 -2.11081 -3.88428 
9732 1 1.49504 -3.66084 -0.89156 
9957 1 3.54319 2.87972 -4.53247 
13976 2 -6.09681 3.31626 -0.920431 
13977 1 1.61914 5.49402 0.463677 
7029 1 -0.972653 1.94297 -2.2226 
7028 2 -0.950337 3.83086 0.520937 
7027 1 1.25449 2.6794 3.87051 
17890 1 1.92041 -1.80291 1.55343 
15417 1 -3.69644 3.29543 3.03058 
9686 2 4.58893 -1.31217 -0.305962 
2573 2 -2.02404 0.261706 -0.149514 
10865 2 -4.26667 -0.775688 -3.92529 
9685 1 -4.22442 -0.151169 1.77568 
2370 1 -5.85927 2.70777 3.68246 
2369 2 3.18337 -1.5323 -1.45895 
10866 1 -2.70545 -1.21343 0.463336 
9271 1 -1.3072 -1.21541 0.518087 
2574 1 -4.80122 -0.687726 -0.864509 
2368 1 -1.80817 2.02224 -3.85611 
4807 1 1.13188 3.05485 0.964066 
21010 1 -0.614509 2.81293 -0.474208 
7224 1 -1.03949 -3.14589 6.49778 
14559 1 -0.843897 -0.754765 1.74564 
4262 2 2.03014 1.43038 1.95853 
4263 1 -3.3859 -5.04027 0.25827 
6408 1 -1.66334 0.587664 -0.70946 
7223 2 1.82757 -2.20103 -0.882899 
6407 2 1.99543 -2.36042 4.46742 
6406 1 1.30947 -1.90392 1.55517 
16608 1 -4.46861 4.54715 -0.432686 
7222 1 -3.76038 0.817589 -3.29564 
6601 1 -1.17971 0.683509 2.27129 
14558 2 -4.88136 1.57942 0.562394 
14557 1 -2.74596 2.21435 -0.119536 
2426 2 -3.05307 -0.780902 -0.934993 
2425 1 0.936073 0.278573 2.95669 
5232 1 -4.51572 -1.9789 -4.09758 
5231 2 -0.0226842 2.81037 3.04365 
5230 1 -4.44674 -0.978479 4.81099 
4578 1 -2.13327 6.66706 4.57984 
1357 1 -0.994588 -3.51887 -4.24605 
9421 1 3.42845 -0.0561413 0.0551036 
370 1 -0.131863 0.0978092 -5.43794 
371 2 -0.228839 -0.762894 0.271827 
372 1 0.500066 -3.24219 1.38812 
20863 1 -4.97821 -2.55929 2.58407 
377 2 -4.04085 1.12905 2.19236 
20864 2 4.54683 1.58462 -1.68351 
378 1 2.52573 0.145897 0.690877 
20245 1 0.429086 5.29001 -0.0829828 
1273 1 0.620656 -2.70969 6.49525 
1274 3 3.51711 1.40539 -4.95623 
1275 1 2.38584 4.83921 -3.99126 
20246 2 3.92123 -1.77547 -0.355288 
9731 2 -0.878352 -5.80381 0.789777 
17169 1 6.48949 2.93962 0.485107 
16060 1 -3.58508 5.79687 -0.462628 
16061 2 -1.9637 -0.0534277 1.24011 
9834 1 -0.267339 -0.633585 -0.271721 
16062 1 -3.55062 -1.17241 -0.693395 
9833 2 4.32685 1.54521 3.83497 
9159 1 5.89091 -0.806978 -6.27136 
6075 1 3.79684 2.93311 -2.89237 
17891 2 -1.28857 -0.494502 -0.128577 
2235 1 -6.24505 3.16183 1.87245 
9730 1 -5.14137 -0.150865 2.82538 
487 1 -2.07902 -2.45727 -4.05275 
488 2 -0.155937 2.65492 2.67429 
18311 2 2.14186 2.57686 -1.98764 
2234 2 6.61294 0.521027 -4.12617 
2233 1 -1.072 2.87395 -2.18265 
18312 1 -1.63081 -3.69807 -0.486862 
17892 1 7.14785 -1.05267 -2.09348 
16879 1 7.43131 0.989855 -7.44692 
6022 1 -0.348617 -2.19161 0.495424 
16880 2 2.60389 0.805717 -0.386372 
3666 1 -0.183184 4.91116 -2.34573 
6023 2 0.901052 1.25105 3.01302 
6024 1 -1.13161 -0.846184 0.295231 
4808 2 -0.869945 -2.33292 -1.1595 
21097 1 6.02839 -1.6306 1.13017 
4809 1 -6.67992 -5.9239 -3.83748 
5691 1 -1.80885 -2.32503 -0.151488 
5690 2 2.21443 2.01956 0.798749 
11584 1 -1.1571 -3.52009 -2.81385 
21098 2 -1.26319 1.39847 2.33616 
16881 1 -0.421432 -3.44784 -3.04858 
15247 1 2.33477 4.21617 -7.49107 
5689 1 -1.85582 -1.75819 9.88446 
15248 2 -6.60791 0.468594 -3.30732 
13911 1 -1.13881 1.92803 -3.37728 
3206 2 1.52836 -3.37024 1.40071 
3205 1 0.134652 3.67828 1.31849 
13426 1 -1.56235 -2.28882 -1.5003 
6602 2 2.79288 -2.3096 0.136126 
6603 1 7.31608 3.21529 -1.85975 
13428 1 4.04907 -1.75208 0.0117958 
13427 2 0.181226 -1.64089 -4.63444 
15249 1 4.15709 2.71822 -2.73378 
15555 1 5.49118 -1.26684 3.70155 
4577 2 -0.155923 -2.76201 -1.8978 
17526 1 3.50534 -4.93562 -1.5668 
18949 1 2.62019 -1.63468 0.633008 
9422 2 -0.0457438 1.41244 0.314425 
18950 2 -1.88121 -4.80002 -0.378795 
18951 1 4.92854 4.61729 3.70399 
5590 1 -1.79524 -0.159374 1.44014 
5591 2 -5.65664 1.09232 6.34689 
5592 1 0.04443 -0.0905133 -0.457014 
3617 2 -0.391984 1.75454 2.51155 
10611 1 -5.38766 2.98834 -0.482995 
376 1 -5.22512 5.08736 -1.54296 
9423 1 -1.85857 1.09915 -3.18761 
9663 1 1.59253 3.67116 -3.38102 
9661 1 -2.50047 -0.37232 3.9368 
9662 2 -4.43777 0.494866 2.25161 
20865 1 -1.92188 -0.889864 -5.76685 
3618 1 2.63579 0.987391 5.26016 
226 1 -3.49321 -2.12438 -1.99237 
84 1 5.28249 0.0755792 -4.47308 
227 2 -1.05756 3.24445 0.239648 
83 2 -0.38651 -3.03091 -0.755402 
82 1 4.88982 2.10511 4.20246 
11481 1 -6.00897 -0.220618 6.15591 
8197 1 -2.99097 0.818589 -3.77063 
8198 2 3.71167 -2.69236 1.30255 
8199 1 -2.00114 4.59377 0.677516 
5417 2 -0.599426 0.465254 3.92611 
11479 1 3.17949 -1.89638 -1.5543 
11480 3 -0.680988 -3.8906 -2.89077 
18814 1 -0.253925 5.62177 -0.200045 
18815 2 0.58202 2.22153 -1.71017 
18816 1 -5.36148 1.69118 -2.54978 
15496 1 -0.860763 3.26265 0.680494 
17794 1 6.03439 1.3719 -3.65961 
17795 2 -2.55617 1.83792 2.33946 
17796 1 -4.13454 4.70311 0.0816801 
20273 3 0.394506 0.748607 -0.0407804 
5416 1 2.85592 -4.73522 -10.701 
20274 1 -0.572114 3.49767 -1.30219 
2119 1 1.51932 -2.50307 2.38341 
21055 1 0.777311 5.1047 0.660887 
21056 2 0.649587 -5.95464 3.97854 
20272 1 -0.597202 -5.29333 -2.28504 
6712 1 -0.828161 1.18689 4.1418 
13197 1 -2.0739 -1.44249 6.01205 
13196 2 0.0276161 1.56189 3.82273 
6713 2 3.65544 0.84959 4.13791 
6714 1 -6.32928 -0.0564152 -0.613725 
16500 1 -0.249826 1.37444 -10.1464 
5487 1 0.127322 -4.83185 0.119133 
15137 2 3.17945 -2.93958 -3.20404 
18543 1 3.99653 6.04924 -2.58066 
4705 1 0.571107 -7.09276 1.30726 
18542 2 -0.136454 -0.99728 -1.53554 
18541 1 0.601141 -5.92682 0.827135 
12234 1 -3.3181 -5.5041 -3.56933 
12233 2 2.44986 -1.76028 -0.783701 
1832 2 -3.88906 -0.546607 1.93063 
1833 1 3.38581 -2.43796 2.74835 
19722 1 -1.7265 0.0317849 -7.26553 
915 1 1.93441 3.93318 -0.882422 
4706 2 -0.0643764 1.66803 0.958373 
15497 2 1.52817 2.42566 3.51653 
4707 1 -2.70381 9.0039 6.05293 
583 1 -3.60853 -1.5719 -1.5474 
584 2 -0.55054 -2.03682 1.04022 
15498 1 1.02247 3.17672 -1.45529 
12139 1 -3.55083 2.10612 -0.454299 
12140 2 3.33968 -1.52164 -1.19658 
914 2 -0.400712 -2.91652 -0.989386 
913 1 -1.38935 1.80563 2.41003 
12141 1 -0.424117 5.35411 2.02098 
15907 1 -0.276866 -0.976364 0.86915 
20580 1 -4.01977 0.846885 0.41235 
19046 2 1.91123 -0.875809 1.43505 
2120 2 3.86515 1.96131 0.148339 
20251 1 -0.228387 -7.7923 0.769727 
2121 1 0.881655 4.06997 -0.905903 
20252 2 -0.856762 0.0356979 -0.953346 
19047 1 -0.474165 -0.435265 -0.346793 
2041 1 -3.70307 -2.69079 2.45002 
18528 1 6.54328 -1.09899 -2.84482 
20253 1 2.2784 5.61996 5.47812 
21057 1 5.2265 5.71793 -5.83947 
21060 1 -4.13303 7.9669 4.77128 
21059 2 -1.00384 1.96658 -0.95443 
21058 1 2.63293 -0.150542 -1.36271 
21169 1 3.96093 1.72481 -0.596581 
13665 1 -6.61288 -0.227148 0.0206205 
13664 2 -0.84315 0.417186 2.07687 
16201 1 -3.23405 -4.54647 -4.6074 
16202 2 -2.01873 2.8673 1.14839 
7203 1 2.78559 3.59388 4.3436 
16203 1 0.583905 -0.716592 0.536894 
16499 2 -1.34152 1.73445 -3.77717 
16498 1 10.7754 -4.57656 7.70812 
13356 1 -0.150168 -0.559746 -0.487204 
13355 2 -3.7868 -0.138047 -1.31524 
13354 1 -7.77941 2.18098 -1.83049 
10590 1 -2.08738 -1.89489 -4.11769 
5485 1 0.638318 -1.91634 -4.33822 
15136 1 -6.34024 -1.48856 -2.74232 
20092 1 -7.15477 -5.54241 -0.628377 
12232 1 -0.527736 4.01559 4.33566 
7608 1 4.35385 -2.31245 -2.74029 
7607 2 -0.117732 1.58411 1.4725 
20093 2 -2.65095 3.43503 1.40496 
20094 1 0.676919 0.555702 5.60949 
7372 1 0.751781 -7.09782 3.32975 
7373 2 1.54224 4.70884 -0.148997 
7606 1 8.26985 2.41128 -1.21943 
5486 2 -0.968957 -2.03393 -2.39799 
12600 1 -4.90054 -2.35987 2.64124 
9272 2 0.0683268 -1.19521 1.94917 
10589 2 0.937576 0.195828 2.17577 
11390 2 -1.06969 0.353534 -2.41773 
11389 1 0.0455108 -2.69551 -0.301204 
585 1 1.97819 2.70302 -2.22713 
14365 1 4.77369 2.26938 1.18876 
14366 2 0.658667 1.17738 0.667507 
14367 1 0.573497 -1.10158 2.89327 
3087 1 -2.55783 -4.24238 4.95858 
3086 2 5.18166 1.77435 -1.56099 
10588 1 -0.0354251 0.700662 -4.5468 
17821 1 -6.12102 1.2358 1.11603 
18527 2 4.41635 -3.22044 -1.48654 
2042 2 -0.352194 1.73157 2.06353 
9273 1 -3.80075 2.16406 -5.95897 
14361 1 2.14799 -0.37084 -0.0979565 
18526 1 11.2236 -1.25614 1.21036 
11040 1 1.29766 0.0705652 -5.13526 
11039 2 -1.48288 1.82137 -3.54675 
11038 1 0.0675213 5.24884 -0.527358 
21477 1 -7.349 -5.04534 3.10193 
2043 1 1.96141 0.7884 1.69539 
4378 1 -1.64515 -3.77154 5.37425 
9596 2 -1.58289 -0.268727 2.66888 
9595 1 0.309267 4.57255 3.1571 
4380 1 1.92531 10.3104 -5.67048 
17538 1 -1.96205 -0.230075 -0.69719 
4379 2 -2.37933 -2.86885 -0.712932 
21170 2 -2.40389 -2.48962 3.24575 
21171 1 2.91378 4.82159 0.811305 
4377 1 2.59106 0.542946 -2.63049 
4376 2 -1.82906 -3.06083 -1.20095 
4375 1 1.27323 -2.19054 -2.97252 
1867 1 -4.44268 2.85273 3.62105 
7770 1 -10.2724 -1.1451 3.68472 
1701 1 0.689512 7.34862 0.30583 
12874 1 1.79187 1.4112 -0.0885111 
12876 1 1.53731 -0.090448 -3.1962 
20247 1 1.98445 2.00472 3.81083 
12875 2 3.78731 -0.0333187 0.376059 
19875 1 -2.46899 -0.78899 1.03122 
19874 2 -2.01488 -0.435918 3.88922 
19873 1 4.25341 -1.47131 -2.99824 
9832 1 -2.93031 -1.83402 1.32574 
10842 1 1.90042 -0.474016 -1.69868 
3859 1 -5.42887 -3.20587 -0.121468 
3860 2 0.725583 0.824067 0.688573 
489 1 -3.45907 1.76077 -4.37062 
11638 1 -0.504404 0.88861 -1.44982 
7374 1 -2.21411 2.29721 0.324778 
19059 1 -3.54471 -3.22473 -0.333568 
3861 1 -1.66301 -0.0705703 -0.868328 
13296 1 7.39779 -1.55519 -4.9591 
13295 2 0.863697 0.634871 -4.45952 
19058 2 1.52212 -2.19305 3.88703 
19057 1 -2.29923 -2.19549 0.28302 
15378 1 -2.70888 -1.46611 0.287656 
15377 2 -0.712025 1.45988 1.07028 
3230 2 0.135905 -0.567164 -1.0881 
11391 1 -2.44644 -0.402424 6.71325 
17822 2 4.07935 -3.56142 -0.541206 
3229 1 -4.88131 -1.56892 -5.05634 
3085 1 -1.47358 -1.59152 -1.15838 
10345 1 6.71902 -1.58266 -1.1896 
3267 1 -2.92049 -2.973 -4.95268 
17823 1 -0.133912 -2.53749 0.874773 
3265 1 1.88173 -0.0282966 -8.83818 
3266 2 0.132326 -1.63684 4.31602 
18813 1 3.99176 -4.94715 4.62022 
7880 2 0.56076 4.60826 -2.28883 
14360 2 1.13837 0.584676 0.958181 
7881 1 2.33406 2.87203 2.45803 
16606 1 4.08521 -2.31692 -2.68776 
5223 1 -2.21627 -0.275247 -0.219646 
18812 2 3.0299 0.201948 -0.237894 
16607 2 -1.63149 -0.29142 2.71096 
21475 1 6.46127 6.53087 -4.92462 
2527 1 -0.420192 -3.49277 -3.70162 
15550 1 -1.0033 6.85666 4.88258 
2529 1 -2.25412 -1.64175 1.56483 
2528 2 2.39858 1.95085 0.966755 
7879 1 -2.92983 0.409011 0.850468 
21476 2 -0.0485735 0.850269 1.80782 
14359 1 -2.26152 -3.94124 -2.38976 
15552 1 -1.50707 0.697536 -1.98978 
13978 1 -0.54055 2.31218 -1.78099 
13566 1 4.23625 1.53746 -4.29776 
15545 2 1.00722 1.589 0.250892 
17536 1 -7.20752 2.82267 -1.7695 
7701 1 -3.52421 -1.90251 -0.56398 
15544 1 1.85366 -1.81041 1.1698 
4576 1 -3.41515 3.00841 2.82889 
15551 2 3.91892 3.13137 -2.19208 
13979 2 -0.769568 3.29095 0.619602 
17537 2 2.12475 -0.0889955 4.30091 
15546 1 -4.6017 -7.46586 -2.32079 
13980 1 -3.20149 -5.75231 4.42726 
16483 1 3.15828 -4.57615 -4.56287 
1868 2 -1.27838 0.0162011 0.661554 
1700 2 2.9114 -2.39858 -2.17555 
1869 1 -2.58091 -4.16566 5.27157 
3616 1 -2.79383 -2.22455 5.254 
4542 1 -0.834262 1.82387 6.43414 
4541 2 0.820925 1.75756 -2.01693 
1314 1 2.00756 1.15174 4.03507 
1312 1 -0.323204 1.30398 -4.4201 
1313 2 -0.146904 -0.690019 -2.37984 
2358 1 -6.61196 1.12893 -0.763321 
14430 1 3.39259 0.941563 -0.582838 
14428 1 2.34698 7.56395 2.80592 
14429 2 -0.391824 -1.58901 1.78099 
6395 2 1.78272 1.80478 -0.310267 
6396 1 0.0121387 0.334939 -1.04775 
14297 2 2.14887 0.109208 3.19148 
14298 1 -0.312254 3.31293 -7.95067 
15908 2 -0.770222 4.78386 -2.1129 
19692 1 -0.778291 -1.72154 0.123042 
15909 1 2.46008 1.19093 -1.6185 
19691 2 -0.643085 -1.37919 0.222689 
19690 1 0.498086 3.67578 -3.46936 
10463 2 -0.967081 -1.41197 1.63692 
10462 1 -6.98551 -0.293649 -0.297643 
4264 1 -3.06082 3.73271 3.55949 
4265 2 1.03098 2.2713 -2.95264 
4688 2 -2.7831 0.404482 -1.05362 
4687 1 2.70135 4.57318 -2.92017 
16765 1 2.64918 5.87068 -2.83389 
16767 1 -0.0705091 5.14139 5.31007 
16766 2 -0.791016 -0.240723 -0.249912 
20631 1 -2.80804 4.88481 -2.36907 
4689 1 -0.345817 -4.24692 -3.12263 
20022 1 -3.62622 -4.59856 -0.510635 
16604 2 -0.217603 0.419723 3.62207 
16605 1 -3.82774 0.00244053 -0.664476 
1831 1 7.36044 -1.15616 0.64672 
6394 1 -2.84011 -0.279844 -1.01367 
7762 1 1.67037 -0.423688 0.556116 
7763 2 0.470478 0.295421 -0.728539 
7764 1 5.09978 -1.01633 -4.91712 
1717 1 4.17508 -3.3049 -6.76807 
1718 2 1.10906 0.314553 1.26326 
14296 1 -0.380047 -0.750116 -4.42819 
19438 1 3.31895 3.74781 -0.714237 
8674 1 -1.6729 -0.43372 0.550952 
19440 1 -1.56721 -5.57607 2.52633 
19439 2 -0.895363 -0.686052 -2.9536 
9117 1 -0.646152 3.94292 3.4764 
19013 2 -4.79113 -5.63806 -0.846649 
9116 2 1.94481 0.361642 -0.0674508 
19012 1 -0.877075 -4.01147 -1.1125 
10464 1 2.33819 -1.7251 -2.81028 
13807 1 -1.07973 -1.08803 1.11506 
13808 2 1.39576 0.446111 -2.31212 
13809 1 0.682615 -0.259483 -0.494691 
13663 1 0.710291 -1.19736 1.11679 
8161 1 0.538502 2.57984 -2.08084 
4266 1 6.35174 -1.67897 -0.0378845 
5730 1 -0.987836 4.2778 1.77834 
5728 1 1.3389 -9.5754 5.15845 
15955 1 -2.62082 0.0139934 1.58088 
5729 2 1.0932 1.40397 -2.53425 
8162 2 -4.4732 1.83315 3.8427 
15205 1 2.11046 -1.66309 0.340081 
21291 1 1.38107 -4.90698 6.70689 
15206 2 2.94457 -1.46808 -1.73981 
15207 1 5.22652 5.24796 2.57196 
20630 2 0.326017 -2.80855 -0.409569 
20021 2 -1.77507 1.21653 -0.394814 
20020 1 -1.79866 -2.29409 3.98383 
17682 1 1.34642 1.94524 2.84036 
17681 2 -3.61163 -0.269197 1.54154 
17680 1 6.86846 -2.66762 1.6466 
2989 1 3.17917 4.8085 0.872912 
12599 2 -2.90892 -1.59908 2.36013 
16603 1 -3.55957 3.18933 -4.67797 
4788 1 3.78342 -1.47456 2.22496 
4787 2 -2.15496 5.18741 3.35054 
4786 1 7.32729 -1.62234 1.70989 
14599 1 -6.9224 -9.10146 -1.91141 
14600 2 1.04996 4.18781 -1.06672 
1719 1 0.732148 -0.809593 -1.32023 
13123 1 0.593365 3.95593 6.90088 
13124 2 -0.768751 -0.28682 -0.397248 
13125 1 -1.48115 -1.51165 -0.900624 
21145 1 0.773417 1.50963 -3.30073 
8676 1 2.88627 -0.774141 0.426743 
21146 2 1.35067 0.757015 -1.44672 
8675 2 3.0353 3.34068 0.997414 
7749 1 4.40079 -0.994316 -1.14455 
9115 1 4.9984 -0.938068 0.992909 
16107 1 1.613 0.418199 2.26038 
7748 2 -1.98331 0.432253 -1.77037 
16106 2 -1.33181 -1.00576 -2.31124 
16105 1 -3.1449 -1.50632 -0.913745 
15786 1 1.18651 -7.36634 7.26424 
1166 2 0.131598 3.87635 2.39834 
7747 1 1.78883 1.34263 5.07234 
6214 1 0.955595 1.85519 -2.70355 
1165 1 3.28807 0.174606 -1.10079 
15785 2 1.13075 -3.8721 -3.71592 
20578 1 -2.10353 -3.08795 2.27075 
1167 1 -4.72161 1.80683 -0.884862 
20579 2 -1.06508 1.64212 2.34392 
7804 1 -1.89123 -0.693462 -1.14999 
17272 1 5.67411 -0.718997 0.0722704 
17273 2 0.643657 -3.32019 -0.155404 
17274 1 0.765557 -10.2998 2.51188 
2065 1 -5.41992 0.250691 0.0182892 
5171 2 -0.860363 2.44333 1.12626 
5170 1 5.91009 -0.506468 2.78555 
5172 1 1.58028 -1.41711 -2.38911 
2066 2 0.710964 -2.29149 -0.195934 
7806 1 -3.33786 -2.00915 -5.31065 
7805 2 -3.50143 -4.52102 -4.46351 
9597 1 -0.585242 2.3063 -0.107391 
7768 1 3.79583 -1.04708 -1.52502 
15956 2 -1.21213 -2.00185 1.80553 
15957 1 0.260057 -6.28864 3.41627 
7769 2 -0.0760531 4.54811 1.90796 
11465 2 2.66172 -0.763382 -0.53612 
11466 1 2.11734 -6.08372 0.0905679 
3788 2 2.6097 2.02245 -2.50455 
3787 1 1.88418 1.91932 0.863183 
11464 1 5.0287 -2.47748 1.46713 
11729 2 -0.159012 -0.513745 1.25613 
11728 1 -3.49809 0.541465 6.06607 
12502 1 0.898312 1.34598 -4.02922 
12503 2 -0.75461 3.95205 -1.5418 
2990 2 -0.365838 -3.34751 2.25349 
2991 1 -3.20011 3.85539 2.51477 
11983 1 0.916602 0.103382 -4.31581 
12598 1 -2.28524 2.69617 -0.828142 
12504 1 3.86584 -5.23059 2.02069 
16174 1 1.01648 2.10938 3.78213 
16175 2 -1.16942 0.0242829 -0.201997 
14601 1 -0.10544 -0.326609 2.28889 
3231 1 1.86159 -1.57544 0.527893 
7417 1 -3.35778 -1.95306 2.62356 
12296 2 1.83228 -0.0130998 1.97689 
7418 2 -2.69602 4.01298 0.17167 
16176 1 3.71606 0.870392 -0.34687 
7419 1 -2.81177 -5.68191 2.99952 
687 1 1.07956 -2.19466 2.18141 
12297 1 5.8454 4.20793 -0.810499 
7741 1 -0.396833 3.16318 -0.794296 
18811 1 -2.32111 -5.03597 1.48004 
21359 2 0.331965 -2.27175 -0.321348 
6215 2 -1.43936 1.16829 1.37104 
6216 1 -2.83879 -0.0382945 -4.88255 
21360 1 -0.387425 3.13972 3.54971 
7292 2 1.80113 -1.09906 -0.0114177 
6184 1 3.72167 4.23699 -2.88219 
15784 1 -5.11287 -3.85552 3.07437 
21358 1 3.2389 -2.04713 2.60081 
7293 1 -2.07129 1.2519 -0.889985 
4959 1 -3.43003 8.33934 -1.5117 
18388 1 0.291369 2.13163 -2.86867 
12342 1 -1.13316 3.83416 -0.766144 
2067 1 -0.209442 -1.5797 3.1625 
1981 1 0.0230616 2.84151 -4.34331 
16904 2 -0.0111079 0.742644 -1.40279 
16903 1 -1.68775 -2.69336 1.533 
6186 1 1.41981 -4.609 -6.95313 
6185 2 0.036739 1.50121 3.92184 
12341 2 2.65906 -0.143634 -3.02654 
1982 3 2.66167 0.301714 1.30667 
1983 1 -3.69548 0.805192 -4.47896 
16905 1 -1.40175 0.131051 0.339459 
11888 2 -0.451161 0.367353 -6.16719 
11889 1 0.938019 -2.85229 -5.66754 
12340 1 -0.978262 5.98796 4.72237 
6183 1 -3.3534 -3.20766 2.76153 
6182 2 -3.11389 -1.26451 0.920018 
6181 1 -3.47758 7.0783 -0.272893 
1699 1 2.19329 -4.62976 0.958914 
11887 1 2.82348 1.82622 -0.190797 
14311 1 1.06204 1.8799 0.596104 
981 1 -2.4403 -3.37597 -1.43334 
19014 1 -1.09648 -2.68095 -2.78972 
7542 1 1.62412 -10.1044 -2.93138 
7540 1 -0.900791 4.3741 0.707529 
14743 1 -2.00047 2.4116 0.473187 
7541 2 0.705673 2.4141 4.1517 
8163 1 0.466177 -0.456755 2.44742 
13413 1 -2.40455 -4.99824 -9.21252 
980 2 4.15477 0.188536 -2.01292 
979 1 -2.04333 -0.428528 -0.727302 
13412 2 -0.160933 2.99207 -2.48397 
13411 1 -3.02464 -1.57494 -6.1293 
20629 1 -3.62406 3.83801 1.29871 
21295 1 -0.567376 -2.09391 -0.922718 
21290 2 0.0637361 -0.456732 -4.8785 
21289 1 1.57398 2.00205 0.365277 
21296 2 1.18009 0.331451 3.43882 
21297 1 -1.50177 -0.345044 1.63264 
15987 1 0.907432 -0.677011 -2.42446 
1020 1 -2.4098 0.539934 -0.0676493 
1019 2 0.273076 -4.76159 0.486257 
3003 1 5.00543 -1.18582 2.47383 
1018 1 -0.495502 1.14219 -4.82416 
4327 1 1.6039 2.78902 -2.23468 
4329 1 0.569627 -7.84454 3.16605 
3001 1 2.33801 2.04561 4.22807 
4328 2 3.42903 -0.41444 -1.96867 
3002 2 1.91213 -0.519907 1.38912 
11984 2 -3.64543 2.9696 0.183069 
11985 1 0.517629 -3.99568 -5.94054 
15986 2 1.2342 -0.489229 -0.736949 
15985 1 -6.15125 4.64915 0.877095 
18946 1 -1.00142 4.85637 3.91807 
18947 2 -0.95992 1.69751 -2.45419 
18948 1 -2.41244 -2.63364 11.9832 
556 1 0.470914 2.95095 0.149419 
21147 1 -4.62772 -0.511321 -1.73273 
15201 1 -4.83649 0.208258 0.175786 
15199 1 -8.59922 1.46727 3.11538 
15200 2 -1.22859 -3.16099 0.678917 
6574 1 -0.541185 -2.0861 0.396662 
6575 2 0.929249 -2.75911 2.12913 