LAMMPS data file via write_data, version 7 Aug 2019, timestep = 40000000

2448 atoms
3 atom types
2343 bonds
3 bond types
2238 angles
3 angle types

0.0000000000000000e+00 5.0000000000000000e+01 xlo xhi
0.0000000000000000e+00 5.0000000000000000e+01 ylo yhi
0.0000000000000000e+00 5.0000000000000000e+01 zlo zhi

Masses

1 0.25
2 0.5
3 0.5

Bond Coeffs # harmonic

1 6000 0.15
2 2000 0.4
3 2000 0.4

Angle Coeffs # harmonic

1 100 180
2 50 180
3 50 180

Atoms # angle

8893 1 1 1.4403860861430228e+01 3.1812099293481236e+01 4.8717589303454307e+00
2219 2 2 1.1754311377785900e+01 3.5317688697363820e+01 1.9454558635577452e+01
2220 1 1 1.1825597479912579e+01 3.5101898981365785e+01 1.9102094786464274e+01
4544 2 2 1.1326863889207708e+01 3.5757192475982414e+01 2.0203238024814233e+01
4543 1 1 1.1096859172105322e+01 3.5962568002570933e+01 2.0555197476727614e+01
16224 1 1 1.1014165369014169e+01 3.6027980110540348e+01 2.0686890583755648e+01
16223 3 3 1.0818395651845885e+01 3.6134202525931848e+01 2.1017523479393184e+01
16222 1 1 1.0577579313555255e+01 3.6233879435794499e+01 2.1278607988605582e+01
4545 1 1 1.1514994148384954e+01 3.5602039145204337e+01 1.9885416201855406e+01
2218 1 1 1.1595989839684670e+01 3.5513105707035947e+01 1.9747169614816897e+01
14680 1 1 9.7741657282665315e+00 3.6399074063587769e+01 2.1863697293065322e+01
14682 1 1 1.0467567992954164e+01 3.6240469611435110e+01 2.1382601649927203e+01
14681 3 3 1.0132341506977514e+01 3.6293882146337623e+01 2.1650636690033473e+01
728 3 3 1.4656194898646085e+01 4.1116621528408402e+01 1.4453369905619176e+01
10496 2 2 1.4236459561558254e+01 4.1361326372404619e+01 1.5260634379370588e+01
727 1 1 1.4514439769141946e+01 4.1246909249032868e+01 1.4810139701967575e+01
10497 1 1 1.4434953117838722e+01 4.1284458427587658e+01 1.4914984684642679e+01
10495 1 1 1.3956698314866157e+01 4.1435237385496038e+01 1.5578804984602026e+01
5307 1 1 1.4305321061857926e+01 4.2320388134739240e+01 1.8082724517312197e+01
5306 2 2 1.4106621802286291e+01 4.2448998728151452e+01 1.8418935835524703e+01
5305 1 1 1.3900415735720024e+01 4.2427467652831247e+01 1.8757333665770400e+01
1471 1 1 1.0933544493042278e+01 4.4691223058649804e+01 2.2808950389320216e+01
1472 3 3 1.0754180173211592e+01 4.4906317537148482e+01 2.3128545187857853e+01
1473 1 1 1.0609911445478332e+01 4.5070964951190611e+01 2.3505417470222572e+01
19339 1 1 1.0543880881226219e+01 4.5128522598114941e+01 2.3652418336780762e+01
19340 3 3 1.0416163405507909e+01 4.5297434667404573e+01 2.4002133660053463e+01
19341 1 1 1.0404908950939804e+01 4.5483723163886047e+01 2.4337243648542266e+01
1420 1 1 1.0402117716060229e+01 4.5542052989091076e+01 2.4466651214689136e+01
6225 1 1 1.0397280526555928e+01 4.6351849311370621e+01 2.5916349591904698e+01
1421 3 3 1.0364055932483511e+01 4.5686928582505679e+01 2.4861464722382181e+01
6224 2 2 1.0481377457458199e+01 4.6092245444662225e+01 2.5613939640180266e+01
1422 1 1 1.0416607644951029e+01 4.5853442165462887e+01 2.5156713876691448e+01
6223 1 1 1.0460050678915827e+01 4.5914956182661136e+01 2.5283951672470426e+01
4017 1 1 1.0379346841600402e+01 4.6496574607783728e+01 2.6039306485162907e+01
16746 1 1 1.6834133135518105e+01 2.4169499311203278e+01 1.3980444352261308e+00
16745 2 2 1.7012185682336064e+01 2.4021730849470853e+01 1.7133161778122650e+00
16744 1 1 1.7153651126438252e+01 2.3749291113613523e+01 2.0177950424340128e+00
11590 1 1 2.5016956272951312e+01 2.2081385349066316e+01 4.6752725443495491e+00
11591 2 2 2.5346671293582798e+01 2.2077276982575484e+01 4.9146982672042965e+00
11592 1 1 2.5639575937117488e+01 2.2033235114101359e+01 5.1565807089857909e+00
2275 1 1 2.5747658581386862e+01 2.1991359077108932e+01 5.2722886843019756e+00
8894 2 2 1.4747519130458379e+01 3.1929016972070766e+01 5.0606371102610828e+00
8895 1 1 1.5077195311165694e+01 3.1983396089780761e+01 5.2371532129145777e+00
3307 1 1 2.5986944678849856e+01 2.3272619550813150e+01 9.0327763952875380e+00
20699 2 2 1.7475983774954418e+01 2.3727243663524405e+01 8.8831179290359437e+00
20700 1 1 1.7148588251299454e+01 2.3681401713184947e+01 8.6401997128412003e+00
20698 1 1 1.7758029657358790e+01 2.3822738971236561e+01 9.1366389576578300e+00
20775 1 1 1.9031775371031696e+01 2.7952498211362585e+01 9.1929145381874253e+00
18846 1 1 1.8934146280870436e+01 2.7860616687709889e+01 9.2492930886223022e+00
20774 2 2 1.9344939106285679e+01 2.8164877159853841e+01 9.0009460923739653e+00
20773 1 1 1.9672200016720144e+01 2.8373518473638434e+01 8.8436346977519307e+00
9061 1 1 2.5087693335961969e+01 2.0674607065152518e+01 1.0201171850079710e+01
9062 3 3 2.5284132618695867e+01 2.0870777818629513e+01 1.0495789972916313e+01
9063 1 1 2.5486988632628883e+01 2.1100845507914087e+01 1.0789364118305301e+01
9773 2 2 2.5814128089994270e+01 2.2422655706758903e+01 1.0277511193414592e+01
9772 1 1 2.5910946915797275e+01 2.2160965091128709e+01 1.0071882595361876e+01
9774 1 1 2.5683709427726683e+01 2.2680139294288761e+01 1.0539360975416388e+01
16266 1 1 2.5634405798726998e+01 2.2758879563065612e+01 1.0653634718407533e+01
5695 1 1 2.5787272473402556e+01 2.4395385679608552e+01 1.0069876406336158e+01
5696 2 2 2.5911053778077285e+01 2.4584066814445148e+01 1.0442364826340480e+01
18844 1 1 1.8410837425707772e+01 2.7423928477230447e+01 9.5853073645391174e+00
18845 2 2 1.8675333333948402e+01 2.7663720793011592e+01 9.4641850177908395e+00
7833 1 1 2.5557241293839521e+01 2.1200540202966366e+01 1.0867487747795192e+01
7832 2 2 2.5727390229984113e+01 2.1541758317591810e+01 1.1040469666124213e+01
16265 2 2 2.5526077227921832e+01 2.2978733886416634e+01 1.0951057879709708e+01
900 1 1 2.5833288655826919e+01 2.1989033441168733e+01 1.1425307066851898e+01
7831 1 1 2.5816442054978946e+01 2.1878354158983697e+01 1.1332768893651455e+01
16264 1 1 2.5449208487202412e+01 2.3189387094873130e+01 1.1315263348174437e+01
1281 1 1 2.5438264880923043e+01 2.3266113819537249e+01 1.1439842830244459e+01
3262 1 1 2.5816060614752267e+01 2.2432376846600054e+01 1.2255305655049613e+01
898 1 1 2.5831607601022935e+01 2.2396763260064336e+01 1.2090755351054341e+01
899 2 2 2.5860181985110295e+01 2.2237209328966554e+01 1.1742045844022662e+01
1280 2 2 2.5459379680391798e+01 2.3456243730628749e+01 1.1810795198895905e+01
1279 1 1 2.5617369239858334e+01 2.3578827935639044e+01 1.2165690553136626e+01
10426 1 1 2.5665236665950140e+01 2.3618429236062084e+01 1.2341496395061178e+01
9242 2 2 2.5935484818886476e+01 2.2875788555455820e+01 1.3485478587334249e+01
9241 1 1 2.5950357495332206e+01 2.2966659319552239e+01 1.3838659543488545e+01
3264 1 1 2.5870814002855361e+01 2.2667693104713994e+01 1.2970924551198696e+01
3263 2 2 2.5851372059086497e+01 2.2569059970535541e+01 1.2608384003808078e+01
9243 1 1 2.5891772399552107e+01 2.2727568990052195e+01 1.3127519617124285e+01
10428 1 1 2.5752301386967527e+01 2.3841737419015281e+01 1.3071937318689496e+01
10427 2 2 2.5686839476658811e+01 2.3719142591816709e+01 1.2720868396514806e+01
19657 1 1 2.5753446173524885e+01 2.3886392954081092e+01 1.3194646436158166e+01
19658 2 2 2.5821346578070351e+01 2.3985436639965819e+01 1.3494100438125869e+01
19659 1 1 2.5882157685212672e+01 2.4121471991201808e+01 1.3840056313807338e+01
4159 1 1 2.5714981113543288e+01 2.5727787251392940e+01 1.2375596444827359e+01
4160 2 2 2.5665409392830579e+01 2.5965521995182552e+01 1.2687713784064330e+01
20337 1 1 2.5628890861491040e+01 2.6245603507821489e+01 1.3202916913055143e+01
4161 1 1 2.5636136380088171e+01 2.6156435109525656e+01 1.3056418779321888e+01
20336 2 2 2.5666395300379637e+01 2.6433451492918483e+01 1.3594785543229941e+01
1251 1 1 1.7626878925637158e+01 3.3625175515590882e+01 1.3456509919134866e+01
1250 2 2 1.7811500488061625e+01 3.3633578660069119e+01 1.3141001878853286e+01
4870 1 1 1.7565069253711172e+01 3.3655627051864272e+01 1.3599125060059613e+01
1249 1 1 1.8033017365594691e+01 3.3635940558585283e+01 1.2818272588590713e+01
20866 1 1 2.6003775091549603e+01 2.3249742429633912e+01 1.4798569416860833e+01
19018 1 1 2.6003090261577320e+01 2.3278652161690296e+01 1.4913840732238707e+01
20867 2 2 2.5998918710987379e+01 2.3103390710659856e+01 1.4354146721168318e+01
20868 1 1 2.5975234965700153e+01 2.3001069401896082e+01 1.3953641102639869e+01
9099 1 1 2.5999119866257818e+01 2.4353123428812371e+01 1.4944852032696653e+01
13800 1 1 2.5893621166454228e+01 2.4147540306190255e+01 1.3987886486843248e+01
13799 2 2 2.5928976138221589e+01 2.4253994498633169e+01 1.4405708980794664e+01
13798 1 1 2.6010207218441138e+01 2.4325808527983995e+01 1.4813238008253427e+01
20335 1 1 2.5676469855432920e+01 2.6650544037412701e+01 1.3912962066134988e+01
4872 1 1 1.7410089629210351e+01 3.3981148194216495e+01 1.4305239633317976e+01
4871 2 2 1.7415434705616835e+01 3.3815109852431384e+01 1.3950704549598807e+01
3379 1 1 2.5895307203683316e+01 2.1276001455659287e+01 1.8316972688563204e+01
9059 3 3 2.5439476945178303e+01 2.1220141679580962e+01 1.8498134692728438e+01
9058 1 1 2.5792360109846840e+01 2.1255081926555789e+01 1.8390975526809545e+01
9060 1 1 2.5119080874362936e+01 2.1154036136103585e+01 1.8707603041583116e+01
501 1 1 2.5189519859452268e+01 2.7127642078401468e+01 1.9206489324838671e+01
12376 1 1 2.5298707748526812e+01 2.7139244571705404e+01 1.9095661017257108e+01
500 3 3 2.4879215845890865e+01 2.7133019707290753e+01 1.9441287099979938e+01
12377 2 2 2.5632656346771558e+01 2.7111952293648244e+01 1.8864141879193959e+01
499 1 1 2.4583146240448045e+01 2.7238644393983577e+01 1.9655233025562364e+01
12378 1 1 2.5941268108653823e+01 2.7037635062629228e+01 1.8695163996227190e+01
13198 1 1 1.5048839226358043e+01 4.0330856687027641e+01 1.3414012131925412e+01
13199 2 2 1.4934353266520098e+01 4.0631430666546898e+01 1.3732032127748662e+01
729 1 1 1.4783058178317789e+01 4.0864401958279380e+01 1.4160579785655894e+01
13200 1 1 1.4819324995564498e+01 4.0794976537959045e+01 1.4064792713814487e+01
9936 1 1 1.7878114655515262e+01 4.0630882678916763e+01 1.5007118272703462e+01
9934 1 1 1.8111953052306003e+01 4.1410605441413615e+01 1.5029389827840967e+01
9935 2 2 1.8028327140495978e+01 4.0972178707821065e+01 1.5021575933697985e+01
8020 1 1 1.7402575053829167e+01 4.1759364668281471e+01 1.6818179791647427e+01
8022 1 1 1.7245243180429608e+01 4.2051571794717304e+01 1.7591438448970329e+01
8021 2 2 1.7266492096755687e+01 4.1911617607252296e+01 1.7209285476864192e+01
12090 1 1 2.1195727575743440e+01 2.3028173320110984e+01 3.0632080794048552e+01
12088 1 1 2.1196124577385408e+01 2.3290599973852771e+01 2.9902895582148744e+01
12089 2 2 2.1210629616564493e+01 2.3198312842485013e+01 3.0281054903379392e+01
4485 1 1 1.5740964518869060e+01 2.6565475418703571e+01 3.3694024363886165e+01
4484 2 2 1.5667555252112308e+01 2.6754167847594029e+01 3.3306563578559910e+01
4483 1 1 1.5373137497351562e+01 2.6812083767447064e+01 3.3015282263713857e+01
21559 1 1 5.4607614738436921e-02 2.7188412285309209e+01 3.4577313902538904e+01
8184 1 1 7.1746112526136914e+00 2.7031470711023864e+01 3.6035915056087021e+01
8182 1 1 7.3015177164135583e+00 2.7810041511052280e+01 3.5944624035547498e+01
8183 2 2 7.2657706315923978e+00 2.7402275670627272e+01 3.5977418626288134e+01
8759 2 2 4.3434708186221789e+00 2.3139943649271721e+01 3.8821156866002624e+01
8758 1 1 4.5333100098254810e+00 2.3218939810050440e+01 3.8496279677321745e+01
8760 1 1 4.1658329614357159e+00 2.3078434339719152e+01 3.9195439047823001e+01
16896 1 1 4.8456972927889366e+00 2.4872422776431250e+01 3.8227338205629827e+01
16945 1 1 3.9883350532445201e+00 2.5652009151886091e+01 3.9121913717744597e+01
16946 2 2 4.2843550211503842e+00 2.5352837849632554e+01 3.9197427405644419e+01
16895 2 2 5.0973554302794879e+00 2.5012087803192884e+01 3.8543169849071482e+01
16894 1 1 5.2611340777951394e+00 2.5105794094041681e+01 3.8935295498670683e+01
16947 1 1 4.4458041288900176e+00 2.5086893583307219e+01 3.9344491325872610e+01
7432 1 1 6.0605945360822604e+00 2.8446418429890770e+01 4.1384149805039144e+01
7433 2 2 6.2831821748557344e+00 2.8663983676391133e+01 4.1594064272258130e+01
7434 1 1 6.5726228362789803e+00 2.8885209941443478e+01 4.1753182417589059e+01
13777 1 1 1.8034476048693779e+01 1.0538881708005139e+01 4.5726768626921363e+01
13779 1 1 1.8332693280226156e+01 1.0610188777158125e+01 4.6447032897133482e+01
13778 2 2 1.8174560852164980e+01 1.0641292297556451e+01 4.6074353092620129e+01
7565 2 2 2.2367675212076911e+01 1.3959601439578615e+01 4.7385640615465910e+01
7566 1 1 2.2757872939652664e+01 1.3956327169759913e+01 4.7529252724490419e+01
7564 1 1 2.1953921681786088e+01 1.3919959010107993e+01 4.7295194000097332e+01
4016 2 2 1.0332456788592584e+01 4.6774539986180862e+01 2.6316791150402679e+01
4015 1 1 1.0397259096747435e+01 4.7050793570894378e+01 2.6585011502257462e+01
11415 1 1 1.0391360783058857e+01 4.7175316474009016e+01 2.6674591879139452e+01
11414 3 3 1.0397470325260183e+01 4.7460026113308579e+01 2.6958720120137048e+01
11413 1 1 1.0404360561936096e+01 4.7726480268654043e+01 2.7211948752025222e+01
9318 1 1 7.0549767411777218e+00 3.2239080307859126e+01 3.3846581162036522e+01
9317 2 2 6.7321322135138892e+00 3.2389198033910986e+01 3.3646239772213534e+01
9316 1 1 6.3879613630329795e+00 3.2434469167771702e+01 3.3451877918023172e+01
17800 1 1 3.7208378831018407e-01 3.9766005652921436e+01 3.4198502599789236e+01
17802 1 1 9.7623135316446386e-01 4.0330859060571569e+01 3.4042768165496085e+01
17801 2 2 7.0842408853220362e-01 4.0027321171707186e+01 3.4120714257886647e+01
15526 1 1 2.6927101684063898e-01 3.9727453505651006e+01 3.4236960249752542e+01
9330 1 1 7.6255563653084959e+00 3.3818837033291970e+01 3.6176943408443130e+01
9329 2 2 7.8439457643419583e+00 3.4125011845242163e+01 3.6282944282028097e+01
9328 1 1 8.0298437886745422e+00 3.4451302159766108e+01 3.6481831599670123e+01
15312 1 1 2.6288998905786066e+01 2.1851913338497504e+01 6.1034566526756668e+00
2277 1 1 2.6257563352127761e+01 2.1852291090789670e+01 5.9831071258970914e+00
17828 2 2 2.8880713604086043e+01 2.1469044906690627e+01 6.0760015853163001e+00
17827 1 1 2.8891554504151454e+01 2.1514364495858921e+01 5.6800527949584820e+00
6313 1 1 2.8203389087585954e+01 2.0554906348176786e+01 5.6132956073581584e+00
6314 2 2 2.8177157083143133e+01 2.0568877876377307e+01 5.9740796776526901e+00
14703 1 1 3.0119942961394781e+01 2.1177092152254545e+01 5.9901827469119189e+00
2276 2 2 2.6052243459496303e+01 2.1942683174407463e+01 5.6058756284356237e+00
12277 1 1 2.8213247544436022e+01 2.2268042619393675e+01 5.9144798999736201e+00
12278 2 2 2.7965598871342934e+01 2.2287211029609242e+01 6.2087008104637409e+00
18475 1 1 2.9606337514029274e+01 2.4607398191204854e+01 5.9592860990731031e+00
18476 2 2 2.9855339086956100e+01 2.4765102235183054e+01 6.2574324658529799e+00
15189 1 1 3.1674645463432650e+01 2.4854314902450099e+01 5.9196101693706105e+00
1579 1 1 3.3723796846735659e+01 2.3696472417751128e+01 6.2511409606555883e+00
15310 1 1 2.6467687677694066e+01 2.1852692039883738e+01 6.9089122511652228e+00
15311 3 3 2.6395728165205885e+01 2.1892737963358510e+01 6.4991593432137158e+00
4401 1 1 2.6490906015490069e+01 2.1875446428144695e+01 7.0449079332643718e+00
17829 1 1 2.8927319039889646e+01 2.1503655729016788e+01 6.4672837817991402e+00
6315 1 1 2.8154508724433910e+01 2.0695491685553929e+01 6.3767895458028283e+00
9925 1 1 2.8126215666577341e+01 2.0725383653421602e+01 6.5322252157847371e+00
9926 3 3 2.8122709809179547e+01 2.0813636284512587e+01 6.9038182465435556e+00
9927 1 1 2.8201431593652551e+01 2.0821245947904696e+01 7.3045028060833426e+00
18235 1 1 2.8250145111394033e+01 2.0834843663272427e+01 7.4592668885371793e+00
12318 1 1 2.8925538554431824e+01 2.1543203445760142e+01 6.6266356898387144e+00
12317 3 3 2.8931784133601226e+01 2.1654458102275171e+01 7.0222964654774058e+00
12316 1 1 2.8923053075563452e+01 2.1777678984927501e+01 7.3654448131993622e+00
17349 1 1 2.8919366702844400e+01 2.1809779236945207e+01 7.5348990845041230e+00
18236 3 3 2.8312658022918853e+01 2.0846815320191336e+01 7.8691975386725082e+00
14702 2 2 2.9943360167837614e+01 2.1139767756344945e+01 6.3602892050189137e+00
14701 1 1 2.9910028916480289e+01 2.1083955310747296e+01 6.7508990360484615e+00
4045 1 1 2.9903752305389681e+01 2.1095190245271212e+01 6.9172399542100251e+00
4046 3 3 2.9914647517779507e+01 2.1107634198547469e+01 7.3826155129550139e+00
4047 1 1 2.9848109630496147e+01 2.1048097061551708e+01 7.8061156381204047e+00
4399 1 1 2.6562523305727712e+01 2.2022609561402675e+01 7.7827236228025729e+00
4400 2 2 2.6527530530079300e+01 2.1970198231489551e+01 7.4113481598808173e+00
9030 1 1 2.7298397183028154e+01 2.2831109158107591e+01 7.0274376111398160e+00
9029 3 3 2.7326581517383769e+01 2.2945303558030862e+01 7.3760058297634554e+00
9028 1 1 2.7340391005458855e+01 2.3082132115463224e+01 7.7462055319810483e+00
12279 1 1 2.7801597446208582e+01 2.2250466418264228e+01 6.5939708743745866e+00
17809 1 1 2.7764355453828848e+01 2.2206619472866063e+01 6.7334652451129102e+00
17811 1 1 2.7795584448410072e+01 2.1989252059601629e+01 7.5610059475356666e+00
17810 3 3 2.7721132712676123e+01 2.2084679626224766e+01 7.1496108913421281e+00
10576 1 1 2.8233259265528599e+01 2.3113510534726444e+01 7.3483096400104175e+00
10577 3 3 2.8439795479148174e+01 2.3050765163582327e+01 7.7068015398537915e+00
8428 1 1 2.7812858215767498e+01 2.1971670025460078e+01 7.7161094008241040e+00
9739 1 1 2.9642673298113237e+01 2.2055041483166992e+01 7.0899091734608630e+00
9740 3 3 2.9725530190904628e+01 2.2296713671954834e+01 7.3889785857785855e+00
9741 1 1 2.9709886827881512e+01 2.2570915943745259e+01 7.7413903800280055e+00
4126 1 1 3.0953716930412821e+01 2.3400780265145993e+01 6.4061355603121637e+00
5953 1 1 3.0977022142635633e+01 2.3269555465228727e+01 7.3594036384235579e+00
4128 1 1 3.0956775785085430e+01 2.3305681001197868e+01 7.2176535399945942e+00
4127 2 2 3.0949842466947040e+01 2.3338680552779540e+01 6.8471064133583370e+00
5954 3 3 3.0983536186372156e+01 2.3175470935871026e+01 7.7615580106407238e+00
20681 3 3 3.3214373748305213e+01 2.3044065765220637e+01 7.3292790392374236e+00
20680 1 1 3.3099330404197566e+01 2.2844452509111441e+01 7.6936527465635658e+00
12466 1 1 3.3039638948881020e+01 2.2770390611191832e+01 7.8158685573569153e+00
1581 1 1 3.3323151458598289e+01 2.3338931304901052e+01 6.8392544389405110e+00
20682 1 1 3.3289350239795411e+01 2.3266372547222538e+01 6.9775060767792159e+00
14854 1 1 2.7579610868646927e+01 2.4460372698844033e+01 7.6853532038728476e+00
21312 1 1 2.8772719636979765e+01 2.3947152422595664e+01 7.8295436005141434e+00
10284 1 1 2.9660713409622172e+01 2.4046078799835730e+01 7.1476909497082373e+00
3562 1 1 3.0117489786877506e+01 2.4901001922665639e+01 6.7291396099055056e+00
10283 2 2 2.9742532431501907e+01 2.4052343049195592e+01 7.5012377140283037e+00
18477 1 1 3.0063506525741811e+01 2.4885515941905933e+01 6.6065829346212652e+00
18040 1 1 3.0298701391820511e+01 2.4975925636033004e+01 7.6581472931753432e+00
3564 1 1 3.0268381999229668e+01 2.4997587440447941e+01 7.5245146628330160e+00
3563 3 3 3.0224394696871382e+01 2.4945598484818166e+01 7.1114920383953892e+00
2292 1 1 3.1565204668203521e+01 2.4751306233002271e+01 6.8597415876914996e+00
15187 1 1 3.1570959415411139e+01 2.4772451776413597e+01 6.7084118625900242e+00
2291 3 3 3.1571432783606877e+01 2.4693713589375438e+01 7.2818373606584155e+00
2290 1 1 3.1533835507684785e+01 2.4544560336648523e+01 7.6122749724786978e+00
10885 1 1 3.1515069421222929e+01 2.4485843966230597e+01 7.7149774601847279e+00
15188 3 3 3.1571859494132291e+01 2.4815000032135256e+01 6.3144065759644414e+00
1580 3 3 3.3476583844523411e+01 2.3559351782855451e+01 6.4945178064548097e+00
20545 1 1 2.8422387856338158e+01 1.9127175742071334e+01 7.9335890017670048e+00
15512 2 2 2.8130220871931989e+01 1.9746527990376208e+01 9.2137063888526125e+00
15513 1 1 2.8257651684950989e+01 1.9528499336545099e+01 8.8542987292669881e+00
20547 1 1 2.8306179438244218e+01 1.9471532607066056e+01 8.7022764932778038e+00
20546 3 3 2.8427194249639253e+01 1.9323699563091285e+01 8.2846083586226040e+00
5504 3 3 2.9609264559687272e+01 1.9795107790711970e+01 8.8369310817693254e+00
5505 1 1 2.9551447598442419e+01 1.9865403355656397e+01 9.1821261835189176e+00
1771 1 1 2.9535828085596158e+01 1.9900426974718513e+01 9.3263819251854834e+00
5503 1 1 2.9703357514751442e+01 1.9671963468002531e+01 8.4468935710914828e+00
16507 1 1 3.1707354094967016e+01 2.0335983109760324e+01 8.5174786311855257e+00
13378 1 1 2.7409459535463249e+01 2.0601267714253733e+01 8.1138973277379947e+00
13379 3 3 2.7459413625111868e+01 2.0685469185485694e+01 8.5167883304645944e+00
8332 1 1 2.7537714912929399e+01 2.0866333522890770e+01 9.0258672102072453e+00
13380 1 1 2.7509216365809376e+01 2.0822142487297004e+01 8.8806184294693740e+00
17348 3 3 2.8964098973738789e+01 2.1891053962610862e+01 7.9431606147118936e+00
5655 1 1 2.8728963526943069e+01 2.1012581944158612e+01 9.2681167996776228e+00
18237 1 1 2.8405490460898118e+01 2.0893744609792407e+01 8.2179992518138913e+00
7728 1 1 2.8654121874692205e+01 2.1001284939086098e+01 9.1287837202379372e+00
7727 2 2 2.8517113170973726e+01 2.0985328581143101e+01 8.7510488576576613e+00
7726 1 1 2.8437178011386852e+01 2.0891623817340189e+01 8.3715599428384131e+00
8333 2 2 2.7653259303455780e+01 2.0931320618303573e+01 9.4146208005390619e+00
966 1 1 2.9823880124439182e+01 2.1038950519289489e+01 7.9616316662175484e+00
965 3 3 2.9779941483323821e+01 2.1160730130721383e+01 8.3097280269142129e+00
964 1 1 2.9731282290769460e+01 2.1279293456687995e+01 8.7063416637156230e+00
7038 1 1 2.9736909371768746e+01 2.1319686779965075e+01 8.8390478019572498e+00
7037 3 3 2.9784457448162655e+01 2.1438486603251803e+01 9.2372427603354108e+00
16509 1 1 3.1184249408957783e+01 2.0527100035381800e+01 9.0624851911872497e+00
5497 1 1 3.1085785964171635e+01 2.0543585592405240e+01 9.1711076171550179e+00
16508 2 2 3.1495256359469387e+01 2.0504260072281252e+01 8.7899192662572538e+00
3308 2 2 2.6155266491827327e+01 2.3343256780023420e+01 9.4060187831822475e+00
3417 1 1 2.6570389941629610e+01 2.2040249270435861e+01 7.9022356759713599e+00
3416 3 3 2.6642156240273518e+01 2.2069348277691020e+01 8.2662729675534941e+00
3415 1 1 2.6727814634764151e+01 2.2184295496007469e+01 8.5745398686233418e+00
8035 1 1 2.7344668015338499e+01 2.3106110373945643e+01 7.8913305849652104e+00
14723 2 2 2.6871688965053931e+01 2.2398479237042881e+01 9.0586550361814702e+00
8037 1 1 2.7296349144842360e+01 2.3246974354463514e+01 8.7481098616554700e+00
8036 2 2 2.7278801343136863e+01 2.3151421215770728e+01 8.3060325257042962e+00
7530 1 1 2.7317427167326926e+01 2.3286361785890538e+01 8.9277189291938797e+00
14724 1 1 2.6758188002259882e+01 2.2228908056187461e+01 8.7121482046601137e+00
7529 2 2 2.7338778001154996e+01 2.3335226247620646e+01 9.3195559713332248e+00
8429 3 3 2.7833931407793674e+01 2.1986595725608382e+01 8.1558123484067924e+00
8430 1 1 2.7842919280494900e+01 2.2004815826125864e+01 8.5704756693889443e+00
15182 2 2 2.7875672107438660e+01 2.1976812057917169e+01 9.1394538958474296e+00
15183 1 1 2.7861946814878749e+01 2.1983222510746611e+01 8.7220824458219877e+00
17347 1 1 2.9003446192388072e+01 2.1910208729657750e+01 8.3416843289076379e+00
3057 1 1 2.8990970805040963e+01 2.1917829173873105e+01 8.4814233823051577e+00
3056 2 2 2.8963005146401748e+01 2.1976367538747887e+01 8.8640084377250243e+00
3055 1 1 2.8899002333391792e+01 2.2074030814498968e+01 9.1915638294938535e+00
7510 1 1 2.8870164043682486e+01 2.2085543426981683e+01 9.3405779672413907e+00
10578 1 1 2.8495975500840867e+01 2.3036573912165071e+01 8.0543116167497075e+00
7191 1 1 2.8498626422668064e+01 2.3032713914517441e+01 8.2055817967397804e+00
7190 2 2 2.8521880723959178e+01 2.3010692663076117e+01 8.6003061774138541e+00
7189 1 1 2.8587396409447770e+01 2.3094044115673466e+01 8.9920586108279572e+00
17574 1 1 2.8601405979652480e+01 2.3135755028020519e+01 9.1415732083027379e+00
6972 1 1 2.9691674479860350e+01 2.2679107153137693e+01 7.8904383300546259e+00
6971 2 2 2.9568152430985492e+01 2.2869185176763800e+01 8.2420350869727930e+00
6970 1 1 2.9498389346983231e+01 2.2900608163397070e+01 8.6164085398487202e+00
4116 1 1 2.9499078002312714e+01 2.2911620675781222e+01 8.7574959667314332e+00
4115 2 2 2.9544292629462650e+01 2.2952780631019802e+01 9.1442954872733377e+00
9536 2 2 3.0711020808244111e+01 2.3220689613830420e+01 8.6464873975914429e+00
9535 1 1 3.0617347279866397e+01 2.3191593703230428e+01 9.0073427617898716e+00
15811 1 1 3.0600525895293330e+01 2.3146833883720461e+01 9.1844107767541718e+00
9537 1 1 3.0867590439579509e+01 2.3273712328678947e+01 8.2969241625299865e+00
5955 1 1 3.0899450038859342e+01 2.3248358714400400e+01 8.1425928014903981e+00
21499 1 1 3.1500161737597558e+01 2.2956225119625280e+01 8.7744567788260568e+00
21500 2 2 3.1631657011560115e+01 2.2810904604887281e+01 9.1479007139558046e+00
12467 2 2 3.2903388373728028e+01 2.2558546062340874e+01 8.1700093388018988e+00
18516 1 1 3.2750356453155980e+01 2.2119423894699260e+01 9.3911654969696929e+00
18515 3 3 3.2789994332620523e+01 2.2248578460148597e+01 9.0550173714086242e+00
12468 1 1 3.2893083139076744e+01 2.2375156588004547e+01 8.5177557604163159e+00
18514 1 1 3.2857816938201935e+01 2.2339000493782482e+01 8.6507514379598138e+00
13940 2 2 3.3519032389440582e+01 2.2897346757558264e+01 9.3396372076283853e+00
13941 1 1 3.3598677414789300e+01 2.3051438702370643e+01 8.9807647254116887e+00
3478 1 1 3.3629090937870942e+01 2.3093523764188951e+01 8.7825844331015190e+00
3479 3 3 3.3716867759741803e+01 2.3158928794723753e+01 8.4184400257243990e+00
3480 1 1 3.3815386655764343e+01 2.3162528881791879e+01 8.0600891487917323e+00
14271 1 1 2.6936273594754656e+01 2.4206087204064605e+01 9.2568355666811950e+00
14855 2 2 2.7637946388558142e+01 2.4315122510474087e+01 8.0291727270098701e+00
14856 1 1 2.7789369401924340e+01 2.4211296289558273e+01 8.3598988620757293e+00
17881 1 1 2.7834322299440437e+01 2.4139076968317681e+01 8.5077503829705066e+00
17882 2 2 2.7939083144552626e+01 2.4074048608070449e+01 8.8666137499944604e+00
21311 2 2 2.8879207179750878e+01 2.3894034975065161e+01 8.2011732289412649e+00
21310 1 1 2.8978148012261126e+01 2.3941893718527481e+01 8.5889959796924042e+00
20918 2 2 2.9099144249728280e+01 2.4001749833878986e+01 9.1144337815115914e+00
17883 1 1 2.7995777658421162e+01 2.4100125431828253e+01 9.2762040066428781e+00
20919 1 1 2.9035872632640629e+01 2.3958537941962149e+01 8.7324481430081438e+00
939 1 1 2.8016528021609361e+01 2.4116517303142924e+01 9.4266053947887336e+00
19867 1 1 2.9360492480285817e+01 2.5021694004843390e+01 8.0956629998649188e+00
16141 1 1 2.9397878267831004e+01 2.4995078013447309e+01 8.2488464924279175e+00
16143 1 1 2.9520839060737085e+01 2.4927627469706778e+01 9.0246604755978055e+00
5278 1 1 3.0492843023623440e+01 2.4845860215442855e+01 8.5967418303507053e+00
10282 1 1 2.9880833784948710e+01 2.4089365407945149e+01 7.9176454869006943e+00
1872 1 1 2.9906323887284781e+01 2.4068085051365159e+01 8.0788429263237855e+00
1871 2 2 2.9966626386008830e+01 2.4030178219616360e+01 8.4315968365061362e+00
1870 1 1 3.0058137473867543e+01 2.4002157226978667e+01 8.8394242132713199e+00
5279 2 2 3.0542956394887497e+01 2.4798172323643822e+01 9.0014972124992632e+00
4117 1 1 3.0098947445369816e+01 2.3980947439477216e+01 8.9986301394145549e+00
18042 1 1 3.0443311578150009e+01 2.4879493843635348e+01 8.4398279388523161e+00
1611 1 1 2.9545854417175534e+01 2.4916025757321545e+01 9.1731498024855700e+00
5280 1 1 3.0651077873380252e+01 2.4712623122995016e+01 9.3710055527360048e+00
4118 2 2 3.0174621484429345e+01 2.3901324163325743e+01 9.3250831039552668e+00
18041 2 2 3.0392524764881657e+01 2.4937960023493932e+01 8.0674530557496968e+00
16142 2 2 2.9437659695841930e+01 2.4986870568860446e+01 8.6417293824248205e+00
830 3 3 3.2254257764027301e+01 2.4976133968172395e+01 8.8357297542393045e+00
7019 2 2 3.1305831619788680e+01 2.4123081826134587e+01 9.0376549845975003e+00
7018 1 1 3.1352017833509734e+01 2.4163150141147529e+01 8.6302111020499854e+00
10887 1 1 3.1350473394843160e+01 2.4197274359773587e+01 8.4721133218967530e+00
10886 3 3 3.1443957984568854e+01 2.4284157360618693e+01 8.1001937236324029e+00
5862 1 1 3.2181899133654760e+01 2.4728246162363572e+01 9.2958007077410869e+00
831 1 1 3.2195353821417577e+01 2.4804675249968170e+01 9.1700319217412343e+00
7020 1 1 3.1334922499728066e+01 2.4001801982160842e+01 9.4285387618859744e+00
3686 3 3 3.3993278862269435e+01 2.4840914445617074e+01 9.3245709427975356e+00
3685 1 1 3.4058506893841205e+01 2.4929267917032927e+01 8.9092426133884963e+00
15769 1 1 2.7172517498900877e+01 1.9967777835573109e+01 1.0623276941725722e+01
15770 3 3 2.7148187701050333e+01 2.0143838859582338e+01 1.0999841801916286e+01
15511 1 1 2.8153776867005284e+01 1.9919892403142136e+01 9.5395633594621092e+00
5838 1 1 2.8152654192251156e+01 1.9984366865089811e+01 9.6857895967804453e+00
5837 2 2 2.8156316607437137e+01 2.0138412263226435e+01 1.0091872295631850e+01
5836 1 1 2.8165019065520717e+01 2.0299462679595717e+01 1.0480161548081893e+01
1772 2 2 2.9467816822714244e+01 2.0018915742529153e+01 9.7410120698900364e+00
1773 1 1 2.9386789228893758e+01 2.0115214314391167e+01 1.0130291082581612e+01
16348 1 1 2.9370296352062951e+01 2.0149603863600134e+01 1.0246387926447783e+01
16349 2 2 2.9243695395916451e+01 2.0252442218317647e+01 1.0601053919540695e+01
15060 1 1 3.0475882839298666e+01 1.9521296133036603e+01 1.0360032378403645e+01
15059 2 2 3.0405023343029772e+01 1.9540640633461308e+01 1.0770636613171636e+01
4644 1 1 2.8167691796548983e+01 2.0367601908440236e+01 1.0646920510544650e+01
4643 2 2 2.8220701829442142e+01 2.0443554048424009e+01 1.1005515185220235e+01
19353 1 1 2.7899731801774848e+01 2.1346028016565317e+01 1.0694375337892888e+01
8334 1 1 2.7741231888438961e+01 2.0989746169057685e+01 9.8512063795023117e+00
19351 1 1 2.7781973481787915e+01 2.1018358476367453e+01 9.9895092065711584e+00
19352 2 2 2.7881494854416168e+01 2.1170297270275203e+01 1.0366884083550239e+01
21507 1 1 2.7912186668393105e+01 2.1439039843174882e+01 1.0814532215245642e+01
269 2 2 2.8961164802691290e+01 2.1244169971866352e+01 1.0500290391360855e+01
5654 2 2 2.8826450985229918e+01 2.1048021422120691e+01 9.6656151984626106e+00