LAMMPS data file via write_data, version 7 Aug 2019, timestep = 40000000

2421 atoms
3 atom types
2319 bonds
3 bond types
2217 angles
3 angle types

0.0000000000000000e+00 5.0000000000000000e+01 xlo xhi
0.0000000000000000e+00 5.0000000000000000e+01 ylo yhi
0.0000000000000000e+00 5.0000000000000000e+01 zlo zhi

Masses

1 0.25
2 0.5
3 0.5

Bond Coeffs # harmonic

1 6000 0.15
2 2000 0.4
3 2000 0.4

Angle Coeffs # harmonic

1 100 180
2 50 180
3 50 180

Atoms # angle

8026 1 1 8.3611042015822328e+00 3.0302657290477853e+01 1.1499734881909644e+01
8027 3 3 8.3957405563449239e+00 3.0441088294386748e+01 1.1131418495673060e+01
8028 1 1 8.4325165069809849e+00 3.0692669524305561e+01 1.0767081198809192e+01
3790 1 1 1.1178934202043973e+01 1.3155785116707082e+00 1.4523557558476208e+01
5083 1 1 1.2721636005198338e+01 7.4263135369384781e-01 1.4328675028345225e+01
5085 1 1 1.2073559106613203e+01 1.0871320018064283e+00 1.4542579104698262e+01
3792 1 1 1.1931803004797576e+01 1.1352622705062845e+00 1.4544442918089183e+01
5084 2 2 1.2391807058071105e+01 9.4100239242288153e-01 1.4428763974399358e+01
10276 1 1 1.2831453158989708e+01 6.5100336897745781e-01 1.4291764292988804e+01
3791 2 2 1.1546860886669217e+01 1.2117846540808688e+00 1.4542658287459753e+01
5190 1 1 1.3596356488497504e+01 9.2362942425484040e-02 1.3918776509518322e+01
10277 3 3 1.3164256673919690e+01 4.4006433207333923e-01 1.4172313471446920e+01
10278 1 1 1.3460843650602285e+01 1.8589004202678269e-01 1.3988100485813767e+01
3768 1 1 1.4663660276166034e+01 3.1954374467707275e+01 1.5152583207445254e+01
3766 1 1 1.4509826637107579e+01 3.2592817674853869e+01 1.5678447188641128e+01
3767 2 2 1.4623579352975945e+01 3.2302124289442425e+01 1.5394502096401276e+01
5843 3 3 6.2917631030407399e+00 1.6667155509849259e+01 2.0848512121556265e+01
5842 1 1 6.5339888024253039e+00 1.6410468146902613e+01 2.0731432514815189e+01
15570 1 1 5.5366139517784561e+00 1.7970539755943189e+01 2.1008551644077897e+01
15569 3 3 5.7173215370958088e+00 1.7571464616392515e+01 2.0962371788358173e+01
15568 1 1 5.9603861058406968e+00 1.7207319996985710e+01 2.0915175796443588e+01
5844 1 1 6.0267923989068288e+00 1.7052372585705790e+01 2.0889626431305309e+01
17175 1 1 1.3388678498131036e+01 3.4829200628535332e+01 1.9841393592514681e+01
17174 3 3 1.3204670292985526e+01 3.4957554296570777e+01 2.0147310701815176e+01
17173 1 1 1.2940722703391794e+01 3.5115446686612771e+01 2.0414347020998925e+01
16341 1 1 1.2849800340504510e+01 3.5177982230766865e+01 2.0514985259188730e+01
16340 2 2 1.2667912530854554e+01 3.5348087902122145e+01 2.0836082367374296e+01
16339 1 1 1.2474571477470866e+01 3.5528258411081360e+01 2.1106631243387405e+01
8596 1 1 1.2422744733079412e+01 3.5601440196318229e+01 2.1211691030952334e+01
434 2 2 1.1322436754143869e+01 3.0864281656061004e-01 2.2797752577204765e+01
435 1 1 1.1495703750484568e+01 6.4386008053750388e-01 2.2650994535232279e+01
8597 2 2 1.2154564722511573e+01 3.5822071056167438e+01 2.1477818462277721e+01
8598 1 1 1.1895454275808511e+01 3.5960810220191874e+01 2.1694250639531912e+01
13775 3 3 9.1828495194493556e+00 4.0166181413158760e+01 2.6208505222809222e+01
13776 1 1 9.3448767239135027e+00 3.9961863284114557e+01 2.5864934089176835e+01
5189 2 2 1.3932810160445660e+01 4.9862663773112637e+01 1.3790876909018172e+01
5188 1 1 1.4332349563601927e+01 4.9759617118627240e+01 1.3591439103939237e+01
12251 3 3 4.9629260849478305e+00 4.1654307311392813e+01 2.3048288784914622e+01
12250 1 1 4.9923289102182373e+00 4.1438318390581792e+01 2.2721529023072780e+01
433 1 1 1.1088334264992385e+01 4.9996418816931225e+01 2.3017411483263142e+01
12252 1 1 4.8981207262670186e+00 4.1857739855625553e+01 2.3382859024303031e+01
13483 1 1 1.7085296686494036e+01 1.5859053044682272e+01 8.0518487010267592e-01
13484 3 3 1.7248396317442413e+01 1.6111747090045863e+01 1.0715914765006089e+00
13485 1 1 1.7261027736182474e+01 1.6325225340332391e+01 1.4424826903893222e+00
7423 1 1 2.5919264247007558e+01 3.1639283048628140e+01 3.1974825927394419e+00
13729 1 1 2.2332914066928936e+01 1.9723964575689216e+01 1.0614416457452128e+01
13730 3 3 2.2457075682205357e+01 2.0023052409166908e+01 1.0858508312634759e+01
19132 1 1 2.2548536714758171e+01 2.0498008981787159e+01 1.1164855953756106e+01
13731 1 1 2.2536832125421636e+01 2.0356831435681539e+01 1.1071633833256403e+01
19133 3 3 2.2677008065611354e+01 2.0791467739060085e+01 1.1402983100568827e+01
19134 1 1 2.2777076098490227e+01 2.1062495427799529e+01 1.1638288207638722e+01
16243 1 1 1.6572084917964890e+01 2.9034333390484438e+01 1.4151260862213050e+01
16244 3 3 1.6296019002968013e+01 2.9323287057664295e+01 1.4245998989905864e+01
17846 3 3 1.5783377817392422e+01 3.0058387986808395e+01 1.4251695646903968e+01
17847 1 1 1.5995186165574841e+01 2.9754362732382841e+01 1.4243252431349136e+01
17845 1 1 1.5516378531047307e+01 3.0376664254556562e+01 1.4392676531354915e+01
12715 1 1 1.5423663562942771e+01 3.0490859828519355e+01 1.4414459726229634e+01
12716 2 2 1.5206143957880071e+01 3.0804838230564147e+01 1.4458110808898644e+01
16245 1 1 1.6084933313086488e+01 2.9612922085738607e+01 1.4241457388871927e+01
12717 1 1 1.4956711431896251e+01 3.1083770640974443e+01 1.4588990307639987e+01
7479 1 1 1.4882883913200793e+01 3.1205146821755203e+01 1.4660396122721107e+01
7477 1 1 1.4671055538240424e+01 3.1854130814852823e+01 1.5080942892938374e+01
7478 3 3 1.4728430605285016e+01 3.1513505705355897e+01 1.4876702396990385e+01
10868 3 3 2.5949465924339311e+01 3.6490218135190183e+01 1.2207460693834564e+00
10869 1 1 2.5749452987594672e+01 3.6627662974301408e+01 9.0003002740808569e-01
12617 3 3 8.3977539201587508e+00 1.4526235057185930e+01 2.7232527037498652e+01
12618 1 1 8.6642316896823282e+00 1.4291825629260124e+01 2.7064284869785642e+01
12616 1 1 8.1918938295617227e+00 1.4819948953807952e+01 2.7412225018331156e+01
10332 1 1 8.1437370178355479e+00 1.4939712036166698e+01 2.7503355834208488e+01
10331 2 2 7.9234322286914383e+00 1.5183716378301263e+01 2.7767036422592486e+01
10330 1 1 7.7387510984809147e+00 1.5392820372542047e+01 2.8036971874177247e+01
16091 3 3 2.5646468191311921e+01 1.9816956840069970e+01 2.8108889117456702e+01
16090 1 1 2.5822071774002225e+01 1.9475644303140019e+01 2.8223686294923084e+01
16770 1 1 8.7286579075147017e+00 8.2168259599003124e-01 3.7149436023403204e+01
16769 3 3 8.7925196874424554e+00 9.9233528166630902e-01 3.7526180747658238e+01
16092 1 1 2.5454615307036331e+01 2.0095575382005940e+01 2.8004826084445639e+01
2837 3 3 2.2635674781687722e+01 2.1486116416312971e+01 2.9488109035711659e+01
2838 1 1 2.2524592890451260e+01 2.1736681020380271e+01 2.9224474253645621e+01
2836 1 1 2.2792206770779657e+01 2.1220263713349524e+01 2.9714730334070282e+01
17788 1 1 2.2867087117761312e+01 2.1119814537758046e+01 2.9799387041095606e+01
17789 3 3 2.3078608676449672e+01 2.0957426860764194e+01 3.0016427382002945e+01
17790 1 1 2.3367877304570747e+01 2.0775283268285367e+01 3.0260833742681889e+01
21574 1 1 2.3493208868586454e+01 2.0714966615525721e+01 3.0331642938104569e+01
21575 3 3 2.3838832736273755e+01 2.0490435599975143e+01 3.0470997320000244e+01
21576 1 1 2.4174622668424618e+01 2.0324308367812247e+01 3.0614470083367262e+01
10362 1 1 2.3433704250539986e+01 2.1982531973757574e+01 3.0100234677114454e+01
10361 3 3 2.3245397997351404e+01 2.2216172409863027e+01 3.0360465413663711e+01
10360 1 1 2.2994355059200927e+01 2.2369661184746708e+01 3.0603089924543269e+01
15421 1 1 9.1514028007236110e+00 1.3313925270749514e+00 3.8852618362741495e+01
15423 1 1 8.9332176493458899e+00 1.1635086782182449e+00 3.8051091943098172e+01
15422 3 3 9.0198677839702288e+00 1.2437572021717567e+00 3.8478580603709894e+01
16768 1 1 8.8946492667990302e+00 1.1199962278512929e+00 3.7913539594332711e+01
4183 1 1 4.1838486675541970e+00 2.1783402507149336e+00 4.0928346209062973e+01
4184 3 3 4.4404522733092895e+00 1.9699713301075563e+00 4.1136850063816269e+01
4185 1 1 4.6687941898638554e+00 1.7659796307639717e+00 4.1404394366539101e+01
17390 3 3 8.8580629683892909e+00 4.0516968871293329e+01 2.7017967727203470e+01
17389 1 1 8.9624588932353610e+00 4.0396822901886885e+01 2.6675540898180508e+01
13774 1 1 9.0067234712914530e+00 4.0332765202872530e+01 2.6546721367996973e+01
17391 1 1 8.7024997400258357e+00 4.0616954725668080e+01 2.7324380225284607e+01
12123 1 1 8.6376402846734006e+00 4.0658804342028795e+01 2.7467745263841888e+01
12122 3 3 8.5079085616601979e+00 4.0777748732958379e+01 2.7832424144020383e+01
11262 1 1 3.0270723471539673e+00 4.3890538042649858e+01 2.7235259639916894e+01
11261 3 3 2.7274467408455942e+00 4.4165468991545985e+01 2.7257096289404132e+01
11260 1 1 2.4001513115398527e+00 4.4346465576408939e+01 2.7256752371795919e+01
12348 1 1 1.4478318766491943e+01 4.8056477993273276e+01 2.7691614219497573e+01
12347 3 3 1.4580935397266391e+01 4.7722879160433180e+01 2.7743924843703713e+01
12346 1 1 1.4554447328097051e+01 4.7319408763058171e+01 2.7732244553693192e+01
12121 1 1 8.4227828000651321e+00 4.0909863207772574e+01 2.8207460481668292e+01
16045 1 1 4.6651174353770566e+00 4.0530148608844861e+01 3.0050690228292975e+01
16047 1 1 4.4047145048101850e+00 4.1222624558106610e+01 3.0195924821007921e+01
16046 3 3 4.5340304060471626e+00 4.0891860691527398e+01 3.0086542429018788e+01
23 3 3 2.4313034967229630e+01 3.4993397545916537e+01 4.3768228892560302e+01
24 1 1 2.4285988405014646e+01 3.5302548657915942e+01 4.3504228382334361e+01
22 1 1 2.4277032828899678e+01 3.4683341908983017e+01 4.4090314236251515e+01
16291 1 1 3.9522767263932671e+01 2.4704983124568514e+01 2.8113597407855653e+00
17919 1 1 3.9667097126185695e+01 2.4623838480090210e+01 2.8095979374601110e+00
17918 2 2 4.0026261906876151e+01 2.4478445802048437e+01 2.8971476864407353e+00
16292 3 3 3.9227983153208427e+01 2.4900840403296254e+01 2.8015555092662177e+00
9913 1 1 4.1391740643644837e+01 2.4040769003195244e+01 2.7796252558647416e+00
14049 1 1 4.1537219778638367e+01 2.4010117681773927e+01 2.7980663201338585e+00
14048 3 3 4.1918420621684874e+01 2.3948676100332595e+01 2.8408945196105724e+00
9914 2 2 4.0966463035139213e+01 2.4143942254641786e+01 2.8159358185666776e+00
9915 1 1 4.0571910432324145e+01 2.4296554866892901e+01 2.8608292273074634e+00
17917 1 1 4.0414322073958189e+01 2.4346781196772241e+01 2.8550768658028685e+00
14047 1 1 4.2322697957094313e+01 2.3856731130391132e+01 2.8166640015895479e+00
11893 1 1 3.5164343826253429e+01 2.4652790647010615e+01 3.8247600382959672e+00
11894 3 3 3.5555972958942242e+01 2.4391791656463614e+01 3.6770977321437841e+00
12840 1 1 3.5034054883594500e+01 2.4725407041840885e+01 3.8556636474537154e+00
12839 3 3 3.4722637999319645e+01 2.4900550275152018e+01 3.9342022146107998e+00
11895 1 1 3.5875572825702974e+01 2.4143257685852962e+01 3.6740720171374472e+00
8657 2 2 4.1534502120186751e+01 2.4747025556730314e+01 4.7244455674922810e+00
8656 1 1 4.1857673221946939e+01 2.4533931820366398e+01 4.6433455860958466e+00
8658 1 1 4.1213325261516943e+01 2.5025918530274762e+01 4.6696271273117134e+00
21223 1 1 4.5721898393048036e+01 1.8732572049193816e+01 5.1648463554265858e+00
21225 1 1 4.5903829033555709e+01 1.8335038817785190e+01 5.8153335700702815e+00
21224 3 3 4.5820946639766973e+01 1.8590760858576417e+01 5.5244871940788496e+00
13829 3 3 3.7053930375794415e+01 2.2658220939719975e+01 5.4438559049571520e+00
13828 1 1 3.6654462893497083e+01 2.2817225368854501e+01 5.5967673340034629e+00
8539 1 1 3.6519075158801357e+01 2.2873935138323997e+01 5.6641586690031556e+00
8540 2 2 3.6147270370635816e+01 2.3091730569074844e+01 5.7538899308282030e+00
8541 1 1 3.5873604888504019e+01 2.3373261414318261e+01 5.7883424013686753e+00
2253 1 1 3.8075772934988983e+01 2.2037623222464052e+01 4.7684753505573205e+00
13830 1 1 3.7349369741067761e+01 2.2486161074757383e+01 5.2758896720337249e+00
2251 1 1 3.7493811977686690e+01 2.2420573888005933e+01 5.2015766870489966e+00
2252 3 3 3.7800840547522178e+01 2.2228345150934064e+01 5.0241062001794736e+00
451 1 1 3.8681522749142324e+01 2.3250163016081384e+01 6.1158636838746245e+00
3605 2 2 3.9828101524409135e+01 2.2327911289207275e+01 6.2870791476765424e+00
5073 1 1 3.9425906741702327e+01 2.2650490713603862e+01 6.0627109847641227e+00
3604 1 1 3.9534479443380576e+01 2.2568430273638310e+01 6.1159366030945099e+00
5071 1 1 3.8811871306533540e+01 2.3118642813606094e+01 6.0869117892550335e+00
5072 3 3 3.9163493517007652e+01 2.2881417160858948e+01 6.0230723112718936e+00
6580 1 1 3.3690190039795716e+01 2.5017298512146368e+01 4.8846859226294423e+00
6581 3 3 3.3952689337100338e+01 2.4753435571462795e+01 4.9652449404972927e+00
6582 1 1 3.4246505925053071e+01 2.4526181384106632e+01 5.1011446643078706e+00
8709 1 1 3.5544995397331142e+01 2.4850203011226359e+01 5.9955294109828019e+00
11152 1 1 3.4367760807938367e+01 2.4440227666379684e+01 5.1619430468882594e+00
11153 3 3 3.4647395329560908e+01 2.4251548180611234e+01 5.2888057356150178e+00
11154 1 1 3.4967119478028245e+01 2.3981717571071460e+01 5.4336350785420509e+00
19175 3 3 3.5429083791421391e+01 2.3698373392173000e+01 5.6351331932787714e+00
19174 1 1 3.5109583703067365e+01 2.3886725146801357e+01 5.4726463775917367e+00
7914 1 1 3.5664169477438733e+01 2.4745712049186391e+01 6.0144482201033069e+00
19176 1 1 3.5750045628216036e+01 2.3476173256600539e+01 5.7765549381187471e+00
7913 3 3 3.5990373961334171e+01 2.4509101052273859e+01 6.1014725007972022e+00
1669 1 1 3.6810223471533526e+01 2.4097628531213015e+01 4.8977511274819259e+00
1670 2 2 3.6529229905212077e+01 2.4335089837865908e+01 4.8374440595237962e+00
1671 1 1 3.6182828378620627e+01 2.4564276197970038e+01 4.8028562190470465e+00
10675 1 1 3.6076625148718847e+01 2.4628321210062239e+01 4.8064162388712131e+00
7912 1 1 3.6276446030572281e+01 2.4236235333271367e+01 6.1622022970947423e+00
5532 1 1 3.6405817289744320e+01 2.4149646168791850e+01 6.2050602412649063e+00
10676 3 3 3.5750270000014801e+01 2.4825064295604527e+01 4.7835552546766991e+00
20301 1 1 3.7715895058106312e+01 2.4462196474280869e+01 5.1843219452699234e+00
20300 3 3 3.7483932554334572e+01 2.4803003419413766e+01 5.0889822953808306e+00
452 3 3 3.8478160908613788e+01 2.3605500584393585e+01 6.2255598730819859e+00
20869 1 1 4.0020902879376976e+01 2.4747041010866770e+01 4.8291171503322161e+00
15471 1 1 4.0779392286622510e+01 2.1400328594076271e+01 6.6483626244008889e+00
15470 3 3 4.0498863838426452e+01 2.1647114912935564e+01 6.4523507092742154e+00
11891 3 3 3.4705365110133165e+01 2.3129964853968929e+01 7.7489169316921123e+00
11890 1 1 3.4482877090975300e+01 2.3424206361346773e+01 7.5248723256419154e+00
1457 3 3 3.7401872223322343e+01 2.3314388123209355e+01 6.3934583334492050e+00
1458 1 1 3.7718695461248352e+01 2.3096036788771450e+01 6.4279478930592955e+00
3606 1 1 4.0117310339383678e+01 2.2035609784184473e+01 6.3306244464604076e+00
15469 1 1 4.0235027510372497e+01 2.1918476405640057e+01 6.3670702998709636e+00
19761 1 1 3.3214699785063907e+01 2.4792480205192451e+01 7.0497869700688387e+00
19760 3 3 3.3478772949799001e+01 2.4463766236719568e+01 7.1699647426679736e+00
19759 1 1 3.3758544080304347e+01 2.4130303654826090e+01 7.2392580035299359e+00
2265 1 1 3.3854307202007774e+01 2.3990948689800955e+01 7.2574288091594097e+00
2263 1 1 3.4391537718697776e+01 2.3522647653241840e+01 7.4569474791687780e+00
2264 3 3 3.4088846073323538e+01 2.3753925546149919e+01 7.3277885188916683e+00
5574 1 1 3.5514556927145819e+01 2.4036931654013319e+01 7.8737488378919087e+00
8601 1 1 3.4964797835633320e+01 2.4666387565527682e+01 7.4061875821473304e+00
5572 1 1 3.5051055281883038e+01 2.4563433074290543e+01 7.4659557305290667e+00
5573 3 3 3.5304848974784441e+01 2.4243108929451513e+01 7.6544846481482711e+00
8600 3 3 3.4710570888154592e+01 2.4908845640969599e+01 7.2201296503649885e+00
1456 1 1 3.7174963894844161e+01 2.3600537324082072e+01 6.3958128699066359e+00
5530 1 1 3.7068021767730954e+01 2.3723913062814294e+01 6.3857153538344233e+00
5531 2 2 3.6748769166054821e+01 2.3959302719245606e+01 6.3247354028396190e+00
4123 1 1 3.6519263120327714e+01 2.4550251859999015e+01 7.4171907784361277e+00
4124 2 2 3.6299135138032717e+01 2.4864647951767566e+01 7.2875759595461203e+00
17176 1 1 3.6584895846853556e+01 2.4394236045909135e+01 7.4807049164682038e+00
17177 3 3 3.6654161811149393e+01 2.4043735193986379e+01 7.6135657926701050e+00
17178 1 1 3.6840071708330669e+01 2.3818344682761072e+01 7.7445284786207145e+00
18286 1 1 3.6930513284476575e+01 2.3730041452546430e+01 7.8229183287694131e+00
4028 2 2 3.7142420490418921e+01 2.4993924579387716e+01 6.3572487624232537e+00
4027 1 1 3.7479156882751688e+01 2.4735280241103236e+01 6.4512769819624873e+00
10623 1 1 3.7592594098480667e+01 2.4628969598741687e+01 6.4575353604846084e+00
10622 2 2 3.7884942939977869e+01 2.4345508427255950e+01 6.4327367062709824e+00
453 1 1 3.8260966703598768e+01 2.3931929974207190e+01 6.3548696967177678e+00
10621 1 1 3.8183334431097343e+01 2.4035460019722009e+01 6.3874476819423194e+00
9839 2 2 3.4909036723961449e+01 2.2314005414310575e+01 8.1708738945296400e+00
11892 1 1 3.4779992731802551e+01 2.2794298385843302e+01 7.8911569400374111e+00
9840 1 1 3.4803012767671873e+01 2.2674295541881442e+01 7.9506306971351144e+00
9838 1 1 3.5073554952249815e+01 2.1929698566730050e+01 8.2479118837957870e+00
18321 1 1 3.7970684056464350e+01 2.2996307172233060e+01 9.0393034532760268e+00
18288 1 1 3.7470526245198130e+01 2.3375158306128920e+01 8.2959216369579245e+00
18319 1 1 3.7545409226471286e+01 2.3317334775126806e+01 8.4054700733233076e+00
18320 2 2 3.7749543153784245e+01 2.3123942478299746e+01 8.7198302342493577e+00
10461 1 1 3.4474461502791648e+01 2.4879720367766101e+01 8.3583490005582455e+00
1505 2 2 3.5133241434735382e+01 2.3885498251093335e+01 9.4158011317769983e+00
9511 1 1 3.4566941537087686e+01 2.4738535063775416e+01 8.4477216338580305e+00
9512 3 3 3.4752537905257441e+01 2.4441331315820676e+01 8.7080856407610447e+00
9513 1 1 3.4940227103667915e+01 2.4199234136498035e+01 9.0036821594118450e+00
1506 1 1 3.5018213861854896e+01 2.4113317961433200e+01 9.1169228701137683e+00
18287 3 3 3.7194097287844684e+01 2.3553247594842230e+01 8.0006940357702057e+00
3131 3 3 3.5732636068873099e+01 2.4877945623931538e+01 8.3552549239928542e+00
3948 1 1 3.6006162629415449e+01 2.4521187697744111e+01 8.6461202847087755e+00
3947 2 2 3.6145491685039488e+01 2.4267730364503752e+01 8.8743697344835066e+00
3946 1 1 3.6180395949150139e+01 2.3972569645737547e+01 9.1791581420450470e+00
3132 1 1 3.5919289448762818e+01 2.4622343430982436e+01 8.5663434563882532e+00
13146 1 1 3.6204228349177718e+01 2.3863371545768871e+01 9.2819522994390056e+00
6656 2 2 3.6444249279472849e+01 2.3159328997236347e+01 1.0405381747929169e+01
6657 1 1 3.6388171895441062e+01 2.3114499225595075e+01 1.0785074027044102e+01
6655 1 1 3.6403948803350268e+01 2.3330508193319183e+01 1.0069212936273141e+01
13144 1 1 3.6377406977030731e+01 2.3428795237294498e+01 9.9441743581886399e+00
9553 1 1 3.9367204100427223e+01 2.3470259933843657e+01 1.0365977277940361e+01
1504 1 1 3.5188407971748390e+01 2.3751053935002162e+01 9.7742297828744533e+00
13145 2 2 3.6245956717929232e+01 2.3621504460902948e+01 9.6323477436115361e+00
402 1 1 3.8271127355480210e+01 2.4878475343024384e+01 9.8043171526603636e+00
401 2 2 3.8557246518113843e+01 2.4598428056728100e+01 9.9064953723841498e+00
4498 1 1 3.8151876227313210e+01 2.4970134325507818e+01 9.7464556936759656e+00
400 1 1 3.8822949351053296e+01 2.4278114550444098e+01 1.0018687261581448e+01
9555 1 1 3.8926553591933654e+01 2.4170591249674324e+01 1.0079036851358127e+01
9554 3 3 3.9169860242357444e+01 2.3837467736973110e+01 1.0242555363294844e+01
20765 2 2 3.7071926239613248e+01 2.3365987935813383e+01 1.1720598090586611e+01
5555 3 3 3.7423515944260778e+01 2.2806522023684625e+01 1.2472393973233510e+01
20766 1 1 3.7262189610625278e+01 2.3121498085024609e+01 1.2017739383560587e+01
5554 1 1 3.7305319781583933e+01 2.3018324545246873e+01 1.2132418969613871e+01
1975 1 1 3.5453435032748850e+01 2.4924288082877975e+01 1.1078512049997521e+01
1465 1 1 3.5544940748539751e+01 2.4826838226488366e+01 1.1076938242821242e+01
1466 2 2 3.5853399932371126e+01 2.4599175406599649e+01 1.1071506192865533e+01
1467 1 1 3.6166760175096037e+01 2.4350579985012281e+01 1.1152366921461221e+01
8684 3 3 3.7194083535001134e+01 2.4768708507534754e+01 1.1450919867051596e+01
5661 1 1 3.6275424481408521e+01 2.4241331728189706e+01 1.1186174013420597e+01
20764 1 1 3.6886008880943223e+01 2.3606726267301820e+01 1.1487968546882497e+01
5659 1 1 3.6786089459792713e+01 2.3705045173192211e+01 1.1408047810409384e+01
5660 2 2 3.6530271897366617e+01 2.3966083996869738e+01 1.1270318150121927e+01
8685 1 1 3.7267485572052742e+01 2.4431966721809840e+01 1.1583621567344048e+01
19494 1 1 2.8927866076447597e+01 2.0501041450285921e+01 1.4005099867298638e+01
12901 1 1 3.7864237251123292e+01 2.1739894483319130e+01 1.3337044025307144e+01
12902 2 2 3.7814086510070723e+01 2.2129561924989837e+01 1.3118657246822217e+01
12903 1 1 3.7665765731056396e+01 2.2448167151610175e+01 1.2819249970652351e+01
5556 1 1 3.7591569914422863e+01 2.2546250041727074e+01 1.2727659052101561e+01
19493 2 2 2.8938221707874614e+01 2.0515814648877232e+01 1.4381663707192535e+01
19492 1 1 2.8900572575072207e+01 2.0627687978795457e+01 1.4800858178073540e+01
3448 1 1 2.8877041077956527e+01 2.0692768864324290e+01 1.4951000489168136e+01
3449 2 2 2.8893645129390606e+01 2.0764794343134401e+01 1.5330281721621599e+01
3450 1 1 2.8829555474795384e+01 2.0798428668359715e+01 1.5679416485396500e+01
14529 1 1 4.5482698081249936e+01 8.2343301286193746e+00 1.8358902880523964e+01
14528 3 3 4.5413063429874576e+01 8.5595653242061864e+00 1.8606043236281121e+01
14527 1 1 4.5368260289549639e+01 8.8831844225895704e+00 1.8802724184211179e+01
19306 1 1 2.8430068011701920e+01 1.0064671148983408e+01 2.3819092445961154e+01
19308 1 1 2.8460088017889639e+01 1.0884849746083294e+01 2.3944509820152547e+01
19307 3 3 2.8384873531141743e+01 1.0487678629686938e+01 2.3923527541483100e+01
17429 3 3 4.1921313223331346e+01 1.5571335662176985e+01 2.4536143204706850e+01
17430 1 1 4.2202022621165419e+01 1.5380382208775440e+01 2.4355204457708375e+01
17428 1 1 4.1671671870179125e+01 1.5804717744513043e+01 2.4707828332068946e+01
14823 1 1 4.3829305995009349e+01 4.0243416171756801e+00 2.5879229494548554e+01
14822 3 3 4.4030472266105875e+01 4.0255595634945855e+00 2.6197309886106218e+01
14821 1 1 4.4208645189143446e+01 4.0282008825430982e+00 2.6518041405148647e+01
15314 3 3 3.2258695311523411e+01 1.6977328076540669e+01 3.2103234656264121e+01
18886 1 1 3.0930051003562586e+01 1.6990960706765961e+01 3.1721924482502249e+01
15313 1 1 3.1879976716512374e+01 1.6972477635151748e+01 3.2020818388801182e+01
18888 1 1 3.1711260054788621e+01 1.6959580847169345e+01 3.1984384008590606e+01
18887 3 3 3.1327054313811690e+01 1.6943621109801999e+01 3.1865080754410872e+01
18909 1 1 3.2784537487960478e+01 1.7113428981179364e+01 3.2084413051839320e+01
15315 1 1 3.2653099899792721e+01 1.7097644942053233e+01 3.2094298273589722e+01
18908 2 2 3.3152816866480556e+01 1.7280606483374935e+01 3.2142614351914951e+01
18907 1 1 3.3506304946859188e+01 1.7458073089380864e+01 3.2146029503638502e+01
19843 1 1 3.4200143910997106e+01 1.4419852211052307e+01 3.5475091814972778e+01
4775 2 2 3.4737117126921461e+01 1.4328551243606723e+01 3.5619696399377560e+01
4774 1 1 3.4347978130779595e+01 1.4399098298617908e+01 3.5526645274158362e+01
4776 1 1 3.5118495329056103e+01 1.4199506375137442e+01 3.5784597392830364e+01
19844 3 3 3.3800058184081550e+01 1.4495175125740536e+01 3.5354006750817682e+01
19845 1 1 3.3453171546241506e+01 1.4568032335732024e+01 3.5231956107275799e+01
12996 1 1 3.0369156976332011e+01 1.5456576386538119e+01 3.6781861167750499e+01
12995 3 3 3.0749397851473081e+01 1.5328590940798120e+01 3.6954118097946974e+01
12994 1 1 3.1146315863743112e+01 1.5200560889598117e+01 3.7130962259431975e+01
9210 1 1 3.1645902389502684e+01 1.5014722668146785e+01 3.6025578401955514e+01
9209 3 3 3.1985479980402484e+01 1.4910710151034518e+01 3.6163018747787554e+01
17047 1 1 3.1257048100559473e+01 1.5156698017108793e+01 3.7198938820453243e+01
9208 1 1 3.2325484024623229e+01 1.4784626832129639e+01 3.6386146584607339e+01
17048 3 3 3.1593161699213599e+01 1.5022848785830893e+01 3.7369110561931976e+01
17049 1 1 3.1909030007951053e+01 1.4871095613257010e+01 3.7544624539038765e+01
3091 1 1 2.9778298506216213e+01 2.8763837359229903e+01 1.3544465570216151e+00
14806 1 1 2.9666139042358850e+01 2.8833913915668596e+01 1.3535245773573721e+00
3092 3 3 3.0073553584699845e+01 2.8571628597333397e+01 1.3974520706534050e+00
3093 1 1 3.0337374006167405e+01 2.8379859369600648e+01 1.4772469997781701e+00
16543 1 1 2.9190692896503815e+01 3.0387631824898286e+01 1.2363580667935117e+00
2104 1 1 2.9082133996676454e+01 3.0504128378270309e+01 1.2089786104461442e+00
2105 3 3 2.8754451993332609e+01 3.0755528404351715e+01 1.1268285453474869e+00
17194 1 1 2.8827533434945792e+01 2.9309253324679450e+01 1.3400765252926028e+00
17195 3 3 2.8470809112467077e+01 2.9475378945745824e+01 1.3763055719419579e+00
14808 1 1 2.8966747936997216e+01 2.9224579387524027e+01 1.3348523464381572e+00
14807 3 3 2.9297005773067784e+01 2.9025363252898124e+01 1.3370604855547916e+00
16544 3 3 2.9470702639193455e+01 3.0114090970545572e+01 1.2877369681659991e+00
16545 1 1 2.9762158761174614e+01 2.9923453906379482e+01 1.3009785541154080e+00
18208 1 1 2.9877861889076005e+01 2.9847056634604254e+01 1.3260785491826794e+00
18209 3 3 3.0235073296380023e+01 2.9633233880719356e+01 1.4781837674902287e+00
8205 1 1 3.1933690292035653e+01 3.0919353166016940e+01 8.4927860382036091e-01
11031 1 1 3.1815689423910868e+01 2.9782629208124142e+01 1.2030547565919973e+00
11030 2 2 3.2093669409910611e+01 2.9516369157590869e+01 1.3380124803645888e+00
11029 1 1 3.2403527001748216e+01 2.9254996311397434e+01 1.4162890799039247e+00
8737 1 1 3.2519302820614065e+01 2.9146978240653524e+01 1.4736678873247040e+00
16149 1 1 3.5721154180849460e+01 3.0552269011418012e+01 3.6628855734458360e-01
16148 3 3 3.5778617330677150e+01 3.0924855224398463e+01 5.5404608795424493e-01
437 3 3 3.2235010609499859e+01 2.6990084248426530e+01 2.2080455349287966e+00
438 1 1 3.2546398491096731e+01 2.6800064356958419e+01 2.4050206359065269e+00
20434 1 1 3.2644144410421021e+01 2.6744430499881648e+01 2.4469011412049526e+00
20435 3 3 3.2979970970517385e+01 2.6557323892321378e+01 2.5205666323504494e+00
20436 1 1 3.3283033555807641e+01 2.6342153138687209e+01 2.5823524407325702e+00
6241 1 1 3.3384168958381871e+01 2.6272059631946810e+01 2.5888127498902471e+00
6242 3 3 3.3708064145333260e+01 2.6035583678240240e+01 2.6271712677773076e+00
1090 1 1 3.4519883189396850e+01 2.6753758912898920e+01 2.3924009247759894e+00
6243 1 1 3.3996519517901184e+01 2.5767532685363964e+01 2.7375842246006248e+00
8343 1 1 3.4103983326437898e+01 2.5680360918476904e+01 2.8045117591149915e+00
8342 3 3 3.4388651548027418e+01 2.5441158679368648e+01 2.9173275863242596e+00
8341 1 1 3.4674276844568503e+01 2.5220058647233000e+01 2.9969707752562855e+00
3810 1 1 3.4617347803044993e+01 2.6654724042634598e+01 2.4476089615824028e+00
3809 3 3 3.4880041466131111e+01 2.6454524217680380e+01 2.6176016522511594e+00
3808 1 1 3.5116461504908095e+01 2.6120256743826772e+01 2.7433956095738554e+00
3977 3 3 3.5882251201220278e+01 2.6784276312954365e+01 2.3733918381244070e+00
3976 1 1 3.6189700979705258e+01 2.6506869959818900e+01 2.4185009766122110e+00
21545 3 3 2.9396970198926937e+01 2.8641430693240185e+01 2.9008737761165722e+00
21544 1 1 2.9028928118753292e+01 2.8780854407604114e+01 2.7829914461633458e+00
21546 1 1 2.9788274166950565e+01 2.8451863007347981e+01 2.9161858823239331e+00
8481 1 1 2.9917505303728692e+01 2.8390001885562810e+01 2.9286694132136968e+00
8480 3 3 3.0248018665271076e+01 2.8220749626140961e+01 2.9566679253486687e+00
7942 1 1 3.0467801238744592e+01 2.8307442280183487e+01 1.5084040852739651e+00
7943 2 2 3.0755695191312817e+01 2.8095216753585145e+01 1.6731174613140880e+00
7944 1 1 3.1050379482914956e+01 2.7794492430313152e+01 1.7743640574872654e+00
3735 1 1 3.0935088667063738e+01 2.8947742689767757e+01 2.6927977447269780e+00
8479 1 1 3.0567680866715946e+01 2.8010797117178807e+01 2.9984079126656003e+00
3734 3 3 3.1252737233676310e+01 2.8728827667344166e+01 2.7263911484054271e+00
102 1 1 3.1184664552744319e+01 2.7719280829457567e+01 1.7954621592031512e+00
100 1 1 3.1818864344578984e+01 2.7238453456698149e+01 1.9489891648918758e+00
436 1 1 3.1934410606019863e+01 2.7159450300720273e+01 2.0098902187715515e+00
18170 2 2 3.1852846327577300e+01 2.8444565555145484e+01 1.7114254538143370e+00
101 2 2 3.1523853298375069e+01 2.7427777308029658e+01 1.8124554249785518e+00
12133 1 1 3.1690446139257300e+01 2.8419498126218908e+01 2.6850938741879125e+00
3733 1 1 3.1564799233922219e+01 2.8504541215093969e+01 2.6716015808916618e+00
18169 1 1 3.2174076063028323e+01 2.8185798156559894e+01 1.7818145337048468e+00
12134 3 3 3.2006780638506740e+01 2.8217276071115176e+01 2.8099879048441934e+00
12135 1 1 3.2330186228379901e+01 2.7971996268140622e+01 2.9124890849363445e+00
18799 1 1 3.2318783133804367e+01 2.8088461084463880e+01 1.7957567651935409e+00
18800 3 3 3.2613680005483971e+01 2.7904668086655473e+01 1.8794321993133958e+00
18171 1 1 3.1555412237459251e+01 2.8700966686553283e+01 1.7216818500837441e+00
1414 1 1 3.1423061312979677e+01 2.8801684044176667e+01 1.7067545855536854e+00
3304 1 1 3.2477441951514528e+01 2.7893632334722668e+01 2.9232698846870440e+00
3305 3 3 3.2857816487481330e+01 2.7693737254250486e+01 3.0007927906329512e+00
1091 3 3 3.4221014563181107e+01 2.7035042075491919e+01 2.3212768274473170e+00
9794 3 3 3.3037472664874464e+01 2.8817851119527546e+01 2.6664679174376733e+00
1092 1 1 3.3873766776455490e+01 2.7250381816808616e+01 2.1786593495810194e+00
3985 1 1 3.3744396115910924e+01 2.7306396327107052e+01 2.1531950941159801e+00
3253 1 1 3.3349551409932509e+01 2.8691642330978258e+01 1.6751514885760617e+00
3986 3 3 3.3421153035415479e+01 2.7459899172289500e+01 2.0798833708363595e+00
3987 1 1 3.3015246653436463e+01 2.7593469397906667e+01 1.9842916214339510e+00
18801 1 1 3.2892135760546630e+01 2.7673586283296260e+01 1.9320627285529466e+00