ITEM: TIMESTEP
30000000
ITEM: NUMBER OF ATOMS
8970
ITEM: BOX BOUNDS pp pp pp
0.0000000000000000e+00 5.0000000000000000e+01
0.0000000000000000e+00 5.0000000000000000e+01
0.0000000000000000e+00 5.0000000000000000e+01
ITEM: ATOMS id type xs ys zs
20899 1 0.00446369 0.0573887 0.0149954
20900 3 0.00901139 0.054765 0.0222789
20901 1 0.0134902 0.0538455 0.0286351
12777 1 0.247794 0.0569627 0.00481176
13265 2 0.253383 0.0530257 0.0141695
13266 1 0.248902 0.0560037 0.00697959
13264 1 0.259114 0.0509244 0.0197979
8507 2 0.197313 0.182227 0.0142799
3445 1 0.217927 0.170978 0.0157034
8508 1 0.195602 0.17464 0.0117528
3446 2 0.224156 0.175926 0.0131941
3447 1 0.230678 0.180788 0.0114049
2004 1 0.232574 0.18204 0.0108241
13045 1 0.185425 0.199265 0.00659036
13046 2 0.180988 0.205575 0.0102606
13047 1 0.176714 0.212399 0.0140547
366 1 0.199348 0.190931 0.0200223
8506 1 0.198713 0.188743 0.018339
365 3 0.203032 0.196665 0.0246308
364 1 0.207355 0.201555 0.0294649
2003 2 0.238404 0.185363 0.00895711
2002 1 0.244553 0.190105 0.00885954
18934 1 0.232673 0.245219 0.011584
18935 3 0.231265 0.248941 0.0179853
18936 1 0.22901 0.254175 0.0243663
1217 3 0.033228 0.299169 0.0182199
1218 1 0.0324532 0.295005 0.0247602
1216 1 0.0355836 0.302646 0.0120704
12662 2 0.0280819 0.368065 0.0049706
4150 1 0.143058 0.359566 0.0293623
17673 1 0.142489 0.362389 0.0273041
2639 2 0.170205 0.353459 0.00911124
2638 1 0.165214 0.36131 0.00897702
2640 1 0.175506 0.346582 0.00834682
12663 1 0.033962 0.370217 0.0106058
17672 2 0.141544 0.368969 0.0228764
17671 1 0.142869 0.375962 0.0185444
4353 1 0.123372 0.450113 0.0114914
4351 1 0.137806 0.44422 0.0140625
4352 3 0.130079 0.446974 0.0122181
1543 1 0.174696 0.516875 0.011089
1544 2 0.178469 0.519998 0.00610508
1716 1 0.226016 0.533437 0.00233897
759 1 0.235334 0.581696 0.0158249
9040 1 0.249512 0.605945 0.0222637
5816 2 0.251931 0.611202 0.0128585
5817 1 0.249952 0.607694 0.0198368
9041 2 0.249181 0.6021 0.028808
758 2 0.231941 0.583568 0.00934802
757 1 0.227585 0.585299 0.00325228
5815 1 0.253522 0.61391 0.0054653
8286 1 0.158124 0.636939 0.0191309
8285 2 0.152517 0.638735 0.0242847
8284 1 0.14701 0.638778 0.0288567
7761 1 0.171409 0.625561 0.00304488
20960 3 0.164246 0.631074 0.010869
20961 1 0.169481 0.626777 0.00523836
20959 1 0.159821 0.635837 0.0172446
10449 1 0.253874 0.614862 0.00252597
14573 2 0.182624 0.651693 0.0265229
14572 1 0.18708 0.648842 0.0211838
11917 1 0.217486 0.675303 0.0168605
11918 2 0.225521 0.674091 0.0151709
11919 1 0.232713 0.672101 0.0123003
515 3 0.186215 0.00970727 0.0544271
516 1 0.178671 0.0109241 0.0574138
11633 3 0.205538 0.00485502 0.0519642
11634 1 0.197569 0.00602129 0.0519268
514 1 0.1939 0.00671634 0.0523014
11632 1 0.21337 0.00385013 0.0507925
8345 3 0.26543 0.0165142 0.0443463
8344 1 0.263657 0.0119534 0.050398
8346 1 0.266531 0.0194293 0.0379817
17165 3 0.0777286 0.0864354 0.0446033
17164 1 0.0779563 0.0803101 0.041304
15010 1 0.153956 0.0817091 0.0601883
17166 1 0.079499 0.0938231 0.0476808
17744 3 0.11706 0.0987713 0.05778
17743 1 0.110327 0.0996593 0.0535351
12538 1 0.171663 0.153386 0.0497194
12540 1 0.167747 0.155398 0.0338974
12539 2 0.169095 0.154416 0.0416265
9708 1 0.0657409 0.209386 0.0394913
9707 3 0.0694331 0.216209 0.0417749
9706 1 0.0739787 0.222542 0.045671
444 1 0.0753607 0.224439 0.0466948
443 3 0.0792251 0.229401 0.0515561
442 1 0.0829268 0.233546 0.0575332
16411 1 0.0462562 0.254783 0.0354965
16412 2 0.039434 0.256464 0.0385829
16413 1 0.0330302 0.257645 0.0407874
11379 1 0.152327 0.271922 0.0382704
11378 3 0.156204 0.278972 0.0372399
11377 1 0.162188 0.284546 0.038157
4859 3 0.17519 0.281106 0.04898
4860 1 0.168659 0.283547 0.0437579
4858 1 0.181974 0.280243 0.0533628
19588 1 0.0087889 0.317658 0.0489606
19589 2 0.0163203 0.317648 0.0506227
19590 1 0.0241469 0.316722 0.0501285
14202 1 0.150253 0.327029 0.0444988
14201 3 0.148148 0.3352 0.0406751
11870 3 0.0527302 0.364337 0.0526885
11871 1 0.0496944 0.358782 0.0494654
4152 1 0.145853 0.345369 0.036554
14200 1 0.146622 0.342377 0.0377654
4151 3 0.143803 0.35256 0.0333278
11869 1 0.0548778 0.37297 0.0546219
6108 1 0.151544 0.379468 0.0392851
6107 2 0.151743 0.387326 0.0370127
6106 1 0.151463 0.394877 0.0362475
4053 1 0.122655 0.480028 0.0387281
4051 1 0.123852 0.488158 0.0527492
4052 2 0.123539 0.484471 0.0452065
9042 1 0.247315 0.596941 0.0341907
15606 1 0.246939 0.594947 0.0365245
15605 3 0.245014 0.590933 0.0424172
15604 1 0.243678 0.587459 0.0504232
14574 1 0.181367 0.658876 0.0306015
20514 1 0.178302 0.690555 0.056503
20513 2 0.183371 0.696075 0.0604626
6982 1 0.147036 0.729595 0.0491368
6983 2 0.141272 0.729935 0.054613
6984 1 0.134731 0.73084 0.0590117
18332 2 0.276268 0.733449 0.0392928
18331 1 0.275895 0.726597 0.035895
3682 1 0.184513 0.763027 0.0550466
3684 1 0.200762 0.763332 0.0578224
3683 3 0.192913 0.762907 0.0571576
18333 1 0.27604 0.738742 0.0431659
2096 3 0.0523386 0.821717 0.060518
2097 1 0.0571256 0.826853 0.0580219
15011 2 0.158136 0.0783078 0.065342
15012 1 0.163205 0.0738002 0.0703779
17745 1 0.124745 0.0990574 0.0614107
10952 2 0.169845 0.108144 0.0783037
10953 1 0.166844 0.113865 0.0719171
10951 1 0.172756 0.104393 0.0847302
19750 1 0.185505 0.12982 0.0880097
19751 3 0.192207 0.129058 0.0912419
4104 1 0.123277 0.210737 0.0722517
4103 2 0.119546 0.204911 0.0704544
4102 1 0.114321 0.199433 0.0692502
5342 3 0.177165 0.256269 0.0696039
4238 2 0.184656 0.271646 0.075715
5341 1 0.18109 0.26255 0.0718979
4239 1 0.182228 0.265407 0.0731336
5343 1 0.174752 0.248482 0.0688402
3510 1 0.284548 0.259204 0.0628235
14626 1 0.0592742 0.286168 0.0884741
16450 1 0.044805 0.303625 0.0834597
4237 1 0.189216 0.277643 0.0773746
16451 2 0.0408476 0.30917 0.0865438
16452 1 0.0365831 0.315497 0.0894275
21135 1 0.178261 0.322068 0.0869989
21133 1 0.178759 0.309644 0.0802784
21134 3 0.178272 0.316334 0.0828491
5606 2 0.184373 0.4116 0.0891468
5605 1 0.188142 0.417337 0.0839392
12732 1 0.209106 0.443391 0.07508
12731 3 0.216411 0.446575 0.0764732
8117 2 0.23206 0.456868 0.0816832
12730 1 0.223008 0.450833 0.07979
8118 1 0.225417 0.452673 0.0806365
6915 1 0.116544 0.476396 0.0651005
6913 1 0.113273 0.482605 0.0813804
6914 2 0.114848 0.479978 0.073073
8116 1 0.237793 0.460983 0.0825099
11058 1 0.124227 0.516909 0.0802445
3607 1 0.122203 0.516426 0.0822576
3608 3 0.115427 0.514904 0.0878119
11057 3 0.128322 0.520014 0.0747935
11056 1 0.132769 0.523531 0.0700805
17361 1 0.0176374 0.582968 0.0709123
3453 1 0.0495887 0.564898 0.082287
3452 3 0.0465262 0.564127 0.0748591
3451 1 0.0408576 0.565201 0.0683316
6709 1 0.284684 0.552806 0.0906247
17359 1 0.0053336 0.585528 0.0624443
17360 3 0.0116638 0.583645 0.0668705
12720 1 0.123917 0.628928 0.0650213
12719 3 0.128757 0.634957 0.0669289
12718 1 0.134118 0.638362 0.0727511
20512 1 0.189414 0.700203 0.0646715
9621 1 0.219371 0.734777 0.0880245
3335 3 0.220939 0.753608 0.0703943
9620 2 0.219835 0.739562 0.0825709
9619 1 0.220202 0.745324 0.0782427
3336 1 0.220695 0.747481 0.0761334
3334 1 0.222978 0.759248 0.0649301
15008 3 0.0302541 0.780113 0.0870151
15009 1 0.0320121 0.784626 0.081132
6004 1 0.0326994 0.786717 0.0786144
6005 2 0.0354656 0.792559 0.0746246
6006 1 0.0390265 0.798706 0.0711258
6283 1 0.0399454 0.800996 0.0698557
6284 3 0.0435357 0.806574 0.0676484
6285 1 0.0479635 0.812479 0.0645634
2095 1 0.0493285 0.814929 0.0633255
11762 2 0.00149991 0.0358486 0.0921706
11763 1 0.00383733 0.0399431 0.098419
709 1 0.261876 0.0398847 0.120354
2134 1 0.194679 0.0885182 0.101195
18272 3 0.0184238 0.103681 0.119715
18273 1 0.0219784 0.106152 0.113921
2136 1 0.205204 0.0964539 0.108916
7906 1 0.216876 0.120864 0.101102
2135 3 0.198594 0.0926159 0.104614
7908 1 0.202229 0.1275 0.0953131
7907 3 0.209549 0.12493 0.0986959
19752 1 0.199306 0.128477 0.094181
16253 2 0.140779 0.179974 0.101916
16254 1 0.142398 0.172626 0.0979502
16252 1 0.139001 0.187545 0.104813
6748 1 0.218999 0.191955 0.111424
6749 2 0.226366 0.194055 0.116257
6750 1 0.233486 0.195369 0.119269
6496 1 0.23965 0.231455 0.115083
18703 1 0.0762285 0.258494 0.10328
18704 2 0.0773781 0.264421 0.0978317
18705 1 0.0789211 0.270837 0.0931119
19814 2 0.123274 0.275794 0.117041
14880 1 0.158418 0.249944 0.103348
14879 3 0.16186 0.248984 0.109388
14878 1 0.165499 0.248415 0.11693
807 1 0.166834 0.248098 0.119316
20349 1 0.0497607 0.284595 0.107498
20348 2 0.0485882 0.292148 0.107495
20347 1 0.0486834 0.301142 0.108807
2670 1 0.0491685 0.303909 0.109006
14628 1 0.0696969 0.295091 0.0975767
14627 3 0.064168 0.291113 0.092429
19813 1 0.125929 0.279172 0.110186
2669 2 0.0508781 0.31185 0.109808
2668 1 0.0518257 0.319826 0.108686
8941 1 0.242606 0.309603 0.116135
5607 1 0.181184 0.406638 0.0949496
16930 1 0.195181 0.411466 0.117116
3609 1 0.110284 0.515102 0.0952524
6711 1 0.269547 0.550276 0.0958501
6710 3 0.276975 0.551218 0.093581
599 3 0.166589 0.578566 0.120701
598 1 0.161044 0.571478 0.120389
600 1 0.168475 0.585933 0.120364
19261 1 0.0356296 0.692398 0.112857
19262 3 0.0318523 0.68988 0.119025
17267 3 0.0166452 0.763622 0.104683
17268 1 0.0183629 0.756467 0.106333
15007 1 0.0264146 0.77591 0.0931235
2506 1 0.00753717 0.786924 0.107232
2507 3 0.0108603 0.780479 0.104208
2508 1 0.0135074 0.773516 0.10387
17266 1 0.01455 0.771313 0.104101
19182 1 0.119877 0.779654 0.116819
19181 2 0.126795 0.780642 0.113467
19180 1 0.134598 0.781811 0.111394
17555 2 0.237629 0.78497 0.109264
17554 1 0.244028 0.78937 0.111512
17556 1 0.231055 0.781898 0.106662
19383 1 0.218635 0.0129757 0.130792
7217 2 0.215901 0.0263502 0.151782
7218 1 0.216734 0.022777 0.145844
19381 1 0.217091 0.0212644 0.143745
19382 3 0.217654 0.0180357 0.136808
19917 1 0.273042 0.0287434 0.144062
19916 2 0.280829 0.0291986 0.147321
711 1 0.247365 0.0394953 0.126127
1825 1 0.244471 0.0381575 0.126912
1827 1 0.229279 0.0332504 0.132308
1826 3 0.236039 0.0363637 0.128882
710 3 0.254309 0.0399405 0.123389
5892 1 0.00314965 0.0837995 0.136125
19225 1 0.00503923 0.085831 0.134838
19226 3 0.0092593 0.0916605 0.131062
10692 1 0.228542 0.0873791 0.151928
18271 1 0.0150383 0.0989188 0.124873
19227 1 0.0136478 0.0968715 0.126417
4941 1 0.1124 0.117404 0.129867
4940 2 0.115341 0.120487 0.13686
4939 1 0.118059 0.12279 0.143651
19164 1 0.0906336 0.15831 0.143504
19162 1 0.1054 0.164582 0.143743
19163 3 0.0978229 0.162344 0.143345
6221 3 0.126296 0.177499 0.150471
6220 1 0.119044 0.173793 0.148431
6222 1 0.133535 0.181378 0.151564
4973 2 0.267753 0.193764 0.126997
4974 1 0.275754 0.195015 0.128867
4972 1 0.261789 0.194145 0.122794
13010 2 0.177077 0.244244 0.144466
13011 1 0.179258 0.241849 0.151553
6497 2 0.244029 0.230816 0.122568
6498 1 0.248251 0.229318 0.129758
19815 1 0.121079 0.27356 0.123289
805 1 0.173782 0.24648 0.133436
13009 1 0.174978 0.246458 0.136621
806 2 0.171057 0.246865 0.125758
4438 1 0.161132 0.270024 0.145888
5347 1 0.258166 0.263168 0.141813
5349 1 0.255545 0.247281 0.146471
5348 2 0.25698 0.254724 0.144642
11185 1 0.239727 0.299442 0.132785
8943 1 0.240974 0.301281 0.130537
11186 2 0.237782 0.295542 0.138966
12366 1 0.23489 0.289028 0.148589
11187 1 0.235585 0.290556 0.146165
8942 3 0.242621 0.306037 0.122788
17061 1 0.137826 0.382516 0.150478
16932 1 0.191176 0.411418 0.131946
16931 3 0.193705 0.411704 0.124141
1363 1 0.00614774 0.482183 0.126846
20747 2 0.00398603 0.598577 0.152372
10124 3 0.210374 0.60992 0.14951
19167 1 0.178474 0.639027 0.14557
19166 3 0.181035 0.643232 0.150167
765 1 0.211756 0.632337 0.12232
764 3 0.217582 0.627323 0.124038
10123 1 0.213599 0.61544 0.145071
763 1 0.224446 0.623562 0.125159
1725 1 0.275205 0.636512 0.133306
13698 1 0.272555 0.637936 0.134504
13697 3 0.266498 0.641914 0.13799
1724 2 0.282111 0.633257 0.130543
13696 1 0.260619 0.645833 0.141948
19263 1 0.0268715 0.686356 0.125867
14871 1 0.0293904 0.762298 0.150586
14869 1 0.0439074 0.759366 0.142726
14870 2 0.036129 0.760241 0.14681
2581 1 0.1193 0.766901 0.138101
2582 2 0.115899 0.762769 0.144222
19617 1 0.111478 0.756274 0.151633
2583 1 0.11297 0.757932 0.149682
7216 1 0.2142 0.0300269 0.159306
20342 3 0.0584146 0.0542282 0.157624
20341 1 0.0535349 0.058101 0.162619
20907 1 0.0520233 0.0602194 0.165002
20343 1 0.0638165 0.0486335 0.15373
20906 2 0.0493751 0.0647545 0.171775
20905 1 0.0481038 0.0703296 0.178458
10691 3 0.224177 0.0896862 0.157053
14230 1 0.254947 0.0857714 0.177165
21353 3 0.213124 0.0995488 0.171501
21352 1 0.217323 0.0956565 0.165566
10690 1 0.21922 0.0937274 0.163349
21354 1 0.207656 0.102794 0.176258
14232 1 0.259122 0.100419 0.173922
14231 3 0.258181 0.0935011 0.175131
17913 1 0.259764 0.103225 0.173809
17912 3 0.261185 0.110731 0.173064
17911 1 0.263551 0.118433 0.171589
3224 3 0.194 0.146102 0.175467
3225 1 0.193322 0.139165 0.17463
3223 1 0.193061 0.154458 0.176789
9940 1 0.285169 0.161657 0.173759
18634 1 0.179502 0.241288 0.154598
18636 1 0.181294 0.241154 0.170706
3543 1 0.181197 0.241074 0.173603
3542 3 0.180117 0.240678 0.182353
18635 3 0.181378 0.240502 0.16235
9234 1 0.0725598 0.273934 0.153076
9233 3 0.0799135 0.275453 0.156803
4439 3 0.157052 0.266567 0.152938
16434 1 0.143563 0.264198 0.176811
16433 3 0.1459 0.264692 0.169257
16432 1 0.151008 0.264616 0.162341
4440 1 0.152858 0.265219 0.159537
9129 1 0.169181 0.259187 0.178025
3288 1 0.207351 0.259726 0.179463
16961 2 0.272542 0.258768 0.156461
16962 1 0.276695 0.265567 0.157472
16960 1 0.267036 0.253816 0.158304
9232 1 0.0875505 0.276683 0.16058
7141 1 0.0903712 0.2773 0.162294
7142 3 0.097007 0.279805 0.167048
7143 1 0.103006 0.28364 0.170292
12365 3 0.234464 0.284333 0.154709
12364 1 0.235673 0.278893 0.161453
12482 3 0.119052 0.365648 0.169068
12481 1 0.124511 0.362261 0.164503
12483 1 0.11423 0.370291 0.174554
17060 3 0.134801 0.389277 0.154084
17059 1 0.13214 0.396299 0.156783
14584 1 0.131091 0.398815 0.157916
14586 1 0.12952 0.412886 0.166852
14585 2 0.13017 0.406611 0.162175
14160 1 0.238345 0.41593 0.180366
14159 2 0.232541 0.410209 0.179784
14158 1 0.227245 0.404942 0.181853
20597 3 0.201852 0.437678 0.181933
20596 1 0.205981 0.430417 0.180936
7909 1 0.273225 0.451615 0.178806
20746 1 0.00994347 0.596343 0.155701
10125 1 0.2059 0.60429 0.153147
2922 1 0.0861415 0.653282 0.177037
19165 1 0.182294 0.649093 0.15513
6884 3 0.162071 0.657806 0.162556
6885 1 0.162056 0.661421 0.156256
6883 1 0.161438 0.653106 0.169372
19571 2 0.00252646 0.714416 0.176631
6927 1 0.00957104 0.721101 0.172532
19572 1 0.0076038 0.719059 0.173579
6925 1 0.0199873 0.732763 0.16757
6926 3 0.0142455 0.726788 0.168674
19615 1 0.102582 0.74789 0.162293
19616 2 0.10797 0.751675 0.156848
320 2 0.101416 0.818177 0.163709
319 1 0.102555 0.81133 0.167742
321 1 0.100958 0.825118 0.160051
6150 1 7.6132e-05 0.0162992 0.213636
20583 1 0.122659 0.0128305 0.196533
20581 1 0.11932 0.0278589 0.203412
20582 3 0.12111 0.0200688 0.199725
1911 1 0.10396 0.054032 0.187419
1910 3 0.103184 0.0612115 0.191459
1909 1 0.10288 0.0684665 0.195766
15303 1 0.15119 0.0875429 0.211601
10406 3 0.0427168 0.119748 0.200073
10407 1 0.0490512 0.118006 0.196686
10405 1 0.0353539 0.121151 0.203267
19143 1 0.0858286 0.145851 0.188212
19142 2 0.0845371 0.143898 0.196805
19141 1 0.0847215 0.141652 0.203988
11850 1 0.0848906 0.140833 0.206454
4349 3 0.0141452 0.203894 0.203162
3736 1 0.00738884 0.200127 0.210276
4350 1 0.0092222 0.200988 0.208537
4348 1 0.0196728 0.207031 0.197785
5822 3 0.00387073 0.243333 0.208704
4300 1 0.00272717 0.223675 0.184376
3644 2 0.172072 0.236485 0.199656
3645 1 0.175182 0.238463 0.19277
3643 1 0.168751 0.234674 0.206395
3541 1 0.176546 0.239243 0.190248
3831 1 0.023964 0.247889 0.195233
3830 3 0.0173446 0.248729 0.198758
5823 1 0.00970208 0.246703 0.204309
3829 1 0.0117353 0.24776 0.202733
9128 3 0.174298 0.260364 0.183689
17923 1 0.179529 0.258882 0.192493
17924 3 0.184031 0.256244 0.199568
17925 1 0.187659 0.254782 0.205432
16786 1 0.18848 0.254046 0.208035
9127 1 0.178114 0.259196 0.190267
3286 1 0.215702 0.250978 0.191001
3287 3 0.212383 0.256423 0.185637
17503 1 0.241345 0.248433 0.211617
9112 1 0.166535 0.33413 0.204778
9113 3 0.173242 0.339143 0.205954
9114 1 0.180778 0.341913 0.206318
3282 1 0.0779233 0.427631 0.205068
3281 2 0.0750809 0.426023 0.211997
20598 1 0.19678 0.443584 0.183557
7911 1 0.278237 0.452253 0.193489
7910 3 0.275648 0.452433 0.186411
8725 1 0.205221 0.519022 0.210782
6755 3 0.0678219 0.532173 0.211447
6756 1 0.0680856 0.538134 0.207957
6457 1 0.163951 0.534164 0.205723
6458 3 0.171784 0.53719 0.206497
10915 1 0.182031 0.540664 0.207551
6459 1 0.179581 0.53971 0.207377
10916 2 0.188437 0.54446 0.209738
8727 1 0.207474 0.532214 0.202839
8726 3 0.206395 0.525005 0.206
10678 1 0.207728 0.535471 0.201685
10679 2 0.209312 0.542947 0.198132
10917 1 0.194464 0.549606 0.211594
2886 1 0.211388 0.55188 0.193531
10680 1 0.210806 0.549392 0.194697
16791 1 0.197313 0.551411 0.212512
9586 1 0.082024 0.581026 0.193006
15157 1 0.171363 0.568784 0.213297
2885 2 0.213684 0.559997 0.190893
2884 1 0.215314 0.568097 0.18857
2391 1 0.216615 0.571376 0.187913
2390 2 0.218698 0.579257 0.186613
9587 2 0.0851229 0.587291 0.195993
9588 1 0.0868145 0.594343 0.19946
17991 1 0.133113 0.596848 0.195544
17990 2 0.131493 0.591014 0.190252
17989 1 0.130281 0.585448 0.184702
2389 1 0.222976 0.586217 0.186348
2921 2 0.083104 0.650627 0.18386
2920 1 0.0813177 0.645833 0.19141
19614 1 0.171314 0.688779 0.194897
19612 1 0.1771 0.687505 0.21108
19613 3 0.174429 0.688557 0.202702
5015 3 0.169372 0.739206 0.208893
5016 1 0.161174 0.736951 0.211912
5014 1 0.176394 0.743534 0.207207
13408 1 0.0120364 0.816558 0.19089
13409 2 0.0125394 0.807817 0.190513
13410 1 0.0124363 0.79866 0.190904
20966 3 0.151599 0.799559 0.213157
20965 1 0.145914 0.805698 0.211841
14287 1 0.167445 0.823073 0.211561
14288 3 0.164457 0.823052 0.203702
14289 1 0.162029 0.821619 0.195659
7394 2 0.00289938 0.0269341 0.215754
7395 1 0.00120476 0.0193404 0.214104
8253 1 0.0840625 0.00738451 0.240369
5758 1 0.284137 0.0231231 0.244204
4721 2 0.00314683 0.045087 0.216266
4722 1 0.00418217 0.0527342 0.214675
4720 1 0.00311938 0.037241 0.217125
7393 1 0.00317489 0.0343827 0.21733
11619 1 0.0854711 0.072391 0.21778
11618 3 0.0930739 0.0702154 0.220156
11617 1 0.0994902 0.066474 0.223704
10656 1 0.248697 0.0729473 0.223114
10655 3 0.247112 0.0736302 0.231439
10654 1 0.246246 0.0715628 0.239481
15301 1 0.157961 0.0998699 0.218849
15302 3 0.154199 0.0938879 0.215654
12708 1 0.169742 0.113822 0.225727
12707 2 0.164334 0.108691 0.221635
12706 1 0.1593 0.102509 0.219866
11849 3 0.084449 0.139419 0.214631
11848 1 0.0837422 0.140415 0.222665
14329 1 0.122661 0.140742 0.230726
14330 2 0.125159 0.139359 0.238919
505 1 0.213621 0.169838 0.229983
12128 3 0.192752 0.181586 0.233321
12129 1 0.19744 0.174493 0.231328
507 1 0.214023 0.161629 0.216872
506 3 0.213133 0.16688 0.223126
18911 3 0.0206042 0.188037 0.222616
18912 1 0.0204974 0.19035 0.21529
18910 1 0.0181166 0.186191 0.230113
3737 2 0.00145994 0.198639 0.214479
9501 1 0.121965 0.214714 0.226221
4522 1 0.183975 0.187844 0.236468
12127 1 0.18631 0.185729 0.235809
4524 1 0.171392 0.196485 0.240419
4523 3 0.177747 0.192354 0.238292
5821 1 7.44886e-05 0.237601 0.213824
9500 2 0.126943 0.220363 0.229381
9499 1 0.131308 0.226782 0.229724
20130 1 0.146398 0.223386 0.238703
16787 2 0.191576 0.253202 0.215588
16788 1 0.193956 0.252358 0.223618
6837 1 0.202492 0.272502 0.22702
6836 2 0.203431 0.26843 0.233574
6835 1 0.203602 0.264903 0.239719
17505 1 0.239461 0.253028 0.227975
17504 3 0.240226 0.250909 0.219163
16473 1 0.189902 0.281438 0.225067
16472 2 0.188721 0.288693 0.221528
16471 1 0.184225 0.294861 0.217486
18426 1 0.000700577 0.322044 0.243831
10343 2 0.00853967 0.329924 0.24028
10344 1 0.0144596 0.335277 0.23946
10342 1 0.00280753 0.324084 0.242936
15558 1 0.147203 0.333367 0.240244
302 3 0.252779 0.335376 0.227185
303 1 0.246105 0.337232 0.230062
301 1 0.259707 0.331944 0.223407
16583 2 0.021795 0.343473 0.24126
16582 1 0.0167014 0.337765 0.239627
16584 1 0.0254801 0.350684 0.240855
14647 1 0.229056 0.343407 0.233215
14648 2 0.236598 0.340725 0.232638
14649 1 0.24319 0.338223 0.231106
3280 1 0.0707636 0.423807 0.218679
18213 1 0.0930506 0.486017 0.233175
18212 2 0.0950372 0.477655 0.233929
9714 1 0.09235 0.48918 0.233181
18211 1 0.0971127 0.469492 0.23571
5381 2 0.174559 0.47782 0.238224
5382 1 0.173671 0.478029 0.230275
11854 1 0.0496385 0.505801 0.218577
11855 3 0.0445141 0.50151 0.218892
11856 1 0.0361343 0.498487 0.219961
21504 1 0.06857 0.52185 0.215037
21503 2 0.0673743 0.513418 0.216258
9712 1 0.086786 0.503574 0.233466
9713 3 0.0888243 0.496287 0.233938
21502 1 0.0675777 0.505701 0.215647
6754 1 0.0682907 0.524447 0.214474
4934 2 0.0837197 0.550929 0.236398
16899 1 0.091498 0.543577 0.234678
4933 1 0.0895021 0.546191 0.234837
16898 2 0.0962335 0.537082 0.233208
16897 1 0.100744 0.531197 0.231716
15757 1 0.0413015 0.558807 0.241067
4935 1 0.0774102 0.55297 0.238945
11434 1 0.0744638 0.553988 0.240124
11435 2 0.0668683 0.557202 0.242565
15159 1 0.161587 0.56771 0.225328
15158 3 0.166897 0.568801 0.219804
1200 1 0.211479 0.559735 0.221739
16789 1 0.208699 0.558547 0.220051
16790 2 0.202451 0.555783 0.216235
1199 2 0.217855 0.562959 0.225472
1198 1 0.223688 0.568535 0.228896
18408 1 0.0320946 0.642432 0.241357
18407 3 0.0325513 0.634561 0.242743
18406 1 0.0343948 0.626688 0.244143
8033 3 0.179799 0.686679 0.222362
8034 1 0.182849 0.685414 0.230517
8032 1 0.177946 0.687038 0.213894
3411 1 0.0410096 0.776774 0.239094
3410 2 0.0426276 0.784932 0.241769
20967 1 0.156217 0.793536 0.215901
15817 1 0.0317858 0.816446 0.232573
15819 1 0.0473767 0.811486 0.235966
15818 3 0.0400417 0.814015 0.233531
8251 1 0.092572 0.0107197 0.252781
8252 3 0.0885311 0.00859894 0.247037
7875 1 0.0943833 0.0110036 0.255022
7874 2 0.0988932 0.0112417 0.261393
7873 1 0.103026 0.0117447 0.268554
12899 2 0.00561443 0.0577067 0.246348
12900 1 0.0123886 0.0558945 0.249618
14331 1 0.128309 0.139651 0.246528
8395 1 0.0399605 0.155546 0.274831
6345 1 0.122248 0.226024 0.25475
20128 1 0.148154 0.217814 0.253741
20129 3 0.14772 0.220689 0.246812
6343 1 0.132615 0.237168 0.256154
6344 3 0.128262 0.23125 0.255381
18249 1 0.134728 0.239329 0.2566
18248 3 0.140535 0.243913 0.258767
18929 2 0.201548 0.221901 0.272167
18928 1 0.196965 0.223482 0.265719
18247 1 0.145518 0.249681 0.260111
733 1 0.112517 0.337082 0.25316
15557 3 0.142473 0.335075 0.247105
15556 1 0.138446 0.335736 0.253837
735 1 0.121287 0.347199 0.247585
734 2 0.117412 0.341669 0.250274
1593 1 0.125359 0.356447 0.251278
1592 2 0.132384 0.357349 0.252643
1591 1 0.138792 0.355896 0.256642
4129 1 0.22669 0.345697 0.267671
13856 2 0.0474451 0.405852 0.269473
13855 1 0.0410272 0.401735 0.272004
13857 1 0.0541185 0.410612 0.266834
20391 1 0.158104 0.422256 0.2617
20390 3 0.155031 0.430464 0.260932
20389 1 0.151754 0.438362 0.261873
2310 1 0.0179527 0.464395 0.263132
2308 1 0.0247882 0.479072 0.261512
17052 1 0.0270541 0.480963 0.260881
2309 2 0.0205249 0.47204 0.263008
17051 2 0.0323976 0.484504 0.258262
17050 1 0.037459 0.490931 0.255516
7362 1 0.186053 0.471307 0.260131
13864 1 0.187854 0.470661 0.262411
7361 2 0.181938 0.473976 0.253618
7360 1 0.178056 0.475536 0.247598
5380 1 0.176878 0.475791 0.245368
13865 3 0.194424 0.470274 0.269644
15758 3 0.0429523 0.562072 0.248645
15610 1 0.0441076 0.564024 0.260014
15759 1 0.0439041 0.563677 0.256735
15611 2 0.0453425 0.565833 0.267458
11436 1 0.0611272 0.562026 0.246293
4295 2 0.21565 0.58018 0.274728
5120 2 0.0547515 0.592557 0.263459
5119 1 0.0537988 0.599441 0.258881
5121 1 0.0556352 0.584704 0.266934
4294 1 0.21862 0.588099 0.274375
15239 2 0.248095 0.644658 0.258249
15240 1 0.241205 0.642422 0.259619
18847 1 0.147283 0.670433 0.255268
19948 1 0.282589 0.646079 0.264879
19950 1 0.2807 0.660039 0.257096
15238 1 0.256095 0.647349 0.257432
19949 2 0.282228 0.652944 0.260806
12085 1 0.0127285 0.676952 0.273466
18848 2 0.144551 0.677589 0.253077
10871 3 0.139354 0.696547 0.249979
10870 1 0.140285 0.687412 0.252061
18849 1 0.141383 0.684816 0.252698
10872 1 0.137716 0.704847 0.249767
19025 2 0.104541 0.718072 0.25151
19026 1 0.103738 0.723591 0.256126
19024 1 0.103087 0.710447 0.248399
10092 1 0.13722 0.707923 0.250073
10091 3 0.136251 0.71566 0.252331
10090 1 0.13623 0.722935 0.25447
18507 1 0.135791 0.726 0.25513
18506 3 0.135418 0.734596 0.256209
11981 3 0.271288 0.729642 0.268823
11980 1 0.272869 0.722575 0.271087
18820 1 0.272701 0.719534 0.272148
18505 1 0.136329 0.74262 0.25807
7539 1 0.266993 0.755122 0.257179
7537 1 0.268873 0.74018 0.26565
11982 1 0.269175 0.73779 0.267062
7538 2 0.267908 0.747871 0.261525
3409 1 0.0443386 0.79231 0.24494
6382 1 0.234128 0.117039 0.303135
6383 2 0.2317 0.124819 0.304202
8396 2 0.047306 0.156093 0.276933
8397 1 0.0541764 0.15747 0.277694
12980 3 0.211423 0.213699 0.286242
12981 1 0.215777 0.21134 0.293633
813 1 0.216567 0.210247 0.29595
812 2 0.219027 0.208684 0.302935
18930 1 0.206003 0.218268 0.277605
12979 1 0.207367 0.217048 0.27972
7413 1 0.145175 0.273079 0.279674
7412 2 0.138031 0.274276 0.283258
8011 1 0.206859 0.272361 0.297765
12990 1 0.205536 0.269927 0.299814
12989 2 0.201787 0.264939 0.304799
7411 1 0.130276 0.276613 0.285045
8013 1 0.208783 0.284739 0.288963
8012 3 0.209104 0.278378 0.293124
11734 1 0.0892502 0.335825 0.286877
11735 3 0.0927237 0.333197 0.294511
11736 1 0.0934721 0.329792 0.301936
2053 1 0.227788 0.335897 0.284331
2054 3 0.228756 0.331617 0.291078
2055 1 0.227618 0.325564 0.296714
4130 2 0.226449 0.343346 0.27496
4131 1 0.227795 0.337967 0.281634
4507 1 0.0708324 0.390262 0.28652
4508 3 0.076289 0.394841 0.283669
4509 1 0.0841486 0.399223 0.28266
8915 3 0.0689223 0.444753 0.303513
8916 1 0.0677877 0.442963 0.295874
5493 1 0.0138166 0.477481 0.292813
5492 2 0.00565409 0.477772 0.293276
13866 1 0.199175 0.471179 0.27644
9757 1 0.247275 0.545879 0.287634
9758 3 0.250776 0.547176 0.295376
9759 1 0.25182 0.550259 0.301549
15612 1 0.0463653 0.570162 0.275104
10560 1 0.211497 0.570939 0.275409
10559 2 0.209095 0.563822 0.277614
10558 1 0.206919 0.55655 0.279967
4296 1 0.212487 0.573395 0.27526
12087 1 0.0201586 0.663333 0.278735
12086 2 0.0162562 0.670634 0.276839
7182 1 0.231693 0.664203 0.279375
7180 1 0.241549 0.661653 0.292437
7181 2 0.236797 0.662943 0.28675
18822 1 0.272076 0.705455 0.28284
18821 2 0.272525 0.712885 0.27742
13477 1 0.157328 0.739873 0.280211
13478 2 0.152599 0.745619 0.285333
13479 1 0.149339 0.750793 0.290739
958 1 0.197745 0.743838 0.301522
959 3 0.199246 0.749236 0.297309
960 1 0.200564 0.755725 0.293629
20520 1 0.27548 0.0123641 0.308885
20519 2 0.276828 0.0202427 0.307095
20518 1 0.278821 0.0288755 0.306428
153 1 0.0587393 0.0397424 0.307906
151 1 0.0722036 0.0311602 0.310325
152 2 0.0645281 0.0356564 0.309542
12477 1 0.140701 0.0687498 0.322326
12476 3 0.147783 0.0677758 0.327228
12475 1 0.153107 0.0674553 0.331273
4563 1 0.154933 0.0667596 0.332984
14826 1 0.212143 0.0977005 0.310307
14824 1 0.212129 0.109139 0.320595
14825 3 0.212028 0.104215 0.314821
18618 1 0.212058 0.111723 0.322989
18617 3 0.212459 0.117691 0.328725
15015 1 0.249625 0.0971582 0.311246
15014 3 0.256429 0.102309 0.312945
15013 1 0.261565 0.108473 0.314064
17209 1 0.26321 0.111193 0.314482
17210 3 0.268753 0.118411 0.315698
17551 1 0.221188 0.146709 0.311681
18616 1 0.213364 0.123164 0.334604
17552 3 0.225708 0.140707 0.31016
17553 1 0.230068 0.135362 0.307344
6384 1 0.230928 0.13314 0.3061
17211 1 0.273253 0.124838 0.316728
861 1 0.164747 0.155784 0.335728
811 1 0.222197 0.20855 0.309595
12988 1 0.197403 0.260193 0.311419
19321 1 0.20877 0.335002 0.317221
17644 1 0.211156 0.333905 0.31865
17645 3 0.21795 0.331469 0.322677
17646 1 0.224157 0.328424 0.326443
10234 1 0.0341877 0.353522 0.331254
19323 1 0.198943 0.341864 0.309563
19322 2 0.203696 0.337957 0.313738
6033 1 0.0955015 0.42312 0.332449
18985 1 0.283804 0.409257 0.323652
18986 3 0.276191 0.413298 0.327402
19660 1 0.270156 0.421495 0.332496
18987 1 0.272327 0.418687 0.331664
19661 2 0.265832 0.429388 0.334006
8914 1 0.068935 0.447108 0.309827
12125 2 0.17809 0.451037 0.325315
12126 1 0.169623 0.449008 0.3254
12124 1 0.185794 0.452199 0.324345
19662 1 0.26153 0.435631 0.335831
5970 1 0.181294 0.525041 0.332715
8432 3 0.101287 0.643413 0.31587
8431 1 0.107771 0.639956 0.311348
8433 1 0.0941142 0.646574 0.320049
299 3 0.0730334 0.663682 0.334967
298 1 0.0682677 0.65907 0.33017
3111 1 0.152482 0.762179 0.320796
17791 1 0.089649 0.791696 0.328158
722 2 0.0854998 0.776064 0.327006
721 1 0.0777073 0.771729 0.324322
723 1 0.0928349 0.780465 0.329832
3109 1 0.149182 0.773088 0.309306
3110 3 0.150769 0.767866 0.315864
17792 2 0.0930754 0.798547 0.331848
17793 1 0.0954491 0.805925 0.334465
4562 2 0.160237 0.0654516 0.338122
4561 1 0.163564 0.063144 0.34477
12145 1 0.2139 0.12519 0.337488
12146 2 0.214941 0.128828 0.343826
12147 1 0.217955 0.134412 0.349735
9218 2 0.252322 0.149451 0.35416
9219 1 0.255902 0.142144 0.354361
17240 2 0.153594 0.159923 0.357761
17241 1 0.156628 0.15835 0.351473
859 1 0.157601 0.157945 0.348261
17239 1 0.150445 0.160989 0.364984
860 2 0.160608 0.157056 0.340972
9217 1 0.249848 0.156673 0.351718
14427 1 0.0251533 0.231165 0.359509
1939 1 0.0325952 0.222721 0.3391
1940 2 0.038045 0.227409 0.339496
14426 3 0.0320925 0.228942 0.36145
14425 1 0.0394658 0.227149 0.3649
1941 1 0.0430483 0.234906 0.339308
14290 1 0.0450253 0.237395 0.33886
14291 3 0.0512679 0.242594 0.337463
14292 1 0.0574755 0.247765 0.337533
6697 1 0.215128 0.249121 0.361305
4434 1 0.263995 0.253491 0.365307
4433 2 0.261225 0.251767 0.356663
4432 1 0.259562 0.252104 0.350139
11015 2 0.241091 0.299939 0.365169
11016 1 0.245342 0.304259 0.359633
10236 1 0.0349245 0.362628 0.345789
10235 3 0.03462 0.358052 0.338547
20213 3 0.0370485 0.366376 0.354906
20212 1 0.0349949 0.363591 0.348413
20154 1 0.0831934 0.339423 0.349722
20153 2 0.0884977 0.341225 0.344279
20152 1 0.0950819 0.343799 0.340349
20214 1 0.0410859 0.369085 0.36353
6032 2 0.0992032 0.42888 0.336289
6031 1 0.10308 0.433714 0.340072
5968 1 0.181394 0.513459 0.344605
5969 3 0.182368 0.519048 0.338506
17417 2 0.12252 0.595068 0.354099
17416 1 0.114946 0.594523 0.351656
17418 1 0.130662 0.596453 0.352592