ITEM: TIMESTEP
30000000
ITEM: NUMBER OF ATOMS
1950
ITEM: BOX BOUNDS pp pp pp
0.0000000000000000e+00 5.0000000000000000e+01
0.0000000000000000e+00 5.0000000000000000e+01
0.0000000000000000e+00 5.0000000000000000e+01
ITEM: ATOMS id type xs ys zs
21570 1 0.0622259 0.502362 0.61756
21569 3 0.0653385 0.504494 0.624988
12417 1 0.057425 0.542157 0.622434
12416 2 0.0616332 0.549136 0.626553
12415 1 0.0644922 0.555788 0.629541
17767 1 0.107998 0.562885 0.605921
15814 1 0.0949356 0.564211 0.626575
17768 3 0.11323 0.567345 0.610424
17769 1 0.117156 0.571285 0.617391
14131 1 0.118087 0.572568 0.619709
14132 3 0.119965 0.576406 0.626107
3647 3 0.0555773 0.492746 0.647942
3648 1 0.0580424 0.48652 0.644997
3646 1 0.0545979 0.498268 0.653792
15835 1 0.0543957 0.500522 0.655924
15836 2 0.0530778 0.507165 0.660767
21568 1 0.0694246 0.506894 0.631716
8653 1 0.0707382 0.507839 0.634192
8654 3 0.0740928 0.511103 0.640829
8655 1 0.0770527 0.515793 0.646172
3490 1 0.0779631 0.517423 0.64816
3491 2 0.0812531 0.522553 0.654016
3492 1 0.0837681 0.527995 0.658401
13581 1 0.085009 0.529666 0.660046
17803 1 0.111525 0.521105 0.649035
17804 2 0.11605 0.52722 0.651175
5086 1 0.0229532 0.553629 0.661067
13039 1 0.0250355 0.55592 0.660491
14206 1 0.0483676 0.54275 0.661235
5587 1 0.0727814 0.561786 0.658763
10417 1 0.0888315 0.546384 0.640267
11976 1 0.0655604 0.558914 0.630702
10418 2 0.0933645 0.551803 0.644873
10419 1 0.098129 0.556957 0.649565
20623 1 0.100024 0.558904 0.651325
17805 1 0.117517 0.534028 0.654762
13239 1 0.118198 0.536663 0.656383
13238 2 0.120304 0.543043 0.660017
16737 1 0.123837 0.559151 0.655776
19978 1 0.0241274 0.574761 0.639083
19979 3 0.0303942 0.58019 0.640893
19980 1 0.0375763 0.584215 0.642587
12753 1 0.040148 0.585992 0.6433
12752 3 0.0451059 0.59111 0.645232
11975 3 0.068192 0.566024 0.633992
11974 1 0.0707774 0.572917 0.637705
3498 1 0.07191 0.575969 0.639186
3497 2 0.075021 0.582363 0.642925
3496 1 0.0777434 0.589597 0.647133
496 1 0.0793138 0.591823 0.648503
5588 2 0.0769446 0.568661 0.659527
5589 1 0.0815516 0.574464 0.661414
15815 3 0.0945722 0.568638 0.633397
15816 1 0.0949811 0.575392 0.637213
4318 1 0.0956874 0.578044 0.638277
4319 2 0.0980939 0.584766 0.640225
20624 2 0.103173 0.565605 0.654123
20625 1 0.105182 0.571796 0.658228
4320 1 0.100772 0.591917 0.643359
20193 1 0.106672 0.574296 0.659506
14133 1 0.121993 0.579919 0.633594
16735 1 0.141911 0.564139 0.655607
2061 1 0.122435 0.581338 0.636204
2060 2 0.124481 0.587228 0.642166
16736 2 0.133497 0.562755 0.656938
5163 1 0.141095 0.592776 0.660412
12751 1 0.0517028 0.595168 0.648548
970 1 0.0535299 0.596682 0.649479
971 2 0.0591783 0.601702 0.6522
972 1 0.0624516 0.607715 0.656263
6385 1 0.0633938 0.610814 0.65771
497 2 0.0821825 0.59923 0.651187
498 1 0.0848865 0.605746 0.655172
4081 1 0.0866026 0.609108 0.656454
4082 2 0.0895564 0.614924 0.658695
6508 1 0.115768 0.624012 0.659449
16749 1 0.101678 0.594194 0.644525
16748 2 0.104377 0.602828 0.645885
6510 1 0.10992 0.612475 0.649652
16747 1 0.10804 0.609844 0.648207
6509 3 0.113141 0.618471 0.653737
4083 1 0.0928473 0.622224 0.661506
2059 1 0.127365 0.59435 0.645227
17014 1 0.128426 0.596829 0.646096
17015 2 0.130844 0.603549 0.648961
17016 1 0.132858 0.610048 0.651117
2911 1 0.133946 0.613112 0.651787
2912 2 0.137197 0.620666 0.653951
14014 1 0.162499 0.609352 0.642015
14015 2 0.161744 0.616246 0.645913
14016 1 0.162241 0.623434 0.648814
12870 1 0.171946 0.612642 0.65712
20778 1 0.193093 0.6163 0.649788
20777 2 0.190688 0.622755 0.654669
457 1 0.0463237 0.451029 0.663537
458 2 0.046612 0.458246 0.667409
459 1 0.0496432 0.465481 0.671132
19855 1 0.0506865 0.468269 0.672699
19856 3 0.0533576 0.473348 0.677956
19857 1 0.0553135 0.479601 0.683565
542 3 0.0542725 0.489157 0.690077
541 1 0.0531163 0.49679 0.693197
543 1 0.0554682 0.481748 0.685022
2456 3 0.0449305 0.519048 0.672644
15837 1 0.0505263 0.513274 0.665159
2455 1 0.0494641 0.515005 0.667031
2457 1 0.0397262 0.523419 0.676127
10108 1 0.0638101 0.516545 0.681468
10109 2 0.0665671 0.522666 0.68466
10110 1 0.0695376 0.528997 0.686558
3303 1 0.0945873 0.528825 0.680828
5088 1 0.0116809 0.54342 0.662979
5087 3 0.0163334 0.548572 0.662031
12964 1 0.0262867 0.558326 0.685094
13040 3 0.0320408 0.560584 0.661806
14207 3 0.0538244 0.548538 0.665285
18178 1 0.0538974 0.545208 0.691909
17250 1 0.0707119 0.531537 0.687401
14208 1 0.060717 0.552874 0.66858
13960 1 0.0627093 0.554337 0.670336
17249 2 0.0753829 0.53827 0.688605
17248 1 0.0798236 0.544674 0.688738
11424 1 0.0814989 0.547194 0.689331
13580 2 0.0879361 0.535694 0.663028
13961 2 0.0682122 0.557576 0.675428
11423 2 0.0855154 0.553078 0.691207
10572 1 0.119517 0.532473 0.676164
13579 1 0.0912444 0.54263 0.664989
2604 1 0.092023 0.545705 0.665862
2603 2 0.0935302 0.552904 0.667548
3302 2 0.099784 0.534544 0.681527
3301 1 0.104012 0.540176 0.684615
12072 1 0.105338 0.543005 0.686052
12071 2 0.107968 0.548457 0.689617
2602 1 0.0956594 0.559433 0.671041
5406 1 0.0960958 0.561901 0.672318
13237 1 0.120994 0.54915 0.665765
9862 1 0.120921 0.55094 0.667643
9863 2 0.119862 0.557861 0.672179
10571 2 0.124816 0.53766 0.679598
10570 1 0.12879 0.543977 0.680937
4969 1 0.130523 0.546179 0.681918
4970 2 0.134718 0.551806 0.686185
4971 1 0.137391 0.559946 0.688485
13882 1 0.15121 0.547433 0.66966
4888 1 0.181415 0.549156 0.688135
16225 1 0.180851 0.551923 0.688532
13883 2 0.153972 0.554396 0.671059
16226 2 0.178535 0.560399 0.688852
4890 1 0.18416 0.533094 0.687172
4889 3 0.183126 0.540949 0.687474
12965 3 0.024929 0.567268 0.683687
12966 1 0.0257896 0.574663 0.683485
6060 1 0.0263106 0.577631 0.683762
6059 2 0.0281368 0.585799 0.685002
8050 1 0.0500269 0.562566 0.686675
13041 1 0.0373747 0.564953 0.665068
3897 1 0.0397576 0.567029 0.66594
3896 3 0.0455624 0.572345 0.668413
3895 1 0.052197 0.577715 0.670129
8051 3 0.0517041 0.569593 0.68997
8052 1 0.0548606 0.576638 0.691727
8200 1 0.0543603 0.579812 0.670664
9955 1 0.0563995 0.579369 0.692715
8201 2 0.0602334 0.585175 0.673056
6058 1 0.0309338 0.592597 0.687496
13962 1 0.0730686 0.562584 0.67826
2203 1 0.0829674 0.576523 0.662866
14008 1 0.0741229 0.565076 0.678802
14009 2 0.0770698 0.572263 0.681639
14010 1 0.0801606 0.578208 0.686473
6073 1 0.081439 0.58026 0.688614
6074 2 0.0839973 0.587701 0.692037
8202 1 0.0650578 0.590676 0.674941
2204 2 0.087243 0.58286 0.666376
1219 1 0.066658 0.592753 0.675555
20192 2 0.109605 0.581151 0.661722
20191 1 0.113075 0.587614 0.663601
9889 1 0.114968 0.59012 0.664691
2205 1 0.0914382 0.589997 0.668548
5405 2 0.0983941 0.568059 0.676029
5404 1 0.101468 0.573956 0.679032
8803 1 0.103001 0.576746 0.680012
8804 2 0.106643 0.582879 0.6831
8805 1 0.10925 0.589382 0.686399
9609 1 0.0927059 0.592548 0.669263
3664 1 0.110771 0.591214 0.687757
21012 1 0.138593 0.562611 0.689726
9864 1 0.122054 0.565174 0.674894
13641 1 0.123095 0.568095 0.676018
13640 2 0.125675 0.575596 0.679427
13639 1 0.128375 0.582599 0.681703
3894 1 0.130037 0.58557 0.68211
21011 2 0.143171 0.569856 0.69283
3893 2 0.133244 0.592018 0.683933
13884 1 0.154168 0.56278 0.674179
14416 1 0.154755 0.565679 0.674794
14417 2 0.156655 0.574418 0.675915
14418 1 0.159767 0.580888 0.67771
2968 1 0.160748 0.583875 0.678461
2969 2 0.162934 0.591728 0.680998
16227 1 0.176411 0.567406 0.68981
1359 1 0.176197 0.570311 0.690285
1358 2 0.175062 0.577637 0.692702
15543 1 0.186748 0.581961 0.672875
15542 2 0.187304 0.589312 0.677573
10813 1 0.04919 0.59927 0.674036
10814 2 0.0523659 0.60651 0.676715
10815 1 0.057425 0.611555 0.680272
8704 1 0.0589471 0.613598 0.681961
17167 1 0.0328359 0.594791 0.688291
17168 3 0.0371581 0.601018 0.691666
6386 2 0.0661701 0.616465 0.6621
8705 2 0.0636325 0.618739 0.686999
1220 2 0.0725611 0.598585 0.676647
1221 1 0.0771007 0.605224 0.677673
3291 1 0.0788348 0.607936 0.677915
3290 2 0.0832663 0.614254 0.678737
3289 1 0.0869433 0.621003 0.681192
12784 1 0.0882355 0.623645 0.682479
6387 1 0.0693962 0.623001 0.665512
705 1 0.109257 0.623264 0.684675
1243 1 0.101494 0.608898 0.678332
9608 2 0.0975347 0.5982 0.673104
9607 1 0.10019 0.605874 0.676742
1244 2 0.105295 0.614619 0.68141
1245 1 0.107851 0.620829 0.68411
9890 2 0.118743 0.59538 0.668247
3665 2 0.114322 0.597048 0.691316
1852 1 0.0939997 0.624404 0.662644
5162 2 0.144389 0.598893 0.664326
9891 1 0.121542 0.602882 0.672281
19350 1 0.123219 0.605769 0.673364
3892 1 0.136763 0.598802 0.686952
5161 1 0.147325 0.60566 0.6682
12703 1 0.137788 0.601302 0.688178
12704 2 0.141848 0.607604 0.690331
19349 2 0.127474 0.612603 0.674423
19348 1 0.130718 0.619503 0.676582
12705 1 0.145008 0.614904 0.692899
13192 1 0.131655 0.621481 0.677623
4657 1 0.148253 0.608082 0.669439
4658 2 0.151272 0.615259 0.672153
4659 1 0.155523 0.622623 0.675357
12868 1 0.178573 0.601035 0.666087
12869 2 0.175327 0.607047 0.662678
2970 1 0.164252 0.59991 0.685163
4654 1 0.164919 0.603255 0.686767
4655 2 0.167587 0.609825 0.689141
4656 1 0.169881 0.616907 0.692116
20725 1 0.176383 0.617319 0.672726
15541 1 0.189037 0.596127 0.680625
11232 1 0.189801 0.599009 0.681501
11231 2 0.191725 0.606424 0.684301
11230 1 0.192458 0.615151 0.686402
10789 1 0.192855 0.617616 0.687548
228 1 0.231926 0.613616 0.691892
4779 1 0.0529627 0.499357 0.694498
5418 1 0.138056 0.488307 0.723105
4778 2 0.0524932 0.506982 0.697493
4777 1 0.0506273 0.51287 0.700819
11497 1 0.0493208 0.5158 0.701453
11498 2 0.0462836 0.523955 0.7032
6631 1 0.0826838 0.514197 0.695502
6632 2 0.0854402 0.520538 0.699787
6633 1 0.0883292 0.527764 0.702184
5259 1 0.0896669 0.53024 0.703131
5643 1 0.106934 0.512033 0.705464
5642 2 0.105475 0.517907 0.70912
5641 1 0.106326 0.524032 0.713635
19720 1 0.106594 0.526365 0.716468
18246 1 0.131047 0.510018 0.717666
18245 2 0.127804 0.515589 0.712509
6507 1 0.125456 0.524689 0.709056
18244 1 0.125741 0.522378 0.70978
11499 1 0.0443644 0.532264 0.704182
4255 1 0.0577671 0.531303 0.71494
15600 1 0.0439761 0.534673 0.704829
15599 3 0.043684 0.543262 0.706402
15598 1 0.0429522 0.549849 0.708768
8811 1 0.0433713 0.552667 0.70959
8810 2 0.0449611 0.560035 0.71171
18179 2 0.0594689 0.549693 0.694811
15138 1 0.0555765 0.552455 0.723128
13195 1 0.0521966 0.534799 0.722671
4256 2 0.065575 0.533266 0.714669
18180 1 0.0633423 0.555368 0.698043
4257 1 0.0726699 0.537346 0.715773
5359 1 0.0745766 0.539289 0.715936
5360 2 0.0786958 0.546535 0.716794
5361 1 0.0819882 0.553421 0.718577
15415 1 0.0829888 0.555372 0.719228
13975 1 0.0651852 0.557646 0.699176
15416 2 0.0847246 0.561934 0.720801
11422 1 0.0891916 0.559312 0.693563
9687 1 0.0903576 0.561853 0.694721
12070 1 0.112309 0.555522 0.694445
2572 1 0.113318 0.558839 0.695093
19721 2 0.109211 0.531708 0.722557
5258 2 0.0944573 0.536617 0.704744
5257 1 0.0975329 0.54204 0.707621
15742 1 0.0986141 0.543988 0.708299
15743 2 0.102774 0.549795 0.710597
15744 1 0.106887 0.556006 0.714094
10864 1 0.107729 0.55868 0.71538
6506 2 0.126063 0.531954 0.707175
6505 1 0.12708 0.539895 0.706632
13003 1 0.12771 0.543072 0.706642
13004 2 0.127533 0.55098 0.706815
13005 1 0.129509 0.557768 0.707637
4261 1 0.130352 0.560475 0.708774
16848 1 0.148408 0.542376 0.702924
19045 1 0.136211 0.539967 0.723054
16847 2 0.152119 0.549893 0.705261
16846 1 0.155071 0.556088 0.707141
2427 1 0.156304 0.55885 0.707582
17772 1 0.180409 0.547198 0.71059
17771 2 0.181053 0.554457 0.710223
17770 1 0.182798 0.561901 0.711418
7202 2 0.207345 0.555518 0.724177
7201 1 0.212751 0.55774 0.719964
9956 2 0.0602438 0.585658 0.695211
8809 1 0.0476775 0.567472 0.712793
11298 1 0.0482509 0.570483 0.713259
11297 2 0.051353 0.57716 0.714776
11296 1 0.055059 0.584496 0.716703
9732 1 0.0563862 0.586967 0.717317
9957 1 0.0635204 0.592364 0.696764
13976 2 0.0697978 0.563988 0.702628
13977 1 0.0728697 0.570719 0.704587
7029 1 0.073363 0.573459 0.705711
7028 2 0.0754178 0.580989 0.708905
7027 1 0.0796316 0.589028 0.711258
17890 1 0.0807954 0.591486 0.712106
15417 1 0.0880144 0.569883 0.723709
9686 2 0.09374 0.568136 0.697566
2573 2 0.116386 0.565706 0.695435
10865 2 0.109999 0.565254 0.718937
9685 1 0.0971454 0.574724 0.70007
2370 1 0.0986915 0.576694 0.700977
2369 2 0.10246 0.583412 0.705159
10866 1 0.113096 0.57173 0.721796
9271 1 0.114649 0.574739 0.722989
2574 1 0.119954 0.57257 0.69663
2368 1 0.105156 0.590527 0.708453
4807 1 0.105717 0.592635 0.709709
21010 1 0.14717 0.576164 0.696527
7224 1 0.121821 0.575387 0.697421
14559 1 0.148684 0.57812 0.698002
4262 2 0.132564 0.567593 0.711998
4263 1 0.135609 0.573619 0.714431
6408 1 0.136694 0.576246 0.71573
7223 2 0.125552 0.582195 0.700343
6407 2 0.139379 0.581967 0.719263
6406 1 0.14194 0.587855 0.721356
16608 1 0.142567 0.590671 0.72253
7222 1 0.128623 0.588585 0.702827
6601 1 0.129367 0.591381 0.70329
14558 2 0.151594 0.584118 0.7006
14557 1 0.154068 0.590741 0.705382
2426 2 0.158461 0.565592 0.710115
2425 1 0.161098 0.572702 0.712754
5232 1 0.16178 0.574833 0.713572
5231 2 0.16496 0.581816 0.717167
5230 1 0.167099 0.588522 0.720658
4578 1 0.16792 0.590703 0.722098
1357 1 0.176219 0.585765 0.694668
9421 1 0.177119 0.58822 0.695788
370 1 0.183528 0.565251 0.712211
371 2 0.185858 0.572643 0.714654
372 1 0.187234 0.579571 0.717294
20863 1 0.187956 0.582739 0.717976
377 2 0.208321 0.59289 0.708301
20864 2 0.188803 0.590207 0.720452
378 1 0.20974 0.588536 0.701719
20245 1 0.219768 0.570249 0.719253
1273 1 0.221714 0.569093 0.716645
1274 3 0.226374 0.566475 0.709726
1275 1 0.231981 0.563952 0.705661
20246 2 0.213721 0.573842 0.723023
9731 2 0.0591264 0.594462 0.717951
17169 1 0.0423608 0.60674 0.695634
16060 1 0.0436184 0.60896 0.697401
16061 2 0.0478698 0.613379 0.702762
9834 1 0.0443271 0.602046 0.721926
16062 1 0.051239 0.619562 0.707071
9833 2 0.0461103 0.609868 0.724249
9159 1 0.0526345 0.621944 0.708519
6075 1 0.087204 0.594338 0.693385
17891 2 0.0850001 0.596784 0.715025
2235 1 0.0650904 0.595438 0.697748
9730 1 0.0621801 0.601213 0.719602
487 1 0.0629211 0.603505 0.720366
488 2 0.0669536 0.610281 0.722441
18311 2 0.0762831 0.618631 0.706596
2234 2 0.0688919 0.602152 0.700107
2233 1 0.0722372 0.609072 0.701506
18312 1 0.0734817 0.612128 0.702764
17892 1 0.08694 0.602913 0.717783
16879 1 0.088476 0.605647 0.718429
6022 1 0.088311 0.596989 0.693964
16880 2 0.0918857 0.613383 0.721027
3666 1 0.117069 0.603704 0.69415
6023 2 0.0920358 0.603574 0.696035
6024 1 0.0954802 0.610881 0.698229
4808 2 0.109537 0.599408 0.712474
21097 1 0.0965176 0.613221 0.699122
4809 1 0.113677 0.605793 0.716187
5691 1 0.114631 0.608241 0.716899
5690 2 0.117691 0.616364 0.718429
11584 1 0.0955383 0.622478 0.7235
21098 2 0.0997654 0.621304 0.702216
16881 1 0.0941496 0.619658 0.722714
15247 1 0.118236 0.606686 0.695115
5689 1 0.120918 0.624255 0.722543
15248 2 0.120102 0.614832 0.698412
13911 1 0.125235 0.623291 0.70062
3206 2 0.148375 0.623765 0.69619
3205 1 0.145814 0.617533 0.69427
13426 1 0.144025 0.620993 0.717478
6602 2 0.131162 0.598982 0.706735
6603 1 0.13568 0.60466 0.709762
13428 1 0.136966 0.606933 0.710438
13427 2 0.140902 0.61409 0.714115
15249 1 0.123948 0.620895 0.699871
15555 1 0.144692 0.62359 0.718467
4577 2 0.17037 0.596949 0.724132
17526 1 0.170967 0.61968 0.693331
18949 1 0.154881 0.593668 0.706326
9422 2 0.18005 0.594202 0.699238
18950 2 0.157804 0.600161 0.706993
18951 1 0.160271 0.60749 0.708271
5590 1 0.161265 0.610411 0.708939
5591 2 0.16371 0.617196 0.711672
5592 1 0.165636 0.623877 0.714761
3617 2 0.197059 0.607589 0.724353
10611 1 0.189482 0.620585 0.711086
376 1 0.206118 0.597059 0.714079
9423 1 0.182725 0.600597 0.701644
9663 1 0.18829 0.617832 0.709964
9661 1 0.183917 0.603266 0.703289
9662 2 0.186076 0.611417 0.707148
20865 1 0.191755 0.598266 0.722598
3618 1 0.193314 0.601008 0.723377
226 1 0.216696 0.612866 0.697924
84 1 0.236488 0.59591 0.716006
227 2 0.225139 0.614259 0.695697
83 2 0.231236 0.601541 0.715471
82 1 0.225756 0.607468 0.715472
11481 1 0.10746 0.494442 0.737793
8197 1 0.109198 0.491989 0.737146
8198 2 0.114548 0.48598 0.73499
8199 1 0.120237 0.47996 0.733031
5417 2 0.140534 0.495596 0.726042
11479 1 0.102862 0.508911 0.740481
11480 3 0.10388 0.500946 0.738332
18814 1 0.102366 0.511873 0.741067
18815 2 0.10264 0.51964 0.743154
18816 1 0.104798 0.526977 0.744729
15496 1 0.105517 0.530265 0.744967
17794 1 0.120676 0.512946 0.739716
17795 2 0.123822 0.519566 0.741548
17796 1 0.125917 0.52793 0.743322
20273 3 0.147967 0.512186 0.729204
5416 1 0.144488 0.502528 0.727437
20274 1 0.145322 0.505321 0.728053
2119 1 0.126559 0.531005 0.744543
21055 1 0.153597 0.522375 0.729151
21056 2 0.157174 0.529316 0.729089
20272 1 0.152376 0.519332 0.729456
6712 1 0.0544404 0.545036 0.744576
13197 1 0.0423465 0.537583 0.735145
13196 2 0.0472296 0.536964 0.729316
6713 2 0.0568167 0.551814 0.747103
6714 1 0.0583068 0.558874 0.74963
16500 1 0.0440282 0.560253 0.733738
5487 1 0.0587809 0.561338 0.750822
15137 2 0.0608487 0.558222 0.72505
18543 1 0.0719498 0.534807 0.739233
4705 1 0.0907793 0.535924 0.728903
18542 2 0.07315 0.542759 0.738194
18541 1 0.0737315 0.549762 0.738651
12234 1 0.074259 0.552359 0.738895
12233 2 0.0770165 0.559433 0.741568
1832 2 0.0879063 0.544092 0.753668
1833 1 0.085088 0.537676 0.750731
19722 1 0.111668 0.538855 0.725949
915 1 0.112656 0.54145 0.72712
4706 2 0.0933008 0.543264 0.730131
15497 2 0.108067 0.537973 0.746446
4707 1 0.095922 0.550114 0.734097
583 1 0.0967251 0.552551 0.735459
584 2 0.0987848 0.558714 0.737971
15498 1 0.110405 0.544221 0.748158
12139 1 0.110805 0.546666 0.748721
12140 2 0.113317 0.553249 0.752439
914 2 0.116415 0.54781 0.72905
913 1 0.120947 0.553593 0.732336
12141 1 0.116372 0.559213 0.756095
15907 1 0.149648 0.531903 0.754788
20580 1 0.142588 0.561895 0.754173
19046 2 0.139993 0.545957 0.726733
2120 2 0.128709 0.537695 0.746942
20251 1 0.134043 0.54647 0.749172
2121 1 0.132653 0.543996 0.748577
20252 2 0.137098 0.553219 0.750908
19047 1 0.143238 0.553285 0.728837
2041 1 0.14438 0.555571 0.7294
18528 1 0.122237 0.556098 0.733518
20253 1 0.141283 0.559437 0.7537
21057 1 0.160188 0.53527 0.727979
21060 1 0.161571 0.53807 0.727607
21059 2 0.163809 0.545441 0.727701
21058 1 0.166929 0.552855 0.729236
21169 1 0.168284 0.555646 0.72971
13665 1 0.170858 0.550617 0.742069
13664 2 0.167641 0.549623 0.748807
16201 1 0.184065 0.547443 0.736206
16202 2 0.190637 0.54916 0.732259
7203 1 0.20016 0.552986 0.727773
16203 1 0.197607 0.5522 0.729284
16499 2 0.0454004 0.567071 0.736173
16498 1 0.0481281 0.575114 0.738017
13356 1 0.0488345 0.577958 0.738316
13355 2 0.0505401 0.5863 0.738536
13354 1 0.053238 0.593472 0.738712
10590 1 0.089415 0.572234 0.724864
5485 1 0.0654311 0.574688 0.755607
15136 1 0.0649901 0.564246 0.726245
20092 1 0.0659802 0.567338 0.727254
12232 1 0.0815073 0.565163 0.744959
7608 1 0.082922 0.567575 0.745905
7607 2 0.0884104 0.573876 0.74763
20093 2 0.0674849 0.574806 0.728449
20094 1 0.0710261 0.581684 0.729509
7372 1 0.0722097 0.583952 0.729636
7373 2 0.0758164 0.590686 0.731987
7606 1 0.090868 0.580423 0.750517
5486 2 0.0620906 0.5679 0.753214
12600 1 0.0661856 0.577366 0.756
9272 2 0.117214 0.581157 0.724792
10589 2 0.0926942 0.578738 0.727067
11390 2 0.0943315 0.589799 0.752948
11389 1 0.0917314 0.583398 0.751088
585 1 0.100682 0.566117 0.74127
14365 1 0.101925 0.568365 0.742089
14366 2 0.107231 0.574628 0.744471
14367 1 0.11047 0.581086 0.746498
3087 1 0.111641 0.58336 0.747008
3086 2 0.114634 0.589732 0.74884
10588 1 0.0951341 0.585071 0.73097
17821 1 0.0962973 0.588211 0.732204
18527 2 0.124676 0.563014 0.735818
2042 2 0.147085 0.563397 0.731307
9273 1 0.122584 0.587361 0.725624
14361 1 0.123878 0.589488 0.726265
18526 1 0.12748 0.569637 0.739705
11040 1 0.12849 0.572017 0.740762
11039 2 0.132366 0.578189 0.742929
11038 1 0.134814 0.585726 0.743861
21477 1 0.136049 0.588375 0.743927
2043 1 0.148805 0.570838 0.733719
4378 1 0.149927 0.573263 0.734519
9596 2 0.167011 0.570628 0.755049
9595 1 0.162614 0.564211 0.752357
4380 1 0.156111 0.586883 0.739577
17538 1 0.157273 0.589061 0.740417
4379 2 0.153057 0.579664 0.73668
21170 2 0.171298 0.562693 0.730955
21171 1 0.173493 0.570487 0.734459
4377 1 0.174134 0.572845 0.735761
4376 2 0.176377 0.580244 0.738525
4375 1 0.179733 0.586848 0.73906
1867 1 0.180941 0.589453 0.739719
7770 1 0.20005 0.579167 0.751737
1701 1 0.211536 0.592936 0.746895
12874 1 0.199354 0.588285 0.741397
12876 1 0.206896 0.579345 0.730565
20247 1 0.208451 0.577467 0.72807
12875 2 0.203719 0.583452 0.736141
19875 1 0.214141 0.592165 0.744944
19874 2 0.221934 0.590348 0.740458
19873 1 0.228554 0.587988 0.735763
9832 1 0.0484951 0.617375 0.72678
10842 1 0.0491507 0.620321 0.728142
3859 1 0.0542529 0.596414 0.738942
3860 2 0.0586151 0.602867 0.740333
489 1 0.0690469 0.617141 0.725039
11638 1 0.0703395 0.619425 0.725568
7374 1 0.0777463 0.5975 0.73487
19059 1 0.0789574 0.600152 0.736306
3861 1 0.0616311 0.610673 0.742806
13296 1 0.0626342 0.613646 0.74412
13295 2 0.0656274 0.620411 0.747508
19058 2 0.0809449 0.605989 0.740143
19057 1 0.0854314 0.612722 0.743421
15378 1 0.0871224 0.61489 0.744011
15377 2 0.0902227 0.621586 0.74486
3230 2 0.101225 0.607382 0.755487
11391 1 0.0971295 0.597786 0.753168
17822 2 0.0997069 0.594867 0.732791
3229 1 0.0983013 0.600885 0.7537
3085 1 0.117717 0.597852 0.751131
10345 1 0.112959 0.619593 0.739707
3267 1 0.111585 0.616828 0.738897
17823 1 0.103399 0.600655 0.734614
3265 1 0.105058 0.603321 0.735389
3266 2 0.107681 0.610164 0.736762
18813 1 0.11939 0.600879 0.751862
7880 2 0.148109 0.611578 0.753073
14360 2 0.126624 0.59721 0.728956
7881 1 0.150356 0.618702 0.756104
16606 1 0.149262 0.60434 0.728519
5223 1 0.137796 0.623723 0.738901
18812 2 0.122943 0.606975 0.754327
16607 2 0.14576 0.597558 0.725945
21475 1 0.142174 0.602417 0.748518
2527 1 0.131303 0.606706 0.731968
15550 1 0.150734 0.606607 0.729715
2529 1 0.136355 0.620978 0.737489
2528 2 0.133027 0.614055 0.735334
7879 1 0.143702 0.604889 0.749561
21476 2 0.139256 0.59551 0.74512
14359 1 0.129941 0.604127 0.730791
15552 1 0.157969 0.618825 0.735053
13978 1 0.166733 0.604804 0.74658
13566 1 0.174958 0.620825 0.751855
15545 2 0.177526 0.613915 0.728865
17536 1 0.165233 0.60202 0.74527
7701 1 0.159514 0.621485 0.736158
15544 1 0.18114 0.619813 0.731385
4576 1 0.173108 0.604617 0.726352
15551 2 0.154127 0.612585 0.732183
13979 2 0.170626 0.611136 0.7488
17537 2 0.161329 0.594885 0.742431
15546 1 0.174178 0.607724 0.726576
13980 1 0.174035 0.61835 0.750877
16483 1 0.199573 0.622745 0.748948
1868 2 0.185168 0.596129 0.741012
1700 2 0.207216 0.594374 0.753276
1869 1 0.189517 0.603678 0.74269
3616 1 0.200642 0.614112 0.725792
4542 1 0.202112 0.617349 0.726187
4541 2 0.20612 0.624299 0.727503
1314 1 0.190826 0.605816 0.743099
1312 1 0.198273 0.619369 0.74806
1313 2 0.195813 0.611952 0.745364
2358 1 0.182478 0.622295 0.732325
14430 1 0.225584 0.622776 0.746492
14428 1 0.220567 0.610721 0.739322
14429 2 0.22237 0.616394 0.743329
6395 2 0.0921155 0.52748 0.765962
6396 1 0.0866621 0.521281 0.765221
14297 2 0.117316 0.525954 0.763076
14298 1 0.113913 0.519956 0.759471
15908 2 0.146233 0.525528 0.759437
19692 1 0.13899 0.519415 0.765055
15909 1 0.140924 0.520549 0.763265
19691 2 0.134898 0.515891 0.770476
19690 1 0.129939 0.512151 0.774708
10463 2 0.156202 0.529767 0.776622
10462 1 0.151089 0.525535 0.771979
4264 1 0.21771 0.516884 0.771295
4265 2 0.217158 0.525864 0.771224
4688 2 0.0603441 0.55329 0.768061
4687 1 0.0559824 0.547744 0.765234
16765 1 0.0804934 0.541979 0.770828
16767 1 0.0845502 0.554337 0.780567
16766 2 0.0824183 0.548206 0.775477
20631 1 0.0851794 0.556571 0.781946
4689 1 0.065594 0.557726 0.768417
20022 1 0.0676281 0.560293 0.768739
16604 2 0.0942966 0.559438 0.763358
16605 1 0.0921054 0.553336 0.760402
1831 1 0.0910488 0.550865 0.758514
6394 1 0.0972318 0.533001 0.767763
7762 1 0.0995308 0.535315 0.769073
7763 2 0.104739 0.541239 0.771696
7764 1 0.108505 0.546956 0.773927
1717 1 0.110133 0.549207 0.774872
1718 2 0.112051 0.556124 0.777114
14296 1 0.121459 0.531926 0.766723
19438 1 0.122827 0.534399 0.767889
8674 1 0.117853 0.561247 0.757227
19440 1 0.132011 0.546856 0.771088
19439 2 0.127692 0.540102 0.770586
9117 1 0.133758 0.549366 0.771109
19013 2 0.154787 0.551075 0.784542
9116 2 0.138448 0.555836 0.771631
19012 1 0.158048 0.550701 0.77846
10464 1 0.161225 0.534304 0.781498
13807 1 0.159475 0.5505 0.775057
13808 2 0.160746 0.549411 0.767342
13809 1 0.163209 0.548375 0.759435
13663 1 0.164078 0.54849 0.756454
8161 1 0.202276 0.54691 0.785489
4266 1 0.215626 0.533779 0.77054
5730 1 0.214971 0.536432 0.77029
5728 1 0.211921 0.551735 0.767962
15955 1 0.211862 0.555103 0.767521
5729 2 0.214017 0.543586 0.769507
8162 2 0.194306 0.548922 0.78589
15205 1 0.0491224 0.581147 0.768981
21291 1 0.0623899 0.586786 0.782472
15206 2 0.0543219 0.58471 0.774557
15207 1 0.0601756 0.586373 0.780388
20630 2 0.0881278 0.562641 0.784569
20021 2 0.0728888 0.565829 0.770205
20020 1 0.07732 0.573102 0.770921
17682 1 0.0789055 0.575942 0.771249
17681 2 0.0824022 0.582542 0.772637
17680 1 0.0850045 0.58966 0.77337
2989 1 0.086206 0.591973 0.774343
12599 2 0.0681429 0.585689 0.757085
16603 1 0.0978601 0.566538 0.764571
4788 1 0.0992508 0.569013 0.765366
4787 2 0.103658 0.575815 0.767121
4786 1 0.10768 0.582592 0.767978
14599 1 0.108687 0.585256 0.768197
14600 2 0.111625 0.593207 0.769055
1719 1 0.114574 0.563943 0.779105
13123 1 0.11575 0.566418 0.77983
13124 2 0.118974 0.573764 0.780786
13125 1 0.121789 0.580337 0.782216
21145 1 0.12322 0.582991 0.783104
8676 1 0.126465 0.573532 0.761819
21146 2 0.126205 0.589797 0.785258
8675 2 0.122237 0.565596 0.759705
7749 1 0.12776 0.5759 0.762261
9115 1 0.142363 0.563672 0.773265
16107 1 0.143632 0.566128 0.774591
7748 2 0.130849 0.582976 0.764303
16106 2 0.145583 0.572166 0.777476
16105 1 0.148954 0.578958 0.779994
15786 1 0.149545 0.581389 0.781071
1166 2 0.15195 0.585471 0.762104
7747 1 0.134525 0.590817 0.766033
6214 1 0.1354 0.59339 0.766921
1165 1 0.156235 0.59235 0.764753
15785 2 0.151515 0.589259 0.783475
20578 1 0.148902 0.575536 0.758996
1167 1 0.149484 0.578104 0.760162
20579 2 0.145794 0.56958 0.756578
7804 1 0.173606 0.579419 0.758747
17272 1 0.161094 0.566228 0.773692
17273 2 0.167457 0.572313 0.776887
17274 1 0.171504 0.578383 0.779421
2065 1 0.173327 0.58087 0.780139
5171 2 0.181845 0.567316 0.766967
5170 1 0.175708 0.56313 0.769705
5172 1 0.187932 0.571353 0.763303
2066 2 0.178533 0.586757 0.781474
7806 1 0.179427 0.592429 0.761297
7805 2 0.17689 0.585825 0.760097
9597 1 0.171603 0.576856 0.757771
7768 1 0.19033 0.573063 0.762049
15956 2 0.212226 0.563723 0.765982
15957 1 0.21117 0.572261 0.763769
7769 2 0.195677 0.575962 0.756298
11465 2 0.052909 0.604556 0.763994
11466 1 0.0495856 0.611931 0.762911
3788 2 0.0462483 0.622316 0.761728
3787 1 0.0484282 0.614452 0.762868
11464 1 0.0557291 0.597916 0.766476
11729 2 0.0836766 0.619533 0.766989
11728 1 0.0802305 0.612997 0.765006
12502 1 0.0784767 0.610609 0.763514
12503 2 0.0746357 0.60432 0.761011
2990 2 0.0903159 0.597547 0.776211
2991 1 0.0940529 0.60356 0.779045
11983 1 0.0777213 0.616852 0.785873
12598 1 0.0696382 0.594095 0.758486
12504 1 0.0706863 0.596769 0.758917
16174 1 0.101294 0.621535 0.784963
16175 2 0.0980368 0.613753 0.782319
14601 1 0.114184 0.600505 0.770524
3231 1 0.10277 0.613598 0.75878
7417 1 0.115052 0.603073 0.770841
12296 2 0.106829 0.623079 0.762395
7418 2 0.119085 0.609787 0.773426
16176 1 0.0953813 0.606564 0.779596
7419 1 0.121573 0.616128 0.776397
687 1 0.122662 0.619022 0.777385
12297 1 0.10389 0.616335 0.759596
7741 1 0.102234 0.624158 0.785747
18811 1 0.12645 0.614114 0.756829
21359 2 0.145089 0.615938 0.776647
6215 2 0.13953 0.599698 0.769554
6216 1 0.142701 0.606992 0.773214
21360 1 0.1437 0.60932 0.773904
7292 2 0.129997 0.622676 0.759886
6184 1 0.157555 0.59447 0.765815
15784 1 0.153054 0.595969 0.78655
21358 1 0.14936 0.623234 0.778753
7293 1 0.127504 0.616318 0.757655
4959 1 0.151798 0.620785 0.757162
18388 1 0.189636 0.624306 0.785848
12342 1 0.1807 0.595037 0.761856
2067 1 0.181867 0.593797 0.782296
1981 1 0.183385 0.59681 0.782824
16904 2 0.17105 0.616504 0.77525
16903 1 0.167193 0.609932 0.773489
6186 1 0.165676 0.607862 0.77243
6185 2 0.162056 0.600665 0.768748
12341 2 0.185282 0.60144 0.762818
1982 3 0.185909 0.602812 0.78358
1983 1 0.187282 0.611104 0.78347
16905 1 0.174728 0.623174 0.776203
11888 2 0.218768 0.620143 0.766466
11889 1 0.211706 0.616794 0.766421
12340 1 0.192227 0.605747 0.765428
6183 1 0.209087 0.615195 0.765928
6182 2 0.201337 0.611286 0.765687
6181 1 0.194569 0.607499 0.765739
1699 1 0.202867 0.596162 0.759629
11887 1 0.226939 0.622629 0.767055
14311 1 0.229768 0.623574 0.767587
981 1 0.155118 0.531666 0.800708
19014 1 0.151258 0.552424 0.791269
7542 1 0.149989 0.552856 0.794296
7540 1 0.14509 0.552596 0.809807
14743 1 0.144255 0.552925 0.813005
7541 2 0.146579 0.552507 0.802127
8163 1 0.187097 0.547952 0.788474
13413 1 0.183783 0.547048 0.789582
980 2 0.161071 0.536104 0.798576
979 1 0.166646 0.54009 0.795907
13412 2 0.175879 0.545618 0.792671
13411 1 0.168763 0.541547 0.794885
20629 1 0.0912607 0.569567 0.787365
21295 1 0.0923966 0.571749 0.788167
21290 2 0.0680538 0.587107 0.788283
21289 1 0.0742748 0.588256 0.793943
21296 2 0.0959529 0.578089 0.789713
21297 1 0.100164 0.58451 0.791391
15987 1 0.101997 0.587129 0.792253
1020 1 0.133901 0.57817 0.798414
1019 2 0.142466 0.575863 0.797424
3003 1 0.153783 0.572684 0.797284
1018 1 0.150658 0.573477 0.797642
4327 1 0.188548 0.570657 0.797616
4329 1 0.172099 0.571094 0.799292
3001 1 0.168977 0.571619 0.798536
4328 2 0.180665 0.571365 0.799624
3002 2 0.161462 0.572095 0.797375
11984 2 0.0717715 0.616136 0.790676
11985 1 0.0660527 0.61463 0.795619
15986 2 0.105776 0.593927 0.794268
15985 1 0.109609 0.601008 0.796056
18946 1 0.111048 0.603526 0.796453
18947 2 0.114355 0.611156 0.798198
18948 1 0.117217 0.619451 0.800076
556 1 0.118247 0.622151 0.800347
21147 1 0.130015 0.59601 0.7882
15201 1 0.131146 0.598251 0.788949
15199 1 0.136387 0.611352 0.793797
15200 2 0.133632 0.604666 0.791173
6574 1 0.13732 0.614284 0.794333
6575 2 0.140337 0.621493 0.795676
1023 1 0.154373 0.598593 0.788126
10799 2 0.168171 0.620624 0.795566
1022 2 0.158647 0.605211 0.791089