ITEM: TIMESTEP
0
ITEM: NUMBER OF ATOMS
8970
ITEM: BOX BOUNDS pp pp pp
0.0000000000000000e+00 5.0000000000000000e+01
0.0000000000000000e+00 5.0000000000000000e+01
0.0000000000000000e+00 5.0000000000000000e+01
ITEM: ATOMS id type 
1 1 
2 3 
3 1 
61 1 
62 3 
63 1 
121 1 
122 2 
123 1 
124 1 
125 2 
126 1 
127 1 
128 3 
129 1 
130 1 
131 2 
132 1 
244 1 
245 2 
246 1 
250 1 
251 3 
252 1 
301 1 
302 3 
303 1 
304 1 
305 3 
306 1 
307 1 
308 2 
309 1 
310 1 
311 2 
312 1 
361 1 
362 3 
363 1 
364 1 
365 3 
366 1 
367 1 
368 2 
369 1 
424 1 
425 3 
426 1 
430 1 
431 2 
432 1 
481 1 
482 3 
483 1 
484 1 
485 2 
486 1 
1150 1 
1151 2 
1152 1 
1201 1 
1202 3 
1203 1 
1204 1 
1205 3 
1206 1 
1210 1 
1211 3 
1212 1 
1264 1 
1265 3 
1266 1 
1267 1 
1268 2 
1269 1 
1324 1 
1325 2 
1326 1 
1381 1 
1382 2 
1383 1 
1384 1 
1385 3 
1386 1 
1441 1 
1442 2 
1443 1 
1444 1 
1445 2 
1446 1 
1450 1 
1451 3 
1452 1 
1561 1 
1562 2 
1563 1 
1567 1 
1568 2 
1569 1 
1570 1 
1571 2 
1572 1 
1621 1 
1622 2 
1623 1 
1624 1 
1625 2 
1626 1 
2221 1 
2222 3 
2223 1 
2227 1 
2228 2 
2229 1 
2281 1 
2282 2 
2283 1 
2287 1 
2288 2 
2289 1 
2344 1 
2345 2 
2346 1 
2350 1 
2351 2 
2352 1 
2401 1 
2402 3 
2403 1 
2581 1 
2582 2 
2583 1 
2584 1 
2585 3 
2586 1 
2590 1 
2591 2 
2592 1 
3190 1 
3191 2 
3192 1 
3244 1 
3245 2 
3246 1 
3310 1 
3311 2 
3312 1 
3481 1 
3482 2 
3483 1 
3484 1 
3485 2 
3486 1 
3541 1 
3542 3 
3543 1 
3601 1 
3602 3 
3603 1 
3607 1 
3608 3 
3609 1 
3610 1 
3611 2 
3612 1 
3661 1 
3662 3 
3663 1 
3721 1 
3722 2 
3723 1 
3724 1 
3725 2 
3726 1 
3727 1 
3728 2 
3729 1 
3730 1 
3731 2 
3732 1 
4324 1 
4325 3 
4326 1 
4330 1 
4331 2 
4332 1 
4381 1 
4382 3 
4383 1 
4390 1 
4391 2 
4392 1 
4441 1 
4442 3 
4443 1 
4501 1 
4502 3 
4503 1 
4507 1 
4508 3 
4509 1 
4510 1 
4511 2 
4512 1 
4561 1 
4562 2 
4563 1 
4567 1 
4568 2 
4569 1 
4627 1 
4628 2 
4629 1 
4681 1 
4682 2 
4683 1 
4741 1 
4742 3 
4743 1 
4744 1 
4745 3 
4746 1 
4801 1 
4802 2 
4803 1 
4804 1 
4805 3 
4806 1 
4810 1 
4811 3 
4812 1 
4861 1 
4862 3 
4863 1 
4864 1 
4865 2 
4866 1 
4867 1 
4868 3 
4869 1 
5461 1 
5462 2 
5463 1 
5467 1 
5468 2 
5469 1 
5470 1 
5471 2 
5472 1 
5524 1 
5525 3 
5526 1 
5650 1 
5651 3 
5652 1 
5701 1 
5702 2 
5703 1 
5764 1 
5765 2 
5766 1 
5821 1 
5822 3 
5823 1 
5824 1 
5825 3 
5826 1 
5827 1 
5828 2 
5829 1 
5887 1 
5888 3 
5889 1 
5890 1 
5891 2 
5892 1 
5941 1 
5942 3 
5943 1 
5944 1 
5945 3 
5946 1 
5947 1 
5948 2 
5949 1 
6004 1 
6005 2 
6006 1 
6010 1 
6011 3 
6012 1 
6667 1 
6668 3 
6669 1 
6670 1 
6671 2 
6672 1 
6724 1 
6725 3 
6726 1 
6730 1 
6731 3 
6732 1 
6781 1 
6782 2 
6783 1 
6787 1 
6788 2 
6789 1 
6844 1 
6845 3 
6846 1 
6901 1 
6902 2 
6903 1 
6904 1 
6905 2 
6906 1 
6907 1 
6908 2 
6909 1 
6961 1 
6962 3 
6963 1 
7021 1 
7022 2 
7023 1 
7024 1 
7025 2 
7026 1 
7030 1 
7031 2 
7032 1 
7081 1 
7082 3 
7083 1 
7090 1 
7091 2 
7092 1 
7141 1 
7142 3 
7143 1 
7147 1 
7148 3 
7149 1 
7150 1 
7151 2 
7152 1 
7210 1 
7211 3 
7212 1 
7744 1 
7745 2 
7746 1 
7801 1 
7802 3 
7803 1 
7807 1 
7808 3 
7809 1 
7867 1 
7868 2 
7869 1 
7927 1 
7928 3 
7929 1 
7930 1 
7931 2 
7932 1 
7981 1 
7982 3 
7983 1 
7990 1 
7991 3 
7992 1 
8101 1 
8102 3 
8103 1 
8104 1 
8105 3 
8106 1 
8107 1 
8108 2 
8109 1 
8170 1 
8171 2 
8172 1 
8221 1 
8222 3 
8223 1 
8224 1 
8225 3 
8226 1 
8227 1 
8228 3 
8229 1 
8281 1 
8282 3 
8283 1 
8284 1 
8285 2 
8286 1 
8884 1 
8885 3 
8886 1 
8941 1 
8942 3 
8943 1 
8950 1 
8951 3 
8952 1 
9004 1 
9005 2 
9006 1 
9010 1 
9011 2 
9012 1 
9070 1 
9071 2 
9072 1 
9127 1 
9128 3 
9129 1 
9181 1 
9182 2 
9183 1 
9187 1 
9188 2 
9189 1 
9250 1 
9251 2 
9252 1 
9301 1 
9302 3 
9303 1 
9304 1 
9305 2 
9306 1 
9967 1 
9968 2 
9969 1 
9970 1 
9971 2 
9972 1 
10024 1 
10025 3 
10026 1 
10081 1 
10082 3 
10083 1 
10084 1 
10085 2 
10086 1 
10087 1 
10088 3 
10089 1 
10090 1 
10091 3 
10092 1 
10141 1 
10142 3 
10143 1 
10147 1 
10148 3 
10149 1 
10150 1 
10151 3 
10152 1 
10201 1 
10202 2 
10203 1 
10204 1 
10205 2 
10206 1 
10207 1 
10208 3 
10209 1 
10270 1 
10271 2 
10272 1 
10381 1 
10382 2 
10383 1 
10384 1 
10385 3 
10386 1 
10390 1 
10391 3 
10392 1 
10444 1 
10445 3 
10446 1 
10447 1 
10448 2 
10449 1 
10450 1 
10451 2 
10452 1 
10504 1 
10505 3 
10506 1 
10507 1 
10508 3 
10509 1 
16 1 
17 2 
18 1 
19 1 
20 3 
21 1 
76 1 
77 3 
78 1 
79 1 
80 3 
81 1 
142 1 
143 3 
144 1 
193 1 
194 2 
195 1 
202 1 
203 3 
204 1 
256 1 
257 2 
258 1 
313 1 
314 3 
315 1 
316 1 
317 2 
318 1 
319 1 
320 2 
321 1 
373 1 
374 3 
375 1 
442 1 
443 3 
444 1 
493 1 
494 3 
495 1 
1156 1 
1157 2 
1158 1 
1216 1 
1217 3 
1218 1 
1333 1 
1334 3 
1335 1 
1336 1 
1337 2 
1338 1 
1342 1 
1343 2 
1344 1 
1396 1 
1397 2 
1398 1 
1402 1 
1403 3 
1404 1 
1459 1 
1460 2 
1461 1 
1462 1 
1463 2 
1464 1 
1573 1 
1574 2 
1575 1 
1642 1 
1643 3 
1644 1 
2239 1 
2240 3 
2241 1 
2242 1 
2243 3 
2244 1 
2299 1 
2300 3 
2301 1 
2302 1 
2303 2 
2304 1 
2353 1 
2354 2 
2355 1 
2416 1 
2417 2 
2418 1 
2473 1 
2474 2 
2475 1 
2476 1 
2477 3 
2478 1 
2482 1 
2483 2 
2484 1 
3193 1 
3194 2 
3195 1 
3196 1 
3197 2 
3198 1 
3256 1 
3257 3 
3258 1 
3259 1 
3260 2 
3261 1 
3322 1 
3323 3 
3324 1 
3556 1 
3557 3 
3558 1 
3613 1 
3614 2 
3615 1 
3619 1 
3620 2 
3621 1 
3622 1 
3623 2 
3624 1 
3682 1 
3683 3 
3684 1 
3736 1 
3737 2 
3738 1 
4339 1 
4340 2 
4341 1 
4453 1 
4454 2 
4455 1 
4456 1 
4457 2 
4458 1 
4459 1 
4460 3 
4461 1 
4462 1 
4463 2 
4464 1 
4522 1 
4523 3 
4524 1 
4579 1 
4580 2 
4581 1 
4693 1 
4694 3 
4695 1 
4696 1 
4697 3 
4698 1 
4699 1 
4700 3 
4701 1 
4753 1 
4754 2 
4755 1 
4756 1 
4757 2 
4758 1 
4759 1 
4760 3 
4761 1 
4813 1 
4814 3 
4815 1 
4819 1 
4820 3 
4821 1 
4822 1 
4823 2 
4824 1 
4876 1 
4877 2 
4878 1 
4879 1 
4880 3 
4881 1 
4882 1 
4883 2 
4884 1 
5473 1 
5474 2 
5475 1 
5536 1 
5537 2 
5538 1 
5542 1 
5543 3 
5544 1 
5593 1 
5594 3 
5595 1 
5602 1 
5603 3 
5604 1 
5656 1 
5657 3 
5658 1 
5662 1 
5663 3 
5664 1 
5713 1 
5714 3 
5715 1 
5716 1 
5717 2 
5718 1 
5779 1 
5780 2 
5781 1 
5782 1 
5783 2 
5784 1 
5833 1 
5834 2 
5835 1 
5902 1 
5903 3 
5904 1 
5956 1 
5957 3 
5958 1 
6013 1 
6014 2 
6015 1 
6016 1 
6017 3 
6018 1 
6682 1 
6683 2 
6684 1 
6739 1 
6740 2 
6741 1 
6742 1 
6743 3 
6744 1 
6793 1 
6794 2 
6795 1 
6859 1 
6860 3 
6861 1 
6913 1 
6914 2 
6915 1 
6916 1 
6917 2 
6918 1 
6976 1 
6977 3 
6978 1 
6979 1 
6980 2 
6981 1 
6982 1 
6983 2 
6984 1 
7042 1 
7043 3 
7044 1 
7096 1 
7097 2 
7098 1 
7099 1 
7100 2 
7101 1 
7213 1 
7214 3 
7215 1 
7216 1 
7217 2 
7218 1 
7756 1 
7757 2 
7758 1 
7759 1 
7760 2 
7761 1 
7873 1 
7874 2 
7875 1 
7882 1 
7883 3 
7884 1 
7993 1 
7994 2 
7995 1 
8053 1 
8054 3 
8055 1 
8056 1 
8057 3 
8058 1 
8062 1 
8063 2 
8064 1 
8116 1 
8117 2 
8118 1 
8173 1 
8174 2 
8175 1 
8176 1 
8177 2 
8178 1 
8239 1 
8240 2 
8241 1 
8293 1 
8294 2 
8295 1 
8896 1 
8897 2 
8898 1 
8956 1 
8957 2 
8958 1 
9013 1 
9014 3 
9015 1 
9022 1 
9023 2 
9024 1 
9073 1 
9074 2 
9075 1 
9082 1 
9083 2 
9084 1 
9133 1 
9134 3 
9135 1 
9139 1 
9140 2 
9141 1 
9142 1 
9143 2 
9144 1 
9199 1 
9200 2 
9201 1 
9256 1 
9257 3 
9258 1 
9259 1 
9260 3 
9261 1 
9262 1 
9263 3 
9264 1 
9973 1 
9974 3 
9975 1 
9979 1 
9980 2 
9981 1 
9982 1 
9983 2 
9984 1 
10036 1 
10037 2 
10038 1 
10096 1 
10097 2 
10098 1 
10153 1 
10154 2 
10155 1 
10159 1 
10160 3 
10161 1 
10219 1 
10220 2 
10221 1 
10273 1 
10274 2 
10275 1 
10342 1 
10343 2 
10344 1 
10393 1 
10394 3 
10395 1 
10399 1 
10400 2 
10401 1 
10402 1 
10403 2 
10404 1 
10513 1 
10514 2 
10515 1 
10516 1 
10517 2 
10518 1 
10522 1 
10523 3 
10524 1 
25 1 
26 2 
27 1 
31 1 
32 3 
33 1 
34 1 
35 3 
36 1 
88 1 
89 3 
90 1 
151 1 
152 2 
153 1 
214 1 
215 3 
216 1 
325 1 
326 2 
327 1 
385 1 
386 3 
387 1 
391 1 
392 3 
393 1 
505 1 
506 3 
507 1 
508 1 
509 2 
510 1 
511 1 
512 2 
513 1 
514 1 
515 3 
516 1 
1171 1 
1172 3 
1173 1 
1228 1 
1229 3 
1230 1 
1348 1 
1349 2 
1350 1 
1354 1 
1355 2 
1356 1 
1408 1 
1409 3 
1410 1 
1411 1 
1412 2 
1413 1 
1468 1 
1469 2 
1470 1 
1474 1 
1475 3 
1476 1 
1525 1 
1526 3 
1527 1 
1531 1 
1532 2 
1533 1 
1585 1 
1586 3 
1587 1 
1591 1 
1592 2 
1593 1 
1594 1 
1595 2 
1596 1 
1654 1 
1655 3 
1656 1 
2254 1 
2255 3 
2256 1 
2308 1 
2309 2 
2310 1 
2374 1 
2375 2 
2376 1 
2428 1 
2429 2 
2430 1 
2431 1 
2432 3 
2433 1 
2434 1 
2435 2 
2436 1 
2491 1 
2492 2 
2493 1 
2605 1 
2606 2 
2607 1 
2614 1 
2615 2 
2616 1 
3271 1 
3272 2 
3273 1 
3328 1 
3329 3 
3330 1 
3334 1 
3335 3 
3336 1 
3385 1 
3386 2 
3387 1 
3391 1 
3392 2 
3393 1 
3394 1 
3395 3 
3396 1 
3445 1 
3446 2 
3447 1 
3451 1 
3452 3 
3453 1 
3505 1 
3506 3 
3507 1 
3508 1 
3509 3 
3510 1 
3511 1 
3512 2 
3513 1 
3565 1 
3566 2 
3567 1 
3568 1 
3569 2 
3570 1 
3571 1 
3572 3 
3573 1 
3574 1 
3575 2 
3576 1 
3634 1 
3635 2 
3636 1 
3745 1 
3746 3 
3747 1 
3751 1 
3752 3 
3753 1 
4348 1 
4349 3 
4350 1 
4351 1 
4352 3 
4353 1 
4354 1 
4355 2 
4356 1 
4408 1 
4409 2 
4410 1 
4465 1 
4466 3 
4467 1 
4468 1 
4469 2 
4470 1 
4474 1 
4475 2 
4476 1 
4528 1 
4529 2 
4530 1 
4531 1 
4532 3 
4533 1 
4588 1 
4589 2 
4590 1 
4591 1 
4592 3 
4593 1 
4645 1 
4646 2 
4647 1 
4648 1 
4649 2 
4650 1 
4651 1 
4652 3 
4653 1 
4708 1 
4709 3 
4710 1 
4765 1 
4766 3 
4767 1 
4828 1 
4829 3 
4830 1 
4831 1 
4832 3 
4833 1 
4885 1 
4886 3 
4887 1 
4894 1 
4895 3 
4896 1 
5488 1 
5489 2 
5490 1 
5491 1 
5492 2 
5493 1 
5494 1 
5495 2 
5496 1 
5605 1 
5606 2 
5607 1 
5614 1 
5615 2 
5616 1 
5665 1 
5666 3 
5667 1 
5905 1 
5906 2 
5907 1 
5911 1 
5912 3 
5913 1 
5914 1 
5915 2 
5916 1 
5965 1 
5966 3 
5967 1 
5968 1 
5969 3 
5970 1 
5971 1 
5972 3 
5973 1 
6025 1 
6026 3 
6027 1 
6031 1 
6032 2 
6033 1 
6034 1 
6035 2 
6036 1 
6685 1 
6686 2 
6687 1 
6688 1 
6689 3 
6690 1 
6691 1 
6692 2 
6693 1 
6748 1 
6749 2 
6750 1 
6754 1 
6755 3 
6756 1 
6811 1 
6812 3 
6813 1 
6868 1 
6869 2 
6870 1 
6871 1 
6872 2 
6873 1 
6925 1 
6926 3 
6927 1 
6988 1 
6989 2 
6990 1 
7045 1 
7046 3 
7047 1 
7051 1 
7052 2 
7053 1 
7108 1 
7109 3 
7110 1 
7111 1 
7112 2 
7113 1 
7114 1 
7115 2 
7116 1 
7168 1 
7169 3 
7170 1 
7174 1 
7175 2 
7176 1 
7225 1 
7226 2 
7227 1 
7765 1 
7766 3 
7767 1 
7774 1 
7775 2 
7776 1 
7828 1 
7829 2 
7830 1 
7888 1 
7889 2 
7890 1 
7891 1 
7892 2 
7893 1 
7945 1 
7946 2 
7947 1 
8005 1 
8006 2 
8007 1 
8008 1 
8009 3 
8010 1 
8011 1 
8012 3 
8013 1 
8065 1 
8066 2 
8067 1 
8068 1 
8069 3 
8070 1 
8071 1 
8072 2 
8073 1 
8128 1 
8129 2 
8130 1 
8131 1 
8132 3 
8133 1 
8134 1 
8135 3 
8136 1 
8194 1 
8195 3 
8196 1 
8248 1 
8249 3 
8250 1 
8251 1 
8252 3 
8253 1 
8254 1 
8255 2 
8256 1 
8308 1 
8309 2 
8310 1 
8314 1 
8315 2 
8316 1 
8908 1 
8909 3 
8910 1 
8914 1 
8915 3 
8916 1 
8971 1 
8972 2 
8973 1 
9025 1 
9026 2 
9027 1 
9031 1 
9032 2 
9033 1 
9034 1 
9035 3 
9036 1 
9085 1 
9086 3 
9087 1 
9088 1 
9089 2 
9090 1 
9091 1 
9092 2 
9093 1 
9145 1 
9146 3 
9147 1 
9148 1 
9149 3 
9150 1 
9211 1 
9212 2 
9213 1 
9265 1 
9266 3 
9267 1 
9274 1 
9275 2 
9276 1 
9325 1 
9326 2 
9327 1 
9331 1 
9332 2 
9333 1 
9985 1 
9986 3 
9987 1 
9994 1 
9995 2 
9996 1 
10165 1 
10166 2 
10167 1 
10225 1 
10226 3 
10227 1 
10234 1 
10235 3 
10236 1 
10294 1 
10295 3 
10296 1 
10348 1 
10349 3 
10350 1 
10354 1 
10355 3 
10356 1 
10405 1 
10406 3 
10407 1 
10408 1 
10409 3 
10410 1 
10465 1 
10466 2 
10467 1 
10474 1 
10475 3 
10476 1 
10525 1 
10526 3 
10527 1 
10531 1 
10532 2 
10533 1 
37 1 
38 2 
39 1 
43 1 
44 2 
45 1 
97 1 
98 3 
99 1 
103 1 
104 3 
105 1 
160 1 
161 3 
162 1 
166 1 
167 2 
168 1 
217 1 
218 3 
219 1 
277 1 
278 3 
279 1 
280 1 
281 2 
282 1 
286 1 
287 3 
288 1 
397 1 
398 3 
399 1 
403 1 
404 3 
405 1 
460 1 
461 2 
462 1 
517 1 
518 3 
519 1 
1177 1 
1178 3 
1179 1 
1180 1 
1181 2 
1182 1 
1246 1 
1247 2 
1248 1 
1303 1 
1304 3 
1305 1 
1360 1 
1361 3 
1362 1 
1363 1 
1364 2 
1365 1 
1417 1 
1418 3 
1419 1 
1480 1 
1481 3 
1482 1 
1483 1 
1484 3 
1485 1 
1540 1 
1541 2 
1542 1 
1543 1 
1544 2 
1545 1 
1546 1 
1547 3 
1548 1 
1597 1 
1598 3 
1599 1 
1657 1 
1658 3 
1659 1 
1660 1 
1661 2 
1662 1 
1666 1 
1667 3 
1668 1 
2257 1 
2258 2 
2259 1 
2320 1 
2321 3 
2322 1 
2323 1 
2324 3 
2325 1 
2326 1 
2327 3 
2328 1 
2437 1 
2438 2 
2439 1 
2497 1 
2498 3 
2499 1 
2503 1 
2504 2 
2505 1 
2506 1 
2507 3 
2508 1 
2557 1 
2558 2 
2559 1 
2560 1 
2561 2 
2562 1 
2563 1 
2564 2 
2565 1 
2617 1 
2618 3 
2619 1 
2620 1 
2621 2 
2622 1 
3220 1 
3221 3 
3222 1 
3223 1 
3224 3 
3225 1 
3226 1 
3227 3 
3228 1 
3277 1 
3278 2 
3279 1 
3280 1 
3281 2 
3282 1 
3283 1 
3284 2 
3285 1 
3286 1 
3287 3 
3288 1 
3343 1 
3344 2 
3345 1 
3397 1 
3398 3 
3399 1 
3403 1 
3404 3 
3405 1 
3523 1 
3524 3 
3525 1 
3526 1 
3527 3 
3528 1 
3577 1 
3578 3 
3579 1 
3586 1 
3587 3 
3588 1 
3637 1 
3638 2 
3639 1 
3643 1 
3644 2 
3645 1 
3697 1 
3698 2 
3699 1 
3760 1 
3761 3 
3762 1 
4357 1 
4358 3 
4359 1 
4360 1 
4361 3 
4362 1 
4486 1 
4487 2 
4488 1 
4537 1 
4538 2 
4539 1 
4606 1 
4607 2 
4608 1 
4660 1 
4661 2 
4662 1 
4666 1 
4667 2 
4668 1 
4720 1 
4721 2 
4722 1 
4840 1 
4841 3 
4842 1 
4843 1 
4844 2 
4845 1 
5506 1 
5507 2 
5508 1 
5560 1 
5561 3 
5562 1 
5566 1 
5567 2 
5568 1 
5623 1 
5624 2 
5625 1 
5626 1 
5627 2 
5628 1 
5677 1 
5678 3 
5679 1 
5740 1 
5741 2 
5742 1 
5797 1 
5798 2 
5799 1 
5800 1 
5801 2 
5802 1 
5863 1 
5864 2 
5865 1 
5866 1 
5867 3 
5868 1 
5923 1 
5924 3 
5925 1 
5926 1 
5927 3 
5928 1 
5983 1 
5984 2 
5985 1 
5986 1 
5987 3 
5988 1 
6040 1 
6041 3 
6042 1 
6043 1 
6044 3 
6045 1 
6697 1 
6698 2 
6699 1 
6703 1 
6704 3 
6705 1 
6706 1 
6707 2 
6708 1 
6757 1 
6758 3 
6759 1 
6760 1 
6761 2 
6762 1 
6763 1 
6764 3 
6765 1 
6766 1 
6767 3 
6768 1 
6817 1 
6818 2 
6819 1 
6823 1 
6824 3 
6825 1 
6826 1 
6827 3 
6828 1 
6877 1 
6878 2 
6879 1 
6883 1 
6884 3 
6885 1 
6886 1 
6887 2 
6888 1 
6937 1 
6938 2 
6939 1 
6940 1 
6941 2 
6942 1 
6943 1 
6944 3 
6945 1 
7003 1 
7004 2 
7005 1 
7126 1 
7127 3 
7128 1 
7180 1 
7181 2 
7182 1 
7183 1 
7184 3 
7185 1 
7186 1 
7187 2 
7188 1 
7777 1 
7778 3 
7779 1 
7780 1 
7781 3 
7782 1 
7786 1 
7787 2 
7788 1 
7837 1 
7838 3 
7839 1 
7843 1 
7844 3 
7845 1 
7906 1 
7907 3 
7908 1 
8017 1 
8018 2 
8019 1 
8023 1 
8024 2 
8025 1 
8077 1 
8078 3 
8079 1 
8083 1 
8084 2 
8085 1 
8086 1 
8087 2 
8088 1 
8143 1 
8144 2 
8145 1 
8206 1 
8207 3 
8208 1 
8257 1 
8258 3 
8259 1 
8263 1 
8264 2 
8265 1 
8317 1 
8318 2 
8319 1 
8320 1 
8321 3 
8322 1 
8917 1 
8918 3 
8919 1 
8980 1 
8981 2 
8982 1 
8983 1 
8984 3 
8985 1 
8986 1 
8987 3 
8988 1 
9040 1 
9041 2 
9042 1 
9046 1 
9047 3 
9048 1 
9163 1 
9164 3 
9165 1 
9217 1 
9218 2 
9219 1 
9220 1 
9221 3 
9222 1 
9223 1 
9224 3 
9225 1 
9277 1 
9278 2 
9279 1 
9286 1 
9287 2 
9288 1 
9340 1 
9341 3 
9342 1 
9343 1 
9344 2 
9345 1 
9997 1 
9998 2 
9999 1 
10060 1 
10061 2 
10062 1 
10066 1 
10067 3 
10068 1 
10120 1 
10121 3 
10122 1 
10123 1 
10124 3 
10125 1 
10177 1 
10178 2 
10179 1 
10237 1 
10238 2 
10239 1 
10420 1 
10421 2 
10422 1 
10477 1 
10478 2 
10479 1 
10540 1 
10541 3 
10542 1 
49 1 
50 3 
51 1 
58 1 
59 3 
60 1 
109 1 
110 3 
111 1 
169 1 
170 3 
171 1 
172 1 
173 3 
174 1 
232 1 
233 2 
234 1 
289 1 
290 3 
291 1 
292 1 
293 3 
294 1 
298 1 
299 3 
300 1 
358 1 
359 3 
360 1 
412 1 
413 2 
414 1 
415 1 
416 3 
417 1 
469 1 
470 2 
471 1 
472 1 
473 3 
474 1 
478 1 
479 2 
480 1 
529 1 
530 3 
531 1 
532 1 
533 3 
534 1 
535 1 
536 3 
537 1 
538 1 
539 3 
540 1 
1189 1 
1190 3 
1191 1 
1192 1 
1193 3 
1194 1 
1195 1 
1196 3 
1197 1 
1198 1 
1199 2 
1200 1 
1255 1 
1256 2 
1257 1 
1309 1 
1310 3 
1311 1 
1369 1 
1370 3 
1371 1 
1378 1 
1379 3 
1380 1 
1435 1 
1436 3 
1437 1 
1489 1 
1490 2 
1491 1 
1495 1 
1496 2 
1497 1 
1552 1 
1553 3 
1554 1 
1555 1 
1556 3 
1557 1 
1558 1 
1559 3 
1560 1 
1672 1 
1673 3 
1674 1 
2332 1 
2333 2 
2334 1 
2389 1 
2390 2 
2391 1 
2392 1 
2393 3 
2394 1 
2398 1 
2399 2 
2400 1 
2509 1 
2510 3 
2511 1 
2512 1 
2513 3 
2514 1 
2518 1 
2519 3 
2520 1 
2569 1 
2570 3 
2571 1 
2575 1 
2576 2 
2577 1 
2629 1 
2630 2 
2631 1 
2632 1 
2633 3 
2634 1 
2635 1 
2636 2 
2637 1 
2638 1 
2639 2 
2640 1 
3292 1 
3293 3 
3294 1 
3349 1 
3350 2 
3351 1 
3409 1 
3410 2 
3411 1 
3412 1 
3413 2 
3414 1 
3472 1 
3473 3 
3474 1 
3475 1 
3476 2 
3477 1 
3589 1 
3590 2 
3591 1 
3592 1 
3593 2 
3594 1 
3649 1 
3650 2 
3651 1 
3655 1 
3656 2 
3657 1 
3709 1 
3710 2 
3711 1 
3715 1 
3716 2 
3717 1 
3718 1 
3719 2 
3720 1 
3775 1 
3776 2 
3777 1 
3778 1 
3779 3 
3780 1 
4432 1 
4433 2 
4434 1 
4438 1 
4439 3 
4440 1 
4489 1 
4490 3 
4491 1 
4492 1 
4493 2 
4494 1 
4552 1 
4553 3 
4554 1 
4558 1 
4559 3 
4560 1 
4612 1 
4613 3 
4614 1 
4615 1 
4616 3 
4617 1 
4669 1 
4670 2 
4671 1 
4672 1 
4673 2 
4674 1 
4732 1 
4733 3 
4734 1 
4789 1 
4790 2 
4791 1 
4855 1 
4856 3 
4857 1 
4858 1 
4859 3 
4860 1 
5512 1 
5513 3 
5514 1 
5515 1 
5516 2 
5517 1 
5575 1 
5576 3 
5577 1 
5632 1 
5633 3 
5634 1 
5758 1 
5759 3 
5760 1 
5809 1 
5810 2 
5811 1 
5815 1 
5816 2 
5817 1 
5872 1 
5873 2 
5874 1 
5932 1 
5933 3 
5934 1 
5935 1 
5936 3 
5937 1 
5938 1 
5939 2 
5940 1 
6709 1 
6710 3 
6711 1 
6718 1 
6719 3 
6720 1 
6772 1 
6773 2 
6774 1 
6775 1 
6776 2 
6777 1 
6832 1 
6833 3 
6834 1 
6835 1 
6836 2 
6837 1 
6889 1 
6890 3 
6891 1 
6892 1 
6893 2 
6894 1 
6958 1 
6959 2 
6960 1 
7012 1 
7013 3 
7014 1 
7072 1 
7073 2 
7074 1 
7075 1 
7076 3 
7077 1 
7078 1 
7079 2 
7080 1 
7132 1 
7133 3 
7134 1 
7135 1 
7136 2 
7137 1 
7138 1 
7139 3 
7140 1 
7255 1 
7256 2 
7257 1 
7789 1 
7790 2 
7791 1 
7792 1 
7793 2 
7794 1 
7798 1 
7799 2 
7800 1 
7855 1 
7856 3 
7857 1 
7909 1 
7910 3 
7911 1 
7969 1 
7970 3 
7971 1 
7972 1 
7973 2 
7974 1 
7975 1 
7976 2 
7977 1 
8032 1 
8033 3 
8034 1 
8089 1 
8090 3 
8091 1 
8098 1 
8099 3 
8100 1 
8155 1 
8156 3 
8157 1 
8209 1 
8210 2 
8211 1 
8338 1 
8339 3 
8340 1 
8929 1 
8930 2 
8931 1 
8932 1 
8933 3 
8934 1 
8995 1 
8996 3 
8997 1 
8998 1 
8999 2 
9000 1 
9055 1 
9056 2 
9057 1 
9109 1 
9110 3 
9111 1 
9112 1 
9113 3 
9114 1 
9169 1 
9170 3 
9171 1 
9172 1 
9173 3 
9174 1 
9175 1 
9176 3 
9177 1 
9178 1 
9179 2 
9180 1 
9232 1 
9233 3 
9234 1 
9235 1 
9236 2 
9237 1 
9295 1 
9296 2 
9297 1 
9349 1 
9350 2 
9351 1 
9352 1 
9353 3 
9354 1 
10015 1 
10016 3 
10017 1 
10069 1 
10070 3 
10071 1 
10072 1 
10073 2 
10074 1 
10129 1 
10130 2 
10131 1 
10249 1 
10250 2 
10251 1 
10252 1 
10253 3 
10254 1 
10255 1 
10256 3 
10257 1 
10309 1 
10310 2 
10311 1 
10312 1 
10313 3 
10314 1 
10315 1 
10316 2 
10317 1 
10318 1 
10319 2 
10320 1 
10369 1 
10370 2 
10371 1 
10372 1 
10373 2 
10374 1 
10375 1 
10376 2 
10377 1 
10378 1 
10379 2 
10380 1 
10429 1 
10430 3 
10431 1 
10432 1 
10433 2 
10434 1 
10438 1 
10439 3 
10440 1 
10489 1 
10490 3 
10491 1 
10492 1 
10493 3 
10494 1 
10498 1 
10499 3 
10500 1 
10549 1 
10550 3 
10551 1 
10558 1 
10559 2 
10560 1 
544 1 
545 3 
546 1 
550 1 
551 2 
552 1 
721 1 
722 2 
723 1 
724 1 
725 2 
726 1 
781 1 
782 2 
783 1 
784 1 
785 3 
786 1 
790 1 
791 3 
792 1 
841 1 
842 3 
843 1 
844 1 
845 2 
846 1 
850 1 
851 2 
852 1 
901 1 
902 3 
903 1 
907 1 
908 3 
909 1 
1024 1 
1025 2 
1026 1 
1027 1 
1028 2 
1029 1 
1030 1 
1031 3 
1032 1 
1081 1 
1082 3 
1083 1 
1084 1 
1085 3 
1086 1 
1087 1 
1088 3 
1089 1 
1681 1 
1682 3 
1683 1 
1684 1 
1685 2 
1686 1 
1690 1 
1691 2 
1692 1 
1747 1 
1748 3 
1749 1 
1801 1 
1802 2 
1803 1 
1804 1 
1805 3 
1806 1 
1861 1 
1862 3 
1863 1 
1864 1 
1865 2 
1866 1 
1921 1 
1922 3 
1923 1 
1927 1 
1928 2 
1929 1 
1930 1 
1931 3 
1932 1 
1990 1 
1991 3 
1992 1 
2161 1 
2162 3 
2163 1 
2167 1 
2168 2 
2169 1 
2170 1 
2171 3 
2172 1 
2644 1 
2645 2 
2646 1 
2704 1 
2705 3 
2706 1 
2710 1 
2711 3 
2712 1 
2761 1 
2762 2 
2763 1 
2767 1 
2768 2 
2769 1 
2821 1 
2822 3 
2823 1 
2830 1 
2831 3 
2832 1 
2884 1 
2885 2 
2886 1 
2887 1 
2888 2 
2889 1 
2941 1 
2942 2 
2943 1 
2944 1 
2945 3 
2946 1 
2947 1 
2948 2 
2949 1 
3004 1 
3005 3 
3006 1 
3010 1 
3011 3 
3012 1 
3061 1 
3062 3 
3063 1 
3067 1 
3068 3 
3069 1 
3070 1 
3071 3 
3072 1 
3844 1 
3845 2 
3846 1 
3847 1 
3848 2 
3849 1 
3961 1 
3962 3 
3963 1 
3964 1 
3965 3 
3966 1 
4021 1 
4022 2 
4023 1 
4024 1 
4025 3 
4026 1 
4030 1 
4031 3 
4032 1 
4084 1 
4085 3 
4086 1 
4090 1 
4091 3 
4092 1 
4144 1 
4145 2 
4146 1 
4150 1 
4151 3 
4152 1 
4201 1 
4202 2 
4203 1 
4207 1 
4208 3 
4209 1 
4210 1 
4211 2 
4212 1 
4921 1 
4922 3 
4923 1 
4924 1 
4925 2 
4926 1 
4930 1 
4931 2 
4932 1 
4981 1 
4982 2 
4983 1 
5041 1 
5042 3 
5043 1 
5044 1 
5045 2 
5046 1 
5047 1 
5048 2 
5049 1 
5281 1 
5282 2 
5283 1 
5290 1 
5291 2 
5292 1 
5341 1 
5342 3 
5343 1 
5344 1 
5345 2 
5346 1 
5347 1 
5348 2 
5349 1 
5401 1 
5402 2 
5403 1 
6130 1 
6131 3 
6132 1 
6187 1 
6188 3 
6189 1 
6244 1 
6245 3 
6246 1 
6247 1 
6248 3 
6249 1 
6307 1 
6308 3 
6309 1 
6361 1 
6362 2 
6363 1 
6367 1 
6368 3 
6369 1 
6421 1 
6422 2 
6423 1 
6424 1 
6425 2 
6426 1 
6430 1 
6431 2 
6432 1 
6544 1 
6545 3 
6546 1 
6547 1 
6548 3 
6549 1 
6550 1 
6551 3 
6552 1 
7270 1 
7271 2 
7272 1 
7321 1 
7322 3 
7323 1 
7327 1 
7328 2 
7329 1 
7390 1 
7391 2 
7392 1 
7450 1 
7451 2 
7452 1 
7561 1 
7562 2 
7563 1 
7570 1 
7571 3 
7572 1 
7687 1 
7688 3 
7689 1 
7690 1 
7691 3 
7692 1 
8344 1 
8345 3 
8346 1 
8350 1 
8351 3 
8352 1 
8404 1 
8405 2 
8406 1 
8407 1 
8408 2 
8409 1 
8410 1 
8411 3 
8412 1 
8524 1 
8525 2 
8526 1 
8587 1 
8588 2 
8589 1 
8641 1 
8642 2 
8643 1 
8647 1 
8648 2 
8649 1 
8767 1 
8768 2 
8769 1 
8821 1 
8822 3 
8823 1 
8827 1 
8828 2 
8829 1 
9361 1 
9362 3 
9363 1 
9364 1 
9365 2 
9366 1 
9370 1 
9371 3 
9372 1 
9481 1 
9482 3 
9483 1 
9484 1 
9485 3 
9486 1 
9487 1 
9488 3 
9489 1 
9541 1 
9542 2 
9543 1 
9547 1 
9548 3 
9549 1 
9550 1 
9551 3 
9552 1 
9604 1 
9605 2 
9606 1 
9610 1 
9611 2 
9612 1 
9721 1 
9722 3 
9723 1 
9727 1 
9728 3 
9729 1 
9781 1 
9782 2 
9783 1 
9784 1 
9785 2 
9786 1 
9790 1 
9791 3 
9792 1 
9841 1 
9842 3 
9843 1 
9901 1 
9902 2 
9903 1 
9907 1 
9908 3 
9909 1 
9910 1 
9911 2 
9912 1 
10627 1 
10628 3 
10629 1 
10681 1 
10682 3 
10683 1 
10687 1 
10688 3 
10689 1 
10690 1 
10691 3 
10692 1 
10741 1 
10742 3 
10743 1 
10747 1 
10748 2 
10749 1 
10804 1 
10805 2 
10806 1 
10807 1 
10808 2 
10809 1 
10861 1 
10862 2 
10863 1 
10870 1 
10871 3 
10872 1 
10927 1 
10928 3 
10929 1 
10984 1 
10985 2 
10986 1 
10987 1 
10988 2 
10989 1 
10990 1 
10991 3 
10992 1 
11047 1 
11048 3 
11049 1 
616 1 
617 3 
618 1 
682 1 
683 2 
684 1 
733 1 
734 2 
735 1 
736 1 
737 2 
738 1 
793 1 
794 2 
795 1 
796 1 
797 3 
798 1 
859 1 
860 2 
861 1 
916 1 
917 2 
918 1 
976 1 
977 2 
978 1 
982 1 
983 3 
984 1 
1033 1 
1034 2 
1035 1 
1036 1 
1037 2 
1038 1 
1039 1 
1040 2 
1041 1 
1042 1 
1043 3 
1044 1 
1096 1 
1097 2 
1098 1 
1099 1 
1100 3 
1101 1 
1753 1 
1754 2 
1755 1 
1759 1 
1760 3 
1761 1 
1762 1 
1763 2 
1764 1 
1819 1 
1820 2 
1821 1 
1879 1 
1880 3 
1881 1 
1882 1 
1883 3 
1884 1 
1936 1 
1937 2 
1938 1 
1939 1 
1940 2 
1941 1 
1993 1 
1994 3 
1995 1 
1996 1 
1997 3 
1998 1 
2002 1 
2003 2 
2004 1 
2053 1 
2054 3 
2055 1 
2056 1 
2057 3 
2058 1 
2062 1 
2063 2 
2064 1 
2176 1 
2177 3 
2178 1 
2179 1 
2180 3 
2181 1 
2653 1 
2654 2 
2655 1 
2716 1 
2717 2 
2718 1 
2773 1 
2774 3 
2775 1 
2776 1 
2777 2 
2778 1 
2779 1 
2780 3 
2781 1 
2782 1 
2783 3 
2784 1 
2896 1 
2897 2 
2898 1 
2902 1 
2903 3 
2904 1 
2959 1 
2960 3 
2961 1 
3013 1 
3014 2 
3015 1 
3076 1 
3077 2 
3078 1 
3133 1 
3134 2 
3135 1 
3136 1 
3137 3 
3138 1 
3793 1 
3794 2 
3795 1 
3796 1 
3797 3 
3798 1 
3799 1 
3800 3 
3801 1 
3853 1 
3854 2 
3855 1 
3862 1 
3863 3 
3864 1 
3913 1 
3914 3 
3915 1 
3919 1 
3920 3 
3921 1 
3922 1 
3923 2 
3924 1 
3979 1 
3980 2 
3981 1 
4036 1 
4037 3 
4038 1 
4042 1 
4043 3 
4044 1 
4096 1 
4097 2 
4098 1 
4102 1 
4103 2 
4104 1 
4153 1 
4154 3 
4155 1 
4162 1 
4163 2 
4164 1 
4222 1 
4223 2 
4224 1 
4276 1 
4277 3 
4278 1 
4282 1 
4283 3 
4284 1 
4933 1 
4934 2 
4935 1 
4936 1 
4937 2 
4938 1 
4939 1 
4940 2 
4941 1 
4993 1 
4994 3 
4995 1 
5002 1 
5003 3 
5004 1 
5056 1 
5057 3 
5058 1 
5113 1 
5114 3 
5115 1 
5119 1 
5120 2 
5121 1 
5176 1 
5177 2 
5178 1 
5182 1 
5183 3 
5184 1 
5233 1 
5234 3 
5235 1 
5239 1 
5240 3 
5241 1 
5302 1 
5303 3 
5304 1 
5356 1 
5357 2 
5358 1 
5362 1 
5363 2 
5364 1 
5422 1 
5423 2 
5424 1 
6079 1 
6080 3 
6081 1 
6199 1 
6200 3 
6201 1 
6202 1 
6203 2 
6204 1 
6256 1 
6257 2 
6258 1 
6259 1 
6260 2 
6261 1 
6262 1 
6263 3 
6264 1 
6316 1 
6317 2 
6318 1 
6322 1 
6323 2 
6324 1 
6376 1 
6377 2 
6378 1 
6379 1 
6380 3 
6381 1 
6382 1 
6383 2 
6384 1 
6436 1 
6437 3 
6438 1 
6439 1 
6440 2 
6441 1 
6496 1 
6497 2 
6498 1 
6616 1 
6617 2 
6618 1 
7273 1 
7274 3 
7275 1 
7282 1 
7283 2 
7284 1 
7333 1 
7334 2 
7335 1 
7336 1 
7337 3 
7338 1 
7393 1 
7394 2 
7395 1 
7396 1 
7397 2 
7398 1 
7402 1 
7403 2 
7404 1 
7453 1 
7454 3 
7455 1 
7513 1 
7514 2 
7515 1 
7516 1 
7517 2 
7518 1 
7522 1 
7523 3 
7524 1 
7573 1 
7574 2 
7575 1 
7576 1 
7577 3 
7578 1 
7579 1 
7580 3 
7581 1 
7633 1 
7634 3 
7635 1 
7636 1 
7637 3 
7638 1 
7642 1 
7643 2 
7644 1 
7702 1 
7703 2 
7704 1 
8353 1 
8354 3 
8355 1 
8356 1 
8357 2 
8358 1 
8362 1 
8363 2 
8364 1 
8416 1 
8417 2 
8418 1 
8482 1 
8483 3 
8484 1 
8542 1 
8543 3 
8544 1 
8593 1 
8594 2 
8595 1 
8773 1 
8774 3 
8775 1 
8833 1 
8834 3 
8835 1 
8839 1 
8840 3 
8841 1 
9373 1 
9374 3 
9375 1 
9376 1 
9377 3 
9378 1 
9382 1 
9383 2 
9384 1 
9433 1 
9434 2 
9435 1 
9499 1 
9500 2 
9501 1 
9502 1 
9503 2 
9504 1 
9619 1 
9620 2 
9621 1 
9622 1 
9623 3 
9624 1 
9673 1 
9674 3 
9675 1 
9676 1 
9677 2 
9678 1 
9733 1 
9734 2 
9735 1 
9736 1 
9737 3 
9738 1 
9742 1 
9743 3 
9744 1 
9853 1 
9854 2 
9855 1 
10696 1 
10697 3 
10698 1 
10699 1 
10700 3 
10701 1 
10762 1 
10763 2 
10764 1 
10816 1 
10817 2 
10818 1 
10822 1 
10823 3 
10824 1 
10879 1 
10880 2 
10881 1 
10882 1 
10883 2 
10884 1 
10936 1 
10937 3 
10938 1 
10942 1 
10943 2 
10944 1 
10993 1 
10994 3 
10995 1 
11002 1 
11003 3 
11004 1 
11053 1 
11054 2 
11055 1 
11056 1 
11057 3 
11058 1 
11059 1 
11060 2 
11061 1 
11062 1 
11063 3 
11064 1 
568 1 
569 3 
570 1 
571 1 
572 2 
573 1 
574 1 
575 3 
576 1 
805 1 
806 2 
807 1 
811 1 
812 2 
813 1 
865 1 
866 2 
867 1 
871 1 
872 2 
873 1 
925 1 
926 3 
927 1 
928 1 
929 3 
930 1 
988 1 
989 2 
990 1 
994 1 
995 3 
996 1 
1048 1 
1049 3 
1050 1 
1105 1 
1106 3 
1107 1 
1108 1 
1109 2 
1110 1 
1705 1 
1706 3 
1707 1 
1711 1 
1712 3 
1713 1 
1714 1 
1715 3 
1716 1 
1825 1 
1826 3 
1827 1 
1828 1 
1829 2 
1830 1 
1834 1 
1835 3 
1836 1 
1945 1 
1946 3 
1947 1 
2128 1 
2129 3 
2130 1 
2131 1 
2132 3 
2133 1 
2134 1 
2135 3 
2136 1 
2194 1 
2195 3 
2196 1 
2668 1 
2669 2 
2670 1 
2728 1 
2729 2 
2730 1 
2785 1 
2786 2 
2787 1 
2788 1 
2789 2 
2790 1 
2848 1 
2849 3 
2850 1 
2851 1 
2852 3 
2853 1 
2905 1 
2906 3 
2907 1 
2908 1 
2909 2 
2910 1 
2914 1 
2915 2 
2916 1 
2965 1 
2966 3 
2967 1 
3034 1 
3035 2 
3036 1 
3145 1 
3146 3 
3147 1 
3148 1 
3149 2 
3150 1 
3151 1 
3152 2 
3153 1 
3154 1 
3155 3 
3156 1 
3814 1 
3815 2 
3816 1 
3865 1 
3866 3 
3867 1 
3871 1 
3872 2 
3873 1 
3928 1 
3929 2 
3930 1 
3994 1 
3995 3 
3996 1 
4048 1 
4049 2 
4050 1 
4051 1 
4052 2 
4053 1 
4105 1 
4106 3 
4107 1 
4111 1 
4112 2 
4113 1 
4168 1 
4169 2 
4170 1 
4171 1 
4172 3 
4173 1 
4285 1 
4286 3 
4287 1 
4288 1 
4289 2 
4290 1 
4294 1 
4295 2 
4296 1 
4945 1 
4946 3 
4947 1 
4948 1 
4949 3 
4950 1 
4951 1 
4952 3 
4953 1 
4954 1 
4955 3 
4956 1 
5008 1 
5009 3 
5010 1 
5014 1 
5015 3 
5016 1 
5074 1 
5075 3 
5076 1 
5125 1 
5126 3 
5127 1 
5185 1 
5186 3 
5187 1 
5194 1 
5195 3 
5196 1 
5245 1 
5246 2 
5247 1 
5314 1 
5315 3 
5316 1 
5365 1 
5366 3 
5367 1 
5368 1 
5369 3 
5370 1 
5374 1 
5375 2 
5376 1 
5425 1 
5426 3 
5427 1 
5431 1 
5432 2 
5433 1 
6148 1 
6149 3 
6150 1 
6151 1 
6152 3 
6153 1 
6205 1 
6206 2 
6207 1 
6211 1 
6212 2 
6213 1 
6268 1 
6269 3 
6270 1 
6274 1 
6275 2 
6276 1 
6325 1 
6326 3 
6327 1 
6391 1 
6392 3 
6393 1 
6448 1 
6449 3 
6450 1 
6451 1 
6452 3 
6453 1 
6511 1 
6512 3 
6513 1 
6514 1 
6515 2 
6516 1 
6565 1 
6566 3 
6567 1 
6625 1 
6626 2 
6627 1 
6634 1 
6635 2 
6636 1 
7288 1 
7289 3 
7290 1 
7348 1 
7349 3 
7350 1 
7405 1 
7406 2 
7407 1 
7411 1 
7412 2 
7413 1 
7468 1 
7469 3 
7470 1 
7471 1 
7472 2 
7473 1 
7531 1 
7532 3 
7533 1 
7534 1 
7535 2 
7536 1 
7588 1 
7589 2 
7590 1 
7645 1 
7646 3 
7647 1 
7651 1 
7652 2 
7653 1 
7654 1 
7655 2 
7656 1 
7708 1 
7709 2 
7710 1 
7714 1 
7715 3 
7716 1 
8365 1 
8366 2 
8367 1 
8368 1 
8369 3 
8370 1 
8374 1 
8375 2 
8376 1 
8425 1 
8426 2 
8427 1 
8431 1 
8432 3 
8433 1 
8545 1 
8546 2 
8547 1 
8608 1 
8609 2 
8610 1 
8614 1 
8615 2 
8616 1 
8668 1 
8669 3 
8670 1 
8671 1 
8672 3 
8673 1 
8725 1 
8726 3 
8727 1 
8791 1 
8792 3 
8793 1 
8794 1 
8795 2 
8796 1 
8848 1 
8849 2 
8850 1 
9385 1 
9386 2 
9387 1 
9388 1 
9389 2 
9390 1 
9445 1 
9446 3 
9447 1 
9451 1 
9452 3 
9453 1 
9505 1 
9506 2 
9507 1 
9514 1 
9515 3 
9516 1 
9571 1 
9572 2 
9573 1 
9574 1 
9575 3 
9576 1 
9625 1 
9626 2 
9627 1 
9628 1 
9629 2 
9630 1 
9631 1 
9632 3 
9633 1 
9745 1 
9746 2 
9747 1 
9754 1 
9755 2 
9756 1 
9814 1 
9815 3 
9816 1 
9868 1 
9869 2 
9870 1 
9871 1 
9872 3 
9873 1 
10594 1 
10595 2 
10596 1 
10654 1 
10655 3 
10656 1 
10705 1 
10706 2 
10707 1 
10711 1 
10712 3 
10713 1 
10714 1 
10715 3 
10716 1 
10774 1 
10775 2 
10776 1 
10825 1 
10826 3 
10827 1 
10831 1 
10832 2 
10833 1 
10888 1 
10889 3 
10890 1 
10891 1 
10892 2 
10893 1 
10945 1 
10946 3 
10947 1 
10951 1 
10952 2 
10953 1 
11008 1 
11009 2 
11010 1 
11014 1 
11015 2 
11016 1 
11068 1 
11069 3 
11070 1 
577 1 
578 2 
579 1 
580 1 
581 2 
582 1 
586 1 
587 2 
588 1 
646 1 
647 3 
648 1 
757 1 
758 2 
759 1 
763 1 
764 3 
765 1 
820 1 
821 3 
822 1 
823 1 
824 2 
825 1 
877 1 
878 2 
879 1 
883 1 
884 2 
885 1 
1060 1 
1061 2 
1062 1 
1063 1 
1064 2 
1065 1 
1066 1 
1067 3 
1068 1 
1723 1 
1724 2 
1725 1 
1726 1 
1727 3 
1728 1 
1783 1 
1784 2 
1785 1 
1837 1 
1838 2 
1839 1 
1846 1 
1847 3 
1848 1 
1897 1 
1898 2 
1899 1 
1960 1 
1961 3 
1962 1 
2017 1 
2018 2 
2019 1 
2023 1 
2024 2 
2025 1 
2026 1 
2027 2 
2028 1 
2077 1 
2078 2 
2079 1 
2083 1 
2084 2 
2085 1 
2086 1 
2087 2 
2088 1 
2137 1 
2138 3 
2139 1 
2146 1 
2147 2 
2148 1 
2197 1 
2198 2 
2199 1 
2680 1 
2681 3 
2682 1 
2683 1 