ITEM: TIMESTEP
30000000
ITEM: NUMBER OF ATOMS
276
ITEM: BOX BOUNDS pp pp pp
0.0000000000000000e+00 5.0000000000000000e+01
0.0000000000000000e+00 5.0000000000000000e+01
0.0000000000000000e+00 5.0000000000000000e+01
ITEM: ATOMS id type xs ys zs
10443 1 0.690757 0.0808509 0.802392
8938 1 0.69772 0.0704738 0.814799
10441 1 0.696375 0.0727314 0.812635
10442 2 0.693368 0.0775532 0.807788
905 2 0.705075 0.0301634 0.84876
13182 1 0.64719 0.0538213 0.847833
13930 1 0.695134 0.0539829 0.846554
13932 1 0.701136 0.0612259 0.832832
13931 2 0.698708 0.0581591 0.840184
8940 1 0.701454 0.0623794 0.829997
906 1 0.711754 0.0332138 0.845375
10902 1 0.714353 0.0342579 0.844781
1524 1 0.717318 0.060493 0.847844
9357 1 0.717997 0.0618519 0.845133
10901 2 0.720887 0.0369109 0.844127
10900 1 0.727629 0.0400814 0.842839
20311 1 0.730369 0.0410348 0.841875
20312 2 0.737994 0.0408619 0.840035
20313 1 0.746357 0.0397104 0.839702
10786 1 0.683063 0.0848246 0.825639
10787 2 0.688339 0.0886407 0.831121
9356 2 0.720122 0.0654015 0.83936
8939 2 0.700396 0.0662867 0.822397
11872 1 0.716047 0.088667 0.837399
6052 1 0.71818 0.0905241 0.839098
11873 2 0.711389 0.083668 0.833053
11874 1 0.705711 0.0814714 0.828221
9355 1 0.721692 0.0687598 0.832014
10788 1 0.693327 0.0910436 0.836983
1887 1 0.695446 0.0919832 0.839249
18832 1 0.743015 0.0886395 0.843353
20216 2 0.740727 0.0786265 0.846869
20217 1 0.742123 0.0855699 0.8438
6053 2 0.721719 0.0950576 0.844069
1886 2 0.699484 0.0966071 0.843765
1885 1 0.704104 0.100791 0.848641
18833 2 0.745598 0.0965939 0.841723
18834 1 0.748652 0.103923 0.83899
10228 1 0.749206 0.107303 0.838351
10229 2 0.74964 0.115223 0.837047
10230 1 0.749438 0.122847 0.837573
11553 1 0.721906 0.133843 0.848865
14609 3 0.730452 0.134831 0.841511
14608 1 0.72481 0.134019 0.846859
14610 1 0.734234 0.139479 0.836357
384 1 0.644886 0.0301202 0.852808
15193 1 0.65712 0.00402584 0.872536
8212 1 0.655832 0.00298785 0.870433
7316 2 0.64969 0.0237617 0.874647
7317 1 0.642189 0.0197732 0.873575
15085 1 0.658539 0.0293071 0.87537
7315 1 0.655909 0.0279421 0.875271
8213 2 0.652361 0.000551141 0.86381
6195 1 0.687181 0.0265348 0.872683
10100 2 0.691025 0.00440802 0.878735
20302 1 0.699751 0.0165376 0.857253
904 1 0.698552 0.0283771 0.853392
20303 2 0.705931 0.0111236 0.860428
20304 1 0.711102 0.00720111 0.863794
14617 1 0.721791 0.0226049 0.870947
11779 1 0.721681 0.0200971 0.872043
4664 2 0.728578 0.000155131 0.85951
14618 2 0.723877 0.0304416 0.868466
11780 2 0.723046 0.012164 0.876258
4665 1 0.730863 0.00607352 0.854474
9346 1 0.756232 0.00495157 0.872301
9348 1 0.759433 0.0200306 0.871023
15505 1 0.760089 0.0229218 0.871109
9347 3 0.759396 0.0115507 0.871157
15506 2 0.76263 0.0304595 0.871697
382 1 0.657491 0.0363652 0.858635
13181 2 0.654905 0.0557403 0.850519
383 2 0.651031 0.0348053 0.854331
3706 1 0.644476 0.0496989 0.879149
3707 2 0.650209 0.0544651 0.876534
3708 1 0.657991 0.0574107 0.874745
7596 1 0.660762 0.0575845 0.874287
13180 1 0.662592 0.0594673 0.852106
16824 1 0.665752 0.0608841 0.852772
6194 2 0.689067 0.0313858 0.866228
7595 2 0.66798 0.0581113 0.873587
7594 1 0.675778 0.0583146 0.873278
14266 1 0.67844 0.0587927 0.873142
14267 2 0.685157 0.061134 0.872797
6193 1 0.690604 0.0374851 0.862246
20118 1 0.691249 0.039834 0.859852
15086 2 0.664954 0.0337778 0.876873
15087 1 0.671137 0.0381529 0.878964
20116 1 0.694158 0.0519681 0.849043
20117 2 0.692111 0.0459258 0.854703
10604 2 0.710895 0.0455787 0.870731
10603 1 0.713159 0.0495434 0.864056
1522 1 0.714039 0.0514497 0.861289
1523 2 0.715708 0.055982 0.854484
10605 1 0.70937 0.0415229 0.876242
13347 1 0.708672 0.0399126 0.878504
14619 1 0.728426 0.0361091 0.866403
941 2 0.73716 0.0625385 0.856064
9702 1 0.735765 0.0521568 0.861334
942 1 0.736677 0.0549589 0.860075
9700 1 0.729691 0.0385095 0.865691
9701 2 0.733284 0.0445846 0.863863
18550 1 0.723597 0.0569591 0.878631
15507 1 0.763394 0.0380721 0.870148
13594 1 0.763187 0.0411067 0.869356
13595 2 0.761926 0.0486928 0.86739
13596 1 0.760831 0.0577041 0.865857
16570 1 0.760282 0.0609336 0.865568
16823 2 0.673874 0.064888 0.853844
17010 1 0.683899 0.0691727 0.853907
16822 1 0.680855 0.0681216 0.853933
8216 2 0.684184 0.0897641 0.874031
17009 2 0.691788 0.070317 0.85502
17491 1 0.702767 0.0746293 0.855603
17008 1 0.699917 0.0736587 0.855798
18552 1 0.718924 0.0701519 0.870918
18551 2 0.720799 0.0634365 0.874552
14268 1 0.692744 0.0651314 0.872369
3250 1 0.694998 0.0665816 0.87269
17492 2 0.710598 0.0781768 0.855079
17493 1 0.716866 0.0826454 0.855502
3251 2 0.702092 0.0705366 0.873152
3252 1 0.70914 0.0741921 0.873927
19173 1 0.711276 0.0764194 0.874572
19172 2 0.716344 0.0826259 0.876746
19171 1 0.718832 0.0887595 0.879096
940 1 0.738936 0.0689364 0.852014
20215 1 0.739429 0.0715969 0.850419
12575 2 0.748121 0.0854005 0.866621
12574 1 0.742379 0.0908332 0.865981
16571 2 0.757622 0.067896 0.864279
12576 1 0.753565 0.0787864 0.866437
16572 1 0.755171 0.0757254 0.866081
5414 3 0.65302 0.103067 0.864595
5415 1 0.651063 0.10283 0.858681
766 1 0.657755 0.104205 0.873808
5413 1 0.656751 0.103611 0.871433
16216 1 0.680388 0.110118 0.856765
16217 3 0.681011 0.104807 0.862334
16218 1 0.681388 0.0983737 0.867697
8215 1 0.681893 0.095727 0.869775
12723 1 0.705604 0.10207 0.850517
12722 2 0.709611 0.10316 0.857455
12721 1 0.712775 0.103672 0.864348
6054 1 0.726413 0.0992787 0.849156
15617 2 0.683058 0.127868 0.871937
15616 1 0.68994 0.129565 0.868108
15618 1 0.679706 0.128479 0.878559
11552 3 0.714546 0.132849 0.852565
11551 1 0.708067 0.132754 0.856635
15171 1 0.705543 0.132366 0.858047
15169 1 0.692984 0.130046 0.866915
15170 3 0.699835 0.13163 0.862372
14672 2 0.652196 0.0310582 0.894766
14671 1 0.647737 0.0267385 0.899613
6454 1 0.688393 0.0133849 0.88569
10099 1 0.689251 0.010795 0.883828
15194 2 0.660915 0.00666145 0.879793
2047 1 0.665558 0.0090211 0.888361
2048 2 0.668862 0.0111365 0.89505
2049 1 0.673389 0.0119956 0.902084
6456 1 0.686691 0.0272059 0.893304
6064 1 0.686929 0.0297622 0.89581
15195 1 0.66453 0.00813052 0.886401
9319 1 0.675371 0.0126369 0.904481
6455 2 0.687073 0.0207681 0.889082
18479 2 0.705393 0.0130646 0.894364
18480 1 0.709547 0.0102293 0.887483
13345 1 0.707002 0.0292899 0.889916
18478 1 0.699059 0.0148657 0.899544
11781 1 0.723235 0.00657111 0.880985
3270 1 0.723277 0.00409135 0.883336
15635 2 0.636032 0.0432808 0.884097
15636 1 0.641901 0.0476104 0.880263
14673 1 0.654685 0.0368153 0.89036
15634 1 0.63128 0.0399863 0.889514
1093 1 0.648121 0.0572672 0.909078
14469 1 0.650734 0.0576403 0.906938
14468 2 0.656371 0.0587321 0.902578
6065 2 0.686959 0.0342839 0.902441
9291 1 0.681407 0.0581221 0.891722
9290 2 0.673263 0.0603773 0.893326
9289 1 0.666059 0.0602767 0.897439
14467 1 0.663359 0.060265 0.898589
6066 1 0.686011 0.0393032 0.907993
9561 1 0.674166 0.0393788 0.880061
9560 2 0.680068 0.0423576 0.883086
9559 1 0.686382 0.0445648 0.886149
10920 1 0.688711 0.0463074 0.887051
10919 2 0.69439 0.0508964 0.889855
13346 2 0.706767 0.0349063 0.884232
10918 1 0.698538 0.0577725 0.892518
7878 1 0.70004 0.0609988 0.893148
1317 1 0.724795 0.0542455 0.880414
1316 2 0.727854 0.0472566 0.884346
1315 1 0.728308 0.0408875 0.889158
11825 2 0.64145 0.0674626 0.89037
11826 1 0.649016 0.0655659 0.893464
11824 1 0.634459 0.0684365 0.886372
8217 1 0.686985 0.0842821 0.880187
14500 1 0.687615 0.0823309 0.88333
14501 2 0.688025 0.078175 0.890319
16580 2 0.686915 0.0691086 0.906854
14502 1 0.687015 0.0742096 0.897091
16581 1 0.687283 0.0729603 0.899916
7877 2 0.704105 0.0674823 0.894848
7876 1 0.708398 0.0730857 0.897717
14223 1 0.710702 0.0754501 0.898493
14222 2 0.71703 0.081404 0.898319
14221 1 0.722929 0.0861352 0.899997
4260 1 0.748342 0.067372 0.89011
4258 1 0.742994 0.0667341 0.904886
4259 2 0.74602 0.0670551 0.897347
20795 3 0.673625 0.103245 0.893614
767 2 0.662175 0.104474 0.880951
20796 1 0.668046 0.103973 0.888966
768 1 0.666445 0.104204 0.886934
20794 1 0.680148 0.106073 0.897585
17716 1 0.677618 0.129027 0.880924
17718 1 0.665935 0.13062 0.89094
17717 3 0.671878 0.130539 0.886473
8887 1 0.643393 0.0273269 0.924025
8888 2 0.648847 0.0213718 0.927255
8889 1 0.653079 0.0146713 0.929006
18630 1 0.670839 0.00812025 0.92341
18629 2 0.670737 0.000843855 0.921668
9320 2 0.680059 0.0159479 0.910133
9321 1 0.681288 0.0195777 0.917645
4449 1 0.682284 0.0208145 0.920062
4448 2 0.685017 0.0252379 0.927194
8445 1 0.685629 0.030256 0.936962
4447 1 0.68539 0.0288085 0.934063
14989 1 0.65748 0.0450298 0.93418
1095 1 0.637866 0.0517352 0.920225
12792 1 0.63688 0.0494776 0.921916
1094 2 0.64309 0.0551676 0.915048
12791 2 0.634683 0.0432684 0.92607
12790 1 0.631941 0.0368515 0.929418
5692 1 0.685613 0.041322 0.90992
5693 2 0.683383 0.0474233 0.91551
14990 2 0.662439 0.0483246 0.929946
5694 1 0.681914 0.0531905 0.921474
14191 1 0.669102 0.0561681 0.928207
14192 2 0.674278 0.0619162 0.926821
14991 1 0.667209 0.053806 0.928829
16579 1 0.686605 0.0652055 0.913912
14193 1 0.68056 0.0667492 0.925402
8444 2 0.687451 0.0321767 0.943751
8443 1 0.689891 0.0343382 0.950486
20509 1 0.693807 0.967948 0.851007
8214 1 0.647579 0.997871 0.857819
10101 1 0.691205 0.998485 0.874133
20510 3 0.695971 0.974555 0.855608
10537 1 0.691955 0.996171 0.872417
8965 1 0.711187 0.981358 0.875112
5204 2 0.718942 0.988845 0.869964
20511 1 0.695116 0.980624 0.860959
10539 1 0.694985 0.983151 0.863186
10538 2 0.694285 0.989823 0.867415
5205 1 0.713352 0.983415 0.87398
8966 2 0.706832 0.975316 0.877424
4663 1 0.725304 0.995533 0.863943
5203 1 0.723869 0.993873 0.865666
18368 2 0.685431 0.93525 0.907959
20814 1 0.690319 0.953752 0.892037
14386 1 0.691487 0.955202 0.88993
20813 2 0.688626 0.948725 0.896365
18367 1 0.686545 0.941467 0.903373
20812 1 0.686705 0.94362 0.901571
14387 2 0.695075 0.95968 0.884945
8967 1 0.701857 0.96831 0.879884
14388 1 0.700158 0.965951 0.881071
3269 2 0.723145 0.998092 0.888984
3268 1 0.722958 0.992453 0.894816
18369 1 0.684298 0.927725 0.911136
18628 1 0.671602 0.992825 0.920377
