ITEM: TIMESTEP
30000000
ITEM: NUMBER OF ENTRIES
6876
ITEM: BOX BOUNDS pp pp pp
0 50
0 50
0 50
ITEM: ENTRIES c_binfo[1] c_binfo[2] c_binfo[3] 
3 20899 20900 
3 20900 20901 
1 12777 13266 
2 13265 13266 
2 13264 13265 
2 8507 8508 
2 3445 3446 
2 3446 3447 
1 2004 3447 
2 13045 13046 
2 13046 13047 
1 366 8506 
2 8506 8507 
3 365 366 
3 364 365 
2 2003 2004 
2 2002 2003 
3 18934 18935 
3 18935 18936 
3 1217 1218 
3 1216 1217 
2 12662 12663 
3 4150 4151 
1 4150 17673 
2 2639 2640 
2 2638 2639 
2 17672 17673 
2 17671 17672 
3 4351 4352 
3 4352 4353 
2 1543 1544 
2 1544 1545 
2 9040 9041 
2 5816 5817 
1 5817 9040 
2 9041 9042 
2 758 759 
2 757 758 
2 5815 5816 
1 5815 10449 
1 8286 20959 
2 8285 8286 
2 8284 8285 
1 7761 20961 
3 20960 20961 
3 20959 20960 
2 14573 14574 
2 14572 14573 
2 11917 11918 
2 11918 11919 
3 515 516 
3 11633 11634 
3 514 515 
1 514 11634 
3 11632 11633 
3 8345 8346 
3 8344 8345 
3 17165 17166 
3 17164 17165 
2 15010 15011 
3 17744 17745 
3 17743 17744 
2 12538 12539 
2 12539 12540 
3 9707 9708 
3 9706 9707 
1 444 9706 
3 443 444 
3 442 443 
2 16411 16412 
2 16412 16413 
3 11378 11379 
3 11377 11378 
3 4859 4860 
3 4858 4859 
2 19588 19589 
2 19589 19590 
3 14201 14202 
3 11870 11871 
1 4152 14200 
3 14200 14201 
3 4151 4152 
3 11869 11870 
2 6107 6108 
2 6106 6107 
2 4051 4052 
2 4052 4053 
1 9042 15606 
3 15605 15606 
3 15604 15605 
2 20513 20514 
2 6982 6983 
2 6983 6984 
2 18332 18333 
2 18331 18332 
3 3682 3683 
3 3683 3684 
3 2096 2097 
2 15011 15012 
2 10952 10953 
2 10951 10952 
3 19750 19751 
3 19751 19752 
2 4103 4104 
2 4102 4103 
3 5342 5343 
2 4238 4239 
3 5341 5342 
1 4239 5341 
3 14626 14627 
2 16450 16451 
2 4237 4238 
2 16451 16452 
3 21133 21134 
3 21134 21135 
2 5606 5607 
2 5605 5606 
3 12731 12732 
2 8117 8118 
3 12730 12731 
1 8118 12730 
2 6913 6914 
2 6914 6915 
2 8116 8117 
3 3607 3608 
1 3607 11058 
3 3608 3609 
3 11057 11058 
3 11056 11057 
3 3452 3453 
3 3451 3452 
3 6709 6710 
3 17359 17360 
3 17360 17361 
3 12719 12720 
3 12718 12719 
2 20512 20513 
3 3335 3336 
2 9620 9621 
2 9619 9620 
1 3336 9619 
3 3334 3335 
3 15008 15009 
2 6004 6005 
1 6004 15009 
2 6005 6006 
1 6006 6283 
3 6283 6284 
3 6284 6285 
3 2095 2096 
1 2095 6285 
2 11762 11763 
3 709 710 
3 2134 2135 
3 18272 18273 
3 7906 7907 
3 2135 2136 
1 7908 19752 
3 7907 7908 
2 16253 16254 
2 16252 16253 
2 6748 6749 
2 6749 6750 
2 6496 6497 
2 18703 18704 
2 18704 18705 
2 19814 19815 
3 14879 14880 
3 14878 14879 
1 807 14878 
2 20348 20349 
2 20347 20348 
1 2670 20347 
3 14627 14628 
2 19813 19814 
2 2669 2670 
2 2668 2669 
3 8941 8942 
3 16930 16931 
3 6710 6711 
3 599 600 
3 598 599 
3 19261 19262 
3 19262 19263 
3 17267 17268 
3 15007 15008 
3 2506 2507 
3 2507 2508 
1 2508 17266 
3 17266 17267 
2 19181 19182 
2 19180 19181 
2 17555 17556 
2 17554 17555 
2 7217 7218 
1 7218 19381 
3 19381 19382 
3 19382 19383 
2 19916 19917 
1 711 1825 
3 1825 1826 
3 1826 1827 
3 710 711 
1 5892 19225 
3 19225 19226 
3 19226 19227 
3 18271 18272 
1 18271 19227 
2 4940 4941 
2 4939 4940 
3 19162 19163 
3 19163 19164 
3 6221 6222 
3 6220 6221 
2 4973 4974 
2 4972 4973 
2 13010 13011 
1 13011 18634 
2 6497 6498 
2 805 806 
1 805 13009 
2 13009 13010 
2 806 807 
3 4438 4439 
2 5347 5348 
2 5348 5349 
2 11185 11186 
1 8943 11185 
2 11186 11187 
1 11187 12366 
3 8942 8943 
3 16931 16932 
2 1363 1364 
2 20747 20748 
3 10124 10125 
3 19166 19167 
3 764 765 
3 10123 10124 
3 763 764 
1 1725 13698 
3 13697 13698 
2 1724 1725 
3 13696 13697 
2 14869 14870 
2 14870 14871 
2 2581 2582 
2 2582 2583 
1 2583 19617 
2 7216 7217 
3 20342 20343 
3 20341 20342 
1 20341 20907 
2 20906 20907 
2 20905 20906 
3 10691 10692 
3 14230 14231 
3 21353 21354 
3 21352 21353 
3 10690 10691 
1 10690 21352 
1 14232 17913 
3 14231 14232 
3 17912 17913 
3 17911 17912 
3 3224 3225 
3 3223 3224 
2 9940 9941 
3 18634 18635 
1 3543 18636 
3 3542 3543 
3 18635 18636 
3 9233 9234 
3 4439 4440 
3 16433 16434 
3 16432 16433 
1 4440 16432 
2 16961 16962 
2 16960 16961 
3 9232 9233 
3 7141 7142 
1 7141 9232 
3 7142 7143 
3 12365 12366 
3 12364 12365 
3 12482 12483 
3 12481 12482 
3 17060 17061 
3 17059 17060 
2 14584 14585 
1 14584 17059 
2 14585 14586 
2 14159 14160 
2 14158 14159 
3 20597 20598 
3 20596 20597 
3 7909 7910 
2 20746 20747 
3 19165 19166 
3 6884 6885 
3 6883 6884 
2 19571 19572 
1 6927 19572 
3 6925 6926 
3 6926 6927 
2 19615 19616 
2 19616 19617 
2 320 321 
2 319 320 
1 6150 7395 
3 20581 20582 
3 20582 20583 
3 1910 1911 
3 1909 1910 
3 10406 10407 
3 10405 10406 
2 19142 19143 
2 19141 19142 
1 11850 19141 
3 4349 4350 
2 3736 3737 
1 3736 4350 
3 4348 4349 
3 5822 5823 
2 4300 4301 
2 3644 3645 
2 3643 3644 
3 3541 3542 
1 3541 3645 
3 3830 3831 
3 3829 3830 
1 3829 5823 
3 9128 9129 
3 17923 17924 
3 17924 17925 
2 16786 16787 
1 16786 17925 
3 9127 9128 
1 9127 17923 
3 3286 3287 
3 3287 3288 
3 17503 17504 
3 9112 9113 
3 9113 9114 
2 3281 3282 
3 7910 7911 
3 8725 8726 
3 6755 6756 
3 6457 6458 
3 6458 6459 
2 10915 10916 
1 6459 10915 
2 10916 10917 
1 8727 10678 
3 8726 8727 
2 10678 10679 
2 10679 10680 
1 10917 16791 
1 2886 10680 
2 9586 9587 
3 15157 15158 
2 2885 2886 
2 2884 2885 
1 2391 2884 
2 2390 2391 
2 9587 9588 
2 17990 17991 
2 17989 17990 
2 2389 2390 
2 2921 2922 
2 2920 2921 
3 19612 19613 
3 19613 19614 
3 5015 5016 
3 5014 5015 
2 13408 13409 
2 13409 13410 
3 20966 20967 
3 20965 20966 
3 14287 14288 
3 14288 14289 
2 7394 7395 
3 5758 5759 
2 4721 4722 
2 4720 4721 
1 4720 7393 
2 7393 7394 
3 11618 11619 
3 11617 11618 
3 10655 10656 
3 10654 10655 
3 15301 15302 
3 15302 15303 
2 12707 12708 
2 12706 12707 
1 12706 15301 
3 11849 11850 
3 11848 11849 
2 14329 14330 
2 14330 14331 
3 505 506 
3 12128 12129 
3 506 507 
3 18911 18912 
3 18910 18911 
2 3737 3738 
3 4522 4523 
1 4522 12127 
3 12127 12128 
3 4523 4524 
3 5821 5822 
2 9500 9501 
2 9499 9500 
2 16787 16788 
2 6836 6837 
2 6835 6836 
3 17504 17505 
2 16472 16473 
2 16471 16472 
2 10343 10344 
1 10344 16582 
2 10342 10343 
1 10342 18426 
3 302 303 
1 303 14649 
3 301 302 
2 16583 16584 
2 16582 16583 
2 14647 14648 
2 14648 14649 
2 3280 3281 
2 18212 18213 
1 9714 18213 
2 18211 18212 
2 5381 5382 
3 11854 11855 
3 11855 11856 
2 21503 21504 
3 9712 9713 
3 9713 9714 
2 21502 21503 
3 6754 6755 
1 6754 21504 
2 4934 4935 
2 4933 4934 
1 4933 16899 
2 16898 16899 
2 16897 16898 
3 15757 15758 
1 4935 11434 
2 11434 11435 
2 11435 11436 
3 15158 15159 
1 1200 16789 
2 16789 16790 
2 16790 16791 
2 1199 1200 
2 1198 1199 
3 18407 18408 
3 18406 18407 
3 8033 8034 
3 8032 8033 
1 8032 19612 
2 3410 3411 
3 15817 15818 
3 15818 15819 
3 8251 8252 
3 8252 8253 
1 7875 8251 
2 7874 7875 
2 7873 7874 
2 12899 12900 
2 8395 8396 
3 20128 20129 
3 20129 20130 
3 6343 6344 
1 6343 18249 
3 6344 6345 
3 18248 18249 
2 18929 18930 
2 18928 18929 
3 18247 18248 
2 733 734 
3 15557 15558 
3 15556 15557 
2 734 735 
2 1592 1593 
2 1591 1592 
2 4129 4130 
2 13856 13857 
2 13855 13856 
3 20390 20391 
3 20389 20390 
2 2308 2309 
1 2308 17052 
2 2309 2310 
2 17051 17052 
2 17050 17051 
1 7362 13864 
3 13864 13865 
2 7361 7362 
2 7360 7361 
2 5380 5381 
1 5380 7360 
3 13865 13866 
3 15758 15759 
2 15610 15611 
1 15610 15759 
2 15611 15612 
2 4295 4296 
2 5120 5121 
2 5119 5120 
2 4294 4295 
2 15239 15240 
2 18847 18848 
2 19948 19949 
2 15238 15239 
2 19949 19950 
2 12085 12086 
2 18848 18849 
3 10871 10872 
3 10870 10871 
1 10870 18849 
2 19025 19026 
2 19024 19025 
1 10092 10872 
3 10091 10092 
3 10090 10091 
1 10090 18507 
3 18506 18507 
3 11981 11982 
3 11980 11981 
1 11980 18820 
2 18820 18821 
3 18505 18506 
2 7537 7538 
1 7537 11982 
2 7538 7539 
2 3409 3410 
2 6382 6383 
2 6383 6384 
2 8396 8397 
3 12980 12981 
1 813 12981 
2 812 813 
3 12979 12980 
1 12979 18930 
2 7412 7413 
3 8011 8012 
1 8011 12990 
2 12989 12990 
2 7411 7412 
3 8012 8013 
3 11734 11735 
3 11735 11736 
3 2053 2054 
1 2053 4131 
3 2054 2055 
2 4130 4131 
3 4507 4508 
3 4508 4509 
3 8915 8916 
2 5492 5493 
3 9757 9758 
3 9758 9759 
2 10559 10560 
2 10558 10559 
1 4296 10560 
2 12086 12087 
2 7180 7181 
2 7181 7182 
2 18821 18822 
2 13477 13478 
2 13478 13479 
3 958 959 
3 959 960 
2 20519 20520 
2 20518 20519 
2 151 152 
2 152 153 
3 12476 12477 
3 12475 12476 
1 4563 12475 
3 14824 14825 
1 14824 18618 
3 14825 14826 
3 18617 18618 
3 15014 15015 
3 15013 15014 
1 15013 17209 
3 17209 17210 
3 17210 17211 
3 17551 17552 
3 18616 18617 
3 17552 17553 
1 6384 17553 
2 811 812 
2 12988 12989 
2 19321 19322 
3 17644 17645 
1 17644 19321 
3 17645 17646 
3 10234 10235 
2 19322 19323 
3 18985 18986 
3 18986 18987 
2 19660 19661 
1 18987 19660 
2 19661 19662 
3 8914 8915 
2 12125 12126 
2 12124 12125 
3 8432 8433 
3 8431 8432 
3 299 300 
3 298 299 
2 17791 17792 
2 722 723 
2 721 722 
3 3109 3110 
3 3110 3111 
2 17792 17793 
2 4562 4563 
2 4561 4562 
2 12145 12146 
1 12145 18616 
2 12146 12147 
2 9218 9219 
2 17240 17241 
2 859 860 
1 859 17241 
2 17239 17240 
2 860 861 
2 9217 9218 
2 1939 1940 
2 1940 1941 
3 14426 14427 
3 14425 14426 
1 1941 14290 
3 14290 14291 
3 14291 14292 
2 6697 6698 
2 4433 4434 
2 4432 4433 
2 11015 11016 
1 10236 20212 
3 10235 10236 
3 20213 20214 
3 20212 20213 
2 20153 20154 
2 20152 20153 
2 6032 6033 
2 6031 6032 
3 5968 5969 
3 5969 5970 
2 17417 17418 
2 17416 17417 
2 10478 10479 
2 10477 10478 
1 1032 10477 
2 11510 11511 
1 300 11509 
2 11509 11510 
2 18205 18206 
2 18206 18207 
2 12380 12381 
2 12379 12380 
3 2327 2328 
3 2326 2327 
2 3958 3959 
2 3959 3960 
3 6391 6392 
3 1598 1599 
3 1597 1598 
3 6392 6393 
2 7891 7892 
2 7892 7893 
3 18884 18885 
1 3507 17239 
3 3505 3506 
3 3506 3507 
3 20615 20616 
3 20614 20615 
2 8018 8019 
2 8017 8018 
2 8503 8504 
2 8504 8505 
3 4282 4283 
1 4282 8505 
2 6698 6699 
2 11014 11015 
2 14939 14940 
2 14938 14939 
3 3602 3603 
3 3601 3602 
3 9986 9987 
3 9985 9986 
3 17869 17870 
2 14065 14066 
1 14065 20835 
2 20834 20835 
1 10386 20833 
2 20833 20834 
3 10385 10386 
3 10384 10385 
3 11171 11172 
3 11170 11171 
1 11170 17871 
3 17870 17871 
2 17474 17475 
2 17473 17474 
3 10391 10392 
3 10390 10391 
2 2492 2493 
2 2491 2492 
1 2493 10390 
2 977 978 
2 976 977 
3 19955 19956 
1 12381 19954 
3 19954 19955 
3 5936 5937 
3 5935 5936 
2 878 879 
1 879 13551 
3 2759 2760 
3 2758 2759 
3 13276 13277 
3 13277 13278 
2 12167 12168 
2 2768 2769 
1 2769 6538 
2 6538 6539 
2 2767 2768 
1 2767 12166 
2 12166 12167 
2 1064 1065 
3 12010 12011 
3 12011 12012 
1 12012 15424 
2 15424 15425 
3 20420 20421 
2 2786 2787 
2 2785 2786 
2 6787 6788 
2 6788 6789 
2 1063 1064 
2 2027 2028 
3 21335 21336 
3 21334 21335 
3 4868 4869 
2 2026 2027 
1 2026 4869 
3 20419 20420 
3 6824 6825 
3 6823 6824 
3 9341 9342 
3 9340 9341 
3 361 362 
2 6202 6203 
2 21539 21540 
2 21538 21539 
2 10883 10884 
2 10882 10883 
3 13049 13050 
1 6204 13048 
3 13048 13049 
3 362 363 
2 6203 6204 
3 10681 10682 
3 10682 10683 
2 7724 7725 
2 7723 7724 
3 19891 19892 
3 19892 19893 
2 1567 1568 
2 20807 20808 
2 782 783 
2 781 782 
1 781 20806 
2 20806 20807 
2 5210 5211 
2 5209 5210 
3 6742 6743 
1 5211 6744 
3 6743 6744 
2 1568 1569 
2 8317 8318 
2 8318 8319 
2 13897 13898 
2 13898 13899 
2 20261 20262 
3 11117 11118 
3 11116 11117 
3 10252 10253 
3 10253 10254 
2 8546 8547 
2 20260 20261 
1 8547 20260 
2 8545 8546 
3 3835 3836 
3 3836 3837 
2 16 17 
2 17 18 
2 13367 13368 
1 1035 13366 
2 13366 13367 
2 1034 1035 
3 9517 9518 
2 13286 13287 
3 17080 17081 
3 17081 17082 
2 1033 1034 
2 8398 8399 
2 8399 8400 
3 416 417 
3 415 416 
1 415 8400 
1 417 1033 
3 9518 9519 
3 2401 2402 
2 13285 13286 
3 18281 18282 
3 18280 18281 
2 18338 18339 
2 18337 18338 
3 13802 13803 
1 8355 13803 
3 13801 13802 
2 877 878 
3 8354 8355 
3 8353 8354 
2 13541 13542 
2 13540 13541 
2 17732 17733 
2 5863 5864 
1 3414 17352 
2 17351 17352 
2 3413 3414 
2 3412 3413 
2 16552 16553 
1 16552 18996 
3 18995 18996 
3 18994 18995 
3 18883 18884 
3 3004 3005 
1 3004 20614 
3 3005 3006 
2 8815 8816 
2 8816 8817 
3 4283 4284 
3 14632 14633 
2 593 594 
3 14633 14634 
2 592 593 
1 592 14634 
3 9703 9704 
3 9704 9705 
3 9908 9909 
3 9907 9908 
3 13027 13028 
3 13028 13029 
3 8207 8208 
3 8206 8207 
3 5965 5966 
1 5965 8208 
2 11644 11645 
1 11644 15091 
2 15092 15093 
1 14067 15093 
2 15091 15092 
2 14066 14067 
3 13373 13374 
3 13372 13373 
3 5125 5126 
2 7283 7284 
3 6832 6833 
1 6832 7282 
2 7282 7283 
3 6833 6834 
3 4382 4383 
2 6293 6294 
2 6292 6293 
3 649 650 
3 650 651 
3 4381 4382 
2 5783 5784 
2 5782 5783 
2 15719 15720 
2 15718 15719 
2 12209 12210 
2 9970 9971 
2 9971 9972 
2 13183 13184 
2 13184 13185 
2 14063 14064 
2 14062 14063 
3 8884 8885 
3 8885 8886 
2 20186 20187 
3 1711 1712 
3 1712 1713 
1 1713 10273 
2 20207 20208 
2 20206 20207 
3 5095 5096 
3 5096 5097 
1 5097 14338 
3 8617 8618 
3 8618 8619 
2 5864 5865 
3 4652 4653 
3 4651 4652 
1 4653 17731 
2 17731 17732 
2 14338 14339 
2 14339 14340 
3 9260 9261 
3 9259 9260 
2 3013 3014 
2 3014 3015 
2 17350 17351 
2 6781 6782 
2 6782 6783 
2 16553 16554 
2 4070 4071 
2 4069 4070 
2 4537 4538 
3 17057 17058 
2 15857 15858 
2 15856 15857 
3 17056 17057 
1 15858 17056 
2 16619 16620 
2 16618 16619 
3 5966 5967 
2 2560 2561 
1 2560 5967 
2 2561 2562 
2 13646 13647 
2 4753 4754 
2 4754 4755 
3 5194 5195 
3 5195 5196 
1 5196 12393 
3 12391 12392 
3 12392 12393 
3 5126 5127 
3 19144 19145 
3 19145 19146 
2 1864 1865 
3 15094 15095 
2 1865 1866 
3 15095 15096 
3 3145 3146 
3 3146 3147 
2 13024 13025 
2 13025 13026 
2 16802 16803 
2 16801 16802 
2 9571 9572 
1 2586 9571 
3 2584 2585 
3 2585 2586 
3 535 536 
3 536 537 
3 2057 2058 
1 399 2056 
3 398 399 
3 397 398 
1 397 11161 
3 2056 2057 
3 11161 11162 
3 11162 11163 
2 10273 10274 
2 10274 10275 
3 21106 21107 
3 21107 21108 
2 12356 12357 
2 12355 12356 
2 7051 7052 
3 9035 9036 
3 9034 9035 
2 7396 7397 
2 7397 7398 
2 15665 15666 
2 4538 4539 
2 15664 15665 
3 18082 18083 
3 18083 18084 
3 3322 3323 
3 3323 3324 
3 12287 12288 
2 37 38 
2 38 39 
3 16298 16299 
2 16934 16935 
2 16933 16934 
2 13243 13244 
2 13244 13245 
3 16297 16298 
2 865 866 
2 866 867 
1 867 1246 
2 1246 1247 
2 19585 19586 
2 19586 19587 
2 1247 1248 
3 10549 10550 
3 10550 10551 
2 19835 19836 
3 16739 16740 
2 7786 7787 
1 7786 15432 
3 15431 15432 
2 9572 9573 
2 19834 19835 
1 7788 19834 
2 7787 7788 
3 15430 15431 
3 21088 21089 
3 21089 21090 
2 19564 19565 
2 19565 19566 
3 6718 6719 
3 6719 6720 
2 7052 7053 
3 10088 10089 
3 10087 10088 
3 15881 15882 
3 15880 15881 
3 4154 4155 
3 4153 4154 
1 4153 15880 
2 11140 11141 
2 11141 11142 
3 5657 5658 
1 5658 10858 
3 10858 10859 
3 19651 19652 
3 10859 10860 
3 19652 19653 
2 17149 17150 
2 17150 17151 
3 20525 20526 
3 20524 20525 
2 5363 5364 
3 9047 9048 
3 9046 9047 
1 5364 9048 
2 4823 4824 
2 4822 4823 
1 4822 18610 
2 18610 18611 
2 5362 5363 
2 18611 18612 
2 16388 16389 
2 16387 16388 
3 19138 19139 
3 19139 19140 
3 4922 4923 
3 4921 4922 
2 3854 3855 
2 3853 3854 
1 3853 20224 
3 20225 20226 
3 20224 20225 
2 7306 7307 
2 2870 2871 
2 2869 2870 
2 13337 13338 
3 3961 3962 
3 3962 3963 
2 13336 13337 
2 6776 6777 
3 21248 21249 
3 21247 21248 
3 16495 16496 
1 12606 16495 
3 15304 15305 
1 15304 16497 
3 16496 16497 
3 12604 12605 
3 12605 12606 
3 15305 15306 
3 2993 2994 
3 2992 2993 
2 14978 14979 
2 14977 14978 
1 14979 19071 
3 10715 10716 
3 10714 10715 
2 6539 6540 
1 6540 20361 
2 20359 20360 
2 20360 20361 
2 16883 16884 
3 1760 1761 
2 19987 19988 
3 5656 5657 
3 9674 9675 
2 1256 1257 
2 1255 1256 
3 9673 9674 
2 18176 18177 
2 18175 18176 
2 7744 7745 
1 7744 18175 
3 19706 19707 
3 19705 19706 
3 9728 9729 
3 9727 9728 
1 4824 9769 
2 9770 9771 
2 9769 9770 
3 8101 8102 
3 8102 8103 
3 10961 10962 
3 15602 15603 
3 4441 4442 
1 4441 15603 
3 4442 4443 
3 15601 15602 
3 1171 1172 
3 1172 1173 
1 1173 10960 
3 10960 10961 
3 3509 3510 
3 17324 17325 
3 17323 17324 
3 15865 15866 
3 15866 15867 
3 3799 3800 
3 3800 3801 
3 4558 4559 
3 4559 4560 
1 4560 5701 
2 5702 5703 
2 5701 5702 
2 7307 7308 
1 7308 8524 
2 8525 8526 
2 8524 8525 
2 14419 14420 
1 13605 14419 
2 14420 14421 
1 14421 17602 
2 17602 17603 
3 13603 13604 
3 13604 13605 
3 13819 13820 
3 13820 13821 
2 11246 11247 
2 11245 11246 
3 21085 21086 
3 21086 21087 
2 580 581 
2 581 582 
2 6775 6776 
2 16052 16053 
2 16051 16052 
2 12500 12501 
2 12499 12500 
2 11764 11765 
2 19282 19283 
2 15820 15821 
2 15821 15822 
2 3698 3699 
2 3697 3698 
2 19283 19284 
3 4867 4868 
2 10987 10988 
3 3136 3137 
1 3136 10987 
3 3137 3138 
2 19988 19989 
2 10988 10989 
2 14588 14589 
2 14587 14588 
1 14587 20052 
2 20051 20052 
2 20050 20051 
1 9675 20050 
3 1849 1850 
3 1850 1851 
2 1015 1016 
3 17477 17478 
1 17478 18177 
3 17476 17477 
2 1016 1017 
3 12181 12182 
3 12182 12183 
3 142 143 
3 143 144 
3 8450 8451 
3 8449 8450 
3 3508 3509 
1 3508 15729 
2 15728 15729 
2 15727 15728 
1 5100 8451 
3 5099 5100 
3 5098 5099 
3 15776 15777 
3 15775 15776 
2 10816 10817 
2 10817 10818 
2 2777 2778 
2 2776 2777 
1 2776 17604 
2 17603 17604 
3 15413 15414 
3 15412 15413 
1 11247 15412 
3 21448 21449 
2 7516 7517 
3 6451 6452 
3 6452 6453 
2 8362 8363 
2 8363 8364 
3 17485 17486 
3 17486 17487 
2 11765 11766 
3 19807 19808 
3 19808 19809 
1 14967 19809 
3 19435 19436 
3 19436 19437 
2 14966 14967 
2 14965 14966 
3 15482 15483 
2 19801 19802 
3 15481 15482 
1 15481 19801 
2 19802 19803 
1 19569 19803 
2 19568 19569 
2 19567 19568 
3 12229 12230 
3 12230 12231 
3 21430 21431 
3 21431 21432 
2 9188 9189 
3 18355 18356 
3 18356 18357 
2 12388 12389 
2 13082 13083 
2 13081 13082 
3 5926 5927 
1 5926 13081 
3 5927 5928 
2 12389 12390 
2 7642 7643 
2 7643 7644 
2 9539 9540 
3 15739 15740 
3 15740 15741 
3 2519 2520 
3 7883 7884 
3 2518 2519 
1 2518 7882 
3 7882 7883 
3 21449 21450 
2 7517 7518 
2 7097 7098 
1 7098 7323 
2 7096 7097 
3 10490 10491 
3 10489 10490 
2 1723 1724 
1 1723 7993 
2 7994 7995 
2 7993 7994 
3 7322 7323 
3 7321 7322 
3 14929 14930 
1 14929 19993 
3 19993 19994 
3 19994 19995 
3 17617 17618 
2 2473 2474 
2 2474 2475 
2 1837 1838 
1 1837 2475 
2 1838 1839 
1 1839 14280 
3 14279 14280 
3 14278 14279 
2 8417 8418 
1 8418 19915 
2 19915 19916 
2 8416 8417 
1 1404 8416 
3 1403 1404 
3 7970 7971 
3 7990 7991 
3 7991 7992 
2 20404 20405 
2 20405 20406 
2 9626 9627 
2 9625 9626 
2 9538 9539 
1 9024 16146 
3 16144 16145 
3 16145 16146 
3 15028 15029 
3 15029 15030 
3 14930 14931 
3 5023 5024 
1 5023 14931 
3 19072 19073 
3 5024 5025 
3 7598 7599 
3 15109 15110 
3 15110 15111 
3 20288 20289 
3 7597 7598 
3 4085 4086 
3 4084 4085 
1 4084 7597 
3 17618 17619 
3 7844 7845 
3 7843 7844 
2 4288 4289 
2 4289 4290 
3 7969 7970 
3 1402 1403 
1 5940 9994 
2 9994 9995 
2 5939 5940 
2 5938 5939 
2 15962 15963 
2 15961 15962 
2 20257 20258 
2 9941 9942 
3 19765 19766 
3 19766 19767 
2 9995 9996 
2 17312 17313 
2 17311 17312 
2 6707 6708 
2 6706 6707 
3 8774 8775 
1 8775 19459 
3 8773 8774 
1 8773 20259 
2 20258 20259 
2 15245 15246 
2 15244 15245 
2 12571 12572 
2 14281 14282 
2 4672 4673 
1 4672 14283 
2 4673 4674 
2 14282 14283 
3 3824 3825 
3 3823 3824 
3 17309 17310 
3 17308 17309 
3 10312 10313 
3 10313 10314 
2 16576 16577 
2 16577 16578 
3 7127 7128 
3 7126 7127 
2 20942 20943 
2 11884 11885 
2 11885 11886 
1 11886 16111 
2 16112 16113 
2 16111 16112 
3 5759 5760 
3 19459 19460 
3 19460 19461 
2 10154 10155 
2 5765 5766 
2 5764 5765 
1 5764 10153 
2 10153 10154 
3 9958 9959 
2 12572 12573 
3 15668 15669 
2 1096 1097 
2 1097 1098 
3 11188 11189 
3 11189 11190 
3 8686 8687 
3 8687 8688 
2 19663 19664 
2 19664 19665 
3 7780 7781 
3 7781 7782 
2 21044 21045 
2 21043 21044 
3 6338 6339 
3 6337 6338 
2 508 509 
3 8987 8988 
3 9361 9362 
3 9362 9363 
2 16396 16397 
2 16397 16398 
2 20941 20942 
3 7691 7692 
3 7690 7691 
1 7690 13770 
2 15464 15465 
3 2321 2322 
2 851 852 
3 14180 14181 
2 850 851 
1 850 14181 
3 14179 14180 
3 926 927 
3 925 926 
3 6238 6239 
3 6239 6240 
3 9959 9960 
2 1156 1157 
2 1157 1158 
3 15667 15668 
3 3761 3762 
3 3760 3761 
3 3878 3879 
3 3877 3878 
2 509 510 
2 19744 19745 
2 19745 19746 
3 8986 8987 
1 8986 19746 
2 3391 3392 
1 3391 14568 
2 14567 14568 
2 3392 3393 
3 12161 12162 
3 12160 12161 
3 12358 12359 
3 13795 13796 
3 13796 13797 
3 19258 19259 
3 19259 19260 
3 13783 13784 
3 13784 13785 
1 13785 19260 
3 13769 13770 
3 13768 13769 
2 15463 15464 
3 3119 3120 
3 3118 3119 
1 3118 15463 
3 2320 2321 
2 17078 17079 
2 17077 17078 
2 11834 11835 
2 11833 11834 
3 10120 10121 
1 10120 11833 
3 10121 10122 
3 530 531 
3 17387 17388 
3 17386 17387 
1 531 17386 
3 529 530 
3 15967 15968 
3 15968 15969 
3 173 174 
3 172 173 
1 172 18985 
3 17171 17172 
3 17170 17171 
3 6130 6131 
1 6132 19465 
3 6131 6132 
2 19466 19467 
2 19465 19466 
3 2906 2907 
3 2905 2906 
1 7620 17223 
3 7618 7619 
3 7619 7620 
2 13271 13272 
2 13270 13271 
2 9089 9090 
2 9088 9089 
3 7669 7670 
3 7670 7671 
1 7671 20160 
3 20158 20159 
3 20159 20160 
2 18746 18747 
1 18747 20158 
2 18745 18746 
2 14566 14567 
1 7110 14566 
3 7109 7110 
3 7108 7109 
3 11713 11714 
3 11714 11715 
3 10355 10356 
3 10354 10355 
1 9843 10354 
3 9842 9843 
2 13130 13131 
2 13129 13130 
2 2504 2505 
3 9841 9842 
1 2505 9841 
2 2503 2504 
3 8380 8381 
3 8381 8382 
2 8143 8144 
2 8144 8145 
2 17291 17292 
1 11199 17290 
2 17290 17291 
3 11198 11199 
2 460 461 
1 460 11197 
3 11197 11198 
2 461 462 
2 367 368 
1 367 462 
2 20189 20190 
2 20188 20189 
3 14023 14024 
3 14024 14025 
3 19913 19914 
2 11155 11156 
2 11156 11157 
2 17452 17453 
2 17453 17454 
2 413 414 
2 1027 1028 
1 1027 15969 
2 1028 1029 
3 12740 12741 
2 12083 12084 
1 12084 12739 
3 12739 12740 
2 18200 18201 
2 18199 18200 
2 2302 2303 
2 2303 2304 
3 17221 17222 
3 17222 17223 
2 16477 16478 
2 16478 16479 
3 15515 15516 
3 15514 15515 
3 6245 6246 
3 6244 6245 
3 1030 1031 
1 1030 13272 
3 1031 1032 
3 7319 7320 
3 7318 7319 
3 404 405 
3 403 404 
2 16165 16166 
1 16165 18462 
2 16166 16167 
3 18461 18462 
3 18460 18461 
2 19336 19337 
2 19337 19338 
2 316 317 
1 316 19338 
2 317 318 
2 11134 11135 
2 11135 11136 
1 10356 11715 
3 19156 19157 
3 19157 19158 
2 7025 7026 
2 7024 7025 
1 7024 19158 
3 2402 2403 
2 6980 6981 
1 6981 19485 
2 19484 19485 
2 21491 21492 
2 9250 9251 
2 9251 9252 
2 21490 21491 
2 368 369 
3 12772 12773 
3 12773 12774 
2 6520 6521 
2 15572 15573 
2 15571 15572 
2 6521 6522 
3 19912 19913 
2 412 413 
2 2644 2645 
2 2645 2646 
2 2575 2576 
1 2577 5356 
2 2576 2577 
2 5356 5357 
2 5357 5358 
2 19822 19823 
2 19823 19824 
3 16198 16199 
2 244 245 
2 245 246 
3 16199 16200 
2 12082 12083 
2 8083 8084 
2 8084 8085 
2 281 282 
2 280 281 
3 4325 4326 
3 4324 4325 
3 16540 16541 
3 16541 16542 
2 7357 7358 
2 7358 7359 
2 1541 1542 
2 6979 6980 
2 19483 19484 
1 10806 19483 
2 10805 10806 
3 18758 18759 
2 10804 10805 
1 10804 18759 
2 19882 19883 
2 19883 19884 
3 20944 20945 
3 20945 20946 
2 8642 8643 
2 13132 13133 
1 13132 18594 
3 3752 3753 
2 13133 13134 
1 3753 13134 
3 9460 9461 
3 9461 9462 
3 10964 10965 
3 2851 2852 
3 2852 2853 
3 10711 10712 
3 10712 10713 
2 6917 6918 
2 6916 6917 
2 12208 12209 
2 14720 14721 
2 14719 14720 
2 4925 4926 
2 4924 4925 
2 19004 19005 
2 1540 1541 
1 1540 8973 
2 8972 8973 
2 8971 8972 
2 2978 2979 
2 2977 2978 
3 1585 1586 
1 1585 2977 
3 1586 1587 
3 11546 11547 
3 11545 11546 
3 18757 18758 
2 5797 5798 
2 5798 5799 
2 19154 19155 
2 19153 19154 
2 4486 4487 
2 4487 4488 
2 12934 12935 
2 12935 12936 
1 4488 12934 
2 8641 8642 
1 8641 13842 
3 13841 13842 
3 13840 13841 
2 7975 7976 
2 7976 7977 
3 15338 15339 
3 18298 18299 
2 18593 18594 
2 18592 18593 
2 16171 16172 
2 4757 4758 
2 4756 4757 
3 3751 3752 
3 14333 14334 
3 10963 10964 
1 10963 14332 
3 14332 14333 
3 11335 11336 
3 11336 11337 
2 17483 17484 
2 17482 17483 
1 17482 21279 
3 21277 21278 
3 21278 21279 
3 14665 14666 
3 14666 14667 
2 12437 12438 
2 12436 12437 
3 16657 16658 
3 1099 1100 
1 1099 16659 
3 16658 16659 
3 2239 2240 
2 19003 19004 
3 8248 8249 
1 8248 19003 
3 8249 8250 
2 2033 2034 
2 2032 2033 
3 18760 18761 
3 8983 8984 
3 8984 8985 
3 15289 15290 
3 15290 15291 
2 2288 2289 
3 10718 10719 
3 7928 7929 
3 10717 10718 
3 7927 7928 
1 7927 10717 
3 10907 10908 
3 10906 10907 
3 5593 5594 
1 5593 10906 
2 2287 2288 
3 5594 5595 
3 5632 5633 
3 5633 5634 
3 15337 15338 
1 5595 15337 
3 18299 18300 
3 1654 1655 
1 1654 18300 
3 1655 1656 
3 17786 17787 
3 17785 17786 
2 10705 10706 
2 10706 10707 
3 19393 19394 
2 1267 1268 
1 1267 5779 
2 5779 5780 
2 1268 1269 
1 1269 18835 
2 18835 18836 
3 6730 6731 
2 18836 18837 
3 6731 6732 
2 8594 8595 
2 8593 8594 
3 19886 19887 
3 19885 19886 
3 17426 17427 
3 17425 17426 
2 11132 11133 
3 3523 3524 
1 3523 17425 
1 1101 3525 
3 3524 3525 
3 1100 1101 
2 11543 11544 
2 11542 11543 
2 20429 20430 
2 20428 20429 
3 4043 4044 
3 21077 21078 
3 4886 4887 
3 4885 4886 
3 4042 4043 
1 4042 4885 
3 2240 2241 
3 21076 21077 
2 1073 1074 
3 18761 18762 
3 10993 10994 
1 5046 10993 
3 10994 10995 
1 6552 10995 
3 6551 6552 
3 6550 6551 
3 6044 6045 
3 6043 6044 
2 7136 7137 
2 7135 7136 
3 15083 15084 
3 15082 15083 
2 17980 17981 
2 17981 17982 
2 14521 14522 
2 14522 14523 
3 12286 12287 
2 15184 15185 
2 15185 15186 
2 8065 8066 
2 8066 8067 
3 1408 1409 
1 1408 13015 
2 13015 13016 
2 13016 13017 
3 1409 1410 
3 20000 20001 
2 5045 5046 
3 14593 14594 
1 13017 14593 
3 14594 14595 
2 5044 5045 
1 5044 14595 
3 19999 20000 
2 20555 20556 
2 20554 20555 
2 21514 21515 
2 21515 21516 
2 20914 20915 
3 6307 6308 
3 6308 6309 
3 12577 12578 
3 12578 12579 
3 16219 16220 
3 16220 16221 
2 9878 9879 
2 9877 9878 
1 9877 19534 
3 19534 19535 
3 19535 19536 
2 16504 16505 
2 16505 16506 
3 6325 6326 
3 6326 6327 
3 14944 14945 
3 14945 14946 
3 2477 2478 
3 2476 2477 
1 2476 20172 
3 20171 20172 
3 20413 20414 
1 8067 20413 
3 20414 20415 
3 11410 11411 
3 11411 11412 
2 7513 7514 
2 7514 7515 
3 11002 11003 
3 11003 11004 
2 3343 3344 
2 3344 3345 
3 20026 20027 
3 20027 20028 
2 11318 11319 
2 11317 11318 
1 6684 8589 
2 6683 6684 
2 8588 8589 
2 8587 8588 
2 12407 12408 
2 12406 12407 
2 6682 6683 
3 19582 19583 
3 19583 19584 
3 895 896 
3 896 897 
3 481 482 
3 482 483 
2 20915 20916 
2 11897 11898 
2 13109 13110 
2 13108 13109 
2 11896 11897 
1 11896 13108 
2 25 26 
1 25 13110 
3 9599 9600 
1 27 9600 
3 9598 9599 
2 26 27 
2 8173 8174 
2 8174 8175 
3 19033 19034 
3 19034 19035 
3 18104 18105 
3 17287 17288 
3 17288 17289 
3 20170 20171 
2 587 588 
2 586 587 
3 16681 16682 
3 16682 16683 
2 1829 1830 
2 12323 12324 
2 1828 1829 
3 1304 1305 
2 12322 12323 
3 1303 1304 
3 18943 18944 
3 21008 21009 
3 21007 21008 
3 15382 15383 
3 11209 11210 
3 11210 11211 
3 2179 2180 
3 2180 2181 
3 1861 1862 
3 1862 1863 
2 14485 14486 
1 14485 16516 
3 16516 16517 
3 16517 16518 
2 14486 14487 
3 6217 6218 
3 6218 6219 
3 1748 1749 
3 1747 1748 
3 21301 21302 
3 21302 21303 
2 16000 16001 
1 1305 16000 
2 16001 16002 
2 10793 10794 
3 18944 18945 
2 2168 2169 
2 2167 2168 
3 15383 15384 
2 5506 5507 
1 5506 15384 
2 5507 5508 
1 5508 18786 
2 18785 18786 
3 4831 4832 
1 4831 18826 
3 4832 4833 
3 18826 18827 
3 18827 18828 
2 18784 18785 
2 18016 18017 
3 8669 8670 
2 16240 16241 
3 8668 8669 
1 8668 16240 
2 17926 17927 
2 17927 17928 
3 11033 11034 
3 18349 18350 
1 8457 18349 
3 18350 18351 
1 11034 18351 
3 4946 4947 
2 8375 8376 
2 8374 8375 
3 4945 4946 
1 4945 8374 
3 21017 21018 
3 21016 21017 
2 13672 13673 
1 13672 21016 
3 8456 8457 
3 8455 8456 
2 8896 8897 
2 8897 8898 
2 10792 10793 
2 4528 4529 
2 4529 4530 
2 14885 14886 
2 18056 18057 
2 14884 14885 
1 14884 18055 
2 18055 18056 
3 16703 16704 
2 16241 16242 
2 15467 15468 
2 8879 8880 
2 8878 8879 
1 8878 15466 
2 15466 15467 
3 13076 13077 
3 17584 17585 
2 12734 12735 
2 12733 12734 
2 13583 13584 
2 13582 13583 
3 14882 14883 
2 8425 8426 
3 14881 14882 
2 8426 8427 
2 6439 6440 
2 1915 1916 
2 1916 1917 
3 11099 11100 
2 19996 19997 
2 19997 19998 
3 16702 16703 
1 16702 19996 
3 16334 16335 
2 13636 13637 
3 19984 19985 
3 17996 17997 
3 17995 17996 
2 10060 10061 
1 10062 15468 
2 10061 10062 
3 18277 18278 
1 17586 18277 
3 18278 18279 
3 17585 17586 
1 18279 20496 
3 7046 7047 
3 7045 7046 
2 3575 3576 
3 17395 17396 
2 16229 16230 
2 16228 16229 
1 16230 17395 
2 15274 15275 
1 6894 15274 
2 3574 3575 
1 3574 15276 
2 15275 15276 
2 18167 18168 
3 17396 17397 
2 6893 6894 
2 6892 6893 
2 18166 18167 
3 8750 8751 
2 6595 6596 
1 6595 8751 
2 6596 6597 
2 6440 6441 
3 8749 8750 
3 11098 11099 
3 16333 16334 
2 13637 13638 
2 12509 12510 
2 12508 12509 
2 8981 8982 
2 8980 8981 
3 17143 17144 
3 17144 17145 
3 8542 8543 
1 8542 8982 
3 18073 18074 
3 18074 18075 
3 11837 11838 
3 8221 8222 
3 8222 8223 
3 11836 11837 
3 7274 7275 
2 7150 7151 
3 7273 7274 
2 7151 7152 
3 19394 19395 
2 20015 20016 
2 15241 15242 
2 15242 15243 
3 6547 6548 
1 6547 20014 
2 20014 20015 
3 6548 6549 
1 5781 6549 
2 5780 5781 
3 2848 2849 
3 2849 2850 
1 9012 18837 
2 9011 9012 
3 20377 20378 
3 20378 20379 
3 7495 7496 
2 16355 16356 
1 7497 16356 
3 7496 7497 
3 4090 4091 
3 4091 4092 
1 8544 17145 
3 8543 8544 
2 16354 16355 
2 4843 4844 
1 4845 8806 
2 4844 4845 
2 8806 8807 
2 3610 3611 
2 3611 3612 
3 3919 3920 
3 3920 3921 
2 17305 17306 
3 18544 18545 
3 18545 18546 
3 19694 19695 
3 19693 19694 
1 8634 20379 
3 8633 8634 
2 12949 12950 
3 8632 8633 
2 12950 12951 
3 3070 3071 
3 3071 3072 
3 7139 7140 
1 3072 7140 
2 8807 8808 
3 1379 1380 
2 10942 10943 
2 10943 10944 
2 19552 19553 
2 19553 19554 
2 16427 16428 
2 16426 16427 
1 14910 16426 
2 14909 14910 
2 9854 9855 
2 9853 9854 
2 14908 14909 
1 14908 19756 
2 19756 19757 
2 19757 19758 
2 2258 2259 
1 2259 17307 
2 17306 17307 
2 2257 2258 
2 14614 14615 
2 14615 14616 
2 15731 15732 
2 15730 15731 
2 12698 12699 
3 20954 20955 
3 7138 7139 
1 7138 12697 
2 12697 12698 
3 1211 1212 
3 1210 1211 
3 20953 20954 
3 2681 2682 
3 2680 2681 
2 12766 12767 
2 12767 12768 
3 1378 1379 
1 1378 2682 
3 13204 13205 
2 6941 6942 
2 6940 6941 
3 13205 13206 
1 6942 13206 
2 15211 15212 
2 15212 15213 