ITEM: TIMESTEP
0
ITEM: NUMBER OF ATOMS
2421
ITEM: BOX BOUNDS pp pp pp
0.0000000000000000e+00 5.0000000000000000e+01
0.0000000000000000e+00 5.0000000000000000e+01
0.0000000000000000e+00 5.0000000000000000e+01
ITEM: ATOMS id type 
184 1 
185 3 
186 1 
1144 1 
1145 3 
1146 1 
1147 1 
1148 3 
1149 1 
1390 1 
1391 3 
1392 1 
1504 1 
1505 2 
1506 1 
2347 1 
2348 3 
2349 1 
2467 1 
2468 3 
2469 1 
2587 1 
2588 3 
2589 1 
3184 1 
3185 3 
3186 1 
3304 1 
3305 3 
3306 1 
3364 1 
3365 3 
3366 1 
3427 1 
3428 2 
3429 1 
3430 1 
3431 3 
3432 1 
3544 1 
3545 3 
3546 1 
3604 1 
3605 2 
3606 1 
3670 1 
3671 3 
3672 1 
4387 1 
4388 3 
4389 1 
4444 1 
4445 3 
4446 1 
4504 1 
4505 3 
4506 1 
4747 1 
4748 3 
4749 1 
5530 1 
5531 2 
5532 1 
5581 1 
5582 2 
5583 1 
5644 1 
5645 3 
5646 1 
5647 1 
5648 3 
5649 1 
5767 1 
5768 3 
5769 1 
5950 1 
5951 3 
5952 1 
6784 1 
6785 3 
6786 1 
6850 1 
6851 3 
6852 1 
7087 1 
7088 3 
7089 1 
7987 1 
7988 3 
7989 1 
8047 1 
8048 3 
8049 1 
8881 1 
8882 3 
8883 1 
9124 1 
9125 3 
9126 1 
9130 1 
9131 3 
9132 1 
9247 1 
9248 3 
9249 1 
9307 1 
9308 3 
9309 1 
10021 1 
10022 3 
10023 1 
10327 1 
10328 3 
10329 1 
10330 1 
10331 2 
10332 1 
10501 1 
10502 3 
10503 1 
22 1 
23 3 
24 1 
133 1 
134 3 
135 1 
139 1 
140 3 
141 1 
199 1 
200 3 
201 1 
433 1 
434 2 
435 1 
436 1 
437 3 
438 1 
1153 1 
1154 3 
1155 1 
1393 1 
1394 3 
1395 1 
1456 1 
1457 3 
1458 1 
2533 1 
2534 3 
2535 1 
2593 1 
2594 3 
2595 1 
2596 1 
2597 3 
2598 1 
3253 1 
3254 3 
3255 1 
3373 1 
3374 3 
3375 1 
3376 1 
3377 3 
3378 1 
3382 1 
3383 3 
3384 1 
3439 1 
3440 3 
3441 1 
3442 1 
3443 3 
3444 1 
3733 1 
3734 3 
3735 1 
3742 1 
3743 3 
3744 1 
5482 1 
5483 3 
5484 1 
5599 1 
5600 3 
5601 1 
5659 1 
5660 2 
5661 1 
5839 1 
5840 2 
5841 1 
5842 1 
5843 3 
5844 1 
5959 1 
5960 3 
5961 1 
6736 1 
6737 3 
6738 1 
6796 1 
6797 3 
6798 1 
6799 1 
6800 3 
6801 1 
6856 1 
6857 3 
6858 1 
6973 1 
6974 2 
6975 1 
7039 1 
7040 3 
7041 1 
7153 1 
7154 3 
7155 1 
7159 1 
7160 3 
7161 1 
7219 1 
7220 3 
7221 1 
7813 1 
7814 3 
7815 1 
7942 1 
7943 2 
7944 1 
7999 1 
8000 3 
8001 1 
8233 1 
8234 3 
8235 1 
8902 1 
8903 3 
8904 1 
8959 1 
8960 3 
8961 1 
9019 1 
9020 3 
9021 1 
9313 1 
9314 3 
9315 1 
10156 1 
10157 3 
10158 1 
10213 1 
10214 3 
10215 1 
10276 1 
10277 3 
10278 1 
10279 1 
10280 3 
10281 1 
10333 1 
10334 3 
10335 1 
10453 1 
10454 3 
10455 1 
10459 1 
10460 3 
10461 1 
148 1 
149 3 
150 1 
205 1 
206 3 
207 1 
208 1 
209 3 
210 1 
211 1 
212 3 
213 1 
451 1 
452 3 
453 1 
1225 1 
1226 3 
1227 1 
1231 1 
1232 3 
1233 1 
1234 1 
1235 3 
1236 1 
1291 1 
1292 3 
1293 1 
1414 1 
1415 3 
1416 1 
1465 1 
1466 2 
1467 1 
2251 1 
2252 3 
2253 1 
2365 1 
2366 3 
2367 1 
2551 1 
2552 3 
2553 1 
3214 1 
3215 3 
3216 1 
3274 1 
3275 3 
3276 1 
3448 1 
3449 2 
3450 1 
3748 1 
3749 3 
3750 1 
4414 1 
4415 3 
4416 1 
4768 1 
4769 2 
4770 1 
4774 1 
4775 2 
4776 1 
5548 1 
5549 3 
5550 1 
5554 1 
5555 3 
5556 1 
5611 1 
5612 3 
5613 1 
5731 1 
5732 2 
5733 1 
5785 1 
5786 3 
5787 1 
5788 1 
5789 3 
5790 1 
6028 1 
6029 3 
6030 1 
6694 1 
6695 3 
6696 1 
6874 1 
6875 3 
6876 1 
6934 1 
6935 3 
6936 1 
8014 1 
8015 3 
8016 1 
8125 1 
8126 3 
8127 1 
8188 1 
8189 3 
8190 1 
8311 1 
8312 3 
8313 1 
8911 1 
8912 3 
8913 1 
8974 1 
8975 3 
8976 1 
9151 1 
9152 3 
9153 1 
9154 1 
9155 3 
9156 1 
9208 1 
9209 3 
9210 1 
10171 1 
10172 3 
10173 1 
100 1 
101 2 
102 1 
400 1 
401 2 
402 1 
406 1 
407 3 
408 1 
463 1 
464 3 
465 1 
466 1 
467 3 
468 1 
1186 1 
1187 3 
1188 1 
1297 1 
1298 2 
1299 1 
1486 1 
1487 2 
1488 1 
1600 1 
1601 3 
1602 1 
2263 1 
2264 3 
2265 1 
2500 1 
2501 3 
2502 1 
2623 1 
2624 3 
2625 1 
3337 1 
3338 3 
3339 1 
3517 1 
3518 3 
3519 1 
3703 1 
3704 3 
3705 1 
3766 1 
3767 2 
3768 1 
4417 1 
4418 3 
4419 1 
4546 1 
4547 2 
4548 1 
4780 1 
4781 3 
4782 1 
4783 1 
4784 3 
4785 1 
4906 1 
4907 3 
4908 1 
5683 1 
5684 3 
5685 1 
5803 1 
5804 3 
5805 1 
5977 1 
5978 3 
5979 1 
6037 1 
6038 3 
6039 1 
6880 1 
6881 3 
6882 1 
7177 1 
7178 3 
7179 1 
7246 1 
7247 3 
7248 1 
7960 1 
7961 3 
7962 1 
8026 1 
8027 3 
8028 1 
8080 1 
8081 3 
8082 1 
8140 1 
8141 3 
8142 1 
8146 1 
8147 3 
8148 1 
8203 1 
8204 3 
8205 1 
9037 1 
9038 3 
9039 1 
9103 1 
9104 3 
9105 1 
9226 1 
9227 3 
9228 1 
9280 1 
9281 3 
9282 1 
9337 1 
9338 3 
9339 1 
10006 1 
10007 3 
10008 1 
10117 1 
10118 2 
10119 1 
10297 1 
10298 3 
10299 1 
10300 1 
10301 3 
10302 1 
10357 1 
10358 2 
10359 1 
10360 1 
10361 3 
10362 1 
10486 1 
10487 3 
10488 1 
118 1 
119 3 
120 1 
175 1 
176 3 
177 1 
355 1 
356 2 
357 1 
1492 1 
1493 2 
1494 1 
1615 1 
1616 3 
1617 1 
1669 1 
1670 2 
1671 1 
2269 1 
2270 3 
2271 1 
2335 1 
2336 3 
2337 1 
3418 1 
3419 3 
3420 1 
3469 1 
3470 3 
3471 1 
3535 1 
3536 3 
3537 1 
3538 1 
3539 3 
3540 1 
3598 1 
3599 3 
3600 1 
3658 1 
3659 3 
3660 1 
4498 1 
4499 2 
4500 1 
5572 1 
5573 3 
5574 1 
5749 1 
5750 3 
5751 1 
6949 1 
6950 3 
6951 1 
6955 1 
6956 3 
6957 1 
7015 1 
7016 2 
7017 1 
7129 1 
7130 3 
7131 1 
7252 1 
7253 3 
7254 1 
7912 1 
7913 3 
7914 1 
8029 1 
8030 3 
8031 1 
8278 1 
8279 3 
8280 1 
8935 1 
8936 3 
8937 1 
8992 1 
8993 3 
8994 1 
10198 1 
10199 3 
10200 1 
664 1 
665 3 
666 1 
730 1 
731 3 
732 1 
787 1 
788 3 
789 1 
1090 1 
1091 3 
1092 1 
1807 1 
1808 3 
1809 1 
2104 1 
2105 3 
2106 1 
2107 1 
2108 3 
2109 1 
2110 1 
2111 3 
2112 1 
2707 1 
2708 3 
2709 1 
2890 1 
2891 3 
2892 1 
2950 1 
2951 3 
2952 1 
3130 1 
3131 3 
3132 1 
3790 1 
3791 2 
3792 1 
3970 1 
3971 3 
3972 1 
4027 1 
4028 2 
4029 1 
4141 1 
4142 3 
4143 1 
4147 1 
4148 3 
4149 1 
4270 1 
4271 3 
4272 1 
4990 1 
4991 3 
4992 1 
5287 1 
5288 3 
5289 1 
6061 1 
6062 3 
6063 1 
6070 1 
6071 3 
6072 1 
6121 1 
6122 3 
6123 1 
6241 1 
6242 3 
6243 1 
6301 1 
6302 3 
6303 1 
6481 1 
6482 3 
6483 1 
6484 1 
6485 3 
6486 1 
7381 1 
7382 3 
7383 1 
7441 1 
7442 3 
7443 1 
7501 1 
7502 3 
7503 1 
7507 1 
7508 3 
7509 1 
7624 1 
7625 3 
7626 1 
8341 1 
8342 3 
8343 1 
8401 1 
8402 2 
8403 1 
8467 1 
8468 3 
8469 1 
8530 1 
8531 3 
8532 1 
8707 1 
8708 3 
8709 1 
8830 1 
8831 3 
8832 1 
9667 1 
9668 3 
9669 1 
10621 1 
10622 2 
10623 1 
10744 1 
10745 3 
10746 1 
10867 1 
10868 3 
10869 1 
10981 1 
10982 3 
10983 1 
11044 1 
11045 3 
11046 1 
679 1 
680 3 
681 1 
802 1 
803 3 
804 1 
1933 1 
1934 3 
1935 1 
2116 1 
2117 3 
2118 1 
2182 1 
2183 3 
2184 1 
2836 1 
2837 3 
2838 1 
2842 1 
2843 3 
2844 1 
2956 1 
2957 3 
2958 1 
3082 1 
3083 3 
3084 1 
3139 1 
3140 3 
3141 1 
3973 1 
3974 3 
3975 1 
3976 1 
3977 3 
3978 1 
4033 1 
4034 2 
4035 1 
4093 1 
4094 2 
4095 1 
4099 1 
4100 3 
4101 1 
4156 1 
4157 3 
4158 1 
5293 1 
5294 3 
5295 1 
5299 1 
5300 3 
5301 1 
6136 1 
6137 3 
6138 1 
6142 1 
6143 3 
6144 1 
6373 1 
6374 2 
6375 1 
6442 1 
6443 2 
6444 1 
6493 1 
6494 3 
6495 1 
7339 1 
7340 3 
7341 1 
7342 1 
7343 3 
7344 1 
7693 1 
7694 3 
7695 1 
8476 1 
8477 3 
8478 1 
8479 1 
8480 3 
8481 1 
8533 1 
8534 3 
8535 1 
8539 1 
8540 2 
8541 1 
8596 1 
8597 2 
8598 1 
8599 1 
8600 3 
8601 1 
8656 1 
8657 2 
8658 1 
9379 1 
9380 3 
9381 1 
9436 1 
9437 3 
9438 1 
9439 1 
9440 2 
9441 1 
9553 1 
9554 3 
9555 1 
9556 1 
9557 3 
9558 1 
9793 1 
9794 3 
9795 1 
9799 1 
9800 3 
9801 1 
9913 1 
9914 2 
9915 1 
10636 1 
10637 3 
10638 1 
10756 1 
10757 3 
10758 1 
10759 1 
10760 3 
10761 1 
10999 1 
11000 3 
11001 1 
688 1 
689 3 
690 1 
694 1 
695 3 
696 1 
808 1 
809 3 
810 1 
868 1 
869 2 
870 1 
1045 1 
1046 2 
1047 1 
1111 1 
1112 2 
1113 1 
1114 1 
1115 3 
1116 1 
1765 1 
1766 3 
1767 1 
1894 1 
1895 3 
1896 1 
1951 1 
1952 3 
1953 1 
2011 1 
2012 3 
2013 1 
2671 1 
2672 3 
2673 1 
2974 1 
2975 3 
2976 1 
3091 1 
3092 3 
3093 1 
3808 1 
3809 3 
3810 1 
3925 1 
3926 3 
3927 1 
3931 1 
3932 3 
3933 1 
3985 1 
3986 3 
3987 1 
3988 1 
3989 3 
3990 1 
4054 1 
4055 3 
4056 1 
4225 1 
4226 3 
4227 1 
4228 1 
4229 3 
4230 1 
5071 1 
5072 3 
5073 1 
5188 1 
5189 2 
5190 1 
5254 1 
5255 2 
5256 1 
5311 1 
5312 3 
5313 1 
6208 1 
6209 3 
6210 1 
6571 1 
6572 3 
6573 1 
7351 1 
7352 3 
7353 1 
7465 1 
7466 3 
7467 1 
7591 1 
7592 3 
7593 1 
7648 1 
7649 3 
7650 1 
8371 1 
8372 3 
8373 1 
8548 1 
8549 3 
8550 1 
8854 1 
8855 3 
8856 1 
9394 1 
9395 3 
9396 1 
9448 1 
9449 3 
9450 1 
9511 1 
9512 3 
9513 1 
9634 1 
9635 3 
9636 1 
9874 1 
9875 3 
9876 1 
10771 1 
10772 2 
10773 1 
10954 1 
10955 3 
10956 1 
11005 1 
11006 2 
11007 1 
11065 1 
11066 3 
11067 1 
700 1 
701 3 
702 1 
817 1 
818 2 
819 1 
997 1 
998 3 
999 1 
1003 1 
1004 3 
1005 1 
2200 1 
2201 3 
2202 1 
2206 1 
2207 3 
2208 1 
2677 1 
2678 3 
2679 1 
2740 1 
2741 3 
2742 1 
2797 1 
2798 3 
2799 1 
2806 1 
2807 3 
2808 1 
2860 1 
2861 3 
2862 1 
3817 1 
3818 3 
3819 1 
3826 1 
3827 3 
3828 1 
3937 1 
3938 3 
3939 1 
3946 1 
3947 2 
3948 1 
4000 1 
4001 3 
4002 1 
4120 1 
4121 2 
4122 1 
4123 1 
4124 2 
4125 1 
4180 1 
4181 3 
4182 1 
4183 1 
4184 3 
4185 1 
4186 1 
4187 3 
4188 1 
4963 1 
4964 3 
4965 1 
5083 1 
5084 2 
5085 1 
5437 1 
5438 3 
5439 1 
6166 1 
6167 3 
6168 1 
6463 1 
6464 3 
6465 1 
6517 1 
6518 3 
6519 1 
6580 1 
6581 3 
6582 1 
7300 1 
7301 3 
7302 1 
7366 1 
7367 3 
7368 1 
7420 1 
7421 3 
7422 1 
7423 1 
7424 2 
7425 1 
7477 1 
7478 3 
7479 1 
7480 1 
7481 3 
7482 1 
8557 1 
8558 2 
8559 1 
8623 1 
8624 3 
8625 1 
8683 1 
8684 3 
8685 1 
8737 1 
8738 3 
8739 1 
8797 1 
8798 3 
8799 1 
8860 1 
8861 3 
8862 1 
9580 1 
9581 3 
9582 1 
11026 1 
11027 3 
11028 1 
655 1 
656 3 
657 1 
658 1 
659 3 
660 1 
832 1 
833 3 
834 1 
838 1 
839 3 
840 1 
1069 1 
1070 3 
1071 1 
1129 1 
1130 3 
1131 1 
1135 1 
1136 3 
1137 1 
1729 1 
1730 3 
1731 1 
1792 1 
1793 3 
1794 1 
1795 1 
1796 2 
1797 1 
1912 1 
1913 3 
1914 1 
1975 1 
1976 2 
1977 1 
2149 1 
2150 3 
2151 1 
2812 1 
2813 3 
2814 1 
2998 1 
2999 3 
3000 1 
3112 1 
3113 3 
3114 1 
3832 1 
3833 2 
3834 1 
4009 1 
4010 3 
4011 1 
4192 1 
4193 3 
4194 1 
5032 1 
5033 3 
5034 1 
5035 1 
5036 3 
5037 1 
5218 1 
5219 3 
5220 1 
5269 1 
5270 3 
5271 1 
5272 1 
5273 3 
5274 1 
5392 1 
5393 3 
5394 1 
5449 1 
5450 3 
5451 1 
6412 1 
6413 3 
6414 1 
6598 1 
6599 3 
6600 1 
6652 1 
6653 3 
6654 1 
6655 1 
6656 2 
6657 1 
7675 1 
7676 3 
7677 1 
8698 1 
8699 3 
8700 1 
9469 1 
9470 3 
9471 1 
9589 1 
9590 2 
9591 1 
9658 1 
9659 3 
9660 1 
9829 1 
9830 3 
9831 1 
9838 1 
9839 2 
9840 1 
10672 1 
10673 3 
10674 1 
10675 1 
10676 3 
10677 1 
10732 1 
10733 3 
10734 1 
10912 1 
10913 3 
10914 1 
10969 1 
10970 3 
10971 1 
10975 1 
10976 3 
10977 1 
11029 1 
11030 2 
11031 1 
11095 1 
11096 3 
11097 1 
11167 1 
11168 3 
11169 1 
11461 1 
11462 3 
11463 1 
12121 1 
12122 3 
12123 1 
12247 1 
12248 3 
12249 1 
12250 1 
12251 3 
12252 1 
13144 1 
13145 2 
13146 1 
14227 1 
14228 3 
14229 1 
14401 1 
14402 3 
14403 1 
14410 1 
14411 3 
14412 1 
14464 1 
14465 3 
14466 1 
14524 1 
14525 3 
14526 1 
14527 1 
14528 3 
14529 1 
14530 1 
14531 3 
14532 1 
14581 1 
14582 3 
14583 1 
15421 1 
15422 3 
15423 1 
16324 1 
16325 2 
16326 1 
17341 1 
17342 3 
17343 1 
17527 1 
17528 3 
17529 1 
17701 1 
17702 3 
17703 1 
17710 1 
17711 3 
17712 1 
17761 1 
17762 3 
17763 1 
18364 1 
18365 3 
18366 1 
20587 1 
20588 3 
20589 1 
20590 1 
20591 3 
20592 1 
20764 1 
20765 2 
20766 1 
20881 1 
20882 3 
20883 1 
11119 1 
11120 3 
11121 1 
11122 1 
11123 3 
11124 1 
11419 1 
11420 3 
11421 1 
12133 1 
12134 3 
12135 1 
12142 1 
12143 3 
12144 1 
12196 1 
12197 3 
12198 1 
12202 1 
12203 3 
12204 1 
12313 1 
12314 3 
12315 1 
12439 1 
12440 3 
12441 1 
12616 1 
12617 3 
12618 1 
13213 1 
13214 3 
13215 1 
13216 1 
13217 3 
13218 1 
13222 1 
13223 2 
13224 1 
13459 1 
13460 3 
13461 1 
13462 1 
13463 3 
13464 1 
13519 1 
13520 3 
13521 1 
14239 1 
14240 3 
14241 1 
14356 1 
14357 3 
14358 1 
14479 1 
14480 3 
14481 1 
14482 1 
14483 3 
14484 1 
14542 1 
14543 3 
14544 1 
15313 1 
15314 3 
15315 1 
15319 1 
15320 3 
15321 1 
15559 1 
15560 3 
15561 1 
16339 1 
16340 2 
16341 1 
16519 1 
16520 3 
16521 1 
16696 1 
16697 3 
16698 1 
17299 1 
17300 2 
17301 1 
17302 1 
17303 3 
17304 1 
17542 1 
17543 3 
17544 1 
17773 1 
17774 3 
17775 1 
17779 1 
17780 3 
17781 1 
18436 1 
18437 3 
18438 1 
18496 1 
18497 3 
18498 1 
18622 1 
18623 3 
18624 1 
18799 1 
18800 3 
18801 1 
19696 1 
19697 3 
19698 1 
19759 1 
19760 3 
19761 1 
20659 1 
20660 3 
20661 1 
20719 1 
20720 3 
20721 1 
20893 1 
20894 3 
20895 1 
11128 1 
11129 3 
11130 1 
11488 1 
11489 3 
11490 1 
12268 1 
12269 3 
12270 1 
12448 1 
12449 3 
12450 1 
12511 1 
12512 3 
12513 1 
12514 1 
12515 3 
12516 1 
12565 1 
12566 3 
12567 1 
12625 1 
12626 3 
12627 1 
12628 1 
12629 3 
12630 1 
13231 1 
13232 3 
13233 1 
13474 1 
13475 3 
13476 1 
13531 1 
13532 3 
13533 1 
13534 1 
13535 3 
13536 1 
14305 1 
14306 2 
14307 1 
14674 1 
14675 3 
14676 1 
15385 1 
15386 2 
15387 1 
15568 1 
15569 3 
15570 1 
15688 1 
15689 3 
15690 1 
15751 1 
15752 3 
15753 1 
16465 1 
16466 3 
16467 1 
16651 1 
16652 3 
16653 1 
17428 1 
17429 3 
17430 1 
17788 1 
17789 3 
17790 1 
18625 1 
18626 2 
18627 1 
18805 1 
18806 3 
18807 1 
18865 1 
18866 2 
18867 1 
19768 1 
19769 3 
19770 1 
19774 1 
19775 3 
19776 1 
20551 1 
20552 3 
20553 1 
20674 1 
20675 3 
20676 1 
21028 1 
21029 3 
21030 1 
11200 1 
11201 3 
11202 1 
11203 1 
11204 3 
11205 1 
11260 1 
11261 3 
11262 1 
11320 1 
11321 3 
11322 1 
11503 1 
11504 3 
11505 1 
12103 1 
12104 3 
12105 1 
12223 1 
12224 3 
12225 1 
12343 1 
12344 3 
12345 1 
12346 1 
12347 3 
12348 1 
13357 1 
13358 3 
13359 1 
13423 1 
13424 3 
13425 1 
13483 1 
13484 3 
13485 1 
13543 1 
13544 3 
13545 1 
14440 1 
14441 2 
14442 1 
14503 1 
14504 3 
14505 1 
14620 1 
14621 3 
14622 1 
15403 1 
15404 3 
15405 1 
15523 1 
15524 3 
15525 1 
15637 1 
15638 2 
15639 1 
16423 1 
16424 2 
16425 1 
16537 1 
16538 3 
16539 1 
16543 1 
16544 3 
16545 1 
16666 1 
16667 3 
16668 1 
16723 1 
16724 3 
16725 1 
17320 1 
17321 3 
17322 1 
17497 1 
17498 3 
17499 1 
17557 1 
17558 3 
17559 1 
17740 1 
17741 3 
17742 1 
17746 1 
17747 3 
17748 1 
18517 1 
18518 3 
18519 1 
18583 1 
18584 3 
18585 1 
18697 1 
18698 3 
18699 1 
18886 1 
18887 3 
18888 1 
19540 1 
19541 3 
19542 1 
19837 1 
19838 3 
19839 1 
19843 1 
19844 3 
19845 1 
20557 1 
20558 3 
20559 1 
20683 1 
20684 3 
20685 1 
20800 1 
20801 3 
20802 1 
20803 1 
20804 3 
20805 1 
20980 1 
20981 3 
20982 1 
20986 1 
20987 2 
20988 1 
21040 1 
21041 3 
21042 1 
11149 1 
11150 3 
11151 1 
11152 1 
11153 3 
11154 1 
11272 1 
11273 3 
11274 1 
11275 1 
11276 3 
11277 1 
11392 1 
11393 3 
11394 1 
11512 1 
11513 3 
11514 1 
12292 1 
12293 3 
12294 1 
12472 1 
12473 2 
12474 1 
12478 1 
12479 3 
12480 1 
13312 1 
13313 3 
13314 1 
14392 1 
14393 3 
14394 1 
14449 1 
14450 3 
14451 1 
14455 1 
14456 2 
14457 1 
14509 1 
14510 3 
14511 1 
14575 1 
14576 3 
14577 1 
14635 1 
14636 3 
14637 1 
15469 1 
15470 3 
15471 1 
15478 1 
15479 3 
15480 1 
15709 1 
15710 3 
15711 1 
16372 1 
16373 3 
16374 1 
16729 1 
16730 3 
16731 1 
17335 1 
17336 2 
17337 1 
17389 1 
17390 3 
17391 1 
17455 1 
17456 3 
17457 1 
17512 1 
17513 3 
17514 1 
17518 1 
17519 3 
17520 1 
17569 1 
17570 3 
17571 1 
17635 1 
17636 3 
17637 1 
17758 1 
17759 3 
17760 1 
18538 1 
18539 3 
18540 1 
18655 1 
18656 3 
18657 1 
18709 1 
18710 3 
18711 1 
18712 1 
18713 3 
18714 1 
18829 1 
18830 3 
18831 1 
18895 1 
18896 3 
18897 1 
19492 1 
19493 2 
19494 1 
19498 1 
19499 3 
19500 1 
19735 1 
19736 3 
19737 1 
19852 1 
19853 3 
19854 1 
20869 1 
20870 2 
20871 1 
11524 1 
11525 3 
11526 1 
11641 1 
11642 3 
11643 1 
11890 1 
11891 3 
11892 1 
12004 1 
12005 3 
12006 1 
12667 1 
12668 3 
12669 1 
12901 1 
12902 2 
12903 1 
12904 1 
12905 3 
12906 1 
13021 1 
13022 3 
13023 1 
13687 1 
13688 3 
13689 1 
13804 1 
13805 2 
13806 1 
13924 1 
13925 3 
13926 1 
13984 1 
13985 3 
13986 1 
14047 1 
14048 3 
14049 1 
14107 1 
14108 3 
14109 1 
14770 1 
14771 3 
14772 1 
14821 1 
14822 3 
14823 1 
15070 1 
15071 3 
15072 1 
15124 1 
15125 3 
15126 1 
16090 1 
16091 3 
16092 1 
16147 1 
16148 3 
16149 1 
16267 1 
16268 3 
16269 1 
16987 1 
16988 3 
16989 1 
17047 1 
17048 3 
17049 1 
17104 1 
17105 3 
17106 1 
18181 1 
18182 3 
18183 1 
18901 1 
18902 3 
18903 1 
18907 1 
18908 2 
18909 1 
18964 1 
18965 3 
18966 1 
19021 1 
19022 3 
19023 1 
19150 1 
19151 3 
19152 1 
19201 1 
19202 3 
19203 1 
19990 1 
19991 3 
19992 1 
20041 1 
20042 3 
20043 1 
20167 1 
20168 3 
20169 1 
20281 1 
20282 3 
20283 1 
21064 1 
21065 3 
21066 1 
21127 1 
21128 3 
21129 1 
21304 1 
21305 3 
21306 1 
21364 1 
21365 3 
21366 1 
21424 1 
21425 3 
21426 1 
21481 1 
21482 3 
21483 1 
21544 1 
21545 3 
21546 1 
21547 1 
21548 3 
21549 1 
11539 1 
11540 3 
11541 1 
11602 1 
11603 3 
11604 1 
11893 1 
11894 3 
11895 1 
11959 1 
11960 3 
11961 1 
12022 1 
12023 3 
12024 1 
12862 1 
12863 3 
12864 1 
13042 1 
13043 3 
13044 1 
13102 1 
13103 3 
13104 1 
13642 1 
13643 3 
13644 1 
13936 1 
13937 3 
13938 1 
13993 1 
13994 3 
13995 1 
14122 1 
14123 2 
14124 1 
14713 1 
14714 3 
14715 1 
14959 1 
14960 3 
14961 1 
14962 1 
14963 3 
14964 1 
15073 1 
15074 3 
15075 1 
15202 1 
15203 3 
15204 1 
15913 1 
15914 2 
15915 1 
15973 1 
15974 3 
15975 1 
16036 1 
16037 3 
16038 1 
16042 1 
16043 3 
16044 1 
16153 1 
16154 3 
16155 1 
16996 1 
16997 3 
16998 1 
17173 1 
17174 3 
17175 1 
17176 1 
17177 3 
17178 1 
17899 1 
17900 3 
17901 1 
18079 1 
18080 3 
18081 1 
18256 1 
18257 3 
18258 1 
18319 1 
18320 2 
18321 1 
19036 1 
19037 3 
19038 1 
19102 1 
19103 3 
19104 1 
19159 1 
19160 3 
19161 1 
20299 1 
20300 3 
20301 1 
20416 1 
20417 3 
20418 1 
21079 1 
21080 3 
21081 1 
21142 1 
21143 3 
21144 1 
21316 1 
21317 3 
21318 1 
21436 1 
21437 3 
21438 1 
11554 1 
11555 3 
11556 1 
11608 1 
11609 3 
11610 1 
11671 1 
11672 3 
11673 1 
11674 1 
11675 3 
11676 1 
11731 1 
11732 3 
11733 1 
11785 1 
11786 3 
11787 1 
11788 1 
11789 3 
11790 1 
11845 1 
11846 3 
11847 1 
12994 1 
12995 3 
12996 1 
13648 1 
13649 3 
13650 1 
13654 1 
13655 3 
13656 1 
13765 1 
13766 3 
13767 1 
13774 1 
13775 3 
13776 1 
13828 1 
13829 3 
13830 1 
13894 1 
13895 3 
13896 1 
14185 1 
14186 3 
14187 1 
14188 1 
14189 3 
14190 1 
14734 1 
14735 3 
14736 1 
14785 1 
14786 3 
14787 1 
14905 1 
14906 3 
14907 1 
15271 1 
15272 3 
15273 1 
16045 1 
16046 3 
16047 1 
16054 1 
16055 3 
16056 1 
16234 1 
16235 3 
16236 1 
16291 1 
16292 3 
16293 1 
16768 1 
16769 3 
16770 1 
16774 1 
16775 3 
16776 1 
16948 1 
16949 3 
16950 1 
16954 1 
16955 3 
16956 1 
17125 1 
17126 3 
17127 1 
17128 1 
17129 3 
17130 1 
17191 1 
17192 3 
17193 1 
17194 1 
17195 3 
17196 1 
17251 1 
17252 3 
17253 1 
17845 1 
17846 3 
17847 1 
18091 1 
18092 3 
18093 1 
18145 1 
18146 3 
18147 1 
18208 1 
18209 3 
18210 1 
19054 1 
19055 3 
19056 1 
19174 1 
19175 3 
19176 1 
20254 1 
20255 3 
20256 1 
20365 1 
20366 3 
20367 1 
20434 1 
20435 3 
20436 1 
21094 1 
21095 3 
21096 1 
21274 1 
21275 3 
21276 1 
21325 1 
21326 3 
21327 1 
21388 1 
21389 3 
21390 1 
21574 1 
21575 3 
21576 1 
11737 1 
11738 3 
11739 1 
11743 1 
11744 3 
11745 1 
11803 1 
11804 3 
11805 1 
12040 1 
12041 2 
12042 1 
12043 1 
12044 3 
12045 1 
12943 1 
12944 3 
12945 1 
12997 1 
12998 3 
12999 1 
13660 1 
13661 3 
13662 1 
13843 1 
13844 3 
13845 1 
14020 1 
14021 3 
14022 1 
14077 1 
14078 3 
14079 1 
14146 1 
14147 3 
14148 1 
14737 1 
14738 3 
14739 1 
14740 1 
14741 3 
14742 1 
14806 1 
14807 3 
14808 1 
14857 1 
14858 3 
14859 1 
14980 1 
14981 2 
14982 1 
14986 1 
14987 3 
14988 1 
15286 1 
15287 3 
15288 1 
15940 1 
15941 2 
15942 1 
16243 1 
16244 3 
16245 1 
16303 1 
16304 3 
16305 1 
17197 1 
17198 2 
17199 1 
17917 1 
17918 2 
17919 1 
17986 1 
17987 3 
17988 1 
18037 1 
18038 3 
18039 1 
18220 1 
18221 3 
18222 1 
18286 1 
18287 3 
18288 1 
19060 1 
19061 3 
19062 1 
19243 1 
19244 3 
19245 1 
19306 1 
19307 3 
19308 1 
19417 1 
19418 3 
19419 1 
20140 1 
20141 3 
20142 1 
21223 1 
21224 3 
21225 1 
21577 1 
21578 3 
21579 1 
11569 1 
11570 3 
11571 1 
11992 1 
11993 3 
11994 1 
12049 1 
12050 3 
12051 1 
12055 1 
12056 3 
12057 1 
12715 1 
12716 2 
12717 1 
12769 1 
12770 3 
12771 1 
12778 1 
12779 3 
12780 1 
12838 1 
12839 3 
12840 1 
12958 1 
12959 3 
12960 1 
13072 1 
13073 2 
13074 1 
13675 1 
13676 3 
13677 1 
13729 1 
13730 3 
13731 1 
14152 1 
14153 3 
14154 1 
14209 1 
14210 3 
14211 1 
14872 1 
14873 3 
14874 1 
14875 1 
14876 3 
14877 1 
14935 1 
14936 2 
14937 1 
15115 1 
15116 3 
15117 1 
15229 1 
15230 3 
15231 1 
15898 1 
15899 3 
15900 1 
16015 1 
16016 3 
16017 1 
16075 1 
16076 3 
16077 1 
16192 1 
16193 3 
16194 1 
16309 1 
16310 3 
16311 1 
18169 1 
18170 2 
18171 1 
18955 1 
18956 3 
18957 1 
19132 1 
19133 3 
19134 1 
19375 1 
19376 3 
19377 1 
19432 1 
19433 3 
19434 1 
19969 1 
19970 2 
19971 1 
20032 1 
20033 3 
20034 1 
20035 1 
20036 3 
20037 1 
20218 1 
20219 3 
20220 1 
21109 1 
21110 3 
21111 1 
21235 1 
21236 3 
21237 1 
21409 1 
21410 3 
21411 1 
21412 1 
21413 3 
21414 1 
