ITEM: TIMESTEP
30000000
ITEM: NUMBER OF ATOMS
276
ITEM: BOX BOUNDS pp pp pp
0.0000000000000000e+00 5.0000000000000000e+01
0.0000000000000000e+00 5.0000000000000000e+01
0.0000000000000000e+00 5.0000000000000000e+01
ITEM: ATOMS id type vx vy vz 
10443 1 6.13852 -1.82246 2.49332 
8938 1 -0.235464 -2.70891 2.1313 
10441 1 -3.09881 -1.2127 -9.01074 
10442 2 -4.61003 2.72405 -1.03831 
905 2 1.65175 -1.29177 -1.21037 
13182 1 -1.76297 1.92393 -4.48887 
13930 1 -1.30195 0.971554 -6.76046 
13932 1 0.814758 -8.48344 6.39183 
13931 2 1.33963 4.58665 -1.5888 
8940 1 -2.06923 2.69672 -6.56045 
906 1 -2.07555 -5.37198 2.28758 
10902 1 3.95819 2.25094 2.79158 
1524 1 3.15925 5.4541 2.58721 
9357 1 -0.235093 3.37039 -3.73941 
10901 2 -1.13269 -0.226111 4.46889 
10900 1 2.05329 3.48328 7.38945 
20311 1 0.959239 1.36817 -3.35776 
20312 2 -1.27235 -5.93159 -5.45733 
20313 1 0.884015 1.41672 1.46137 
10786 1 -4.0732 -8.86709 4.7698 
10787 2 -0.573317 -1.91429 -2.92438 
9356 2 -0.765415 1.55111 -6.10104 
8939 2 -0.391212 -2.05759 -0.560502 
11872 1 1.48815 -1.13865 3.67141 
6052 1 -4.34991 -2.75164 1.39211 
11873 2 -1.24051 0.362728 3.31355 
11874 1 -3.84424 4.07307 2.27506 
9355 1 0.704553 4.67464 -2.60336 
10788 1 -1.0816 1.03901 -3.22122 
1887 1 2.25695 2.86573 4.13801 
18832 1 -0.38984 3.50685 -6.41556 
20216 2 -1.28325 0.165371 -1.43984 
20217 1 0.395856 -1.4174 3.78703 
6053 2 0.520113 -1.28267 0.0521017 
1886 2 1.38711 -5.88784 -1.97501 
1885 1 -0.0214351 -3.60265 -5.94622 
18833 2 2.85717 3.74687 4.13229 
18834 1 1.56414 1.54966 2.16108 
10228 1 -1.94177 -1.70732 -1.9615 
10229 2 0.184873 2.41792 -1.08663 
10230 1 -1.73611 -3.23675 2.35869 
11553 1 5.97917 -5.11202 0.508992 
14609 3 -0.551945 1.93144 2.02838 
14608 1 -3.96641 3.24276 -2.76074 
14610 1 0.316413 0.387127 5.91719 
384 1 1.1808 -3.19177 3.03127 
15193 1 -4.78715 0.255411 3.47907 
8212 1 3.67754 2.57916 3.41199 
7316 2 -2.7655 1.67357 3.2643 
7317 1 -0.86569 4.01881 3.34065 
15085 1 -1.43642 2.80144 3.0173 
7315 1 0.152843 1.18938 -3.05623 
8213 2 5.37558 2.817 -0.0257379 
6195 1 -5.89728 -2.46319 1.0386 
10100 2 -0.0745014 -3.11213 0.984177 
20302 1 3.02692 -1.35345 -4.24897 
904 1 0.72415 -6.83164 -0.825835 
20303 2 1.04747 3.0591 -2.79465 
20304 1 -0.528825 -2.56653 2.57865 
14617 1 4.11725 -6.06502 4.47393 
11779 1 0.633402 -4.99505 2.29666 
4664 2 -3.47609 1.85822 2.16302 
14618 2 -2.94003 -0.669952 1.85379 
11780 2 -4.43803 2.03853 -0.435586 
4665 1 1.30619 -2.12628 4.54294 
9346 1 -1.48669 9.23664 2.24893 
9348 1 2.12301 -1.15721 -1.25954 
15505 1 -7.59542 -5.43662 -0.36775 
9347 3 0.40751 -1.18577 3.71646 
15506 2 -2.39318 -2.82475 -2.33487 
382 1 4.62743 5.36255 2.51455 
13181 2 -0.0723852 -1.0449 -1.92484 
383 2 2.28735 -6.05784 2.78329 
3706 1 1.32551 1.20175 -4.41009 
3707 2 3.2344 -4.51571 0.552215 
3708 1 -2.15553 2.3828 1.62339 
7596 1 -4.06501 -1.63112 -0.432322 
13180 1 -1.49443 4.0082 -2.9361 
16824 1 -3.47231 2.8128 2.5323 
6194 2 0.263463 -1.05465 1.57604 
7595 2 -1.55971 0.574471 -2.57629 
7594 1 3.96021 -3.34114 -0.261704 
14266 1 2.13588 5.58102 1.91306 
14267 2 5.72822 1.04962 -0.596864 
6193 1 1.53048 0.602266 -2.90814 
20118 1 -6.47838 0.247154 2.39995 
15086 2 4.96329 0.428915 -3.62592 
15087 1 0.0821035 -6.80182 -2.20661 
20116 1 -3.40623 0.52739 -2.79839 
20117 2 5.04642 3.08309 1.11847 
10604 2 1.43081 2.55059 -0.624159 
10603 1 -1.51525 -3.53589 1.77439 
1522 1 -1.08178 2.79399 -3.39342 
1523 2 0.123175 -1.2733 -0.75144 
10605 1 -2.56034 -5.53869 -5.01824 
13347 1 3.36854 5.17164 2.93265 
14619 1 5.82738 1.22597 -3.99288 
941 2 4.75215 1.3904 1.12093 
9702 1 1.55782 1.82979 3.73756 
942 1 8.0825 -6.81657 2.00974 
9700 1 -1.71955 6.92493 1.17088 
9701 2 2.82751 1.31308 5.84397 
18550 1 -3.12696 -8.92415 0.0825112 
15507 1 1.42305 0.426809 -0.151241 
13594 1 -0.757526 -4.59578 -1.97237 
13595 2 -0.412387 -3.58962 -1.4149 
13596 1 7.18288 7.68996 4.81903 
16570 1 -2.6998 2.57693 1.18499 
16823 2 2.46626 -0.390137 2.42902 
17010 1 -9.03634 -0.888762 1.1686 
16822 1 -2.73037 -4.2294 -4.44757 
8216 2 -0.785363 -3.91209 -3.21456 
17009 2 -0.568579 3.76881 2.55566 
17491 1 3.02803 1.03382 6.08162 
17008 1 1.76158 -3.49833 -7.8933 
18552 1 -3.28198 1.80151 2.31938 
18551 2 -3.11584 -1.88527 0.462003 
14268 1 2.34914 -6.97464 1.07792 
3250 1 -1.71436 4.2177 -0.863862 
17492 2 6.9718 1.88894 -2.00627 
17493 1 5.07043 1.6309 1.28604 
3251 2 1.37166 -1.39847 2.47553 
3252 1 -0.324195 0.35865 -5.64329 
19173 1 -3.05889 2.20917 -4.04009 
19172 2 2.57499 -1.33218 3.96797 
19171 1 -4.40506 0.619986 1.44957 
940 1 -1.84229 0.213811 -1.10872 
20215 1 -1.77463 -1.82003 -5.59553 
12575 2 0.121112 -1.26676 4.08614 
12574 1 -5.03129 -0.315184 -3.31751 
16571 2 3.23015 -1.60765 -1.42272 
12576 1 -0.11729 0.735844 -2.93797 
16572 1 3.73925 0.800688 3.16637 
5414 3 -0.282138 -2.42697 -1.79804 
5415 1 0.156314 -4.05803 -1.6867 
766 1 5.38609 -6.27653 -3.27229 
5413 1 3.78317 -6.99442 -1.63138 
16216 1 -0.275329 -3.99989 5.11051 
16217 3 -4.88052 -0.39432 -0.187464 
16218 1 0.169477 0.42306 -1.61238 
8215 1 6.20809 -1.55044 1.22742 
12723 1 -5.8662 2.43149 -5.08208 
12722 2 -0.993078 1.43268 0.165091 
12721 1 -3.88955 3.36368 2.44149 
6054 1 -1.81766 4.06301 -0.859663 
15617 2 -0.136933 -0.280966 -0.0568205 
15616 1 -2.71085 5.98201 2.97333 
15618 1 4.74917 -1.8892 -2.49006 
11552 3 -2.17761 3.49169 1.46332 
11551 1 5.17647 -0.361425 1.30067 
15171 1 1.088 -3.18383 1.86179 
15169 1 -6.20605 -0.695356 3.71239 
15170 3 -1.56082 -3.5685 -4.95824 
14672 2 1.89864 -1.56451 2.28293 
14671 1 1.799 1.54617 -1.64034 
6454 1 0.271449 8.22191 -3.20137 
10099 1 -3.96084 1.63685 1.90235 
15194 2 -3.74779 -3.46296 -1.93222 
2047 1 -4.85688 -1.41696 -2.2853 
2048 2 4.79895 0.359753 0.922702 
2049 1 8.50787 -4.96126 3.0747 
6456 1 -2.03309 2.32682 2.84343 
6064 1 -1.03724 1.80291 3.00618 
15195 1 -0.0388843 -0.316459 -6.0995 
9319 1 1.21567 -1.46717 -1.30649 
6455 2 4.44169 0.774642 4.4631 
18479 2 0.633882 -1.29954 -0.927599 
18480 1 -3.02662 1.55153 -5.0974 
13345 1 4.03937 -0.241059 2.70284 
18478 1 0.388451 -2.7539 -0.160382 
11781 1 -0.0968282 -7.33034 -1.07161 
3270 1 2.64176 1.60435 3.16372 
15635 2 -0.0364111 0.919992 1.69993 
15636 1 0.175867 -4.24133 2.62912 
14673 1 6.47475 6.23788 -0.724462 
15634 1 -0.982595 1.02475 3.85783 
1093 1 2.16502 0.485289 5.46205 
14469 1 -5.01207 -0.331576 -2.16747 
14468 2 4.07586 -0.257783 1.73857 
6065 2 -2.30908 1.544 -2.29842 
9291 1 3.99289 2.27299 6.41631 
9290 2 1.24249 1.54478 0.750667 
9289 1 -3.88285 6.43901 2.23798 
14467 1 -0.232843 -0.811229 0.490172 
6066 1 -4.93487 2.76478 2.76875 
9561 1 0.279023 3.17403 -0.41689 
9560 2 -2.30598 2.4276 0.884371 
9559 1 -2.54378 -2.12237 0.395252 
10920 1 -3.23282 -3.28599 -4.49564 
10919 2 0.578443 0.809557 -0.314409 
13346 2 0.451822 -0.0976153 -2.12308 
10918 1 4.57573 -3.11651 -0.14213 
7878 1 10.4055 -2.16013 0.637197 
1317 1 -2.00873 8.24448 3.3299 
1316 2 -3.00121 1.96056 -0.531524 
1315 1 -1.51163 1.11049 -2.49547 
11825 2 -1.45268 0.489537 -4.88467 
11826 1 2.93591 -2.09672 5.90039 
11824 1 4.43816 1.46705 1.04003 
8217 1 -4.92308 -2.62886 -4.01968 
14500 1 -2.60777 -3.74708 -3.91972 
14501 2 0.0357544 -0.895116 -4.40674 
16580 2 2.98239 2.62411 -2.72913 
14502 1 -1.64729 -3.04199 -4.37514 
16581 1 6.06809 -1.44935 2.82882 
7877 2 6.04248 2.60238 -0.477043 
7876 1 -3.75982 -4.82434 10.5805 
14223 1 -1.20693 -1.55851 1.12733 
14222 2 1.54028 5.23413 -2.91935 
14221 1 -1.89994 0.165289 -0.16796 
4260 1 -2.87073 5.80616 6.39285 
4258 1 -7.3132 -1.2949 -4.6685 
4259 2 -2.06566 0.397952 0.953356 
20795 3 0.376254 -0.840715 -0.829465 
767 2 1.71091 -1.72218 1.03444 
20796 1 4.6609 -1.31925 -1.04367 
768 1 6.53079 1.27541 -3.45215 
20794 1 4.48919 -3.38669 -1.86358 
17716 1 -0.243835 -4.14732 -1.96964 
17718 1 1.387 -4.97531 1.09899 
17717 3 -0.605812 -3.89916 -0.818173 
8887 1 -5.48542 6.118 -3.07567 
8888 2 -1.92491 0.757774 3.57655 
8889 1 3.4649 0.0399365 -0.235535 
18630 1 4.00794 -0.16656 -4.27995 
18629 2 -3.54781 -4.75967 -5.81395 
9320 2 -3.72478 1.61603 -1.12506 
9321 1 -1.04634 -0.673021 1.9277 
4449 1 -1.34572 -1.08057 -4.38706 
4448 2 0.0152021 -0.383936 -1.03702 
8445 1 3.09641 3.65171 4.4913 
4447 1 -2.69936 3.03428 -0.615211 
14989 1 8.53637 4.23963 0.224325 
1095 1 -1.17055 2.95145 -2.55818 
12792 1 2.00681 -0.246567 -1.52267 
1094 2 3.21136 4.46228 5.3843 
12791 2 -0.666595 -8.27353 -1.53797 
12790 1 -7.96526 -3.42088 1.91388 
5692 1 4.40056 -0.2855 -4.00091 
5693 2 -0.665314 0.0410934 3.5443 
14990 2 -1.64179 0.179015 -2.73639 
5694 1 2.65319 -0.928175 1.01353 
14191 1 -0.282641 5.99933 7.60852 
14192 2 -1.14801 0.362487 1.70147 
14991 1 -5.10987 -4.4617 1.4166 
16579 1 2.02695 -0.316025 3.84871 
14193 1 -5.49399 -6.44843 -3.63905 
8444 2 0.768287 -6.70317 0.856008 
8443 1 -0.591659 1.2781 -3.33637 
20509 1 -7.75458 6.22186 -4.20389 
8214 1 -2.69847 0.303752 5.18048 
10101 1 1.17606 0.96795 1.10631 
20510 3 -2.67387 -0.90489 0.806824 
10537 1 -2.37346 -0.0472509 3.01983 
8965 1 8.87824 3.09735 -0.0416676 
5204 2 0.0336319 3.12398 0.659389 
20511 1 -3.91919 2.65194 1.94764 
10539 1 -5.27596 0.824023 -1.62557 
10538 2 -2.16325 -4.51741 1.69646 
5205 1 -4.37879 4.60181 2.23425 
8966 2 1.82883 2.83773 -0.967394 
4663 1 0.78743 0.205847 1.24579 
5203 1 4.57526 -3.79994 3.54096 
18368 2 -2.06789 -1.25411 0.814872 
20814 1 0.767952 -0.331179 2.80432 
14386 1 1.81396 0.0985223 3.47108 
20813 2 -9.72512 -2.8605 -0.735661 
18367 1 -0.813427 1.77937 1.611 
20812 1 4.11063 -1.32994 0.711753 
14387 2 -0.911915 -2.02418 4.94802 
8967 1 4.08268 -6.03367 -5.68307 
14388 1 0.208185 0.414088 -5.09432 
3269 2 -0.0754536 -0.961856 3.36358 
3268 1 3.96154 -0.40038 2.98775 
18369 1 -0.519223 -0.158224 -4.54962 
18628 1 -1.05075 -6.66736 1.71713 
