ITEM: TIMESTEP
0
ITEM: NUMBER OF ATOMS
276
ITEM: BOX BOUNDS pp pp pp
0.0000000000000000e+00 5.0000000000000000e+01
0.0000000000000000e+00 5.0000000000000000e+01
0.0000000000000000e+00 5.0000000000000000e+01
ITEM: ATOMS id type 
3250 1 
3251 2 
3252 1 
4447 1 
4448 2 
4449 1 
8887 1 
8888 2 
8889 1 
10441 1 
10442 2 
10443 1 
382 1 
383 2 
384 1 
1522 1 
1523 2 
1524 1 
7876 1 
7877 2 
7878 1 
9319 1 
9320 2 
9321 1 
10099 1 
10100 2 
10101 1 
3268 1 
3269 2 
3270 1 
8965 1 
8966 2 
8967 1 
10228 1 
10229 2 
10230 1 
3706 1 
3707 2 
3708 1 
4663 1 
4664 2 
4665 1 
9346 1 
9347 3 
9348 1 
10537 1 
10538 2 
10539 1 
1315 1 
1316 2 
1317 1 
5692 1 
5693 2 
5694 1 
6052 1 
6053 2 
6054 1 
8212 1 
8213 2 
8214 1 
8215 1 
8216 2 
8217 1 
8938 1 
8939 2 
8940 1 
9289 1 
9290 2 
9291 1 
9355 1 
9356 2 
9357 1 
904 1 
905 2 
906 1 
2047 1 
2048 2 
2049 1 
6064 1 
6065 2 
6066 1 
1093 1 
1094 2 
1095 1 
5413 1 
5414 3 
5415 1 
6193 1 
6194 2 
6195 1 
9559 1 
9560 2 
9561 1 
1885 1 
1886 2 
1887 1 
6454 1 
6455 2 
6456 1 
7594 1 
7595 2 
7596 1 
766 1 
767 2 
768 1 
940 1 
941 2 
942 1 
5203 1 
5204 2 
5205 1 
8443 1 
8444 2 
8445 1 
9700 1 
9701 2 
9702 1 
10603 1 
10604 2 
10605 1 
10786 1 
10787 2 
10788 1 
10900 1 
10901 2 
10902 1 
4258 1 
4259 2 
4260 1 
7315 1 
7316 2 
7317 1 
10918 1 
10919 2 
10920 1 
14221 1 
14222 2 
14223 1 
14467 1 
14468 2 
14469 1 
16570 1 
16571 2 
16572 1 
18367 1 
18368 2 
18369 1 
18550 1 
18551 2 
18552 1 
15616 1 
15617 2 
15618 1 
16579 1 
16580 2 
16581 1 
17716 1 
17717 3 
17718 1 
12574 1 
12575 2 
12576 1 
13345 1 
13346 2 
13347 1 
13594 1 
13595 2 
13596 1 
14608 1 
14609 3 
14610 1 
14671 1 
14672 2 
14673 1 
15505 1 
15506 2 
15507 1 
15634 1 
15635 2 
15636 1 
17491 1 
17492 2 
17493 1 
18628 1 
18629 2 
18630 1 
20794 1 
20795 3 
20796 1 
13180 1 
13181 2 
13182 1 
14266 1 
14267 2 
14268 1 
14386 1 
14387 2 
14388 1 
14500 1 
14501 2 
14502 1 
14617 1 
14618 2 
14619 1 
18478 1 
18479 2 
18480 1 
18832 1 
18833 2 
18834 1 
20812 1 
20813 2 
20814 1 
11824 1 
11825 2 
11826 1 
12721 1 
12722 2 
12723 1 
12790 1 
12791 2 
12792 1 
13930 1 
13931 2 
13932 1 
11779 1 
11780 2 
11781 1 
15193 1 
15194 2 
15195 1 
16216 1 
16217 3 
16218 1 
16822 1 
16823 2 
16824 1 
20116 1 
20117 2 
20118 1 
20302 1 
20303 2 
20304 1 
11551 1 
11552 3 
11553 1 
14191 1 
14192 2 
14193 1 
15085 1 
15086 2 
15087 1 
17008 1 
17009 2 
17010 1 
19171 1 
19172 2 
19173 1 
20311 1 
20312 2 
20313 1 
11872 1 
11873 2 
11874 1 
14989 1 
14990 2 
14991 1 
15169 1 
15170 3 
15171 1 
20215 1 
20216 2 
20217 1 
20509 1 
20510 3 
20511 1 
