ITEM: TIMESTEP
30000000
ITEM: NUMBER OF ATOMS
3063
ITEM: BOX BOUNDS pp pp pp
0.0000000000000000e+00 5.0000000000000000e+01
0.0000000000000000e+00 5.0000000000000000e+01
0.0000000000000000e+00 5.0000000000000000e+01
ITEM: ATOMS id type vx vy vz 
4281 1 -1.58875 0.207578 -5.31797 
418 1 -0.0839575 5.20735 4.69342 
419 2 -4.7108 3.27876 -0.0498425 
20962 1 -2.25051 0.749474 2.78503 
420 1 5.21868 -1.99371 2.4822 
20963 2 -0.482943 -2.59074 0.338264 
4847 2 3.12899 0.864729 -8.91151 
4846 1 0.650636 -3.72686 3.17366 
4280 2 0.598836 -1.56557 4.41691 
9666 1 -5.21685 -1.39235 4.33688 
4279 1 2.14058 -4.81567 -1.84769 
4848 1 0.40277 -2.69947 -1.92192 
20964 1 -2.35597 -2.36171 6.57756 
7056 1 0.246852 -2.45168 3.18831 
7055 3 -2.06451 -2.83178 1.61111 
15860 2 -2.18303 -0.852287 -0.667902 
7054 1 -5.69668 1.53378 4.56705 
15861 1 5.45999 1.29028 1.32509 
2160 1 -0.855339 3.42687 0.403581 
9106 1 -0.822911 1.67046 -6.55557 
2158 1 -4.14634 0.794113 -3.35937 
9916 1 -3.4884 -0.262108 -2.22924 
2159 2 1.29065 -5.32291 -0.195266 
9917 2 -1.88911 -1.58497 -2.5577 
18459 1 -1.2048 -2.0432 -1.51992 
9918 1 -0.611726 3.166 -0.122718 
9664 1 -7.60889 2.29762 2.70146 
7281 1 -0.283703 -2.43155 -0.69201 
8306 2 0.916704 1.61997 -2.07684 
7280 2 0.092851 -4.1082 -3.99673 
9665 2 -3.58806 2.87868 0.164452 
15983 2 -2.52784 -2.67341 -5.2471 
15982 1 -2.13863 2.22379 4.37837 
15984 1 9.16845 2.04416 2.19772 
8305 1 3.80345 0.0914999 -1.12746 
8307 1 0.621535 -0.117138 -5.56551 
7237 1 5.7586 -2.58634 -0.290803 
7238 2 -2.86808 3.29122 1.23369 
9107 2 -6.17941 -2.14969 -1.34879 
6676 1 0.733846 -4.60921 -1.41001 
14916 1 5.04658 -1.75425 0.0062936 
14915 2 -0.75486 1.5828 1.12733 
9108 1 -1.93468 -1.26452 -4.63149 
14914 1 0.830767 -0.927722 1.11537 
21104 2 0.226097 -1.30915 1.40808 
21105 1 -0.514108 1.3218 -0.657425 
18457 1 5.50526 -3.44171 -2.77567 
18458 2 -0.159684 3.51704 -0.454066 
16755 1 -4.65438 -3.01965 0.712484 
5871 1 0.928667 -1.6794 2.22253 
16754 2 -0.380433 -1.54657 1.22656 
138 1 2.32204 -5.9728 2.41499 
137 2 -1.75041 0.19159 1.81513 
6051 1 2.18669 0.415232 -6.80657 
136 1 -2.10883 1.1082 -6.67352 
6050 2 0.0968967 -5.03154 3.03725 
7279 1 2.53218 7.82125 -1.49971 
5869 1 2.0812 1.27176 1.361 
21594 1 -1.24942 -0.736541 -1.5514 
5870 2 2.55991 -4.2412 0.819154 
21037 1 -5.35276 -3.10295 5.94953 
16753 1 -7.44215 1.70351 -3.71179 
6678 1 3.29959 -4.79057 0.421629 
7268 2 -2.9415 -2.76141 -3.03172 
7269 1 -5.12947 1.51179 1.21806 
7267 1 -5.22606 1.16341 -3.57144 
15925 1 -5.69267 6.35466 1.22843 
6677 2 -1.0393 1.28378 3.6002 
21103 1 -6.72577 0.955412 -0.673985 
108 1 -9.47031 -2.3635 1.08207 
107 2 -0.386686 -4.08766 0.59464 
106 1 1.11274 3.73972 3.40739 
17523 1 -2.14704 3.79151 -2.54649 
17522 2 -5.522 0.899294 3.81282 
6049 1 4.50957 -3.28521 8.02706 
7852 1 2.96498 -2.07317 -6.0528 
7853 3 -0.217575 -1.34879 2.63529 
7854 1 2.14401 -4.14487 5.44411 
2140 1 -6.15031 -3.47245 -2.94398 
21039 1 1.10138 4.76463 3.46839 
21038 2 1.69522 -0.0593494 -2.84097 
11214 1 2.27923 3.95736 -5.65606 
21593 2 -3.59313 4.16819 -0.796223 
15927 1 -7.03837 -1.07928 3.68981 
15926 3 0.676242 -0.010853 -1.31109 
12880 1 -0.473961 4.89485 -0.300193 
12881 2 0.811024 -0.861521 -1.79043 
12882 1 -2.74364 -2.20662 0.990416 
17521 1 1.48122 1.14579 -2.39789 
15041 2 4.32288 -2.73985 2.3116 
15040 1 -5.69272 0.369796 -3.26461 
15042 1 0.114598 1.55697 1.83175 
2141 2 -1.40757 -2.44667 -2.72713 
2142 1 -2.91884 2.17303 4.76656 
450 1 2.8544 -2.78011 0.887506 
449 2 -1.38486 -2.14084 -3.69382 
448 1 -0.975184 -0.151536 2.46017 
7985 2 -1.72492 -1.33731 3.61956 
3547 1 -0.638532 0.575705 1.61779 
18561 1 0.609545 -2.44955 -3.68017 
18560 2 1.11807 0.474232 -1.79825 
3549 1 -2.52999 -4.24879 4.31597 
3548 2 1.15923 0.703277 -4.52393 
7986 1 1.02165 -0.131477 -1.51792 
13150 1 -3.08674 -2.69961 6.31271 
13151 3 0.186651 1.05389 0.698793 
6110 3 0.08534 -3.31745 -0.826018 
17294 3 -0.241458 -2.67735 -2.17563 
17295 1 -0.0584781 2.10171 -2.76587 
17293 1 -4.88674 -1.0448 -1.14815 
6111 1 -5.06273 2.53157 2.20767 
3754 1 4.50702 1.63077 -4.88469 
10547 2 -6.82124 -1.83659 1.12196 
10546 1 -4.16838 -0.464539 -2.48184 
18215 3 -5.17684 0.323332 1.58375 
18216 1 2.07552 3.08896 3.81363 
12672 1 1.0595 -0.942818 -0.792224 
18559 1 -6.11739 -3.2968 -5.19251 
12671 2 4.0568 -0.667581 4.30832 
12670 1 1.04855 -2.92024 3.6074 
10548 1 2.85995 -0.723357 6.08743 
12188 2 -1.47476 0.00460578 0.901899 
12189 1 -6.51778 -4.63206 -1.68177 
6562 1 1.87848 -1.09147 -0.600559 
6563 3 -0.101131 1.62867 -0.716477 
6564 1 -4.41299 2.10994 0.768657 
20599 1 -7.97639 -1.89434 5.7552 
20600 3 -2.43539 1.57017 4.00212 
2727 1 -0.0237522 1.67835 1.42738 
2726 3 -2.65592 1.3389 -0.265078 
2725 1 4.37856 -0.995458 -3.81023 
3300 1 5.52325 3.38431 -2.23015 
20437 1 -4.97296 -1.34079 1.58827 
20439 1 1.28908 4.01986 -5.52127 
12187 1 4.78206 5.4514 -4.0004 
20438 2 -0.603868 3.36429 1.64844 
13912 1 -6.47377 0.0324008 -3.77422 
1285 1 1.07254 0.15187 2.05067 
1287 1 -5.10516 0.289905 -4.16476 
1286 2 6.30977 3.08579 3.58997 
19255 1 -2.11299 4.80215 -0.252972 
19256 2 2.96921 -0.934431 0.553744 
9569 2 -1.09813 0.123201 -0.759214 
12678 1 -3.29613 -2.77014 6.62544 
12677 2 -1.56176 2.93197 0.248807 
20601 1 3.69068 -9.84821 -3.39997 
5457 1 -9.20312 -4.1217 -0.220021 
3691 1 -1.7079 -4.75966 5.32277 
5456 3 3.60191 1.18688 3.55581 
17664 1 -3.38412 3.65359 0.00131671 
5455 1 2.19574 -1.8275 -5.14181 
3693 1 -3.60255 -1.15087 1.34258 
17994 1 -4.34338 3.44155 -4.31875 
3692 3 1.26977 3.58192 3.38039 
18439 1 4.92917 -0.606091 -0.8499 
18440 2 1.59018 0.76642 1.91245 
3299 3 -0.808898 -0.946873 0.383 
19344 1 -0.953987 -1.9958 1.66351 
3298 1 2.55269 -0.652172 1.59512 
19343 3 2.04725 -1.20504 6.17297 
19342 1 -0.603438 -1.3746 0.989224 
6487 1 -0.655464 0.0426354 0.245746 
6488 3 1.04356 1.02706 -6.24936 
6489 1 -1.95525 -3.99707 -4.84321 
1440 1 -2.86407 -0.133701 -2.13705 
1439 2 -0.642612 -2.82921 -0.5621 
16126 1 2.66902 -2.66328 2.98655 
21073 1 -8.0779 -4.12711 2.28624 
16314 1 2.62366 0.42746 2.00112 
21074 2 -2.89135 0.0927349 -0.122125 
21075 1 2.14578 -1.14498 -1.78635 
14646 1 3.1984 4.21473 -1.53628 
14645 2 2.42028 3.00056 1.12486 
5020 1 -6.08074 -1.27708 1.3091 
5021 2 1.90645 -3.31133 2.86718 
1438 1 -3.45848 0.760302 -1.01519 
5022 1 0.402339 2.77017 1.64655 
13913 2 -3.49687 -1.15795 -3.14574 
16313 2 1.50519 -1.76025 5.45825 
13914 1 -1.00173 3.76855 0.128673 
16312 1 5.13031 1.08326 -2.89559 
19713 1 2.15005 1.48436 -2.19911 
12833 2 -0.27883 0.950545 3.15774 
12834 1 3.78297 -3.48306 -0.949428 
19257 1 3.84467 4.66391 -2.66703 
12832 1 -6.66929 -2.35171 2.47324 
9570 1 -2.56029 -2.34422 4.22766 
676 1 -2.49381 -11.3281 -0.686492 
3802 1 2.70924 1.51818 0.772291 
3803 2 2.85925 0.989249 2.24454 
16127 2 -3.83583 0.957476 2.71163 
12676 1 2.42688 -2.95147 -0.835868 
19743 1 1.5344 1.35313 -1.13189 
19742 2 0.547661 -0.175019 3.95896 
17662 1 1.64404 2.04928 2.31069 
8302 1 -3.25566 2.81703 0.247376 
2829 1 -2.052 -1.13511 2.98114 
19741 1 -0.0804136 -0.822437 4.45138 
8303 2 -4.3294 1.07581 1.46621 
2828 2 -2.11153 -1.35151 0.964483 
2827 1 1.2123 6.3039 1.04031 
3838 1 -4.75312 0.870085 3.05169 
18859 1 -2.19362 7.1879 1.79607 
17663 2 -0.251466 -1.72684 -3.66368 
17993 2 2.49763 -1.84024 1.38244 
17439 1 3.92974 1.20285 3.26779 
8304 1 -2.79477 4.67423 -2.38466 
18441 1 3.72694 -3.20101 -0.979137 
17438 2 2.1194 2.36033 0.993975 
17437 1 -6.19934 3.16373 -1.69255 
11650 1 -3.82873 0.272177 1.33747 
1901 2 -1.36947 -0.993561 -0.215817 
17992 1 -1.74952 -3.56489 -0.488118 
1902 1 3.14637 -1.76703 -5.79118 
1900 1 -0.844811 0.376923 0.745512 
10191 1 -0.0688417 4.40503 -0.682982 
15486 1 0.874168 6.74551 -8.40373 
15485 2 -2.54627 0.612279 0.677851 
15484 1 -0.92473 3.84438 4.82202 
3340 1 -0.329013 0.111219 -2.5741 
15142 1 1.91251 1.79192 -0.14146 
5395 1 -3.01633 1.31813 -3.17269 
5396 2 0.274448 -2.77419 0.461971 
13969 1 -3.29979 7.13748 2.44848 
13971 1 2.65637 -3.89937 0.19547 
2983 1 -0.554184 -2.58075 -1.40064 
13970 2 -3.10464 -1.8494 -5.95595 
5746 1 -0.302636 3.46519 -2.82695 
13712 2 1.24741 0.450231 0.386112 
14644 1 7.32211 0.711241 0.840224 
19241 2 -0.0468031 -0.0167215 1.02147 
19242 1 -4.26587 -2.56047 0.483193 
19240 1 0.142214 4.86427 2.59193 
7816 1 -4.79529 -2.21213 2.45093 
6779 2 -1.66966 -0.650086 -1.81612 
6778 1 1.73851 -5.29467 -8.02356 
6780 1 -1.58066 1.9215 -3.12765 
19711 1 -0.672204 0.366549 -9.01201 
2186 2 -1.28743 -0.690321 0.156281 
13713 1 -2.53129 0.0399144 -2.98612 
2187 1 -1.59308 0.652352 1.87454 
2185 1 2.86478 -0.395901 -3.75398 
19712 2 -1.52948 -1.69073 -0.838605 
3804 1 2.69419 0.542633 0.276884 
1959 1 1.01031 -3.34864 -1.45426 
1958 2 -0.0271674 -4.32063 -2.43409 
1957 1 -1.88706 -6.5643 -0.883303 
19122 1 2.40182 0.8189 -1.54088 
21584 2 2.33942 -2.87864 -1.52444 
21585 1 -9.76055 4.52483 1.29759 
13119 1 1.97096 2.70003 -0.332308 
15676 1 2.74714 4.33281 1.72586 
19363 1 5.26932 1.62356 -1.70726 
15677 2 4.50149 -2.13066 1.88483 
21583 1 1.23139 -0.836524 3.45532 
16128 1 3.93046 2.90405 -1.42849 
18261 1 3.15178 -4.19166 1.30301 
18861 1 7.67983 -2.89735 -3.01004 
18260 2 2.62655 0.888191 -1.17305 
3839 2 -2.88252 -5.36703 0.420806 
3840 1 -3.68922 -1.22355 6.25631 
14013 1 1.00812 -5.98293 -3.68316 
14012 2 -1.19778 1.92928 3.21365 
18860 2 0.155718 1.92376 -2.56734 
10183 1 -2.51762 -0.74027 2.01245 
10184 2 0.49949 -1.67056 -3.59637 
14011 1 2.27901 4.95965 -3.03543 
18259 1 -2.1999 -2.20106 2.27198 
16140 1 -2.54845 4.68941 -4.11589 
17042 2 -2.45696 -1.3099 3.01729 
11651 2 1.19517 -1.16627 -1.94337 
10185 1 -3.43029 -0.350937 -3.39789 
17041 1 2.27834 -3.71897 -6.15801 
11652 1 -2.88708 2.53949 -1.87477 
13744 1 -1.1323 -4.58355 1.27098 
13745 2 -2.2244 -0.546283 -0.259627 
10189 1 -1.63025 2.2698 0.14116 
10190 2 2.08097 1.72451 -2.78549 
1741 1 -5.9845 4.32097 0.938395 
1742 2 -0.302184 2.02394 0.907006 
13746 1 -5.75612 -1.98709 1.62949 
1743 1 4.29447 3.50335 2.79447 
17317 1 1.36127 3.60586 4.13166 
15678 1 -1.40327 6.73112 -0.0568595 
13761 1 -0.327472 0.658813 3.96242 
15143 2 2.57225 1.13872 0.723309 
3341 2 -1.72416 -0.98218 -1.23956 
3342 1 3.96467 1.59064 -10.0967 
15144 1 5.38255 -2.91975 -2.46031 
16560 1 5.13716 -3.51222 3.91129 
16559 2 1.13885 -6.26046 -0.110263 
16558 1 -2.16501 -1.0321 1.38334 
11507 2 -0.586177 -8.11984 -4.09214 
11508 1 1.94335 1.02631 2.07554 
2124 1 -0.197909 8.888 0.47348 
5397 1 -6.2005 -6.5054 3.68767 
8573 2 2.05498 2.25197 -3.29601 
2984 2 -1.57411 -1.08611 1.61968 
2122 1 -0.925595 6.57444 5.08452 
15018 1 -0.355882 0.399994 -0.663978 
2123 2 -0.486989 -1.33549 -4.5929 
2985 1 -4.49256 3.82824 -5.04012 
20065 1 1.34162 2.72663 -1.38408 
20066 2 -2.32593 0.0536283 4.39772 
20067 1 1.54786 1.71159 1.74715 
6271 1 5.79044 0.0241147 -0.932726 
11042 2 2.11121 -0.375885 2.9728 
15016 1 6.69065 -1.6909 -0.378161 
11043 1 1.8032 1.11371 -3.07264 
15017 3 2.61718 -0.332053 -1.73948 
21555 1 5.46397 3.3777 -2.60517 
16804 1 -0.970103 -2.01371 -0.0953589 
1164 1 2.78867 -4.91214 -2.59496 
16959 1 6.58793 0.156519 8.06907 
1162 1 -0.0788447 0.18348 -2.15832 
1163 2 -0.979407 -1.27189 1.33094 
5747 2 -1.60763 5.23509 0.0148763 
16957 1 -5.47987 3.88085 1.39229 
5748 1 -5.64588 4.13699 -0.207244 
16958 2 -1.20197 0.211649 4.66902 
2450 2 -0.51599 4.41909 -2.28764 
2449 1 -1.20971 0.937174 1.70652 
7818 1 3.29525 0.528161 -3.99932 
2451 1 -4.70783 -0.106751 -2.19549 
11722 1 1.59246 -4.2447 0.58008 
14321 2 1.4912 0.205146 1.97445 
7817 2 -0.493207 -0.617098 -0.339686 
8764 1 -0.595248 -4.32485 -0.783345 
14836 1 1.92533 -0.416594 4.34369 
21148 1 0.225534 2.04899 1.69674 
14837 2 -0.220507 -2.35326 -0.983668 
8765 2 -3.30345 0.164573 -2.49793 
8766 1 4.34219 4.50892 -0.253739 
16992 1 5.49685 5.62056 -2.06144 
13711 1 -0.797304 -2.70772 -4.79355 
14838 1 -3.47495 1.29013 10.9119 
16991 2 -3.65033 3.08665 2.92214 
14320 1 -3.66932 3.34836 -1.37705 
11212 1 0.50639 -3.15753 -0.85558 
3935 2 1.34261 2.77713 -2.40483 
3934 1 -3.79791 -2.98023 2.00775 
21592 1 -0.233784 -1.62761 1.29289 
19121 2 0.222768 -1.03904 -1.32524 
19120 1 -5.18035 1.21388 -0.956691 
17073 1 0.304566 -2.41554 3.95013 
17072 2 0.846616 0.724006 4.285 
20308 1 1.86416 -1.17684 0.235079 
17071 1 9.7895 0.504636 0.459272 
11213 2 -0.5513 2.69785 1.4799 
14322 1 3.87168 2.08314 5.59968 
13118 2 -3.1588 2.10205 -1.49882 
13117 1 0.229296 -3.49838 2.5254 
5848 1 -2.67332 2.44432 2.70374 
5849 2 -2.3119 -4.62578 -2.2586 
11251 1 -5.70458 0.148804 1.27804 
5850 1 -0.132104 -2.20914 -3.50205 
19364 2 -1.56215 3.06323 -0.778352 
19365 1 -2.47922 -2.5874 -0.685099 
14043 1 1.59626 -3.29714 0.444067 
11017 1 2.41448 4.1598 0.0106158 
11018 2 -1.93466 2.64793 -0.174679 
14042 2 5.90896 0.874557 1.60464 
11252 2 -4.9445 1.41473 3.05949 
2127 1 2.43347 -1.24623 3.06759 
11019 1 4.20883 2.27005 1.06577 
16139 2 1.9704 0.802205 -6.52994 
5674 1 -3.84087 1.74924 -0.746042 
16138 1 2.49654 -0.9798 4.40081 
2126 2 -4.16275 0.0177115 -0.330506 
2125 1 0.685113 -3.65506 4.88742 
19218 1 1.07213 2.78708 -1.0431 
19217 2 -2.11165 -0.146077 -0.385167 
191 2 0.0257876 3.07591 0.617135 
5675 2 -2.16499 1.63292 -1.11612 
5676 1 1.81777 -0.292588 1.15587 
5772 1 4.45537 3.42329 2.72564 
190 1 -4.69143 -6.23122 6.31591 
17319 1 4.8267 5.03825 4.56059 
4916 2 1.25191 -0.705195 -1.08507 
17318 2 2.93657 1.06943 -0.615829 
502 1 3.07402 -0.391667 5.05052 
5771 2 -0.421334 -0.441127 -2.31982 
503 2 -2.84766 -5.36007 -0.842159 
5770 1 -0.518277 1.54371 2.823 
5893 1 -2.81491 -0.406036 -4.14329 
5894 2 -0.880604 -2.30333 -1.34959 
4915 1 5.30531 -0.00232242 -5.47425 
504 1 3.87668 -4.78175 -1.44426 
7941 1 3.97339 0.598883 5.23592 
14901 1 4.56829 -1.65532 -0.879626 
14900 2 3.07759 -0.73586 3.55505 
14899 1 -6.0787 5.4337 -0.628673 
14041 1 2.83519 0.397657 -2.06527 
12148 1 -2.76379 -1.54796 4.0939 
13759 1 6.13113 0.709676 0.620007 
13760 3 1.58289 -1.14352 1.0721 
12149 2 1.80725 1.89992 -0.732148 
14623 1 -4.83314 -0.394165 -4.27414 
8577 1 2.70338 2.04718 -1.65696 
11506 1 -1.96349 6.44896 0.676158 
8576 2 4.74516 2.61531 -5.02353 
8575 1 8.39982 -1.29337 -2.59077 
13575 1 -0.0650958 3.34114 1.29029 
13574 2 -1.31477 3.74308 -0.14338 
12 1 -2.13719 0.318007 3.9582 
11 2 -2.7235 0.806548 -1.95877 
10 1 -2.28059 0.197971 -2.47072 
6175 1 6.64471 3.76605 4.01086 
16878 1 -6.5779 1.23247 7.14517 
8572 1 2.93372 -3.37507 0.155962 
6176 2 -3.6492 2.06033 0.0556442 
11041 1 1.71071 -0.89013 -0.114643 
14512 1 5.17921 -4.50308 -1.89111 
6177 1 0.939391 -4.24236 2.01219 
6273 1 0.680363 -1.26413 5.6234 
5774 2 -1.33367 1.3302 1.52841 
6272 2 -5.7457 -0.119762 2.10742 
14513 2 3.09671 0.988786 -5.74402 
14514 1 -3.89551 0.362906 4.63078 
5775 1 3.31953 -2.67514 1.29551 
16474 1 -4.4918 7.71007 3.39139 
19879 1 -2.77548 -0.257172 0.506493 
5773 1 -0.321986 -0.62849 -0.802539 
13705 1 2.89376 0.833165 -1.93736 
21554 3 -1.33031 1.18226 -3.23629 
21553 1 -2.08652 0.470779 -0.502785 
14766 1 -1.68423 -4.84733 -1.97422 
6651 1 6.08977 -4.35058 4.21654 
6649 1 -4.19841 -2.74812 1.75495 
6650 2 2.81524 -2.11044 1.87078 
16805 2 -1.49785 6.52466 -1.21502 
16806 1 -6.06007 2.38939 -0.655573 
20380 1 -3.18471 7.58859 -3.69953 
14764 1 5.24863 -2.23103 -3.5852 
14765 2 3.64445 0.543201 0.851198 
20381 2 -1.14595 0.574361 0.521002 
9768 1 -0.845897 0.331824 -5.45406 
10653 1 -0.651188 -1.05609 -7.01268 
10652 3 -0.960923 4.96737 -2.1387 
10651 1 -1.88763 -0.95776 3.4009 
9767 3 2.32769 -3.29259 -2.92678 
11072 2 3.95928 2.32551 -0.648608 
11073 1 -2.14623 -1.58928 4.10823 
21150 1 1.48442 6.14753 -2.38953 
11071 1 -1.09112 6.79851 -2.38507 
11723 2 5.92548 0.760796 -0.295005 
11724 1 3.46219 1.46018 3.14798 
19032 1 -0.869236 4.96672 -3.17442 
19031 2 0.468629 3.38106 2.75273 
11659 1 1.59958 -3.3538 1.11295 
21149 2 -3.63948 4.09652 -0.120719 
3999 1 -0.939734 2.76822 0.881757 
16990 1 -1.22001 0.211483 1.89577 
3997 1 -3.78229 4.81904 4.56936 
4839 1 -5.70346 -0.47932 -3.59433 
4838 2 0.685547 0.386615 -0.263577 
4837 1 1.81624 -2.91081 -6.3991 
20011 1 2.73659 -1.78693 0.455542 
18046 1 -1.20088 5.50368 0.499523 
3998 2 2.79653 -2.4115 0.188843 
5858 2 -3.3832 -2.89446 -1.59446 
5857 1 -1.29618 1.57618 -1.71148 
20012 2 -1.96376 -0.209918 2.4986 
324 1 -3.30142 0.130254 -0.704815 
323 2 1.74149 -2.93079 -4.48848 
18047 2 4.09228 -3.91575 1.6274 
20013 1 4.59613 -1.71353 -1.80785 
10643 2 -6.89816 4.45763 -3.046 
11113 1 3.78673 -1.60222 0.868139 
322 1 0.100862 -2.18075 5.13232 
20310 1 0.513281 -7.5626 2.90476 
15053 2 2.86245 -0.600637 0.0203622 
15054 1 4.25783 6.36421 -3.35905 
5330 2 0.374118 -4.13306 0.591184 
5329 1 0.684235 0.822543 -0.990625 
9943 1 -0.677076 -0.939481 1.20387 
9944 2 -0.47587 1.42193 -0.0884479 
20309 2 2.09145 -2.53083 -0.0914785 
10644 1 4.04214 -0.340011 3.62567 
5331 1 2.03396 1.64093 2.18058 
9766 1 -1.6935 -0.329394 0.979867 
5881 1 -0.996827 5.13759 1.83988 
2661 1 6.85039 3.41854 -0.0153295 
5882 2 -2.72658 -1.84828 -1.72112 
5883 1 -2.62475 -0.848831 -0.0166671 
892 1 -2.09313 -0.306393 2.02383 
893 3 -1.30909 1.73411 3.25043 
19028 2 0.847795 2.22427 -0.733529 
10543 1 -2.72115 2.37267 1.11675 
19029 1 0.466816 2.47458 7.9742 
10545 1 2.41224 -0.196408 5.78535 
10544 2 1.26373 -1.9484 -1.50242 
706 1 -6.04732 1.24472 -1.15191 
15790 1 3.33004 -1.37386 -0.551416 
15791 2 -2.1654 0.234751 -0.477595 
707 2 1.06631 1.30324 0.199144 
192 1 5.33284 2.41258 2.78554 
15792 1 -8.86546 -2.67938 7.68205 
19216 1 1.13686 -2.74647 3.4434 
6364 1 2.00738 -4.01488 -0.993027 
6365 2 0.564306 -3.0444 -1.58574 
6366 1 -3.7571 -0.428435 -3.23474 
2446 1 10.4299 -0.863375 0.2328 
4132 1 7.07351 -1.77825 6.29835 
2447 2 -5.0467 1.70253 -0.773146 
4133 2 -1.44615 2.98426 -7.40726 
4134 1 -2.27851 -0.74911 0.160075 
19701 1 -6.00032 1.75988 -1.3699 
13468 1 -1.47031 3.23342 -2.42765 
4072 1 -5.4067 3.17494 5.06039 
5895 1 0.691098 0.873581 1.60887 
12532 1 0.726233 -1.03404 -4.7109 
4074 1 -4.05483 -0.0202332 1.2189 
8097 1 -0.193591 -0.135632 -0.496147 
7939 1 -1.20828 4.16846 2.69316 
4073 2 -1.83578 1.1152 -0.583872 
12533 2 0.932407 -1.03736 0.496975 
12534 1 -1.19685 -2.73724 3.51509 
12003 1 -5.25933 0.692112 5.52073 
8096 2 -1.37437 1.54507 0.424297 
8095 1 -1.49497 -3.3221 -1.6606 
12002 2 1.50166 1.67166 0.695601 
7940 2 -2.56449 -0.157921 -0.145028 
7963 1 -4.49272 2.67213 -2.48577 
7964 3 -0.335841 -3.09831 -0.586321 
14624 2 -2.35731 0.622764 0.390381 
14625 1 5.88429 -3.35641 -1.67538 
14204 2 -1.69086 3.41506 -1.91278 
10935 1 -2.37147 2.11334 -1.05486 
14203 1 2.59136 2.11872 8.37317 
10934 2 6.01334 0.991999 0.252472 
11253 1 1.6069 0.618813 -2.35269 
18294 1 1.23925 3.19388 -1.14688 
14205 1 -1.76226 8.01335 -0.7732 
12150 1 8.75279 -5.12515 -1.75373 
18293 2 -0.178836 -0.206382 2.35187 
7309 1 -5.13202 -0.0736195 2.62276 
2487 1 0.0200023 3.86147 1.89884 
18292 1 -0.104646 -10.216 4.73573 
14592 1 -0.414319 0.271672 0.0754291 
7311 1 -1.52622 1.56806 -2.9667 
7310 2 2.03317 3.00358 -0.903361 
13469 2 -0.924095 -1.19714 -0.00418733 
5054 2 -3.58173 -2.63709 -5.21061 
5053 1 1.41663 5.231 -1.12662 
13573 1 -2.85459 -0.609657 1.16045 
3681 1 3.81223 1.64597 -0.587758 
3679 1 4.09546 -1.25617 -3.80003 
16877 2 1.22807 -1.6992 -1.88692 
3680 2 2.1429 0.455483 0.374827 
16876 1 -7.58039 1.05579 7.51075 
11926 1 0.786157 -1.17713 -4.52647 
11927 2 0.188922 0.880603 1.37399 
14498 2 1.32547 1.90963 -2.59406 
11928 1 1.31627 0.168776 -0.00824467 
14709 1 3.40454 -6.88851 1.21562 
21268 1 -2.01411 2.18742 3.28656 
16475 2 3.23969 0.594889 -0.241094 
16476 1 -0.343949 -2.691 3.62945 
16627 1 -0.644976 1.24658 1.08724 
16628 2 -0.277818 -2.84849 0.082004 
21269 2 -0.5484 2.22659 -1.00391 
16629 1 1.60597 -2.05663 -1.10432 
19880 2 -1.48314 -1.60255 0.732264 
21270 1 7.33322 4.95626 2.2757 
13113 1 2.3168 5.19257 -3.14176 
19881 1 -1.38252 1.87652 5.79404 
14499 1 6.66015 -4.25543 -3.35885 
11476 1 -3.31936 4.92035 -5.6488 
13706 2 6.57223 -2.45158 1.24913 
14497 1 2.25053 -4.1238 4.35074 
3841 1 -5.39651 6.48401 -4.22043 
13707 1 6.74859 -2.39512 -0.527446 
21387 1 -0.387113 -6.93221 2.40218 
21386 2 2.58036 -2.53257 -2.1076 
21385 1 0.203882 -8.11226 3.4807 
8490 1 6.41094 -2.6783 -0.739981 
1056 1 -2.23109 10.4322 -1.1854 
8489 2 -2.70971 -3.45569 0.448859 
1055 2 -2.20171 1.97762 -1.76648 
6701 3 0.716494 0.729558 4.57102 
3984 1 -0.763358 7.0681 -3.89077 
11596 1 -3.51141 0.26145 -5.23067 
11597 3 2.78909 0.123634 4.4492 
11598 1 1.79802 1.91697 5.06651 
3983 3 -0.717373 -0.348369 -3.00726 
18098 3 -1.10693 -1.96997 6.8384 
18097 1 -0.782451 9.5421 -0.990954 
18099 1 -8.05433 4.54459 -2.9152 
19030 1 0.614926 -2.06569 0.109258 
11660 2 -2.40719 2.9298 0.482817 
11661 1 -2.85845 0.360393 4.30542 
751 1 -0.0761395 2.29711 3.09411 
752 2 0.145908 1.15027 -0.13526 
15503 2 -2.45657 2.7374 -1.44866 
15502 1 -5.50493 6.57677 -0.862659 
1140 1 1.51273 -3.0658 4.38505 
1139 2 0.170039 0.667609 -2.42708 
5859 1 -0.255174 4.6956 2.89865 
9120 1 -4.94966 -2.15882 -0.250578 
1138 1 -2.35592 -1.84262 6.75211 
9119 2 -2.44402 2.32823 -0.224361 
9118 1 -1.76705 -5.50438 0.857072 
3550 1 -1.35368 -6.69856 -2.82258 
3551 2 -1.22394 -0.465325 2.37471 
117 1 -2.41685 -0.947465 -7.41493 
15052 1 1.51227 -1.56468 1.71583 
116 2 -0.134364 1.0536 3.07706 
9945 1 3.58549 2.21176 -6.34153 
115 1 -0.448937 -0.96948 5.81948 
11114 2 -0.382894 4.17186 3.33416 
4480 1 4.41587 5.388 -5.39182 
11115 1 -4.00239 -0.869246 7.91214 
2340 1 -1.52947 -2.68664 5.11239 
2338 1 -7.31288 -4.97731 -7.4768 
2339 2 0.258059 0.927689 -1.68425 
5143 1 0.0348232 -0.169949 -1.9729 
4481 2 1.78977 0.526889 2.53269 
4482 1 1.58039 -1.63067 1.81819 
6700 1 2.60568 1.07519 -7.24332 
21485 3 0.474659 1.97918 -1.75713 
21486 1 -1.07061 7.66907 -3.09789 
15894 1 2.46965 -0.070277 -5.94476 
15893 3 -3.44171 3.46198 -1.73237 
7900 1 -1.7515 2.47182 -3.43203 
7901 3 1.69132 -0.864222 -1.81419 
10116 1 -3.32742 2.4872 -6.43614 
10115 3 -1.18251 1.28876 1.1599 
7902 1 2.94684 -1.79353 5.07163 
12101 3 6.41149 -0.392898 -1.60107 
20233 1 2.68329 -1.01471 1.89716 
12100 1 7.88079 -1.12167 -2.55188 
2659 1 -2.28478 4.00615 1.83479 
894 1 -1.44321 0.209097 0.0482856 
10105 1 -1.36839 7.58632 -9.03309 
19027 1 -1.33668 0.624851 4.05836 
2660 3 -0.367909 0.143106 -1.66705 
10106 3 0.82405 0.296002 2.49164 
2641 1 3.07602 -0.0953883 2.66424 
2642 3 -0.415915 -0.223832 -0.793446 
2643 1 -2.53006 0.441139 -0.626269 
14470 1 -0.92519 10.4879 -3.7528 
14471 3 -1.50157 0.101002 -0.267983 
9428 3 -1.76007 1.33171 -4.92162 
21139 1 -3.471 3.68629 -8.10548 
6541 1 -3.79645 2.104 -0.524596 
6542 2 2.42357 -0.245616 1.03266 
6543 1 2.45575 8.15703 -0.940104 
21140 2 0.598121 -2.53835 4.90701 
21141 1 -2.79132 -4.52369 -3.19036 
708 1 -3.12856 9.19065 -2.01068 
21321 1 -2.30237 -2.44809 3.70475 
21320 2 -0.516808 -0.329153 2.76368 
21319 1 2.04809 0.513057 5.39887 
2404 1 -1.0017 -0.939493 4.55453 
9429 1 -3.44158 -0.853271 1.86615 
14143 1 1.49369 6.11195 -1.5124 
14144 3 1.18494 3.11585 2.86685 
2405 3 -1.8981 1.01787 -1.34324 
19700 2 0.597366 1.15932 -3.39377 
67 1 -5.67563 0.970305 2.20317 
18048 1 5.78259 -5.74567 -2.11303 
2448 1 -2.60623 -2.20964 -0.103802 
4816 1 1.12648 4.82732 0.558268 
4817 2 2.2723 -1.55996 1.38988 
4818 1 3.7438 0.114224 2.33502 
12528 1 0.326377 -4.04817 -4.37643 
12115 1 -2.16623 -2.66189 -4.01853 
7204 1 2.45135 -1.54966 -11.3887 
12001 1 -0.640099 0.866337 -1.34594 
12116 2 -3.50854 -0.204323 -1.11854 
12117 1 -5.22863 2.46862 8.24944 
183 1 -2.64707 7.38587 -6.13758 
182 2 0.146038 2.41887 -1.50363 
181 1 4.80884 -3.38351 -0.847729 
18640 1 -6.50663 -3.89835 -5.30095 
17641 1 -0.714669 -1.88829 -3.16682 
17642 2 0.32315 -0.932659 2.10859 
1282 1 -0.247393 2.01664 1.98639 
21484 1 -3.37234 -3.71007 -4.54626 
3189 1 2.14592 -5.92735 -5.58934 
3188 3 0.911484 -2.98164 0.248669 
3187 1 -2.03928 7.2247 -5.56087 
714 1 2.36734 -1.1253 1.35514 
713 3 -1.12045 -2.77862 4.19735 
20234 3 1.07926 -1.27056 0.252433 
20376 1 -5.01077 0.322465 -5.48469 
20375 3 -0.824569 -3.99404 3.05741 
20374 1 -3.13887 3.98775 -4.79302 
777 1 2.73544 0.988716 2.67437 
776 3 -3.47735 4.29255 -1.95155 
6896 3 2.45957 0.60031 -2.40388 
15129 1 -1.2711 0.990383 2.14285 
6895 1 0.125268 -2.89268 1.79949 
10107 1 2.53044 1.07626 -5.44323 
15128 3 2.09898 -0.736416 0.27547 
5248 1 6.46942 -2.60874 -1.79674 
15127 1 1.37553 -2.17333 -4.57887 
5249 3 -1.78593 2.62645 1.09957 
10933 1 0.6718 3.51484 -4.28441 
2715 1 -1.47549 -2.17447 -2.18353 
2714 3 0.257496 0.55697 -1.85911 
2713 1 1.11688 0.281708 -5.63423 
3210 1 1.51799 0.543713 0.281687 
13827 1 0.41215 -2.75228 1.3101 
18138 1 -0.0320699 4.5195 1.06089 
3209 3 -4.99152 1.1997 0.277485 
2486 2 1.82916 1.49422 -3.96288 
13826 3 -4.39409 -0.463229 2.14476 
13825 1 0.338287 -2.54044 1.22148 
2485 1 -4.14331 -0.475041 -0.218077 
4584 1 -1.51381 2.82176 -1.13411 
4583 2 1.93634 -5.97891 -0.352789 
5055 1 8.95817 -2.14109 0.678962 
14591 2 -0.172868 1.72717 -1.09426 
14590 1 2.9252 -0.513397 -1.95552 
18877 1 -0.107155 0.284312 -4.06373 
18878 3 -1.62358 0.543679 -0.0937178 
18879 1 1.34275 2.18064 -3.8098 
6093 1 -5.24685 -2.08731 0.158079 
14035 1 0.138857 3.6761 0.505465 
16136 3 -1.40628 2.05202 -2.88361 
13470 1 -1.32466 -4.54964 0.751975 
19699 1 -2.92714 -0.83729 2.17972 
4582 1 2.43355 -3.12081 1.36953 
341 2 3.57656 0.705549 -1.5651 
342 1 0.557085 -9.22154 -4.66215 
14784 1 -0.739311 0.754691 -0.18509 
340 1 -4.4597 3.65087 -2.78731 
16902 1 1.99617 5.19222 -4.75875 
14782 1 0.281749 -0.510657 1.19146 
14783 2 3.14015 5.54474 4.47476 
16135 1 -3.16566 1.22517 -4.6282 
6389 2 -0.694212 1.87038 2.52408 
6390 1 9.16495 4.98591 7.54598 
6388 1 5.20551 -1.60782 -12.0182 
5000 2 2.60353 0.668118 2.30646 
7205 2 -3.77909 3.41857 -0.597424 
7206 1 -1.75097 0.253726 -2.51064 
6250 1 6.78347 1.72785 -0.503744 
6251 2 0.167644 5.88744 -1.96945 
5001 1 1.28046 5.77032 2.88772 
222 1 1.92349 -0.166646 -7.24188 
19656 1 -1.24509 4.18941 -2.36098 
19654 1 -1.81891 1.32207 0.38856 
221 2 -0.0414365 -1.25163 -4.35886 
19655 2 -1.64135 3.59768 -2.34754 
220 1 2.24428 -1.25257 -2.97219 
13112 2 -2.00949 -2.35481 2.03521 
6332 3 -4.36182 -1.4119 4.2537 
6331 1 0.656394 2.45962 -3.46488 
7965 1 -7.02857 0.111374 0.0980897 
9962 3 -5.49435 -2.36052 2.33442 
9961 1 1.21992 -0.330561 -1.15909 
13099 1 -2.73843 2.82401 -2.94751 
13100 3 1.75188 6.22221 2.12277 
6333 1 -3.46378 0.143029 -6.9787 
4321 1 -5.72102 -1.94028 0.626144 
4322 3 1.29386 -4.91353 -2.53967 
11477 3 2.89154 1.05673 -4.08973 
11478 1 5.7262 -5.75634 -6.23918 
21439 1 -4.30206 -3.10059 8.42509 
21440 3 3.07347 2.27748 1.73261 
16616 3 -1.94402 -3.08476 0.7892 
21441 1 6.08884 -1.67516 -3.09284 
21595 1 0.542034 -1.54695 1.6953 
2488 1 0.235399 -3.11136 2.38652 
16615 1 -8.5328 -2.72347 -4.19008 
2489 2 -2.44321 2.78632 0.345458 
2490 1 2.04135 -5.01844 -3.34216 
1168 1 -0.805158 0.784233 0.124789 
1169 2 2.17095 2.43999 0.684385 
1170 1 4.39709 -2.5356 -0.343203 
17595 1 -0.854796 -1.45391 -2.1004 
17594 3 -3.16434 4.37673 3.40757 
3842 2 2.94718 2.80853 -1.33372 
1512 1 0.0990885 2.30679 -5.26823 
8466 1 -3.24286 3.17264 2.1659 
17985 1 1.37003 -3.48817 -4.84254 
8488 1 2.64288 4.44941 3.27312 
3843 1 -1.91666 -2.20314 1.77418 
8465 2 -4.15925 -3.45865 1.28977 
8464 1 3.37665 -3.77614 2.9336 
13111 1 -2.44198 0.0342266 -2.32262 
772 1 -1.08456 0.470797 2.22057 
1054 1 3.72977 -3.62759 7.02991 
4636 1 0.439011 0.066815 1.88249 
4637 2 2.76505 0.000128129 5.09884 
773 2 2.1362 -3.9927 -4.73065 
774 1 8.2737 0.0599575 -1.89461 
9963 1 -7.19867 -0.334587 -1.28096 
17983 1 -7.40345 4.01015 -1.99628 
17984 2 -2.9643 -1.42396 1.85007 
4638 1 -0.25554 -3.46428 0.960456 
6702 1 -4.71339 -1.19518 3.76425 
10767 1 -4.73019 2.38815 1.02812 
10766 3 4.17791 -0.634694 3.76495 
10765 1 1.14542 -0.684187 -0.292978 
3982 1 3.38184 0.408027 -4.10143 
12811 1 0.688556 -1.32932 -0.863067 
849 1 0.234878 2.09789 -6.86543 
848 3 -2.08273 -3.71679 -0.323943 
670 1 4.2061 2.46602 -3.98574 
672 1 -6.71208 -1.06837 1.70853 
671 3 0.330427 -1.57414 1.04492 
847 1 -6.63129 3.91807 -0.751166 
7060 1 -3.86111 -1.00194 3.47218 
5534 3 0.533669 1.27031 3.00388 
7061 3 -1.26344 -3.16194 0.794483 
7062 1 -0.872084 3.20683 -1.84412 
5535 1 0.419545 2.0565 2.00317 
9067 1 4.18172 -1.4267 4.42718 
9069 1 1.90629 1.33136 3.66546 
15504 1 4.24658 5.49245 -3.70122 
9068 3 2.20148 2.23564 -1.78709 
753 1 -2.21287 2.58974 0.148246 
21229 1 -5.85202 6.77873 -1.65247 
21230 3 1.32981 -1.19156 2.32781 
1320 1 -3.1472 -5.04652 -0.282993 
21231 1 -0.884244 2.20375 3.24206 
827 2 2.19728 3.3554 0.918022 
826 1 -1.15852 -1.85927 -5.32641 
11950 1 -0.205242 -1.99142 4.5748 
11951 2 -4.71561 -2.65876 -0.37055 
11952 1 0.225148 -4.22911 4.23879 
3552 1 -6.09517 2.33168 0.84907 
21287 2 -1.49448 3.11775 -0.0102913 
1117 1 -2.26598 0.971316 1.78946 
5144 2 1.92006 1.50654 1.7353 
3029 2 -0.214982 -0.888409 -1.44495 
18960 1 -3.94166 -6.16212 -1.30893 
21288 1 -2.39094 8.52492 3.86679 
18959 2 -4.10479 -2.63981 0.870054 
18958 1 -5.03742 6.32238 -1.49213 
3030 1 10.4645 -0.965456 -1.04067 
11077 1 2.50341 3.16745 1.24609 
11078 2 -1.36082 -2.57361 -0.195669 
5145 1 -9.56436 -4.46887 3.3255 
11079 1 -4.39752 3.00855 0.692716 
13343 3 4.95969 0.263872 -1.85621 
15892 1 6.40382 1.37329 0.00656768 
13342 1 -5.03097 0.496741 1.75076 
21226 1 -1.46399 -1.43302 2.46763 
21227 3 -2.53211 0.462211 2.64161 
12102 1 0.316939 5.01468 1.38613 
7617 1 3.23958 -3.24064 0.195141 
21228 1 0.710108 -0.88359 6.18479 
10114 1 1.06668 6.96756 3.47149 
10898 3 2.69573 2.46288 -3.76863 
15309 1 -3.57611 -2.83966 0.96641 
7616 3 -3.6087 -1.49891 -2.90421 
7615 1 1.97833 -1.66596 -1.85158 
10897 1 -6.81122 4.11899 -0.879706 
18009 1 -0.471067 -4.49459 0.463194 
15680 3 0.169316 -2.80481 -3.13421 
14001 1 0.512832 4.12469 2.17608 
21200 3 0.0855281 1.35535 -1.73071 
21201 1 -10.3897 0.550174 -1.81286 
8602 1 -1.33647 -3.36224 -2.47753 
354 1 -5.8098 -1.49815 -3.62242 
14000 3 2.99214 -1.25641 3.93068 
4078 1 -3.87363 2.71212 -1.60941 
13999 1 3.5072 2.36034 -0.245043 