ITEM: TIMESTEP
30000000
ITEM: NUMBER OF ATOMS
2448
ITEM: BOX BOUNDS pp pp pp
0.0000000000000000e+00 5.0000000000000000e+01
0.0000000000000000e+00 5.0000000000000000e+01
0.0000000000000000e+00 5.0000000000000000e+01
ITEM: ATOMS id type xs ys zs
11590 1 0.435769 0.295365 0.125635
11591 2 0.437836 0.298263 0.132193
12277 1 0.440258 0.241752 0.151299
17827 1 0.496205 0.227449 0.161192
17828 2 0.497202 0.236402 0.160213
12278 2 0.447423 0.247023 0.15036
12279 1 0.453515 0.252533 0.151779
17809 1 0.456079 0.254716 0.152316
17810 3 0.461932 0.260207 0.152063
17811 1 0.467341 0.26631 0.152598
8428 1 0.469378 0.268828 0.153239
6313 1 0.474152 0.243009 0.164616
17829 1 0.497892 0.243761 0.161905
12317 3 0.501633 0.25549 0.164324
12316 1 0.503164 0.263548 0.166158
12318 1 0.498769 0.246959 0.162491
11592 1 0.441419 0.301105 0.139075
2275 1 0.442906 0.302242 0.141584
9030 1 0.497044 0.293791 0.135356
8429 3 0.475375 0.276199 0.154192
8430 1 0.480643 0.282274 0.157098
15183 1 0.482905 0.284621 0.157374
15182 2 0.488253 0.291211 0.159203
9029 3 0.495218 0.300965 0.138915
15181 1 0.492756 0.297652 0.162525
769 1 0.494303 0.299936 0.16463
2276 2 0.444939 0.305023 0.149145
2277 1 0.444808 0.30806 0.155625
15312 1 0.445377 0.310017 0.158432
15311 3 0.449531 0.314793 0.164632
8036 2 0.498012 0.314965 0.149956
8035 1 0.494803 0.308872 0.146632
9028 1 0.494251 0.306691 0.14443
8037 1 0.501247 0.318769 0.156318
7530 1 0.502253 0.320186 0.158825
7529 2 0.505684 0.324519 0.165288
3307 1 0.495849 0.335898 0.134697
3308 2 0.495665 0.338361 0.14218
243 1 0.496569 0.342833 0.150822
3309 1 0.496226 0.341697 0.148646
242 2 0.498097 0.347011 0.158114
241 1 0.500106 0.350803 0.164375
10426 1 0.485273 0.372536 0.160648
10427 2 0.489682 0.377666 0.165194
4045 1 0.497197 0.237174 0.186998
14701 1 0.496247 0.234364 0.186891
14703 1 0.492472 0.219104 0.187932
14702 2 0.49397 0.226128 0.187189
966 1 0.50647 0.254626 0.186081
6314 2 0.477989 0.24959 0.168758
6315 1 0.48223 0.255967 0.174102
9925 1 0.483632 0.257906 0.17636
9926 3 0.485827 0.261785 0.182602
9927 1 0.490541 0.265775 0.187925
18235 1 0.491589 0.267299 0.189705
4047 1 0.504095 0.252156 0.186108
17349 1 0.503764 0.266675 0.166914
4046 3 0.49989 0.245057 0.186576
17348 3 0.50475 0.272274 0.169902
3057 1 0.506524 0.281485 0.175455
18236 3 0.495692 0.27348 0.195621
13378 1 0.486097 0.292799 0.182025
13379 3 0.488679 0.297153 0.187539
13380 1 0.490832 0.301633 0.194192
8332 1 0.491348 0.302538 0.196737
17347 1 0.505893 0.278888 0.174155
15310 1 0.455214 0.319969 0.167915
4401 1 0.457728 0.321492 0.169851
4400 2 0.463025 0.32529 0.17484
4399 1 0.470018 0.329448 0.177798
3417 1 0.472694 0.330921 0.178937
770 2 0.497209 0.304614 0.170364
3869 2 0.502111 0.327987 0.198638
13556 2 0.498663 0.315044 0.185786
771 1 0.497127 0.308808 0.176826
13555 1 0.497468 0.310149 0.179705
3870 1 0.50164 0.32348 0.192963
13557 1 0.50119 0.321121 0.190746
21408 1 0.468328 0.344571 0.191414
21407 2 0.468249 0.348633 0.196967
19810 1 0.501125 0.352283 0.166229
3416 3 0.477566 0.336273 0.182792
19811 2 0.503384 0.358261 0.172045
3415 1 0.48306 0.34207 0.185076
14724 1 0.484789 0.344609 0.186112
14723 2 0.488133 0.350007 0.188145
14722 1 0.490323 0.35574 0.192987
20082 1 0.491632 0.357307 0.19516
5410 1 0.505405 0.365794 0.179896
10428 1 0.494241 0.381736 0.17146
19812 1 0.505293 0.363641 0.177424
19657 1 0.495894 0.383733 0.173741
19658 2 0.497362 0.389717 0.179786
19659 1 0.500663 0.394389 0.186014
13800 1 0.5016 0.396566 0.188121
13799 2 0.50259 0.403151 0.193447
5328 1 0.504986 0.429657 0.169517
20545 1 0.490794 0.261717 0.216566
20546 3 0.494114 0.266242 0.222514
20547 1 0.495542 0.271568 0.229348
15769 1 0.473273 0.286558 0.220011
7728 1 0.502441 0.290447 0.213722
15770 3 0.477159 0.291232 0.224274
18237 1 0.497821 0.278932 0.201073
7726 1 0.498639 0.281114 0.203264
7727 2 0.500863 0.2855 0.209002
15771 1 0.480674 0.295669 0.229386
2878 1 0.482115 0.297691 0.231072
15513 1 0.496363 0.273631 0.231426
5655 1 0.503541 0.292761 0.215545
5654 2 0.506033 0.298465 0.2205
8333 2 0.491555 0.305722 0.205032
8334 1 0.493116 0.309916 0.212062
19351 1 0.493357 0.311684 0.214938
19352 2 0.495022 0.316414 0.220016
19353 1 0.495044 0.321756 0.225025
21507 1 0.495007 0.323925 0.22666
21506 2 0.496686 0.329906 0.232282
21406 1 0.468327 0.354675 0.201281
18267 1 0.468537 0.357204 0.203413
18266 2 0.469079 0.36211 0.210202
8824 1 0.478574 0.338542 0.213751
8825 2 0.481234 0.344885 0.218073
8826 1 0.484175 0.349545 0.22368
18484 1 0.485039 0.351261 0.226099
20081 2 0.495031 0.363233 0.20115
18485 2 0.488056 0.355931 0.231995
21266 2 0.506173 0.343495 0.208401
21265 1 0.504498 0.336235 0.205069
3868 1 0.503984 0.334204 0.203585
18265 1 0.469244 0.366081 0.217431
16350 1 0.469188 0.367434 0.220368
16349 2 0.466972 0.369557 0.22796
20080 1 0.497959 0.366176 0.207448
9753 1 0.503915 0.375841 0.223036
7326 1 0.505022 0.378303 0.225203
9751 1 0.499088 0.367484 0.209812
9752 2 0.501854 0.370922 0.216253
8020 1 0.485432 0.389304 0.219781
8021 2 0.484404 0.386165 0.226124
7325 2 0.506411 0.384005 0.230484
7820 2 0.504434 0.421185 0.227324
16746 1 0.496019 0.402164 0.226375
9098 2 0.503159 0.411343 0.210691
9099 1 0.5028 0.408721 0.20339
7819 1 0.503664 0.417042 0.220389
13798 1 0.502847 0.407165 0.200247
9097 1 0.503407 0.415388 0.21779
15060 1 0.470962 0.276886 0.236092
15512 2 0.498563 0.28027 0.236235
7903 1 0.495321 0.283338 0.263636
15059 2 0.477253 0.276914 0.242444
18722 2 0.488836 0.280699 0.255769
18721 1 0.483699 0.279324 0.249683
15058 1 0.482438 0.279028 0.24771
4644 1 0.506139 0.302709 0.254966
5836 1 0.505201 0.300875 0.253306
5838 1 0.501089 0.288162 0.242987
15511 1 0.499848 0.285887 0.240832
5837 2 0.502775 0.295087 0.247814
18723 1 0.493452 0.282527 0.261125
9061 1 0.463783 0.332139 0.234305
2879 2 0.485834 0.303606 0.234696
2880 1 0.488753 0.308622 0.238954
7296 1 0.490289 0.310405 0.240524
7294 1 0.494245 0.320995 0.250887
7295 2 0.49374 0.315499 0.244432
11565 1 0.494619 0.323401 0.253491
11564 2 0.495727 0.32802 0.258297
11563 1 0.49583 0.331903 0.264053
9062 3 0.468295 0.336004 0.239204
9063 1 0.472726 0.340229 0.244111
7833 1 0.474581 0.341509 0.245921
8153 2 0.504169 0.342941 0.244466
21505 1 0.49986 0.335254 0.237704
7832 2 0.477025 0.347216 0.250942
8152 1 0.500883 0.337087 0.239314
7831 1 0.480804 0.351739 0.255899
900 1 0.482282 0.35361 0.258039
18486 1 0.490225 0.361111 0.238188
899 2 0.485048 0.359026 0.263474
235 1 0.491142 0.363102 0.240431
5504 3 0.45397 0.38687 0.25746
5503 1 0.452579 0.390434 0.265283
16348 1 0.463939 0.372287 0.233938
1773 1 0.461675 0.373174 0.236361
1772 2 0.457824 0.37649 0.242472
1771 1 0.455382 0.381436 0.247982
5505 1 0.454589 0.382895 0.250399
236 2 0.493637 0.367695 0.246331
237 1 0.495077 0.374 0.251687
7158 1 0.495845 0.376004 0.254216
7157 2 0.497719 0.380333 0.260391
8022 1 0.483673 0.384784 0.233662
16744 1 0.493335 0.407451 0.241022
16947 1 0.498603 0.41147 0.257917
16745 2 0.494479 0.403664 0.234028
16522 1 0.48394 0.421356 0.23768
16946 2 0.503454 0.417092 0.260913
16524 1 0.49482 0.428752 0.245925
16523 2 0.488399 0.426095 0.242108
7905 1 0.505203 0.28908 0.273738
7904 3 0.499618 0.285254 0.269933
9693 1 0.490121 0.318279 0.294598
9691 1 0.484162 0.316696 0.279445
4642 1 0.506694 0.312563 0.267956
9692 2 0.487444 0.318014 0.287293
21314 2 0.501137 0.351707 0.286763
6647 2 0.497167 0.340411 0.273145
6646 1 0.498657 0.34601 0.278609
21313 1 0.499067 0.347992 0.280656
898 1 0.487854 0.36276 0.268705
6648 1 0.496207 0.333888 0.26694
21315 1 0.503184 0.356644 0.294765
12349 1 0.503469 0.35803 0.297533
9243 1 0.493736 0.374848 0.28701
3263 2 0.490807 0.369016 0.278395
3264 1 0.493213 0.373503 0.284868
9242 2 0.494531 0.378067 0.294057
3262 1 0.488828 0.364591 0.271253
1738 1 0.500938 0.38665 0.268228
7156 1 0.500043 0.385027 0.266315
1739 2 0.503019 0.390767 0.274518
3358 1 0.472952 0.40365 0.296765
18297 1 0.486068 0.397444 0.275674
18296 2 0.488035 0.404538 0.279402
18295 1 0.489524 0.407817 0.287982
6103 1 0.48912 0.409421 0.29122
6104 2 0.489747 0.413801 0.298296
1740 1 0.505084 0.395154 0.28089
1405 1 0.489196 0.417912 0.276474
5621 2 0.506123 0.400659 0.290143
5620 1 0.505817 0.396357 0.283035
1406 2 0.488805 0.426339 0.278768
1407 1 0.488117 0.432189 0.2829
1249 1 0.502094 0.440796 0.280936
8895 1 0.501666 0.33194 0.321216
12350 2 0.50484 0.36105 0.30447
8893 1 0.491449 0.344122 0.326481
8894 2 0.495727 0.337871 0.323238
3360 1 0.470272 0.392576 0.310334
9241 1 0.494456 0.382481 0.300763
20868 1 0.495296 0.384292 0.303291
20867 2 0.498198 0.387688 0.309776
20866 1 0.501576 0.390033 0.316494
19018 1 0.502608 0.391198 0.319566
3359 2 0.472276 0.398038 0.303477
19019 2 0.504074 0.394418 0.327077
6105 1 0.489684 0.414609 0.305965
12378 1 0.489452 0.415574 0.309451
501 1 0.483729 0.421993 0.326174
12377 2 0.489109 0.417561 0.316506
12376 1 0.48524 0.420381 0.323619
500 3 0.480776 0.426224 0.332303
4989 1 0.504168 0.450742 0.327994
19020 1 0.504874 0.39467 0.335546
16726 1 0.505873 0.395037 0.338977
499 1 0.47772 0.431396 0.336852
18475 1 0.570526 0.247712 0.109627
18477 1 0.568799 0.254642 0.125096
18476 2 0.569538 0.251863 0.116935
17956 1 0.5493 0.295892 0.12264
2917 1 0.639218 0.307986 0.115749
2918 2 0.636231 0.310549 0.122488
7603 1 0.608958 0.323688 0.119854
7604 3 0.614647 0.325838 0.123703
17754 1 0.582208 0.354306 0.115415
8289 1 0.573618 0.362066 0.0993609
8288 2 0.577817 0.359506 0.106562
8287 1 0.580879 0.355587 0.112592
17753 3 0.585639 0.352678 0.122966
13631 3 0.682295 0.385197 0.123917
13632 1 0.685838 0.391596 0.121214
15188 3 0.567893 0.209718 0.15263
15187 1 0.565625 0.217239 0.155803
15189 1 0.569031 0.2018 0.150469
829 1 0.58257 0.231339 0.15136
830 3 0.581761 0.2374 0.156202
3562 1 0.568497 0.254999 0.128194
13000 1 0.595603 0.252529 0.14362
11656 1 0.610069 0.24197 0.155008
3580 1 0.635154 0.248159 0.156506
10576 1 0.515063 0.281901 0.126777
10577 3 0.51314 0.284537 0.134626
9739 1 0.51737 0.265443 0.147139
21312 1 0.533394 0.287277 0.137525
10578 1 0.51282 0.287053 0.141833
9740 3 0.520846 0.27035 0.152695
19869 1 0.549185 0.269268 0.132598
19867 1 0.55365 0.280793 0.142265
19868 3 0.551146 0.275835 0.136803
3563 3 0.567874 0.25688 0.136214
18041 2 0.567694 0.266469 0.153566
16141 1 0.554636 0.282677 0.14469
16142 2 0.556925 0.287937 0.150849
10284 1 0.545 0.268503 0.153153
3564 1 0.56869 0.259358 0.143941
18040 1 0.568725 0.261267 0.147063
13001 3 0.596013 0.25864 0.146801
13002 1 0.595857 0.263909 0.152297
6397 1 0.595988 0.265707 0.154191
17284 1 0.619192 0.268182 0.154657
17285 3 0.618728 0.26226 0.148686
17286 1 0.618217 0.258365 0.142691
21311 2 0.53512 0.291023 0.14566
7191 1 0.513583 0.288551 0.144651
14855 2 0.531189 0.313042 0.144947
14854 1 0.528484 0.308201 0.138652
14856 1 0.532466 0.317877 0.151226
17881 1 0.53202 0.3191 0.153932
7190 2 0.513756 0.293447 0.150958
21310 1 0.535997 0.295515 0.153074
20919 1 0.536278 0.297592 0.155731
17957 3 0.551923 0.299647 0.12917
17958 1 0.551817 0.303587 0.135815
14161 1 0.552359 0.305203 0.13879
14162 2 0.553466 0.308865 0.144405
14163 1 0.553977 0.315414 0.149672
14370 1 0.554076 0.317334 0.151503
10216 1 0.575813 0.311801 0.127943
15235 1 0.579016 0.292074 0.149657
10217 3 0.577533 0.316564 0.134622
15236 3 0.581701 0.297645 0.153457
10218 1 0.5781 0.320564 0.141053
18155 3 0.627619 0.315166 0.138036
18156 1 0.624427 0.317889 0.145442
14778 1 0.623499 0.318624 0.148379
6847 1 0.611118 0.301859 0.148739
16315 1 0.599942 0.315797 0.139019
6848 3 0.609392 0.303122 0.156497
2919 1 0.633747 0.312877 0.129589
18154 1 0.632795 0.313446 0.132068
15626 2 0.65505 0.320406 0.141303
15627 1 0.656749 0.313709 0.138107
21559 1 0.508488 0.335457 0.145414
17679 1 0.530504 0.33945 0.152669
21560 2 0.516125 0.334592 0.148112
21561 1 0.52383 0.335335 0.14871
17678 2 0.535408 0.343745 0.15648
5686 1 0.567294 0.343081 0.144811
7582 1 0.566461 0.343893 0.14755
7583 2 0.566282 0.346546 0.154571
5688 1 0.570821 0.340343 0.130021
5687 3 0.569509 0.341822 0.137355
7377 1 0.578416 0.322145 0.143934
2076 1 0.589263 0.352342 0.132917
2075 2 0.591301 0.351026 0.140281
7376 3 0.579437 0.326541 0.150792
12282 1 0.599097 0.325974 0.155021
2074 1 0.592105 0.351668 0.147906
12303 1 0.592559 0.351696 0.150732
7605 1 0.620461 0.330743 0.127139
14777 3 0.622205 0.321291 0.155758
16316 3 0.599759 0.320617 0.145911
16317 1 0.599518 0.324359 0.152675
20209 1 0.622196 0.332229 0.128182
20210 3 0.627842 0.336478 0.130585
9198 1 0.613036 0.343991 0.143562
9197 2 0.614143 0.345117 0.151085
15625 1 0.65533 0.328055 0.145047
20211 1 0.633242 0.341699 0.133559
3018 1 0.635292 0.343221 0.133853
3017 2 0.642186 0.348103 0.133976
20949 1 0.655646 0.331111 0.14617
20948 2 0.65594 0.338518 0.149444
20947 1 0.653308 0.346542 0.151987
3016 1 0.648432 0.351276 0.134626
5696 2 0.515614 0.36101 0.152674
5695 1 0.512215 0.354899 0.148844
20238 1 0.5397 0.367203 0.142831
20237 2 0.537583 0.370678 0.149155
20236 1 0.539069 0.374176 0.155899
5610 1 0.55819 0.352837 0.140248
5609 2 0.555468 0.359987 0.144663
5608 1 0.556852 0.365272 0.149775
5091 1 0.557691 0.36728 0.152262
17752 1 0.588635 0.352751 0.129807
13434 1 0.578827 0.358689 0.144896
13433 2 0.577828 0.364946 0.14908
13432 1 0.580031 0.369829 0.154569
11263 1 0.59376 0.368383 0.143056
11264 2 0.597557 0.371221 0.149964
11265 1 0.600478 0.374871 0.155959
7464 1 0.650973 0.35345 0.134656
7463 2 0.65748 0.358591 0.13467
4484 2 0.644888 0.376497 0.150336
4485 1 0.647609 0.371005 0.145157
7462 1 0.664002 0.363149 0.133801
20181 1 0.666077 0.364509 0.133433
20180 2 0.671323 0.370469 0.131207
13630 1 0.678143 0.378867 0.126996
20179 1 0.676299 0.376467 0.128372
1579 1 0.544392 0.177149 0.161237
1580 3 0.544353 0.184194 0.164667
1581 1 0.544214 0.191334 0.168799
4126 1 0.516079 0.224325 0.166977
2292 1 0.5647 0.219953 0.157184
20682 1 0.544057 0.193712 0.170446
20680 1 0.546043 0.205351 0.180221
12466 1 0.546727 0.208024 0.18235
20681 3 0.545537 0.199676 0.175027
12467 2 0.54724 0.214258 0.187506
3480 1 0.57678 0.224292 0.172092
4127 2 0.519946 0.232069 0.167579
4128 1 0.522953 0.239674 0.168412
5953 1 0.524084 0.242499 0.169257
5954 3 0.527105 0.24937 0.172153
5955 1 0.530317 0.256445 0.176458
2291 3 0.56216 0.227081 0.159334
2290 1 0.562733 0.234255 0.160542
10885 1 0.562953 0.23748 0.161663
10886 3 0.563573 0.24486 0.165463
10887 1 0.562025 0.252589 0.169539
7018 1 0.561359 0.255595 0.171438
21499 1 0.541032 0.241605 0.182381
831 1 0.581326 0.244713 0.160346
5862 1 0.581941 0.24721 0.161961
5861 2 0.582984 0.254694 0.165794
3479 3 0.580439 0.227967 0.176796
3478 1 0.583093 0.233378 0.183358
13941 1 0.583917 0.235179 0.185816
11657 3 0.608583 0.246341 0.161429
11658 1 0.607413 0.250959 0.166763
8329 1 0.607028 0.252494 0.168723
3582 1 0.624012 0.244439 0.167711
3581 2 0.629475 0.246301 0.161457
9741 1 0.524179 0.275766 0.157599
6972 1 0.525273 0.277939 0.160456
6971 2 0.527156 0.281666 0.167103
9537 1 0.531366 0.258642 0.178191
9536 2 0.534806 0.264509 0.182891
6970 1 0.52887 0.287246 0.173571
3056 2 0.509164 0.288113 0.179515
10283 2 0.545905 0.272568 0.159641
10282 1 0.547464 0.278268 0.165428
1872 1 0.548092 0.280416 0.167085
7019 2 0.559897 0.260998 0.17619
7020 1 0.559474 0.266748 0.181146
19927 1 0.559741 0.269287 0.182668
1871 2 0.549343 0.286135 0.172337
18042 1 0.567437 0.270578 0.159515
5278 1 0.567731 0.272645 0.161848
19928 2 0.562419 0.276132 0.187795
6398 2 0.597791 0.271358 0.160913
5279 2 0.570446 0.278873 0.167136
6399 1 0.597381 0.276627 0.165925
8736 1 0.597279 0.278919 0.167936
5860 1 0.582624 0.261038 0.170839
11289 1 0.582655 0.263492 0.172496
5280 1 0.572301 0.284931 0.171659
21394 1 0.573068 0.286569 0.173564
11288 2 0.58348 0.269894 0.177941
8735 2 0.59674 0.284552 0.172481
13018 1 0.592056 0.259579 0.183489
11287 1 0.584698 0.275274 0.184126
4020 1 0.585367 0.27669 0.186393
8515 1 0.619423 0.269836 0.157211
8330 2 0.607192 0.258186 0.17538
8516 3 0.619272 0.274092 0.164449
8331 1 0.607111 0.262259 0.181871
2568 1 0.607175 0.264496 0.184309
8517 1 0.619929 0.279284 0.170794
1000 1 0.620043 0.281178 0.173376
1001 2 0.620197 0.286296 0.178424
9054 1 0.641603 0.27883 0.167848
3502 1 0.63773 0.259737 0.174404
3503 3 0.638139 0.264365 0.180038
3504 1 0.637564 0.269656 0.18735
9053 2 0.644452 0.284479 0.173914
4116 1 0.529405 0.288945 0.175717
4115 2 0.530203 0.294912 0.182061
7189 1 0.514684 0.298207 0.15679
17574 1 0.515539 0.300703 0.159071
17573 2 0.516772 0.306101 0.164514
17572 1 0.518572 0.310544 0.170808
9465 1 0.519053 0.311541 0.17314
9464 2 0.521244 0.317606 0.17999
7510 1 0.511694 0.293382 0.187608
3055 1 0.510709 0.291655 0.185298
16143 1 0.55864 0.293702 0.156997
1611 1 0.559333 0.295612 0.159249
20918 2 0.537945 0.302994 0.16152
20917 1 0.540922 0.308592 0.166533
3631 1 0.541829 0.311055 0.168571
3632 2 0.545137 0.315774 0.173724
1610 2 0.561584 0.300973 0.164128
1609 1 0.564218 0.305352 0.170308
19399 1 0.56454 0.307308 0.172372
19400 2 0.565366 0.313731 0.17716
1870 1 0.552107 0.291815 0.178352
4117 1 0.553161 0.294295 0.180776
4118 2 0.554985 0.299227 0.18683
19401 1 0.568687 0.319256 0.181697
15237 1 0.583031 0.302528 0.15918
21395 2 0.575289 0.291287 0.179284
7731 1 0.583123 0.304523 0.161279
7730 2 0.587029 0.309472 0.167708
7729 1 0.588968 0.314558 0.173933
21396 1 0.575702 0.297669 0.185265
2209 1 0.589211 0.316092 0.176284
8734 1 0.597484 0.289238 0.178787
4345 1 0.597858 0.291375 0.181139
2445 1 0.576613 0.299437 0.187735
6849 1 0.610082 0.304294 0.163714
16647 1 0.609522 0.305124 0.167001
16646 2 0.609741 0.309319 0.174903
16645 1 0.610389 0.315441 0.180839
567 1 0.610457 0.31768 0.183094
1002 1 0.619953 0.291097 0.183964
11620 1 0.619626 0.29343 0.186634
6630 1 0.635166 0.308935 0.16405
6629 2 0.635149 0.312104 0.171163
6628 1 0.634928 0.316762 0.17819
9052 1 0.644748 0.289035 0.179926
16114 1 0.644838 0.290936 0.181898
20712 1 0.634758 0.318047 0.18079
17882 2 0.530735 0.322594 0.161166
17883 1 0.530335 0.326964 0.167488
939 1 0.53067 0.329194 0.169829
938 2 0.531942 0.335385 0.175731
937 1 0.533908 0.341624 0.181051
14534 2 0.509858 0.337085 0.175811
14271 1 0.524434 0.350601 0.166343
11023 1 0.535313 0.343654 0.183078
14535 1 0.513245 0.342717 0.181136
7528 1 0.507945 0.329498 0.169882
14533 1 0.508567 0.331775 0.171561
9463 1 0.523892 0.322549 0.18549
2278 1 0.513733 0.344914 0.183886
14369 2 0.554317 0.323663 0.157459
3633 1 0.547126 0.321082 0.17989
14101 1 0.547986 0.322802 0.182118
14368 1 0.555985 0.32963 0.162825
11905 1 0.556548 0.33137 0.165075
11906 2 0.557474 0.336014 0.171599
11907 1 0.557902 0.340371 0.178549
1876 1 0.558513 0.341825 0.181104
17677 1 0.541824 0.34838 0.159958
15406 1 0.543768 0.350582 0.161684
7584 1 0.569301 0.34957 0.161439
13527 1 0.569763 0.351265 0.164383
6591 1 0.569427 0.3212 0.184102
7375 1 0.579634 0.330762 0.158292
2210 2 0.590665 0.320908 0.183438
16939 1 0.579678 0.332479 0.161372
16940 2 0.579533 0.336065 0.168904
16941 1 0.580241 0.339112 0.175741
951 1 0.580714 0.340552 0.17835
950 2 0.581594 0.345614 0.184656
12280 1 0.599036 0.334012 0.169507
12281 2 0.598906 0.329254 0.163152
12302 2 0.593923 0.352414 0.15954
14776 1 0.621523 0.324316 0.162683
3039 1 0.599374 0.336051 0.172333
3038 2 0.600863 0.340462 0.178231
19578 1 0.621493 0.325906 0.165705
19577 2 0.620481 0.329231 0.1718
19576 1 0.621094 0.334644 0.177851
6996 1 0.621935 0.336533 0.180111
6995 2 0.624555 0.342184 0.185795
3037 1 0.603215 0.3451 0.184695
9196 1 0.615243 0.347529 0.158182
21522 1 0.615896 0.348752 0.161322
6664 1 0.604216 0.346903 0.187005
20711 2 0.634525 0.322599 0.18713
6804 1 0.654875 0.325655 0.181125
11110 1 0.642708 0.337464 0.1632
11111 2 0.643357 0.342123 0.167501
11112 1 0.645163 0.347214 0.17385
19983 1 0.645878 0.348893 0.176036
5411 2 0.507201 0.372543 0.184861
15891 1 0.517573 0.369294 0.159521
14270 2 0.526562 0.35707 0.170916
14269 1 0.527557 0.363179 0.176208
17062 1 0.527897 0.364925 0.178105
15890 2 0.51886 0.375396 0.164575
15889 1 0.518657 0.381988 0.169826
14128 1 0.518718 0.384236 0.171739
5697 1 0.517022 0.366813 0.157421
17063 2 0.528674 0.369678 0.184203
1332 1 0.539639 0.375224 0.159049
5090 2 0.55952 0.37135 0.158762
1331 2 0.541549 0.37913 0.166624
15407 2 0.547862 0.356211 0.166034
5089 1 0.559939 0.376943 0.163886
15408 1 0.550833 0.360681 0.172261
814 1 0.551148 0.36227 0.175033
18064 1 0.560679 0.379535 0.165803
815 2 0.551844 0.365873 0.181719
1330 1 0.542679 0.382799 0.172619
10113 1 0.580486 0.371689 0.156921
13526 2 0.570971 0.356232 0.170933
10112 2 0.581761 0.37687 0.16296
12301 1 0.594763 0.356194 0.166339
13525 1 0.571784 0.361516 0.176704
19183 1 0.572319 0.363661 0.178398
19184 2 0.574662 0.36882 0.183126
15451 1 0.594666 0.357687 0.169621
15452 2 0.595252 0.361509 0.177068
10111 1 0.584126 0.380553 0.170391
15316 1 0.584919 0.381203 0.172067
15453 1 0.596294 0.366045 0.182763
952 1 0.59732 0.367517 0.184982
9418 1 0.601731 0.376427 0.15783
21521 2 0.616365 0.353067 0.168592
21520 1 0.615958 0.357069 0.174465
18708 1 0.61547 0.359119 0.176508
9419 2 0.605179 0.379338 0.163735
18707 2 0.616001 0.365132 0.182114
9420 1 0.607558 0.383466 0.170708
4483 1 0.644623 0.382316 0.157008
19982 2 0.647558 0.353152 0.182786
7434 1 0.636455 0.356 0.165378
9096 1 0.641046 0.375883 0.180566
7432 1 0.632688 0.371007 0.167088
7433 2 0.63566 0.364177 0.166082
8713 1 0.522702 0.415709 0.173057
14129 2 0.521384 0.38921 0.177516
14130 1 0.523542 0.394335 0.184698
12808 1 0.524332 0.395705 0.1868
18065 2 0.561691 0.38494 0.171549
18066 1 0.564475 0.391436 0.176666
9195 1 0.543117 0.385198 0.175319
9194 2 0.542496 0.390833 0.181702
13298 2 0.555115 0.412707 0.175686
21399 1 0.565571 0.39387 0.178092
13299 1 0.551623 0.407232 0.171321
14760 1 0.57203 0.416059 0.174046
15317 2 0.587637 0.384779 0.179053
14758 1 0.58176 0.412142 0.163483
14759 2 0.577466 0.413489 0.169699
15318 1 0.589671 0.389824 0.184833
10521 1 0.590652 0.391893 0.186449
21398 2 0.568922 0.398919 0.183619
9403 1 0.608627 0.38498 0.173276
11719 1 0.614511 0.397276 0.186846
9404 2 0.611771 0.389187 0.179186
9405 1 0.613606 0.395363 0.184494
12468 1 0.548371 0.220143 0.193565
18514 1 0.549481 0.222334 0.195611
13199 2 0.580483 0.210838 0.216106
13198 1 0.586609 0.207228 0.212609
19249 1 0.564047 0.248899 0.217218
21500 2 0.543886 0.246662 0.188468
21501 1 0.547468 0.251708 0.194176
20508 1 0.548898 0.253374 0.196915
18515 3 0.553164 0.227162 0.200571
18516 1 0.555703 0.232627 0.204902
6086 2 0.560816 0.240847 0.210944
6085 1 0.556728 0.235054 0.206471
6087 1 0.563123 0.246675 0.215285
13940 2 0.586143 0.239104 0.192138
17115 1 0.586546 0.249848 0.21807
17114 2 0.586986 0.24592 0.210415
13939 1 0.586938 0.241907 0.199999
17113 1 0.58694 0.242902 0.202655
3685 1 0.627325 0.233517 0.19328
3686 3 0.626013 0.240636 0.193043
3687 1 0.62539 0.247841 0.196202
2286 1 0.625313 0.249884 0.197547
2285 2 0.624251 0.256041 0.203056
965 3 0.510881 0.259414 0.187861
21153 1 0.534379 0.261365 0.20529
964 1 0.513917 0.265587 0.190965
7038 1 0.515127 0.268314 0.192376
7036 1 0.519867 0.28118 0.199854
3916 1 0.521008 0.28279 0.201517
7037 3 0.517066 0.275464 0.197004
21152 2 0.534243 0.266431 0.211553
21151 1 0.534788 0.272265 0.217347
9802 1 0.557624 0.276554 0.218031
20507 2 0.551629 0.257463 0.201688
9535 1 0.537971 0.270122 0.189
15811 1 0.539266 0.27224 0.191099
9803 2 0.557275 0.270222 0.213391
20506 1 0.554866 0.262823 0.206981
15812 2 0.54188 0.278486 0.196241
9804 1 0.55551 0.264791 0.208773
19929 1 0.56344 0.281248 0.194569
4197 1 0.563998 0.282869 0.196651
4196 2 0.565612 0.288295 0.202163
15813 1 0.543438 0.284362 0.201174
15615 1 0.543936 0.286545 0.203229
17436 1 0.572708 0.261493 0.198949
13019 2 0.593167 0.259506 0.191282
13020 1 0.593702 0.261015 0.198909
5851 1 0.594196 0.262264 0.201917
17435 2 0.574275 0.264534 0.205416
17434 1 0.575681 0.268493 0.21066
4019 2 0.587135 0.280786 0.194073
3346 1 0.576857 0.2708 0.213196
4018 1 0.587666 0.285538 0.200758
19962 1 0.587875 0.287241 0.203335
5852 2 0.596339 0.265617 0.208039
5853 1 0.597811 0.270521 0.214487
19110 1 0.598519 0.272042 0.216936
3347 2 0.57954 0.275074 0.218577
2567 2 0.609201 0.270529 0.189671
2566 1 0.6096 0.275593 0.19498
2284 1 0.623652 0.261061 0.209225
7851 1 0.623851 0.263269 0.211661
4404 1 0.609601 0.277468 0.197386
4403 2 0.610969 0.282767 0.20263
7850 2 0.623579 0.269344 0.215868
4402 1 0.611247 0.287533 0.208499
5337 1 0.63696 0.270896 0.19002
5336 2 0.635296 0.275733 0.195674
5335 1 0.633592 0.28078 0.201885
20227 1 0.633264 0.282557 0.204034
20228 2 0.63382 0.288302 0.209587
3917 2 0.524169 0.288731 0.206299
4114 1 0.531332 0.300278 0.188603
7511 2 0.512158 0.300197 0.192807
7512 1 0.512408 0.305702 0.197444
10828 1 0.515404 0.318023 0.210776
10829 2 0.513863 0.312237 0.204924
10830 1 0.512659 0.307609 0.199294
931 1 0.531888 0.302205 0.190836
932 2 0.533533 0.307337 0.195415
3918 1 0.528115 0.293941 0.210945
933 1 0.534783 0.312973 0.200432
2314 1 0.529526 0.295678 0.213208
8434 1 0.535784 0.314771 0.202936
8435 2 0.537 0.31821 0.210268
10564 1 0.516366 0.32039 0.212657
2315 2 0.530548 0.300688 0.218994
4620 1 0.548914 0.300056 0.216043
15613 1 0.547903 0.297811 0.213896
19210 1 0.55947 0.317904 0.21099
4119 1 0.557294 0.304059 0.192886
10056 1 0.557688 0.306108 0.194962
10055 2 0.557778 0.310861 0.20174
10054 1 0.558589 0.315758 0.208554
15614 2 0.546279 0.291755 0.208928
4195 1 0.567581 0.294054 0.20835
13 1 0.568066 0.295877 0.210239
4346 2 0.598029 0.297257 0.188117
14 2 0.568935 0.300389 0.216582
19960 1 0.589464 0.296361 0.214757
19961 2 0.588706 0.291916 0.209018
10895 2 0.582645 0.316207 0.208326
2443 1 0.580069 0.309665 0.199799
10896 1 0.58067 0.311674 0.201466
2444 2 0.577879 0.30366 0.194558
4347 1 0.599083 0.301936 0.194615
16678 1 0.590153 0.298405 0.216731
7263 1 0.599554 0.303736 0.197231
985 1 0.611617 0.289502 0.2104
11621 2 0.621163 0.298818 0.193672
7262 2 0.601985 0.307454 0.202445
7261 1 0.602354 0.312257 0.208103
11622 1 0.621985 0.305368 0.198811
5991 1 0.622104 0.30752 0.200708
986 2 0.61257 0.295236 0.216439
5990 2 0.62357 0.312802 0.207013
6321 1 0.602731 0.314267 0.20934
5989 1 0.626047 0.318277 0.2139
6490 1 0.62678 0.320107 0.215955
6320 2 0.604412 0.318728 0.214504
4557 1 0.634109 0.29663 0.215802
16115 2 0.643924 0.296819 0.188206
16116 1 0.643545 0.302499 0.193095
7840 1 0.643564 0.304812 0.195654
7841 2 0.644395 0.309414 0.202324
7842 1 0.646183 0.314289 0.208966
20229 1 0.634133 0.294399 0.21417
3765 1 0.6465 0.31606 0.211212
1777 1 0.656409 0.296982 0.217394
21267 1 0.508064 0.348723 0.213373
20985 1 0.508349 0.349935 0.215924
18720 1 0.53161 0.344528 0.214227
10565 2 0.518553 0.324856 0.218041
16638 1 0.524477 0.324231 0.188069
18718 1 0.527995 0.335581 0.201709
16636 1 0.527796 0.333956 0.199638
16637 2 0.526622 0.329133 0.194
18719 2 0.528795 0.340252 0.208432
2279 2 0.514378 0.350939 0.190672
10389 1 0.532624 0.346812 0.216415
15489 1 0.541637 0.323963 0.217945
11024 2 0.538508 0.348007 0.188379
1877 2 0.56036 0.347278 0.188008
8436 1 0.540408 0.322509 0.215747
19211 2 0.561356 0.322507 0.216194
14102 2 0.549312 0.326719 0.188116
13114 1 0.552499 0.342888 0.209472
13115 2 0.55132 0.337963 0.20286
14103 1 0.550637 0.330024 0.194486
13116 1 0.55126 0.332043 0.196639
16810 1 0.553082 0.344835 0.211761
16811 2 0.553758 0.350457 0.217753
6590 2 0.570958 0.325664 0.191601
10894 1 0.583652 0.321633 0.213566
2211 1 0.592304 0.326585 0.189407
10803 1 0.593017 0.328899 0.192301
6589 1 0.571941 0.330249 0.199016
1632 1 0.572637 0.332272 0.201036
1630 1 0.57447 0.344618 0.211279
1631 2 0.574046 0.338932 0.206588
10802 2 0.593741 0.333315 0.198843
2236 1 0.574967 0.346411 0.213246
949 1 0.582344 0.350024 0.191817
15804 1 0.582955 0.351569 0.193999
11467 1 0.584254 0.323611 0.215605
4109 2 0.595999 0.346615 0.213078
4110 1 0.595205 0.341994 0.207568
10801 1 0.594708 0.339423 0.205305
11108 2 0.619827 0.3459 0.216151
6994 1 0.626735 0.34711 0.191238
11107 1 0.618554 0.341119 0.209683
11971 1 0.61824 0.339458 0.207864
566 2 0.610911 0.323401 0.189095
565 1 0.612688 0.328284 0.195025
11973 1 0.613284 0.329804 0.197221
11972 2 0.615234 0.334551 0.202361
6665 2 0.605263 0.351323 0.193261
159 1 0.627664 0.348875 0.192962
6803 2 0.656464 0.327509 0.189912
5150 2 0.644314 0.345597 0.215607
20710 1 0.635932 0.326828 0.193885
12192 1 0.636635 0.328825 0.196414
12191 2 0.638667 0.334687 0.202099
12190 1 0.641053 0.339636 0.206973
5149 1 0.64219 0.341605 0.209424
6802 1 0.660147 0.330946 0.196575
3764 2 0.648271 0.321008 0.216855
5307 1 0.685705 0.337017 0.211803
3101 2 0.664729 0.352613 0.218451
5306 2 0.683191 0.329684 0.213097
5305 1 0.679646 0.322725 0.214924
7659 1 0.661545 0.333194 0.199453
3102 1 0.664058 0.346709 0.21256
7658 2 0.663546 0.338557 0.204583
7657 1 0.663932 0.344563 0.210424
6295 1 0.509891 0.37893 0.193234
5412 1 0.509659 0.377487 0.191081
2280 1 0.517378 0.357169 0.19566
15099 1 0.518083 0.359239 0.197322
946 1 0.520816 0.369529 0.211946
15097 1 0.52035 0.367432 0.209199
15098 2 0.519831 0.36331 0.202825
17064 1 0.530116 0.374102 0.190326
57 1 0.53072 0.375789 0.192329
56 2 0.531551 0.381315 0.198226
6296 2 0.511097 0.382518 0.199175
1878 1 0.561838 0.353823 0.192683
816 1 0.552909 0.370149 0.188752
8191 1 0.553272 0.371904 0.190799
11025 1 0.54075 0.355138 0.19327
14346 1 0.562488 0.355913 0.194816
5164 1 0.541212 0.357518 0.195172
3296 2 0.544801 0.371185 0.216733
14345 2 0.564157 0.360447 0.201105
14344 1 0.565914 0.364843 0.206848
12963 1 0.566187 0.366683 0.20907
5165 2 0.542567 0.362772 0.201175
5166 1 0.543829 0.365668 0.208086
3295 1 0.54401 0.366924 0.21081
12962 2 0.56709 0.37181 0.214491
8192 2 0.554621 0.379114 0.194576
19185 1 0.576238 0.373083 0.188873
2237 2 0.576755 0.352742 0.218528
3361 1 0.576612 0.37546 0.191611
15803 2 0.584519 0.356812 0.199607
3362 2 0.577115 0.379886 0.197305
15802 1 0.585975 0.362945 0.20583
10782 1 0.58638 0.365042 0.208068
10781 2 0.589248 0.370148 0.214115
953 2 0.598998 0.372305 0.190772
6862 1 0.622989 0.38415 0.204094
943 1 0.622354 0.381836 0.20157
18706 1 0.618962 0.369371 0.188264