ITEM: TIMESTEP
30000000
ITEM: NUMBER OF ATOMS
8970
ITEM: BOX BOUNDS pp pp pp
0.0000000000000000e+00 5.0000000000000000e+01
0.0000000000000000e+00 5.0000000000000000e+01
0.0000000000000000e+00 5.0000000000000000e+01
ITEM: ATOMS id type vx vy vz 
20899 1 2.00351 3.89622 2.47478 
20900 3 -0.461769 -6.07637 1.49269 
20901 1 -7.17667 6.47344 2.5121 
12777 1 -0.387031 0.741292 3.8772 
13265 2 4.4438 6.07168 -0.990689 
13266 1 -3.34298 2.05693 -2.35944 
13264 1 -0.00211563 -0.783505 0.014298 
8507 2 -0.213539 5.32951 0.848657 
3445 1 -1.09215 1.07799 -1.94564 
8508 1 -5.34859 10.2094 -2.27883 
3446 2 -0.431587 -0.859834 -2.19851 
3447 1 1.64035 -3.75244 -6.71476 
2004 1 0.495506 3.11777 -2.19739 
13045 1 -3.4403 -2.81751 -0.36875 
13046 2 -1.60011 -3.22775 0.941609 
13047 1 -4.90929 1.89694 0.11343 
366 1 2.49548 -4.00126 2.57889 
8506 1 2.0738 -0.655769 0.115011 
365 3 -1.12138 -3.60194 -0.292401 
364 1 1.85519 -2.52449 4.2247 
2003 2 -0.0579448 -6.26306 0.942578 
2002 1 -4.40367 -6.0494 -3.2564 
18934 1 4.0836 0.0792923 -1.61942 
18935 3 -2.93882 -4.6966 0.65919 
18936 1 1.51168 -0.235678 -3.0068 
1217 3 1.93652 3.6462 -2.54157 
1218 1 3.48526 1.5594 -1.43763 
1216 1 0.854032 -5.43719 -1.73634 
12662 2 -1.4581 2.28021 -0.740156 
4150 1 0.505125 4.14589 -0.621035 
17673 1 0.0198996 -4.35539 -2.33664 
2639 2 -0.0345109 -3.61568 1.24481 
2638 1 -2.03873 2.85226 3.00395 
2640 1 3.60794 5.02561 1.32645 
12663 1 -0.52221 -2.02743 -2.37907 
17672 2 3.77523 -4.95623 2.3383 
17671 1 -1.03225 1.47339 -3.29559 
4353 1 1.36283 0.562197 0.870634 
4351 1 3.50629 -3.0865 6.26486 
4352 3 -3.31907 1.93799 -0.258448 
1543 1 -0.0468901 -1.67849 0.982077 
1544 2 -0.978695 -2.47428 0.0454042 
1716 1 4.74204 0.499341 -4.0891 
759 1 0.740012 2.11403 -10.0424 
9040 1 -0.733735 -0.0932856 5.39381 
5816 2 0.845561 0.358571 -0.517437 
5817 1 -5.69789 2.03478 0.0409634 
9041 2 -2.06868 2.62864 -0.345934 
758 2 -6.36952 0.0644865 -1.70126 
757 1 -3.13157 -3.83412 -2.95343 
5815 1 1.00436 -2.6256 5.23651 
8286 1 -2.84355 -0.406008 0.867595 
8285 2 -1.5853 -1.18944 2.30261 
8284 1 0.623183 2.80907 0.504839 
7761 1 0.31581 1.3539 -1.17662 
20960 3 -1.84942 -1.52069 -1.38275 
20961 1 -0.0669171 -5.72957 2.16698 
20959 1 -1.64922 1.44359 2.15775 
10449 1 4.93921 4.33156 1.63562 
14573 2 0.498388 -1.18238 -0.886913 
14572 1 3.56812 2.81459 -4.03831 
11917 1 2.39895 -1.35351 -4.05304 
11918 2 -3.31481 -4.07555 -1.07466 
11919 1 3.63947 0.449494 2.32839 
515 3 3.22183 -0.0304642 -0.670261 
516 1 0.0705766 2.23026 0.694498 
11633 3 0.68926 -2.32088 0.443867 
11634 1 -0.976769 0.192118 -1.60793 
514 1 2.20485 -7.29685 1.93577 
11632 1 1.36735 0.585994 3.59081 
8345 3 2.44537 -1.73961 -2.22063 
8344 1 2.95882 2.49941 -0.233651 
8346 1 6.80684 5.62273 2.38582 
17165 3 2.64207 2.24985 -1.98096 
17164 1 0.212935 0.834085 -6.65663 
15010 1 3.4383 -2.11918 0.618784 
17166 1 4.40033 7.22374 8.36775 
17744 3 4.653 -1.425 1.01764 
17743 1 -0.539545 -1.90736 2.34769 
12538 1 3.00067 -0.280153 5.51697 
12540 1 -0.222337 1.79535 -0.177319 
12539 2 -1.91667 2.46664 0.25172 
9708 1 0.131555 -3.4765 -3.15666 
9707 3 4.99726 1.99137 1.54774 
9706 1 -7.26776 -3.20217 2.58288 
444 1 -0.523835 2.70769 3.5323 
443 3 3.07907 -2.21892 -2.08314 
442 1 -6.95182 -2.3877 7.63128 
16411 1 -2.0076 -1.15027 4.10265 
16412 2 0.241765 0.255119 -0.298088 
16413 1 8.24613 -1.47264 0.572349 
11379 1 3.07218 -2.88016 -2.62816 
11378 3 0.453418 0.16175 -1.15181 
11377 1 6.39695 -1.30268 -3.57713 
4859 3 -2.40885 2.28317 4.05337 
4860 1 5.88239 -2.83672 0.629729 
4858 1 -2.44218 -0.995404 -0.476415 
19588 1 -5.45278 -1.47017 0.201296 
19589 2 2.20785 -0.58895 -0.704928 
19590 1 -5.16614 -1.11695 -4.11753 
14202 1 2.69057 -3.52215 -5.38206 
14201 3 1.76553 -1.78478 -1.45395 
11870 3 0.736338 -2.20563 -0.430983 
11871 1 -0.496506 -1.65679 -0.10144 
4152 1 -2.5801 -2.15498 -0.416235 
14200 1 0.188739 1.41908 -6.78589 
4151 3 0.616727 -2.72782 0.24129 
11869 1 0.275191 -0.783388 0.0519546 
6108 1 -1.88937 -2.45825 2.02549 
6107 2 -1.75067 1.6057 0.789943 
6106 1 -1.20783 -2.45338 0.352279 
4053 1 -2.55209 -3.72669 -0.953773 
4051 1 0.0499433 -5.31774 -1.00412 
4052 2 2.15685 0.311567 -2.16659 
9042 1 6.1159 7.21304 1.75202 
15606 1 -5.13338 -0.741247 -0.890526 
15605 3 3.0891 -1.21354 0.388827 
15604 1 0.970746 -0.410938 -1.92447 
14574 1 0.0225046 -0.0970135 4.20128 
20514 1 4.16004 -0.337398 3.73756 
20513 2 0.773863 1.04658 -1.86182 
6982 1 3.81323 4.2968 -5.35078 
6983 2 1.54248 -3.08387 -1.14103 
6984 1 -3.97913 -1.96845 -2.02144 
18332 2 -3.42773 0.78714 -1.16656 
18331 1 -3.36869 -2.88653 1.68186 
3682 1 0.92918 1.41723 3.48651 
3684 1 4.61428 -1.7327 -1.58295 
3683 3 -0.998076 2.02039 1.77296 
18333 1 0.51079 0.0530912 -0.914581 
2096 3 2.21632 1.42908 -0.253824 
2097 1 2.7731 -5.93601 8.30795 
15011 2 6.10602 1.21346 0.274214 
15012 1 0.40501 -0.219719 2.66879 
17745 1 -1.44124 3.37738 0.954021 
10952 2 -0.449796 5.0906 1.95104 
10953 1 -3.03125 -0.808729 -1.10288 
10951 1 -1.11315 -1.67504 1.41796 
19750 1 -0.546518 4.79869 2.82588 
19751 3 -0.190539 1.61796 -2.54075 
4104 1 1.61559 0.945452 -1.33812 
4103 2 -2.5313 2.76818 1.42504 
4102 1 0.474151 -4.73843 3.71907 
5342 3 1.19621 -2.05376 -2.42934 
4238 2 0.139728 -0.598851 0.52354 
5341 1 -6.26524 -5.64488 5.0181 
4239 1 -1.2392 1.04396 -0.507384 
5343 1 3.25989 -3.47202 -1.76445 
3510 1 -3.59182 1.2188 2.00683 
14626 1 0.232743 -3.95511 3.66197 
16450 1 2.43751 -5.72655 -2.65371 
4237 1 -0.721802 0.00323076 -3.92819 
16451 2 0.732402 0.461917 3.16175 
16452 1 -1.53102 -6.06063 3.65 
21135 1 6.78592 0.866833 1.97803 
21133 1 0.451441 1.87174 -2.94865 
21134 3 -1.52028 4.48592 -2.06856 
5606 2 -0.219204 -0.0616464 1.47654 
5605 1 4.76438 0.879269 -6.93603 
12732 1 4.3613 -2.50866 -5.76548 
12731 3 -2.79089 3.55158 -1.44268 
8117 2 -4.05317 0.341396 2.6285 
12730 1 3.91549 -5.885 6.25403 
8118 1 1.89245 -6.70916 2.54113 
6915 1 2.70375 -2.90021 1.96986 
6913 1 1.48376 5.9278 -3.80374 
6914 2 0.678271 -1.73841 0.615794 
8116 1 -5.59115 -3.26479 1.32531 
11058 1 -1.6748 3.30009 -5.26606 
3607 1 1.69508 -3.37494 3.09224 
3608 3 3.49764 3.70179 2.68973 
11057 3 2.93084 3.29853 -1.24332 
11056 1 2.3636 8.62163 -1.88728 
17361 1 -1.31948 0.644783 -1.48251 
3453 1 -1.60631 0.610794 -4.06332 
3452 3 1.33495 -2.96901 -0.368764 
3451 1 0.0894381 -2.37466 -0.107321 
6709 1 -3.63885 0.207023 -7.53019 
17359 1 -3.51053 0.45081 -1.39219 
17360 3 -1.11398 4.9174 -2.29698 
12720 1 -1.71231 -2.12497 -3.77493 
12719 3 -1.8254 1.12832 -3.8838 
12718 1 0.553617 1.55992 11.2044 
20512 1 0.245153 -0.198011 6.16808 
9621 1 -3.77001 -3.22809 -4.11975 
3335 3 0.276788 0.147634 2.44685 
9620 2 -0.493629 -5.59092 1.00509 
9619 1 -13.1706 1.22546 1.41326 
3336 1 -4.90529 3.42121 2.55756 
3334 1 4.08394 -7.96762 -3.19823 
15008 3 -2.20529 -3.99815 1.04859 
15009 1 7.62211 0.402912 -2.67904 
6004 1 -0.817796 -0.695845 0.410013 
6005 2 -1.56606 1.58108 -3.14566 
6006 1 2.39418 1.01926 -0.654698 
6283 1 2.0723 -8.16961 0.242031 
6284 3 -2.73973 0.620134 -2.56079 
6285 1 -0.396398 -0.52501 1.13818 
2095 1 -8.26092 1.81946 1.18873 
11762 2 1.23289 -2.2086 -3.45289 
11763 1 3.81023 1.24333 -3.14701 
709 1 0.426628 -3.59241 -2.63761 
2134 1 3.73889 1.43603 3.23885 
18272 3 -0.860671 0.14941 -0.807081 
18273 1 -1.86196 -5.53089 1.61547 
2136 1 4.85551 2.00962 7.23726 
7906 1 -5.59175 -3.67502 0.495914 
2135 3 2.61746 2.08131 -3.77907 
7908 1 -1.64486 5.01036 0.798747 
7907 3 -0.0260514 -0.00932578 -1.55395 
19752 1 -0.561631 -0.971649 -2.92532 
16253 2 0.236729 -3.96557 0.990757 
16254 1 -0.309272 0.832898 -2.02219 
16252 1 1.34516 1.09885 -2.00223 
6748 1 -3.12816 5.48123 4.29718 
6749 2 4.54795 3.98616 -1.24199 
6750 1 4.73229 1.74444 1.86334 
6496 1 0.751728 -2.22277 4.53603 
18703 1 4.41754 -0.866901 1.88948 
18704 2 2.20587 3.05076 1.21533 
18705 1 -1.78395 2.22782 -1.89608 
19814 2 -0.828904 -4.13873 -2.82106 
14880 1 1.26712 0.488774 -0.159721 
14879 3 -1.58058 -0.464765 -2.92865 
14878 1 -0.0393458 -2.52787 3.54047 
807 1 0.934988 1.58549 8.40394 
20349 1 2.08796 8.98733 2.53788 
20348 2 2.15756 0.140834 -2.54718 
20347 1 -2.02034 2.9678 -0.947013 
2670 1 -2.13365 -2.70774 -2.87648 
14628 1 3.25849 0.49243 -8.21938 
14627 3 2.14212 -3.16311 -0.441745 
19813 1 -8.67019 -2.01556 -1.00539 
2669 2 2.36584 5.43993 -0.811691 
2668 1 -4.46842 -2.93888 -3.2394 
8941 1 1.76066 -4.92492 -1.6248 
5607 1 4.31463 5.23649 3.46677 
16930 1 -4.2273 -3.74113 -2.11796 
3609 1 -8.6308 -5.99185 -4.65805 
6711 1 0.279191 -2.53226 -0.155525 
6710 3 -3.93887 -0.956204 1.21402 
599 3 -1.2966 -0.576634 -1.00637 
598 1 -2.57836 -1.92528 -6.51957 
600 1 -4.47986 5.73205 0.981046 
19261 1 -3.30672 4.07522 -3.06513 
19262 3 -1.82691 -0.661721 1.68467 
17267 3 -3.32336 3.30923 -1.7067 
17268 1 3.24498 2.15393 -2.03856 
15007 1 -3.21811 6.1861 2.26046 
2506 1 1.90808 -1.98456 -4.13601 
2507 3 1.85959 -2.32413 -3.43155 
2508 1 1.53876 -7.00508 0.695479 
17266 1 -7.79464 -2.00611 -0.278574 
19182 1 0.930533 -0.112223 2.68687 
19181 2 0.393327 2.9199 1.90921 
19180 1 -0.528246 -1.32769 2.02399 
17555 2 -0.9334 -1.15313 1.26288 
17554 1 -1.90225 4.43403 2.47882 
17556 1 -1.89067 2.84606 0.0807534 
19383 1 -0.349345 1.21546 2.05656 
7217 2 3.89284 2.83067 6.15169 
7218 1 1.26012 4.04143 -3.4704 
19381 1 -7.19574 4.86404 -1.54936 
19382 3 -2.38037 1.16874 -1.44255 
19917 1 -0.844909 -1.56191 2.60011 
19916 2 1.18455 -0.524538 1.67948 
711 1 -2.3429 -6.15801 -0.252795 
1825 1 4.6579 -6.52226 3.7169 
1827 1 -4.88697 1.49729 -3.50084 
1826 3 1.97244 0.414503 -0.297202 
710 3 0.503173 2.3014 -2.02196 
5892 1 1.55904 5.14805 3.18292 
19225 1 1.15593 -2.73491 -0.260334 
19226 3 1.64763 5.07904 1.22605 
10692 1 -7.2354 5.08106 4.84168 
18271 1 -0.718234 2.93367 -1.82622 
19227 1 5.35393 -4.57387 -5.22692 
4941 1 0.275784 -4.79605 -3.27682 
4940 2 1.77623 -2.63156 1.96114 
4939 1 -2.06121 -0.54922 0.665404 
19164 1 -5.19956 -4.92387 -1.295 
19162 1 -1.65548 -5.19207 -2.04569 
19163 3 -1.43863 -1.39929 -0.512715 
6221 3 0.36613 1.81279 1.832 
6220 1 -4.36149 -3.33209 1.3291 
6222 1 -4.69858 -4.64091 3.61648 
4973 2 -1.14058 -3.13971 -0.60615 
4974 1 -0.557403 -1.59242 2.59107 
4972 1 -2.7062 -4.54041 -2.33426 
13010 2 0.346502 1.84269 4.5298 
13011 1 0.0386323 -1.75367 2.32378 
6497 2 -0.957563 -3.91148 -1.46905 
6498 1 4.84605 2.33245 -2.67654 
19815 1 -2.32845 -0.963924 4.46672 
805 1 -0.582586 -0.354704 1.47631 
13009 1 3.49942 -0.991591 0.30696 
806 2 1.25375 -2.25362 1.66915 
4438 1 -0.320126 -2.01305 -0.213125 
5347 1 -0.474617 -2.15 7.73992 
5349 1 -0.425549 -6.96109 3.37334 
5348 2 3.48871 -3.25021 0.0689657 
11185 1 0.10115 -3.40051 3.345 
8943 1 4.40379 -1.90606 -4.28893 
11186 2 -2.34793 4.5672 1.08052 
12366 1 7.4388 0.690566 -2.05175 
11187 1 1.71394 0.409036 -1.6706 
8942 3 2.39574 2.89882 -0.402901 
17061 1 2.1584 -2.60521 -4.14128 
16932 1 0.0684103 -0.256457 -1.93044 
16931 3 4.44654 -2.30705 -0.741323 
1363 1 4.39561 1.73277 1.37531 
20747 2 0.873895 0.0162236 -2.80277 
10124 3 5.97081 -4.00204 1.11532 
19167 1 0.818973 -4.22242 3.39793 
19166 3 1.47249 -0.932515 3.4893 
765 1 -2.0333 1.02216 3.13418 
764 3 0.19314 0.685018 -1.56593 
10123 1 0.500711 -6.41046 -1.15817 
763 1 -1.04695 0.855712 1.40287 
1725 1 0.0288423 -1.88288 7.79088 
13698 1 1.10858 1.4044 -9.59385 
13697 3 -0.946519 -2.23077 -2.06367 
1724 2 2.54105 1.97782 -3.87327 
13696 1 1.20468 -3.64241 2.92503 
19263 1 0.592393 2.04592 -0.325656 
14871 1 1.89697 1.95444 -0.936745 
14869 1 1.68084 -2.08813 -6.28294 
14870 2 -0.453922 -2.38674 2.86408 
2581 1 4.21617 -2.52161 2.02728 
2582 2 0.676378 -4.626 -1.7554 
19617 1 -1.98391 -3.30745 1.15598 
2583 1 0.746186 -0.17333 -0.475741 
7216 1 -2.08827 2.44758 -0.3564 
20342 3 -2.60862 1.29826 -2.18506 
20341 1 3.26917 3.58774 -0.751386 
20907 1 0.963181 1.40577 -0.39979 
20343 1 0.58026 -2.53823 -0.627969 
20906 2 -1.23489 -4.10017 -0.423947 
20905 1 -4.2803 3.22834 -3.67768 
10691 3 -1.95705 -0.594889 -0.200792 
14230 1 3.29298 -3.89746 3.69729 
21353 3 3.55183 -3.41268 0.733671 
21352 1 0.916191 -0.0471403 -1.98058 
10690 1 4.87664 3.57096 -4.6874 
21354 1 4.54283 -7.59488 -7.94183 
14232 1 0.762408 3.67001 -3.54864 
14231 3 3.56933 2.14919 0.818142 
17913 1 -0.810507 -0.256296 -1.22882 
17912 3 0.223855 2.13094 -0.260929 
17911 1 3.38767 3.15 8.50519 
3224 3 0.266499 -1.10141 -1.55613 
3225 1 0.533823 -4.14079 3.37981 
3223 1 0.738566 -3.3155 -3.89973 
9940 1 2.37729 5.09197 2.03222 
18634 1 -1.55269 -0.156281 5.03649 
18636 1 -2.59676 -0.35375 -3.55266 
3543 1 1.05307 2.87578 -4.23735 
3542 3 -0.940577 -1.76695 -5.64999 
18635 3 -0.594579 0.2619 -4.27777 
9234 1 6.99382 1.70891 -7.367 
9233 3 2.26596 0.505752 -0.352719 
4439 3 -3.12661 -2.7639 1.31088 
16434 1 -2.75597 -4.86148 -2.23156 
16433 3 1.48164 4.29305 -1.46847 
16432 1 1.32502 1.56749 1.15496 
4440 1 0.66796 -2.96536 5.25405 
9129 1 2.21164 5.31055 -0.584882 
3288 1 -0.315336 -1.78266 1.24686 
16961 2 1.8369 -0.532084 -0.686905 
16962 1 2.60962 5.26196 0.250878 
16960 1 7.89761 -0.75244 0.508002 
9232 1 -1.52742 0.31949 -2.74858 
7141 1 2.18509 1.62418 1.32468 
7142 3 0.180333 -0.561976 0.949326 
7143 1 -2.34308 -0.457316 2.94854 
12365 3 2.22932 -0.490625 -2.34931 
12364 1 2.6204 0.838423 -1.8261 
12482 3 1.58519 -1.14144 -1.38244 
12481 1 -1.83228 0.291001 1.08906 
12483 1 -1.65131 -3.20082 -0.413727 
17060 3 1.51808 -1.14052 -6.69704 
17059 1 5.38296 -0.0215541 0.0711124 
14584 1 2.68032 2.13793 1.43442 
14586 1 0.86212 -1.50679 -0.0682856 
14585 2 1.32926 -3.9006 -3.46785 
14160 1 8.57853 -6.05565 -1.17252 
14159 2 2.27928 -1.58335 -1.49882 
14158 1 1.091 3.41926 4.1502 
20597 3 0.350289 -5.38465 0.44184 
20596 1 4.89327 -1.57031 -2.89816 
7909 1 -1.59672 1.93889 1.83236 
20746 1 0.394941 -0.104264 0.606551 
10125 1 -4.00663 3.07713 -5.59071 
2922 1 -3.28841 -2.16978 -0.903581 
19165 1 -0.536806 0.635231 -2.73008 
6884 3 -2.80465 2.1908 1.75908 
6885 1 2.9832 -0.232696 4.9823 
6883 1 2.06481 -2.49276 -2.65963 
19571 2 -2.09496 -0.560204 0.289391 
6927 1 -2.80304 3.55007 0.166773 
19572 1 2.01557 0.757714 4.107 
6925 1 0.497082 -0.407723 -4.10478 
6926 3 -1.71978 -0.913224 2.22613 
19615 1 -0.070386 0.931789 -1.43269 
19616 2 3.07049 1.86979 0.383994 
320 2 -2.69073 -0.606303 1.63646 
319 1 -3.81777 2.97945 7.56347 
321 1 2.97542 7.11407 -4.80048 
6150 1 1.86404 0.522924 -1.73912 
20583 1 -8.30597 -3.16778 1.84407 
20581 1 -3.37903 -2.68348 0.0865245 
20582 3 1.29695 2.68151 -2.36676 
1911 1 -1.88035 0.713852 -1.50793 
1910 3 -0.611864 1.67579 -3.11235 
1909 1 2.389 6.19584 2.51626 
15303 1 0.673844 -0.245394 4.12696 
10406 3 0.397279 -2.91801 -1.77875 
10407 1 -0.442101 0.36116 2.38169 
10405 1 -5.62251 -0.905002 2.42952 
19143 1 2.00933 1.27684 2.96184 
19142 2 0.65387 4.6644 -0.690432 
19141 1 2.07867 -5.69672 2.00072 
11850 1 3.61453 -0.212393 5.92491 
4349 3 -1.96644 -0.883994 0.391164 
3736 1 1.63528 0.273803 -0.889632 
4350 1 3.23124 -2.30892 -8.1032 
4348 1 -1.53108 -3.98147 3.371 
5822 3 2.96935 0.216671 -2.85836 
4300 1 4.91342 7.64376 -3.58242 
3644 2 -2.86288 2.18038 -2.94088 
3645 1 -0.547889 -5.82722 -1.17676 
3643 1 0.475429 0.272823 -2.45567 
3541 1 -3.39374 0.382598 -0.877265 
3831 1 -0.0802742 -1.17564 -1.58846 
3830 3 6.3264 -3.87283 -2.72105 
5823 1 -1.93383 0.601288 -1.5675 
3829 1 3.69241 0.863207 -0.662626 
9128 3 2.41044 -2.3591 5.09438 
17923 1 2.85717 3.69665 -1.45072 
17924 3 -0.407752 -1.78787 2.42839 
17925 1 5.68289 2.36277 6.25477 
16786 1 7.19028 -1.61187 4.60989 
9127 1 3.9322 2.42939 -2.37247 
3286 1 0.478639 1.28462 4.7624 
3287 3 -3.16832 -0.585474 0.365978 
17503 1 5.70276 -3.27212 7.24588 
9112 1 3.44073 -1.67017 1.05897 
9113 3 -2.70568 1.59024 -2.73857 
9114 1 -4.45319 -2.7265 7.63549 
3282 1 -5.4577 2.24288 -2.76735 
3281 2 -0.590434 0.58804 1.04323 
20598 1 -4.3869 2.67421 -2.36007 
7911 1 -2.68909 -2.83878 8.91221 
7910 3 1.83994 -0.186592 -1.53484 
8725 1 4.09969 -6.83332 3.32478 
6755 3 1.33531 -5.07081 -7.16995 
6756 1 -4.46086 0.545545 -0.526394 
6457 1 -0.187125 -3.75355 2.25087 
6458 3 -0.834323 3.91936 1.33962 
10915 1 3.05189 -4.84743 -4.25055 
6459 1 3.40582 4.38812 -0.401481 
10916 2 -2.98713 4.0886 -2.32332 
8727 1 -4.50849 -9.86335 3.1452 
8726 3 1.15149 -4.76508 5.21607 
10678 1 -1.65965 0.83186 -2.23841 
10679 2 2.56896 0.424764 -0.124519 
10917 1 0.799133 -0.845887 -1.68446 
2886 1 -3.30336 -6.19502 3.41577 
10680 1 2.46136 1.48564 6.95291 
16791 1 2.05047 1.67235 2.81657 
9586 1 -1.40974 -8.80904 -2.28088 
15157 1 -4.67402 3.95223 -1.84332 
2885 2 1.34951 3.91124 -0.869133 
2884 1 -2.04049 6.41759 -0.663041 
2391 1 -6.3354 1.91488 -0.0629196 
2390 2 -0.153568 0.904122 -4.08129 
9587 2 4.73545 1.63906 -2.35842 
9588 1 1.35438 4.24206 0.498527 
17991 1 -3.17071 -0.820733 3.69627 
17990 2 -4.05348 2.13977 -1.5401 
17989 1 -1.01868 -4.45305 -0.498238 
2389 1 5.79082 -2.04921 2.35973 
2921 2 -0.267869 0.886598 -1.17828 
2920 1 -3.5271 -3.42793 0.558166 
19614 1 3.92707 -2.71113 0.183698 
19612 1 -1.62251 0.457286 -0.171768 
19613 3 2.20921 4.02212 -3.00436 
5015 3 1.00094 -0.492546 -1.53871 
5016 1 6.14036 4.44493 -2.96668 
5014 1 -0.749955 -0.960216 -0.192233 
13408 1 1.63422 -0.0429613 2.78521 
13409 2 0.153321 0.520004 -0.0922896 
13410 1 -1.92717 -0.487153 -6.28217 
20966 3 1.55874 -1.49003 3.55867 
20965 1 0.575615 -2.4358 2.01883 
14287 1 4.61354 0.626987 -6.32137 
14288 3 0.346204 3.63498 -1.70756 
14289 1 -0.773398 0.229538 8.85519 
7394 2 0.855143 2.44646 1.68342 
7395 1 -5.56495 4.04248 0.0994209 
8253 1 1.29144 2.85062 4.2378 
5758 1 -1.84136 2.70856 0.28967 
4721 2 -1.56038 -2.49306 1.72079 
4722 1 3.30451 -5.92039 0.223572 
4720 1 2.86087 -4.18493 -4.64239 
7393 1 0.604305 -4.0472 1.53826 
11619 1 -2.97013 0.124789 -0.73807 
11618 3 0.0686024 -1.5228 2.92896 
11617 1 2.33532 -3.53862 3.09277 
10656 1 -1.80119 -1.05431 -1.6849 
10655 3 -1.42527 0.576113 0.964392 
10654 1 -6.66271 -0.158482 0.266471 
15301 1 4.852 3.12994 5.83723 
15302 3 -1.79163 3.62045 1.0172 
12708 1 2.7506 7.00916 -5.19696 
12707 2 3.6371 -1.02279 0.895853 
12706 1 -1.59032 1.7755 0.928742 
11849 3 -2.19058 0.757426 -1.21395 
11848 1 0.783408 -0.224614 -3.81579 
14329 1 -1.9974 -3.72466 0.456342 
14330 2 5.44422 1.84299 1.25167 
505 1 1.95157 3.40906 -4.16024 
12128 3 -2.4565 -2.35025 -2.54381 
12129 1 5.10621 -2.81407 0.821734 
507 1 7.47377 -0.243664 -2.74572 
506 3 0.805462 -1.40702 -3.76359 
18911 3 2.54453 4.41278 -5.2761 
18912 1 -2.00703 0.672386 -4.83123 
18910 1 -3.3187 3.57442 1.85671 
3737 2 0.225181 2.01628 1.16212 
9501 1 -1.42047 2.18982 -0.0722664 
4522 1 -0.799846 3.87287 1.91908 
12127 1 2.97551 6.71854 5.82974 
4524 1 1.42227 1.63463 -4.94066 
4523 3 0.189866 1.66023 -0.357227 
5821 1 -1.85905 -2.8534 -2.23764 
9500 2 -4.87728 3.56031 -2.80264 
9499 1 -0.106533 -3.05002 -1.9221 
20130 1 -0.8333 -1.94078 -1.98166 
16787 2 2.97538 -3.56049 -4.99304 
16788 1 -2.3784 -3.7556 1.36471 
6837 1 2.57675 -1.26453 4.10054 
6836 2 4.41932 3.79941 1.26661 
6835 1 2.90741 5.04783 -1.51785 
17505 1 -0.0300595 -0.259303 0.564606 
17504 3 -0.411527 -2.3617 -4.70996 
16473 1 -1.69522 1.61376 -7.21024 
16472 2 2.72029 -3.51864 2.51395 
16471 1 3.90883 -4.72887 0.605082 
18426 1 2.392 -4.58275 4.50505 
10343 2 -3.10449 -0.917683 -4.64591 
10344 1 -4.14491 -3.5472 -3.75421 
10342 1 4.88106 -1.32154 -3.15779 
15558 1 -2.99392 1.36251 1.20801 
302 3 2.59095 -2.62096 2.1155 
303 1 -1.33384 -2.10383 9.1297 
301 1 -5.37882 -1.03384 -1.60123 
16583 2 -1.51026 2.16052 0.178635 
16582 1 6.58135 2.97679 -5.56708 
16584 1 1.60793 -0.784128 5.29816 
14647 1 0.518175 2.45378 -1.46139 
14648 2 -7.57785 0.879506 2.5684 
14649 1 -0.0896354 0.135136 1.44327 
3280 1 -5.67165 2.48596 -3.27027 
18213 1 5.01787 -5.56908 1.20617 
18212 2 -4.62206 0.46934 -0.699204 
9714 1 4.03985 2.46818 -3.73861 
18211 1 -0.480851 -2.31132 3.83707 
5381 2 3.3611 -0.809572 -5.75737 
5382 1 4.98295 -2.74741 -0.587169 
11854 1 0.742174 1.89765 2.70621 
11855 3 3.54919 0.342833 0.825936 
11856 1 3.6827 -3.92056 -2.50867 
21504 1 -0.368003 -1.09898 -6.74328 
21503 2 2.1346 2.11825 2.26762 
9712 1 0.205925 4.11998 -0.981296 
9713 3 -0.92471 -1.32243 2.65886 
21502 1 1.18908 1.92 -3.6261 
6754 1 2.53281 3.98361 -1.30124 
4934 2 2.87009 0.624048 2.77023 
16899 1 3.82349 -0.198885 -5.1623 
4933 1 4.59949 -3.57591 -5.44439 
16898 2 3.5992 0.550521 -1.27363 
16897 1 -1.90045 -0.266221 3.62589 
15757 1 0.46294 -0.942825 -0.65114 
4935 1 5.43472 -4.39533 -2.82256 
11434 1 7.57412 -2.68304 -2.32021 
11435 2 2.28347 0.0492828 1.78774 
15159 1 -5.79915 2.53706 3.26826 
15158 3 -1.20512 0.152234 -8.86441 
1200 1 0.614256 3.5538 5.26506 
16789 1 2.84767 5.07693 1.71965 
16790 2 4.38854 6.73426 -0.687657 
1199 2 -0.294628 -0.824213 -0.727253 
1198 1 3.5747 -0.841247 6.33194 
18408 1 3.18593 3.80705 0.749362 
18407 3 -3.97099 0.264556 3.26522 
18406 1 -2.38421 0.320181 -0.507803 
8033 3 4.89105 0.0619974 -0.0948896 
8034 1 3.25071 -5.3655 -0.774419 
8032 1 1.49215 -1.3691 4.70047 
3411 1 1.28972 4.48732 -1.34292 
3410 2 -2.31718 1.69336 2.70678 
20967 1 1.52464 6.18333 2.47625 
15817 1 -1.15004 -2.16676 -2.74017 
15819 1 7.62912 2.22504 -4.22261 
15818 3 -2.75379 -2.12638 -0.605606 
8251 1 7.99804 -4.67328 0.492925 
8252 3 -0.409569 -3.31261 3.22196 
7875 1 5.10757 -4.93381 -5.10188 
7874 2 2.09776 -1.25195 -0.968469 
7873 1 -0.430818 -2.68288 -3.61421 
12899 2 1.0904 -1.00162 -0.802729 
12900 1 3.95398 0.772814 -3.29979 
14331 1 -0.0760946 1.76922 -2.37174 
8395 1 6.53005 3.6219 1.02978 
6345 1 1.56675 5.01131 -2.83943 
20128 1 -3.87944 -0.977221 -1.94367 
20129 3 0.965106 7.1161 0.78454 
6343 1 -2.91446 -0.0171645 3.23569 
6344 3 -3.19041 3.43806 4.15335 
18249 1 2.04293 -0.676423 2.20498 
18248 3 0.975892 1.47087 -1.05218 
18929 2 -0.930166 -1.63295 -0.247254 
18928 1 5.67832 3.4366 3.99893 
18247 1 2.83607 -0.600584 -1.61282 
733 1 5.5139 2.71749 0.00519718 
15557 3 1.88854 1.50012 0.876931 
15556 1 -7.15173 -0.789188 5.12129 
735 1 6.47496 2.37608 -0.956973 
734 2 4.16433 3.27391 1.08779 
1593 1 0.850284 -2.54832 -3.3417 
1592 2 0.316525 -3.80151 -2.14158 
1591 1 -0.2727 4.9297 -7.46158 
4129 1 4.58404 -1.69259 5.34153 
13856 2 -1.92865 1.9224 -0.341857 
13855 1 2.24577 3.11686 -2.86054 
13857 1 1.83867 4.76782 1.65498 
20391 1 -1.79344 3.38746 -3.07599 
20390 3 -0.89384 3.70484 -1.02212 
20389 1 -6.06385 7.3608 -2.23045 
2310 1 3.97387 1.4045 4.53801 
2308 1 -4.9008 0.506725 -1.8853 
17052 1 -0.764704 -0.115375 -4.32759 
2309 2 -2.85311 0.016733 4.82553 
17051 2 4.75018 0.0975137 -5.75892 
17050 1 -2.4352 0.433131 -0.952857 
7362 1 1.12467 -4.0373 -1.59479 
13864 1 0.479908 -1.35447 -5.26297 
7361 2 2.6346 -3.39277 1.33088 
7360 1 3.91611 -1.56192 2.85434 
5380 1 -0.457295 -6.95992 -1.67129 
13865 3 0.375223 -2.11 0.12058 
15758 3 -1.04936 0.869547 0.107397 
15610 1 -7.41551 2.3651 -0.358228 
15759 1 -2.96379 -7.87205 5.77433 
15611 2 2.36355 -1.76445 -2.32934 
11436 1 2.98502 -3.34842 0.702832 
4295 2 1.24542 -3.35778 -0.793512 
5120 2 2.23184 -4.43461 -4.64916 
5119 1 2.52604 -2.00425 4.0816 
5121 1 5.94055 -2.36299 0.0526366 
4294 1 3.5734 1.15867 -3.23148 
15239 2 -2.31492 -0.0145357 5.86216 
15240 1 4.62733 -1.99677 6.87658 
18847 1 0.00292937 7.71999 -4.86352 
19948 1 1.446 6.97731 2.65562 
19950 1 -0.202775 -0.435325 0.152672 
15238 1 -5.50832 -1.66968 2.29471 
19949 2 1.2345 1.73207 1.89371 
12085 1 -3.92488 -2.7875 -0.23557 
18848 2 0.487217 1.04751 2.29144 
10871 3 0.110774 -4.37028 -0.0982266 
10870 1 4.42083 -0.444461 -1.49827 
18849 1 5.39439 2.32328 1.10514 
10872 1 -1.24359 2.55149 -3.06433 
19025 2 -0.229603 0.383128 4.79595 
19026 1 4.29815 -6.37694 -5.25852 
19024 1 -5.94996 -1.40601 0.165183 
10092 1 0.489324 -4.36038 5.13969 
10091 3 1.55786 0.0176684 -2.72033 
10090 1 3.00116 -3.18114 3.17677 
18507 1 -5.72213 -3.99929 -7.36499 
18506 3 4.38303 -1.22035 -1.01303 
11981 3 2.55074 -0.919902 -0.266263 
11980 1 2.48518 -2.78087 2.70419 
18820 1 -1.26189 -1.34385 -4.72279 
18505 1 -2.37038 0.997448 -0.0908394 
7539 1 -1.48423 1.26199 1.71238 
7537 1 4.72917 -1.85753 -3.668 
11982 1 -1.96754 -9.74844 6.5724 
7538 2 1.67731 -0.524595 1.49845 
3409 1 3.6698 1.59545 0.809849 
6382 1 1.53486 0.739919 -0.750532 
6383 2 -5.94545 2.04144 -2.49914 
8396 2 -0.995026 -0.183437 -4.44455 
8397 1 -1.30924 2.18801 0.191789 
12980 3 -5.78765 2.78624 1.51902 
12981 1 0.729998 -2.34909 5.63091 
813 1 -0.934324 -5.17665 1.23712 
812 2 0.774224 -1.61217 -3.39505 
18930 1 -3.76808 -0.0547973 1.61581 
12979 1 2.64425 -4.35437 0.325571 
7413 1 -3.0414 -3.30442 7.05856 
7412 2 -1.51065 1.55127 -0.0517181 
8011 1 -1.43203 3.79615 -2.40475 
12990 1 -2.79362 2.97644 5.43673 
12989 2 2.44946 -0.775568 1.64117 
7411 1 -1.01301 3.04803 -1.83682 
8013 1 -2.81219 -3.52468 -5.74287 
8012 3 2.4807 3.86754 3.53928 
11734 1 -7.00133 -0.416785 1.74185 
11735 3 5.51264 -0.371133 0.265103 
11736 1 3.11361 1.74589 -0.516615 
2053 1 6.74507 6.2533 2.59329 
2054 3 -3.87151 0.826839 -2.40736 
2055 1 -6.37526 -1.30193 -0.00693003 
4130 2 -0.372024 0.880039 -1.95966 
4131 1 1.15309 0.219768 -0.516151 
4507 1 -0.302502 0.2808 -5.11774 
4508 3 -0.827846 -0.252383 3.55447 
4509 1 0.624576 4.71989 5.22153 
8915 3 1.10441 2.75079 -2.36974 
8916 1 0.759491 2.05414 -1.49906 
5493 1 -7.88173 -2.1939 -3.9295 
5492 2 -4.00791 -0.323839 3.58704 
13866 1 -1.05888 2.32989 -1.41566 
9757 1 -0.84649 -0.16754 -8.28261 
9758 3 0.497641 0.227221 0.923237 
9759 1 -3.51316 1.30264 -0.62471 
15612 1 -4.39435 -0.624604 1.30277 
10560 1 -2.85673 4.01538 -6.02731 
10559 2 -0.919128 -1.23714 0.0518555 
10558 1 2.58543 5.26351 2.0805 
4296 1 1.0494 -2.73214 1.39224 
12087 1 2.34425 1.0377 0.554612 
12086 2 0.713075 3.61779 3.30717 
7182 1 2.0859 -7.49906 -2.44525 
7180 1 -4.16655 3.18818 -0.261794 
7181 2 3.08553 -4.53711 -4.1524 
18822 1 -2.37979 -1.75846 0.173282 
18821 2 2.6636 -2.9581 1.8462 
13477 1 -1.85397 1.33059 -6.25744 
13478 2 3.33342 2.2216 0.632212 
13479 1 -2.43103 -0.360476 -0.379853 
958 1 0.853508 -6.43313 -5.9317 
959 3 -4.41309 -1.69228 3.56143 
960 1 -2.55442 -4.22994 -4.91235 
20520 1 4.86895 0.135395 -1.75746 
20519 2 1.32662 -1.91959 2.41577 
20518 1 -4.21425 -3.98284 1.42209 
153 1 0.554922 -0.879909 4.49309 
151 1 4.2266 -0.315527 8.17906 
152 2 -3.52153 -0.776298 4.21034 
12477 1 -0.282741 4.49607 5.08545 
12476 3 3.19905 -1.73906 -2.74423 
12475 1 1.25511 1.52346 -3.41788 
4563 1 -2.17064 2.81705 1.6537 
14826 1 -2.34492 1.13171 2.23302 
14824 1 2.76571 0.0677007 3.32231 
14825 3 -2.38255 -0.291017 -0.899192 
18618 1 3.66885 -5.11951 -1.61516 
18617 3 -5.43776 -2.79183 -4.17624 
15015 1 3.84486 2.0164 -4.80265 
15014 3 -3.93798 6.23869 -1.33288 
15013 1 2.28191 -1.44539 -2.05114 
17209 1 1.66668 1.57341 3.75029 
17210 3 2.78481 5.16283 -1.95006 
17551 1 -0.403975 0.231944 6.29158 
18616 1 -0.768181 2.07278 -0.462469 
17552 3 2.65578 -5.18022 -2.66362 
17553 1 -0.0159481 0.556569 0.935572 
6384 1 2.35655 2.00973 -5.03992 
17211 1 0.841012 8.12755 -3.80296 
861 1 -6.92316 3.57373 6.94365 
811 1 -0.805858 -2.95138 1.80411 
12988 1 2.07361 -0.39341 -7.65485 
19321 1 0.268129 2.62744 -2.32707 
17644 1 3.43258 -4.12688 -0.640816 
17645 3 -3.19902 2.16794 0.0504824 
17646 1 -1.15553 2.51259 -2.92299 
10234 1 -1.69812 -0.432082 -1.24357 
19323 1 2.04212 5.41441 -2.16974 
19322 2 -3.05678 -1.57645 1.55407 
6033 1 -2.21745 -1.98538 7.3972 
18985 1 -6.97278 -3.23465 3.86819 
18986 3 1.68331 0.45929 1.92027 
19660 1 0.523222 -3.00154 -3.20797 
18987 1 2.33921 1.36655 2.21924 
19661 2 0.368811 -0.561738 3.8261 
8914 1 -3.17011 2.92063 -3.42712 
12125 2 2.63623 3.63038 -2.04329 
12126 1 -5.14121 3.20574 1.73728 
12124 1 1.59624 -6.86495 6.22221 
19662 1 -3.68633 -0.433717 1.6803 
5970 1 -2.84493 0.933921 0.634258 
8432 3 2.07149 0.923094 1.78754 
8431 1 -5.36321 1.28978 -0.158523 
8433 1 1.59913 -0.526925 1.51516 
299 3 -2.25295 -0.450261 4.09142 
298 1 4.51544 2.18922 1.48031 
3111 1 -3.10864 -1.43572 -0.422219 
17791 1 0.363372 -7.60272 -3.74925 
722 2 -0.970335 0.815941 1.46798 
721 1 2.69996 1.43448 1.59152 
723 1 -6.88737 -1.33293 -2.39777 
3109 1 -2.87804 -3.45073 -7.08282 
3110 3 -3.74394 1.44686 -2.06203 
17792 2 -2.99727 2.61757 -3.21586 
17793 1 -1.86193 -1.17583 0.454183 
4562 2 -0.951407 -1.3996 1.63776 
4561 1 2.6422 -0.62004 -1.67122 
12145 1 -3.65545 8.42135 2.09571 
12146 2 -2.06132 3.87752 -2.85473 
12147 1 3.21887 -4.70778 -3.0704 
9218 2 3.63945 2.02691 -4.46618 
9219 1 -1.1463 3.90444 -1.41379 
17240 2 0.699091 -1.29164 2.62383 
17241 1 7.05109 1.15207 1.83352 
859 1 -2.66328 0.950846 1.1042 
17239 1 -5.63433 0.0577173 0.734057 
860 2 -0.716202 -1.41766 -0.493039 
9217 1 1.31509 -4.71247 1.98223 
14427 1 2.7215 -0.22252 -4.79113 
1939 1 0.623748 -8.50395 2.22762 
1940 2 2.74735 1.67826 -3.36567 
14426 3 -0.953905 0.179221 2.45828 
14425 1 2.54818 -5.98068 0.75793 
1941 1 -0.748672 -0.564507 -0.533035 
14290 1 -2.42872 -0.904338 1.42431 
14291 3 -0.973593 -0.519363 1.714 
14292 1 -2.58686 1.49103 2.94059 
6697 1 -1.09486 3.36414 0.484107 
4434 1 2.58393 -0.825559 -6.07344 
4433 2 -2.96955 -0.929092 -0.458683 
4432 1 2.37745 -1.75656 1.29821 
11015 2 -2.7618 -2.235 0.172669 
11016 1 -7.07558 2.41193 -2.35401 
10236 1 2.77981 -3.72316 -3.62915 
10235 3 -0.059523 -0.700972 3.46857 
20213 3 -0.320312 1.87068 0.515163 
20212 1 -1.87072 2.48032 -2.61309 
20154 1 0.0412902 3.94014 1.91171 
20153 2 3.95971 0.632493 1.00665 
20152 1 -3.15169 5.46119 -4.14808 
20214 1 0.212971 -4.63367 2.82158 
6032 2 1.04767 4.29963 0.71441 
6031 1 -6.80111 -3.05515 3.14127 
5968 1 -0.599617 0.536025 4.23408 
5969 3 -0.449623 0.558605 0.613254 
17417 2 1.77635 4.04554 -0.547543 
17416 1 -0.424671 -0.453383 1.11159 
17418 1 -7.16169 -4.82621 -2.87545 
10478 2 1.07493 -0.968555 4.26375 
10479 1 6.10108 -3.55946 8.73806 
10477 1 1.98843 -1.77736 1.62386 
1032 1 6.19399 -1.36742 0.528582 
11510 2 -0.849197 0.164468 -6.29065 
300 1 4.68914 -0.230932 3.51731 
11509 1 -0.780476 -0.966657 -11.2599 
18205 1 -2.67353 3.63323 -2.66595 
18206 2 -0.771687 3.25538 2.01482 