ITEM: TIMESTEP
30000000
ITEM: NUMBER OF ENTRIES
1846
ITEM: BOX BOUNDS pp pp pp
0 50
0 50
0 50
ITEM: ENTRIES c_binfo[1] c_binfo[2] c_binfo[3] 
3 21569 21570 
2 12416 12417 
2 12415 12416 
3 17767 17768 
3 15814 15815 
3 17768 17769 
3 14131 14132 
1 14131 17769 
3 14132 14133 
3 3647 3648 
3 3646 3647 
1 3646 15835 
2 15835 15836 
2 15836 15837 
3 21568 21569 
3 8653 8654 
1 8653 21568 
3 8654 8655 
2 3490 3491 
1 3490 8655 
2 3491 3492 
1 3492 13581 
2 17803 17804 
2 17804 17805 
3 5086 5087 
1 5086 13039 
3 13039 13040 
3 14206 14207 
2 5587 5588 
2 10417 10418 
1 11976 12415 
2 10418 10419 
1 10419 20623 
2 20623 20624 
1 13239 17805 
2 13238 13239 
3 19978 19979 
3 19979 19980 
1 12753 19980 
3 12752 12753 
3 11975 11976 
3 11974 11975 
1 3498 11974 
2 3497 3498 
2 3496 3497 
2 496 497 
1 496 3496 
2 5588 5589 
3 15815 15816 
2 4318 4319 
1 4318 15816 
2 4319 4320 
2 20624 20625 
1 4320 16749 
1 20193 20625 
2 16735 16736 
1 2061 14133 
2 2060 2061 
2 16736 16737 
3 12751 12752 
2 970 971 
1 970 12751 
2 971 972 
1 972 6385 
2 6385 6386 
2 497 498 
1 498 4081 
2 4081 4082 
2 4082 4083 
3 6508 6509 
1 6508 14085 
2 16748 16749 
1 6510 16747 
2 16747 16748 
3 6509 6510 
2 2059 2060 
1 2059 17014 
2 17014 17015 
2 17015 17016 
2 2911 2912 
1 2911 17016 
2 2912 2913 
2 14014 14015 
2 14015 14016 
2 20777 20778 
2 457 458 
2 458 459 
1 459 19855 
3 19855 19856 
3 19856 19857 
3 542 543 
3 541 542 
1 541 4779 
1 543 19857 
3 2456 2457 
3 2455 2456 
1 2455 15837 
2 10108 10109 
2 10109 10110 
1 10110 17250 
3 5087 5088 
3 12964 12965 
3 13040 13041 
3 14207 14208 
2 18178 18179 
2 13960 13961 
1 13960 14208 
2 17249 17250 
2 17248 17249 
1 11424 17248 
2 13580 13581 
2 13961 13962 
2 11423 11424 
2 13579 13580 
1 2604 13579 
2 2603 2604 
2 3302 3303 
2 3301 3302 
1 3301 12072 
2 12071 12072 
2 2602 2603 
1 2602 5406 
2 13237 13238 
2 9862 9863 
1 9862 13237 
2 9863 9864 
2 10571 10572 
2 10570 10571 
2 4969 4970 
1 4969 10570 
2 4970 4971 
1 4971 21012 
2 13882 13883 
3 4888 4889 
1 4888 16225 
2 16225 16226 
2 13883 13884 
2 16226 16227 
3 4889 4890 
3 12965 12966 
1 6060 12966 
2 6059 6060 
3 8050 8051 
1 3897 13041 
3 3896 3897 
3 3895 3896 
1 3895 8200 
3 8051 8052 
1 8052 9955 
2 8200 8201 
2 9955 9956 
2 8201 8202 
2 6058 6059 
1 6058 17167 
1 13962 14008 
2 2203 2204 
1 2203 5589 
2 14008 14009 
2 14009 14010 
2 6073 6074 
1 6073 14010 
2 6074 6075 
2 2204 2205 
2 1219 1220 
1 1219 8202 
2 20192 20193 
2 20191 20192 
2 9889 9890 
1 9889 20191 
1 2205 9609 
2 5405 5406 
2 5404 5405 
1 5404 8803 
2 8803 8804 
2 8804 8805 
2 3664 3665 
1 3664 8805 
1 9864 13641 
2 13640 13641 
2 13639 13640 
1 3894 13639 
2 21011 21012 
2 3893 3894 
1 13884 14416 
2 14416 14417 
2 14417 14418 
2 2968 2969 
1 2968 14418 
2 2969 2970 
1 1359 16227 
2 1358 1359 
2 15542 15543 
2 10813 10814 
2 10814 10815 
2 8704 8705 
1 8704 10815 
3 17167 17168 
3 17168 17169 
2 6386 6387 
2 8705 8706 
2 1220 1221 
1 1221 3291 
2 3290 3291 
2 3289 3290 
1 3289 12784 
2 12784 12785 
1 6387 12976 
1 705 1245 
2 1243 1244 
1 1243 9607 
2 9608 9609 
2 9607 9608 
2 1244 1245 
2 9890 9891 
2 3665 3666 
2 1852 1853 
1 1852 4083 
2 5162 5163 
1 9891 19350 
2 3892 3893 
1 3892 12703 
2 5161 5162 
2 12703 12704 
2 12704 12705 
2 19349 19350 
2 19348 19349 
2 13192 13193 
1 13192 19348 
2 4657 4658 
1 4657 5161 
2 4658 4659 
1 4659 6831 
2 12868 12869 
2 12869 12870 
1 2970 4654 
2 4654 4655 
2 4655 4656 
1 4656 17526 
2 20725 20726 
2 15541 15542 
1 11232 15541 
2 11231 11232 
2 11230 11231 
2 10789 10790 
1 10789 11230 
2 4778 4779 
2 4777 4778 
1 4777 11497 
2 11497 11498 
2 11498 11499 
2 6631 6632 
2 6632 6633 
1 5259 6633 
2 5642 5643 
2 5641 5642 
1 5641 19720 
2 19720 19721 
2 18245 18246 
1 6507 18244 
2 18244 18245 
1 11499 15600 
2 4255 4256 
3 15599 15600 
3 15598 15599 
1 8811 15598 
2 8810 8811 
2 18179 18180 
2 13195 13196 
2 4256 4257 
1 4257 5359 
2 5359 5360 
2 5360 5361 
1 5361 15415 
2 15415 15416 
2 13975 13976 
1 13975 18180 
2 15416 15417 
2 11422 11423 
1 9687 11422 
2 12070 12071 
2 2572 2573 
1 2572 12070 
2 19721 19722 
2 5258 5259 
2 5257 5258 
1 5257 15742 
2 15742 15743 
2 15743 15744 
2 10864 10865 
1 10864 15744 
2 6506 6507 
2 6505 6506 
1 6505 13003 
2 13003 13004 
2 13004 13005 
2 4261 4262 
1 4261 13005 
2 19045 19046 
2 16847 16848 
2 16846 16847 
1 2427 16846 
2 17771 17772 
2 17770 17771 
2 7202 7203 
2 7201 7202 
2 9956 9957 
2 8809 8810 
1 8809 11298 
2 11297 11298 
2 11296 11297 
1 9732 11296 
2 13976 13977 
1 7029 13977 
2 7028 7029 
2 7027 7028 
1 7027 17890 
2 17890 17891 
2 9686 9687 
2 2573 2574 
2 10865 10866 
2 9685 9686 
1 2370 9685 
2 2369 2370 
2 9271 9272 
1 9271 10866 
1 2574 7224 
2 2368 2369 
1 2368 4807 
2 4807 4808 
2 21010 21011 
1 14559 21010 
2 4262 4263 
1 4263 6408 
2 7223 7224 
2 6407 6408 
2 6406 6407 
1 6406 16608 
2 7222 7223 
2 6601 6602 
1 6601 7222 
2 14558 14559 
2 14557 14558 
1 14557 18949 
2 2426 2427 
2 2425 2426 
1 2425 5232 
2 5231 5232 
2 5230 5231 
1 4578 5230 
2 1357 1358 
1 1357 9421 
2 9421 9422 
2 370 371 
1 370 17770 
2 371 372 
1 372 20863 
2 20863 20864 
2 377 378 
2 20864 20865 
2 20245 20246 
3 1273 1274 
1 1273 20245 
3 1274 1275 
2 20246 20247 
2 9731 9732 
2 16060 16061 
1 16060 17169 
2 16061 16062 
2 9833 9834 
1 9159 16062 
2 17891 17892 
1 2235 9957 
2 9730 9731 
2 487 488 
1 487 9730 
2 488 489 
2 18311 18312 
2 2234 2235 
2 2233 2234 
1 2233 18312 
2 16879 16880 
1 16879 17892 
2 6022 6023 
1 6022 6075 
2 16880 16881 
1 3666 15247 
2 6023 6024 
1 6024 21097 
2 4808 4809 
2 21097 21098 
1 4809 5691 
2 5690 5691 
2 11584 11585 
1 11584 16881 
2 21098 21099 
2 15247 15248 
2 5689 5690 
1 5689 8461 
2 15248 15249 
1 13911 15249 
2 3206 3207 
2 3205 3206 
1 3205 12705 
2 13426 13427 
1 13426 15555 
2 6602 6603 
1 6603 13428 
2 13427 13428 
2 4577 4578 
2 18949 18950 
2 9422 9423 
2 18950 18951 
2 5590 5591 
1 5590 18951 
2 5591 5592 
1 5592 11353 
2 3617 3618 
2 376 377 
1 9423 9661 
1 9663 10611 
2 9661 9662 
2 9662 9663 
1 3618 20865 
2 226 227 
2 227 228 
2 83 84 
2 82 83 
2 8197 8198 
1 8197 11481 
2 8198 8199 
2 5417 5418 
3 11479 11480 
1 11479 18814 
3 11480 11481 
2 18814 18815 
2 18815 18816 
2 15496 15497 
1 15496 18816 
2 17794 17795 
2 17795 17796 
3 20273 20274 
2 5416 5417 
1 5416 20274 
2 2119 2120 
1 2119 17796 
2 21055 21056 
2 21056 21057 
3 20272 20273 
1 20272 21055 
2 6712 6713 
2 13196 13197 
2 6713 6714 
1 5487 6714 
2 15137 15138 
2 4705 4706 
2 18542 18543 
2 18541 18542 
1 12234 18541 
2 12233 12234 
2 1832 1833 
1 915 19722 
2 4706 4707 
2 15497 15498 
2 583 584 
1 583 4707 
2 584 585 
2 12139 12140 
1 12139 15498 
2 12140 12141 
2 914 915 
2 913 914 
1 913 18528 
2 15907 15908 
2 19046 19047 
2 2120 2121 
2 20251 20252 
1 2121 20251 
2 20252 20253 
2 2041 2042 
1 2041 19047 
1 20253 20580 
1 21057 21060 
2 21059 21060 
2 21058 21059 
1 21058 21169 
2 21169 21170 
2 13664 13665 
2 16201 16202 
2 16202 16203 
1 7203 16203 
2 16499 16500 
2 16498 16499 
1 13356 16498 
2 13355 13356 
2 13354 13355 
1 10590 15417 
2 5485 5486 
1 5485 12600 
2 15136 15137 
1 15136 20092 
2 20092 20093 
2 12232 12233 
1 7608 12232 
2 7607 7608 
2 20093 20094 
2 7372 7373 
1 7372 20094 
2 7373 7374 
2 7606 7607 
1 7606 11389 
2 5486 5487 
2 9272 9273 
2 10589 10590 
2 11390 11391 
2 11389 11390 
1 585 14365 
2 14365 14366 
2 14366 14367 
1 3087 14367 
2 3086 3087 
2 10588 10589 
1 10588 17821 
2 17821 17822 
2 18527 18528 
2 2042 2043 
1 9273 14361 
2 18526 18527 
1 11040 18526 
2 11039 11040 
2 11038 11039 
1 11038 21477 
1 2043 4378 
2 4378 4379 
2 9596 9597 
2 9595 9596 
1 4380 17538 
2 4379 4380 
2 21170 21171 
1 4377 21171 
2 4376 4377 
2 4375 4376 
2 1867 1868 
1 1867 4375 
1 1701 19875 
2 12874 12875 
1 12876 20247 
2 12875 12876 
2 19874 19875 
2 19873 19874 
2 9832 9833 
1 9832 10842 
2 3859 3860 
1 3859 13354 
2 3860 3861 
1 489 11638 
2 11638 11639 
1 7374 19059 
1 3861 13296 
2 13295 13296 
2 19058 19059 
2 19057 19058 
1 15378 19057 
2 15377 15378 
2 3230 3231 
2 17822 17823 
2 3229 3230 
1 3229 11391 
2 3085 3086 
1 3085 18813 
2 10345 10346 
1 3267 10345 
2 3265 3266 
1 3265 17823 
2 3266 3267 
2 7880 7881 
2 14360 14361 
2 16606 16607 
2 18812 18813 
2 16607 16608 
2 21475 21476 
2 2527 2528 
1 2527 14359 
2 15550 15551 
1 15550 16606 
1 2529 5223 
2 2528 2529 
2 7879 7880 
1 7879 21475 
2 21476 21477 
2 14359 14360 
2 13978 13979 
1 13978 17536 
1 13566 13980 
2 15545 15546 
2 17536 17537 
1 7701 15552 
2 15544 15545 
2 4576 4577 
1 4576 15546 
2 15551 15552 
2 13979 13980 
2 17537 17538 
2 16483 16484 
2 1868 1869 
2 1700 1701 
2 3616 3617 
1 3616 4542 
2 4541 4542 
1 1314 1869 
2 1312 1313 
1 1312 16483 
2 1313 1314 
1 2358 15544 
2 14428 14429 
2 14429 14430 
2 6395 6396 
2 14297 14298 
2 15908 15909 
1 15909 19692 
2 19691 19692 
2 19690 19691 
2 10463 10464 
2 10462 10463 
2 4264 4265 
2 4265 4266 
2 4688 4689 
2 4687 4688 
2 16765 16766 
1 16767 20631 
2 16766 16767 
1 4689 20022 
2 16604 16605 
2 1831 1832 
1 1831 16605 
2 6394 6395 
1 6394 7762 
2 7762 7763 
2 7763 7764 
2 1717 1718 
1 1717 7764 
2 1718 1719 
2 14296 14297 
1 14296 19438 
2 19438 19439 
2 8674 8675 
1 8674 12141 
2 19439 19440 
1 9117 19440 
2 19013 19014 
2 9116 9117 
2 19012 19013 
2 13807 13808 
1 13807 19012 
2 13808 13809 
2 13663 13664 
1 13663 13809 
2 8161 8162 
1 4266 5730 
2 5728 5729 
1 5728 15955 
2 15955 15956 
2 5729 5730 
2 8162 8163 
2 15205 15206 
2 15206 15207 
1 15207 21291 
2 20630 20631 
2 20021 20022 
2 20020 20021 
1 17682 20020 
2 17681 17682 
2 17680 17681 
2 2989 2990 
1 2989 17680 
2 12599 12600 
2 16603 16604 
1 4788 16603 
2 4787 4788 
2 4786 4787 
1 4786 14599 
2 14599 14600 
2 14600 14601 
1 1719 13123 
2 13123 13124 
2 13124 13125 
1 13125 21145 
2 21145 21146 
2 21146 21147 
2 8675 8676 
1 7749 8676 
2 9115 9116 
1 9115 16107 
2 7748 7749 
2 16106 16107 
2 16105 16106 
1 15786 16105 
2 1166 1167 
2 7747 7748 
2 6214 6215 
1 6214 7747 
2 1165 1166 
1 1165 6184 
2 15785 15786 
2 20578 20579 
1 1167 20578 
2 20579 20580 
2 7804 7805 
1 7804 9597 
2 17272 17273 
2 17273 17274 
2 2065 2066 
1 2065 17274 
2 5171 5172 
2 5170 5171 
1 5172 7768 
2 2066 2067 
1 7806 12342 
2 7805 7806 
2 7768 7769 
2 15956 15957 
2 7769 7770 
2 11465 11466 
2 3788 3789 
2 3787 3788 
1 3787 11466 
2 11464 11465 
2 11729 11730 
2 11728 11729 
1 11728 12502 
2 12502 12503 
2 12503 12504 
2 2990 2991 
1 2991 16176 
2 11983 11984 
2 12598 12599 
1 12504 12598 
2 16174 16175 
2 16175 16176 
1 3231 12297 
2 7417 7418 
1 7417 14601 
2 12296 12297 
2 7418 7419 
1 687 7419 
2 7741 7742 
1 7741 16174 
2 18811 18812 
2 21359 21360 
2 6215 6216 
1 6216 21360 
2 7292 7293 
2 6184 6185 
2 15784 15785 
2 21358 21359 
1 7293 18811 
1 4959 7881 
2 18388 18389 
3 1981 1982 
1 1981 2067 
2 16904 16905 
2 16903 16904 
1 6186 16903 
2 6185 6186 
2 12341 12342 
3 1982 1983 
1 16905 18085 
2 11888 11889 
2 12340 12341 
1 6183 11889 
2 6182 6183 
2 6181 6182 
1 6181 12340 
2 1699 1700 
2 11887 11888 
1 11887 14311 
3 14311 14312 
1 7542 19014 
2 7540 7541 
1 7540 14743 
3 14743 14744 
2 7541 7542 
1 8163 13413 
2 980 981 
2 979 980 
1 979 13411 
2 13412 13413 
2 13411 13412 
2 20629 20630 
1 20629 21295 
2 21295 21296 
2 21290 21291 
2 21289 21290 
2 21296 21297 
1 15987 21297 
2 1019 1020 
2 1018 1019 
1 1018 3003 
2 4327 4328 
2 3001 3002 
1 3001 4329 
2 4328 4329 
2 3002 3003 
2 11984 11985 
2 15986 15987 
2 15985 15986 
1 15985 18946 
2 18946 18947 
2 18947 18948 
3 556 557 
1 556 18948 
1 15201 21147 
2 15199 15200 
2 15200 15201 
2 6574 6575 
1 6574 15199 
2 6575 6576 
1 1023 15784 
2 10799 10800 
2 1022 1023 
2 10798 10799 
2 1021 1022 
1 1021 10798 
3 14744 14745 
2 20084 20085 
2 20083 20084 
1 1521 14016 
2 1520 1521 
2 2803 2804 
2 2804 2805 
2 21067 21068 
1 2805 21067 
2 3953 3954 
1 15210 21069 
2 21068 21069 
2 3952 3953 
1 3952 17181 
2 17180 17181 
2 17179 17180 
2 10978 10979 
2 15208 15209 
2 10979 10980 
2 12976 12977 
2 1942 1943 
1 1942 12978 
2 1943 1944 
2 12977 12978 
1 1944 6735 
2 1853 1854 
1 1854 10264 
2 14084 14085 
2 10264 10265 
2 14083 14084 
1 13350 14083 
2 10265 10266 
2 13349 13350 
2 8297 8298 
2 8296 8297 
2 13193 13194 
2 7286 7287 
2 7285 7286 
1 7285 8296 
1 4728 13194 
1 2913 8298 
2 20726 20727 
2 20776 20777 
2 7795 7796 
2 1519 1520 
1 1519 7795 
2 7796 7797 
2 6830 6831 
2 20131 20132 
1 20131 20727 
2 6829 6830 
1 6829 8247 
2 20132 20133 
2 8582 8583 
2 6734 6735 
2 6733 6734 
1 6733 13324 
2 5353 5354 
1 5353 10266 
2 332 333 
2 5354 5355 
1 5355 9160 
2 9160 9161 
2 9161 9162 
2 13324 13325 
2 13348 13349 
1 13348 14317 
2 14317 14318 
1 7287 8761 
2 8761 8762 
2 14318 14319 
1 2541 14319 
2 2540 2541 
2 8762 8763 
2 653 654 
1 8763 19911 
2 19910 19911 
2 652 653 
2 11912 11913 
2 11911 11912 
2 1289 1290 
2 14135 14136 
3 13066 13067 
1 13066 14136 
3 13067 13068 
2 14134 14135 
2 6745 6746 
1 6745 13068 
2 331 332 
1 331 17920 
2 17920 17921 
2 2539 2540 
2 17921 17922 
1 1434 17922 
2 1433 1434 
2 334 335 
1 334 2539 
2 335 336 
1 336 1516 
2 1516 1517 
2 1432 1433 
2 15209 15210 
2 19909 19910 
1 19909 21154 
2 21154 21155 
2 21155 21156 
1 1989 21156 
2 1988 1989 
2 1288 1289 
2 1517 1518 
2 1987 1988 
1 1987 4299 
2 9158 9159 
2 9157 9158 
2 9881 9882 
2 9880 9881 
1 9880 13587 
2 18310 18311 
1 3066 18310 
2 12785 12786 
1 267 8692 
2 8692 8693 
2 266 267 
2 8693 8694 
2 3065 3066 
2 3064 3065 
2 2791 2792 
1 2791 3064 
2 265 266 
1 265 8706 
1 2295 21099 
2 704 705 
2 703 704 
1 703 6558 
1 2397 12786 
2 6557 6558 
2 2294 2295 
2 2293 2294 
1 2293 8187 
2 2396 2397 
2 6556 6557 
1 6556 19495 
2 2395 2396 
1 2395 16609 
2 16609 16610 
2 19495 19496 
2 11941 11942 
2 4727 4728 
2 4726 4727 
1 4726 19675 
2 19675 19676 
2 13910 13911 
2 13909 13910 
1 11796 13909 
2 11795 11796 
2 11794 11795 
1 11794 11941 
2 1183 1184 
1 1183 3207 
2 1184 1185 
2 17525 17526 
2 8246 8247 
2 8245 8246 
1 8245 11685 
1 1185 5124 
2 17524 17525 
2 11531 11532 
2 11530 11531 
1 11530 17524 
2 178 179 
1 178 11532 
2 5123 5124 
2 10790 10791 
1 15090 20133 
2 10610 10611 
1 10791 19297 
2 19297 19298 
2 19298 19299 
2 526 527 
1 526 19299 
2 15089 15090 
2 527 528 
2 10609 10610 
2 15809 15810 
2 17420 17421 
2 17419 17420 
2 13586 13587 
2 4175 4176 
2 13585 13586 
2 8581 8582 
2 643 644 
1 643 8694 
2 644 645 
1 645 11401 
2 11401 11402 
2 4174 4175 
2 11402 11403 
2 13325 13326 
1 13326 20566 
2 16610 16611 
1 16611 21337 
2 21337 21338 
2 21338 21339 
2 19000 19001 
1 19000 21339 
2 11942 11943 
2 19676 19677 
2 19496 19497 
2 11968 11969 
1 11968 19497 
2 11969 11970 
1 6588 19677 
2 20576 20577 
2 6587 6588 
2 11684 11685 
2 11683 11684 
1 11683 11710 
2 11710 11711 
2 5122 5123 
1 5122 20575 
2 20575 20576 
2 6586 6587 
1 6586 9076 
2 11711 11712 
2 179 180 
2 15088 15089 
1 2274 15088 
2 2273 2274 
1 180 6606 
2 6605 6606 
1 528 9696 
2 6604 6605 
1 6604 7230 
2 2272 2273 
1 2272 4267 
2 4267 4268 
2 9694 9695 
1 9694 18448 
2 9695 9696 
2 6746 6747 
2 5617 5618 
1 5617 19002 
1 11403 12174 
2 20566 20567 
2 20567 20568 
1 17730 20568 
2 19001 19002 
2 17729 17730 
2 7171 7172 
1 7171 9162 
2 7172 7173 
1 7173 11256 
2 5320 5321 
1 5320 11970 
2 11255 11256 
2 5321 5322 
2 661 662 
1 661 5322 
2 662 663 
2 5618 5619 
2 9076 9077 
2 9077 9078 
1 9078 20922 
2 20921 20922 
2 6751 6752 
1 6751 11712 
2 20920 20921 
2 7229 7230 
2 6752 6753 
2 4268 4269 
2 4564 4565 
1 4564 6753 
2 4565 4566 
1 4566 17230 
2 7228 7229 
1 7228 12555 
2 5237 5238 
2 5236 5237 
2 17728 17729 
2 1645 1646 
1 1647 17728 
2 1646 1647 
2 11254 11255 
1 6534 11254 
2 6533 6534 
2 6532 6533 
1 663 6154 
1 1722 20920 
2 6154 6155 
2 17867 17868 
1 6156 17866 
2 17866 17867 
2 6155 6156 
2 1721 1722 
2 1720 1721 
2 17230 17231 
2 4298 4299 
2 4297 4298 
1 4297 17460 
2 17231 17232 
2 17459 17460 
3 18674 18675 
3 18673 18674 
1 17868 18673 
2 17458 17459 
3 6964 6965 
3 3910 3911 
1 3910 6966 
3 6965 6966 
2 16856 16857 
2 16855 16856 
2 10840 10841 
1 10840 16855 
2 3241 3242 
2 10841 10842 
2 3242 3243 
1 10248 16857 
1 4251 17886 
2 17885 17886 
2 17884 17885 
1 11640 17884 
2 8954 8955 
2 8953 8954 
1 8953 9157 
2 11639 11640 
1 8955 17739 
2 15376 15377 
2 2792 2793 
2 1387 1388 
1 1387 11586 
2 1388 1389 
1 1389 11751 
1 10347 18027 
2 8462 8463 
2 11585 11586 
2 10346 10347 
2 8461 8462 
2 8186 8187 
1 8463 18729 
2 5221 5222 
1 1014 5221 
2 5222 5223 
2 18728 18729 
2 8494 8495 
1 8494 15553 
2 15553 15554 
2 8495 8496 
2 15554 15555 
2 18727 18728 
2 1013 1014 
1 8496 8907 
2 8237 8238 
2 9760 9761 
1 9760 15445 
2 9761 9762 
2 8236 8237 
2 7699 7700 
1 7699 8236 
1 8238 17626 
2 2357 2358 
2 17626 17627 
1 9762 11355 
2 7700 7701 
2 2356 2357 
2 11354 11355 
2 11353 11354 
2 1618 1619 
1 1618 2356 
2 1619 1620 
1 1620 2385 
2 4540 4541 
1 4540 13569 
2 13568 13569 
2 10243 10244 
1 10243 15657 
2 10244 10245 
1 10245 10609 
2 13567 13568 
2 2248 2249 
1 2248 13567 
2 196 197 
1 196 12309 
2 12308 12309 
2 197 198 
2 2249 2250 
2 15808 15809 
2 12307 12308 
2 15977 15978 
2 15976 15977 
2 8122 8123 
1 8122 15978 
2 8123 8124 
2 10247 10248 
2 4250 4251 
2 17737 17738 
1 17737 19426 
2 19426 19427 
2 10246 10247 
2 4249 4250 
1 4249 17377 
2 16975 16976 
1 16975 19428 
2 17377 17378 
2 19427 19428 
2 17738 17739 
2 8185 8186 
1 8185 11595 
2 17378 17379 
2 11750 11751 
2 11749 11750 
2 8944 8945 
1 8944 11749 
2 14126 14127 
2 14125 14126 
1 9672 14125 
2 9671 9672 
2 8945 8946 
2 11594 11595 
1 2793 9670 
2 9670 9671 
2 9616 9617 
1 9616 18727 
2 11593 11594 
1 6129 11593 
2 9617 9618 
1 8493 9618 
2 8492 8493 
2 6128 6129 
2 8491 8492 
1 8491 15003 
2 5384 5385 
1 5385 11943 
2 15445 15446 
2 8906 8907 
2 8905 8906 
1 8905 10416 
2 10415 10416 
2 15446 15447 
2 10414 10415 
1 10414 19848 
2 17627 17628 
2 14257 14258 
1 14257 20577 
1 15447 21048 
2 2384 2385 
2 15656 15657 
2 21047 21048 
2 15655 15656 
2 3769 3770 
1 3769 15655 
2 3770 3771 
2 2383 2384 
1 2383 12138 
2 12137 12138 
2 18449 18450 
2 18448 18449 
2 16976 16977 
2 15673 15674 
1 15673 16977 
2 410 411 
2 409 410 
2 15674 15675 
1 8004 14127 
2 8003 8004 
2 8002 8003 
1 8002 9166 
2 9166 9167 
2 12173 12174 
2 12172 12173 
1 12172 17907 
2 6127 6128 
1 6127 20832 
2 20831 20832 
2 20830 20831 
2 9895 9896 
1 9895 20830 
2 9896 9897 
2 5383 5384 
1 5383 10836 
2 15002 15003 
2 15001 15002 
1 15001 17467 
2 17467 17468 
2 799 800 
1 799 10834 
2 19847 19848 
2 19846 19847 
2 5704 5705 
1 5704 19846 
2 10834 10835 
2 800 801 
2 10835 10836 
2 5705 5706 
2 17468 17469 
1 14259 17541 
2 17540 17541 
2 14258 14259 
2 21046 21047 
1 17070 21046 
2 12554 12555 
2 17069 17070 
2 17068 17069 
2 15214 15215 
1 15214 17068 
2 15215 15216 
2 17539 17540 
1 3204 17539 
2 12553 12554 
1 12553 20062 
1 2826 3771 
2 2825 2826 
2 2824 2825 
1 2664 2824 
3 2663 2664 
3 2662 2663 
1 2662 5757 
2 20062 20063 
2 1339 1340 
2 1340 1341 
2 9167 9168 
3 5974 5975 
1 5974 9168 
3 5975 5976 
1 5976 8659 
3 8659 8660 
2 40 41 
1 40 17905 
2 17906 17907 
2 41 42 
2 17905 17906 
1 6561 13657 
3 6560 6561 
2 13657 13658 
2 13658 13659 
1 5619 13659 
1 801 3318 
2 3317 3318 
2 3316 3317 
1 7680 17469 
2 3203 3204 
2 3202 3203 
1 3202 16125 
2 16124 16125 
2 16123 16124 
2 20063 20064 
1 14802 15216 
1 3912 16123 
3 18596 18597 
1 18597 20064 
3 18595 18596 
3 3911 3912 
3 8660 8661 
3 6559 6560 
2 187 188 
2 188 189 
1 189 2382 
2 2381 2382 
1 3555 15376 
2 21454 21455 
1 5052 11730 
1 10269 21454 
2 10268 10269 
2 21455 21456 
2 5051 5052 
2 14896 14897 
2 5050 5051 
1 5050 13089 
2 14897 14898 
2 13294 13295 
1 13294 21456 
2 18026 18027 
2 3554 3555 
1 9009 12295 
2 12295 12296 
2 3553 3554 
1 3553 12916 
2 12916 12917 
2 1588 1589 
1 1588 9007 
2 12917 12918 
2 1589 1590 
2 9007 9008 
2 9008 9009 
2 18025 18026 
2 7291 7292 
1 7291 20040 
2 20039 20040 
2 8555 8556 
1 8556 20038 
2 20038 20039 
2 1012 1013 
1 1012 5884 
2 3466 3467 
1 3466 18025 
2 4958 4959 
2 18085 18086 
2 4957 4958 
1 4957 7587 
2 7586 7587 
2 13564 13565 
1 13564 17815 
2 7585 7586 
1 7585 20478 
2 13565 13566 
2 17815 17816 
2 17816 17817 
2 18086 18087 
2 6841 6842 
1 6841 17817 
2 11680 11681 
2 16484 16485 
1 2721 16485 
2 2720 2721 
2 2719 2720 
1 2719 4675 
2 11681 11682 
1 6570 11682 
2 4675 4676 
1 7707 14430 
2 7706 7707 
2 10078 10079 
2 7705 7706 
1 7705 10078 
2 10079 10080 
2 19084 19085 
3 14312 14313 
2 10847 10848 
2 10846 10847 
2 8746 8747 
1 8746 10246 
2 8747 8748 
1 8748 10510 
2 10510 10511 
2 10267 10268 
2 9988 9989 
1 9988 10267 
2 9989 9990 
1 9990 13282 
2 4625 4626 
1 3165 4624 
2 4624 4625 
2 3164 3165 
2 5563 5564 
1 5563 17379 
2 13282 13283 
2 13283 13284 
1 8475 12918 
2 8474 8475 
2 8473 8474 
1 8473 9334 
2 9334 9335 
2 9335 9336 
1 1590 3739 
1 4314 8946 
2 5884 5885 
2 3467 3468 
2 3739 3740 
2 8554 8555 
2 3991 3992 
1 3991 8554 
2 3992 3993 
1 555 3468 
2 554 555 
1 3993 14299 
2 553 554 
1 553 13780 
2 13780 13781 
2 5885 5886 
2 14299 14300 
2 2626 2627 
1 2626 17628 
2 2627 2628 
2 20477 20478 
2 20476 20477 
2 14017 14018 
1 14017 20476 
1 2532 5886 
2 14018 14019 
2 2531 2532 
1 14019 18549 
2 2530 2531 
1 2530 13398 
1 2628 19378 
2 12136 12137 
2 6842 6843 
1 6843 16438 
2 16438 16439 
2 16439 16440 
2 4676 4677 
1 12363 16440 
1 2250 19423 
2 19423 19424 
1 48 4677 
2 19424 19425 
2 2479 2480 
1 2479 19425 
2 47 48 
2 19085 19086 
2 2480 2481 
2 10511 10512 
1 1641 10512 
2 1640 1641 
2 3163 3164 
2 1639 1640 
1 1639 13735 
2 5564 5565 
2 13735 13736 
1 10569 13284 
1 5565 18894 
2 18893 18894 
2 10568 10569 
2 18892 18893 
1 13320 18892 
2 10567 10568 
1 9336 19611 
1 6867 10567 
2 13781 13782 
2 4313 4314 
2 4312 4313 
1 4312 11932 
2 11932 11933 
2 11933 11934 
2 19610 19611 
2 19609 19610 
2 18637 18638 
1 18637 19609 
2 5854 5855 
1 5854 13782 
2 18638 18639 
2 5855 5856 
1 7740 11934 
1 5856 11382 
2 13397 13398 
2 13396 13397 
1 13396 14463 
2 14462 14463 
2 18548 18549 
2 18547 18548 
1 1077 12136 
2 19378 19379 
2 19379 19380 
2 1076 1077 
2 13873 13874 
1 13873 19380 
2 13874 13875 
2 12362 12363 
2 12361 12362 
1 12361 20326 
2 20326 20327 
2 9646 9647 
1 9646 18547 
2 9647 9648 
2 20327 20328 
1 13875 16596 
2 1075 1076 
3 5756 5757 
1 2481 18432 
3 18431 18432 
3 18430 18431 
1 5721 18430 
3 5720 5721 
2 13736 13737 
3 5128 5129 
1 5128 13737 
2 13319 13320 
3 5129 5130 
2 13318 13319 
1 13318 16327 
2 16327 16328 
2 16328 16329 
1 7122 16329 
2 7739 7740 
2 7738 7739 
1 7738 9798 
2 9797 9798 
2 9796 9797 
2 7679 7680 
2 7678 7679 
2 11381 11382 
2 11380 11381 
2 14461 14462 
1 14461 18108 
2 18107 18108 
2 18106 18107 
3 742 743 
1 742 18106 
3 743 744 
2 2972 2973 
1 2973 16594 
2 16594 16595 
2 16595 16596 
3 14801 14802 
3 14800 14801 
1 10398 14800 
3 10397 10398 
3 10396 10397 
3 5755 5756 
1 4602 5755 
3 4601 4602 
3 4600 4601 
1 4600 11439 
3 11438 11439 
2 7121 7122 
2 7120 7121 
1 744 17136 
3 17135 17136 
3 17134 17135 
2 2971 2972 
3 19505 19506 
3 19504 19505 
2 2380 2381 
2 10481 10482 
2 10480 10481 
1 10480 14898 
2 18500 18501 
2 18499 18500 
2 12457 12458 
1 12457 18499 
3 557 558 
2 686 687 
2 13088 13089 
2 7742 7743 
1 7743 17086 
2 17086 17087 
2 17087 17088 
1 558 12666 
2 685 686 
1 685 17155 
2 1052 1053 
2 17156 17157 
2 14809 14810 
1 14809 17157 
1 6576 13429 
2 13429 13430 
2 13430 13431 
1 13431 14097 
2 17155 17156 
2 12665 12666 
2 1051 1052 
1 1051 21358 
1 1053 17565 
2 17564 17565 
2 6232 6233 
1 6232 10800 
2 6233 6234 
1 17394 18087 
1 6234 14490 
2 17393 17394 
2 17563 17564 
2 14096 14097 
2 6568 6569 
2 6569 6570 
3 445 446 
1 445 18390 
3 446 447 
2 17392 17393 
2 7639 7640 
1 7639 17392 
2 18389 18390 
2 13087 13088 
1 5814 13087 
2 5813 5814 
2 5812 5813 
1 5812 16008 
1 9123 17088 
2 9122 9123 
2 12458 12459 
3 4738 4739 
1 4738 12459 
3 4739 4740 
2 16007 16008 
2 9121 9122 
1 9121 18789 
2 18788 18789 
2 14810 14811 
2 3740 3741 
1 13386 14811 
1 3741 4764 
2 13385 13386 
2 13384 13385 
1 4731 13384 
2 4763 4764 
2 14300 14301 
2 14489 14490 
1 3315 17563 
2 3314 3315 
2 3313 3314 
1 3313 18819 
2 18818 18819 
2 14488 14489 
2 18817 18818 
2 14095 14096 
2 3949 3950 
1 3949 14095 
2 7640 7641 
2 20851 20852 
2 3079 3080 
1 3079 20851 
2 3080 3081 
2 46 47 
1 46 922 
2 922 923 
2 16006 16007 
2 11219 11220 
2 11218 11219 
1 11218 16006 
2 1174 1175 
1 1174 4740 
1 11220 18529 
2 18529 18530 
2 17414 17415 
2 4730 4731 
2 18787 18788 
1 18787 21120 
2 4762 4763 
1 4762 16189 
2 16189 16190 
2 16190 16191 
1 9750 16191 
2 21119 21120 
2 21118 21119 
1 15006 21118 
2 15005 15006 
2 4729 4730 
2 1276 1277 
1 1276 4729 
2 337 338 
1 337 14301 
2 338 339 
1 339 16794 
2 1277 1278 
1 1278 7249 
2 7249 7250 
2 7250 7251 
1 3465 18817 
2 3464 3465 
2 3463 3464 
2 9749 9750 
2 16793 16794 
2 18418 18419 
2 18419 18420 
2 923 924 
3 12826 12827 
3 12827 12828 
3 11437 11438 
2 17413 17414 
2 6866 6867 
2 6865 6866 
1 18639 19275 
2 18530 18531 
2 19274 19275 
2 19273 19274 
2 10939 10940 
1 10939 19273 
2 10940 10941 
2 16792 16793 
2 15457 15458 
1 15457 16792 
2 15458 15459 
2 9748 9749 
1 1368 9748 
2 1367 1368 
2 1366 1367 
1 1366 16761 
3 16760 16761 
1 12930 15459 
1 12537 20328 
3 5719 5720 
1 5719 17550 
3 12536 12537 
3 12535 12536 
1 7899 12535 
3 7898 7899 
3 17549 17550 
3 17548 17549 
3 16759 16760 
1 4587 16759 
3 12929 12930 
3 12928 12929 
1 12928 19506 
3 7897 7898 
3 19598 19599 
2 18463 18464 
1 18463 19599 
3 19597 19598 
2 18464 18465 
2 1306 1307 
1 1306 18465 
2 968 969 
2 1307 1308 
2 12664 12665 
2 967 968 
1 447 4635 
3 4634 4635 
3 4633 4634 
2 17873 17874 
1 10014 10413 
2 10411 10412 
1 10411 17872 
2 17872 17873 
2 10412 10413 
3 10013 10014 
2 7235 7236 
2 3950 3951 
1 3951 21202 
2 21202 21203 
2 7234 7235 
1 7234 20853 
3 10012 10013 
2 21203 21204 
2 20852 20853 
2 1175 1176 
2 15004 15005 
1 1449 15004 
2 1448 1449 
2 1447 1448 
1 1447 1758 
3 1757 1758 
3 328 329 
1 328 7251 
3 329 330 
3 4586 4587 
3 4585 4586 
3 1756 1757 
