ITEM: TIMESTEP
30000000
ITEM: NUMBER OF ATOMS
2421
ITEM: BOX BOUNDS pp pp pp
0.0000000000000000e+00 5.0000000000000000e+01
0.0000000000000000e+00 5.0000000000000000e+01
0.0000000000000000e+00 5.0000000000000000e+01
ITEM: ATOMS id type vx vy vz 
10331 2 1.33351 3.46854 0.589141 
10330 1 -4.95813 -0.136342 -1.57708 
10758 1 0.689772 -1.23781 -2.88682 
10757 3 0.2638 2.24277 1.72216 
5659 1 0.756106 -0.384631 0.843334 
20764 1 1.63875 2.45872 -8.2117 
5660 2 -1.67305 1.679 -5.77031 
5661 1 -0.607063 0.727305 -4.19982 
1467 1 4.33009 -1.92146 -2.4579 
1466 2 1.95802 0.803661 5.90528 
1975 1 -0.587487 0.906298 0.433021 
1465 1 -3.66188 1.60965 0.428396 
20418 1 -0.145813 -0.079729 3.28894 
20417 3 1.19786 2.15512 -1.42652 
20416 1 -7.22034 4.85353 2.55863 
1976 2 1.80504 1.29031 -5.98772 
1977 1 0.522487 -4.75532 2.88748 
10756 1 4.54258 -2.03609 0.0914453 
3444 1 -6.79713 -0.444891 -3.14439 
3443 3 2.68964 -1.47402 4.34484 
14988 1 -1.77397 6.68074 -2.54879 
16374 1 1.23912 1.44703 -3.87949 
16373 3 -1.64088 -2.89675 1.39033 
3442 1 -5.36991 -9.14334 -1.57842 
4774 1 -0.163016 3.86946 -5.79985 
4775 2 2.31947 -1.24879 0.623853 
19843 1 -2.51199 3.19389 0.197827 
19844 3 -0.10484 -0.0565683 0.925764 
4776 1 -0.543856 0.236348 -1.85521 
12056 3 0.72324 -1.41128 -3.56501 
12055 1 -4.95038 -4.43201 -3.01984 
1492 1 2.96335 0.111121 1.71356 
20590 1 -2.47364 4.86795 4.32058 
1493 2 -1.69467 2.5647 3.0197 
1494 1 -4.63421 3.53167 -4.29243 
20591 3 1.05897 2.1823 -0.752295 
7220 3 -1.20062 -2.80371 0.747756 
357 1 0.859884 -4.82193 -4.93082 
9210 1 -0.892216 9.39447e-05 -1.87205 
1071 1 1.90739 -2.23301 0.0358871 
1070 3 1.18906 -1.77414 -0.290089 
1069 1 -3.03695 2.13506 -1.55221 
5293 1 6.38918 5.86603 3.57701 
16372 1 -2.57047 3.37381 -6.64742 
16423 1 -2.01571 -2.51778 6.23446 
8015 3 -0.812005 -0.977923 1.40333 
4446 1 -0.933748 -3.55933 0.341081 
8014 1 1.48718 -0.617905 -3.67286 
3834 1 2.11522 2.66333 -2.16792 
15117 1 -3.80796 -3.9385 2.15204 
3833 2 -0.882907 3.08186 -2.30364 
7219 1 5.23262 -4.36485 4.32494 
18622 1 -1.93242 7.223 3.8841 
356 2 -0.696444 1.78841 -4.22303 
355 1 2.35297 0.878772 5.71803 
7425 1 1.52746 -1.26176 -4.14712 
18623 3 6.10962 1.48503 -1.34971 
15116 3 -1.34444 2.08052 -2.25202 
11320 1 0.980672 0.906629 2.12842 
18624 1 -2.54315 1.60155 4.70219 
21028 1 3.61777 -6.91861 2.17598 
21029 3 1.15812 -1.97585 -1.75162 
4120 1 3.39991 -2.79315 -2.14723 
4122 1 0.835615 -0.162303 3.2544 
21030 1 -0.366971 1.16442 1.84516 
3750 1 -3.09025 -1.93327 2.22781 
4121 2 -2.74999 -1.71077 3.00145 
3749 3 1.63058 1.74645 2.49816 
1147 1 -1.76824 -5.97697 -0.0410051 
9208 1 -0.398959 -2.09598 2.08433 
14152 1 -2.90536 -2.39564 2.73897 
14153 3 0.768591 -0.150479 0.662168 
9209 3 -2.0515 1.72246 4.98872 
13656 1 -2.13348 -1.83668 -3.13982 
13655 3 -2.5721 2.52342 -4.18008 
14987 3 0.88119 -0.618324 -2.00801 
13654 1 -0.73972 4.80272 5.79377 
14986 1 -1.78638 3.01053 3.60604 
4416 1 1.28575 -1.31209 4.33999 
4415 3 -0.488868 -1.03615 -4.33017 
4414 1 -1.74009 2.64795 3.43324 
2956 1 0.323104 1.91426 2.33163 
12057 1 2.53871 -0.435994 -0.369641 
3339 1 -0.816243 -3.37161 4.78028 
694 1 -0.755582 0.304457 -3.00119 
18897 1 -0.36399 -1.02605 -7.62417 
20592 1 -2.3289 -3.16704 -3.7051 
695 3 -3.29678 0.635827 0.278047 
18896 3 -3.04483 5.19637 0.00756595 
18895 1 -0.929473 2.60376 0.589488 
10912 1 -5.69028 -2.6645 -4.15805 
696 1 5.40425 -0.0130311 2.18055 
7221 1 -1.93799 -2.20378 0.148445 
3338 3 0.34292 0.188807 -0.0853618 
14241 1 -0.0715575 -3.96648 4.76975 
8961 1 2.08205 -2.81585 -0.817147 
5294 3 0.86324 2.84573 -0.150318 
5295 1 -5.63144 0.474254 -1.20337 
6951 1 -0.980892 -3.27832 2.3707 
6950 3 2.58867 -0.40098 -0.731937 
12626 3 2.4896 3.20653 -1.16905 
6949 1 1.18384 -2.03779 -1.8797 
11743 1 0.747039 3.76658 0.637164 
13104 1 0.660606 4.23108 -1.39302 
657 1 -4.59082 1.28755 0.744415 
19845 1 0.921272 3.98873 -3.39043 
4143 1 -4.46011 3.07831 1.23583 
656 3 1.47278 -1.87945 -0.28268 
15115 1 -1.92972 3.29833 -3.71084 
8976 1 0.124789 -2.33685 3.02958 
8975 3 0.165817 2.81738 0.421136 
8974 1 5.75289 5.4364 1.64922 
20553 1 0.0125883 -0.438007 2.0238 
11321 3 2.57327 -0.893277 -1.17105 
11322 1 2.2452 -4.15646 0.0707747 
14239 1 -4.67409 -0.147494 -0.0461892 
14240 3 3.2976 -0.580316 1.26115 
4010 3 3.19412 -1.21231 5.19539 
4009 1 4.99946 -1.61612 6.38939 
4011 1 -5.89977 -0.201293 -3.46498 
20552 3 1.22409 0.501058 0.397298 
5289 1 -5.68514 -0.882136 -1.12413 
17702 3 4.5451 2.31747 -0.937936 
10171 1 -5.50326 0.240796 -5.88297 
3939 1 3.17671 4.22332 2.28991 
10172 3 -2.10885 0.8238 0.715658 
10173 1 2.92628 5.58852 -4.90963 
12625 1 1.37943 -2.75828 -0.74945 
3938 3 -0.186313 2.30231 1.44211 
3937 1 -5.90421 0.243593 -1.98117 
13675 1 3.33203 -7.22612 4.87288 
18496 1 2.03613 -3.32935 -4.69798 
18498 1 -4.35156 5.60008 -3.02891 
17703 1 0.325246 1.74903 1.5992 
18497 3 0.463687 0.72756 -0.326784 
13676 3 -4.79023 2.93958 0.352004 
14356 1 1.58089 3.09963 -0.595451 
3748 1 -0.056088 -5.21176 -5.52308 
16311 1 1.78214 -0.993967 0.738555 
3112 1 0.88272 5.76666 2.00829 
15898 1 1.97345 -0.834768 -5.30256 
16310 3 -2.08921 -0.161431 1.81116 
16309 1 -3.98032 -2.04269 1.58782 
11275 1 -3.51489 -1.6032 -0.968526 
8026 1 -0.864466 -2.44184 4.43132 
8027 3 2.44809 -1.87542 -4.06023 
8028 1 4.51174 3.03368 1.35782 
7466 3 -0.351723 3.03276 0.802364 
1291 1 -0.47346 4.13418 2.5362 
7465 1 -0.333279 3.44914 2.61063 
1292 3 -2.46037 2.96148 1.06046 
1293 1 -0.593342 4.35532 -0.571151 
14154 1 -0.852092 -2.89924 5.36035 
8148 1 -5.20995 3.84367 -1.55101 
17127 1 0.629258 -0.44884 3.57496 
11276 3 4.03922 0.857758 -0.511559 
2957 3 -1.84439 0.112219 7.27343 
17125 1 0.778934 3.76393 2.08527 
17126 3 -0.72605 -1.29525 -1.27579 
11554 1 -3.72243 7.62291 -2.19781 
2958 1 -2.34482 2.87407 0.5557 
3114 1 0.918684 0.00867023 2.25574 
3113 3 1.33248 4.08273 -1.2933 
3827 3 4.22228 1.43297 0.0335716 
3828 1 2.63293 5.30964 -1.78925 
11745 1 1.21971 -3.65615 6.10086 
11744 3 -1.11548 -0.725799 -0.972592 
3826 1 6.85959 -2.26647 -4.42777 
8280 1 -4.8808 2.37888 2.40744 
8279 3 2.35518 -2.16736 -0.560288 
1394 3 3.70611 0.282681 -0.0479136 
8278 1 -3.04987 2.18241 -2.0445 
10913 3 0.243741 -0.10024 0.10021 
3337 1 -2.40938 -2.5467 2.09211 
2206 1 2.36084 6.93231 5.08623 
2207 3 0.324683 -1.49007 4.8486 
2208 1 0.547315 3.64736 -2.14997 
19540 1 1.13363 2.34814 -2.88939 
19541 3 -1.79061 -4.07025 1.5458 
10914 1 -1.13862 5.54858 -5.27247 
8959 1 1.52456 -7.76957 -2.00875 
8960 3 3.1171 -0.0101624 4.28946 
10455 1 -1.88243 -4.95402 4.43012 
6412 1 1.58624 -5.04725 -0.0434494 
6413 3 0.965753 -1.53451 3.99681 
6414 1 -5.55404 -1.07033 7.26807 
19542 1 3.56562 4.4322 4.52959 
7179 1 -0.363285 0.16926 1.51347 
20551 1 1.47919 -0.7091 -1.76521 
12627 1 -1.93973 2.82149 -1.85773 
7383 1 -1.33398 -3.53887 -1.26585 
7382 3 -0.166484 0.231482 1.51978 
7381 1 -2.628 2.8836 0.910349 
14770 1 1.80152 1.09634 2.85832 
14771 3 3.16857 1.86817 -0.777484 
6600 1 3.88128 8.8208 -0.219964 
6599 3 -2.42513 1.12521 2.13511 
1136 3 3.08958 -0.175822 -0.409322 
1137 1 8.28408 -4.18453 2.29539 
4225 1 0.77335 6.25446 5.60759 
12348 1 -1.7704 6.84797 3.94866 
1395 1 -0.719392 0.250346 2.47749 
9309 1 -0.645698 -4.07946 2.58135 
9308 3 0.952221 -1.04392 -0.934569 
9307 1 -2.27435 -6.25468 3.15375 
1135 1 2.39024 -1.58452 1.84635 
4142 3 4.94084 -6.8145 3.35184 
14785 1 10.0737 -6.86806 -5.48958 
14786 3 -0.0935479 -1.74455 2.54868 
4141 1 2.5145 0.614537 -0.983095 
14787 1 -0.348037 -3.4115 -3.77222 
12906 1 -1.53789 3.4577 -1.50621 
12905 3 2.7246 2.50274 -1.10258 
12904 1 0.462763 -0.747728 0.601939 
5269 1 -1.92724 3.21248 -4.61008 
5270 3 0.779184 0.121007 -2.50086 
9658 1 4.65426 -3.55381 2.65792 
5805 1 4.82872 -3.86469 3.30461 
3420 1 -1.29289 0.695304 -0.749474 
13021 1 4.75793 -4.08568 -0.046984 
13677 1 -4.05392 -0.831273 -2.33685 
13022 3 -3.50605 -1.51179 -4.4771 
5804 3 2.07384 -1.05803 3.51456 
13023 1 0.753489 0.484987 -1.78701 
3419 3 2.93445 0.729962 -0.0815706 
8902 1 -0.241152 0.198542 1.82133 
5803 1 -1.88779 0.711899 1.8721 
6598 1 -1.25269 -0.16946 5.74278 
19776 1 -2.51636 -4.25671 -1.16843 
19775 3 0.0766893 2.30394 1.79011 
9125 3 -3.49825 0.456642 0.172793 
9124 1 -2.0627 -0.321361 4.57366 
15126 1 -5.84826 4.99662 3.1336 
14481 1 -0.0363174 -9.23823 -5.22385 
18145 1 -1.88037 -0.55741 -1.33327 
6580 1 -0.355797 1.72487 -1.7034 
6581 3 0.803176 -3.5217 4.1525 
11152 1 -0.745453 6.31234 1.10507 
6582 1 2.86416 -1.0092 -5.43939 
15899 3 0.609305 1.97454 -0.0517594 
11153 3 3.42055 -1.3568 -2.87318 
15900 1 -1.65122 5.77706 -7.51092 
4002 1 1.54416 2.63289 -3.77964 
4001 3 -2.79552 -1.56746 1.5803 
4000 1 5.10299 0.249495 -5.6671 
10281 1 1.37006 2.64311 0.262939 
8147 3 -1.31291 -0.197145 -0.336119 
14480 3 -0.697761 -0.789855 -0.266611 
14479 1 2.99663 1.22437 1.22042 
7467 1 1.69179 4.63494 1.33574 
13531 1 2.26687 -0.115775 6.208 
8478 1 2.3731 3.82211 3.32054 
13532 3 -0.355672 0.490699 -1.86812 
13533 1 4.11473 -2.8025 -0.264226 
8146 1 4.6272 3.78829 1.91512 
7302 1 2.49598 0.872047 0.95978 
11555 3 0.532263 -0.0294309 -3.25565 
12345 1 1.68056 3.5405 0.83766 
11556 1 0.441419 4.30197 -1.04086 
12344 3 0.137267 -1.31662 1.02323 
7301 3 -0.963948 -2.71825 1.31243 
10279 1 -0.311408 4.92957 4.16001 
7300 1 -0.686004 -2.35189 0.0637627 
10280 3 4.32745 -1.77749 -1.10402 
16267 1 -0.34462 -2.70243 1.14726 
16268 3 -2.21202 0.54933 2.21924 
1393 1 2.75338 1.71354 -1.8315 
2597 3 -0.683019 2.2552 -0.156366 
2596 1 1.44613 5.57866 1.88643 
1617 1 -3.36405 -0.423964 -2.55506 
1616 3 -2.72555 -0.441412 -0.912805 
1615 1 0.0263484 8.56786 3.96535 
10454 3 0.720243 0.548376 -0.694383 
17988 1 -5.49858 2.22223 1.58126 
10453 1 0.532752 -1.97958 3.37135 
17987 3 0.785868 2.18814 0.701867 
17986 1 -0.157697 2.634 -1.65533 
10983 1 5.26229 -3.13252 1.05022 
10746 1 -0.669909 -2.52293 2.7241 
10982 3 0.825306 4.29222 -5.06429 
5032 1 2.08648 0.721718 -3.46462 
7178 3 0.252152 -2.90713 4.39533 
7177 1 0.273077 -0.462281 7.98794 
16731 1 2.68284 -2.66218 6.36627 
16730 3 3.23624 -2.15183 -0.971159 
21412 1 -4.82575 2.04108 -2.85534 
15229 1 2.55115 1.35554 -5.47539 
14772 1 0.573028 -8.75912 -2.45202 
21414 1 5.88291 -0.0499692 -0.472812 
21413 3 -5.53086 -0.812336 1.27422 
6857 3 -2.2288 -1.85165 4.19118 
6858 1 8.70699 -1.95774 1.99971 
6856 1 -1.05384 0.965461 2.59008 
3214 1 -4.09456 0.289364 -3.8416 
8904 1 0.532164 0.96339 5.8986 
15230 3 2.75868 -1.90536 0.999138 
13232 3 -2.36682 -0.760428 0.259309 
1186 1 4.56671 1.1758 2.54077 
15231 1 -1.38453 -0.607134 -4.86097 
12248 3 5.33378 0.408074 -3.46045 
12247 1 -4.01946 0.336672 -0.446094 
12249 1 -5.1847 -0.512595 -0.928007 
12347 3 -1.7706 -0.540212 1.9816 
12346 1 -2.09693 -1.94807 1.0658 
9659 3 1.71902 1.58074 2.35379 
7130 3 -2.91328 1.93556 -0.678091 
20037 1 -1.54038 -0.568503 -3.65489 
10745 3 2.08486 0.650888 -0.977615 
10744 1 -3.86273 -3.19157 4.18329 
15071 3 0.587203 2.36525 2.03697 
20036 3 -3.71849 -1.81388 -3.4523 
5271 1 5.86734 -2.11933 2.95685 
20035 1 -5.96769 -3.38949 2.06133 
7129 1 -5.57966 2.03625 -0.635422 
15072 1 1.21629 1.50513 0.96684 
15070 1 -0.894223 0.24421 1.41025 
3933 1 -0.85674 1.76501 2.88923 
11202 1 0.683389 1.36438 -1.08894 
10300 1 -0.363083 -2.44621 -2.61154 
9660 1 6.29611 -1.76611 1.58557 
10301 3 -1.95155 -1.54928 -0.457185 
8903 3 0.917495 4.2381 3.79691 
5392 1 0.0431226 0.0354967 -0.078918 
3418 1 -0.0504746 3.50949 -2.02342 
13231 1 0.730655 -1.47083 -1.11117 
15125 3 0.812736 -3.02525 5.07466 
15711 1 -1.64937 5.43532 4.91952 
15709 1 1.95037 -4.03635 -3.5441 
15124 1 -1.58853 3.73133 5.18295 
2950 1 3.2905 2.48133 1.06837 
15710 3 2.11639 -0.589943 -0.494004 
2951 3 -4.79659 1.82614 2.60718 
14544 1 -1.30026 2.86814 0.137114 
2952 1 -0.645512 -3.83174 0.90548 
11993 3 -1.45188 5.61754 -2.29346 
11994 1 6.59083 -3.82591 -0.929508 
12838 1 -5.24266 1.79849 -2.14889 
15753 1 -3.24782 -0.6611 -3.01424 
12839 3 0.528212 5.71942 1.72252 
18147 1 4.2021 0.493257 -4.52274 
18146 3 -0.374631 -0.841276 5.16975 
8860 1 1.62957 8.31144 3.26668 
8861 3 -1.76942 0.323715 -0.0831865 
8540 2 3.42424 4.51243 -0.176194 
8541 1 2.0587 -5.39525 6.53209 
19176 1 -4.28772 10.1582 7.89943 
8862 1 -1.84098 -4.20439 2.46693 
11154 1 4.10654 1.83494 -6.33528 
19174 1 3.44038 2.06366 -0.531063 
15752 3 1.14048 -0.825628 -6.42154 
19175 3 -0.024063 0.832725 0.482386 
15751 1 -1.08699 -3.82016 -3.53261 
20033 3 -3.18962 0.531909 1.00155 
20032 1 -1.29545 2.05773 -3.56383 
2707 1 -2.96331 6.48617 7.29102 
2708 3 -0.448114 3.62597 1.81627 
2709 1 -0.415126 0.0250203 1.1255 
13985 3 -2.32713 2.79014 0.544006 
6302 3 5.11977 -0.132208 3.71272 
13042 1 -0.0752615 -0.79731 1.2907 
6301 1 -5.35985 -2.52856 1.38387 
18517 1 -2.25308 -0.118584 -0.279296 
18518 3 -4.85234 -3.54 2.11526 
18519 1 -2.27707 0.763018 0.0270834 
21096 1 -2.62709 -4.50205 0.336362 
8477 3 1.129 -1.86383 2.73899 
8476 1 1.92 -1.88745 2.80961 
3817 1 0.900886 2.03293 -5.03104 
3818 3 2.30879 0.355011 3.49487 
12959 3 -2.1067 2.77851 1.1318 
12343 1 -0.804704 3.37067 0.923144 
19102 1 2.17152 7.74303 1.89005 
13984 1 1.24208 0.996725 3.5015 
19103 3 0.515185 -1.05268 4.86269 
19104 1 3.99961 -2.74084 6.7553 
16269 1 0.691658 -0.290959 -2.54192 
20980 1 3.57662 3.97592 -3.36374 
20981 3 0.230119 -2.51855 -1.59627 
20982 1 -5.55162 -3.884 2.28573 
6138 1 4.94071 1.4932 3.71324 
17304 1 7.67898 -5.2744 -1.91334 
18039 1 -0.577725 0.600749 1.2985 
17303 3 -0.72152 2.90979 -3.38325 
18038 3 -0.179182 -4.93942 -1.63542 
6137 3 -1.23048 2.86174 -1.79655 
19307 3 -1.49957 -2.98436 -0.0783888 
19306 1 -2.16954 -0.252407 6.13861 
19308 1 6.25221 1.68572 -0.0415326 
2598 1 2.84798 -3.16014 -0.391549 
6303 1 3.10513 3.55189 1.96964 
13937 3 1.31539 -1.42635 -1.53476 
13938 1 -0.71284 0.709387 -1.73894 
7131 1 2.5691 -4.97653 1.16554 
12958 1 2.68279 4.66638 -1.72883 
5034 1 1.0687 1.07179 0.00247539 
9448 1 5.60626 2.95433 3.56382 
5033 3 -2.31078 3.56518 -0.042663 
18714 1 1.93753 -1.5321 -4.69645 
18713 3 1.36137 0.418615 -0.874365 
9450 1 -0.180323 -1.46725 -4.28682 
9449 3 -1.82452 0.162898 -2.34408 
10981 1 -2.15912 -3.26357 3.16419 
5218 1 5.70081 9.42055 1.31769 
5219 3 2.28679 2.37266 3.10467 
20041 1 5.78223 0.995171 1.40359 
16729 1 -3.86941 -2.69993 -3.52097 
18037 1 -5.23836 2.51217 5.10968 
5220 1 4.52871 -1.53848 -1.55979 
2149 1 3.34437 7.01826 -0.414262 
13233 1 0.842309 4.27223 -0.304572 
6798 1 0.263602 -5.4387 2.3011 
14148 1 -1.50049 3.18266 4.4446 
3215 3 -3.02843 2.63664 -2.97995 
14146 1 3.74668 7.18366 3.75203 
3216 1 -0.766487 -1.6437 -0.569735 
14147 3 3.02884 -0.376212 -0.0648939 
20558 3 -0.440573 -3.71514 0.156343 
20557 1 -3.11344 -2.95853 1.45857 
19023 1 -0.896898 -4.74188 -3.39393 
7625 3 0.152523 2.95716 -1.36509 
7624 1 -1.61364 -1.61425 0.500799 
19021 1 0.321746 -4.0006 -2.62754 
19022 3 1.92762 -5.56977 -0.251734 
3932 3 -3.21266 -0.794039 2.80117 
13461 1 3.74494 -1.17745 4.70541 
11201 3 -0.80546 0.903988 -1.65916 
11200 1 -2.36227 -1.52441 -0.229782 
17527 1 2.09169 -2.45723 -1.34721 
3931 1 0.175367 1.4892 0.138636 
11739 1 -1.40395 2.28199 -8.01225 
11738 3 1.54737 -0.040331 -1.33782 
17528 3 2.03094 -3.61038 -1.43998 
17529 1 -1.85605 -0.529887 1.20319 
7989 1 0.97125 -0.326561 -2.36994 
11737 1 1.1973 -0.908368 -1.36442 
13460 3 -2.71802 1.10315 -0.547197 
7339 1 5.93747 -2.6686 4.20457 
2109 1 0.51547 -4.80815 -4.50488 
3600 1 0.355117 -3.33258 -1.97746 
2107 1 5.52981 -2.39811 1.64695 
141 1 -1.2482 -1.90223 -9.7754 
139 1 -4.26629 2.79577 1.28197 
11671 1 -3.05232 6.27831 9.37502 
3599 3 -1.68477 4.80974 -1.64228 
2108 3 -1.28759 2.29071 1.59345 
3598 1 -4.19758 3.48824 -1.99168 
14542 1 -0.625337 -2.88167 0.833287 
140 3 -0.479265 -1.32991 3.78987 
14543 3 2.51129 -5.68371 1.14844 
11672 3 1.95874 1.71361 6.5762 
3384 1 -2.01964 -3.75709 -0.909025 
17512 1 1.34542 7.26053 1.58068 
13829 3 0.657895 -1.57839 -2.72971 
2251 1 -1.72666 -0.823522 0.230426 
13830 1 -2.6966 -1.95756 -2.04124 
12840 1 -3.65363 5.14039 -5.13072 
11894 3 -4.00915 2.88699 3.83901 
11895 1 -4.89914 4.20894 1.34512 
11893 1 4.97246 0.646404 0.398845 
8539 1 5.7033 6.96522 3.18311 
10459 1 -1.98888 2.9946 -0.603562 
10460 3 0.439421 0.104361 -0.791571 
8600 3 -2.04819 -2.15852e-05 2.58838 
17763 1 3.20758 -3.15242 1.5852 
8599 1 -1.3519 -2.91905 0.889624 
10461 1 0.690945 -1.8296 -1.13578 
9511 1 0.455365 -0.440403 -2.31616 
17762 3 -5.81561 3.25747 2.57607 
13828 1 -2.58647 -2.15776 -5.32318 
9512 3 2.6708 1.55694 -7.22475 
10676 3 -0.671758 -0.957857 0.298888 
13986 1 -2.23049 -0.836598 5.45057 
20034 1 -5.76669 -7.95541 -2.8579 
18181 1 -5.37227 -0.832935 6.17796 
17712 1 6.26774 -0.427953 -3.90267 
14510 3 -3.8 -5.35104 -2.44973 
18182 3 -1.81883 -4.24778 2.77299 
789 1 -0.53722 -3.19815 7.52014 
18183 1 -1.81256 -3.632 -2.36966 
788 3 1.27097 -1.71643 0.618155 
10677 1 -0.0591758 4.53715 -0.611247 
14511 1 6.2656 -0.904173 0.948109 
8535 1 -2.27061 0.00176609 -5.97598 
14509 1 1.91967 3.15528 -0.236175 
12778 1 1.09391 5.26927 -3.43298 
3819 1 2.04964 2.36415 -0.631209 
21095 3 4.08735 -0.368167 -0.685292 
12960 1 -1.20527 -0.836187 2.00754 
17761 1 -1.55431 3.01342 4.39387 
19060 1 -7.08537 -3.7481 -3.64802 
13044 1 -0.400123 1.47616 -0.806554 
11503 1 -0.0107151 -4.49173 0.965247 
1155 1 0.979525 -1.35603 2.99744 
1154 3 -5.45932 -0.0384961 -0.173124 
21094 1 -1.12142 0.622307 3.97924 
11504 3 2.36571 -2.40826 -0.155112 
11505 1 -1.71465 -1.6709 -0.478936 
6072 1 4.82804 0.969147 -0.552728 
6071 3 1.20759 0.306343 -0.157662 
19061 3 1.70578 4.0857 -1.10611 
19062 1 0.623295 -1.436 -0.101366 
13043 3 -3.4767 -1.63979 0.384008 
8534 3 -1.74844 -3.36143 1.31706 
14582 3 0.184848 4.5341 -4.69733 
8533 1 1.30052 0.655405 0.63644 
17302 1 9.8796 -4.00944 -0.788634 
9396 1 -0.369631 -2.88413 4.93825 
9395 3 0.711843 1.7259 2.49485 
9394 1 -2.85014 3.60627 0.765107 
6136 1 1.70525 1.02821 -0.253913 
14581 1 1.81801 9.81822 0.136918 
4148 3 -1.76571 -1.64309 -1.79738 
4149 1 3.34734 -8.86165 -0.336918 
6796 1 4.2711 -3.08243 -0.223103 
4147 1 3.44374 0.0471993 5.70541 
6797 3 -1.09523 -0.449154 0.877755 
17557 1 -2.37521 10.4372 3.4541 
16956 1 -1.66437 -2.79864 -1.84738 
20805 1 -0.187102 1.08317 -2.43506 
20804 3 1.92157 3.42309 0.642278 
5530 1 3.97635 -2.07863 2.30336 
1456 1 -2.31378 1.37283 -3.83191 
1457 3 3.90429 -2.14358 -0.345697 
12779 3 -3.23985 0.503067 -3.95067 
5531 2 -5.8094 0.771817 -2.61638 
12780 1 6.81232 4.24654 4.88387 
13936 1 2.18037 0.742627 1.1822 
1913 3 1.37888 -1.39765 1.90627 
6850 1 1.57591 3.61855 3.49263 
1914 1 -2.86863 -9.05138 -5.55495 
7912 1 0.534957 -2.55378 -2.65342 
5532 1 2.74198 -1.40363 -10.2282 
6851 3 1.03362 -0.37026 -0.878493 
18712 1 3.75757 -1.67487 2.46206 
7422 1 4.84862 -1.34727 2.88 
7421 3 -1.60357 3.16263 1.35602 
7420 1 -4.47398 -2.82634 -3.00445 
12142 1 2.69092 -4.27058 0.120389 
16465 1 -0.79584 -0.904869 3.93059 
20042 3 3.33727 -1.4358 -5.13141 
2367 1 -0.122907 3.37652 -3.29576 
16466 3 -1.10282 -3.42222 1.11865 
20043 1 -0.874728 2.61963 1.96581 
6028 1 -0.909911 -0.925212 -3.65528 
2150 3 3.88304 -0.688142 2.61186 
6029 3 2.2485 4.59895 0.167881 
6030 1 -2.06233 -0.906204 7.14929 
20559 1 0.727438 -0.293033 2.43042 
9132 1 -4.45436 1.2462 0.0108782 
20803 1 -3.12385 -1.77007 -2.86639 
2151 1 -7.09671 6.89839 0.0367858 
9130 1 -2.30004 0.902729 0.790798 
9131 3 -1.34567 -1.66252 2.22527 
14524 1 -5.30213 2.96864 0.199149 
14525 3 -1.08117 0.387858 1.20582 
1458 1 -1.41983 2.99906 -0.801395 
7626 1 -3.37658 2.79158 -3.47755 
1912 1 -2.57578 7.09371 3.58828 
8234 3 4.12413 1.08318 -2.41938 
4417 1 -5.7376 2.91796 2.61442 
16696 1 -3.72573 4.78993 -4.85732 
13314 1 0.798847 7.85467 -3.29604 
13459 1 -0.169651 2.64171 2.85114 
7988 3 4.51584 0.12829 0.909376 
7987 1 0.627847 -1.05381 -3.50557 
16467 1 6.34123 0.579207 -1.97302 
13313 3 2.03893 2.95031 -1.01027 
13312 1 -1.25278 -0.860562 3.48753 
13357 1 -5.57373 0.827603 1.98766 
16697 3 0.837495 -4.79379 -0.233226 
16698 1 -5.22548 4.71367 -2.23534 
13358 3 1.11655 0.718377 -1.90044 
8233 1 3.08849 4.60924 3.26862 
3375 1 1.12413 -0.672434 -1.23074 
3374 3 -2.30653 4.66294 -2.18856 
5313 1 0.615627 -8.74638 -7.04858 
681 1 0.629945 1.70121 -6.39938 
17513 3 1.43371 1.93455 0.990865 
11673 1 -5.26185 7.37978 -5.12945 
679 1 4.54278 -2.19122 3.15398 
680 3 -5.37144 -2.49298 -1.26079 
17342 3 -1.88873 3.41047 -0.209142 
17343 1 -1.50967 -0.478727 -3.38238 
6168 1 0.922191 8.92042 2.16365 
17514 1 -0.89086 3.30918 1.00834 
2252 3 -0.676316 -0.862203 2.99367 
2253 1 2.43802 0.141913 3.74488 
1504 1 -6.26472 7.06146 -5.35003 
1669 1 -2.08983 3.64823 -1.4448 
1671 1 1.0312 3.48912 1.25796 
10675 1 4.29379 4.18966 2.30315 
1670 2 1.75855 3.3596 -2.40733 
1153 1 -2.11217 -3.08229 -4.91647 
6696 1 0.777549 0.900212 -1.04418 
8601 1 1.78037 1.90214 -0.637084 
9513 1 7.27221 3.01256 4.27756 
5572 1 -3.56109 -1.6416 2.00883 
1505 2 -0.911349 -1.59596 2.48202 
1506 1 -0.916387 4.27899 0.949152 
6694 1 -3.36955 1.54227 1.90568 
5574 1 -2.7241 -1.1168 -8.50771 
5573 3 -3.11257 1.74614 -1.96155 
6695 3 4.19086 -0.59686 -2.72914 
14875 1 4.3839 2.26683 -2.46857 
8709 1 -4.73916 2.49342 -1.4895 
8708 3 4.44291 3.23911 3.92958 
18955 1 8.21198 0.629643 2.21046 
18956 3 -0.186964 -5.35539 -0.0170815 
787 1 -2.64792 -2.54889 -2.44799 
18957 1 -2.90632 -0.789166 4.78462 
8707 1 1.80097 1.72805 0.634508 
14583 1 -0.962962 3.48097 3.46941 
2589 1 -2.56518 -8.35396 -0.0371692 
2588 3 0.147347 1.18341 1.32543 
2587 1 -4.84515 3.07683 -1.13774 
17711 3 3.02194 -1.12332 -0.646076 
4125 1 2.03894 -3.89844 -5.89628 
17710 1 -0.442581 0.186007 -6.4217 
4029 1 -0.882852 -0.209589 0.116905 
17430 1 -2.75807 4.12288 -1.01798 
17428 1 -2.8942 2.04397 -0.067857 
17429 3 -0.929914 0.71371 0.160585 
21411 1 4.69155 1.88457 -7.5035 
6738 1 6.65229 -0.0282167 -0.23835 
17497 1 2.76659 1.38056 -2.21383 
17498 3 0.826937 0.231865 0.236975 
21410 3 1.64801 -3.35691 -0.652985 
21409 1 0.310232 3.13008 -2.73952 
6070 1 4.25021 -0.250021 -2.24961 
2269 1 7.04489 0.779795 -2.79898 
6736 1 -2.80041 2.34842 -0.585724 
6737 3 0.383358 2.19375 0.907973 
2270 3 -1.77482 -0.932028 3.77531 
7503 1 -0.759047 -3.25806 -0.172863 
3471 1 0.506108 -6.35524 8.5248 
7502 3 -0.706569 2.11583 -3.61643 
12144 1 2.03957 -3.77022 -1.42924 
7501 1 -1.1425 0.114712 0.459401 
14876 3 0.682498 0.954066 -3.22139 
17780 3 -1.2786 -0.462424 2.04314 
17781 1 -4.82333 0.470137 -0.371296 
17559 1 -1.20578 -1.59442 1.19414 
16955 3 -0.30613 -0.595111 0.0307256 
16954 1 -0.435901 -0.136092 0.381063 
186 1 -1.71886 1.593 5.85392 
185 3 1.82221 0.289673 2.52635 
184 1 -3.61039 -4.8342 -5.86042 
17558 3 -3.40266 0.845119 0.366524 
14877 1 -2.50137 0.396097 -0.132608 
10956 1 0.912301 0.150158 0.591237 
7914 1 0.162285 -2.40413 1.91374 
7913 3 -4.07277 2.05029 -0.504959 
4228 1 -2.27492 3.82658 -0.31287 
1795 1 2.84649 -2.0122 -0.937691 
4229 3 -0.639289 -4.49945 -0.104077 
12143 3 -5.92968 -2.5051 0.676164 
8469 1 -0.159993 -3.60735 -1.91308 
6852 1 -0.00163608 2.52462 -0.0771192 
8468 3 -3.43067 -0.423021 1.94671 
8467 1 -12.5526 -1.73572 0.625737 
9582 1 4.75499 1.32213 -4.51782 
2365 1 3.65557 7.29772 1.60184 
2366 3 -3.76794 -2.09837 -5.01618 
9581 3 -1.42315 3.87489 2.05308 
9580 1 3.40348 -1.06219 0.755597 
16326 1 2.1544 0.218742 -1.68149 
3972 1 5.36476 2.45258 4.99425 
10955 3 -1.82746 -1.97525 1.17804 
14526 1 -4.28683 0.0170079 -0.691803 
14209 1 2.06256 -1.74382 -2.04256 
3971 3 -2.21207 -1.21208 0.666676 
10954 1 -1.40421 -0.0799158 -0.101935 
3970 1 3.36482 -1.75097 -0.44821 
6494 3 0.992092 1.18998 -1.19099 
6493 1 1.90702 -2.16457 4.01711 
6495 1 5.47286 2.09341 -0.154561 
5311 1 -3.06743 -8.84426 0.841878 
17457 1 -3.00834 -3.58152 0.921278 
17456 3 -0.364012 0.624649 -0.808757 
4230 1 -1.46806 -0.867866 -3.66877 
8235 1 -0.526513 2.28687 -2.37813 
14529 1 2.33917 -2.58477 1.80828 
14527 1 -1.0418 0.6665 6.23957 
6486 1 2.02647 4.4871 -2.30904 
13359 1 1.41114 0.0491027 -4.76527 
6484 1 -0.575722 1.69534 -2.27859 
6485 3 -1.60748 2.01008 0.531376 
14528 3 3.01605 1.40199 -1.57699 
5312 3 -2.88524 0.501074 -2.85831 
1131 1 1.51935 -0.807577 -0.54002 
6166 1 1.32798 2.85095 -7.43479 
1130 3 -2.03397 -0.701716 -4.56987 
6167 3 1.74266 -0.948625 -1.35332 
1129 1 -1.14655 2.16007 6.34612 
4963 1 -0.325182 3.239 -0.608354 
13146 1 0.951238 -7.09308 2.73123 
3946 1 2.41396 2.11257 1.76778 
3947 2 0.157401 3.34685 -0.417626 
17499 1 -2.41864 1.46857 7.9978 
3132 1 -6.29291 0.489511 -0.417518 
3131 3 -4.98397 -2.58736 1.5825 
3948 1 -0.516376 3.37868 -1.44532 
3130 1 5.03264 0.524455 -0.135726 
9830 3 0.171504 -0.378702 -0.65501 
9831 1 -0.782353 1.64278 -0.0513452 
10623 1 3.71033 1.07391 -6.99005 
10622 2 -0.520043 -1.25865 -2.28555 
4027 1 4.90951 1.96987 3.38014 
4124 2 3.94792 3.01712 -0.175302 
4123 1 0.189292 8.4833 -1.76533 
17176 1 -2.38474 -5.47948 -0.543471 
17177 3 -0.801806 -3.33766 -1.85831 
17178 1 4.25177 3.96669 -5.70228 
4028 2 -3.42428 -0.128782 -0.235362 
18286 1 -2.36361 -5.14954 -0.727065 
10621 1 2.57472 1.38769 -3.28075 
2271 1 7.79516 -0.186612 -1.70642 
3470 3 4.57409 1.17161 0.0656994 
3469 1 4.94623 2.56446 -0.666301 
4185 1 -4.30084 0.746675 1.20843 
8142 1 -4.60817 1.61028 -0.391555 
19970 2 -0.997145 -0.0456046 -0.390231 
5581 1 -3.91794 4.61577 1.25696 
19971 1 4.83298 -3.00354 -3.60011 
19969 1 -0.493448 0.711989 2.27818 
9829 1 -0.0374354 -2.65022 4.79224 
17779 1 -2.02057 6.13194 -3.6516 
8141 3 -2.84899 -3.33015 -1.60856 
1796 2 -1.28032 -0.815701 2.86646 
1797 1 -2.79896 1.28061 -0.0831085 
4183 1 -2.45625 0.816013 1.10215 
4184 3 0.211245 3.65232 -0.181437 
14211 1 4.997 -0.758486 0.675234 
17455 1 -4.04978 0.105505 -2.31308 
5582 2 0.670589 -1.36074 2.68106 
16325 2 3.27201 -2.29 2.36346 
14210 3 -1.43858 3.51726 1.56352 
5583 1 -3.43849 2.70265 -4.11963 
16324 1 4.85528 -0.756728 1.98722 
14455 1 -4.36513 -3.58323 0.657503 
14456 2 0.179921 1.10191 1.05727 
14457 1 -5.84351 3.89178 -1.0612 
13217 3 2.32238 -4.04709 -1.85377 
13216 1 5.26407 3.90849 -4.66894 
4964 3 2.06852 -1.87486 -1.60069 
4965 1 2.73917 0.616171 3.36992 
18321 1 0.402827 -1.20486 0.845061 
18320 2 0.250113 2.20542 2.01213 
18319 1 -0.744379 -0.747018 1.79113 
9553 1 -0.834521 -3.43592 0.225183 
18288 1 6.63983 -3.59735 -0.578103 
12617 3 5.49666 0.951744 -2.41492 
12616 1 4.55782 4.38419 -2.26299 
10332 1 1.51737 -2.48822 1.86622 
6657 1 -6.20531 -2.52565 1.94845 
6656 2 0.229163 1.84794 3.38751 
6655 1 -2.74819 0.23897 0.440862 
13144 1 -2.49288 -2.78162 -7.15735 
13145 2 1.58618 1.41527 5.05865 
9554 3 -1.95774 2.39003 -1.55452 
18287 3 1.10283 -0.650945 2.05178 
9555 1 -3.67283 -3.69586 0.974129 
400 1 -2.52067 4.36818 -3.40491 
401 2 -1.31371 1.30393 -1.17719 
402 1 -0.490442 9.05897 3.27888 
4498 1 1.22544 -2.42094 -4.25476 
12618 1 4.96067 6.0161 0.325446 
6974 2 -4.46147 0.449394 2.22871 
6973 1 2.48315 4.25549 1.61282 
869 2 -4.71253 2.89236 0.707873 
870 1 -1.09684 -0.702317 5.12234 
6975 1 0.438572 1.10016 4.712 
4500 1 0.142286 -4.30644 3.00308 
868 1 0.658612 -1.32403 3.6304 
4499 2 -3.13031 0.376101 6.12849 
8683 1 -1.52335 3.71126 4.23503 
8685 1 4.07239 -3.58165 3.52237 
8684 3 -1.37767 3.10143 -3.53893 
13218 1 -0.487282 2.23559 -2.82258 
12123 1 1.86066 -5.58114 1.87994 
17391 1 0.984772 -0.132755 6.58551 
17390 3 -0.863685 1.32211 0.767352 
12122 3 0.903621 -1.13085 0.0472707 
12121 1 4.63325 2.19166 2.68869 
13775 3 0.0759876 -3.50408 0.491021 
13774 1 2.58169 -5.9561 1.10245 
17389 1 0.0577848 0.932421 -1.55828 
13776 1 4.73717 6.30106 1.84751 
21544 1 -0.810779 -5.11086 4.93308 
1112 2 -2.32037 2.55621 1.46477 
1113 1 -4.48082 2.37689 -1.63248 
13924 1 4.32851 3.44732 5.138 
1111 1 6.93671 -5.82166 -8.20233 
4445 3 -1.6774 -0.734346 -4.54372 
13925 3 2.6069 3.51624 -1.34062 
13926 1 -1.43934 -1.01412 2.54235 
659 3 1.73627 -2.47863 1.51022 
13519 1 7.63809 -0.704434 -4.80086 
660 1 -3.37253 1.98376 -0.476613 
658 1 9.42848 0.189786 3.45982 
8189 3 -1.02897 4.48933 0.983824 
8188 1 -3.48559 4.23782 -4.93342 
17758 1 1.55419 2.543 5.69537 
1390 1 -5.68947 -1.63118 2.01703 
1391 3 0.0274184 -3.10812 1.75708 
1149 1 -4.98075 -0.855737 3.20682 
1148 3 1.6603 -0.607328 -3.03105 
18583 1 -0.889501 -1.23637 0.895912 
18584 3 -1.65035 -2.94425 2.38059 
1045 1 1.85611 -2.18232 -0.777861 
18585 1 -6.46395 -0.696272 1.9511 
11277 1 -4.0102 -4.36769 -0.362541 
21545 3 0.050653 -1.9659 2.41245 
8479 1 0.719633 5.34959 1.8745 
21546 1 2.00474 2.49645 -0.207439 
8481 1 3.6524 -6.74202 7.35413 
8480 3 1.00163 -0.74838 -1.27964 
17194 1 -1.94292 -4.45129 -1.64175 
17195 3 -0.975622 1.03763 -2.61535 
14808 1 -0.156534 5.03742 -1.70456 
1934 3 2.38519 -0.729298 1.44215 
17196 1 -7.02609 -4.04206 -3.97012 
14807 3 -1.08947 1.56064 1.68218 
17049 1 -2.51223 -5.22325 4.10759 
17048 3 -0.292865 2.24386 2.3095 
17047 1 -2.21889 1.98737 4.27437 
12994 1 -0.992403 7.09074 -2.78332 
12995 3 1.72698 4.8724 -0.0306138 
16243 1 0.339337 0.91061 1.19386 
16244 3 -0.137138 2.69909 2.97128 
4444 1 2.19431 1.51959 -2.506 
9801 1 -4.36244 3.26496 5.49404 
13103 3 -2.75304 2.39874 0.0112872 
19735 1 4.61512 0.459072 2.39742 
19736 3 -0.267224 -0.0321773 5.55518 
19737 1 -4.30633 -2.04376 6.29806 
17760 1 7.61757 3.42735 0.0658945 
17759 3 -3.1305 -1.55532 0.706774 
18436 1 1.19902 -0.379841 3.11451 
18437 3 -4.01978 0.676386 1.934 
18438 1 1.44056 1.82773 2.03129 
1933 1 0.0658925 0.0290683 -6.22313 
9634 1 2.5007 0.595196 -9.59916 
13102 1 -2.81569 -0.37531 -7.82774 
9800 3 1.20612 -1.62469 -0.468334 
2106 1 2.81918 1.67973 -2.42272 
2105 3 2.23071 4.23727 -0.830885 
2104 1 0.929626 -0.757244 7.6883 
16543 1 0.807115 2.7333 -3.16344 
16544 3 0.300195 -0.283392 2.26248 
16245 1 -5.29628 8.92746 3.50374 
17846 3 -1.14946 2.5081 -1.27463 
17847 1 2.21524 -1.05693 -1.79953 
17845 1 5.03804 -3.12289 -1.71138 
12715 1 7.09318 -3.09007 -1.71752 
12716 2 -2.62685 3.75394 3.35834 
15421 1 -2.3695 0.564514 -4.59606 
15422 3 0.185433 -2.81292 -2.48597 
14020 1 -3.94582 3.58514 -4.88484 
4781 3 0.129447 2.93526 -1.08084 
20883 1 -7.35102 3.60887 -1.73892 