ITEM: TIMESTEP
30000000
ITEM: NUMBER OF ENTRIES
249
ITEM: BOX BOUNDS pp pp pp
0 50
0 50
0 50
ITEM: ENTRIES c_binfo[1] c_binfo[2] c_binfo[3] 
2 8938 8939 
1 8938 10441 
2 10441 10442 
2 10442 10443 
2 905 906 
2 13930 13931 
1 13930 20116 
2 13931 13932 
1 8940 13932 
1 906 10902 
1 1524 9357 
2 10901 10902 
2 10900 10901 
1 10900 20311 
2 20311 20312 
2 20312 20313 
2 10786 10787 
2 10787 10788 
2 9356 9357 
2 8939 8940 
2 11872 11873 
2 6052 6053 
1 6052 11872 
2 11873 11874 
2 9355 9356 
1 1887 10788 
2 18832 18833 
1 18832 20217 
2 20216 20217 
2 6053 6054 
2 1886 1887 
2 1885 1886 
1 1885 12723 
2 18833 18834 
2 10228 10229 
1 10228 18834 
2 10229 10230 
1 11553 14608 
3 14609 14610 
3 14608 14609 
2 15193 15194 
2 8212 8213 
1 8212 15193 
2 7316 7317 
2 15085 15086 
2 7315 7316 
1 7315 15085 
2 8213 8214 
2 10100 10101 
2 20302 20303 
2 904 905 
2 20303 20304 
2 14617 14618 
2 11779 11780 
1 11779 14617 
2 4664 4665 
2 14618 14619 
2 11780 11781 
3 9346 9347 
1 9348 15505 
2 15505 15506 
3 9347 9348 
2 15506 15507 
2 382 383 
2 13181 13182 
2 383 384 
2 3706 3707 
1 3706 15636 
2 3707 3708 
1 3708 7596 
2 13180 13181 
1 13180 16824 
2 6194 6195 
2 7595 7596 
2 7594 7595 
1 7594 14266 
2 14266 14267 
2 14267 14268 
2 6193 6194 
1 6193 20118 
2 15086 15087 
2 20116 20117 
2 20117 20118 
2 10604 10605 
2 10603 10604 
2 1522 1523 
1 1522 10603 
2 1523 1524 
1 10605 13347 
2 941 942 
1 942 9702 
2 9700 9701 
1 9700 14619 
2 9701 9702 
2 18550 18551 
2 13594 13595 
1 13594 15507 
2 13595 13596 
1 13596 16570 
2 16570 16571 
2 16823 16824 
2 16822 16823 
1 16822 17010 
2 8216 8217 
2 17009 17010 
2 17491 17492 
2 17008 17009 
1 17008 17491 
2 18551 18552 
2 3250 3251 
1 3250 14268 
2 17492 17493 
2 3251 3252 
1 3252 19173 
2 19172 19173 
2 19171 19172 
2 940 941 
1 940 20215 
2 20215 20216 
2 12575 12576 
2 12574 12575 
2 16571 16572 
1 12576 16572 
3 5414 5415 
2 766 767 
1 766 5413 
3 5413 5414 
3 16216 16217 
3 16217 16218 
2 8215 8216 
1 8215 16218 
2 12722 12723 
2 12721 12722 
2 15617 15618 
2 15616 15617 
1 15618 17716 
3 11552 11553 
3 11551 11552 
1 11551 15171 
3 15169 15170 
1 15169 15616 
3 15170 15171 
2 14672 14673 
2 14671 14672 
2 6454 6455 
1 6454 10099 
2 10099 10100 
2 15194 15195 
2 2047 2048 
1 2047 15195 
2 2048 2049 
1 2049 9319 
2 6064 6065 
1 6064 6456 
2 9319 9320 
2 6455 6456 
2 18479 18480 
2 13345 13346 
2 18478 18479 
1 3270 11781 
2 15635 15636 
2 15634 15635 
2 1093 1094 
1 1093 14469 
2 14468 14469 
2 6065 6066 
2 9290 9291 
2 9289 9290 
1 9289 14467 
2 14467 14468 
1 9561 15087 
2 9560 9561 
2 9559 9560 
1 9559 10920 
2 10919 10920 
2 13346 13347 
2 10918 10919 
1 7878 10918 
1 1317 18550 
2 1316 1317 
2 1315 1316 
2 11825 11826 
2 11824 11825 
1 8217 14500 
2 14500 14501 
2 14501 14502 
2 16580 16581 
1 14502 16581 
2 7877 7878 
2 7876 7877 
1 7876 14223 
2 14222 14223 
2 14221 14222 
2 4258 4259 
2 4259 4260 
3 20795 20796 
2 767 768 
1 768 20796 
3 20794 20795 
3 17716 17717 
3 17717 17718 
2 8887 8888 
2 8888 8889 
2 18629 18630 
2 9320 9321 
1 4449 9321 
2 4448 4449 
2 4447 4448 
1 4447 8445 
2 14989 14990 
1 1095 12792 
2 1094 1095 
2 12791 12792 
2 12790 12791 
2 5692 5693 
1 5692 6066 
2 5693 5694 
2 14990 14991 
2 14191 14192 
1 14191 14991 
2 14192 14193 
2 16579 16580 
2 8444 8445 
2 8443 8444 
3 20509 20510 
1 10101 10537 
3 20510 20511 
2 10537 10538 
2 8965 8966 
2 5204 5205 
1 10539 20511 
2 10538 10539 
1 5205 8965 
2 8966 8967 
2 4663 4664 
1 4663 5203 
2 5203 5204 
2 18368 18369 
2 14386 14387 
1 14386 20814 
2 20813 20814 
2 18367 18368 
1 18367 20812 
2 20812 20813 
2 14387 14388 
1 8967 14388 
2 3269 3270 
2 3268 3269 
2 18628 18629 
