ITEM: TIMESTEP
30000000
ITEM: NUMBER OF ENTRIES
2338
ITEM: BOX BOUNDS pp pp pp
0 50
0 50
0 50
ITEM: ENTRIES c_binfo[1] c_binfo[2] c_binfo[3] 
2 11590 11591 
2 11591 11592 
2 12277 12278 
2 17827 17828 
2 17828 17829 
2 12278 12279 
1 12279 17809 
3 17809 17810 
3 17810 17811 
3 8428 8429 
1 8428 17811 
2 6313 6314 
3 12317 12318 
3 12316 12317 
1 12316 17349 
1 12318 17829 
2 2275 2276 
1 2275 11592 
3 8429 8430 
1 8430 15183 
2 15182 15183 
3 9029 9030 
2 15181 15182 
2 769 770 
1 769 15181 
2 2276 2277 
1 2277 15312 
3 15311 15312 
2 8036 8037 
2 8035 8036 
1 8035 9028 
3 9028 9029 
1 7530 8037 
2 7529 7530 
2 3307 3308 
2 3308 3309 
1 243 3309 
2 242 243 
2 241 242 
1 241 19810 
2 10426 10427 
2 10427 10428 
3 4045 4046 
1 4045 14701 
2 14701 14702 
2 14702 14703 
1 966 4047 
2 6314 6315 
1 6315 9925 
3 9925 9926 
3 9926 9927 
1 9927 18235 
3 18235 18236 
3 4046 4047 
3 17348 17349 
1 3057 17347 
3 18236 18237 
3 13378 13379 
3 13379 13380 
2 8332 8333 
1 8332 13380 
3 17347 17348 
3 15310 15311 
1 4401 15310 
2 4400 4401 
2 4399 4400 
1 3417 4399 
2 770 771 
2 3869 3870 
2 13556 13557 
1 771 13555 
2 13555 13556 
1 3870 13557 
2 21407 21408 
2 19810 19811 
3 3416 3417 
2 19811 19812 
3 3415 3416 
1 3415 14724 
2 14723 14724 
2 14722 14723 
1 14722 20082 
2 5410 5411 
1 5410 19812 
1 10428 19657 
2 19657 19658 
2 19658 19659 
1 13800 19659 
2 13799 13800 
3 20545 20546 
3 20546 20547 
3 15769 15770 
3 15770 15771 
2 7726 7727 
1 7726 18237 
2 7727 7728 
2 2878 2879 
1 2878 15771 
1 15513 20547 
1 5655 7728 
2 5654 5655 
2 8333 8334 
1 8334 19351 
2 19351 19352 
2 19352 19353 
1 19353 21507 
2 21506 21507 
2 21406 21407 
1 18267 21406 
2 18266 18267 
2 8824 8825 
2 8825 8826 
1 8826 18484 
2 18484 18485 
2 20081 20082 
2 18485 18486 
2 21266 21267 
2 21265 21266 
2 3868 3869 
1 3868 21265 
2 18265 18266 
1 16350 18265 
2 16349 16350 
2 20080 20081 
1 7326 9753 
2 9751 9752 
1 9751 20080 
2 9752 9753 
2 8020 8021 
2 8021 8022 
2 7325 7326 
2 7820 7821 
2 9098 9099 
1 9099 13798 
2 7819 7820 
1 7819 9097 
2 13798 13799 
2 9097 9098 
2 15512 15513 
3 7903 7904 
1 7903 18723 
2 15059 15060 
2 18722 18723 
2 18721 18722 
2 15058 15059 
1 15058 18721 
1 4644 5836 
2 5836 5837 
1 5838 15511 
2 15511 15512 
2 5837 5838 
3 9061 9062 
2 2879 2880 
1 2880 7296 
2 7294 7295 
1 7294 11565 
2 7295 7296 
2 11564 11565 
2 11563 11564 
3 9062 9063 
1 7833 9063 
2 8153 8154 
2 21505 21506 
2 7832 7833 
2 8152 8153 
1 8152 21505 
2 7831 7832 
1 900 7831 
2 899 900 
2 235 236 
1 235 18486 
3 5504 5505 
3 5503 5504 
2 16348 16349 
1 1773 16348 
2 1772 1773 
2 1771 1772 
1 1771 5505 
2 236 237 
1 237 7158 
2 7157 7158 
2 16744 16745 
2 16745 16746 
2 16522 16523 
2 16946 16947 
2 16523 16524 
1 7905 20056 
3 7904 7905 
2 9691 9692 
2 4642 4643 
2 9692 9693 
2 21314 21315 
2 6647 6648 
2 6646 6647 
1 6646 21313 
2 21313 21314 
2 898 899 
1 898 3262 
1 6648 11563 
2 12349 12350 
1 12349 21315 
2 3263 3264 
1 3264 9243 
2 9242 9243 
2 3262 3263 
2 1738 1739 
1 1738 7156 
2 7156 7157 
2 1739 1740 
2 3358 3359 
2 18296 18297 
2 18295 18296 
2 6103 6104 
1 6103 18295 
2 6104 6105 
1 1740 5620 
2 1405 1406 
2 5621 5622 
2 5620 5621 
2 1406 1407 
2 1249 1250 
2 12350 12351 
2 8893 8894 
2 8894 8895 
2 9241 9242 
1 9241 20868 
2 20867 20868 
2 20866 20867 
2 19018 19019 
1 19018 20866 
2 3359 3360 
2 19019 19020 
1 6105 12378 
1 501 12376 
2 12377 12378 
2 12376 12377 
3 500 501 
2 16726 16727 
1 16726 19020 
3 499 500 
2 18475 18476 
2 18476 18477 
3 17956 17957 
2 2917 2918 
2 2918 2919 
3 7603 7604 
3 7604 7605 
2 8288 8289 
2 8287 8288 
1 8287 17754 
3 17753 17754 
3 13631 13632 
3 15188 15189 
3 15187 15188 
3 829 830 
3 830 831 
3 3562 3563 
1 3562 18477 
3 13000 13001 
3 11656 11657 
2 3580 3581 
3 10576 10577 
3 10577 10578 
3 9739 9740 
3 9740 9741 
3 19867 19868 
3 19868 19869 
3 3563 3564 
2 18041 18042 
2 16141 16142 
1 16141 19867 
2 16142 16143 
1 3564 18040 
2 18040 18041 
3 13001 13002 
2 6397 6398 
1 6397 13002 
3 17284 17285 
3 17285 17286 
2 21311 21312 
1 7191 10578 
2 14855 14856 
2 14854 14855 
1 14856 17881 
2 17881 17882 
2 7190 7191 
2 21310 21311 
1 20919 21310 
3 17957 17958 
2 14161 14162 
1 14161 17958 
2 14162 14163 
1 14163 14370 
3 10216 10217 
3 15235 15236 
3 10217 10218 
3 15236 15237 
3 18155 18156 
1 14778 18156 
3 6847 6848 
3 16315 16316 
3 6848 6849 
1 2919 18154 
3 18154 18155 
2 15626 15627 
2 21559 21560 
2 21560 21561 
2 17678 17679 
3 5686 5687 
1 5686 7582 
2 7582 7583 
2 7583 7584 
3 5687 5688 
1 7377 10218 
1 2076 17752 
2 2075 2076 
3 7376 7377 
1 12282 16317 
2 2074 2075 
1 2074 12303 
1 7605 20209 
3 14777 14778 
3 16316 16317 
3 20209 20210 
3 20210 20211 
2 9197 9198 
2 15625 15626 
1 15625 20949 
1 3018 20211 
2 3017 3018 
2 20948 20949 
2 20947 20948 
2 3016 3017 
1 3016 7464 
2 5696 5697 
2 5695 5696 
2 20237 20238 
2 20236 20237 
2 5609 5610 
2 5608 5609 
1 5091 5608 
3 17752 17753 
2 13433 13434 
2 13432 13433 
2 11263 11264 
2 11264 11265 
2 7463 7464 
2 4484 4485 
2 7462 7463 
1 7462 20181 
2 20180 20181 
3 13630 13631 
1 13630 20179 
2 20179 20180 
3 1579 1580 
3 1580 1581 
1 1581 20682 
2 4126 4127 
1 2292 15187 
3 20680 20681 
2 12466 12467 
1 12466 20680 
3 20681 20682 
2 12467 12468 
2 4127 4128 
1 4128 5953 
3 5953 5954 
3 5954 5955 
1 5955 9537 
3 2291 2292 
3 2290 2291 
1 2290 10885 
3 10885 10886 
3 10886 10887 
2 7018 7019 
1 7018 10887 
2 21499 21500 
1 831 5862 
2 5861 5862 
3 3479 3480 
3 3478 3479 
1 3478 13941 
3 11657 11658 
2 8329 8330 
1 8329 11658 
2 3581 3582 
1 6972 9741 
2 6971 6972 
2 9536 9537 
2 6970 6971 
2 3056 3057 
2 10283 10284 
2 10282 10283 
1 1872 10282 
2 7019 7020 
1 7020 19927 
2 19927 19928 
2 1871 1872 
2 5278 5279 
1 5278 18042 
2 19928 19929 
2 6398 6399 
2 5279 5280 
1 6399 8736 
2 5860 5861 
1 5860 11289 
1 5280 21394 
2 21394 21395 
2 11288 11289 
2 8735 8736 
2 13018 13019 
2 11287 11288 
1 4020 11287 
3 8515 8516 
1 8515 17284 
2 8330 8331 
3 8516 8517 
1 2568 8331 
2 1000 1001 
1 1000 8517 
2 1001 1002 
3 3502 3503 
3 3503 3504 
1 3504 5337 
2 9053 9054 
1 4116 6970 
2 4115 4116 
2 7189 7190 
1 7189 17574 
2 17573 17574 
2 17572 17573 
1 9465 17572 
2 9464 9465 
2 7510 7511 
2 3055 3056 
1 3055 7510 
1 1611 16143 
2 20918 20919 
2 20917 20918 
2 3631 3632 
1 3631 20917 
2 3632 3633 
2 1610 1611 
2 1609 1610 
1 1609 19399 
2 19399 19400 
2 19400 19401 
2 1870 1871 
1 1870 4117 
2 4117 4118 
2 4118 4119 
2 21395 21396 
1 7731 15237 
2 7730 7731 
2 7729 7730 
2 2209 2210 
1 2209 7729 
2 8734 8735 
2 4345 4346 
1 4345 8734 
1 2445 21396 
1 6849 16647 
2 16646 16647 
2 16645 16646 
1 567 16645 
1 1002 11620 
2 11620 11621 
2 6629 6630 
2 6628 6629 
1 6628 20712 
2 9052 9053 
1 9052 16114 
2 16114 16115 
2 17882 17883 
1 939 17883 
2 938 939 
2 937 938 
1 937 11023 
2 14534 14535 
2 11023 11024 
2 7528 7529 
1 7528 14533 
2 14533 14534 
2 9463 9464 
1 9463 16638 
2 2278 2279 
1 2278 14535 
2 14369 14370 
1 3633 14101 
2 14101 14102 
2 14368 14369 
2 11905 11906 
1 11905 14368 
2 11906 11907 
2 1876 1877 
1 1876 11907 
2 17677 17678 
2 15406 15407 
1 15406 17677 
1 7584 13527 
1 6591 19401 
3 7375 7376 
1 7375 16939 
2 2210 2211 
2 16939 16940 
2 16940 16941 
1 951 16941 
2 950 951 
2 12280 12281 
2 12281 12282 
2 12302 12303 
3 14776 14777 
1 14776 19578 
1 3039 12280 
2 3038 3039 
2 19577 19578 
2 19576 19577 
1 6996 19576 
2 6995 6996 
2 3037 3038 
1 3037 6664 
2 9196 9197 
1 9196 21522 
2 6664 6665 
2 20711 20712 
2 11110 11111 
2 11111 11112 
1 11112 19983 
2 5411 5412 
2 14270 14271 
2 14269 14270 
1 14269 17062 
2 17062 17063 
2 15890 15891 
2 15889 15890 
2 14128 14129 
1 14128 15889 
1 5697 15891 
2 17063 17064 
1 1332 20236 
2 5090 5091 
2 1331 1332 
2 15407 15408 
2 5089 5090 
1 5089 18064 
2 814 815 
1 814 15408 
2 18064 18065 
2 815 816 
2 1330 1331 
1 1330 9195 
1 10113 13432 
2 13526 13527 
2 10112 10113 
2 12301 12302 
1 12301 15451 
2 13525 13526 
1 13525 19183 
2 19183 19184 
2 19184 19185 
2 15451 15452 
2 15452 15453 
2 10111 10112 
1 10111 15316 
2 15316 15317 
2 952 953 
1 952 15453 
2 9418 9419 
1 9418 11265 
2 21521 21522 
2 21520 21521 
1 18708 21520 
2 9419 9420 
2 18707 18708 
2 4483 4484 
2 19982 19983 
2 7432 7433 
2 7433 7434 
2 8713 8714 
2 14129 14130 
2 12808 12809 
1 12808 14130 
2 18065 18066 
1 18066 21399 
2 9194 9195 
2 13298 13299 
2 15317 15318 
2 14758 14759 
2 14759 14760 
1 10521 15318 
2 21398 21399 
2 9403 9404 
1 9403 9420 
2 11719 11720 
2 9404 9405 
1 9405 11719 
1 12468 18514 
3 18514 18515 
2 13199 13200 
2 13198 13199 
2 19249 19250 
2 21500 21501 
1 20508 21501 
3 18515 18516 
2 6086 6087 
2 6085 6086 
1 6085 18516 
1 6087 19249 
2 13940 13941 
2 17114 17115 
2 13939 13940 
1 13939 17113 
2 17113 17114 
3 3685 3686 
3 3686 3687 
1 2286 3687 
2 2285 2286 
3 965 966 
3 964 965 
1 964 7038 
3 7036 7037 
2 3916 3917 
1 3916 7036 
3 7037 7038 
2 21152 21153 
2 21151 21152 
2 9802 9803 
1 9802 20076 
2 20507 20508 
2 9535 9536 
1 9535 15811 
2 15811 15812 
2 9803 9804 
2 20506 20507 
2 15812 15813 
1 9804 20506 
1 4197 19929 
2 4196 4197 
1 15615 15813 
2 13019 13020 
2 5851 5852 
1 5851 13020 
2 17435 17436 
2 17434 17435 
2 4019 4020 
2 3346 3347 
1 3346 17434 
2 4018 4019 
1 4018 19962 
2 5852 5853 
1 5853 19110 
2 3347 3348 
2 2567 2568 
2 2566 2567 
1 2566 4404 
2 2284 2285 
1 2284 7851 
2 4403 4404 
2 7850 7851 
2 4402 4403 
2 5336 5337 
2 5335 5336 
1 5335 20227 
2 20227 20228 
2 20228 20229 
2 3917 3918 
2 4114 4115 
2 7511 7512 
1 7512 10830 
2 10828 10829 
2 10829 10830 
2 931 932 
1 931 4114 
2 932 933 
1 933 8434 
2 2314 2315 
1 2314 3918 
2 8434 8435 
2 8435 8436 
2 10564 10565 
1 10564 10828 
2 2315 2316 
1 4620 15613 
2 15613 15614 
2 19210 19211 
1 4119 10056 
2 10055 10056 
2 10054 10055 
1 10054 19210 
2 15614 15615 
2 4195 4196 
2 13 14 
1 13 4195 
2 4346 4347 
2 14 15 
2 19960 19961 
2 19961 19962 
2 10895 10896 
2 2443 2444 
1 2443 10896 
2 2444 2445 
1 4347 7263 
2 16678 16679 
1 16678 19960 
2 985 986 
1 985 4402 
2 11621 11622 
2 7262 7263 
2 7261 7262 
1 5991 11622 
2 986 987 
2 5990 5991 
1 6321 7261 
2 5989 5990 
1 5989 6490 
2 6490 6491 
2 6320 6321 
1 4557 20229 
2 16115 16116 
2 7840 7841 
1 7840 16116 
2 7841 7842 
1 3765 7842 
3 1777 1778 
1 20985 21267 
2 10565 10566 
2 18718 18719 
2 16636 16637 
1 16636 18718 
2 16637 16638 
2 18719 18720 
2 2279 2280 
1 10389 18720 
2 11024 11025 
2 1877 1878 
1 8436 15489 
2 19211 19212 
2 14102 14103 
2 13114 13115 
1 13114 16810 
2 13115 13116 
1 13116 14103 
2 16810 16811 
2 16811 16812 
2 6590 6591 
2 10894 10895 
1 10894 11467 
1 2211 10803 
2 6589 6590 
1 1632 6589 
2 1630 1631 
1 1630 2236 
2 1631 1632 
2 10802 10803 
2 2236 2237 
2 949 950 
1 949 15804 
2 11467 11468 
2 4109 4110 
1 4110 10801 
2 10801 10802 
2 11108 11109 
2 6994 6995 
2 11107 11108 
1 11107 11971 
2 11971 11972 
2 566 567 
2 565 566 
1 565 11973 
2 11972 11973 
2 6665 6666 
1 159 6994 
2 6803 6804 
2 5150 5151 
2 20710 20711 
1 12192 20710 
2 12191 12192 
2 12190 12191 
2 5149 5150 
1 5149 12190 
2 6802 6803 
1 6802 7659 
2 3764 3765 
2 3101 3102 
2 5306 5307 
2 5305 5306 
1 3102 7657 
2 7658 7659 
2 7657 7658 
2 6295 6296 
1 5412 6295 
1 2280 15099 
2 946 947 
1 946 15097 
2 15097 15098 
2 15098 15099 
1 57 17064 
2 56 57 
2 6296 6297 
1 1878 14346 
1 816 8191 
2 8191 8192 
2 5164 5165 
1 5164 11025 
2 3296 3297 
2 14345 14346 
2 14344 14345 
1 12963 14344 
2 5165 5166 
2 3295 3296 
1 3295 5166 
2 12962 12963 
2 8192 8193 
2 2237 2238 
2 3361 3362 
1 3361 19185 
2 15803 15804 
2 3362 3363 
2 15802 15803 
1 10782 15802 
2 10781 10782 
2 953 954 
2 6862 6863 
2 943 944 
1 943 6862 
2 18706 18707 
1 945 18706 
1 954 13191 
1 6666 18160 
2 18160 18161 
2 18161 18162 
1 18162 19740 
2 944 945 
2 9094 9095 
2 9095 9096 
1 10338 19006 
2 19981 19982 
2 158 159 
2 8092 8093 
1 8092 17368 
2 10337 10338 
2 10336 10337 
2 157 158 
1 157 10336 
1 17370 19981 
2 17369 17370 
2 17368 17369 
2 8093 8094 
1 6297 13512 
2 55 56 
1 55 13539 
2 12809 12810 
2 13511 13512 
1 624 12810 
2 623 624 
2 13538 13539 
2 9193 9194 
1 9193 9567 
1 2736 16701 
1 8193 16699 
2 16699 16700 
2 14105 14106 
2 9566 9567 
2 9565 9566 
1 9565 14106 
2 16700 16701 
2 5029 5030 
1 3363 15844 
2 21397 21398 
2 10520 10521 
2 15844 15845 
1 4692 21397 
2 15884 15885 
2 15845 15846 
2 10519 10520 
1 10519 15883 
2 4691 4692 
2 15883 15884 
2 4690 4691 
1 4690 5029 
1 6864 21216 
2 6863 6864 
1 11721 13168 
2 11720 11721 
2 13189 13190 
2 626 627 
2 13168 13169 
2 625 626 
1 625 13189 
2 13190 13191 
2 13169 13170 
1 13170 20667 
2 8183 8184 
2 9317 9318 
2 9316 9317 
2 20773 20774 
2 8182 8183 
3 728 729 
1 729 13200 
3 727 728 
1 727 10497 
2 10496 10497 
2 7966 7967 
2 7967 7968 
2 10495 10496 
2 19250 19251 
2 10304 10305 
2 13727 13728 
2 10303 10304 
1 10303 17115 
2 18481 18482 
2 7063 7064 
1 7063 18481 
2 7064 7065 
2 3454 3455 
1 3454 18483 
2 18482 18483 
2 10471 10472 
1 7065 9933 
2 5498 5499 
2 5497 5498 
1 5497 16509 
2 16508 16509 
2 12029 12030 
1 12030 21151 
2 16507 16508 
2 12028 12029 
1 5580 12028 
2 15685 15686 
1 7968 15685 
2 20075 20076 
2 15686 15687 
1 15687 19464 
1 17208 19251 
2 17207 17208 
2 3904 3905 
1 3904 17206 
2 17206 17207 
2 3905 3906 
1 9255 10305 
2 9254 9255 
2 9253 9254 
2 9455 9456 
1 4338 9253 
1 3348 9456 
1 3906 21033 
2 4337 4338 
2 13153 13154 
1 10473 13153 
2 10472 10473 
2 13154 13155 
2 9991 9992 
1 9991 13155 
2 9992 9993 
2 19108 19109 
2 15706 15707 
1 15706 19108 
1 4704 7849 
2 4703 4704 
2 4702 4703 
1 4702 11863 
2 19109 19110 
2 7849 7850 
2 9932 9933 
2 9931 9932 
2 19972 19973 
1 5193 9931 
2 19973 19974 
2 5191 5192 
2 5192 5193 
2 12058 12059 
1 12058 19974 
1 1779 5191 
1 270 5653 
1 5499 6228 
1 2316 19788 
2 19787 19788 
2 19786 19787 
2 6227 6228 
2 268 269 
1 268 15783 
2 269 270 
2 6226 6227 
2 15259 15260 
1 15259 19786 
2 2833 2834 
1 2833 6226 
2 5653 5654 
2 20074 20075 
1 3108 20074 
2 5579 5580 
2 4618 4619 
1 4618 13261 
2 13261 13262 
2 4619 4620 
2 13262 13263 
2 3107 3108 
2 5578 5579 
1 5578 20650 
2 20650 20651 
2 20651 20652 
2 3106 3107 
1 3106 12853 
2 12853 12854 
2 12854 12855 
2 9454 9455 
1 9138 9454 
2 14273 14274 
2 9137 9138 
1 15 14274 
2 9136 9137 
2 4405 4406 
1 4405 9136 
2 14272 14273 
2 16679 16680 
2 5752 5753 
1 5752 14272 
1 8718 16680 
2 8717 8718 
2 15707 15708 
2 15371 15372 
2 15370 15371 
1 15370 17857 
1 14493 15708 
2 14492 14493 
2 17857 17858 
2 14491 14492 
1 1128 14491 
1 987 15372 
3 1778 1779 
2 11863 11864 
2 11864 11865 
2 7414 7415 
1 7414 11865 
2 8180 8181 
2 4555 4556 
1 4555 8181 
2 8179 8180 
1 8179 20412 
2 4556 4557 
2 7415 7416 
1 4371 20178 
2 15782 15783 
1 6357 10566 
2 6356 6357 
2 6355 6356 
1 6355 9813 
2 9812 9813 
2 15781 15782 
1 15781 20562 
2 15260 15261 
2 10388 10389 
1 8154 13653 
2 20984 20985 
2 9811 9812 
2 11485 11486 
1 11485 15261 
1 3168 9811 
2 15488 15489 
1 4716 15487 
2 15487 15488 
2 4715 4716 
2 4714 4715 
1 4714 15429 
1 6078 13263 
2 17224 17225 
1 17224 19212 
2 6077 6078 
2 17225 17226 
2 8716 8717 
1 8716 16602 
1 4518 17226 
2 640 641 
1 640 11469 
2 641 642 
1 642 21370 
2 21370 21371 
2 4517 4518 
2 5753 5754 
1 5754 21132 
2 4516 4517 
1 4516 7093 
2 7093 7094 
2 11468 11469 
2 21131 21132 
2 4108 4109 
1 4108 12394 
2 17858 17859 
2 12908 12909 
2 12907 12908 
1 9231 12907 
2 9230 9231 
2 3157 3158 
1 3157 17859 
2 16601 16602 
2 9229 9230 
1 9229 17097 
2 16600 16601 
1 11109 12897 
2 6491 6492 
2 6319 6320 
1 6319 12909 
2 6178 6179 
1 6178 6492 
2 6179 6180 
1 6180 7299 
2 20411 20412 
2 887 888 
2 886 887 
1 886 2926 
2 2926 2927 
2 7298 7299 
2 20410 20411 
1 888 3763 
2 2927 2928 
2 3763 3764 
1 5151 13905 
2 4370 4371 
1 1776 12712 
2 12712 12713 
2 1775 1776 
2 4369 4370 
2 12713 12714 
2 1774 1775 
1 1774 19669 
2 20983 20984 
1 948 16491 
2 20617 20618 
1 20617 20983 
2 20618 20619 
2 229 230 
1 229 20619 
2 16490 16491 
2 10387 10388 
1 10387 15760 
2 15760 15761 
2 15761 15762 
2 230 231 
2 947 948 
2 15428 15429 
2 13321 13322 
1 13321 16812 
2 14171 14172 
1 13323 16980 
2 13322 13323 
2 16979 16980 
1 15762 16999 
2 16999 17000 
2 16978 16979 
1 16978 18361 
2 18361 18362 
2 17000 17001 
1 3297 14172 
2 5722 5723 
1 5722 12961 
2 10780 10781 
1 10780 19276 
2 21371 21372 
2 12394 12395 
1 1323 2238 
2 1322 1323 
2 1321 1322 
1 1321 7123 
2 7123 7124 
2 7124 7125 
2 19277 19278 
2 5723 5724 
1 7125 19234 
2 19276 19277 
2 12961 12962 
2 12395 12396 
1 12396 20767 
2 20767 20768 
2 20768 20769 
2 4891 4892 
1 4891 20769 
2 12896 12897 
1 3642 19738 
2 19738 19739 
2 16564 16565 
2 12895 12896 
1 12895 16564 
2 4892 4893 
2 19739 19740 
2 16565 16566 
2 19006 19007 
2 13904 13905 
2 13903 13904 
2 6931 6932 
1 6931 13903 
2 6932 6933 
2 5569 5570 
1 5569 6933 
2 7297 7298 
1 7297 8232 
2 19007 19008 
1 8586 16566 
2 1972 1973 
1 1972 8094 
1 225 2928 
2 3100 3101 
1 3100 4479 
2 4478 4479 
2 4477 4478 
1 4477 18631 
2 18631 18632 
2 18632 18633 
1 13530 18633 
2 13537 13538 
2 16489 16490 
2 19790 19791 
1 13509 19789 
2 13508 13509 
2 19789 19790 
2 1750 1751 
1 1750 16489 
2 1751 1752 
1 7050 17944 
2 17944 17945 
2 17945 17946 
2 7324 7325 
1 7324 17946 
2 13510 13511 
1 1752 18423 
2 13507 13508 
1 13507 13510 
2 14170 14171 
2 12919 12920 
1 10137 14170 
2 10136 10137 
2 6728 6729 
1 5502 6729 
2 2734 2735 
1 2734 12919 
2 10135 10136 
2 2735 2736 
1 72 10135 
2 6727 6728 
1 6727 13537 
2 5501 5502 
2 12920 12921 
2 15347 15348 
1 5724 9270 
2 9269 9270 
1 5244 19278 
2 5243 5244 
1 13176 15346 
2 9268 9269 
1 9268 10948 
2 10948 10949 
2 15346 15347 
2 13175 13176 
2 13174 13175 
1 13174 15846 
1 9966 21348 
2 3641 3642 
2 5242 5243 
1 5242 13405 
2 13405 13406 
1 627 9964 
2 9964 9965 
2 3640 3641 
1 3640 4137 
2 9965 9966 
2 4136 4137 
2 13406 13407 
2 4135 4136 
1 4135 4204 
2 21215 21216 
2 4204 4205 
2 19732 19733 
2 19733 19734 
2 11515 11516 
1 11515 19008 
2 18340 18341 
2 21214 21215 
2 16592 16593 
1 19734 21214 
2 11516 11517 
1 11517 16593 
2 20774 20775 
2 18341 18342 
2 1973 1974 
1 1974 2008 
3 2008 2009 
3 2009 2010 
1 2010 20005 
2 20005 20006 
2 20006 20007 
2 3455 3456 
2 4534 4535 
2 4535 4536 
2 19463 19464 
2 8566 8567 
2 8567 8568 
2 19462 19463 
1 19462 19524 
1 8568 9324 
2 13726 13727 
2 9323 9324 
1 9312 13726 
2 9311 9312 
2 9310 9311 
1 2517 9310 
2 2516 2517 
2 2515 2516 
1 2515 9496 
2 4336 4337 
1 4336 12582 
2 12088 12089 
1 9993 18564 
2 12089 12090 
2 12059 12060 
2 4643 4644 
1 261 4642 
2 260 261 
2 20056 20057 
1 4536 14247 
2 2834 2835 
1 2835 17338 
2 17338 17339 
2 20057 20058 
1 525 20058 
2 524 525 
2 14246 14247 
2 14245 14246 
1 14245 20098 
2 20098 20099 
2 19523 19524 
2 1240 1241 
1 1240 20652 
2 1241 1242 
2 19522 19523 
2 14236 14237 
1 14236 19522 
1 1242 16851 
2 14237 14238 
2 8041 8042 
1 8041 12855 
2 20099 20100 
2 7921 7922 
1 7921 14238 
2 9496 9497 
2 21032 21033 
2 9497 9498 
2 4406 4407 
2 21031 21032 
1 16713 21031 
1 4407 4852 
2 16712 16713 
2 16711 16712 
2 4852 4853 
2 5818 5819 
1 5818 16711 
2 5819 5820 
2 12581 12582 
2 8042 8043 
2 18563 18564 
2 18562 18563 
1 4200 18562 
2 12580 12581 
1 12580 15501 
2 15500 15501 
2 4199 4200 
2 1127 1128 
2 15499 15500 
1 15499 19369 
2 1126 1127 
1 1126 3514 
2 19369 19370 
2 4198 4199 
2 2770 2771 
1 2770 4198 
2 19370 19371 
2 2771 2772 
2 20177 20178 
1 1815 7416 
2 20176 20177 
2 259 260 
1 259 1453 
2 17339 17340 
2 1454 1455 
2 3628 3629 
1 3628 17340 
2 20561 20562 
2 20560 20561 
1 9468 20560 
2 9466 9467 
1 9466 11013 
2 9467 9468 
2 1453 1454 
2 3629 3630 
2 11486 11487 
1 11487 18681 
2 18904 18905 
2 18905 18906 
2 6076 6077 
1 6076 18904 
2 18680 18681 
2 13273 13274 
1 13273 18906 
2 16850 16851 
2 16849 16850 
1 16849 17898 
2 18679 18680 
2 13274 13275 
2 4853 4854 
1 8043 15165 
2 3232 3233 
1 3232 21130 
2 21130 21131 
2 3233 3234 
2 15164 15165 
2 15163 15164 
1 15163 17031 
1 4854 19128 
1 3234 21070 
2 19127 19128 
2 21070 21071 
2 19126 19127 
2 3158 3159 
2 3514 3515 
1 15114 16600 
2 15113 15114 
2 15112 15113 
2 7933 7934 
1 7933 15112 
2 3515 3516 
1 3516 9045 
2 9044 9045 
2 7934 7935 
2 2005 2006 
1 2005 3159 
2 1814 1815 
2 2006 2007 
1 2613 20410 
2 1813 1814 
1 1813 12922 
1 2007 9216 
2 2612 2613 
2 2611 2612 
2 2548 2549 
1 2548 2611 
2 12922 12923 
2 12923 12924 
2 2549 2550 
2 1888 1889 
1 1888 12924 
2 19669 19670 
2 19670 19671 
2 2933 2934 
1 2934 19671 
2 2932 2933 
2 9239 9240 
2 13652 13653 
2 11012 11013 
2 18589 18590 
2 3167 3168 
2 3166 3167 
1 3166 11844 
1 231 12885 
2 9244 9245 
1 9244 18591 
2 18590 18591 
2 9245 9246 
2 13651 13652 
1 13651 18589 
2 11843 11844 
2 12884 12885 
1 9246 20677 
2 11842 11843 
1 7827 11842 
2 12859 12860 
1 12859 18679 
2 15427 15428 
1 15427 17620 
2 17620 17621 
1 13389 17622 
2 17621 17622 
2 13388 13389 
1 17001 20563 
2 13387 13388 
2 5428 5429 
1 5428 13387 
2 20563 20564 
2 20564 20565 
1 639 13275 
2 7826 7827 
1 7551 21372 
2 19234 19235 
2 7094 7095 
2 19592 19593 
2 19591 19592 
1 7095 19591 
2 16207 16208 
1 16207 19593 
2 16208 16209 
2 21071 21072 
2 7550 7551 
2 7549 7550 
2 17096 17097 
2 4246 4247 
1 4246 7549 
2 4247 4248 
2 2845 2846 
1 2845 3457 
2 2846 2847 
1 2847 17095 
2 17095 17096 
2 3457 3458 
2 3458 3459 
1 4248 20784 
2 28 29 
1 28 7935 
2 29 30 
1 4893 10708 
2 5570 5571 
1 3459 15393 
1 2550 16656 
2 9215 9216 
2 8231 8232 
2 8230 8231 
1 8230 10924 
2 10924 10925 
2 10925 10926 
1 273 10926 
2 9214 9215 
1 9214 14385 
2 8585 8586 
2 272 273 
2 8584 8585 
2 224 225 
2 20336 20337 
2 20335 20336 
2 16655 16656 
2 13529 13530 
2 223 224 
1 223 9492 
2 9491 9492 
2 9490 9491 
1 615 9490 
2 614 615 
2 9238 9239 
2 4159 4160 
2 4160 4161 
1 4161 20337 
2 5477 5478 
2 5476 5477 
1 5476 7048 
2 7048 7049 
2 7049 7050 
2 12883 12884 
1 6585 12883 
2 6584 6585 
2 6583 6584 
1 6583 17547 
2 18422 18423 
2 1811 1812 
2 18362 18363 
1 1812 18421 
2 18421 18422 
2 71 72 
1 14355 20565 
2 19213 19214 
2 70 71 
1 70 19213 
2 14354 14355 
2 14353 14354 
2 19214 19215 
1 12369 14353 
2 10949 10950 
2 20147 20148 
1 10950 18399 
2 11977 11978 
1 11977 18363 
2 19235 19236 
2 11978 11979 
1 11979 17074 
2 17074 17075 
1 8271 20148 
2 8270 8271 
2 8269 8270 
1 8269 19236 
2 17075 17076 
1 12684 16209 
2 20783 20784 
2 10708 10709 
2 8389 8390 
1 8389 13407 
2 10709 10710 
2 4205 4206 
2 8335 8336 
1 8335 15651 
1 8337 10710 
2 8336 8337 
2 16591 16592 
2 253 254 
1 253 1347 
1 5118 5571 
2 254 255 
1 255 262 
1 264 8584 
2 263 264 
2 262 263 
2 5117 5118 
2 7564 7565 
2 613 614 
2 2452 2453 
1 2452 5116 
2 5116 5117 
2 13528 13529 
1 13528 16936 
2 16936 16937 
2 16937 16938 
2 2453 2454 
1 2454 16779 
2 523 524 
1 523 20134 
2 20134 20135 
2 20135 20136 
2 9935 9936 
2 9934 9935 
1 18435 20100 
2 7922 7923 
2 18434 18435 
2 2929 2930 
1 2929 5262 
2 9322 9323 
2 5338 5339 
1 5338 9322 
2 5339 5340 
2 5261 5262 
2 5260 5261 
1 5260 5340 
1 9498 15234 
2 15233 15234 
1 5820 20824 
2 20824 20825 
2 15232 15233 
1 381 15232 
2 379 380 
2 380 381 
1 19317 19371 
1 20136 20569 
2 20569 20570 
1 1455 7102 
2 7102 7103 
2 7103 7104 
2 20570 20571 
1 7104 18778 
2 18778 18779 
2 18779 18780 
1 3630 7611 
2 7610 7611 
2 17897 17898 
2 5638 5639 
1 5638 21361 
2 7609 7610 
1 2601 7609 
2 18433 18434 
1 5640 18433 
2 5639 5640 
2 17896 17897 
1 1650 17896 
2 1649 1650 
2 1648 1649 
1 1648 18658 
1 7923 15870 
2 2600 2601 
1 10233 11577 
2 15868 15869 
1 15868 19443 
2 15869 15870 
2 20825 20826 
2 11575 11576 
1 11575 20826 
2 17030 17031 
2 17029 17030 
1 4851 17029 
2 11576 11577 
2 4850 4851 
1 1680 12649 
2 5707 5708 
1 5707 19126 
2 5708 5709 
2 1678 1679 
1 1678 19315 
2 19315 19316 
2 19316 19317 
1 5709 20424 
2 9043 9044 
1 9043 10048 
2 10048 10049 
2 1679 1680 
2 10049 10050 
2 20423 20424 
1 2772 19470 
2 19469 19470 
1 7569 16695 
2 7568 7569 
2 19468 19469 
2 7567 7568 
1 7567 19468 
2 1889 1890 
1 1890 15118 
2 15118 15119 
2 11587 11588 
2 11588 11589 
1 3381 8802 
2 8801 8802 
2 8800 8801 
1 8800 12351 
2 20677 20678 
2 11011 11012 
1 11011 16081 
2 16081 16082 
2 16082 16083 
1 16083 17022 
2 17021 17022 
1 1515 17020 
2 17020 17021 
2 2599 2600 
1 2599 10966 
2 10966 10967 
2 18658 18659 
2 7825 7826 
1 7825 19291 
2 12860 12861 
2 1222 1223 
1 1222 12861 
2 1223 1224 
1 1224 21379 
2 21379 21380 
2 21380 21381 
2 18659 18660 
2 19291 19292 
2 4849 4850 
1 4849 21280 
2 638 639 
2 21281 21282 
2 21280 21281 
2 637 638 
1 637 10720 
2 10720 10721 
2 10721 10722 
1 1374 21072 
1 10722 18327 
2 1373 1374 
2 1372 1373 
1 1372 11925 
2 18326 18327 
2 20606 20607 
2 11924 11925 
2 11923 11924 
2 20605 20606 
1 5136 13852 
2 20422 20423 
1 20422 20605 
1 30 5134 
2 5134 5135 
2 5135 5136 
2 13852 13853 
2 13853 13854 
2 6853 6854 
1 6853 10050 
2 602 603 
2 15119 15120 
1 603 15120 
2 6854 6855 
1 6855 17035 
2 10145 10146 
2 14384 14385 
2 14383 14384 
2 10144 10145 
1 10144 14383 
2 17035 17036 
2 601 602 
2 14119 14120 
2 16654 16655 
1 14121 16654 
2 14120 14121 
1 5622 11881 
1 11883 17431 
2 11882 11883 
2 16687 16688 
1 16687 17545 
2 17431 17432 
2 17545 17546 
2 20678 20679 
2 11605 11606 
1 5727 11605 
2 17546 17547 
2 5726 5727 
2 5725 5726 
1 5725 20679 
2 11881 11882 
2 12215 12216 
1 5994 21381 
2 5429 5430 
2 2899 2900 
1 2899 16561 
2 12368 12369 
2 9899 9900 
2 16561 16562 
1 9900 17362 
1 5430 17364 
2 19292 19293 
1 16563 19293 
2 16562 16563 
2 17363 17364 
2 17362 17363 
2 12367 12368 
1 12216 12367 
2 13309 13310 
2 4496 4497 
1 1104 13309 
2 12683 12684 
2 1102 1103 
1 1102 12682 
2 1103 1104 
1 4497 17076 
2 12682 12683 
2 15650 15651 
2 14452 14453 
1 14452 20782 
1 5763 13854 
2 5201 5202 
1 5202 16308 
2 14453 14454 
2 5200 5201 
1 5200 14454 
2 20782 20783 
2 4550 4551 
2 15392 15393 
2 8360 8361 
2 8359 8360 
1 8359 15391 
2 271 272 
1 271 4551 
2 15391 15392 
2 16778 16779 
2 4549 4550 
2 2930 2931 
1 8415 15343 
2 15343 15344 
2 8414 8415 
2 8413 8414 
1 8413 20571 
1 15192 21363 
2 21362 21363 
2 15799 15800 
2 15800 15801 
2 15344 15345 
2 21361 21362 
1 636 19441 
2 635 636 
2 634 635 
1 634 11242 
2 19441 19442 
3 11242 11243 
2 19442 19443 
2 8758 8759 
2 454 455 
1 454 10231 
2 10231 10232 
2 12650 12651 
2 10232 10233 
2 8759 8760 
2 12649 12650 
2 16694 16695 
2 16693 16694 
3 9059 9060 
3 3380 3381 
3 3379 3380 
1 3379 9058 
3 9058 9059 
2 15191 15192 
2 746 747 
2 745 746 
1 745 10968 
2 10967 10968 
2 19009 19010 
1 18660 19009 
2 19010 19011 
3 21332 21333 
1 19011 21331 
3 21331 21332 
2 19850 19851 
1 19851 20686 
3 20686 20687 
3 20687 20688 
2 19849 19850 
1 19849 21282 
2 18325 18326 
1 18325 19149 
2 455 456 
2 1925 1926 
2 1924 1925 
1 1924 19620 
2 6475 6476 
1 6475 12651 
1 1926 20607 
2 6476 6477 
2 15295 15296 
1 15295 17037 
2 15296 15297 
2 17036 17037 
2 10528 10529 
2 3169 3170 
1 3169 10528 
2 7399 7400 
1 7399 16728 
2 1514 1515 
1 3171 11607 
2 1513 1514 
1 1513 18130 
2 18130 18131 
2 3170 3171 
2 18131 18132 
2 11606 11607 
2 16727 16728 
2 8740 8741 
1 8740 18132 
2 16100 16101 
2 5993 5994 
2 5992 5993 
1 5992 12822 
3 12821 12822 
2 16099 16100 
3 12820 12821 
2 9898 9899 
1 9898 16099 
2 8741 8742 
2 2900 2901 
1 2424 17695 
2 19147 19148 
2 19148 19149 
1 13311 17697 
2 17696 17697 
2 17695 17696 
2 13310 13311 
2 19619 19620 
3 5761 5762 
3 5762 5763 
2 19618 19619 
2 2218 2219 
1 2218 4545 
2 2219 2220 
3 11243 11244 
3 15527 15528 
3 15526 15527 
1 15526 17800 
2 17800 17801 
2 17801 17802 
1 14640 15345 
3 14639 14640 
3 14638 14639 
1 3759 14638 
2 3758 3759 
2 15190 15191 
1 14694 15190 
3 14693 14694 
3 14692 14693 
3 14560 14561 
1 14560 14692 
3 14561 14562 
3 2953 2954 
1 2953 11244 
1 20688 20977 
3 20977 20978 
3 20978 20979 
3 6721 6722 
1 6721 20979 
3 2954 2955 
2 3757 3758 
2 7400 7401 
3 6722 6723 
2 8714 8715 
2 5327 5328 
2 5326 5327 
2 3355 3356 
1 3355 5326 
2 13297 13298 
2 3356 3357 
2 18376 18377 
2 9848 9849 
2 9847 9848 
1 9847 18376 
2 18377 18378 
1 8715 18378 
2 13778 13779 
2 13777 13778 
2 5167 5168 
1 5167 13297 
1 5169 13014 
2 13013 13014 
2 13012 13013 
2 5168 5169 
1 8274 15885 
2 16895 16896 
2 16894 16895 
2 2266 2267 
1 2266 11793 
2 11792 11793 
2 12152 12153 
2 12151 12152 
1 7821 12151 
2 2267 2268 
2 622 623 
1 622 2268 
2 14104 14105 
1 14104 18574 
2 5030 5031 
2 9772 9773 
2 8899 8900 
2 18575 18576 
1 5031 8899 
2 18574 18575 
2 8900 8901 
1 8901 21220 
2 21220 21221 
2 21221 21222 
2 8273 8274 
2 17333 17334 
1 16833 17334 
2 17332 17333 
2 8272 8273 
1 8272 17332 
2 20666 20667 
2 20665 20666 
2 12760 12761 
1 12760 20665 
2 12761 12762 
2 21347 21348 
1 18846 20775 
2 18845 18846 
2 18844 18845 
2 5500 5501 
1 5500 12544 
2 16945 16946 
1 1251 4870 
2 11791 11792 
1 11791 14391 
2 4910 4911 
2 4909 4910 
1 4909 12568 
2 12568 12569 
2 14390 14391 
2 12569 12570 
2 4870 4871 
2 4871 4872 
1 4911 19791 
2 12544 12545 
2 9773 9774 
1 9774 16266 
2 16720 16721 
2 12545 12546 
2 16721 16722 
2 2341 2342 
1 2341 12546 
1 16722 19629 
2 2342 2343 
2 19628 19629 
2 19627 19628 
1 5670 19627 
1 12921 16720 
2 8390 8391 
2 14056 14057 
1 14056 15348 
2 16832 16833 
2 14057 14058 
2 21260 21261 
1 14058 21261 
2 21259 21260 
1 17346 21259 
2 18398 18399 
1 10059 12762 
2 21346 21347 
1 6417 21346 
2 6416 6417 
2 6415 6416 
1 6415 11371 
2 11371 11372 
1 4206 11146 
2 11372 11373 
2 11147 11148 
2 11146 11147 
3 1346 1347 
3 1345 1346 
1 1345 1903 
3 1904 1905 
3 1903 1904 
2 14389 14390 
2 85 86 
1 85 14389 
2 86 87 
2 16265 16266 
2 16264 16265 
1 1281 16264 
2 1280 1281 
2 16831 16832 
1 5442 21222 
1 14607 16831 
2 5441 5442 
2 7505 7506 
3 14606 14607 
2 5440 5441 
1 5440 7506 
2 10058 10059 
3 14605 14606 
1 14605 18939 
2 10057 10058 
2 18938 18939 
2 18937 18938 
2 11306 11307 
2 11305 11306 
1 11305 18937 
2 1250 1251 
2 9367 9368 
2 52 53 
1 52 9367 
2 53 54 
1 492 12570 
2 491 492 
2 1810 1811 
1 1810 3522 
2 490 491 
1 54 5478 
2 5528 5529 
1 19215 21211 
2 3521 3522 
2 3520 3521 
1 3520 21102 
1 2343 4236 
2 21212 21213 
2 4235 4236 
1 5529 21213 
2 4234 4235 
1 4234 15949 
2 21211 21212 
2 9527 9528 
2 20146 20147 
2 1966 1967 
1 1966 18397 
2 1967 1968 
2 18397 18398 
2 11665 11666 
1 11665 13203 