LAMMPS data file via write_data, version 7 Aug 2019, timestep = 40000000

8970 atoms
3 atom types
7175 bonds
3 bond types
5380 angles
3 angle types

0.0000000000000000e+00 5.0000000000000000e+01 xlo xhi
0.0000000000000000e+00 5.0000000000000000e+01 ylo yhi
0.0000000000000000e+00 5.0000000000000000e+01 zlo zhi

Masses

1 0.25
2 0.5
3 0.5

Bond Coeffs # harmonic

1 6000 0.15
2 2000 0.4
3 2000 0.4

Angle Coeffs # harmonic

1 100 180
2 50 180
3 50 180

Atoms # angle

308 2 2 8.8793814568873373e+00 1.1246839271402640e+00 1.2026100629749581e-01
309 1 1 9.1613596573697986e+00 1.2943024313695393e+00 2.8015592362283369e-02
307 1 1 8.5433231733365425e+00 9.6390905515859282e-01 3.9904353075207594e-01
19804 1 1 1.3682583016220516e+01 2.0052543191407777e+00 7.5478325355512155e-01
19805 3 3 1.4011967030770965e+01 1.9968845313049679e+00 6.0534289355909443e-01
19806 1 1 1.4367121993006638e+01 2.0796685719243380e+00 3.9442826519985641e-01
20419 1 1 2.6302734057143446e+00 7.4678607359621276e+00 1.2318679389617055e+00
1661 2 2 5.8309326081898210e+00 9.0271487720885126e+00 6.4464407278136060e-01
1660 1 1 5.8740467850889075e+00 8.6380890345690968e+00 5.5737040933602511e-01
1662 1 1 5.7827496849097741e+00 9.3962410740031022e+00 7.9165410339230280e-01
17777 3 3 5.6071975026421867e+00 9.8239426891893977e+00 1.0320346629969839e+00
17778 1 1 5.7445102378029063e+00 9.5137943729900059e+00 8.4236844690017720e-01
17776 1 1 5.4990794884098131e+00 1.0079972205092265e+01 1.3172134402246825e+00
18749 3 3 5.2464376951988330e+00 1.2120092575437859e+01 1.3881768475600429e+00
18748 1 1 5.0319150809395934e+00 1.2125274847044706e+01 1.0761844902056592e+00
16146 1 1 1.1621621446567943e+01 1.5128995124264875e+01 7.4108521436948738e-02
16145 3 3 1.1930600177080629e+01 1.4868383786116439e+01 6.2593990505994512e-02
16144 1 1 1.2190197996447582e+01 1.4556877095247696e+01 4.6161491909731386e-02
9023 2 2 1.1207737773908883e+01 1.5525893140424959e+01 7.5498756454413743e-02
9022 1 1 1.0941985282229497e+01 1.5806932773611791e+01 4.9333327290717932e-02
20514 1 1 1.3022489268588624e+01 1.5777913466281346e+01 9.4666379049132732e-01
20513 2 2 1.2804883899428976e+01 1.5831662571649129e+01 1.2497666261312681e+00
9024 1 1 1.1501148163135921e+01 1.5248128278600600e+01 8.1386946864811183e-02
20186 2 2 8.1521252184834729e+00 2.2789598928594110e+01 3.1140050451384749e-01
20187 1 1 8.1500182848256681e+00 2.2767729692912070e+01 6.9120451811773376e-01
12836 3 3 1.2819823977578832e+01 2.2084813663215641e+01 9.1247186998918528e-01
12837 1 1 1.2812594501848835e+01 2.1654596400440180e+01 8.5302932705378531e-01
12835 1 1 1.2870670995168540e+01 2.2453393880106919e+01 1.0149449019826393e+00
6739 1 1 1.4405377600014933e+01 2.3244511287099240e+01 8.1190993458987137e-01
6740 2 2 1.4186047053360198e+01 2.3048018123184903e+01 5.7313424496692800e-01
6741 1 1 1.4029498506368629e+01 2.2836281037177496e+01 2.9786657972525704e-01
2492 2 2 1.0658091290711214e+01 2.7094050460487885e+01 1.3791248594541334e+00
2491 1 1 1.0797676616991245e+01 2.7077624225660863e+01 1.0075156085386787e+00
16320 1 1 9.2191254342782276e+00 2.9571970359376579e+01 7.4418455011339493e-02
16319 2 2 9.1922157055838341e+00 2.9965434608652437e+01 4.0146937680255637e-02
5924 3 3 6.5751912810646518e-01 3.1360068024014943e+01 7.7726326764843712e-01
5923 1 1 1.0240849847075042e+00 3.1459889142544355e+01 8.3511102402458481e-01
18823 1 1 1.1749342421766478e+00 3.1497131424203921e+01 8.5994914789569110e-01
18824 3 3 1.5287447563786358e+00 3.1596787723996783e+01 9.6998668190072834e-01
5925 1 1 2.7170664416148260e-01 3.1428448115705624e+01 6.5944685389142443e-01
18825 1 1 1.8611483898553154e+00 3.1698845746279595e+01 1.1197896319807570e+00
18773 2 2 2.3545594229268949e+00 3.3144079359760013e+01 7.4917907807576201e-01
18774 1 1 2.5130935415166622e+00 3.3184442467545971e+01 1.1069940897628254e+00
18772 1 1 2.1420756610679033e+00 3.3105426649958268e+01 4.0032445642805742e-01
10161 1 1 7.8174576200908596e+00 3.6072393554922094e+01 1.2231223162998670e+00
5605 1 1 2.2924851838942519e+00 3.7242464037917905e+01 1.3859354885233033e+00
20706 1 1 5.7163926578243514e+00 3.9352458291380970e+01 5.1725485416135064e-01
20704 1 1 5.3698194051076840e+00 4.0199287853158332e+01 5.1051044865488382e-01
20705 3 3 5.5706230677939743e+00 3.9783868839270404e+01 4.8960153042613064e-01
7392 1 1 3.9499910319259874e+00 7.1824337184949838e-01 2.9889572634447283e+00
18604 1 1 3.2496625213294501e+00 1.6889816068333807e+00 2.9158335076632715e+00
18606 1 1 2.8010209873475049e+00 2.3658726541118704e+00 2.8106879597774168e+00
18605 3 3 3.0668104546385280e+00 2.0620020828939865e+00 2.8453331887370998e+00
13945 1 1 9.9266726972577377e+00 3.7721106895301015e+00 2.4139680697825447e+00
13946 3 3 1.0137896737436208e+01 3.7021492079053147e+00 2.0971392367628989e+00
13947 1 1 1.0334405120466368e+01 3.6813672828257578e+00 1.7574577441564974e+00
20421 1 1 2.7932517175668337e+00 7.3531866100145509e+00 2.0473669282097129e+00
20420 3 3 2.6829204790829229e+00 7.4631208730700900e+00 1.6929912441303208e+00
4722 1 1 1.2603571669514693e+00 1.0365318712420544e+01 2.8813291606940203e+00
4721 2 2 1.6290002907451988e+00 1.0528709033141112e+01 2.8197491210577170e+00
4720 1 1 1.9705259376292219e+00 1.0693260193451513e+01 2.7263900924772817e+00
7393 1 1 2.1046489028485618e+00 1.0798415701728663e+01 2.6635979923954545e+00
7394 2 2 2.3804109129694835e+00 1.0960498810073487e+01 2.4982497160179769e+00
7395 1 1 2.6941922471216553e+00 1.1178709544089825e+01 2.3931980940563271e+00
6150 1 1 2.8411403793413941e+00 1.1277845994010255e+01 2.3574210594018963e+00
6149 3 3 3.1385631253896666e+00 1.1450204050901966e+01 2.2869440622326502e+00
6148 1 1 3.4411357738277712e+00 1.1702317494494050e+01 2.1530801355855922e+00
18750 1 1 5.4298393958514906e+00 1.2088882609468017e+01 1.6949796517454274e+00
2915 2 2 8.9605660280728898e+00 1.3637258366037299e+01 2.5852983148792608e+00
2914 1 1 8.9705146375191642e+00 1.3514663344706712e+01 2.1420346542074395e+00
2916 1 1 8.9172020450260252e+00 1.3807511185159150e+01 2.9355378554491747e+00
5801 2 2 1.1781422137313820e+01 1.4904647111690400e+01 2.9565902019245214e+00
5802 1 1 1.1486966088363380e+01 1.4890091862590777e+01 2.7279234699157433e+00
20512 1 1 1.2613933188206536e+01 1.5871679471593604e+01 1.5780937039368477e+00
8250 1 1 9.3105913098818982e-01 1.7579405816064114e+01 1.9987183309529089e+00
8249 3 3 1.2493900001338853e+00 1.7573784670228275e+01 2.2653369549455333e+00
8248 1 1 1.6161047531953747e+00 1.7615367880915016e+01 2.3912123682305531e+00
19003 1 1 1.7707725797792204e+00 1.7643480556717975e+01 2.4621203987923153e+00
19005 1 1 2.4834202498802096e+00 1.7763206309304088e+01 2.7234350546881658e+00
19004 2 2 2.1032956993082359e+00 1.7698671661456974e+01 2.6228909771899427e+00
12160 1 1 8.7979971994374395e-01 2.0794948228118667e+01 1.8172155415163194e+00
12161 3 3 1.1898695965680959e+00 2.1028813484468422e+01 1.7688822878047443e+00
12162 1 1 1.4990712751116309e+00 2.1228507037974104e+01 1.6318419253122685e+00
8410 1 1 3.1822994813884389e+00 2.5441154912335321e+01 1.9162254835607400e+00
8411 3 3 3.3972676035989950e+00 2.5786693104502245e+01 1.9601002376825563e+00
8412 1 1 3.6658594974569563e+00 2.6141975178235803e+01 2.0231969035643163e+00
14279 3 3 8.7812213256448537e+00 2.6968989407290039e+01 2.5128540417570200e+00
14278 1 1 8.7646212855683210e+00 2.6926744773458498e+01 2.1003528629342805e+00
14280 1 1 8.7356732761834905e+00 2.6960719809414396e+01 2.9452998549482117e+00
2493 1 1 1.0547400029361038e+01 2.7103619749522085e+01 1.7593931787802255e+00
10390 1 1 1.0495835058543285e+01 2.7114387754268080e+01 1.8825209088519741e+00
10391 3 3 1.0309335207142581e+01 2.7166864930422548e+01 2.3141418561930251e+00
10392 1 1 1.0084119467067078e+01 2.7178003642030500e+01 2.6654770919587545e+00
18308 2 2 2.4459839123712062e+00 2.9421383449477510e+01 2.8122380094612445e+00
18309 1 1 2.1667502334673596e+00 2.9705224323539930e+01 2.8994723939359703e+00
1266 1 1 2.0718777776676216e+00 2.9790764314415767e+01 2.9448192764242798e+00
18307 1 1 2.7291484882688466e+00 2.9178376947735455e+01 2.7283871769490835e+00
8224 1 1 1.1819915886504043e+01 3.1857451159215323e+01 2.3148338429194526e+00
8225 3 3 1.2184116492365993e+01 3.1627308866771521e+01 2.2281936056692881e+00
8226 1 1 1.2480442435375721e+01 3.1387477294925564e+01 2.0714978991981887e+00
8686 1 1 1.6276229725633748e+00 3.3353408463455025e+01 2.9795544132190215e+00
1081 1 1 1.1425323744804837e+01 3.3486615884595714e+01 2.7461527294350621e+00
1082 3 3 1.1101405331431041e+01 3.3731358699732183e+01 2.6691539129736754e+00
1083 1 1 1.0833976268163646e+01 3.4024779151991666e+01 2.7318490619769427e+00
10160 3 3 7.7413752217213929e+00 3.6307532715597063e+01 1.5519188461079523e+00
10159 1 1 7.5749961675016557e+00 3.6441828199502829e+01 1.8373085131756439e+00
5607 1 1 2.9612114585979126e+00 3.6929716323499434e+01 1.6468553221113571e+00
5606 2 2 2.6244143394450612e+00 3.7088087319735884e+01 1.5614410756399941e+00
20153 2 2 2.4128455418949679e-01 4.0941869892893372e+01 1.7631380921609938e+00
20152 1 1 7.2188377096531114e-02 4.0663759798367344e+01 1.5292005331595717e+00
14883 1 1 7.5596123330246741e+00 4.0833718313399622e+01 2.4572584845965273e+00
7390 1 1 3.8233479410543696e+00 2.9726411440994660e-01 3.4778259214768590e+00
7391 2 2 3.8822982399116501e+00 5.5288926631854496e-01 3.2991535119180591e+00
7982 3 3 5.6904121543353732e+00 7.3640605290297700e-01 4.2925385322898748e+00
7983 1 1 5.9790062271252431e+00 6.0237829748106919e-01 4.0581646732018486e+00
3587 3 3 5.7918794111675727e+00 2.9600482557872447e+00 3.6230311992277420e+00
3588 1 1 5.7139898728622214e+00 2.5854460928196010e+00 3.5881062880605228e+00
17719 1 1 5.9859299780003044e+00 3.5278222868303915e+00 3.6641003471044566e+00
3586 1 1 5.9355306074384604e+00 3.3703756293410767e+00 3.6407667017252474e+00
17720 2 2 6.0929109316698051e+00 3.8527389035745920e+00 3.7028904772564699e+00
17721 1 1 6.1965654450354277e+00 4.2581256339721163e+00 3.7214291401467579e+00
4490 3 3 1.3636687709949440e+01 4.2836280561897055e+00 3.6562272490444756e+00
4491 1 1 1.3419207194796774e+01 4.1559425948606616e+00 4.0035314268411186e+00
14892 1 1 1.3332706798968911e+01 4.1202043228834269e+00 4.0934895537212261e+00
4489 1 1 1.3747329045108632e+01 4.4230809777186231e+00 3.2775240595808994e+00
14891 2 2 1.3041903351170951e+01 4.0257968616909290e+00 4.3426339527729985e+00
5800 1 1 1.2046157715132448e+01 1.4958656270838155e+01 3.2156452023638589e+00
20406 1 1 1.2950289894831567e+01 2.0442882247229381e+01 4.4838501450469037e+00
20405 2 2 1.2693573583467007e+01 2.0777612908420775e+01 4.4864928645146200e+00
12501 1 1 6.1469194673784084e+00 2.2439786885350664e+01 4.0507832223797218e+00
12500 2 2 5.7940503208754199e+00 2.2570851216117418e+01 4.2064100738415942e+00
12499 1 1 5.5048812699135228e+00 2.2704978940194092e+01 4.4214261487458009e+00
9458 2 2 6.5178649274479383e+00 2.5760228645494443e+01 3.7391420811991813e+00
9459 1 1 6.6807493064000525e+00 2.5455131073240658e+01 3.5830577388819682e+00
9457 1 1 6.4820455130173897e+00 2.6069131979825155e+01 3.9559721842831737e+00
1839 1 1 8.7368102653674313e+00 2.6960501945898390e+01 3.0785822636628759e+00
1838 2 2 8.7780666860314334e+00 2.6957585739514098e+01 3.4653954704855954e+00
1837 1 1 8.8530031721515527e+00 2.7089451617089470e+01 3.8383309387934212e+00
2475 1 1 8.9045657010150414e+00 2.7149553928299103e+01 3.9732288248095196e+00
2474 2 2 9.1031636361074622e+00 2.7272669867061666e+01 4.3566090214421918e+00
1264 1 1 1.5317534237346997e+00 3.0367682614484114e+01 3.2324683893950890e+00
7619 3 3 1.4547947462478630e+00 3.0255537331737106e+01 4.5079136845974670e+00
1265 3 3 1.7297901614623654e+00 3.0075473245588007e+01 3.0804587459747927e+00
7618 1 1 1.7194835438113478e+00 2.9915417845378816e+01 4.4261605918195537e+00
4581 1 1 6.2117250569042364e+00 2.9536171931996101e+01 3.4923841222532017e+00
4580 2 2 6.4871837685226641e+00 2.9437988574824356e+01 3.7905513475944708e+00
4579 1 1 6.7644216332024358e+00 2.9324847902542629e+01 4.1084629789212945e+00
8688 1 1 1.9467876684066441e+00 3.2881447138013257e+01 3.5605997991540392e+00
8687 3 3 1.8056567628199742e+00 3.3152396383242916e+01 3.3171124860862076e+00
17081 3 3 5.6699753419963992e+00 3.8860937981758653e+01 4.1654766863349071e+00
17082 1 1 5.8970795725777663e+00 3.9172105629311183e+01 4.1374811402193101e+00
17080 1 1 5.4379095544180132e+00 3.8575088519153248e+01 4.1647741218659631e+00
18798 1 1 1.4438369498014398e+01 3.9648864750524446e+01 4.1354949808541797e+00
18797 2 2 1.4283411654250299e+01 3.9770474448110015e+01 3.8646461052252743e+00
18796 1 1 1.4029590994855933e+01 3.9813304653160372e+01 3.5562682076528538e+00
7981 1 1 5.4128006510888351e+00 8.6515556713891784e-01 4.6043844138718129e+00
14340 1 1 1.3212317804858176e+00 3.3870381010248227e+00 4.6513260680990882e+00
14339 2 2 1.0614978039098362e+00 3.5376013792934762e+00 4.9086112425520056e+00
14338 1 1 7.9999078904766252e-01 3.6185552104939007e+00 5.2488891545540097e+00
5096 3 3 3.8902916635277546e-01 3.7108560241323163e+00 5.6590962298745282e+00
5095 1 1 7.4387509231171864e-02 3.7462493911777290e+00 5.8766742903905671e+00
5097 1 1 6.9339288428912060e-01 3.6452098436662252e+00 5.3716845911306939e+00
13075 1 1 5.3367988987779027e+00 3.8631449704742975e+00 5.2569992379762613e+00
13076 3 3 5.2664688670956572e+00 3.8880268845091823e+00 5.6572193249221092e+00
14890 1 1 1.2722058114779804e+01 3.9705064683544284e+00 4.5981003208511835e+00
11346 1 1 5.8616664857491099e+00 7.4904943485652415e+00 5.8985573391524513e+00
11345 2 2 6.1671481762405982e+00 7.2456519606124363e+00 5.6296069360803065e+00
11344 1 1 6.3410419583213047e+00 6.9482098387674158e+00 5.3447095417580197e+00
11735 3 3 1.2940989428503404e+01 8.4658155655005327e+00 4.7500643270743179e+00
11734 1 1 1.2771764299291164e+01 8.1413400496932677e+00 4.6673830826809128e+00
11736 1 1 1.3072031171461120e+01 8.8199817662044122e+00 4.8964326440657517e+00
20404 1 1 1.2463751310164833e+01 2.1052293399835460e+01 4.5323770330878057e+00
13481 3 3 5.6267234338923640e+00 2.5395046226092543e+01 4.9393926616158002e+00
13482 1 1 5.3611622795034366e+00 2.5153473560258984e+01 4.9843360978224007e+00
13480 1 1 5.9168950872097232e+00 2.5637362283556023e+01 4.8621471706873107e+00
16449 1 1 1.0362559762849335e+01 2.5496347361486063e+01 5.6215786576684676e+00
7721 3 3 9.7567419028341700e+00 2.6487976339647577e+01 5.0149321985094133e+00
7720 1 1 9.4280423589889697e+00 2.6670603124586197e+01 4.8065947821290402e+00
2473 1 1 9.2557678088206004e+00 2.7353421602636168e+01 4.7133703716027142e+00
7722 1 1 9.9390015682045210e+00 2.6299495350012236e+01 5.2600976694182604e+00
16447 1 1 1.0018507777287116e+01 2.6214579336698002e+01 5.3376081271275293e+00
16448 2 2 1.0229220494380550e+01 2.5902904898838266e+01 5.5003531630690246e+00
9549 1 1 8.1581233916524596e+00 2.9680984478695080e+01 5.9647542344291260e+00
10683 1 1 9.9280730979545666e+00 3.0048229718647079e+01 4.5346456736724994e+00
10682 3 3 1.0045987938004332e+01 3.0300234207390158e+01 4.8155378066998553e+00
17223 1 1 1.1237252274249894e+00 3.0692315251249092e+01 4.5853118135828925e+00
17222 3 3 8.5370273142024811e-01 3.0890222260973896e+01 4.5973821867130011e+00
17221 1 1 5.1157623052940959e-01 3.1126727255516073e+01 4.6986651396287966e+00
7620 1 1 1.2126742110029747e+00 3.0589201674395440e+01 4.5652450886812721e+00
12364 1 1 9.5227278206841586e+00 3.1279362931506292e+01 5.7645078242408418e+00
12365 3 3 9.1434236843102106e+00 3.1292045350009044e+01 5.9728787643328145e+00
10681 1 1 1.0280750093216916e+01 3.0516176427770276e+01 5.1014918677456116e+00
1847 3 3 1.3963904871512362e+01 3.1606704485467525e+01 4.7003608222433666e+00
1846 1 1 1.4283694284432853e+01 3.1770172711823669e+01 4.8187903801017207e+00
1848 1 1 1.3597205457571739e+01 3.1474382072409178e+01 4.5852177073624034e+00
15721 1 1 4.5087973023073286e-01 3.4644790262053661e+01 5.5316112133519084e+00
11766 1 1 5.4255905272539617e-01 3.4769168285639445e+01 5.5703940653188315e+00
15722 2 2 2.3235010872619716e-01 3.4259569365299015e+01 5.5172499240891115e+00
15723 1 1 3.0468402543461842e-03 3.3922335705623112e+01 5.5164275010240535e+00
11765 2 2 8.7475185113252463e-01 3.5045733573923677e+01 5.6889912436063099e+00
11764 1 1 1.2038556472096438e+00 3.5267325140152082e+01 5.7451370748523392e+00
4895 3 3 4.4750376365646263e+00 3.7516682320986234e+01 5.8971677320542915e+00
4896 1 1 4.8313088584669419e+00 3.7429994448165047e+01 5.6284599325518512e+00
8876 2 2 5.2741565588988690e+00 3.7433880979605391e+01 5.1859282286662181e+00
8877 1 1 5.5326117625358178e+00 3.7351766988653175e+01 4.9869928805498107e+00
8875 1 1 4.9543736813169827e+00 3.7410916245832396e+01 5.5089240682421963e+00
6114 1 1 4.4730789685083963e+00 3.8213728858838898e+01 5.7285991319387843e+00
6113 2 2 4.6472319176745893e+00 3.8511615637648084e+01 5.9589580109658584e+00
15929 2 2 1.0297899973156659e+01 9.0957949167554608e-01 6.6603788919273512e+00
15930 1 1 1.0373051279552033e+01 9.8166635577266370e-01 7.0334769630139968e+00
16864 1 1 1.0387460987376834e+01 1.0066984901889318e+00 7.1797414567785030e+00
15928 1 1 1.0288638929344168e+01 7.7731964223942518e-01 6.2397806684554835e+00
4553 3 3 1.3450273803381552e+00 3.0120932751506149e+00 6.8294252329655674e+00
4552 1 1 1.2533051205300259e+00 2.7298931708456378e+00 7.0687017304412008e+00
11761 1 1 6.4112090784817850e+00 1.9804207490305616e+00 6.8185831490133166e+00
11763 1 1 5.8000706038967813e+00 1.7639959740757336e+00 7.2889803853028008e+00
11762 2 2 6.1166630168715193e+00 1.8606723001167438e+00 7.0653258422206715e+00
21471 1 1 1.4001581266998889e+01 2.5885772025978806e+00 7.4460134170243366e+00
4554 1 1 1.3446679446853731e+00 3.2916034770387617e+00 6.5828342953104437e+00
13077 1 1 5.1506254052862648e+00 3.8157874660657995e+00 6.0407569813848747e+00
17623 1 1 4.1487648966318241e-01 8.2329036630679280e+00 6.0798194749686729e+00
17624 2 2 8.1697874644480917e-01 8.1140939857436187e+00 6.2250868812405864e+00
17625 1 1 1.1478552997136220e+00 8.0094566197090202e+00 6.4245720418892729e+00
14755 1 1 1.9591032233208370e+00 8.9829842816446082e+00 6.3087958657743206e+00
14757 1 1 1.7420034703990326e+00 9.4576708857990006e+00 6.9159554667207193e+00
14756 2 2 1.8606897966426401e+00 9.1737758609764093e+00 6.6327334302600542e+00
20965 1 1 1.9612633484920869e+00 1.2161672542092385e+01 6.6090048017198564e+00
20966 3 3 2.1187372922978294e+00 1.1830691630862045e+01 6.7463491893747314e+00
20967 1 1 2.3494571736006806e+00 1.1492870588213584e+01 6.7806254176663092e+00
1866 1 1 2.1902767814093989e+00 1.3477129209230901e+01 7.1486127571009908e+00
1865 2 2 2.3926319660207107e+00 1.3190056275173577e+01 7.3989977998649614e+00
18872 3 3 1.1478170083325271e+01 1.2850215955391549e+01 7.4842497781484205e+00
18871 1 1 1.1660194410958743e+01 1.2524712640548378e+01 7.2724938560662675e+00
17481 1 1 1.6617479668045638e+00 1.6627708726360531e+01 6.5021005618388026e+00
17479 1 1 1.3649271696577416e+00 1.7195913589475008e+01 6.8573525592447764e+00
17480 2 2 1.5059427050740628e+00 1.6884394747449896e+01 6.6886506821696843e+00
20819 3 3 1.0167837145997405e+00 1.7884404195731157e+01 6.6138760404222872e+00
20779 1 1 1.4548372371498679e+00 1.7956605815575642e+01 6.3232869972716372e+00
20820 1 1 1.3393594809048670e+00 1.7937024364828080e+01 6.4065984704664150e+00
20818 1 1 6.5212833922379765e-01 1.7878156883007886e+01 6.7179616622994054e+00
20781 1 1 2.1185501613028421e+00 1.8249123544227878e+01 6.0364833265018012e+00
20780 3 3 1.7874371194757048e+00 1.8059712685751773e+01 6.1777109982551295e+00
5324 3 3 1.0368601798478640e+00 2.0953992951818009e+01 7.0477185763419934e+00
5325 1 1 7.6865493101596172e-01 2.0954674560246826e+01 7.3486455118543850e+00
5323 1 1 1.2610755145708958e+00 2.0982604996814501e+01 6.7052396375501244e+00
9747 1 1 6.5475424692679569e+00 2.7853830014719172e+01 7.1664097233246116e+00
9746 2 2 6.8019636181575409e+00 2.8165378576874271e+01 7.0234882418290319e+00
9745 1 1 7.0331159380336112e+00 2.8441552491174356e+01 6.8457713145046881e+00
15033 1 1 7.1494711073613990e+00 2.8532994291875404e+01 6.8094796134933961e+00
15032 2 2 7.4548505040082027e+00 2.8739125031610961e+01 6.6281433646286327e+00
9547 1 1 7.7872519908542213e+00 2.9129511655730095e+01 6.4404219596035137e+00
15031 1 1 7.6987816088768044e+00 2.9027940530248681e+01 6.4902389744877143e+00
9548 3 3 7.9812172521730131e+00 2.9373185182524740e+01 6.1837664279802755e+00
20915 2 2 6.6336422723300918e+00 3.0385275661961444e+01 7.2740065823532811e+00
20916 1 1 6.9990734103671803e+00 3.0337790904215741e+01 7.4703577605075031e+00
20914 1 1 6.2635010129283559e+00 3.0456878124617557e+01 7.1513168491835604e+00
8942 3 3 8.0129668671956509e+00 3.1597911055209956e+01 7.4349691700076992e+00
12366 1 1 8.8574470617050896e+00 3.1326283816875492e+01 6.1773480307480648e+00
11187 1 1 8.7477106493528272e+00 3.1329368579607756e+01 6.2901345921928593e+00
8943 1 1 8.1760427636013731e+00 3.1466900674270914e+01 7.0839915994444169e+00
11185 1 1 8.2454067310038806e+00 3.1439580036173542e+01 6.9184860164803350e+00
11186 2 2 8.4258454891712518e+00 3.1380183226690903e+01 6.6015205731972504e+00
4894 1 1 4.1293883614881048e+00 3.7687323919615963e+01 6.1055565865543020e+00
6520 1 1 1.2178977268553183e+01 3.7989150317123361e+01 6.8526239338133079e+00
6112 1 1 4.7490164394333165e+00 3.8793053185944558e+01 6.2055790425481794e+00
11757 1 1 8.6216781497529276e+00 3.8545642650055619e+01 6.1193831967041943e+00
11756 2 2 8.5285736191502277e+00 3.8402670250425466e+01 6.4838315742724584e+00
11755 1 1 8.5163558296401654e+00 3.8156039753071333e+01 6.7999320954317977e+00
6521 2 2 1.1831717250623992e+01 3.8224200763599903e+01 6.8935792097422262e+00
6522 1 1 1.1482081434984625e+01 3.8412756168679287e+01 6.8694120406698866e+00
16865 3 3 1.0365719871045052e+01 1.0664069420700895e+00 7.5671471777884536e+00
16866 1 1 1.0414316606878078e+01 1.2152056837843057e+00 7.9177398604997631e+00
21470 3 3 1.3878244692957514e+01 2.6121946820934516e+00 7.8247077321477310e+00
21469 1 1 1.3755529006057737e+01 2.7271756657740451e+00 8.1847544693847265e+00
18615 1 1 8.6154711320507626e+00 4.7637094142770158e+00 8.6472941266528043e+00
18614 3 3 8.6648102480924472e+00 5.0845862628793039e+00 8.4502989082103070e+00
18613 1 1 8.6699496887242180e+00 5.4278686044896602e+00 8.2175008879514415e+00
20643 1 1 1.4552389315673700e+01 9.8203532858488831e+00 8.9018989496825540e+00
1864 1 1 2.6514091431636504e+00 1.3011780518521675e+01 7.5936356845183193e+00
16935 1 1 1.1156597013055679e+01 1.3235239663884121e+01 7.7489780221630316e+00
18873 1 1 1.1245720737826089e+01 1.3111678454753017e+01 7.6891740655302740e+00
16934 2 2 1.0986909331048150e+01 1.3574174263580622e+01 7.8382381769037108e+00
16933 1 1 1.0837042476812115e+01 1.3883937728068169e+01 8.0038849226962920e+00
21163 1 1 1.1799962894713207e+01 1.3900303509999356e+01 8.4294750172046005e+00
21164 3 3 1.2155781630940739e+01 1.4032457220519060e+01 8.4422953660594739e+00
21165 1 1 1.2526123913537058e+01 1.4090967371341687e+01 8.4641337732145274e+00
9487 1 1 1.3431890817645781e+01 2.5544441925114775e+01 8.8321145045339122e+00
9488 3 3 1.3717245234678195e+01 2.5818229080883295e+01 8.9115445415783832e+00
9489 1 1 1.4110075551035278e+01 2.5965438176787867e+01 9.0133584128878379e+00
19604 2 2 3.4862498902769139e+00 2.9329126455891181e+01 7.9621946149795004e+00
19605 1 1 3.4712678564217430e+00 2.8964485602229121e+01 7.9681811222251495e+00
19603 1 1 3.5326299620983748e+00 2.9713711974134728e+01 7.9964501647626172e+00
8941 1 1 7.9360297382867060e+00 3.1751300698109727e+01 7.8049923389643663e+00
4014 1 1 8.7244921893035183e+00 3.6382875265726263e+01 8.4484068538274624e+00
4012 1 1 9.1540724619009453e+00 3.6985725542138965e+01 8.0449226125387963e+00
4013 3 3 8.9396002295056736e+00 3.6674278687679781e+01 8.2457140898617176e+00
4820 3 3 1.4254074019960980e+01 3.9314748106412743e+01 8.9969657712113911e+00
4819 1 1 1.3848647307617805e+01 3.9328001722174825e+01 8.9210154181903949e+00
2227 1 1 8.0457823055935691e+00 4.0879388826871939e+01 8.3102584795240766e+00
2228 2 2 8.2971624802877244e+00 4.0854446266440114e+01 7.9803652317919616e+00
2229 1 1 8.5461237931947185e+00 4.0854052615972833e+01 7.6326467884850420e+00
17323 1 1 1.2395455716597461e+01 2.1082515942919615e+00 1.0361592754148306e+01
20642 2 2 1.4284513723640618e+01 9.8762862168108700e+00 9.1859826417512718e+00
20641 1 1 1.4029315083873970e+01 9.9924711959901273e+00 9.5561538323812396e+00
19860 1 1 7.1349794888256204e+00 2.1955984653347706e+01 1.0177276246360066e+01
1326 1 1 3.6350508638727059e+00 2.5520328895332060e+01 1.0232517688915053e+01
20958 1 1 1.3458221147122837e+01 2.4853841378653094e+01 9.7630529039067575e+00
20956 1 1 1.4135938921156770e+01 2.4806158357285607e+01 9.3186211740506284e+00
20957 2 2 1.3800469113101562e+01 2.4766293622115217e+01 9.5518703988444109e+00
7077 1 1 1.4243829842807147e+01 2.6041150876541934e+01 9.0523753547365651e+00
7076 3 3 1.4568403791949807e+01 2.6167501048742032e+01 9.1658929934784936e+00
4061 2 2 1.3031274454752850e+00 3.4370545051401692e+01 9.4345643411532443e+00
4060 1 1 8.9147439723972355e-01 3.4438328710534108e+01 9.2847259402615308e+00
4062 1 1 1.6645221968779602e+00 3.4328443040532676e+01 9.6562952662747499e+00
895 1 1 1.2703377241624812e+01 3.5718832830820986e+01 1.0529915845019767e+01
19131 1 1 4.5064271138595400e+00 3.7541678885575664e+01 9.4334902318604748e+00
19130 3 3 4.3760104388800789e+00 3.7132152754427572e+01 9.6327438246856314e+00
19129 1 1 4.2049148056895200e+00 3.6814096470393309e+01 9.8887273608744959e+00
19887 1 1 1.3315728395226456e+01 3.7008085728416326e+01 9.7961065994941610e+00
19886 3 3 1.3272032459989077e+01 3.7070410101460389e+01 1.0216907221169174e+01
4821 1 1 1.4666656981965183e+01 3.9367984102064753e+01 9.0965462889861683e+00
4954 1 1 1.2382369291842421e+01 1.7668436552869917e+00 1.1558859011248567e+01
17325 1 1 1.1815121204261681e+01 1.8135946668476597e+00 1.0847560185185463e+01
17324 3 3 1.2158984766890615e+01 1.9174002535003738e+00 1.0620999553201129e+01
4955 3 3 1.2432681072548784e+01 1.8049383633897014e+00 1.1950782613851606e+01
16517 3 3 1.2889689376881647e+01 4.2695207618288551e+00 1.2014823929356723e+01
16518 1 1 1.2594967671906019e+01 4.3610159924003424e+00 1.1788428039863430e+01
19165 1 1 1.3363044038043919e+01 8.0980297984162455e+00 1.1459195485804546e+01
19166 3 3 1.3264642878552898e+01 8.4010917127977294e+00 1.1686866070633995e+01
19167 1 1 1.3098652681607955e+01 8.6035011403720674e+00 1.1969022746176314e+01
2197 1 1 9.4896560557312668e+00 1.1024423192949698e+01 1.0796281783455035e+01
2198 2 2 9.1415715530157087e+00 1.1248795649371385e+01 1.0891055682887577e+01
2199 1 1 8.8526347071222240e+00 1.1491543038176012e+01 1.1017686157771744e+01
8618 3 3 8.7100279593361503e+00 1.7874822886900919e+01 1.1937857595940098e+01
8617 1 1 8.3765082958162420e+00 1.7771774219927057e+01 1.1737156438665306e+01
907 1 1 1.2470577794707207e+01 2.1000695149699464e+01 1.1303450838540815e+01
908 3 3 1.2805610520446283e+01 2.0878192232524142e+01 1.1071604215513537e+01
909 1 1 1.3113974745996797e+01 2.0732428598216114e+01 1.0928694319482997e+01
19858 1 1 7.0745077814302793e+00 2.1819093808783602e+01 1.0950930883549701e+01
19859 2 2 7.0784537332081667e+00 2.1913682925847066e+01 1.0542472705650120e+01
1325 2 2 3.8384503034499060e+00 2.5385176169593439e+01 1.0554779257992777e+01
1324 1 1 4.0225519850164781e+00 2.5418515197705503e+01 1.0897915339298988e+01
6163 1 1 1.2933103168324353e+01 3.4665825943717941e+01 1.1702203839651705e+01
896 3 3 1.2734238848385228e+01 3.5814247132346885e+01 1.0944324985008370e+01
897 1 1 1.2639822865843918e+01 3.5768364404961616e+01 1.1329677976700607e+01
2922 1 1 1.3621876380575699e+01 3.5152215528975070e+01 1.1799429379524641e+01
12425 3 3 1.2793494979472150e+01 3.6786992835240724e+01 1.1672985044190215e+01
12424 1 1 1.2706878353112813e+01 3.6635864512551109e+01 1.1294744733279893e+01
19885 1 1 1.3273180279351593e+01 3.7222461394489819e+01 1.0555843287814664e+01
21238 1 1 1.3251859828090291e+01 3.7279997760140709e+01 1.0672404192813252e+01
21239 3 3 1.3241720514467344e+01 3.7459493738236119e+01 1.1000581281425704e+01
21240 1 1 1.3242560757560753e+01 3.7654816881624640e+01 1.1330257365487252e+01
3043 1 1 1.3213749494334365e+01 3.7723531414912692e+01 1.1466168044622398e+01
3044 2 2 1.3191529784547571e+01 3.7921707485558578e+01 1.1800965655456816e+01
9625 1 1 9.0453615459478076e+00 4.0246365582417148e+01 1.1152100424408792e+01
9626 2 2 9.1689918902938210e+00 4.0385759943899465e+01 1.1514895464690040e+01
9627 1 1 9.3269248249269143e+00 4.0573828480859888e+01 1.1803518867384350e+01
18918 1 1 9.3999648783714953e+00 4.0646986008148509e+01 1.1912672934670187e+01
20941 1 1 1.4521625200403601e+01 4.0102580314172343e+01 1.2035401304351783e+01
4237 1 1 1.4170633179256621e+01 4.0345994947570212e+01 1.1566256592727894e+01
4238 2 2 1.3984487998231998e+01 4.0633038133278362e+01 1.1624142893682237e+01
4239 1 1 1.3816473959405473e+01 4.0982857108754885e+01 1.1693187348490893e+01
5374 1 1 1.2501144824556162e+01 1.4990763186550964e+00 1.3231935042912488e+01
4956 1 1 1.2440692964338137e+01 1.7100150133993757e+00 1.2349825710285364e+01
5376 1 1 1.2433437387303330e+01 1.6839671028462413e+00 1.2501086821038365e+01
5375 2 2 1.2437003722644221e+01 1.5658656431970652e+00 1.2853558854115036e+01
11981 3 3 1.2905272111303148e+01 2.7463763863978929e+00 1.3473048965874215e+01
7537 1 1 1.3033288345425234e+01 2.5380846759713012e+00 1.3009421443478566e+01
11982 1 1 1.2982015663857354e+01 2.5939985825944372e+00 1.3146992928047515e+01
7539 1 1 1.3277155175171142e+01 2.3477213808404933e+00 1.2290382592294694e+01
7538 2 2 1.3158684676846109e+01 2.4638732633162048e+00 1.2628318996669185e+01
14487 1 1 1.3788406047686298e+01 4.2998775133648364e+00 1.3057320275327884e+01
14486 2 2 1.3571981331339330e+01 4.3111449113655151e+00 1.2751489014718075e+01
16516 1 1 1.3151227803252475e+01 4.2861786982116792e+00 1.2336600908923780e+01
14485 1 1 1.3279884520555070e+01 4.2960663798135359e+00 1.2427534608948125e+01
14667 1 1 1.3631114532779131e+01 5.3581395678859272e+00 1.3076374122729705e+01