ITEM: TIMESTEP
35000000
ITEM: NUMBER OF ENTRIES
282
ITEM: BOX BOUNDS pp pp pp
0 50
0 50
0 50
ITEM: ENTRIES c_binfo[1] c_binfo[2] c_binfo[3] 
2 20015 20016 
2 20014 20015 
3 6547 6548 
1 6547 20014 
3 6548 6549 
2 5203 5204 
2 4663 4664 
1 4663 5203 
2 4664 4665 
2 2309 2310 
2 1267 1268 
1 1267 5779 
2 5779 5780 
2 5780 5781 
1 5781 6549 
2 8443 8444 
2 8444 8445 
2 16366 16367 
2 7316 7317 
2 2308 2309 
1 2308 17052 
2 17051 17052 
2 17050 17051 
2 12166 12167 
2 2767 2768 
1 2767 12166 
2 2768 2769 
2 5204 5205 
1 5205 8965 
2 8965 8966 
2 8966 8967 
1 8967 14388 
1 2769 6538 
2 6538 6539 
2 6539 6540 
2 20360 20361 
1 6540 20361 
2 20359 20360 
2 18835 18836 
2 18836 18837 
1 1269 18835 
1 9012 18837 
2 1268 1269 
2 11966 11967 
2 8441 8442 
2 11965 11966 
2 8440 8441 
1 8440 11965 
1 7704 8442 
2 4448 4449 
1 4449 9321 
2 7315 7316 
1 7315 15085 
2 4447 4448 
1 4447 8445 
2 15085 15086 
1 9561 15087 
2 15086 15087 
2 5345 5346 
2 5344 5345 
1 5344 16368 
2 9560 9561 
2 16367 16368 
1 3270 11781 
2 3269 3270 
2 3268 3269 
2 5516 5517 
2 5515 5516 
2 12167 12168 
2 20812 20813 
2 18367 18368 
1 18367 20812 
2 20813 20814 
2 14386 14387 
1 14386 20814 
2 14387 14388 
2 2047 2048 
1 2047 15195 
2 2987 2988 
2 2986 2987 
1 2986 15634 
2 15634 15635 
2 15635 15636 
2 3706 3707 
1 3706 15636 
2 3707 3708 
1 3708 7596 
2 7595 7596 
2 9011 9012 
2 12878 12879 
2 9010 9011 
1 9010 12879 
1 1524 9357 
2 12877 12878 
2 2048 2049 
1 2049 9319 
2 9319 9320 
2 7703 7704 
2 7702 7703 
1 7702 9355 
2 9355 9356 
2 9356 9357 
1 7878 10918 
2 10918 10919 
2 9320 9321 
1 249 5346 
2 9559 9560 
1 9559 10920 
2 10919 10920 
2 17492 17493 
2 248 249 
2 247 248 
1 247 17493 
2 7594 7595 
1 7594 14266 
2 14266 14267 
2 14267 14268 
2 3250 3251 
1 3250 14268 
2 3251 3252 
1 3252 19173 
2 6193 6194 
1 6193 20118 
2 6194 6195 
2 11780 11781 
2 11779 11780 
1 11779 14617 
2 14617 14618 
2 14618 14619 
1 9678 12574 
2 12574 12575 
2 9677 9678 
2 21185 21186 
2 21184 21185 
2 16798 16799 
1 16798 21184 
2 16799 16800 
2 17452 17453 
2 9676 9677 
3 2254 2255 
1 2254 9676 
1 5694 16800 
3 2255 2256 
3 13058 13059 
3 13057 13058 
1 10905 13059 
2 10904 10905 
2 18368 18369 
2 15194 15195 
2 15193 15194 
2 8212 8213 
1 8212 15193 
2 8213 8214 
2 16285 16286 
2 14221 14222 
1 14221 16285 
2 5177 5178 
2 5176 5177 
1 5176 10903 
2 10903 10904 
2 13180 13181 
1 13180 16824 
2 16823 16824 
2 16822 16823 
1 16822 17010 
2 17009 17010 
2 4936 4937 
1 10605 13347 
2 10603 10604 
2 10604 10605 
2 1522 1523 
1 1522 10603 
2 1523 1524 
2 9700 9701 
1 9700 14619 
2 941 942 
1 942 9702 
2 9701 9702 
2 14222 14223 
2 7876 7877 
1 7876 14223 
2 7877 7878 
2 17491 17492 
2 17008 17009 
1 17008 17491 
2 6064 6065 
1 6064 6456 
2 6065 6066 
2 5692 5693 
1 5692 6066 
2 5693 5694 
1 1839 14280 
2 1838 1839 
2 19172 19173 
2 19171 19172 
2 4937 4938 
2 20117 20118 
2 13931 13932 
2 20116 20117 
2 13930 13931 
1 13930 20116 
1 8940 13932 
2 12575 12576 
2 16571 16572 
2 16570 16571 
1 13596 16570 
1 12576 16572 
2 16261 16262 
2 16262 16263 
2 12299 12300 
2 12298 12299 
2 17453 17454 
1 16287 20875 
1 495 20877 
2 20876 20877 
2 20875 20876 
2 16286 16287 
2 13181 13182 
3 14278 14279 
2 13345 13346 
2 18833 18834 
2 18832 18833 
1 18832 20217 
2 13346 13347 
2 20216 20217 
2 13595 13596 
2 940 941 
1 940 20215 
2 20215 20216 
2 15505 15506 
2 15506 15507 
2 13594 13595 
1 13594 15507 
2 10100 10101 
1 9348 15505 
2 10099 10100 
2 10537 10538 
1 10101 10537 
2 6455 6456 
2 6454 6455 
1 6454 10099 
2 11317 11318 
1 11317 12637 
2 12637 12638 
2 12638 12639 
2 1837 1838 
1 1837 2475 
2 11318 11319 
3 14279 14280 
2 8939 8940 
2 10442 10443 
2 10441 10442 
2 8938 8939 
1 8938 10441 
2 2473 2474 
2 2474 2475 
1 15588 20856 
3 15587 15588 
3 15586 15587 
3 20855 20856 
3 494 495 
3 493 494 
1 493 15586 
3 20510 20511 
1 10539 20511 
1 15096 20509 
3 20509 20510 
2 10228 10229 
1 10228 18834 
2 10229 10230 
3 10475 10476 
3 9346 9347 
1 9346 10474 
3 10474 10475 
3 9515 9516 
3 9514 9515 
1 9514 10476 
2 10538 10539 
3 9347 9348 
3 20854 20855 
3 15094 15095 
3 15095 15096 
