LAMMPS data file via write_data, version 7 Aug 2019, timestep = 40000000

303 atoms
3 atom types
283 bonds
3 bond types
263 angles
3 angle types

0.0000000000000000e+00 5.0000000000000000e+01 xlo xhi
0.0000000000000000e+00 5.0000000000000000e+01 ylo yhi
0.0000000000000000e+00 5.0000000000000000e+01 zlo zhi

Masses

1 0.25
2 0.5
3 0.5

Bond Coeffs # harmonic

1 6000 0.15
2 2000 0.4
3 2000 0.4

Angle Coeffs # harmonic

1 100 180
2 50 180
3 50 180

Atoms # angle

14279 3 3 8.7812213256448537e+00 2.6968989407290039e+01 2.5128540417570200e+00
14278 1 1 8.7646212855683210e+00 2.6926744773458498e+01 2.1003528629342805e+00
14280 1 1 8.7356732761834905e+00 2.6960719809414396e+01 2.9452998549482117e+00
1839 1 1 8.7368102653674313e+00 2.6960501945898390e+01 3.0785822636628759e+00
1838 2 2 8.7780666860314334e+00 2.6957585739514098e+01 3.4653954704855954e+00
1837 1 1 8.8530031721515527e+00 2.7089451617089470e+01 3.8383309387934212e+00
2475 1 1 8.9045657010150414e+00 2.7149553928299103e+01 3.9732288248095196e+00
2474 2 2 9.1031636361074622e+00 2.7272669867061666e+01 4.3566090214421918e+00
2473 1 1 9.2557678088206004e+00 2.7353421602636168e+01 4.7133703716027142e+00
12639 1 1 1.9889412465163463e+01 3.7232568489572010e+01 2.1264683624265931e+01
11319 1 1 2.0443995037194050e+01 3.8859297770369508e+01 2.0672367788548716e+01
12638 2 2 2.0045494047648550e+01 3.7576741893245170e+01 2.1083268895026421e+01
11317 1 1 2.0205548319489733e+01 3.8099197199639420e+01 2.0902663375727109e+01
12637 1 1 2.0182264399292357e+01 3.7933774592889513e+01 2.0955435322002781e+01
11318 2 2 2.0270909444406808e+01 3.8502960450812587e+01 2.0715281690305286e+01
4938 1 1 2.0178427416254301e+01 4.3425925984760468e+01 2.1341605915390971e+01
4936 1 1 2.0636776285823832e+01 4.3315074122623287e+01 2.2053426586274163e+01
4937 2 2 2.0401861536810010e+01 4.3412226794597316e+01 2.1699500701296333e+01
17453 2 2 2.3582323348596091e+01 6.1338969989763683e+00 2.6670964746984048e+01
17452 1 1 2.3734352186165193e+01 6.1655732816829181e+00 2.6321264624461868e+01
17454 1 1 2.3379259318564927e+01 6.2363961438692819e+00 2.7011461381599915e+01
5516 2 2 3.3952572532215086e+00 2.1084933469344318e+01 2.6720444515013398e+01
5515 1 1 3.3405660125277552e+00 2.1104743008861494e+01 2.6319843165409743e+01
5517 1 1 3.4483162507929510e+00 2.1048268895373727e+01 2.7154182241183690e+01
10903 1 1 1.7818688347737791e-01 2.9618482400754644e+01 3.2969247691684188e+01
5176 1 1 2.8240842693698887e-01 2.9685392367950538e+01 3.3010172816473428e+01
5177 2 2 5.5869493474310084e-01 2.9910003575142113e+01 3.3138537088334651e+01
5178 1 1 7.8914100031123946e-01 3.0111655504974660e+01 3.3438527116055987e+01
2310 1 1 9.4756471044990906e+00 3.2055232347920608e+01 4.3509878513531703e+01
2309 2 2 9.7127585778452037e+00 3.2135212455323924e+01 4.3838163201602683e+01
2308 1 1 9.9638527927534479e+00 3.2264299043339577e+01 4.4123569135791364e+01
17052 1 1 1.0067629374832613e+01 3.2295185098195887e+01 4.4202632873045765e+01
17051 2 2 1.0327343275786417e+01 3.2467038712872828e+01 4.4352748015969517e+01
17050 1 1 1.0574510816587225e+01 3.2760430883966279e+01 4.4463991893507341e+01
12298 1 1 3.8359470292543293e+01 1.5611089856024435e+01 2.8743501403106098e+01
12299 2 2 3.8704551228914283e+01 1.5542588782469654e+01 2.8919484530214397e+01
12300 1 1 3.9037406426440100e+01 1.5536040679150744e+01 2.9156659643069506e+01
3268 1 1 3.3283913927057775e+01 1.1683093258486380e+01 3.5664604589294953e+01
18369 1 1 3.2693596728599225e+01 1.0721238710007004e+01 3.5741070530666669e+01
18368 2 2 3.3033667912958656e+01 1.0688968250559673e+01 3.6014154468195798e+01
18367 1 1 3.3325261857865215e+01 1.0611202770164246e+01 3.6258911013543674e+01
20812 1 1 3.3450318560205048e+01 1.0574667267247438e+01 3.6343603605090557e+01
20813 2 2 3.3803035222947202e+01 1.0482007952314259e+01 3.6621588113341723e+01
20814 1 1 3.4161081629106199e+01 1.0431830089679451e+01 3.6844707602168867e+01
14386 1 1 3.4300086065831913e+01 1.0442123754887348e+01 3.6915558365353306e+01
14617 1 1 3.5051649699757292e+01 1.1049303111389904e+01 3.6219366889909146e+01
11779 1 1 3.4888553003695279e+01 1.1100928130848594e+01 3.6177659010831661e+01
14618 2 2 3.5395855634833353e+01 1.0973724674067560e+01 3.6304213797232975e+01
14387 2 2 3.4652722284527606e+01 1.0455587234971906e+01 3.7114333582922882e+01
14388 1 1 3.5049725674551937e+01 1.0413131663040479e+01 3.7237728357358876e+01
11780 2 2 3.4526835561199348e+01 1.1167104420873093e+01 3.6087061188911719e+01
14619 1 1 3.5798893237152591e+01 1.0873900397219051e+01 3.6461627179178080e+01
9700 1 1 3.5918240284717704e+01 1.0835723826916496e+01 3.6505494292701393e+01
9701 2 2 3.6293413254388618e+01 1.0760259914156590e+01 3.6535452570482150e+01
9702 1 1 3.6652670000110227e+01 1.0673460047274316e+01 3.6515511523714110e+01
942 1 1 3.6821246158118768e+01 1.0638601435909028e+01 3.6512740387378834e+01
941 2 2 3.7196197965917356e+01 1.0605477941635410e+01 3.6549251194371138e+01
18832 1 1 3.8708931400003394e+01 1.0808911907543498e+01 3.6575831522133100e+01
940 1 1 3.7618680375650236e+01 1.0583573618131146e+01 3.6621090795042470e+01
20217 1 1 3.8549106162188004e+01 1.0772006896336796e+01 3.6570445080041978e+01
20215 1 1 3.7784159101438753e+01 1.0592454759387847e+01 3.6621384956475289e+01
20216 2 2 3.8181759352806047e+01 1.0645832011075514e+01 3.6573012389409726e+01
10229 2 2 4.0085465901982452e+01 1.0878333062719204e+01 3.6786014978054148e+01
10228 1 1 3.9697372233122941e+01 1.0828618372141953e+01 3.6705550494568655e+01
18833 2 2 3.9121645693595603e+01 1.0803328390978818e+01 3.6605877114809758e+01
18834 1 1 3.9524903760564520e+01 1.0802175678720298e+01 3.6663614271317670e+01
10230 1 1 4.0504832281385497e+01 1.0921171224776373e+01 3.6917594377191925e+01
3269 2 2 3.3614658506834971e+01 1.1469905561285724e+01 3.5782482913942445e+01
19171 1 1 3.3924360903142507e+01 1.2358453544672765e+01 3.6184659664582696e+01
21186 1 1 3.3940773718082013e+01 1.1532462394537649e+01 3.6954307809219259e+01
3270 1 1 3.3975054706840645e+01 1.1325049260522865e+01 3.5894154440584529e+01
11781 1 1 3.4125194997382742e+01 1.1305723117553862e+01 3.5943011304885864e+01
21185 2 2 3.4329149108884152e+01 1.1522543992206348e+01 3.7096224734076074e+01
21184 1 1 3.4636172890104191e+01 1.1516108502503641e+01 3.7234169640846346e+01
19172 2 2 3.4294363003315183e+01 1.2265208251537159e+01 3.6335142959340288e+01
19173 1 1 3.4676092449276737e+01 1.2150256345284545e+01 3.6432087252604099e+01
3252 1 1 3.4821759541807438e+01 1.2105901444881885e+01 3.6469532012427003e+01
3251 2 2 3.5173067073290369e+01 1.2015547465621662e+01 3.6536922398593646e+01
3250 1 1 3.5468087242380207e+01 1.1871135014022792e+01 3.6732325113513426e+01
14268 1 1 3.5579368564627728e+01 1.1843721919667352e+01 3.6791292081046365e+01
7595 2 2 3.6912575753010678e+01 1.1567939153364444e+01 3.7088355804784712e+01
14267 2 2 3.6001245940837215e+01 1.1794468113976366e+01 3.6905680942427722e+01
14266 1 1 3.6377635352015517e+01 1.1745782204066213e+01 3.6978160116142512e+01
7594 1 1 3.6517939217867358e+01 1.1707145626318406e+01 3.6996980364232385e+01
8444 2 2 3.5663873907701031e+01 1.2772055225965676e+01 3.5961069333934951e+01
4449 1 1 3.6976737314686979e+01 1.2534348168835651e+01 3.6303667989108192e+01
9321 1 1 3.7111754482279082e+01 1.2556284001744803e+01 3.6355689533837953e+01
4448 2 2 3.6602662271337863e+01 1.2558719582671966e+01 3.6199882596156662e+01
4447 1 1 3.6202723999637456e+01 1.2649936396642193e+01 3.6061472961891141e+01
8445 1 1 3.6047173166129753e+01 1.2695487181527081e+01 3.6017683482881765e+01
9320 2 2 3.7445671928922934e+01 1.2498032743723158e+01 3.6630695719472421e+01
3708 1 1 3.7422874085388379e+01 1.1362538816895887e+01 3.7181886384668118e+01
9319 1 1 3.7757640845966080e+01 1.2452271524049090e+01 3.6836172162165283e+01
7596 1 1 3.7285177293049749e+01 1.1451961192707861e+01 3.7139620728664511e+01
2049 1 1 3.7869380294810412e+01 1.2382447213868831e+01 3.6922719847345441e+01
2048 2 2 3.8209416596068209e+01 1.2229985615858608e+01 3.7123682062161954e+01
2047 1 1 3.8535518659519504e+01 1.2052901193266782e+01 3.7248885907019115e+01
16262 2 2 3.4783593981220719e+01 1.3085563298581519e+01 3.5928031101919892e+01
16263 1 1 3.4381029545870092e+01 1.3214504583614037e+01 3.5978431106186413e+01
16261 1 1 3.5146030093436238e+01 1.2936233320965625e+01 3.5904787753636889e+01
8443 1 1 3.5297718182707357e+01 1.2895732835290792e+01 3.5916651226759662e+01
7317 1 1 3.4317744748728352e+01 1.3663981204511751e+01 3.6941950606273409e+01
15086 2 2 3.5436491559516668e+01 1.2997440475048732e+01 3.7163103170636703e+01
15085 1 1 3.5081954287356467e+01 1.3127979143942936e+01 3.7073379966843788e+01
7315 1 1 3.4966158594730771e+01 1.3187756828883686e+01 3.7066097419280531e+01
7316 2 2 3.4657885756171289e+01 1.3449812993040208e+01 3.7011618574077922e+01
12877 1 1 3.5898081934119254e+01 1.3684358883011758e+01 3.6380978259225209e+01
12878 2 2 3.6227521467405509e+01 1.3583388456662901e+01 3.6620139458296052e+01
12879 1 1 3.6537738888449454e+01 1.3466986338315715e+01 3.6890265928655232e+01
9010 1 1 3.6653368568353727e+01 1.3430712881196689e+01 3.7000990144231388e+01
2256 1 1 3.2867804913459970e+01 1.0077149328224399e+01 3.7699914777469360e+01
2255 3 3 3.3212997489741582e+01 1.0316758034128584e+01 3.7849681068345184e+01
2254 1 1 3.3551057521782035e+01 1.0448364562247709e+01 3.7917547141773433e+01
9676 1 1 3.3671509925466246e+01 1.0483737557391766e+01 3.7938342044125335e+01
8967 1 1 3.5197778344883389e+01 1.0406020749156630e+01 3.7282451156296958e+01
9677 2 2 3.4011822730452195e+01 1.0630524050166244e+01 3.8013587151556521e+01
9678 1 1 3.4415932422592860e+01 1.0727077522564819e+01 3.8129009381060285e+01
12574 1 1 3.4561663599362213e+01 1.0747297219527585e+01 3.8179830892894465e+01
12575 2 2 3.4955469796377649e+01 1.0761708720934099e+01 3.8358311626353427e+01
12576 1 1 3.5337548834052363e+01 1.0714505778020738e+01 3.8508406426459914e+01
16572 1 1 3.5455830629581328e+01 1.0698197388621717e+01 3.8551569474144088e+01
8966 2 2 3.5619710778294383e+01 1.0502955243508548e+01 3.7387337965454961e+01
5205 1 1 3.6166273337972683e+01 1.0414833647587331e+01 3.7401328955666266e+01
8965 1 1 3.6045116903606171e+01 1.0443402072028025e+01 3.7390835647141351e+01
5204 2 2 3.6553728464927026e+01 1.0344197947362000e+01 3.7500525653176176e+01
5203 1 1 3.6870615406348456e+01 1.0279403030703358e+01 3.7527068877985833e+01
4663 1 1 3.7012140216792318e+01 1.0287248506333615e+01 3.7531316498259649e+01
16571 2 2 3.5823239944745524e+01 1.0689291256883724e+01 3.8624760651359004e+01
16570 1 1 3.6231241465294168e+01 1.0559092084852738e+01 3.8667098604334740e+01
6065 2 2 3.6962803965049879e+01 1.1214762913904586e+01 3.8013285451628036e+01
13596 1 1 3.6376357688025109e+01 1.0499374372991786e+01 3.8688972724232833e+01
13595 2 2 3.6799249580646851e+01 1.0338317349331930e+01 3.8809065033331088e+01
3707 2 2 3.7762944375488118e+01 1.1220487418627354e+01 3.7340094930025266e+01
6064 1 1 3.7278748457049723e+01 1.1169158085497259e+01 3.8235856871912617e+01
3706 1 1 3.8017513350390089e+01 1.1067387421115670e+01 3.7504392732433836e+01
15636 1 1 3.8147697603810236e+01 1.0988869556803628e+01 3.7559831165300324e+01
4664 2 2 3.7401439391393005e+01 1.0334427105545020e+01 3.7528947832252079e+01
4665 1 1 3.7820060827463337e+01 1.0330426449281566e+01 3.7524304097490422e+01
15635 2 2 3.8428556608982852e+01 1.0777699419202047e+01 3.7635721301736716e+01
6456 1 1 3.7398894579315773e+01 1.1131550265082641e+01 3.8325306914916752e+01
6455 2 2 3.7687436912978399e+01 1.1020464490774664e+01 3.8544801618964229e+01
6454 1 1 3.8011572451351960e+01 1.0902156957285779e+01 3.8723516663594474e+01
10099 1 1 3.8161502612811191e+01 1.0845543446236890e+01 3.8763720001166789e+01
15634 1 1 3.8718615651590923e+01 1.0512781645860207e+01 3.7728324786175058e+01
2986 1 1 3.8834981857316407e+01 1.0409916792396380e+01 3.7783642139724790e+01
2987 2 2 3.9048172224894643e+01 1.0113040722216226e+01 3.7933555204791617e+01
2988 1 1 3.9275904893896339e+01 9.8649908566486690e+00 3.8172122558303016e+01
8213 2 2 3.9551637342016761e+01 1.1177541136076593e+01 3.7905754893334155e+01
8214 1 1 3.9835204067843982e+01 1.0910649163299027e+01 3.7989867540868211e+01
16800 1 1 3.5460355285766560e+01 1.1398277870738429e+01 3.7694177530018827e+01
16798 1 1 3.4805701465177286e+01 1.1508203234370693e+01 3.7300583642969642e+01
16799 2 2 3.5115803865507687e+01 1.1443289845406305e+01 3.7459896350190924e+01
5694 1 1 3.5589391062038153e+01 1.1406941198282718e+01 3.7741714853010578e+01
20359 1 1 3.4193379541092185e+01 1.2570221115371430e+01 3.7447509653375668e+01
20360 2 2 3.4563337215914189e+01 1.2546034756067924e+01 3.7557938274837035e+01
20361 1 1 3.4872578850130878e+01 1.2508437306436111e+01 3.7732520587932896e+01
6540 1 1 3.5028944512849741e+01 1.2490977545342924e+01 3.7834393119894408e+01
6539 2 2 3.5297069139170191e+01 1.2395400848711782e+01 3.8111375520271793e+01
6538 1 1 3.5586496399919568e+01 1.2261461137386890e+01 3.8392083871864919e+01
9560 2 2 3.6166852992210643e+01 1.2694685587354964e+01 3.7484008165862171e+01
9561 1 1 3.5872156271687885e+01 1.2795877698287743e+01 3.7308510695059027e+01
5693 2 2 3.5991381978092761e+01 1.1412232554534210e+01 3.7827707809201158e+01
6066 1 1 3.6537689641100890e+01 1.1336350602028615e+01 3.7943114838726167e+01
5692 1 1 3.6387713335502099e+01 1.1386922595077715e+01 3.7921454337215685e+01
2768 2 2 3.6045121932205028e+01 1.2116607428082737e+01 3.8670224700515618e+01
9559 1 1 3.6514030919448174e+01 1.2605759212121152e+01 3.7603203964511422e+01
10920 1 1 3.6638106307231126e+01 1.2573050397296431e+01 3.7646977686945974e+01
10919 2 2 3.6977742341425156e+01 1.2422826983091172e+01 3.7813472645638250e+01
2769 1 1 3.5701239484790115e+01 1.2218146517599189e+01 3.8467143243023905e+01
2767 1 1 3.6363709388794661e+01 1.1973737663914738e+01 3.8818183833870144e+01
15195 1 1 3.8634547670881801e+01 1.1959758252250120e+01 3.7296930796027183e+01
10918 1 1 3.7256241407938695e+01 1.2224502192001605e+01 3.7982450268612659e+01
7878 1 1 3.7379912143958492e+01 1.2143115211625268e+01 3.8043548184850543e+01
14222 2 2 3.8448323386242045e+01 1.1748497392396972e+01 3.8569140104890813e+01
7877 2 2 3.7664297160596490e+01 1.1983882195330782e+01 3.8218435440866571e+01
7876 1 1 3.7954941019027004e+01 1.1891731786297257e+01 3.8408270727399206e+01
14223 1 1 3.8082431672193771e+01 1.1864703187012031e+01 3.8462495688613537e+01
14221 1 1 3.8768437232019195e+01 1.1692751801532735e+01 3.8739144258774793e+01
15194 2 2 3.8885101862385390e+01 1.1688203282519245e+01 3.7474381842968619e+01
15193 1 1 3.9153637500813467e+01 1.1463940156248505e+01 3.7631274615163321e+01
8212 1 1 3.9273790345176131e+01 1.1392734760190489e+01 3.7693444741616076e+01
6549 1 1 3.9837781610034455e+01 1.2443912970080914e+01 3.8311630851648118e+01
5781 1 1 3.9699142715575327e+01 1.2510290896241518e+01 3.8292797364009999e+01
6548 3 3 4.0184615064406714e+01 1.2341500579295161e+01 3.8323529962867646e+01
16285 1 1 3.8903916915149040e+01 1.1676582894250771e+01 3.8824520285569967e+01
5780 2 2 3.9342301413700220e+01 1.2681063146500344e+01 3.8264355481507010e+01
6547 1 1 4.0488568276858381e+01 1.2121749873828492e+01 3.8285784849477757e+01
20014 1 1 4.0621645077887166e+01 1.2037714142058237e+01 3.8265469124849545e+01
20016 1 1 4.1217005348314004e+01 1.1522222393223670e+01 3.8105262501727985e+01
20015 2 2 4.0915414626873016e+01 1.1757740440219061e+01 3.8247847679773500e+01
11967 1 1 3.3914554677154207e+01 1.3610721810717866e+01 3.7914751957541320e+01
11966 2 2 3.4245613760349464e+01 1.3548164719282676e+01 3.8048992670969675e+01
8440 1 1 3.4773321121215595e+01 1.3484203580292268e+01 3.8218589970920370e+01
11965 1 1 3.4646192510951757e+01 1.3486821289956703e+01 3.8187284215736554e+01
8441 2 2 3.5158270197851998e+01 1.3481877738757841e+01 3.8295920270446139e+01
8442 1 1 3.5542464161575914e+01 1.3426255465549206e+01 3.8331966786861123e+01
15087 1 1 3.5741026253991031e+01 1.2840921560093854e+01 3.7267007944457959e+01
9356 2 2 3.6916261433455333e+01 1.2922272742043784e+01 3.8731166633979704e+01
9355 1 1 3.6555666179971695e+01 1.3045484558458325e+01 3.8554630548287925e+01
7704 1 1 3.5684611864402619e+01 1.3386530888435500e+01 3.8366739485457366e+01
7702 1 1 3.6414288501167697e+01 1.3089553856480393e+01 3.8522851127191380e+01
7703 2 2 3.6058854104586196e+01 1.3235064249897507e+01 3.8467688500558779e+01
9012 1 1 3.7203302293091177e+01 1.3479705454027846e+01 3.7593374800875438e+01
9011 2 2 3.6921642800068106e+01 1.3412132444535088e+01 3.7336770402970863e+01
18837 1 1 3.7346096509694277e+01 1.3460212083085455e+01 3.7662211433972914e+01
1268 2 2 3.8480986320352500e+01 1.3119037515807920e+01 3.8247994667215806e+01
1269 1 1 3.8086786879815712e+01 1.3243506514000781e+01 3.8098492616889061e+01
18835 1 1 3.7985279192377625e+01 1.3259982862101484e+01 3.8043260666082787e+01
18836 2 2 3.7698323967797613e+01 1.3363363267946770e+01 3.7863834784319877e+01
1267 1 1 3.8870566876261627e+01 1.2953628970274199e+01 3.8259207944441442e+01
5779 1 1 3.8993418203647543e+01 1.2864968099821404e+01 3.8239929545817681e+01
10476 1 1 3.9268557352186967e+01 9.1496199275914556e+00 4.0419733233663187e+01
10475 3 3 3.8997265782543991e+01 9.3788298435728130e+00 4.0273762676451106e+01
17009 2 2 3.6963895766396746e+01 1.1093347535759600e+01 3.9826684516366377e+01
13594 1 1 3.7181781603693430e+01 1.0321144950696167e+01 3.8951392130443082e+01
17008 1 1 3.6554196988838420e+01 1.1204305451259417e+01 3.9700803887841417e+01
10100 2 2 3.8507457701928054e+01 1.0656809067202747e+01 3.8875142991111844e+01
16822 1 1 3.7366736732142570e+01 1.0924912428748325e+01 4.0113595968118119e+01
17010 1 1 3.7259701735023945e+01 1.0955979626573956e+01 4.0016600205552088e+01
10101 1 1 3.8782626814527909e+01 1.0521739380903373e+01 3.9049146496870925e+01
15507 1 1 3.7321162519928620e+01 1.0292793779246209e+01 3.9029953435483741e+01
15506 2 2 3.7670138701545660e+01 1.0228571798162267e+01 3.9216670536212682e+01
15505 1 1 3.7969632374616303e+01 1.0102443368699024e+01 3.9451156035649007e+01
9348 1 1 3.8072866671717527e+01 1.0077502255144806e+01 3.9546103265087545e+01
9347 3 3 3.8322451785716730e+01 9.9656484820407520e+00 3.9800061691251649e+01
9346 1 1 3.8617340841518079e+01 9.7547227553379123e+00 3.9996443781582350e+01
16823 2 2 3.7655474870687613e+01 1.0789160429105994e+01 4.0343655655913558e+01
10474 1 1 3.8732497542360939e+01 9.6731098966858688e+00 4.0070298546097632e+01
10537 1 1 3.8913061265339650e+01 1.0433079654232134e+01 3.9119704257381713e+01
10538 2 2 3.9269890137874860e+01 1.0245605801731537e+01 3.9270034737768171e+01
10539 1 1 3.9633375371843655e+01 1.0266675955019783e+01 3.9426031851246748e+01
20511 1 1 3.9777269291952813e+01 1.0294156803358874e+01 3.9505603923915423e+01
20510 3 3 4.0165496908044574e+01 1.0321323482325766e+01 3.9665308075943592e+01
15094 1 1 4.1430317938025333e+01 1.0214076719550544e+01 4.0397919954387952e+01
15095 3 3 4.1096302655388840e+01 1.0215151654198996e+01 4.0176362575627259e+01
15096 1 1 4.0749934137539427e+01 1.0290477794652116e+01 3.9949387053793842e+01
20509 1 1 4.0613676729808766e+01 1.0312666315478618e+01 3.9867731462774650e+01
495 1 1 4.0649401711564273e+01 1.1224487932227145e+01 3.9353889032986963e+01
15587 3 3 4.1606503235273443e+01 1.1181242377559258e+01 4.0189802250335049e+01
5345 2 2 3.4407867068837987e+01 1.2542921835651047e+01 3.9530087280671175e+01
248 2 2 3.5161368235015757e+01 1.1898450305014734e+01 3.9605361403584361e+01
249 1 1 3.4859365829447135e+01 1.2150380722581486e+01 3.9596501227138070e+01
247 1 1 3.5500772400407669e+01 1.1679676393020113e+01 3.9511225648637975e+01
5346 1 1 3.4738034441120242e+01 1.2246684090374526e+01 3.9589516015148654e+01
5344 1 1 3.4201453652313788e+01 1.2825669542419636e+01 3.9494610716098158e+01
12166 1 1 3.6487246377680123e+01 1.1913989892797414e+01 3.8854917717515825e+01
12167 2 2 3.6880456814556872e+01 1.1833343164194504e+01 3.8991320425626895e+01
17493 1 1 3.5650169946447662e+01 1.1595364181182390e+01 3.9490771574618819e+01
17491 1 1 3.6418496393062526e+01 1.1255830696797121e+01 3.9659565823337381e+01
17492 2 2 3.6040746708746418e+01 1.1394191498842362e+01 3.9529846705655629e+01
9357 1 1 3.7257594303590722e+01 1.2830640770904704e+01 3.8915122275186313e+01
12168 1 1 3.7215118874736611e+01 1.1767484832832793e+01 3.9173666590330150e+01
1524 1 1 3.7422383309079848e+01 1.2781911284223467e+01 3.8991221828348735e+01
1522 1 1 3.8039721163433896e+01 1.2535277107170380e+01 3.9428356010330418e+01
10603 1 1 3.8166871787150818e+01 1.2502741710702713e+01 3.9498162788853591e+01
10604 2 2 3.8479276679344714e+01 1.2376199057880449e+01 3.9637982092053420e+01
1523 2 2 3.7763689838948160e+01 1.2664417855052216e+01 3.9172162057286606e+01
10605 1 1 3.8810120180624594e+01 1.2319258785127500e+01 3.9818788897374674e+01
13347 1 1 3.8933343112560848e+01 1.2289102407866508e+01 3.9887570407041281e+01
20876 2 2 4.0157125392412759e+01 1.1314704562310645e+01 3.9256380308031410e+01
16286 2 2 3.9282336317230914e+01 1.1617456088739230e+01 3.8961436763303439e+01
20875 1 1 3.9784038403686004e+01 1.1450571338269464e+01 3.9136331537289543e+01
16287 1 1 3.9655927817706427e+01 1.1513950238752434e+01 3.9085304311385215e+01
13346 2 2 3.9263902052611314e+01 1.2211483401714988e+01 4.0051839983282576e+01
13345 1 1 3.9667039835758978e+01 1.2093952939271851e+01 4.0212877455801348e+01
15586 1 1 4.1370008075910874e+01 1.1284937770212926e+01 3.9913380434650236e+01
494 3 3 4.0994845445779518e+01 1.1277008239943529e+01 3.9495723757744344e+01
493 1 1 4.1276609916372365e+01 1.1308657997623186e+01 3.9786407432220351e+01
20877 1 1 4.0508058354834766e+01 1.1246175689998189e+01 3.9319098701761220e+01
16366 1 1 3.3562184388104505e+01 1.3408013535570447e+01 3.9605768729852549e+01
16367 2 2 3.3813335007330096e+01 1.3148840197374998e+01 3.9488368747387497e+01
16368 1 1 3.4094608441296081e+01 1.2936767588945417e+01 3.9478095696780805e+01
9514 1 1 3.9401954916694201e+01 9.0658901899796049e+00 4.0489789749741028e+01
9515 3 3 3.9723214693636585e+01 8.8891281905596529e+00 4.0583892006971901e+01
9516 1 1 4.0094122293510722e+01 8.7687480609359394e+00 4.0722298128353508e+01
16824 1 1 3.7957390298939117e+01 1.0624100447295152e+01 4.0595749942300579e+01
13180 1 1 3.8075937982617525e+01 1.0549622141189481e+01 4.0667104104037030e+01
13181 2 2 3.8411484189952887e+01 1.0337431587313803e+01 4.0808885541914080e+01
13182 1 1 3.8764562314441733e+01 1.0220015473682132e+01 4.0957142405175745e+01
15588 1 1 4.1731771287352849e+01 1.0933704759382188e+01 4.0461634534653903e+01
20856 1 1 4.1770054002519004e+01 1.0839103164270975e+01 4.0570235803485240e+01
20855 3 3 4.1898190381580818e+01 1.0633329380410276e+01 4.0904676235187885e+01
20854 1 1 4.1952480290051589e+01 1.0429855837103238e+01 4.1248584156919044e+01
6194 2 2 4.1622131367691260e+01 1.8036644054576865e+00 4.6772674002470232e+01
6195 1 1 4.1925194697916126e+01 2.0810902216319334e+00 4.6725228903641280e+01
8940 1 1 3.9917689852954410e+01 1.0624244388351894e-01 4.7168592869918946e+01
13932 1 1 4.0020892783941541e+01 2.2086953621494265e-01 4.7154368628191840e+01
13931 2 2 4.0304579075575866e+01 4.9811416066852177e-01 4.7117983406478466e+01
20118 1 1 4.1253991573984528e+01 1.4073109379887330e+00 4.6898993663379642e+01
6193 1 1 4.1371986629106345e+01 1.5245407115379264e+00 4.6850661895941563e+01
20117 2 2 4.0971263352108345e+01 1.1424540633370146e+00 4.6944206752056218e+01
20116 1 1 4.0703858304113680e+01 8.6175454505521243e-01 4.7057687587716295e+01
13930 1 1 4.0609516637756542e+01 7.4933054780205577e-01 4.7096817823281690e+01
13057 1 1 4.8615200160226983e+01 2.8844326824387498e+01 3.2672973633468303e+01
13058 3 3 4.8965244061318522e+01 2.9121768293163978e+01 3.2662690134752964e+01
10905 1 1 4.9447924623394876e+01 2.9310902917849464e+01 3.2765526340085337e+01
13059 1 1 4.9329565782037911e+01 2.9268197184640712e+01 3.2735386476907991e+01
10904 2 2 4.9838335207085535e+01 2.9448711509125232e+01 3.2874637364800158e+01
8939 2 2 3.9670150623632331e+01 4.9798792068390227e+01 4.7250189221090210e+01
8938 1 1 3.9437832406616970e+01 4.9524930817263062e+01 4.7445841754220986e+01
10442 2 2 3.9212786504226131e+01 4.9205318999411126e+01 4.7846093231656241e+01
10443 1 1 3.8998733822791380e+01 4.9010958026327110e+01 4.8121051230508151e+01
10441 1 1 3.9383237067457884e+01 4.9439726272823279e+01 4.7551638169467971e+01

Velocities

14279 -3.4094726157171251e-01 -2.7038049069698884e+00 2.2791516979185551e+00
14278 1.1888474003328118e+00 -2.6677087542358793e+00 -1.7503399407662998e+00
14280 4.5195604569467704e+00 2.9931368998947159e+00 -2.8602595082905924e+00
1839 -1.0786697637723726e+00 -5.1561430920546125e-01 1.2237309088874295e+00
1838 -2.9975747873655227e+00 2.4417302741071127e+00 -2.1105036804176698e+00
1837 6.2729882756592836e+00 -3.3458915041885366e+00 1.0644100472979132e+00
2475 1.7492274066072877e-01 -3.0976864501971431e+00 -5.4286571121630955e-01
2474 -8.9638692272264542e-01 2.0785451149590402e+00 -2.0381312469527866e+00
2473 5.3674242917254631e+00 1.7795108397526122e-01 2.3608827852229495e+00
12639 4.2828817438864353e-02 3.7270038218684740e+00 -4.2657018294110580e+00
11319 -2.6373113505452461e+00 4.0393893956285531e-01 2.1141992533057623e+00
12638 5.9330434031532704e+00 5.2333262450962419e+00 4.5117720950990858e-01
11317 1.3009668365684475e+00 -4.2063062345029971e+00 7.1200432373721974e+00
12637 -1.8881772551493820e-01 8.0846719208790629e-01 -1.4494790146092302e+00
11318 -5.8270468532147424e-01 1.6429729926216639e+00 -5.8431937033971266e+00
4938 -9.3312623254124532e+00 2.3804920344869420e+00 6.1779945051701768e+00
4936 1.8425403460762011e+00 2.5459570490566450e+00 3.2402028164363905e+00
4937 -4.4759761482074296e+00 -4.7335545327467865e-02 -4.3171877690048346e+00
17453 -4.2004146079476057e-01 2.9368719856702570e+00 -9.8076254487611980e-01
17452 -2.6277840557197303e+00 1.2267060847446545e+00 1.6768127794238397e+00
17454 -3.7694691279008281e+00 -3.3830152017639810e+00 -2.0233658297680335e+00
5516 1.7316034307831818e+00 -2.3443381698080872e+00 1.4401986339040636e+00
5515 -8.0816990301853302e+00 5.0549154049252270e+00 1.4946977646099895e+00
5517 -5.8445741444785670e-01 4.7129149733586079e-01 4.2535780421867404e+00
10903 1.4810788856090240e+00 -7.4074343088593578e-02 3.5317560907337739e+00
5176 2.3434065112210747e+00 3.5734939270150212e+00 1.2499668956434111e+00
5177 -1.9681762571799069e+00 -9.5183037520884972e-01 -2.2314868806216595e+00
5178 -1.5962886628492743e+00 -7.0294298328368798e-01 1.1330714896388290e+00
2310 -2.3733590152008670e+00 3.5358529717721070e+00 2.7564397900823279e+00
2309 5.8653589449629493e+00 -6.8071452751079609e-01 5.9768825921516899e-01
2308 9.7834866254287700e-01 -1.8832884703428514e+00 2.4926983749594900e-01
17052 -2.8195432319551030e+00 2.6007009408858703e+00 8.2934591874692853e-01
17051 -1.4452571258971223e+00 -1.1320339388024701e+00 -4.8128586996076290e+00
17050 2.0868296975596197e+00 4.6659361824560658e-01 -3.2206611515174246e+00
12298 -5.0580962055957412e-01 -1.0087584685178654e+00 4.4121277836397121e+00
12299 7.6982068145520532e-01 7.0212457429593833e-01 3.4463307371735419e-01
12300 -1.0845690609054088e+00 -2.0072006268148139e+00 -2.6940300535203487e-01
3268 8.1321011319673131e-01 1.4089637667365007e-01 -6.6974019712846875e+00
18369 1.2139044880578787e+00 2.9076580241910821e+00 6.7559291241298602e+00
18368 -1.8411096028780045e+00 -1.0143747317591085e+00 2.7687214981877175e+00
18367 9.6347993699308998e-01 -1.7651509262751923e+00 4.6731427662952534e+00
20812 -2.3445862705771470e+00 1.7076705179987595e+00 3.5040017646611807e+00
20813 2.3374370865666538e+00 2.7097039158851062e+00 -2.7372822394840934e+00
20814 -1.7665380639316099e+00 3.5473640736249112e-01 1.4987567668597574e+00
14386 -1.8516710176596958e+00 2.8973894485060286e-01 -1.9143178928541749e-01
14617 -3.8083480407657877e+00 6.3241806857895506e+00 1.1181937400816260e+00
11779 -3.9833218817811109e+00 -2.9806384491704319e+00 1.2943973402841675e+00
14618 3.2206924609020096e+00 2.4758603752734683e+00 1.7324966233945311e+00
14387 -4.3015584171220145e-03 -3.6949594636371543e+00 -2.1610085583808374e+00
14388 5.6576590604629762e-01 3.2797123346014638e+00 8.3449904778173423e+00
11780 -7.1470874247104288e-01 2.0637527039427073e+00 1.4253527976649418e+00
14619 -8.7005253511372316e-01 2.2211785993710154e-02 2.6549079629985846e+00
9700 1.9721390870602833e+00 -9.4988722760273336e-01 3.9206126851427980e-01
9701 -7.7639159037471672e-01 -4.0687748307298249e-01 -2.8048669247094264e+00
9702 -3.5903847158384079e+00 -7.0125673208093673e+00 -2.6344315326160275e+00
942 -1.7910442482968219e+00 3.9726994604925197e+00 1.0709709750634122e-01
941 3.0413365752538946e+00 6.0223652234268621e-01 3.0298964856540800e+00
18832 3.5744779667524162e+00 -5.5156018652720959e+00 3.7960181143448395e+00
940 3.5005770688643820e+00 -4.0131271795006720e+00 -2.0669580263507350e+00
20217 -7.7627027302480311e-01 3.0671806374285047e+00 1.9748321769366581e+00
20215 -4.4141926490931622e+00 -5.1275374784509475e+00 -5.1959332700542378e+00
20216 -1.2572419614602326e-01 4.2573813690478852e+00 -9.1294513492301044e-01
10229 1.1398438675467051e-01 2.1887086998535399e-01 9.2762966314360917e-01
10228 2.2753991286999757e+00 4.1959723801949043e+00 -7.4351549612714480e+00
18833 1.6625275267399555e+00 -3.4044916574285362e+00 -2.5549624455723294e+00
18834 -3.2130458529850352e+00 2.9522747586015723e+00 -3.1943415894167937e+00
10230 2.5247264868988255e+00 9.8050230812406913e-01 1.0224057010064497e-01
3269 1.6194783940642170e+00 5.6137501624580421e+00 -2.3895252294498435e+00
19171 9.9088344591512700e-01 -2.6174277397250636e+00 -2.0218207959085515e+00
21186 2.3430637607486791e+00 6.6674082795931211e+00 -5.4189901899689570e+00
3270 1.2809523527697171e+00 -2.6563200640840336e+00 2.5623375697291628e+00
11781 2.3565120877888751e-01 4.8682394036567649e+00 1.6293004123733984e-01
21185 4.9140695381114670e+00 -4.0681267616368784e+00 1.2168923607148581e+00
21184 2.9568122735372402e+00 4.0552200275485051e+00 3.2976169132369009e+00
19172 -3.7596593938667927e-01 -2.2136018940112714e+00 -8.0832013702790917e-01