ITEM: TIMESTEP
35000000
ITEM: NUMBER OF ATOMS
2688
ITEM: BOX BOUNDS pp pp pp
0.0000000000000000e+00 5.0000000000000000e+01
0.0000000000000000e+00 5.0000000000000000e+01
0.0000000000000000e+00 5.0000000000000000e+01
ITEM: ATOMS id type xs ys zs
11064 1 0.63636 0.679329 0.0173912
11063 3 0.642436 0.676797 0.0222332
11062 1 0.64802 0.673798 0.0268541
2106 1 0.649414 0.672589 0.028128
11031 1 0.67868 0.675717 0.0270985
11030 2 0.683913 0.670567 0.0307616
1480 1 0.705971 0.67338 0.021761
13478 2 0.70504 0.603251 0.0611586
13479 1 0.704907 0.610388 0.0599263
1113 1 0.635541 0.655244 0.0440721
13924 1 0.637553 0.65396 0.0457386
13925 3 0.642572 0.650711 0.050057
1112 2 0.630548 0.657371 0.0397392
13926 1 0.648657 0.6463 0.0532663
17196 1 0.650515 0.644437 0.0546623
16544 3 0.667816 0.658629 0.0434747
17195 3 0.655374 0.640409 0.0584729
16545 1 0.673162 0.653059 0.0480163
18208 1 0.674686 0.651312 0.0498394
3254 3 0.701547 0.64721 0.052779
18209 3 0.6784 0.647002 0.0538245
8738 3 0.693495 0.657218 0.0398837
8739 1 0.697469 0.652598 0.0453811
3253 1 0.69914 0.650868 0.0478549
18210 1 0.682748 0.641584 0.0560435
1416 1 0.684068 0.639301 0.0572219
1415 3 0.68727 0.632958 0.0600694
12313 1 0.707093 0.639527 0.0579204
3255 1 0.705527 0.641483 0.0563664
16424 2 0.603154 0.695281 0.0572041
1111 1 0.625346 0.662049 0.0355824
8016 1 0.625462 0.689723 0.0373886
4446 1 0.633216 0.677246 0.0515073
8014 1 0.631634 0.679204 0.0491675
8015 3 0.628531 0.684082 0.0431729
4445 3 0.636767 0.672097 0.0567666
658 1 0.646186 0.693951 0.0325567
16543 1 0.662759 0.663051 0.0382157
2104 1 0.660362 0.664342 0.0367651
2105 3 0.654333 0.667888 0.0326556
17758 1 0.647675 0.692522 0.0342809
17759 3 0.651943 0.687735 0.0403708
17760 1 0.655036 0.6838 0.0465984
19737 1 0.656137 0.681838 0.0487097
19037 3 0.672019 0.690908 0.0444402
19736 3 0.657178 0.67568 0.0535919
19036 1 0.675849 0.685104 0.0493726
19735 1 0.661787 0.671036 0.0587022
9634 1 0.663131 0.669221 0.0603052
8737 1 0.689994 0.66252 0.036462
20254 1 0.677553 0.682812 0.05051
11029 1 0.688603 0.664597 0.0351993
20255 3 0.681658 0.677035 0.0543452
19769 3 0.698438 0.690805 0.0480499
15559 1 0.701564 0.681545 0.0535615
19768 1 0.700593 0.684217 0.0523752
20256 1 0.684926 0.669848 0.0592742
14575 1 0.686218 0.667172 0.0610644
15560 3 0.705917 0.675704 0.0572174
3092 3 0.676079 0.617002 0.0783413
3091 1 0.671763 0.623013 0.0741612
14806 1 0.670405 0.625068 0.0723904
3093 1 0.679689 0.611482 0.0813865
7942 1 0.680922 0.609425 0.0827238
18169 1 0.700905 0.61591 0.0767196
7943 2 0.685437 0.603727 0.0862518
7944 1 0.688478 0.598225 0.0901117
18171 1 0.692575 0.626808 0.0663223
18170 2 0.696985 0.621241 0.0720101
102 1 0.689433 0.5955 0.0913418
18799 1 0.702115 0.613633 0.078117
13477 1 0.704916 0.595616 0.0622361
18800 3 0.705956 0.60715 0.0814766
21545 3 0.622224 0.658511 0.0707351
21546 1 0.626786 0.652239 0.0749718
8481 1 0.62775 0.650625 0.0768497
8480 3 0.631797 0.64626 0.0817241
8479 1 0.636757 0.642371 0.0862469
11277 1 0.638215 0.640777 0.087994
11276 3 0.642621 0.636417 0.0922469
17194 1 0.660402 0.636461 0.0623911
14808 1 0.662257 0.63527 0.0641813
14807 3 0.666619 0.630891 0.0678943
18437 3 0.645271 0.661635 0.0691266
18436 1 0.649561 0.655588 0.0746713
1933 1 0.651 0.653519 0.0767424
9636 1 0.67121 0.65698 0.0693375
1935 1 0.658414 0.643415 0.0832898
1934 3 0.655079 0.648769 0.0804026
3735 1 0.660115 0.64065 0.0844086
13425 1 0.672333 0.654551 0.0711434
3734 3 0.663161 0.634444 0.0882699
13424 3 0.674817 0.64908 0.0756324
9799 1 0.666494 0.661212 0.0927709
15202 1 0.706538 0.640323 0.0809777
1414 1 0.690874 0.62852 0.0646369
13423 1 0.678875 0.643194 0.0797819
9793 1 0.680806 0.641204 0.0821596
14577 1 0.692759 0.654552 0.0703251
12997 1 0.694933 0.652273 0.0719678
12998 3 0.700574 0.647088 0.0754279
9794 3 0.683976 0.636853 0.0865886
12999 1 0.704974 0.642355 0.0792041
14576 3 0.689202 0.661621 0.0662361
9795 1 0.688796 0.63193 0.0915464
11608 1 0.691386 0.657609 0.0924989
16372 1 0.608678 0.665571 0.0893136
20457 1 0.606583 0.667947 0.0876092
20456 3 0.603354 0.673381 0.0837044
13655 3 0.592887 0.680946 0.0709239
13656 1 0.597838 0.678207 0.0763805
20455 1 0.599425 0.677302 0.0780278
13654 1 0.58792 0.683458 0.0653937
4467 1 0.581722 0.68804 0.0901055
1069 1 0.610749 0.691393 0.0659268
16423 1 0.60856 0.692557 0.063501
20592 1 0.606424 0.695209 0.092063
3750 1 0.641079 0.695126 0.0636269
21030 1 0.637044 0.695732 0.0907038
21544 1 0.618961 0.66536 0.0698466
4444 1 0.638804 0.667519 0.0621623
18438 1 0.639809 0.66626 0.0638713
1070 3 0.617128 0.689187 0.0708654
6951 1 0.633284 0.671648 0.0872971
5295 1 0.631389 0.674017 0.08607
5294 3 0.627511 0.679159 0.082585
1071 1 0.620949 0.685212 0.075233
5293 1 0.622813 0.683549 0.076926
6950 3 0.638081 0.666912 0.0921696
10171 1 0.638974 0.694367 0.0925825
9635 3 0.667875 0.663789 0.0656218
9801 1 0.658147 0.67056 0.0853925
13102 1 0.656453 0.673054 0.083808
3749 3 0.64581 0.691113 0.0681331
4781 3 0.66878 0.691389 0.0689873
3748 1 0.649918 0.685843 0.0731124
13104 1 0.650771 0.683898 0.0742622
13103 3 0.65374 0.678461 0.0795305
4782 1 0.672669 0.685916 0.0727032
20883 1 0.674282 0.683764 0.0738882
9800 3 0.661933 0.665983 0.0901241
4780 1 0.664906 0.694929 0.0633643
11609 3 0.686444 0.662335 0.0887551
1793 3 0.702132 0.676988 0.0778842
11610 1 0.682763 0.669359 0.083935
20882 3 0.677655 0.677285 0.0770557
20881 1 0.681374 0.672022 0.0816844
14021 3 0.692809 0.691423 0.0703494
14022 1 0.695165 0.685041 0.0738601
1792 1 0.696939 0.682116 0.0751
19853 3 0.686362 0.689766 0.0902254
1794 1 0.706465 0.669953 0.0807622
20434 1 0.699774 0.5682 0.114716
437 3 0.697034 0.574328 0.105679
436 1 0.695291 0.579962 0.101201
100 1 0.694305 0.58255 0.0990063
101 2 0.692406 0.588568 0.0943284
20435 3 0.702972 0.563228 0.121971
438 1 0.698809 0.569738 0.112469
16310 3 0.652335 0.622122 0.10165
16311 1 0.655783 0.617477 0.106382
15898 1 0.656907 0.615304 0.108216
15899 3 0.660636 0.610038 0.112984
12134 3 0.673364 0.621107 0.0987537
15900 1 0.662974 0.603478 0.116881
4002 1 0.663677 0.601138 0.118039
12133 1 0.669448 0.627305 0.0946254
4001 3 0.667114 0.595863 0.122061
12135 1 0.677874 0.616017 0.103837
3304 1 0.679506 0.614362 0.105393
11045 3 0.704316 0.612116 0.10666
5961 1 0.698531 0.620904 0.100506
3305 3 0.684083 0.6092 0.110388
5960 3 0.694128 0.625483 0.0971114
3306 1 0.68748 0.60334 0.115681
14620 1 0.688865 0.601287 0.117679
11044 1 0.700355 0.618881 0.101981
14621 3 0.691373 0.595527 0.12337
15405 1 0.69618 0.623384 0.123403
11046 1 0.707982 0.605525 0.111372
16373 3 0.613157 0.659253 0.0928719
2956 1 0.641254 0.632923 0.118705
14988 1 0.620156 0.653106 0.0977987
16374 1 0.61836 0.654528 0.0961764
4416 1 0.631524 0.643665 0.108
14986 1 0.629597 0.645478 0.106764
14987 3 0.625487 0.649403 0.102679
4415 3 0.636755 0.63941 0.11124
17125 1 0.638756 0.66083 0.118218
4414 1 0.640112 0.634865 0.116612
11554 1 0.64019 0.658587 0.120341
832 1 0.615529 0.659807 0.122363
11743 1 0.643681 0.659709 0.0981405
6949 1 0.641853 0.661819 0.0966164
16309 1 0.648668 0.628155 0.0973086
11275 1 0.647049 0.630632 0.0957465
3733 1 0.668308 0.629313 0.0928335
3827 3 0.658017 0.642134 0.111053
3990 1 0.66819 0.659085 0.0938785
11744 3 0.648234 0.655168 0.10249
11745 1 0.652785 0.649919 0.10663
3828 1 0.654444 0.647926 0.107776
3826 1 0.661603 0.6368 0.115847
7302 1 0.663634 0.634289 0.117566
7381 1 0.666373 0.658412 0.120237
3989 3 0.671969 0.652354 0.097625
14770 1 0.668381 0.656828 0.121912
3988 1 0.675894 0.645777 0.100913
7301 3 0.667971 0.628602 0.120942
15403 1 0.688151 0.634119 0.115541
15404 3 0.692104 0.628653 0.120314
16651 1 0.701615 0.644361 0.103401
5959 1 0.69042 0.630449 0.0930098
2976 1 0.686474 0.635856 0.113
16653 1 0.693314 0.655675 0.0938743
16652 3 0.697283 0.65022 0.098239
2975 3 0.681217 0.639529 0.107246
2974 1 0.677555 0.643899 0.102209
6600 1 0.691231 0.659098 0.116229
15229 1 0.693129 0.657525 0.117369
15525 1 0.702795 0.642398 0.105155
15230 3 0.697655 0.652382 0.122246
15524 3 0.706337 0.637879 0.109344
12050 3 0.608418 0.666967 0.117474
4466 3 0.585371 0.68535 0.0959435
12051 1 0.603675 0.672395 0.114056
11122 1 0.601194 0.673711 0.112866
11123 3 0.595965 0.67602 0.108597
11124 1 0.590752 0.679338 0.104364
4465 1 0.588519 0.680993 0.102097
7220 3 0.610396 0.692874 0.120026
18897 1 0.608677 0.694023 0.0933522
12049 1 0.613704 0.662164 0.120752
17126 3 0.634579 0.666067 0.114108
18896 3 0.613008 0.688614 0.0961928
17127 1 0.6303 0.671017 0.111574
10914 1 0.628483 0.673162 0.110218
10913 3 0.624782 0.678495 0.105704
18895 1 0.618585 0.683761 0.0994217
10912 1 0.619841 0.682426 0.100699
8960 3 0.639015 0.690691 0.119385
7221 1 0.615312 0.689392 0.123679
10172 3 0.643063 0.690326 0.0973318
8961 1 0.634537 0.694229 0.114309
18496 1 0.663187 0.692077 0.117243
7382 3 0.661811 0.663288 0.115942
10173 1 0.647159 0.685824 0.102651
12625 1 0.648358 0.683647 0.104235
7383 1 0.658036 0.668604 0.112021
3938 3 0.664922 0.690319 0.0933548
12627 1 0.656879 0.670916 0.110363
12626 3 0.652367 0.677039 0.107118
18497 3 0.6674 0.687031 0.120595
3937 1 0.669462 0.684711 0.0978189
5805 1 0.670878 0.682438 0.0997625
5804 3 0.67523 0.676719 0.103994
14356 1 0.660882 0.694111 0.116144
11121 1 0.703392 0.673416 0.104024
6599 3 0.68623 0.665247 0.113377
11120 3 0.697396 0.678559 0.100343
6598 1 0.680866 0.669977 0.108732
5803 1 0.678747 0.671744 0.107317
19854 1 0.689647 0.684454 0.0945801
11119 1 0.691832 0.682641 0.0963153
3420 1 0.68685 0.695518 0.115832
3419 3 0.691524 0.689701 0.119558
3418 1 0.695918 0.683606 0.12328
7482 1 0.705098 0.671571 0.105236
20436 1 0.706726 0.558915 0.128259
4000 1 0.670264 0.590583 0.127077
15751 1 0.671451 0.588584 0.128551
15752 3 0.675813 0.583206 0.133341
11153 3 0.671504 0.591679 0.153753
17570 3 0.707148 0.573207 0.148048
17571 1 0.704035 0.577213 0.142334
15753 1 0.679348 0.579709 0.139849
12838 1 0.680643 0.577983 0.141996
7247 3 0.699415 0.582031 0.134027
12839 3 0.685357 0.573074 0.146402
7248 1 0.702422 0.578485 0.139829
12840 1 0.689872 0.568304 0.15076
11893 1 0.691702 0.566328 0.152092
7246 1 0.696398 0.588001 0.12929
14622 1 0.695016 0.589785 0.127621
20033 3 0.695431 0.590108 0.15461
21094 1 0.643252 0.625156 0.148594
2958 1 0.647336 0.622853 0.128248
7300 1 0.672302 0.623221 0.1257
6580 1 0.658903 0.609321 0.138549
3112 1 0.656911 0.611314 0.137471
3114 1 0.648913 0.621259 0.129938
3113 3 0.6524 0.6161 0.13405
6581 3 0.662825 0.604684 0.142137
6582 1 0.667201 0.598851 0.145708
10279 1 0.673715 0.621035 0.127236
11152 1 0.668464 0.596521 0.148268
13984 1 0.670166 0.625218 0.150384
1155 1 0.645394 0.623075 0.149957
19104 1 0.669374 0.627072 0.148387
5684 3 0.700843 0.614431 0.12874
20032 1 0.692488 0.596157 0.149748
10280 3 0.676899 0.614244 0.131439
2708 3 0.688387 0.603454 0.142724
5683 1 0.697802 0.620689 0.124639
10281 1 0.681571 0.609612 0.136555
2709 1 0.683454 0.607867 0.138512
16268 3 0.693643 0.625725 0.144886
2707 1 0.691684 0.598523 0.147702
16269 1 0.697156 0.620597 0.149606
20980 1 0.698205 0.618923 0.151613
8797 1 0.706108 0.606273 0.133972
5685 1 0.704961 0.608264 0.132142
2957 3 0.644184 0.627989 0.124328
21095 3 0.639187 0.630948 0.144823
21096 1 0.63444 0.63577 0.13961
18519 1 0.632572 0.637414 0.137866
18518 3 0.627826 0.641686 0.133374
833 3 0.617899 0.654476 0.124746
834 1 0.62166 0.648092 0.128471
18517 1 0.623065 0.646498 0.129443
2206 1 0.637086 0.660353 0.140355
2207 3 0.639962 0.65471 0.146561
11555 3 0.643795 0.654506 0.125415
19103 3 0.665978 0.631924 0.142924
19102 1 0.662705 0.636566 0.138041
12343 1 0.660912 0.638709 0.13645
11556 1 0.648007 0.648984 0.129435
12345 1 0.649661 0.647112 0.130834
12344 3 0.654552 0.643364 0.133815
7177 1 0.663224 0.659875 0.142845
16731 1 0.664175 0.657735 0.145179
14771 3 0.672483 0.652432 0.127047
14772 1 0.676186 0.647116 0.130647
2208 1 0.644432 0.65125 0.152398
16730 3 0.666553 0.652814 0.150461
8148 1 0.64609 0.649651 0.15459
1187 3 0.706778 0.64065 0.131906
1186 1 0.702591 0.645149 0.128732
16267 1 0.689273 0.630648 0.141207
21414 1 0.677422 0.64473 0.132545
21412 1 0.6879 0.632793 0.13989
21413 3 0.682815 0.639541 0.136499
15231 1 0.701189 0.647067 0.12668
8902 1 0.694625 0.655486 0.145292
13023 1 0.69251 0.65758 0.143665
8903 3 0.699035 0.649867 0.150137
8904 1 0.702709 0.644074 0.153636
20171 3 0.589214 0.684898 0.127712
2477 3 0.601997 0.67307 0.135175
20172 1 0.594498 0.679606 0.130624
2476 1 0.596818 0.677738 0.131967
2478 1 0.60763 0.66808 0.137317
20170 1 0.5833 0.689634 0.12468
1099 1 0.610702 0.692018 0.147144
16659 1 0.612458 0.689701 0.148159
696 1 0.617282 0.688118 0.125424
3337 1 0.635291 0.662309 0.138414
3338 3 0.630937 0.668425 0.135112
3339 1 0.628073 0.675251 0.134205
694 1 0.626574 0.677645 0.133276
695 3 0.622672 0.682651 0.129841
10454 3 0.633549 0.692801 0.144498
10453 1 0.637246 0.686985 0.147652
16658 3 0.616937 0.683007 0.15101
17988 1 0.638806 0.684487 0.148864
8959 1 0.642721 0.685624 0.124016
19540 1 0.644237 0.683523 0.125713
17987 3 0.643683 0.679708 0.152553
7178 3 0.659926 0.665691 0.137693
4009 1 0.656898 0.693352 0.140599
12906 1 0.658475 0.691497 0.142535
18498 1 0.671996 0.681659 0.124735
13675 1 0.673362 0.679711 0.126141
7179 1 0.655067 0.671606 0.134126
19542 1 0.652969 0.673111 0.133006
19541 3 0.64762 0.67809 0.129708
12905 3 0.664264 0.685988 0.145852
12904 1 0.669489 0.68057 0.14882
5269 1 0.671234 0.678873 0.150215
5270 3 0.675226 0.673584 0.154237
9124 1 0.684484 0.69529 0.13791
13022 3 0.687056 0.661991 0.138862
13676 3 0.67769 0.674631 0.129311
15711 1 0.706282 0.668618 0.132227
15709 1 0.697684 0.681652 0.12448
13021 1 0.683661 0.667207 0.133839
13677 1 0.682031 0.669064 0.132673
15124 1 0.692556 0.681949 0.148897
15125 3 0.68916 0.686838 0.14299
2950 1 0.693804 0.679929 0.150816
2951 3 0.698806 0.675482 0.15428
15710 3 0.702062 0.675013 0.128485
15126 1 0.685773 0.693024 0.139234
13231 1 0.707101 0.666331 0.133877
8621 3 0.705721 0.54196 0.155275
8620 1 0.69913 0.545721 0.158028
11895 1 0.694773 0.556612 0.163666
1727 3 0.665433 0.592211 0.177287
11154 1 0.675113 0.586961 0.160062
1728 1 0.669612 0.588464 0.182701
17371 1 0.671652 0.58708 0.184519
14510 3 0.704828 0.577785 0.168707
11894 3 0.693485 0.561287 0.156855
19174 1 0.676637 0.585441 0.161541
19175 3 0.6809 0.579826 0.166207
20034 1 0.698958 0.584687 0.159539
19176 1 0.684311 0.57516 0.171738
8541 1 0.685356 0.573314 0.173773
14511 1 0.701225 0.582624 0.162077
8540 2 0.689331 0.569608 0.179655
787 1 0.698262 0.590606 0.183871
15304 1 0.641282 0.625473 0.177616
16497 1 0.642884 0.624261 0.179602
1726 1 0.66187 0.597414 0.172955
6695 3 0.657455 0.605806 0.166623
1154 3 0.649865 0.6169 0.154825
1153 1 0.654564 0.612516 0.159961
6696 1 0.655572 0.611258 0.161168
6694 1 0.660604 0.599757 0.171199
8478 1 0.664511 0.626544 0.178053
8477 3 0.66886 0.620904 0.182124
16496 3 0.646966 0.620476 0.184572
13985 3 0.673533 0.62007 0.155894
13986 1 0.675802 0.615286 0.162903
6138 1 0.705522 0.606437 0.164417
788 3 0.693907 0.59498 0.179993
789 1 0.688007 0.599343 0.175618
18183 1 0.686238 0.601293 0.173573
18181 1 0.677027 0.613365 0.164333
18182 3 0.682058 0.606683 0.169005
17302 1 0.694045 0.62476 0.173182
9396 1 0.696086 0.622801 0.17497
9395 3 0.701317 0.617262 0.179364
20981 3 0.700597 0.613999 0.157587
20982 1 0.704227 0.608704 0.162728
9758 3 0.608081 0.660213 0.176603
9759 1 0.604419 0.654259 0.171055
15305 3 0.637291 0.629037 0.172401
15306 1 0.630839 0.633607 0.168906
1292 3 0.63786 0.66082 0.173434
1291 1 0.641697 0.655987 0.177843
7465 1 0.643712 0.654216 0.180035
16729 1 0.671224 0.646878 0.155554
13531 1 0.663196 0.629011 0.176461
13532 3 0.659458 0.634269 0.172323
13533 1 0.655374 0.637943 0.167142
8147 3 0.649212 0.644196 0.160139
8146 1 0.653558 0.639918 0.165394
12959 3 0.667209 0.6584 0.17551
12960 1 0.672906 0.653581 0.178835
7466 3 0.649755 0.650277 0.184187
11503 1 0.674819 0.651328 0.180271
18037 1 0.67282 0.644592 0.15671
17303 3 0.68881 0.629946 0.168372
6856 1 0.703954 0.642288 0.154987
17304 1 0.684416 0.634591 0.164065
18039 1 0.683006 0.636013 0.162784
18038 3 0.678168 0.64024 0.159931
10982 3 0.698296 0.648485 0.173312
10981 1 0.70213 0.644905 0.178651
10983 1 0.693308 0.653922 0.168479
10746 1 0.691328 0.655692 0.167326
5218 1 0.704177 0.642745 0.180908
10745 3 0.685567 0.660033 0.165079
11504 3 0.678233 0.643892 0.183429
10395 1 0.608542 0.690652 0.170544
4438 1 0.606469 0.691922 0.169147
10393 1 0.620371 0.684779 0.181662
10394 3 0.614685 0.688594 0.176005
9757 1 0.613729 0.665696 0.179838
1293 1 0.633213 0.664736 0.16876
14154 1 0.631384 0.666228 0.166806
14153 3 0.627251 0.670406 0.161682
14152 1 0.622878 0.675059 0.156975
16657 1 0.621379 0.677646 0.155422
9309 1 0.636041 0.688051 0.170001
1395 1 0.637542 0.686047 0.171694
1394 3 0.641934 0.682258 0.176549
9308 3 0.632014 0.692884 0.165136
7129 1 0.662011 0.694647 0.163274
12958 1 0.662085 0.66191 0.171016
5034 1 0.66036 0.663415 0.168944
5033 3 0.655543 0.667251 0.164068
5032 1 0.651549 0.672668 0.158872
17986 1 0.649488 0.674551 0.157222
7130 3 0.66515 0.68912 0.167902
7131 1 0.669733 0.684429 0.171677
9448 1 0.671113 0.68247 0.173367
9449 3 0.675488 0.677249 0.17709
1393 1 0.646846 0.677407 0.181226
1615 1 0.648509 0.675434 0.182818
2107 1 0.705454 0.668888 0.159587
2952 1 0.703945 0.670547 0.15801
11739 1 0.704796 0.671458 0.180772
5271 1 0.679512 0.668118 0.159328
10744 1 0.681033 0.665719 0.16129
3932 3 0.69874 0.678651 0.175099
15072 1 0.690561 0.684674 0.169211
3933 1 0.692727 0.683199 0.171141
15071 3 0.686097 0.688627 0.164841
9450 1 0.679655 0.672117 0.182295
18714 1 0.681474 0.67016 0.183898
3931 1 0.703156 0.673366 0.179366
15070 1 0.68159 0.694132 0.161128
2252 3 0.697961 0.556616 0.212203
19759 1 0.673256 0.590321 0.21024
2265 1 0.674867 0.588717 0.211518
8708 3 0.703673 0.583415 0.191442
8709 1 0.707334 0.57838 0.197177
8539 1 0.691795 0.568382 0.186707
13830 1 0.695441 0.56158 0.203296
2251 1 0.696104 0.560474 0.205934
13829 3 0.693526 0.565006 0.196281
13828 1 0.692529 0.56774 0.189073
17372 3 0.676784 0.583385 0.188969
2264 3 0.679005 0.581994 0.215403
8707 1 0.700448 0.588393 0.18587
8600 3 0.699591 0.583775 0.210925
17373 1 0.682372 0.578551 0.192505
8599 1 0.69603 0.589421 0.207245
17763 1 0.694146 0.591511 0.205151
8601 1 0.703326 0.577431 0.214387
5572 1 0.704855 0.575709 0.216347
19760 3 0.668516 0.595079 0.206583
16495 1 0.650722 0.615977 0.189578
12606 1 0.652317 0.613048 0.191531
12605 3 0.656975 0.606651 0.195266
19761 1 0.662504 0.599485 0.203097
12604 1 0.660498 0.601091 0.200688
18146 3 0.666191 0.625761 0.207878
18147 1 0.670239 0.619767 0.211635
8860 1 0.671421 0.617146 0.213431
8476 1 0.673147 0.615743 0.187034
3817 1 0.674976 0.613958 0.188099
21165 1 0.651172 0.608384 0.212476
17498 3 0.705442 0.604905 0.21294
14581 1 0.705851 0.610415 0.187583
6738 1 0.697576 0.612056 0.207021
17497 1 0.699857 0.609969 0.208358
9394 1 0.704393 0.612223 0.185964
17762 3 0.68871 0.596089 0.200869
6737 3 0.692486 0.616744 0.203284
3819 1 0.683255 0.602359 0.19368
17761 1 0.684962 0.600373 0.195119
3818 3 0.680135 0.608569 0.189972
6736 1 0.688939 0.622389 0.199321
6070 1 0.687228 0.624701 0.198219
9111 1 0.64327 0.647199 0.209518
12346 1 0.64441 0.649818 0.208434
9109 1 0.635587 0.63303 0.211333
9110 3 0.639785 0.639951 0.211209
18145 1 0.663168 0.6312 0.203036
12347 3 0.645077 0.657015 0.205354
14481 1 0.661824 0.633031 0.201554
14480 3 0.658118 0.63817 0.19684
7467 1 0.654742 0.645558 0.189919
14479 1 0.656314 0.643748 0.191865
2598 1 0.667242 0.65871 0.201558
6303 1 0.668655 0.656375 0.203547
6302 3 0.673197 0.65082 0.207448
6071 3 0.683793 0.630607 0.193642
13042 1 0.678359 0.642675 0.212268
12142 1 0.699367 0.645457 0.204119
11505 1 0.680482 0.638827 0.186644
6072 1 0.681563 0.636802 0.188931
7420 1 0.697221 0.647389 0.202284
7421 3 0.692707 0.65176 0.196985
7422 1 0.689574 0.655915 0.192082
18712 1 0.688109 0.658124 0.190071
6301 1 0.677147 0.644491 0.211136
13043 3 0.681951 0.637292 0.215679
12143 3 0.70417 0.640486 0.207458
12248 3 0.65846 0.69458 0.188238
2214 1 0.657 0.68867 0.214486
12348 1 0.644513 0.662905 0.200974
2597 3 0.663499 0.662421 0.196291
1616 3 0.653521 0.672545 0.187293
2596 1 0.660128 0.666703 0.192707
1617 1 0.658556 0.668266 0.191094
12249 1 0.663798 0.692068 0.192935
19023 1 0.665623 0.6908 0.195188
19022 3 0.670179 0.686678 0.19955
19021 1 0.675942 0.681521 0.202722
11703 1 0.656425 0.691446 0.213955
2213 3 0.657933 0.681111 0.216313
1912 1 0.687229 0.665365 0.213306
18713 3 0.686221 0.664538 0.186251
17528 3 0.704422 0.674203 0.205691
7626 1 0.685952 0.667156 0.211437
17527 1 0.699304 0.679714 0.200953
7625 3 0.683465 0.673464 0.206901
11200 1 0.697658 0.681962 0.19886
7624 1 0.677769 0.679824 0.203726
10300 1 0.684574 0.692722 0.187233
11202 1 0.68676 0.690529 0.188733
11201 3 0.692757 0.68673 0.193113
9838 1 0.693611 0.543233 0.236192
2253 1 0.700491 0.553319 0.219058
9839 2 0.691198 0.549124 0.233025
9840 1 0.687736 0.556362 0.230097
11892 1 0.686951 0.559589 0.22939
1506 1 0.702708 0.584214 0.24557
9513 1 0.701659 0.58533 0.243393
9512 3 0.697966 0.589688 0.237126
11891 3 0.685339 0.566878 0.226564
11890 1 0.682818 0.572125 0.222428
2263 1 0.681488 0.574897 0.220051
18885 1 0.639822 0.609514 0.231904
18884 3 0.639526 0.617168 0.236201
18883 1 0.638511 0.624584 0.236545
21163 1 0.654893 0.612659 0.226958
21164 3 0.652898 0.609717 0.22
8861 3 0.675144 0.611759 0.217132
21410 3 0.704205 0.613715 0.232722
10461 1 0.691814 0.596883 0.230521
9511 1 0.693764 0.595162 0.231913
21411 1 0.700327 0.619096 0.229505
10460 3 0.686489 0.6011 0.22714
8862 1 0.679449 0.607312 0.221222
19061 3 0.694205 0.626333 0.22417
19062 1 0.698775 0.621101 0.227984
10459 1 0.681761 0.60522 0.223117
10785 1 0.625314 0.637511 0.238826
10784 3 0.632835 0.636164 0.234387
10783 1 0.640761 0.636175 0.231632
6567 1 0.643573 0.636173 0.231301
8058 1 0.663033 0.636551 0.23286
6566 3 0.651533 0.635291 0.230737
6565 1 0.659709 0.635944 0.231767
2748 1 0.66455 0.656676 0.21971
8057 3 0.670182 0.637545 0.23467
8467 1 0.707311 0.638604 0.23481
6852 1 0.705526 0.641324 0.233172
8056 1 0.677315 0.638375 0.237819
1914 1 0.695743 0.652833 0.220511
19060 1 0.689193 0.63063 0.220227
13044 1 0.686754 0.632478 0.218661
6851 3 0.701705 0.64603 0.227124
6850 1 0.69721 0.650198 0.22183
1913 3 0.691103 0.659368 0.217627
2746 1 0.659532 0.670824 0.218394
2747 3 0.662149 0.663596 0.220427
2212 1 0.659237 0.673412 0.217978
1666 1 0.679919 0.693351 0.221422
20077 1 0.70171 0.673852 0.238076
10859 3 0.723244 0.687007 0.0238943
10858 1 0.718106 0.690056 0.0176743
10860 1 0.728024 0.684143 0.0274588
3609 1 0.730194 0.682595 0.0295064
5658 1 0.716064 0.691105 0.0150561
5657 3 0.710479 0.694746 0.0108178
1481 3 0.708793 0.66904 0.0276685
13399 1 0.720754 0.66002 0.0497806
7809 1 0.722329 0.657766 0.0507684
7808 3 0.726357 0.65267 0.0526457
7807 1 0.732175 0.647791 0.0554096
14137 1 0.734274 0.645518 0.0566209
14138 3 0.738549 0.640772 0.0603023
11056 1 0.749716 0.659589 0.0468218
10637 3 0.756237 0.651755 0.0527894
10636 1 0.751405 0.657069 0.0483683
10638 1 0.760023 0.646878 0.0568522
8532 1 0.761613 0.645518 0.0583756
13400 3 0.716732 0.663608 0.044747
3608 3 0.733693 0.677308 0.0339362
13401 1 0.714276 0.66533 0.0374023
18080 3 0.723035 0.688155 0.0466462
18081 1 0.727738 0.683229 0.0513925
12450 1 0.728962 0.681449 0.0531191
12449 3 0.732719 0.676441 0.0574315
12448 1 0.735601 0.669831 0.0613722
11058 1 0.739688 0.670016 0.0399888
3607 1 0.73791 0.67161 0.0385951
18079 1 0.719372 0.691986 0.0416027
1482 1 0.712857 0.666148 0.0349006
15561 1 0.709669 0.669741 0.0617132
10329 1 0.7182 0.694326 0.0396832
3221 3 0.76787 0.671253 0.043036
3222 1 0.760608 0.674079 0.0416339
11057 3 0.745277 0.665289 0.0431602
3220 1 0.775984 0.668211 0.0436112
19244 3 0.735617 0.591532 0.091456
13535 3 0.719844 0.621912 0.0731379
3978 1 0.722966 0.613506 0.0782527
3977 3 0.725386 0.607249 0.0828709
13534 1 0.72213 0.615924 0.0766322
18801 1 0.709904 0.600771 0.0857505
3976 1 0.730627 0.600496 0.0866248
19243 1 0.732152 0.598254 0.0878472
3987 1 0.711067 0.597811 0.0881241
18220 1 0.73598 0.627566 0.086455
6801 1 0.736738 0.625823 0.0879012
9014 3 0.758681 0.596175 0.0890963
2705 3 0.752663 0.611786 0.0794828
18755 3 0.747119 0.6261 0.0683014
18754 1 0.749348 0.620499 0.0740342
2704 1 0.750436 0.618213 0.075819
2706 1 0.755054 0.605217 0.0833712
9013 1 0.755837 0.602662 0.0848655
21388 1 0.761687 0.624934 0.0900354
8854 1 0.760377 0.627166 0.0884452
13536 1 0.717155 0.628229 0.0691038
12315 1 0.715895 0.630074 0.0675312
3083 3 0.713292 0.661017 0.0662486
18222 1 0.728735 0.640211 0.080888
13644 1 0.727223 0.642158 0.0794564
13643 3 0.72308 0.6479 0.075775
13642 1 0.719003 0.653275 0.0720339
3082 1 0.717371 0.65557 0.0705992
18221 3 0.732885 0.634194 0.0832214
12314 3 0.710639 0.634954 0.0621479
15204 1 0.714452 0.630067 0.0903116
3378 1 0.739337 0.660288 0.0904016
14961 1 0.715609 0.657892 0.0920153
17544 1 0.715601 0.628441 0.0916139
15203 3 0.710628 0.635475 0.086182
8531 3 0.767268 0.642153 0.0634635
18756 1 0.743792 0.631938 0.0651299
14139 1 0.742548 0.634225 0.0640354
20720 3 0.74116 0.661276 0.0652854
8855 3 0.757306 0.633769 0.0849091
14963 3 0.749954 0.64838 0.0771597
14962 1 0.746567 0.654027 0.07185
20721 1 0.745087 0.655568 0.0702968
14964 1 0.752776 0.642283 0.0811352
8856 1 0.753748 0.640105 0.0821025
6874 1 0.762994 0.659586 0.0843292
6875 3 0.767314 0.653741 0.0889226
5548 1 0.74049 0.657184 0.0922143
18805 1 0.761493 0.661682 0.0826533
8530 1 0.772966 0.638799 0.0674033
17300 2 0.782257 0.635035 0.0708804
17299 1 0.789129 0.63285 0.0741674
17301 1 0.775336 0.637864 0.0682856
17162 3 0.798907 0.645941 0.0903022
2155 1 0.79092 0.651757 0.0852697
17163 1 0.792775 0.650396 0.0864182
2156 3 0.786808 0.654741 0.0809289
2157 1 0.78505 0.658582 0.0747634
15695 2 0.798466 0.659257 0.0644112
15696 1 0.805604 0.657856 0.0639588
20719 1 0.73714 0.667503 0.0623612
3084 1 0.710703 0.667224 0.0631968
14960 3 0.711581 0.663287 0.0871458
3377 3 0.736357 0.665601 0.0858581
3376 1 0.730121 0.670896 0.0825123
2623 1 0.728397 0.67264 0.0812298
212 3 0.713837 0.693156 0.0680355
2624 3 0.724182 0.678482 0.0773421
2625 1 0.719134 0.684982 0.0734628
211 1 0.717725 0.686844 0.0717568
8912 3 0.736617 0.691468 0.087431
5449 1 0.740349 0.690956 0.0677731
10334 3 0.712525 0.694485 0.0913912
14959 1 0.708131 0.668086 0.0824539
7591 1 0.759331 0.693035 0.0813408
995 3 0.766236 0.678083 0.0625468
994 1 0.772167 0.672866 0.063079
996 1 0.760295 0.682564 0.0627955
18806 3 0.757733 0.667782 0.0787298
18807 1 0.752798 0.673908 0.0757388
13845 1 0.750668 0.676316 0.074947
13844 3 0.74645 0.682 0.072799
13843 1 0.741525 0.688247 0.0694412
7593 1 0.768968 0.681909 0.0867981
7592 3 0.764621 0.687319 0.0841011
6652 1 0.770889 0.679382 0.0881171
8911 1 0.741644 0.686101 0.0920805
5439 1 0.757641 0.695813 0.0802723
13942 1 0.775031 0.670942 0.0635158
13943 3 0.780436 0.666593 0.0645435
13944 1 0.787989 0.663981 0.0642915
15694 1 0.790763 0.662741 0.0642275
6653 3 0.774476 0.672975 0.0921944
15991 1 0.738641 0.558998 0.120951
16292 3 0.768432 0.551338 0.116681
16291 1 0.772499 0.543893 0.119471
16293 1 0.76292 0.557563 0.113434
15385 1 0.761509 0.559417 0.112535
17919 1 0.774459 0.540936 0.12071
17918 2 0.778655 0.535273 0.123435
3808 1 0.737157 0.561082 0.119315
3985 1 0.716658 0.588142 0.0998701
3810 1 0.729025 0.572456 0.110374
1090 1 0.726919 0.575046 0.109658
1091 3 0.721562 0.580473 0.105858
1092 1 0.717797 0.586177 0.101772
3809 3 0.73365 0.566603 0.1146
1234 1 0.717318 0.591277 0.122649
3986 3 0.714442 0.592387 0.0937539
3365 3 0.736661 0.59331 0.115687
9015 1 0.762227 0.591694 0.0939356
15386 2 0.756944 0.565273 0.109834
19245 1 0.740961 0.585518 0.0946769
13474 1 0.742753 0.58356 0.0958759
13475 3 0.746376 0.578095 0.0996484
13476 1 0.750594 0.572255 0.104886
15387 1 0.752066 0.570711 0.106376
3364 1 0.740975 0.587061 0.119551
2808 1 0.765876 0.589349 0.115192
10021 1 0.767239 0.587274 0.116312
4785 1 0.742812 0.585495 0.120566
10022 3 0.770889 0.582236 0.121712
12294 1 0.791795 0.589001 0.112778
12045 1 0.79363 0.58711 0.113893
12044 3 0.798447 0.581687 0.117558
12043 1 0.802644 0.576525 0.121539
20988 1 0.804159 0.573811 0.122483
4616 3 0.81561 0.58225 0.10304
4615 1 0.811112 0.588077 0.0983389
4617 1 0.817752 0.575782 0.108005
20987 2 0.80699 0.566016 0.123557
1235 3 0.713564 0.597115 0.117457
17543 3 0.718664 0.62343 0.0970674
11169 1 0.731249 0.601539 0.110616
3366 1 0.732417 0.599344 0.111989
11168 3 0.727392 0.608089 0.10696
11167 1 0.724127 0.615083 0.104296
17542 1 0.722707 0.617813 0.102876
12440 3 0.716001 0.623735 0.120012
12439 1 0.720968 0.617741 0.122842
6800 3 0.739738 0.620707 0.0934905
11960 3 0.739996 0.624235 0.116389
1236 1 0.709424 0.60338 0.113183
21389 3 0.765641 0.619573 0.094302
2807 3 0.760628 0.594718 0.112793
2806 1 0.757005 0.600032 0.109295
19992 1 0.754744 0.602338 0.107843
19991 3 0.748976 0.608281 0.103132
19990 1 0.744918 0.613409 0.0989165
6799 1 0.743472 0.615468 0.0974343
2467 1 0.768022 0.621738 0.119338
4747 1 0.769516 0.619419 0.120699
11959 1 0.744577 0.6179 0.120054
13543 1 0.745909 0.615859 0.121561
10674 1 0.769608 0.612395 0.0997626
21390 1 0.767907 0.614438 0.0980012
2468 3 0.762711 0.627372 0.115357
12293 3 0.785671 0.594226 0.10987
12292 1 0.780943 0.599684 0.107351
10672 1 0.77917 0.601645 0.106339
10673 3 0.774314 0.606689 0.103007
2183 3 0.789154 0.625731 0.106931
2184 1 0.791984 0.621152 0.111473
16303 1 0.792936 0.619628 0.11371
16304 3 0.796557 0.613523 0.119459
16305 1 0.800629 0.607119 0.123091
3430 1 0.716868 0.656334 0.0936599
12441 1 0.713194 0.629757 0.115002
6142 1 0.73424 0.631236 0.110246
3431 3 0.721033 0.650953 0.0987002
3432 1 0.725715 0.644557 0.100811
6144 1 0.727186 0.642098 0.101497
7480 1 0.713195 0.661421 0.115173
15523 1 0.711251 0.632235 0.112822
9379 1 0.714888 0.65898 0.11694
6143 3 0.730421 0.635971 0.105112
5035 1 0.737351 0.659137 0.112401
9380 3 0.71916 0.65333 0.120864
8313 1 0.739092 0.657525 0.11376
11961 1 0.735777 0.629383 0.111999