ITEM: TIMESTEP
0
ITEM: NUMBER OF ATOMS
7056
ITEM: BOX BOUNDS pp pp pp
0.0000000000000000e+00 5.0000000000000000e+01
0.0000000000000000e+00 5.0000000000000000e+01
0.0000000000000000e+00 5.0000000000000000e+01
ITEM: ATOMS id type 
1 1 
2 3 
3 1 
61 1 
62 3 
63 1 
121 1 
122 2 
123 1 
130 1 
131 2 
132 1 
187 1 
188 2 
189 1 
244 1 
245 2 
246 1 
250 1 
251 3 
252 1 
301 1 
302 3 
303 1 
307 1 
308 2 
309 1 
364 1 
365 3 
366 1 
367 1 
368 2 
369 1 
430 1 
431 2 
432 1 
481 1 
482 3 
483 1 
484 1 
485 2 
486 1 
1201 1 
1202 3 
1203 1 
1204 1 
1205 3 
1206 1 
1210 1 
1211 3 
1212 1 
1264 1 
1265 3 
1266 1 
1381 1 
1382 2 
1383 1 
1384 1 
1385 3 
1386 1 
1441 1 
1442 2 
1443 1 
1444 1 
1445 2 
1446 1 
1561 1 
1562 2 
1563 1 
1567 1 
1568 2 
1569 1 
1570 1 
1571 2 
1572 1 
2227 1 
2228 2 
2229 1 
2287 1 
2288 2 
2289 1 
2344 1 
2345 2 
2346 1 
2350 1 
2351 2 
2352 1 
2401 1 
2402 3 
2403 1 
2581 1 
2582 2 
2583 1 
2584 1 
2585 3 
2586 1 
2590 1 
2591 2 
2592 1 
3190 1 
3191 2 
3192 1 
3241 1 
3242 2 
3243 1 
3244 1 
3245 2 
3246 1 
3247 1 
3248 2 
3249 1 
3310 1 
3311 2 
3312 1 
3370 1 
3371 3 
3372 1 
3427 1 
3428 2 
3429 1 
3481 1 
3482 2 
3483 1 
3484 1 
3485 2 
3486 1 
3541 1 
3542 3 
3543 1 
3544 1 
3545 3 
3546 1 
3601 1 
3602 3 
3603 1 
3610 1 
3611 2 
3612 1 
3721 1 
3722 2 
3723 1 
3724 1 
3725 2 
3726 1 
3727 1 
3728 2 
3729 1 
3730 1 
3731 2 
3732 1 
4324 1 
4325 3 
4326 1 
4381 1 
4382 3 
4383 1 
4561 1 
4562 2 
4563 1 
4567 1 
4568 2 
4569 1 
4627 1 
4628 2 
4629 1 
4741 1 
4742 3 
4743 1 
4744 1 
4745 3 
4746 1 
4804 1 
4805 3 
4806 1 
4810 1 
4811 3 
4812 1 
4861 1 
4862 3 
4863 1 
4867 1 
4868 3 
4869 1 
4870 1 
4871 2 
4872 1 
5524 1 
5525 3 
5526 1 
5650 1 
5651 3 
5652 1 
5701 1 
5702 2 
5703 1 
5824 1 
5825 3 
5826 1 
5830 1 
5831 3 
5832 1 
5887 1 
5888 3 
5889 1 
5941 1 
5942 3 
5943 1 
5947 1 
5948 2 
5949 1 
6004 1 
6005 2 
6006 1 
6667 1 
6668 3 
6669 1 
6670 1 
6671 2 
6672 1 
6724 1 
6725 3 
6726 1 
6730 1 
6731 3 
6732 1 
6781 1 
6782 2 
6783 1 
6787 1 
6788 2 
6789 1 
6901 1 
6902 2 
6903 1 
6907 1 
6908 2 
6909 1 
6961 1 
6962 3 
6963 1 
7021 1 
7022 2 
7023 1 
7024 1 
7025 2 
7026 1 
7030 1 
7031 2 
7032 1 
7081 1 
7082 3 
7083 1 
7147 1 
7148 3 
7149 1 
7150 1 
7151 2 
7152 1 
7210 1 
7211 3 
7212 1 
7744 1 
7745 2 
7746 1 
7801 1 
7802 3 
7803 1 
7867 1 
7868 2 
7869 1 
7981 1 
7982 3 
7983 1 
7990 1 
7991 3 
7992 1 
8101 1 
8102 3 
8103 1 
8170 1 
8171 2 
8172 1 
8221 1 
8222 3 
8223 1 
8224 1 
8225 3 
8226 1 
8884 1 
8885 3 
8886 1 
8887 1 
8888 2 
8889 1 
8941 1 
8942 3 
8943 1 
9181 1 
9182 2 
9183 1 
9187 1 
9188 2 
9189 1 
9250 1 
9251 2 
9252 1 
9301 1 
9302 3 
9303 1 
9304 1 
9305 2 
9306 1 
9967 1 
9968 2 
9969 1 
9970 1 
9971 2 
9972 1 
10024 1 
10025 3 
10026 1 
10081 1 
10082 3 
10083 1 
10084 1 
10085 2 
10086 1 
10087 1 
10088 3 
10089 1 
10090 1 
10091 3 
10092 1 
10141 1 
10142 3 
10143 1 
10147 1 
10148 3 
10149 1 
10150 1 
10151 3 
10152 1 
10204 1 
10205 2 
10206 1 
10207 1 
10208 3 
10209 1 
10270 1 
10271 2 
10272 1 
10330 1 
10331 2 
10332 1 
10381 1 
10382 2 
10383 1 
10444 1 
10445 3 
10446 1 
10450 1 
10451 2 
10452 1 
10504 1 
10505 3 
10506 1 
16 1 
17 2 
18 1 
22 1 
23 3 
24 1 
76 1 
77 3 
78 1 
79 1 
80 3 
81 1 
82 1 
83 2 
84 1 
196 1 
197 2 
198 1 
202 1 
203 3 
204 1 
256 1 
257 2 
258 1 
313 1 
314 3 
315 1 
319 1 
320 2 
321 1 
382 1 
383 2 
384 1 
433 1 
434 2 
435 1 
1156 1 
1157 2 
1158 1 
1213 1 
1214 2 
1215 1 
1273 1 
1274 3 
1275 1 
1282 1 
1283 3 
1284 1 
1339 1 
1340 2 
1341 1 
1396 1 
1397 2 
1398 1 
1462 1 
1463 2 
1464 1 
1573 1 
1574 2 
1575 1 
2239 1 
2240 3 
2241 1 
2302 1 
2303 2 
2304 1 
2353 1 
2354 2 
2355 1 
3193 1 
3194 2 
3195 1 
3196 1 
3197 2 
3198 1 
3199 1 
3200 3 
3201 1 
3322 1 
3323 3 
3324 1 
3442 1 
3443 3 
3444 1 
3556 1 
3557 3 
3558 1 
3613 1 
3614 2 
3615 1 
3619 1 
3620 2 
3621 1 
3622 1 
3623 2 
3624 1 
3682 1 
3683 3 
3684 1 
3736 1 
3737 2 
3738 1 
4339 1 
4340 2 
4341 1 
4453 1 
4454 2 
4455 1 
4456 1 
4457 2 
4458 1 
4519 1 
4520 3 
4521 1 
4522 1 
4523 3 
4524 1 
4579 1 
4580 2 
4581 1 
4693 1 
4694 3 
4695 1 
4696 1 
4697 3 
4698 1 
4699 1 
4700 3 
4701 1 
4753 1 
4754 2 
4755 1 
4756 1 
4757 2 
4758 1 
4813 1 
4814 3 
4815 1 
4819 1 
4820 3 
4821 1 
4876 1 
4877 2 
4878 1 
4879 1 
4880 3 
4881 1 
4882 1 
4883 2 
4884 1 
5473 1 
5474 2 
5475 1 
5542 1 
5543 3 
5544 1 
5662 1 
5663 3 
5664 1 
5713 1 
5714 3 
5715 1 
5716 1 
5717 2 
5718 1 
5782 1 
5783 2 
5784 1 
5842 1 
5843 3 
5844 1 
5956 1 
5957 3 
5958 1 
6013 1 
6014 2 
6015 1 
6016 1 
6017 3 
6018 1 
6739 1 
6740 2 
6741 1 
6742 1 
6743 3 
6744 1 
6793 1 
6794 2 
6795 1 
6859 1 
6860 3 
6861 1 
6913 1 
6914 2 
6915 1 
6916 1 
6917 2 
6918 1 
6976 1 
6977 3 
6978 1 
6982 1 
6983 2 
6984 1 
7042 1 
7043 3 
7044 1 
7096 1 
7097 2 
7098 1 
7099 1 
7100 2 
7101 1 
7213 1 
7214 3 
7215 1 
7216 1 
7217 2 
7218 1 
7756 1 
7757 2 
7758 1 
7822 1 
7823 3 
7824 1 
7873 1 
7874 2 
7875 1 
8053 1 
8054 3 
8055 1 
8116 1 
8117 2 
8118 1 
8173 1 
8174 2 
8175 1 
8182 1 
8183 2 
8184 1 
8239 1 
8240 2 
8241 1 
8293 1 
8294 2 
8295 1 
8893 1 
8894 2 
8895 1 
8896 1 
8897 2 
8898 1 
8956 1 
8957 2 
8958 1 
9022 1 
9023 2 
9024 1 
9073 1 
9074 2 
9075 1 
9133 1 
9134 3 
9135 1 
9139 1 
9140 2 
9141 1 
9199 1 
9200 2 
9201 1 
9262 1 
9263 3 
9264 1 
9316 1 
9317 2 
9318 1 
9979 1 
9980 2 
9981 1 
9982 1 
9983 2 
9984 1 
10036 1 
10037 2 
10038 1 
10039 1 
10040 3 
10041 1 
10096 1 
10097 2 
10098 1 
10159 1 
10160 3 
10161 1 
10162 1 
10163 3 
10164 1 
10219 1 
10220 2 
10221 1 
10273 1 
10274 2 
10275 1 
10276 1 
10277 3 
10278 1 
10342 1 
10343 2 
10344 1 
10402 1 
10403 2 
10404 1 
10462 1 
10463 2 
10464 1 
10513 1 
10514 2 
10515 1 
10516 1 
10517 2 
10518 1 
34 1 
35 3 
36 1 
88 1 
89 3 
90 1 
151 1 
152 2 
153 1 
214 1 
215 3 
216 1 
325 1 
326 2 
327 1 
385 1 
386 3 
387 1 
391 1 
392 3 
393 1 
508 1 
509 2 
510 1 
511 1 
512 2 
513 1 
514 1 
515 3 
516 1 
1171 1 
1172 3 
1173 1 
1228 1 
1229 3 
1230 1 
1288 1 
1289 2 
1290 1 
1348 1 
1349 2 
1350 1 
1405 1 
1406 2 
1407 1 
1408 1 
1409 3 
1410 1 
1411 1 
1412 2 
1413 1 
1468 1 
1469 2 
1470 1 
1471 1 
1472 3 
1473 1 
1525 1 
1526 3 
1527 1 
1585 1 
1586 3 
1587 1 
1591 1 
1592 2 
1593 1 
1594 1 
1595 2 
1596 1 
1654 1 
1655 3 
1656 1 
2305 1 
2306 3 
2307 1 
2374 1 
2375 2 
2376 1 
2431 1 
2432 3 
2433 1 
2434 1 
2435 2 
2436 1 
2488 1 
2489 2 
2490 1 
2494 1 
2495 3 
2496 1 
2545 1 
2546 2 
2547 1 
2605 1 
2606 2 
2607 1 
3271 1 
3272 2 
3273 1 
3328 1 
3329 3 
3330 1 
3334 1 
3335 3 
3336 1 
3391 1 
3392 2 
3393 1 
3394 1 
3395 3 
3396 1 
3445 1 
3446 2 
3447 1 
3505 1 
3506 3 
3507 1 
3508 1 
3509 3 
3510 1 
3511 1 
3512 2 
3513 1 
3565 1 
3566 2 
3567 1 
3568 1 
3569 2 
3570 1 
3571 1 
3572 3 
3573 1 
3745 1 
3746 3 
3747 1 
4348 1 
4349 3 
4350 1 
4351 1 
4352 3 
4353 1 
4354 1 
4355 2 
4356 1 
4468 1 
4469 2 
4470 1 
4531 1 
4532 3 
4533 1 
4591 1 
4592 3 
4593 1 
4645 1 
4646 2 
4647 1 
4651 1 
4652 3 
4653 1 
4765 1 
4766 3 
4767 1 
4774 1 
4775 2 
4776 1 
4828 1 
4829 3 
4830 1 
4885 1 
4886 3 
4887 1 
4894 1 
4895 3 
4896 1 
5491 1 
5492 2 
5493 1 
5605 1 
5606 2 
5607 1 
5614 1 
5615 2 
5616 1 
5665 1 
5666 3 
5667 1 
5911 1 
5912 3 
5913 1 
5965 1 
5966 3 
5967 1 
5971 1 
5972 3 
5973 1 
6025 1 
6026 3 
6027 1 
6031 1 
6032 2 
6033 1 
6034 1 
6035 2 
6036 1 
6685 1 
6686 2 
6687 1 
6688 1 
6689 3 
6690 1 
6745 1 
6746 2 
6747 1 
6748 1 
6749 2 
6750 1 
6754 1 
6755 3 
6756 1 
6868 1 
6869 2 
6870 1 
6871 1 
6872 2 
6873 1 
6925 1 
6926 3 
6927 1 
6988 1 
6989 2 
6990 1 
7045 1 
7046 3 
7047 1 
7051 1 
7052 2 
7053 1 
7108 1 
7109 3 
7110 1 
7111 1 
7112 2 
7113 1 
7114 1 
7115 2 
7116 1 
7168 1 
7169 3 
7170 1 
7765 1 
7766 3 
7767 1 
7768 1 
7769 2 
7770 1 
7774 1 
7775 2 
7776 1 
7828 1 
7829 2 
7830 1 
7885 1 
7886 3 
7887 1 
7888 1 
7889 2 
7890 1 
7891 1 
7892 2 
7893 1 
7945 1 
7946 2 
7947 1 
8005 1 
8006 2 
8007 1 
8008 1 
8009 3 
8010 1 
8011 1 
8012 3 
8013 1 
8065 1 
8066 2 
8067 1 
8068 1 
8069 3 
8070 1 
8071 1 
8072 2 
8073 1 
8128 1 
8129 2 
8130 1 
8248 1 
8249 3 
8250 1 
8251 1 
8252 3 
8253 1 
8308 1 
8309 2 
8310 1 
8908 1 
8909 3 
8910 1 
8914 1 
8915 3 
8916 1 
8971 1 
8972 2 
8973 1 
9025 1 
9026 2 
9027 1 
9031 1 
9032 2 
9033 1 
9034 1 
9035 3 
9036 1 
9085 1 
9086 3 
9087 1 
9088 1 
9089 2 
9090 1 
9091 1 
9092 2 
9093 1 
9094 1 
9095 2 
9096 1 
9148 1 
9149 3 
9150 1 
9211 1 
9212 2 
9213 1 
9265 1 
9266 3 
9267 1 
9325 1 
9326 2 
9327 1 
9328 1 
9329 2 
9330 1 
9331 1 
9332 2 
9333 1 
9985 1 
9986 3 
9987 1 
10165 1 
10166 2 
10167 1 
10225 1 
10226 3 
10227 1 
10234 1 
10235 3 
10236 1 
10294 1 
10295 3 
10296 1 
10348 1 
10349 3 
10350 1 
10405 1 
10406 3 
10407 1 
10408 1 
10409 3 
10410 1 
10411 1 
10412 2 
10413 1 
10465 1 
10466 2 
10467 1 
10531 1 
10532 2 
10533 1 
37 1 
38 2 
39 1 
43 1 
44 2 
45 1 
97 1 
98 3 
99 1 
103 1 
104 3 
105 1 
160 1 
161 3 
162 1 
166 1 
167 2 
168 1 
217 1 
218 3 
219 1 
226 1 
227 2 
228 1 
280 1 
281 2 
282 1 
286 1 
287 3 
288 1 
403 1 
404 3 
405 1 
460 1 
461 2 
462 1 
1180 1 
1181 2 
1182 1 
1246 1 
1247 2 
1248 1 
1300 1 
1301 2 
1302 1 
1303 1 
1304 3 
1305 1 
1306 1 
1307 2 
1308 1 
1363 1 
1364 2 
1365 1 
1417 1 
1418 3 
1419 1 
1420 1 
1421 3 
1422 1 
1483 1 
1484 3 
1485 1 
1537 1 
1538 3 
1539 1 
1540 1 
1541 2 
1542 1 
1543 1 
1544 2 
1545 1 
1597 1 
1598 3 
1599 1 
1660 1 
1661 2 
1662 1 
2257 1 
2258 2 
2259 1 
2320 1 
2321 3 
2322 1 
2323 1 
2324 3 
2325 1 
2380 1 
2381 2 
2382 1 
2386 1 
2387 3 
2388 1 
2497 1 
2498 3 
2499 1 
2557 1 
2558 2 
2559 1 
2560 1 
2561 2 
2562 1 
2563 1 
2564 2 
2565 1 
2620 1 
2621 2 
2622 1 
3223 1 
3224 3 
3225 1 
3226 1 
3227 3 
3228 1 
3277 1 
3278 2 
3279 1 
3286 1 
3287 3 
3288 1 
3340 1 
3341 2 
3342 1 
3343 1 
3344 2 
3345 1 
3397 1 
3398 3 
3399 1 
3403 1 
3404 3 
3405 1 
3577 1 
3578 3 
3579 1 
3580 1 
3581 2 
3582 1 
3586 1 
3587 3 
3588 1 
3643 1 
3644 2 
3645 1 
3646 1 
3647 3 
3648 1 
3697 1 
3698 2 
3699 1 
3760 1 
3761 3 
3762 1 
3766 1 
3767 2 
3768 1 
4357 1 
4358 3 
4359 1 
4483 1 
4484 2 
4485 1 
4537 1 
4538 2 
4539 1 
4543 1 
4544 2 
4545 1 
4606 1 
4607 2 
4608 1 
4660 1 
4661 2 
4662 1 
4666 1 
4667 2 
4668 1 
4720 1 
4721 2 
4722 1 
4840 1 
4841 3 
4842 1 
4900 1 
4901 3 
4902 1 
5560 1 
5561 3 
5562 1 
5566 1 
5567 2 
5568 1 
5677 1 
5678 3 
5679 1 
5740 1 
5741 2 
5742 1 
5743 1 
5744 3 
5745 1 
5746 1 
5747 2 
5748 1 
5797 1 
5798 2 
5799 1 
5800 1 
5801 2 
5802 1 
5863 1 
5864 2 
5865 1 
5923 1 
5924 3 
5925 1 
5926 1 
5927 3 
5928 1 
5986 1 
5987 3 
5988 1 
6043 1 
6044 3 
6045 1 
6697 1 
6698 2 
6699 1 
6700 1 
6701 3 
6702 1 
6703 1 
6704 3 
6705 1 
6706 1 
6707 2 
6708 1 
6760 1 
6761 2 
6762 1 
6763 1 
6764 3 
6765 1 
6823 1 
6824 3 
6825 1 
6937 1 
6938 2 
6939 1 
6940 1 
6941 2 
6942 1 
6943 1 
6944 3 
6945 1 
7003 1 
7004 2 
7005 1 
7180 1 
7181 2 
7182 1 
7183 1 
7184 3 
7185 1 
7237 1 
7238 2 
7239 1 
7780 1 
7781 3 
7782 1 
7786 1 
7787 2 
7788 1 
7843 1 
7844 3 
7845 1 
8017 1 
8018 2 
8019 1 
8020 1 
8021 2 
8022 1 
8026 1 
8027 3 
8028 1 
8077 1 
8078 3 
8079 1 
8083 1 
8084 2 
8085 1 
8203 1 
8204 3 
8205 1 
8206 1 
8207 3 
8208 1 
8263 1 
8264 2 
8265 1 
8320 1 
8321 3 
8322 1 
8917 1 
8918 3 
8919 1 
8920 1 
8921 3 
8922 1 
8980 1 
8981 2 
8982 1 
9046 1 
9047 3 
9048 1 
9163 1 
9164 3 
9165 1 
9217 1 
9218 2 
9219 1 
9223 1 
9224 3 
9225 1 
9277 1 
9278 2 
9279 1 
9286 1 
9287 2 
9288 1 
9340 1 
9341 3 
9342 1 
9343 1 
9344 2 
9345 1 
10066 1 
10067 3 
10068 1 
10123 1 
10124 3 
10125 1 
10237 1 
10238 2 
10239 1 
10360 1 
10361 3 
10362 1 
10420 1 
10421 2 
10422 1 
10477 1 
10478 2 
10479 1 
10540 1 
10541 3 
10542 1 
58 1 
59 3 
60 1 
109 1 
110 3 
111 1 
292 1 
293 3 
294 1 
358 1 
359 3 
360 1 
409 1 
410 2 
411 1 
415 1 
416 3 
417 1 
418 1 
419 2 
420 1 
469 1 
470 2 
471 1 
472 1 
473 3 
474 1 
529 1 
530 3 
531 1 
535 1 
536 3 
537 1 
1189 1 
1190 3 
1191 1 
1192 1 
1193 3 
1194 1 
1195 1 
1196 3 
1197 1 
1198 1 
1199 2 
1200 1 
1249 1 
1250 2 
1251 1 
1255 1 
1256 2 
1257 1 
1258 1 
1259 2 
1260 1 
1309 1 
1310 3 
1311 1 
1435 1 
1436 3 
1437 1 
1489 1 
1490 2 
1491 1 
1495 1 
1496 2 
1497 1 
1552 1 
1553 3 
1554 1 
1555 1 
1556 3 
1557 1 
1558 1 
1559 3 
1560 1 
2332 1 
2333 2 
2334 1 
2398 1 
2399 2 
2400 1 
2455 1 
2456 3 
2457 1 
2509 1 
2510 3 
2511 1 
2578 1 
2579 3 
2580 1 
2635 1 
2636 2 
2637 1 
2638 1 
2639 2 
2640 1 
3292 1 
3293 3 
3294 1 
3349 1 
3350 2 
3351 1 
3355 1 
3356 2 
3357 1 
3358 1 
3359 2 
3360 1 
3409 1 
3410 2 
3411 1 
3472 1 
3473 3 
3474 1 
3475 1 
3476 2 
3477 1 
3589 1 
3590 2 
3591 1 
3592 1 
3593 2 
3594 1 
3649 1 
3650 2 
3651 1 
3655 1 
3656 2 
3657 1 
3709 1 
3710 2 
3711 1 
3715 1 
3716 2 
3717 1 
3718 1 
3719 2 
3720 1 
4369 1 
4370 2 
4371 1 
4435 1 
4436 3 
4437 1 
4489 1 
4490 3 
4491 1 
4492 1 
4493 2 
4494 1 
4552 1 
4553 3 
4554 1 
4558 1 
4559 3 
4560 1 
4612 1 
4613 3 
4614 1 
4669 1 
4670 2 
4671 1 
4732 1 
4733 3 
4734 1 
4789 1 
4790 2 
4791 1 
4855 1 
4856 3 
4857 1 
5512 1 
5513 3 
5514 1 
5575 1 
5576 3 
5577 1 
5632 1 
5633 3 
5634 1 
5635 1 
5636 2 
5637 1 
5758 1 
5759 3 
5760 1 
5872 1 
5873 2 
5874 1 
5932 1 
5933 3 
5934 1 
5935 1 
5936 3 
5937 1 
6709 1 
6710 3 
6711 1 
6718 1 
6719 3 
6720 1 
6772 1 
6773 2 
6774 1 
6775 1 
6776 2 
6777 1 
6832 1 
6833 3 
6834 1 
6835 1 
6836 2 
6837 1 
6889 1 
6890 3 
6891 1 
6955 1 
6956 3 
6957 1 
7012 1 
7013 3 
7014 1 
7072 1 
7073 2 
7074 1 
7075 1 
7076 3 
7077 1 
7078 1 
7079 2 
7080 1 
7132 1 
7133 3 
7134 1 
7135 1 
7136 2 
7137 1 
7255 1 
7256 2 
7257 1 
7789 1 
7790 2 
7791 1 
7792 1 
7793 2 
7794 1 
7798 1 
7799 2 
7800 1 
7855 1 
7856 3 
7857 1 
7909 1 
7910 3 
7911 1 
7972 1 
7973 2 
7974 1 
7975 1 
7976 2 
7977 1 
8089 1 
8090 3 
8091 1 
8098 1 
8099 3 
8100 1 
8155 1 
8156 3 
8157 1 
8209 1 
8210 2 
8211 1 
8929 1 
8930 2 
8931 1 
8932 1 
8933 3 
8934 1 
8995 1 
8996 3 
8997 1 
9055 1 
9056 2 
9057 1 
9112 1 
9113 3 
9114 1 
9169 1 
9170 3 
9171 1 
9172 1 
9173 3 
9174 1 
9175 1 
9176 3 
9177 1 
9178 1 
9179 2 
9180 1 
9235 1 
9236 2 
9237 1 
9238 1 
9239 2 
9240 1 
9289 1 
9290 2 
9291 1 
9292 1 
9293 2 
9294 1 
9295 1 
9296 2 
9297 1 
9349 1 
9350 2 
9351 1 
10012 1 
10013 3 
10014 1 
10015 1 
10016 3 
10017 1 
10069 1 
10070 3 
10071 1 
10072 1 
10073 2 
10074 1 
10129 1 
10130 2 
10131 1 
10252 1 
10253 3 
10254 1 
10312 1 
10313 3 
10314 1 
10315 1 
10316 2 
10317 1 
10369 1 
10370 2 
10371 1 
10372 1 
10373 2 
10374 1 
10375 1 
10376 2 
10377 1 
10429 1 
10430 3 
10431 1 
10432 1 
10433 2 
10434 1 
10489 1 
10490 3 
10491 1 
10495 1 
10496 2 
10497 1 
10498 1 
10499 3 
10500 1 
10549 1 
10550 3 
10551 1 
544 1 
545 3 
546 1 
550 1 
551 2 
552 1 
721 1 
722 2 
723 1 
724 1 
725 2 
726 1 
727 1 
728 3 
729 1 
781 1 
782 2 
783 1 
784 1 
785 3 
786 1 
790 1 
791 3 
792 1 
850 1 
851 2 
852 1 
907 1 
908 3 
909 1 
967 1 
968 2 
969 1 
1024 1 
1025 2 
1026 1 
1027 1 
1028 2 
1029 1 
1030 1 
1031 3 
1032 1 
1081 1 
1082 3 
1083 1 
1084 1 
1085 3 
1086 1 
1681 1 
1682 3 
1683 1 
1684 1 
1685 2 
1686 1 
1744 1 
1745 3 
1746 1 
1747 1 
1748 3 
1749 1 
1804 1 
1805 3 
1806 1 
1861 1 
1862 3 
1863 1 
1864 1 
1865 2 
1866 1 
1921 1 
1922 3 
1923 1 
1927 1 
1928 2 
1929 1 
1930 1 
1931 3 
1932 1 
2167 1 
2168 2 
2169 1 
2644 1 
2645 2 
2646 1 
2647 1 
2648 3 
2649 1 
2710 1 
2711 3 
2712 1 
2821 1 
2822 3 
2823 1 
2887 1 
2888 2 
2889 1 
2944 1 
2945 3 
2946 1 
2947 1 
2948 2 
2949 1 
3004 1 
3005 3 
3006 1 
3061 1 
3062 3 
3063 1 
3121 1 
3122 3 
3123 1 
3787 1 
3788 2 
3789 1 
3790 1 
3791 2 
3792 1 
3844 1 
3845 2 
3846 1 
3847 1 
3848 2 
3849 1 
3961 1 
3962 3 
3963 1 
3964 1 
3965 3 
3966 1 
4021 1 
4022 2 
4023 1 
4024 1 
4025 3 
4026 1 
4030 1 
4031 3 
4032 1 
4084 1 
4085 3 
4086 1 
4090 1 
4091 3 
4092 1 
4144 1 
4145 2 
4146 1 
4150 1 
4151 3 
4152 1 
4207 1 
4208 3 
4209 1 
4210 1 
4211 2 
4212 1 
4921 1 
4922 3 
4923 1 
4924 1 
4925 2 
4926 1 
4930 1 
4931 2 
4932 1 
5044 1 
5045 2 
5046 1 
5047 1 
5048 2 
5049 1 
5170 1 
5171 2 
5172 1 
5281 1 
5282 2 
5283 1 
5341 1 
5342 3 
5343 1 
6130 1 
6131 3 
6132 1 
6187 1 
6188 3 
6189 1 
6244 1 
6245 3 
6246 1 
6361 1 
6362 2 
6363 1 
6367 1 
6368 3 
6369 1 
6421 1 
6422 2 
6423 1 
6424 1 
6425 2 
6426 1 
6544 1 
6545 3 
6546 1 
6550 1 
6551 3 
6552 1 
7270 1 
7271 2 
7272 1 
7321 1 
7322 3 
7323 1 
7327 1 
7328 2 
7329 1 
7330 1 
7331 3 
7332 1 
7390 1 
7391 2 
7392 1 
7450 1 
7451 2 
7452 1 
7561 1 
7562 2 
7563 1 
7564 1 
7565 2 
7566 1 
7570 1 
7571 3 
7572 1 
7630 1 
7631 2 
7632 1 
7687 1 
7688 3 
7689 1 
7690 1 
7691 3 
7692 1 
8344 1 
8345 3 
8346 1 
8350 1 
8351 3 
8352 1 
8407 1 
8408 2 
8409 1 
8410 1 
8411 3 
8412 1 
8524 1 
8525 2 
8526 1 
8581 1 
8582 2 
8583 1 
8641 1 
8642 2 
8643 1 
8767 1 
8768 2 
8769 1 
8827 1 
8828 2 
8829 1 
9370 1 
9371 3 
9372 1 
9481 1 
9482 3 
9483 1 
9487 1 
9488 3 
9489 1 
9544 1 
9545 2 
9546 1 
9547 1 
9548 3 
9549 1 
9550 1 
9551 3 
9552 1 
9604 1 
9605 2 
9606 1 
9610 1 
9611 2 
9612 1 
9727 1 
9728 3 
9729 1 
9781 1 
9782 2 
9783 1 
9790 1 
9791 3 
9792 1 
9844 1 
9845 2 
9846 1 
9901 1 
9902 2 
9903 1 
9907 1 
9908 3 
9909 1 
9910 1 
9911 2 
9912 1 
10627 1 
10628 3 
10629 1 
10681 1 
10682 3 
10683 1 
10690 1 
10691 3 
10692 1 
10741 1 
10742 3 
10743 1 
10747 1 
10748 2 
10749 1 
10807 1 
10808 2 
10809 1 
10870 1 
10871 3 
10872 1 
10927 1 
10928 3 
10929 1 
10987 1 
10988 2 
10989 1 
10990 1 
10991 3 
10992 1 
562 1 
563 3 
564 1 
616 1 
617 3 
618 1 
682 1 
683 2 
684 1 
733 1 
734 2 
735 1 
736 1 
737 2 
738 1 
796 1 
797 3 
798 1 
859 1 
860 2 
861 1 
976 1 
977 2 
978 1 
982 1 
983 3 
984 1 
1033 1 
1034 2 
1035 1 
1036 1 
1037 2 
1038 1 
1039 1 
1040 2 
1041 1 
1042 1 
1043 3 
1044 1 
1093 1 
1094 2 
1095 1 
1096 1 
1097 2 
1098 1 
1753 1 
1754 2 
1755 1 
1759 1 
1760 3 
1761 1 
1762 1 
1763 2 
1764 1 
1882 1 
1883 3 
1884 1 
1939 1 
1940 2 
1941 1 
1993 1 
1994 3 
1995 1 
1996 1 
1997 3 
1998 1 
2002 1 
2003 2 
2004 1 
2053 1 
2054 3 
2055 1 
2062 1 
2063 2 
2064 1 
2176 1 
2177 3 
2178 1 
2179 1 
2180 3 
2181 1 
2773 1 
2774 3 
2775 1 
2782 1 
2783 3 
2784 1 
2896 1 
2897 2 
2898 1 
2902 1 
2903 3 
2904 1 
2959 1 
2960 3 
2961 1 
2962 1 
2963 3 
2964 1 
3013 1 
3014 2 
3015 1 
3076 1 
3077 2 
3078 1 
3133 1 
3134 2 
3135 1 
3136 1 
3137 3 
3138 1 
3793 1 
3794 2 
3795 1 
3796 1 
3797 3 
3798 1 
3799 1 
3800 3 
3801 1 
3853 1 
3854 2 
3855 1 
3862 1 
3863 3 
3864 1 
3913 1 
3914 3 
3915 1 
3919 1 
3920 3 
3921 1 
4042 1 
4043 3 
4044 1 
4096 1 
4097 2 
4098 1 
4102 1 
4103 2 
4104 1 
4153 1 
4154 3 
4155 1 
4159 1 
4160 2 
4161 1 
4162 1 
4163 2 
4164 1 
4222 1 
4223 2 
4224 1 
4276 1 
4277 3 
4278 1 
4282 1 
4283 3 
4284 1 
4939 1 
4940 2 
4941 1 
4993 1 
4994 3 
4995 1 
5056 1 
5057 3 
5058 1 
5113 1 
5114 3 
5115 1 
5119 1 
5120 2 
5121 1 
5182 1 
5183 3 
5184 1 
5236 1 
5237 2 
5238 1 
5239 1 
5240 3 
5241 1 
5302 1 
5303 3 
5304 1 
5362 1 
5363 2 
5364 1 
5413 1 
5414 3 
5415 1 
5422 1 
5423 2 
5424 1 
6199 1 
6200 3 
6201 1 
6202 1 
6203 2 
6204 1 
6256 1 
6257 2 
6258 1 
6259 1 
6260 2 
6261 1 
6262 1 
6263 3 
6264 1 
6316 1 
6317 2 
6318 1 
6376 1 
6377 2 
6378 1 
6379 1 
6380 3 
6381 1 
6382 1 
6383 2 
6384 1 
6439 1 
6440 2 
6441 1 
6442 1 
6443 2 
6444 1 
6496 1 
6497 2 
6498 1 
6616 1 
6617 2 
6618 1 
6622 1 
6623 3 
6624 1 
7273 1 
7274 3 
7275 1 
7282 1 
7283 2 
7284 1 
7336 1 
7337 3 
7338 1 
7393 1 
7394 2 
7395 1 
7453 1 
7454 3 
7455 1 
7513 1 
7514 2 
7515 1 
7516 1 
7517 2 
7518 1 
7522 1 
7523 3 
7524 1 
7573 1 
7574 2 
7575 1 
7636 1 
7637 3 
7638 1 
7642 1 
7643 2 
7644 1 
8353 1 
8354 3 
8355 1 
8362 1 
8363 2 
8364 1 
8542 1 
8543 3 
8544 1 
8593 1 
8594 2 
8595 1 
8596 1 
8597 2 
8598 1 
8839 1 
8840 3 
8841 1 
9373 1 
9374 3 
9375 1 
9382 1 
9383 2 
9384 1 
9433 1 
9434 2 
9435 1 
9442 1 
9443 3 
9444 1 
9499 1 
9500 2 
9501 1 
9502 1 
9503 2 
9504 1 
9619 1 
9620 2 
9621 1 
9673 1 
9674 3 
9675 1 
9733 1 
9734 2 
9735 1 
9736 1 
9737 3 
9738 1 
9853 1 
9854 2 
9855 1 
10696 1 
10697 3 
10698 1 
10699 1 
10700 3 
10701 1 
10753 1 
10754 2 
10755 1 
10762 1 
10763 2 
10764 1 
10816 1 
10817 2 
10818 1 
10822 1 
10823 3 
10824 1 
10879 1 
10880 2 
10881 1 
10942 1 
10943 2 
10944 1 
10993 1 
10994 3 
10995 1 
11002 1 
11003 3 
11004 1 
11053 1 
11054 2 
11055 1 
11059 1 
11060 2 
11061 1 
628 1 
629 3 
630 1 
691 1 
692 3 
693 1 
805 1 
806 2 
807 1 
811 1 
812 2 
813 1 
865 1 
866 2 
867 1 
988 1 
989 2 
990 1 
1048 1 
1049 3 
1050 1 
1105 1 
1106 3 
1107 1 
1108 1 
1109 2 
1110 1 
1711 1 
1712 3 
1713 1 
1714 1 
1715 3 
1716 1 
1828 1 
1829 2 
1830 1 
1834 1 
1835 3 
1836 1 
1885 1 
1886 2 
1887 1 
1945 1 
1946 3 
1947 1 
2128 1 
2129 3 
2130 1 
2134 1 
2135 3 
2136 1 
2668 1 
2669 2 
2670 1 
2785 1 
2786 2 
2787 1 
2848 1 
2849 3 
2850 1 
2851 1 
2852 3 
2853 1 
2905 1 
2906 3 
2907 1 
2908 1 
2909 2 
2910 1 
2914 1 
2915 2 
2916 1 
3145 1 
3146 3 
3147 1 
3148 1 
3149 2 
3150 1 
3151 1 
3152 2 
3153 1 
3814 1 
3815 2 
3816 1 
3871 1 
3872 2 
3873 1 
3994 1 
3995 3 
3996 1 
4048 1 
4049 2 
4050 1 
4051 1 
4052 2 
4053 1 
4105 1 
4106 3 
4107 1 
4111 1 
4112 2 
4113 1 
4168 1 
4169 2 
4170 1 
4171 1 
4172 3 
4173 1 
4285 1 
4286 3 
4287 1 
4945 1 
4946 3 
4947 1 
4948 1 
4949 3 
4950 1 
4951 1 
4952 3 
4953 1 
4954 1 
4955 3 
4956 1 
5008 1 
5009 3 
5010 1 
5011 1 
5012 3 
5013 1 
5014 1 
5015 3 
5016 1 
5125 1 
5126 3 
5127 1 
5185 1 
5186 3 
5187 1 
5188 1 
5189 2 
5190 1 
5305 1 
5306 2 
5307 1 
5365 1 
5366 3 
5367 1 
5374 1 
5375 2 
5376 1 
5425 1 
5426 3 
5427 1 
6148 1 
6149 3 
6150 1 
6151 1 
6152 3 
6153 1 
6205 1 
6206 2 
6207 1 
6211 1 
6212 2 
6213 1 
6325 1 
6326 3 
6327 1 
6391 1 
6392 3 
6393 1 
6514 1 
6515 2 
6516 1 
6625 1 
6626 2 
6627 1 
6634 1 
6635 2 
6636 1 
7288 1 
7289 3 
7290 1 
7348 1 
7349 3 
7350 1 
7405 1 
7406 2 
7407 1 
7411 1 
7412 2 
7413 1 
7471 1 
7472 2 
7473 1 
7531 1 
7532 3 
7533 1 
7534 1 
7535 2 
7536 1 
7588 1 
7589 2 
7590 1 
7645 1 
7646 3 
7647 1 
7651 1 
7652 2 
7653 1 
7654 1 
7655 2 
7656 1 
7708 1 
7709 2 
7710 1 
7714 1 
7715 3 
7716 1 
8365 1 
8366 2 
8367 1 
8374 1 
8375 2 
8376 1 
8425 1 
8426 2 
8427 1 
8431 1 
8432 3 
8433 1 
8608 1 
8609 2 
8610 1 
8614 1 
8615 2 
8616 1 
8668 1 
8669 3 
8670 1 
8671 1 
8672 3 
8673 1 
8791 1 
8792 3 
8793 1 
8794 1 
8795 2 
8796 1 
8848 1 
8849 2 
8850 1 
9385 1 
9386 2 
9387 1 
9388 1 
9389 2 
9390 1 
9445 1 
9446 3 
9447 1 
9505 1 
9506 2 
9507 1 
9571 1 
9572 2 
9573 1 
9574 1 
9575 3 
9576 1 
9625 1 
9626 2 
9627 1 
9631 1 
9632 3 
9633 1 
9691 1 
9692 2 
9693 1 
9745 1 
9746 2 
9747 1 
9754 1 
9755 2 
9756 1 
9808 1 
9809 3 
9810 1 
9814 1 
9815 3 
9816 1 
9868 1 
9869 2 
9870 1 
9871 1 
9872 3 
9873 1 
9874 1 
9875 3 
9876 1 
9934 1 
9935 2 
9936 1 
10594 1 
10595 2 
10596 1 
10654 1 
10655 3 
10656 1 
10705 1 
10706 2 
10707 1 
10711 1 
10712 3 
10713 1 
10714 1 
10715 3 
10716 1 
10765 1 
10766 3 
10767 1 
10774 1 
10775 2 
10776 1 
10888 1 
10889 3 
10890 1 
10951 1 
10952 2 
10953 1 
11008 1 
11009 2 
11010 1 
11014 1 
11015 2 
11016 1 
11068 1 
11069 3 
11070 1 
577 1 
578 2 
579 1 
580 1 
581 2 
582 1 
586 1 
587 2 
588 1 
646 1 
647 3 
648 1 
757 1 
758 2 
759 1 
763 1 
764 3 
765 1 
766 1 
767 2 
768 1 
823 1 
824 2 
825 1 
1060 1 
1061 2 
1062 1 
1063 1 
1064 2 
1065 1 
1066 1 
1067 3 
1068 1 
1846 1 
1847 3 
1848 1 
1960 1 
1961 3 
1962 1 
2017 1 
2018 2 
2019 1 
2023 1 
2024 2 
2025 1 
2026 1 
2027 2 
2028 1 
2086 1 
2087 2 
2088 1 
2137 1 
2138 3 
2139 1 
2146 1 
2147 2 
2148 1 
2197 1 
2198 2 
2199 1 
2800 1 
2801 3 
2802 1 
2920 1 
2921 2 
2922 1 
2923 1 
2924 2 
2925 1 
2977 1 
2978 2 
2979 1 
3040 1 
3041 3 
3042 1 
3043 1 
3044 2 
3045 1 
3097 1 
3098 2 
3099 1 
3103 1 
3104 2 
3105 1 
3160 1 
3161 2 
3162 1 
3820 1 
3821 3 
3822 1 
3823 1 
3824 3 
3825 1 
3877 1 
3878 3 
3879 1 
4060 1 
4061 2 
4062 1 
4066 1 
4067 2 
4068 1 
4183 1 
4184 3 
4185 1 
4237 1 
4238 2 
4239 1 
4240 1 
4241 3 
4242 1 
4300 1 
4301 2 
4302 1 
4303 1 
4304 3 
4305 1 
4306 1 
4307 3 
4308 1 
4960 1 
4961 2 
4962 1 
5083 1 
5084 2 
5085 1 
5323 1 
5324 3 
5325 1 
5326 1 
5327 2 
5328 1 
5377 1 
5378 2 
5379 1 
5380 1 
5381 2 
5382 1 
6097 1 
6098 3 
6099 1 
6106 1 
6107 2 
6108 1 
6157 1 
6158 3 
6159 1 
6163 1 
6164 2 
6165 1 
6217 1 
6218 3 
6219 1 
6223 1 
6224 2 
6225 1 
6277 1 
6278 2 
6279 1 
6280 1 
6281 2 
6282 1 
6283 1 
6284 3 
6285 1 
6340 1 
6341 2 
6342 1 
6346 1 
6347 3 
6348 1 
6457 1 
6458 3 
6459 1 
6460 1 
6461 2 
6462 1 
6520 1 
6521 2 
6522 1 
6523 1 
6524 3 
6525 1 
6526 1 
6527 3 
6528 1 
6637 1 
6638 3 
6639 1 
6640 1 
6641 2 
6642 1 
7303 1 
7304 3 
7305 1 
7306 1 
7307 2 
7308 1 
7360 1 
7361 2 
7362 1 
7426 1 
7427 2 
7428 1 
7477 1 
7478 3 
7479 1 
7486 1 
7487 3 
7488 1 
7537 1 
7538 2 
7539 1 
7546 1 
7547 2 
7548 1 
7597 1 
7598 3 
7599 1 
7663 1 
7664 2 
7665 1 
7666 1 
7667 2 
7668 1 
7717 1 
7718 3 
7719 1 
7723 1 
7724 2 
7725 1 
8377 1 
8378 2 
8379 1 
8380 1 
8381 3 
8382 1 
8386 1 
8387 2 
8388 1 
8497 1 
8498 2 
8499 1 
8503 1 
8504 2 
8505 1 
8506 1 
8507 2 
8508 1 
8560 1 
8561 3 
8562 1 
8563 1 
8564 2 
8565 1 
8617 1 
8618 3 
8619 1 
8626 1 
8627 3 
8628 1 
8686 1 
8687 3 
8688 1 
8743 1 
8744 2 
8745 1 
8857 1 
8858 2 
8859 1 
8866 1 
8867 3 
8868 1 
9397 1 
9398 3 
9399 1 
9457 1 
9458 2 
9459 1 
9460 1 
9461 3 
9462 1 
9517 1 
9518 3 
9519 1 
9583 1 
9584 3 
9585 1 
9586 1 
9587 2 
9588 1 
9637 1 
9638 3 
9639 1 
9640 1 
9641 2 
9642 1 
9697 1 
9698 2 
9699 1 
9703 1 
9704 3 
9705 1 
9763 1 
9764 3 
9765 1 
9826 1 
9827 2 
9828 1 
9877 1 
9878 2 
9879 1 
9886 1 
9887 3 
9888 1 
10597 1 
10598 2 
10599 1 
10666 1 
10667 2 
10668 1 
10723 1 
10724 3 
10725 1 
10786 1 
10787 2 
10788 1 
10837 1 
10838 3 
10839 1 
10846 1 
10847 2 
10848 1 
10957 1 
10958 2 
10959 1 
10960 1 
10961 3 
10962 1 
10963 1 
10964 3 
10965 1 
11080 1 
11081 2 
11082 1 
11083 1 
11084 3 
11085 1 
11086 1 
11087 2 
11088 1 
589 1 
590 3 
591 1 
595 1 
596 2 
597 1 
598 1 
599 3 
600 1 
649 1 
650 3 
651 1 
652 1 
653 2 
654 1 
718 1 
719 2 
720 1 
778 1 
779 3 
780 1 
835 1 
836 2 
837 1 
889 1 
890 2 
891 1 
895 1 
896 3 
897 1 
958 1 
959 3 
960 1 
1009 1 
1010 2 
1011 1 
1015 1 
1016 2 
1017 1 
1072 1 
1073 2 
1074 1 
1078 1 
1079 3 
1080 1 
1735 1 
1736 3 
1737 1 
1798 1 
1799 3 
1800 1 
1849 1 
1850 3 
1851 1 
1855 1 
1856 2 
1857 1 
1858 1 
1859 3 
1860 1 
1909 1 
1910 3 
1911 1 
1915 1 
1916 2 
1917 1 
2035 1 
2036 3 
2037 1 
2092 1 
2093 2 
2094 1 
2095 1 
2096 3 
2097 1 
2098 1 
2099 2 
2100 1 
2152 1 
2153 3 
2154 1 
2218 1 
2219 2 
2220 1 
2755 1 
2756 3 
2757 1 
2758 1 
2759 3 
2760 1 
2818 1 
2819 2 
2820 1 
2869 1 
2870 2 
2871 1 
2872 1 
2873 2 
2874 1 
2938 1 
2939 2 
2940 1 
2995 1 
2996 2 
2997 1 
3109 1 
3110 3 
3111 1 
3118 1 
3119 3 
3120 1 
3172 1 
3173 3 
3174 1 
3178 1 
3179 2 
3180 1 
3835 1 
3836 3 
3837 1 
3958 1 
3959 2 
3960 1 
4012 1 
4013 3 
4014 1 
4015 1 
4016 2 
4017 1 
4129 1 
4130 2 
4131 1 
4252 1 
4253 2 
4254 1 
4972 1 
4973 2 
4974 1 
5095 1 
5096 3 
5097 1 
5098 1 
5099 3 
5100 1 
5158 1 
5159 3 
5160 1 
5209 1 
5210 2 
5211 1 
5389 1 
5390 3 
5391 1 
5398 1 
5399 2 
5400 1 
6109 1 
6110 3 
6111 1 
6112 1 
6113 2 
6114 1 
6169 1 
6170 2 
6171 1 
6229 1 
6230 2 
6231 1 
6235 1 
6236 2 
6237 1 
6238 1 
6239 3 
6240 1 
6289 1 
6290 2 
6291 1 
6292 1 
6293 2 
6294 1 
6298 1 
6299 3 
6300 1 
6349 1 
6350 3 
6351 1 
6358 1 
6359 2 
6360 1 
6469 1 
6470 2 
6471 1 
6535 1 
6536 2 
6537 1 
6595 1 
6596 2 
6597 1 
6658 1 
6659 3 
6660 1 
7318 1 
7319 3 
7320 1 
7369 1 
7370 3 
7371 1 
7378 1 
7379 2 
7380 1 
7429 1 
7430 3 
7431 1 
7432 1 
7433 2 
7434 1 
7435 1 
7436 3 
7437 1 
7438 1 
7439 2 
7440 1 
7495 1 
7496 3 
7497 1 
7498 1 
7499 2 
7500 1 
7618 1 
7619 3 
7620 1 
8395 1 
8396 2 
8397 1 
8398 1 
8399 2 
8400 1 
8449 1 
8450 3 
8451 1 
8458 1 
8459 3 
8460 1 
8518 1 
8519 2 
8520 1 
8578 1 
8579 2 
8580 1 
8629 1 
8630 3 
8631 1 
8632 1 
8633 3 
8634 1 
8689 1 
8690 2 
8691 1 
8749 1 
8750 3 
8751 1 
8758 1 
8759 2 
8760 1 
8815 1 
8816 2 
8817 1 
8818 1 
8819 3 
8820 1 
8869 1 
8870 2 
8871 1 
8875 1 
8876 2 
8877 1 
9475 1 
9476 3 
9477 1 
9529 1 
9530 2 
9531 1 
9538 1 
9539 2 
9540 1 
9592 1 
9593 2 
9594 1 
9652 1 
9653 2 
9654 1 
9655 1 
9656 3 
9657 1 
9715 1 
9716 3 
9717 1 
9778 1 
9779 2 
9780 1 
9829 1 
9830 3 
9831 1 
9892 1 
9893 2 
9894 1 
9958 1 
9959 3 
9960 1 
10618 1 
10619 2 
10620 1 
10735 1 
10736 2 
10737 1 
10915 1 
10916 2 
10917 1 
11098 1 
11099 3 
11100 1 
11164 1 
11165 3 
11166 1 
11221 1 
11222 3 
11223 1 
11224 1 
11225 2 
11226 1 
11281 1 
11282 2 
11283 1 
11284 1 
11285 3 
11286 1 
11290 1 
11291 2 
11292 1 
11344 1 
11345 2 
11346 1 
11347 1 
11348 3 
11349 1 
11407 1 
11408 3 
11409 1 
11410 1 
11411 3 
11412 1 
11464 1 
11465 2 
11466 1 
12064 1 
12065 2 
12066 1 
12124 1 
12125 2 
12126 1 
12127 1 
12128 3 
12129 1 
12184 1 
12185 2 
12186 1 
12241 1 
12242 2 
12243 1 
12244 1 
12245 2 
12246 1 
12307 1 
12308 2 
12309 1 
12364 1 
12365 3 
12366 1 
12370 1 
12371 3 
12372 1 
12424 1 
12425 3 
12426 1 
12427 1 
12428 3 
12429 1 
12481 1 
12482 3 
12483 1 
12541 1 
12542 3 
12543 1 
12547 1 
12548 3 
12549 1 
12601 1 
12602 2 
12603 1 
13150 1 
13151 3 
13152 1 
13204 1 
13205 3 
13206 1 
13210 1 
13211 2 
13212 1 
13270 1 
13271 2 
13272 1 
13327 1 
13328 2 
13329 1 
13390 1 
13391 2 
13392 1 
13441 1 
13442 3 
13443 1 
13447 1 
13448 2 
13449 1 
13561 1 
13562 3 
13563 1 
14224 1 
14225 3 
14226 1 
14287 1 
14288 3 
14289 1 
14290 1 
14291 3 
14292 1 
14404 1 
14405 3 
14406 1 
14467 1 
14468 2 
14469 1 
14521 1 
14522 2 
14523 1 
14584 1 
14585 2 
14586 1 
14587 1 
14588 2 
14589 1 
14647 1 
14648 2 
14649 1 
14650 1 
14651 2 
14652 1 
15301 1 
15302 3 
15303 1 
15421 1 
15422 3 
15423 1 
15430 1 
15431 3 
15432 1 
15484 1 
15485 2 
15486 1 
15490 1 
15491 3 
15492 1 
15610 1 
15611 2 
15612 1 
15664 1 
15665 2 
15666 1 
15721 1 
15722 2 
15723 1 
15724 1 
15725 3 
15726 1 
15727 1 
15728 2 
15729 1 
15730 1 
15731 2 
15732 1 
16321 1 
16322 3 
16323 1 
16330 1 
16331 2 
16332 1 
16384 1 
16385 3 
16386 1 
16387 1 
16388 2 
16389 1 
16450 1 
16451 2 
16452 1 
16501 1 
16502 3 
16503 1 
16504 1 
16505 2 
16506 1 