ITEM: TIMESTEP
35000000
ITEM: NUMBER OF ATOMS
7056
ITEM: BOX BOUNDS pp pp pp
0.0000000000000000e+00 5.0000000000000000e+01
0.0000000000000000e+00 5.0000000000000000e+01
0.0000000000000000e+00 5.0000000000000000e+01
ITEM: ATOMS id type xs ys zs
7875 1 0.12084 0.014098 0.0205753
7873 1 0.10936 0.00651479 0.0115234
7874 2 0.116226 0.0101163 0.0150901
8251 1 0.122379 0.0159184 0.0224105
8252 3 0.125478 0.0201961 0.0275186
16152 1 0.174557 0.00748234 0.008356
16151 2 0.180831 0.00271224 0.0101205
13714 1 0.0110983 0.0400521 0.00495497
13715 2 0.00381483 0.0383699 0.00505974
10234 1 0.0760456 0.0706229 0.0183437
10235 3 0.077109 0.0695338 0.0260745
5650 1 0.284108 0.0778614 0.0284647
5652 1 0.276847 0.0637023 0.023641
5651 3 0.280297 0.0709447 0.026018
16241 2 0.108916 0.100206 0.0115616
16242 1 0.104563 0.0959977 0.00531582
16240 1 0.112014 0.101978 0.0193554
8668 1 0.113175 0.102666 0.0217511
8669 3 0.116265 0.105743 0.0289252
9443 3 0.273047 0.101221 0.0203354
9444 1 0.272348 0.098443 0.0274586
15490 1 0.272349 0.0972985 0.0298884
12826 1 0.29548 0.118242 0.0178442
12827 3 0.289087 0.121573 0.011892
12828 1 0.284057 0.12382 0.00578341
9442 1 0.27472 0.105706 0.0146458
18058 1 0.0210137 0.125157 0.0255953
18059 2 0.024847 0.130765 0.023553
9869 2 0.0388387 0.143932 0.0200827
9868 1 0.0454899 0.14788 0.0196045
18060 1 0.0310999 0.136905 0.0216357
9870 1 0.0332118 0.138487 0.0208738
19163 3 0.267113 0.180225 0.027789
19164 1 0.259693 0.180866 0.0263083
19162 1 0.275297 0.177826 0.0277296
1110 1 0.0302268 0.393619 0.0153582
1108 1 0.0459531 0.394465 0.0188615
1109 2 0.0383354 0.394425 0.0167892
1594 1 0.129789 0.524952 0.00741429
1595 2 0.133156 0.525436 0.0149035
1596 1 0.137918 0.525856 0.0211937
10495 1 0.12595 0.565091 0.00964294
10496 2 0.128326 0.566502 0.0164109
10497 1 0.131851 0.566994 0.0245067
727 1 0.132823 0.567277 0.0269445
7319 3 0.10568 0.70495 0.0290596
7320 1 0.102133 0.712117 0.027663
13258 1 0.0654211 0.741713 0.00592051
7395 1 0.097874 0.73657 0.0115597
7394 2 0.10232 0.732216 0.00585879
6149 3 0.0935493 0.744287 0.0194663
6150 1 0.0967164 0.738527 0.0140396
7393 1 0.105284 0.726637 0.000703072
6148 1 0.0893133 0.749296 0.0243521
13259 3 0.0620495 0.745981 0.000195379
17649 1 0.139925 0.757111 0.0127469
17648 2 0.134267 0.756062 0.0172135
9370 1 0.12657 0.754526 0.0263336
17647 1 0.12926 0.754792 0.0236685
17182 1 0.151066 0.749177 0.0108482
17183 2 0.157478 0.750899 0.0055281
14667 1 0.303737 0.787114 0.000989768
8253 1 0.128044 0.025719 0.031359
15558 1 0.107289 0.0481812 0.0603469
15556 1 0.0963767 0.0403894 0.049519
15557 3 0.101381 0.0456561 0.0545936
20213 3 0.0878685 0.0662923 0.0405124
20212 1 0.0832458 0.0677114 0.0351862
10236 1 0.0817041 0.0682071 0.0332289
20214 1 0.0917293 0.068016 0.0486377
15492 1 0.271822 0.0905801 0.0447971
11483 3 0.00840294 0.108281 0.058888
11482 1 0.00841741 0.105274 0.0512192
8670 1 0.122198 0.110406 0.0339357
15491 3 0.272199 0.0936478 0.036994
17148 1 0.0869707 0.149329 0.0412896
17146 1 0.077838 0.14672 0.0535229
17147 2 0.0828689 0.149769 0.0482632
20004 1 0.264933 0.181343 0.0586316
8829 1 0.172942 0.216902 0.0536921
11338 1 0.261736 0.214114 0.0485933
11340 1 0.260752 0.199013 0.0528057
11339 3 0.261973 0.207134 0.0502776
20002 1 0.260612 0.196036 0.0544278
20003 2 0.262114 0.189323 0.056502
2914 1 0.00605618 0.237127 0.0443294
2915 2 0.000766865 0.237799 0.0506255
8828 2 0.173543 0.223484 0.0474557
8827 1 0.17561 0.229424 0.0423012
8239 1 0.168469 0.266918 0.0608695
9189 1 0.0562287 0.337179 0.0615162
9188 2 0.0627797 0.340818 0.0606607
19957 1 0.27173 0.326351 0.0390118
19958 3 0.265583 0.323271 0.0399211
19959 1 0.258203 0.320739 0.0395894
14852 2 0.282532 0.32826 0.0374568
14851 1 0.274452 0.326933 0.0389693
14853 1 0.29043 0.331236 0.0357843
3964 1 0.073213 0.344074 0.0616082
9187 1 0.0702609 0.342969 0.0609975
3965 3 0.0805193 0.347097 0.062244
3966 1 0.0880137 0.34894 0.0619557
1197 1 0.0917053 0.349504 0.0614805
1195 1 0.10852 0.353055 0.0586297
1196 3 0.0998449 0.351103 0.060357
5632 1 0.260222 0.48532 0.0584738
3241 1 0.0804201 0.586004 0.056237
728 3 0.13407 0.570334 0.0351159
729 1 0.137529 0.574085 0.042671
13200 1 0.1391 0.575978 0.0451876
13199 2 0.142143 0.579258 0.0512923
13198 1 0.147969 0.583942 0.0564708
3242 2 0.0770755 0.590708 0.0620821
20378 3 0.113596 0.616624 0.0474902
20377 1 0.110926 0.609486 0.0466937
20379 1 0.115695 0.623918 0.0513029
8634 1 0.116024 0.626726 0.0525553
8633 3 0.117009 0.634225 0.0550289
8632 1 0.116659 0.639936 0.0607449
18732 1 0.147086 0.651346 0.0380097
18731 2 0.144697 0.658209 0.0402055
18730 1 0.139681 0.664072 0.0435145
7318 1 0.106586 0.697833 0.0321085
6544 1 0.24243 0.716527 0.0341368
6545 3 0.242387 0.721515 0.0410649
6546 1 0.244195 0.725456 0.0475518
18525 1 0.275392 0.73624 0.0480613
18524 3 0.277973 0.740939 0.0540103
9371 3 0.120344 0.755198 0.0318644
9372 1 0.116352 0.753699 0.0387422
1060 1 0.115133 0.753657 0.0417125
1061 2 0.112073 0.75431 0.0494527
1062 1 0.109383 0.754299 0.0572039
11055 1 0.251668 0.757484 0.0347315
11053 1 0.268294 0.752282 0.0335944
11054 2 0.259424 0.755191 0.0343565
18523 1 0.281776 0.745521 0.0593202
4456 1 0.0981431 0.836653 0.0528338
4457 2 0.100417 0.839348 0.0464641
4458 1 0.102671 0.842764 0.0402633
16397 2 0.0154741 0.0332009 0.0901874
16396 1 0.0201398 0.0328425 0.0835201
11484 1 0.00905401 0.110848 0.0672492
18809 2 0.0781226 0.158063 0.0814049
18808 1 0.0747271 0.158098 0.0889808
18810 1 0.0801762 0.157963 0.0731356
12588 1 0.0813013 0.210686 0.0934212
2802 1 0.0640989 0.217257 0.0931649
12586 1 0.0667976 0.216024 0.0932849
12587 2 0.0741953 0.212827 0.0935759
18135 1 0.139606 0.211618 0.0867973
18134 2 0.140927 0.208564 0.079639
18133 1 0.139354 0.206501 0.0715073
17873 2 0.182719 0.191149 0.092633
17874 1 0.190956 0.189811 0.0890261
2801 3 0.0565332 0.219926 0.0937628
8240 2 0.174506 0.264407 0.0664257
8241 1 0.180559 0.263666 0.0711579
13908 1 0.182969 0.263153 0.0727726
13907 2 0.189179 0.261297 0.0780941
13906 1 0.195119 0.258555 0.0825697
6496 1 0.299747 0.259905 0.0890445
16049 2 0.12789 0.380139 0.0823362
2902 1 0.130195 0.385776 0.0907188
16050 1 0.129204 0.384235 0.0883484
16048 1 0.12743 0.375738 0.0760448
5634 1 0.251639 0.483544 0.0713659
5633 3 0.256092 0.482596 0.0639326
3879 1 0.171307 0.549188 0.0846173
3878 3 0.169716 0.551199 0.0918128
109 1 0.242236 0.535894 0.0823344
110 3 0.242152 0.539927 0.0750363
111 1 0.243446 0.543846 0.0684275
19263 1 0.00558887 0.567213 0.0868122
9172 1 0.240411 0.584054 0.0799101
9173 3 0.238634 0.583286 0.0874822
3243 1 0.0741901 0.59752 0.0652029
17423 3 0.240248 0.713139 0.0934395
8344 1 0.248636 0.697688 0.0929853
17422 1 0.24505 0.716961 0.0902668
12728 3 0.131236 0.774948 0.0875847
12729 1 0.129433 0.768419 0.0833598
3920 3 0.215657 0.772523 0.0825577
3919 1 0.215361 0.766521 0.078028
12727 1 0.131805 0.782526 0.0925916
3921 1 0.214764 0.779477 0.0853091
16398 1 0.012303 0.0314893 0.0967363
11068 1 0.0983991 0.0474877 0.100663
11069 3 0.104007 0.0511562 0.106147
11070 1 0.109947 0.0525136 0.10977
3399 1 0.299917 0.100634 0.10388
10012 1 0.142153 0.181099 0.104668
10013 3 0.148059 0.186081 0.103995
14891 2 0.230386 0.179106 0.12446
14890 1 0.234135 0.172128 0.121517
1929 1 0.0310964 0.215665 0.0960608
10014 1 0.155871 0.18853 0.103941
10413 1 0.158404 0.189568 0.10343
17872 1 0.175288 0.191491 0.0960405
10412 2 0.165009 0.191032 0.101009
10411 1 0.172836 0.191191 0.0970596
1928 2 0.0380665 0.21858 0.0955271
1927 1 0.0466904 0.220959 0.0956856
2800 1 0.0497029 0.221393 0.0950656
14160 1 0.0711085 0.263661 0.103265
14159 2 0.0786315 0.263815 0.102123
14158 1 0.0862536 0.263028 0.10056
7273 1 0.16216 0.333073 0.121054
10376 2 0.108991 0.369475 0.111345
10377 1 0.115072 0.364796 0.112382
10375 1 0.103918 0.375509 0.111253
1182 1 0.137975 0.39963 0.102705
2904 1 0.136554 0.397446 0.101388
2903 3 0.133225 0.391274 0.0963392
1180 1 0.144643 0.413238 0.108237
1181 2 0.141014 0.406838 0.106223
14687 3 0.00362476 0.494103 0.125173
14688 1 0.000549302 0.49845 0.11981
2775 1 0.122514 0.502119 0.11073
2773 1 0.136442 0.5076 0.116036
2774 3 0.128956 0.505074 0.114656
3877 1 0.16977 0.553097 0.100068
17596 1 0.0972599 0.583466 0.119561
9174 1 0.236076 0.585302 0.0949813
5526 1 0.245534 0.578664 0.114418
5524 1 0.256626 0.578282 0.102272
5525 3 0.251683 0.578353 0.109174
17597 2 0.096046 0.590891 0.11955
17598 1 0.0963606 0.599072 0.118754
14070 1 0.078955 0.646927 0.0958588
14068 1 0.069843 0.660351 0.0971686
14069 2 0.0752726 0.653934 0.0962848
16577 2 0.264589 0.658317 0.115653
16578 1 0.266405 0.658429 0.10748
16576 1 0.26088 0.658136 0.123191
866 2 0.211932 0.696252 0.124383
17424 1 0.235205 0.708951 0.0978297
867 1 0.21654 0.69423 0.116483
1246 1 0.218045 0.693301 0.114077
1247 2 0.220779 0.689762 0.1082
1248 1 0.224785 0.686827 0.101614
8345 3 0.247604 0.691192 0.0962224
8346 1 0.248685 0.683562 0.0996713
16790 2 0.0876077 0.00310713 0.151319
10917 1 0.0774308 0.000230495 0.148887
16791 1 0.080275 0.000875366 0.149928
1200 1 0.098522 0.00382736 0.155268
16789 1 0.0951866 0.00456326 0.153946
13946 3 0.248126 0.0417325 0.155669
13945 1 0.246409 0.0348728 0.151653
12974 3 0.284842 0.0683198 0.133472
12975 1 0.289928 0.0656528 0.137159
12973 1 0.278944 0.0700396 0.127904
14892 1 0.231111 0.185533 0.128466
4490 3 0.231453 0.196486 0.133454
4489 1 0.229477 0.20335 0.134597
4491 1 0.231583 0.188613 0.129993
3588 1 0.197261 0.2497 0.152844
5844 1 0.285247 0.287622 0.15654
15568 1 0.282524 0.285677 0.155998
15569 3 0.275882 0.280209 0.156448
7274 3 0.165036 0.336953 0.127922
7275 1 0.168165 0.339018 0.133945
19986 1 0.0203717 0.46506 0.156386
19984 1 0.0154341 0.475252 0.145253
19985 3 0.018407 0.470802 0.150718
4765 1 0.0142072 0.477306 0.143258
4767 1 0.00784231 0.487792 0.133738
4766 3 0.0118437 0.483012 0.138688
14686 1 0.00638887 0.489413 0.131326
1538 3 0.266198 0.581286 0.127857
1539 1 0.273135 0.586606 0.12726
1537 1 0.260003 0.576734 0.128592
6384 1 0.0134687 0.613896 0.138621
17553 1 0.014188 0.616253 0.137259
6382 1 0.00836697 0.601372 0.147754
6383 2 0.011345 0.60751 0.142917
11377 1 0.120468 0.617279 0.151998
1066 1 0.142013 0.603014 0.156378
17551 1 0.0188489 0.629528 0.127919
17552 3 0.0161528 0.62263 0.132205
19943 2 0.253792 0.65187 0.133669
19944 1 0.261493 0.650232 0.13065
19942 1 0.247299 0.651999 0.138274
865 1 0.207841 0.698069 0.13191
19546 1 0.127355 0.744839 0.140029
19547 3 0.125978 0.741011 0.147656
20758 1 0.122406 0.736428 0.156072
19548 1 0.12295 0.737242 0.154122
21289 1 0.112928 0.794829 0.139415
21290 2 0.11757 0.790741 0.144297
15206 2 0.129118 0.783045 0.156044
15207 1 0.123802 0.785445 0.151068
21291 1 0.121707 0.787005 0.149098
19100 2 0.117406 0.865914 0.155598
19099 1 0.117112 0.857357 0.154268
8173 1 0.131266 0.856335 0.152561
1199 2 0.105715 0.0019011 0.158985
1198 1 0.111263 0.00119793 0.162986
2605 1 0.144587 0.0173575 0.157351
2606 2 0.13896 0.0176222 0.163196
2607 1 0.134097 0.0172285 0.168735
11399 2 0.19762 0.0252113 0.166669
11398 1 0.203902 0.0290888 0.170267
19823 2 0.208799 0.0138139 0.186704
11400 1 0.193257 0.0195987 0.162413
19822 1 0.214133 0.00899398 0.182001
13947 1 0.251898 0.0483485 0.159651
7724 2 0.0268965 0.107478 0.173996
7725 1 0.0194651 0.107186 0.175823
15514 1 0.0606262 0.11341 0.176847
15516 1 0.059203 0.0990663 0.17152
7723 1 0.034786 0.107138 0.172872
15515 3 0.0608732 0.106223 0.173789
3580 1 0.0554934 0.138336 0.172909
3581 2 0.0566839 0.131609 0.16803
3582 1 0.0566468 0.126217 0.162473
12496 1 0.12229 0.214144 0.18793
18382 1 0.205572 0.205046 0.18242
18383 2 0.201767 0.208471 0.175902
18384 1 0.197127 0.21235 0.170652
12497 3 0.127295 0.220252 0.184887
20735 3 0.130972 0.237458 0.177821
20734 1 0.130622 0.230035 0.180688
12498 1 0.129894 0.227471 0.181759
20736 1 0.132824 0.244974 0.174156
3587 3 0.199945 0.247046 0.159483
3586 1 0.20424 0.243157 0.164432
17719 1 0.206124 0.241741 0.166377
17720 2 0.21175 0.238451 0.171179
17721 1 0.214801 0.234567 0.175433
15570 1 0.269684 0.274681 0.158089
5843 3 0.290473 0.294128 0.158029
5842 1 0.295978 0.300477 0.159854
2387 3 0.00768214 0.413115 0.170663
2386 1 0.0131879 0.415068 0.164589
2388 1 0.00167101 0.411463 0.177185
97 1 0.0219238 0.447203 0.163752
98 3 0.0214195 0.454878 0.161518
99 1 0.021203 0.462607 0.158412
8929 1 0.185297 0.451067 0.183312
11388 1 0.283311 0.4399 0.186959
11386 1 0.29207 0.451103 0.177986
11387 3 0.288178 0.44598 0.183598
10349 3 0.0677727 0.477334 0.179744
10348 1 0.0701604 0.482364 0.185135
10350 1 0.0665976 0.47131 0.174929
14625 1 0.233407 0.52398 0.178492
14624 2 0.231786 0.520719 0.171568
14623 1 0.227112 0.515507 0.166446
10667 2 0.131424 0.551692 0.175422
10666 1 0.134848 0.552195 0.168138
10668 1 0.128856 0.553516 0.183367
19388 2 0.117661 0.58936 0.164854
8744 2 0.10088 0.58311 0.169366
8745 1 0.107659 0.585219 0.167013
19389 1 0.110291 0.586339 0.166302
8743 1 0.0944756 0.57898 0.173053
4522 1 0.163844 0.588612 0.175065
4523 3 0.164078 0.581473 0.179001
4524 1 0.161677 0.574293 0.183207
1068 1 0.127475 0.592949 0.161643
19387 1 0.124861 0.591494 0.163132
1067 3 0.135399 0.598292 0.158363
12129 1 0.159224 0.603362 0.164505
12127 1 0.163724 0.591237 0.173787
12128 3 0.162598 0.598098 0.169712
1735 1 0.044063 0.64041 0.181333
1736 3 0.0496937 0.640546 0.187682
11379 1 0.113304 0.624005 0.163952
11378 3 0.11751 0.621345 0.157065
20759 2 0.120488 0.734686 0.163857
20760 1 0.118361 0.732948 0.171077
14953 1 0.117733 0.732395 0.174424
14954 2 0.117514 0.73108 0.182094
2995 1 0.142592 0.732642 0.164959
2996 2 0.149004 0.737336 0.166463
2997 1 0.154203 0.742585 0.171211
15205 1 0.133287 0.778459 0.161363
3041 3 0.132463 0.835092 0.185565
11449 1 0.0341952 0.85911 0.167402
11451 1 0.0470947 0.856504 0.176799
11450 3 0.0405149 0.858485 0.172529
8174 2 0.132391 0.850531 0.157399
8175 1 0.135644 0.843909 0.161948
3042 1 0.135454 0.838163 0.179551
5830 1 0.186781 0.853045 0.183984
5831 3 0.193025 0.85829 0.18412
5832 1 0.199432 0.862905 0.187238
11762 2 0.112887 0.0157734 0.205081
11763 1 0.115083 0.0106008 0.210333
11761 1 0.112482 0.0208874 0.198293
19824 1 0.203905 0.0186383 0.191252
564 1 0.235313 0.117036 0.199888
563 3 0.234022 0.109917 0.203803
562 1 0.233488 0.103595 0.209495
15395 3 0.233982 0.0952687 0.217069
15394 1 0.23332 0.101605 0.211722
7868 2 0.0516403 0.275373 0.213025
7869 1 0.0464801 0.278562 0.208263
166 1 0.0608191 0.271364 0.217253
7867 1 0.0581291 0.272251 0.21637
12283 1 0.101444 0.306882 0.208093
11448 1 0.199936 0.304526 0.197869
12284 3 0.106082 0.311674 0.213226
1038 1 0.181236 0.331275 0.20886
1037 2 0.176361 0.337221 0.21255
19479 1 0.182613 0.329598 0.207817
11447 3 0.195028 0.310848 0.196778
19477 1 0.189111 0.318945 0.199316
19478 2 0.184767 0.324825 0.202789
11446 1 0.190491 0.316753 0.198206
16168 1 0.241761 0.328301 0.196817
16169 3 0.24949 0.328099 0.198941
16170 1 0.257191 0.32922 0.200118
1036 1 0.170813 0.341585 0.216731
20271 1 0.168489 0.343089 0.217729
10765 1 0.222091 0.378933 0.21894
8931 1 0.180861 0.442124 0.196081
8930 2 0.182527 0.445644 0.189703
4355 2 0.204677 0.481653 0.208641
4354 1 0.209373 0.48817 0.204446
4356 1 0.20037 0.476429 0.213215
6031 1 0.218915 0.49258 0.212209
6032 2 0.225112 0.498334 0.21129
6033 1 0.23171 0.50175 0.208675
10713 1 0.303146 0.506695 0.21203
14025 1 0.0958209 0.582299 0.194426
14024 3 0.0993284 0.589055 0.192582
14023 1 0.103173 0.595814 0.190191
1737 1 0.0550123 0.640745 0.19482
18889 1 0.262853 0.654958 0.200796
18890 3 0.26768 0.658505 0.195471
18891 1 0.272396 0.661824 0.190206
14955 1 0.117909 0.729764 0.190426
3040 1 0.130171 0.833212 0.193905
7431 1 0.129139 0.832633 0.19665
7429 1 0.123085 0.828661 0.211735
7430 3 0.126578 0.8307 0.204298
10618 1 0.20121 0.864394 0.188509
10619 2 0.207156 0.867492 0.192868
1081 1 0.236419 0.851217 0.207591
1082 3 0.232735 0.852629 0.214972
5636 2 0.0922082 0.0296046 0.250173
5635 1 0.0995292 0.0299259 0.245897
13008 1 0.235618 0.0797655 0.243128
9808 1 0.234678 0.0808955 0.24027
9809 3 0.233773 0.0843139 0.232725
9810 1 0.234578 0.0884673 0.225852
15396 1 0.234696 0.0903739 0.223193
12323 2 0.105834 0.139256 0.24813
12322 1 0.111966 0.139608 0.242677
4284 1 0.236565 0.20774 0.245632
4282 1 0.251335 0.213461 0.243694
4283 3 0.244361 0.210724 0.244758
8505 1 0.254167 0.214868 0.243172
20808 1 0.29823 0.204471 0.235168
20807 2 0.299884 0.197826 0.231989
20806 1 0.301775 0.190863 0.228021
781 1 0.302237 0.188124 0.227123
8504 2 0.261644 0.218765 0.242577
8503 1 0.26895 0.22221 0.24222
168 1 0.0734196 0.267483 0.225401
167 2 0.0676646 0.270387 0.221649
325 1 0.00586822 0.301963 0.249977
326 2 0.00856663 0.295259 0.246815
327 1 0.0098542 0.289458 0.241452
12285 1 0.110151 0.3158 0.219882
14277 1 0.18069 0.32474 0.241183
13951 1 0.181893 0.327371 0.23918
14276 2 0.17737 0.31985 0.246322
13953 1 0.189816 0.337704 0.228792
13952 2 0.184682 0.33279 0.233015
3710 2 0.149534 0.358143 0.221351
3709 1 0.143601 0.361962 0.223307
3396 1 0.141142 0.363725 0.223571
3395 3 0.134286 0.368328 0.224447
3711 1 0.154883 0.354305 0.220835
20269 1 0.1566 0.352275 0.220574
20270 3 0.161538 0.347377 0.219629
17404 1 0.200944 0.35914 0.234631
17405 2 0.199106 0.358504 0.227398
17406 1 0.200058 0.359042 0.219578
3394 1 0.127882 0.373266 0.223684
10767 1 0.212061 0.380467 0.231438
6702 1 0.210453 0.381223 0.233855
6701 3 0.20408 0.382565 0.239904
6700 1 0.199497 0.382736 0.246986
10766 3 0.216558 0.379517 0.224444
13674 1 0.0573907 0.487446 0.230568
13673 2 0.0570272 0.492839 0.235075
9502 1 0.142304 0.494256 0.24098
18331 1 0.00369388 0.513433 0.24778
21016 1 0.05472 0.500005 0.243832
21017 3 0.0518336 0.50363 0.250373
13672 1 0.055307 0.498861 0.241326
9504 1 0.12782 0.500746 0.244979
9503 2 0.135365 0.497615 0.243153
314 3 0.242812 0.682632 0.242742
313 1 0.244599 0.678373 0.23568
4348 1 0.107445 0.683361 0.237442
4349 3 0.113938 0.68951 0.238545
4350 1 0.118675 0.696421 0.239007
3736 1 0.120234 0.69933 0.23873
3737 2 0.124412 0.707048 0.238232
315 1 0.242437 0.685236 0.25002
3738 1 0.127136 0.7144 0.238417
17017 1 0.128587 0.717259 0.238941
17018 3 0.13257 0.724257 0.241547
17019 1 0.136334 0.728765 0.245293
7546 1 0.137805 0.731039 0.246906
13408 1 0.183512 0.735128 0.243901
16173 1 0.182439 0.786968 0.240666
16172 2 0.188627 0.781748 0.239813
16171 1 0.19454 0.776688 0.238245
1083 1 0.227242 0.853046 0.221511
8920 1 0.056633 0.0155416 0.27451
8922 1 0.0672992 0.0235577 0.267277
3121 1 0.0696485 0.0249262 0.265656
8921 3 0.0616668 0.0193872 0.270746
3122 3 0.0763732 0.0280149 0.261289
3123 1 0.0837913 0.0295434 0.25613
5637 1 0.086057 0.0296144 0.254168
13287 1 0.204645 0.0710357 0.262382
13285 1 0.211737 0.067142 0.275869
13286 2 0.208844 0.0687475 0.268534
13006 1 0.239268 0.0749953 0.258935
21580 1 0.240024 0.073751 0.261312
13007 2 0.23675 0.0769359 0.251357
14252 3 0.235437 0.0907918 0.268469
14253 1 0.240872 0.0906867 0.262982
14251 1 0.232144 0.0889718 0.276382
21582 1 0.248288 0.0666905 0.2713
21581 2 0.243546 0.0705315 0.266421
1861 1 0.0738231 0.153751 0.262228
12324 1 0.0997204 0.138879 0.253222
1863 1 0.0813617 0.167868 0.267803
1862 3 0.0782685 0.160538 0.265836
16504 1 0.175442 0.160597 0.273137
16505 2 0.179764 0.167025 0.269683
16506 1 0.186321 0.171612 0.267502
17671 1 0.0364025 0.276647 0.255346
17672 2 0.0394306 0.281384 0.262815
17673 1 0.0417549 0.284595 0.268437
4151 3 0.0451721 0.291505 0.277698
4150 1 0.0428341 0.286109 0.270719
12652 1 0.0800586 0.287956 0.274241
11370 1 0.0712101 0.305192 0.268977
12654 1 0.0729508 0.303317 0.27059
12653 3 0.0773147 0.296499 0.273627
11369 3 0.0669213 0.309473 0.263523
17887 1 0.169883 0.308163 0.269043
11368 1 0.0595774 0.312363 0.261118
14275 1 0.174642 0.3159 0.252668
17889 1 0.173741 0.314863 0.255449
17888 3 0.171556 0.312164 0.262835
2019 1 0.28264 0.335384 0.263475
2018 2 0.281636 0.341961 0.267925
2017 1 0.280505 0.346233 0.274249
15697 1 0.14778 0.401078 0.259736
15698 3 0.153011 0.400774 0.265818
15699 1 0.158099 0.400176 0.27205
19253 3 0.222629 0.391194 0.27912
19252 1 0.223274 0.396538 0.273783
18942 1 0.261768 0.382594 0.279379
7654 1 0.0347072 0.456739 0.278297
7655 2 0.0356986 0.460464 0.271436
7656 1 0.0387167 0.464226 0.265632
2288 2 0.0765593 0.454038 0.28023
2289 1 0.070294 0.449936 0.277564
18333 1 0.0131082 0.516066 0.26113
18332 2 0.00846099 0.514699 0.254477
21018 1 0.0475994 0.509224 0.254556
9278 2 0.23245 0.506328 0.271433
9279 1 0.229283 0.512406 0.267172
9277 1 0.234478 0.500487 0.276845
15736 1 0.268897 0.528637 0.25702
15738 1 0.281899 0.537328 0.262613
15737 3 0.275943 0.53178 0.258549
15879 1 0.209827 0.576045 0.260053
15878 3 0.21769 0.574055 0.258325
15877 1 0.225346 0.571114 0.256764
6229 1 0.254763 0.565165 0.256139
6230 2 0.250043 0.562815 0.262029
6231 1 0.245959 0.56029 0.269251
20942 2 0.295812 0.618452 0.279356
20943 1 0.292239 0.614237 0.272548
18783 1 0.116751 0.648083 0.277492
8848 1 0.0241691 0.659641 0.272289
8849 2 0.0313278 0.658363 0.269644
8850 1 0.0390451 0.656656 0.267441
18782 2 0.114275 0.654752 0.273101
18781 1 0.110816 0.658607 0.266102
9481 1 0.281759 0.65325 0.252157
9482 3 0.281426 0.659696 0.255873
9483 1 0.280553 0.666571 0.260019
7547 2 0.141865 0.737314 0.251191
7548 1 0.147101 0.741398 0.255498
13409 2 0.182928 0.733677 0.251396
13410 1 0.183914 0.731081 0.259583
387 1 0.0792329 0.762443 0.281463
17450 2 0.164239 0.806241 0.280007
17449 1 0.161038 0.80088 0.274602
187 1 0.0558882 0.868297 0.275383
2497 1 0.138589 0.0112006 0.304812
13821 1 0.137157 0.0298653 0.309714
2499 1 0.137334 0.0271606 0.30918
2498 3 0.136552 0.0193159 0.307208
9519 1 0.167206 0.0127973 0.308428
9517 1 0.176698 0.0255441 0.303495
9518 3 0.172296 0.0194887 0.305856
1158 1 0.297637 0.00546289 0.286744
1157 2 0.302614 0.0119925 0.283814
13820 3 0.136139 0.0383241 0.309498
13819 1 0.135133 0.046363 0.311575
12371 3 0.150161 0.135813 0.305496
12372 1 0.148753 0.139375 0.312256
12370 1 0.152274 0.133767 0.29776
7757 2 0.1393 0.211545 0.284129
7756 1 0.144591 0.216929 0.284735
7758 1 0.132864 0.206499 0.284646
19373 2 0.150532 0.204913 0.312777
19372 1 0.155533 0.204948 0.307445
12291 1 0.25395 0.18638 0.294822
12289 1 0.263971 0.198727 0.299748
12290 2 0.259243 0.192577 0.296103
15133 1 0.00138489 0.265631 0.294791
15134 2 0.000243831 0.272257 0.290556
7453 1 0.266248 0.27643 0.296483
14201 3 0.0452507 0.303877 0.290153
4152 1 0.045514 0.295818 0.283291
14200 1 0.0455334 0.297512 0.285383
7455 1 0.270557 0.284504 0.284185
7454 3 0.268235 0.279752 0.290653
4745 3 0.274 0.283931 0.310378
4744 1 0.277526 0.281521 0.303223
14202 1 0.043768 0.310475 0.294414
11558 3 0.0860388 0.363931 0.307443
11559 1 0.0784169 0.364321 0.308569
11459 3 0.10373 0.363832 0.309754
11458 1 0.0956998 0.363324 0.308335
11460 1 0.110176 0.364308 0.312345
11557 1 0.0927602 0.363523 0.30798
10406 3 0.209579 0.379458 0.293984
10407 1 0.208112 0.387497 0.291427
19254 1 0.221059 0.385018 0.282371
10405 1 0.213454 0.372696 0.295906
18941 3 0.256617 0.388501 0.283746
18940 1 0.253199 0.395189 0.288207
2287 1 0.0833038 0.457056 0.28389
1915 1 0.129634 0.472185 0.313105
1916 2 0.121796 0.473097 0.312755
17175 1 0.291589 0.58344 0.313061
16891 1 0.292923 0.580833 0.31295
8562 1 0.303776 0.564231 0.313039
16893 1 0.302317 0.56707 0.313002
1441 1 0.302105 0.605938 0.31007
1442 2 0.301063 0.612427 0.305925
17174 3 0.288195 0.590595 0.312837
1443 1 0.301766 0.617679 0.298734
17173 1 0.284222 0.598373 0.312913
16341 1 0.282967 0.60068 0.313164
20941 1 0.300971 0.621466 0.285964
252 1 0.23904 0.699595 0.312766
19435 1 0.124129 0.743902 0.312738
386 3 0.0852886 0.765888 0.284319
16232 3 0.10285 0.772428 0.289591
385 1 0.0920007 0.767663 0.287051
16231 1 0.0948106 0.768868 0.287873
16233 1 0.1091 0.776503 0.289338
17451 1 0.166974 0.808122 0.287163
16471 1 0.226424 0.0226967 0.326393
16472 2 0.226895 0.0166161 0.322309
16473 1 0.230498 0.0107136 0.317357
7666 1 0.088635 0.119579 0.334572
7667 2 0.0832359 0.120629 0.339746
14650 1 0.268873 0.153366 0.317795
7909 1 0.148999 0.163261 0.344185
14651 2 0.276162 0.156467 0.317488
14652 1 0.283159 0.161471 0.316916
3796 1 0.143846 0.205282 0.321616
19374 1 0.145303 0.205388 0.318982
3798 1 0.136313 0.206489 0.334615
3797 3 0.140033 0.206101 0.328481
2398 1 0.0418298 0.273829 0.337335
6035 2 0.0259865 0.29384 0.33986
6036 1 0.0199166 0.298242 0.343939
2399 2 0.0372859 0.279563 0.337447
2400 1 0.0327633 0.285655 0.337979
6034 1 0.0310099 0.288059 0.338208
20931 1 0.0921944 0.296761 0.32469
20930 3 0.0977442 0.291495 0.325246
20929 1 0.104782 0.286951 0.325007
4746 1 0.269687 0.288208 0.317455
10238 2 0.282472 0.374267 0.343989
10239 1 0.277243 0.379063 0.340999
11815 1 0.0246285 0.430284 0.344673
11691 1 0.301124 0.460257 0.325197
1917 1 0.113175 0.474836 0.313716
9091 1 0.0346612 0.583907 0.335133
9092 2 0.0331639 0.580669 0.342198
16892 2 0.297678 0.5736 0.313957
16340 2 0.278756 0.608005 0.314942
16339 1 0.276447 0.616353 0.315069
8596 1 0.275421 0.618608 0.315659
8598 1 0.27036 0.633647 0.317819
8597 2 0.27306 0.625967 0.316986
7688 3 0.0703115 0.710876 0.344771
250 1 0.22408 0.698735 0.31525
251 3 0.231818 0.700033 0.314029
7687 1 0.07456 0.718356 0.344017
4339 1 0.0762702 0.720285 0.343642
4340 2 0.0825439 0.726129 0.342617
4341 1 0.0886681 0.729721 0.343381
9135 1 0.134753 0.741312 0.337469
9134 3 0.139546 0.734777 0.336967
9133 1 0.142986 0.729131 0.335449
19436 3 0.131768 0.744474 0.31573
19437 1 0.139575 0.743544 0.317054
15244 1 0.0440213 0.766289 0.329487
15245 2 0.0405476 0.76146 0.335463
15246 1 0.036224 0.758188 0.341041
15528 1 0.0661822 0.866883 0.338465
8869 1 0.0687051 0.865173 0.337489
8870 2 0.0757264 0.859661 0.335234
8871 1 0.0829263 0.854923 0.334432
6636 1 0.294895 0.00568763 0.355205
6635 2 0.298635 0.0116955 0.355799
6634 1 0.301573 0.0193605 0.356879
1462 1 0.14687 0.0421261 0.359853
1464 1 0.159081 0.0379106 0.351114
1463 2 0.152494 0.0396797 0.355558
7668 1 0.0784029 0.123267 0.345173
13987 1 0.0505075 0.142421 0.350545
13988 3 0.057542 0.143935 0.352795
13989 1 0.0644985 0.146382 0.356158
7911 1 0.151302 0.177769 0.349725
7910 3 0.150168 0.170854 0.346912
1206 1 0.0277241 0.241674 0.345218
1205 3 0.0199036 0.239136 0.34702
1204 1 0.0118698 0.235776 0.346553
14064 1 0.0593991 0.264211 0.369465
14063 2 0.0574555 0.270022 0.374783
8887 1 0.303352 0.308178 0.363579
8888 2 0.299591 0.30944 0.357577
16318 1 0.278757 0.308777 0.351537
8889 1 0.297568 0.311314 0.349445
16320 1 0.276989 0.321984 0.359578
16319 2 0.277564 0.315329 0.355848
7149 1 0.0829166 0.371874 0.374079
10237 1 0.287063 0.367827 0.346851
19385 2 0.0580594 0.394005 0.359328
19384 1 0.0534172 0.399694 0.36035
19386 1 0.0628887 0.388259 0.356563
11816 3 0.0168358 0.428519 0.345353
11817 1 0.0086935 0.427963 0.34747
14900 2 0.301192 0.418716 0.349708
14899 1 0.303203 0.410548 0.346926
14901 1 0.299493 0.425964 0.352515
5933 3 0.300463 0.455908 0.36918
5934 1 0.297091 0.457669 0.363006
17028 1 0.0181901 0.481328 0.374155
17027 3 0.0180954 0.473992 0.375805
19333 1 0.163826 0.524312 0.358621
19885 1 0.240805 0.505589 0.350183
19886 3 0.248092 0.506087 0.352835
19887 1 0.256984 0.508459 0.353851
19334 2 0.165617 0.52951 0.352223
19335 1 0.166914 0.535448 0.347803
5183 3 0.0297566 0.56898 0.358474
5182 1 0.0307321 0.575028 0.352601
9093 1 0.0310529 0.576478 0.350003
5184 1 0.0304524 0.564382 0.364002
11707 1 0.185301 0.609337 0.35633
11708 2 0.187539 0.616388 0.358188
7099 1 0.189519 0.626882 0.360798
11709 1 0.188547 0.623873 0.360132
7100 2 0.193154 0.631141 0.362907
7101 1 0.198028 0.636625 0.36711
7689 1 0.0675491 0.704633 0.347579
14007 1 0.129563 0.0677412 0.399389
14006 2 0.132324 0.0705687 0.405835
1097 2 0.151553 0.101231 0.399438
1096 1 0.145374 0.10565 0.397455
1098 1 0.158506 0.0991958 0.402969
1828 1 0.143021 0.152754 0.390985
1829 2 0.146145 0.156973 0.396626
1830 1 0.150228 0.161974 0.401908
11546 3 0.155039 0.173549 0.4048
11545 1 0.154058 0.166643 0.407231
11547 1 0.154858 0.179749 0.400095
14062 1 0.0560931 0.274682 0.380916
7746 1 0.116185 0.264944 0.39531
17478 1 0.151257 0.279139 0.385438
18177 1 0.148801 0.277612 0.386305
7745 2 0.122674 0.268734 0.392558
7744 1 0.129696 0.270889 0.390854
18175 1 0.132698 0.272073 0.390476
18176 2 0.140993 0.274496 0.388899
2169 1 0.223305 0.277901 0.406862
17476 1 0.159961 0.289053 0.378481
17477 3 0.156181 0.283761 0.382204
2167 1 0.221012 0.283432 0.392835
2168 2 0.221218 0.281585 0.399714
616 1 0.30215 0.289525 0.406228
16968 1 0.0336035 0.369951 0.395415
16967 2 0.0383324 0.36407 0.401097
16966 1 0.0393865 0.357841 0.405419
7148 3 0.0883387 0.367054 0.377255
7147 1 0.0926322 0.360971 0.38058
5932 1 0.303826 0.454172 0.376636
17026 1 0.0188432 0.466488 0.376316
7597 1 0.239288 0.516399 0.386861
4084 1 0.241522 0.516755 0.387662
7599 1 0.223854 0.514777 0.381152
7598 3 0.232561 0.515645 0.383903
4086 1 0.256607 0.522503 0.3926
4085 3 0.249428 0.519185 0.390744
19590 1 0.0207521 0.533228 0.396342
10944 1 0.00595751 0.533027 0.407691
19589 2 0.0265939 0.536954 0.400454
19588 1 0.0310064 0.541057 0.405469
14902 1 0.300688 0.580507 0.394742
16598 3 0.106237 0.677668 0.40654
16599 1 0.10642 0.680413 0.399703
1348 1 0.106453 0.682267 0.397319
5113 1 0.102836 0.704401 0.405956
1349 2 0.106399 0.687129 0.390418
1350 1 0.106113 0.690546 0.383398
7789 1 0.138503 0.736492 0.40128
7790 2 0.139573 0.739324 0.393529
7791 1 0.138603 0.740379 0.385287
20901 1 0.120855 0.776227 0.394844
20900 3 0.118419 0.780452 0.400901
20899 1 0.117187 0.784814 0.407457
10315 1 0.294436 0.000116701 0.431184
8498 2 0.303648 0.0248497 0.429022
8499 1 0.299749 0.0181616 0.42929
10317 1 0.298282 0.0154664 0.429337
10316 2 0.295376 0.00770739 0.430495
2869 1 0.0870322 0.0792945 0.421292
2870 2 0.0915464 0.0833346 0.428038
2871 1 0.0959867 0.0872773 0.433906
19200 1 0.138335 0.0724192 0.416702
14005 1 0.136557 0.0717352 0.413907
19199 2 0.143251 0.0741194 0.423082
19198 1 0.146165 0.0733647 0.431582
19087 1 0.147275 0.0730839 0.434148
8593 1 0.215401 0.206208 0.437922
15644 2 0.162957 0.286444 0.425215
15645 1 0.17045 0.288212 0.427338
15643 1 0.155827 0.286236 0.422365