ITEM: TIMESTEP
0
ITEM: NUMBER OF ATOMS
2265
ITEM: BOX BOUNDS pp pp pp
0.0000000000000000e+00 5.0000000000000000e+01
0.0000000000000000e+00 5.0000000000000000e+01
0.0000000000000000e+00 5.0000000000000000e+01
ITEM: ATOMS id type 
370 1 
371 2 
372 1 
487 1 
488 2 
489 1 
1324 1 
1325 2 
1326 1 
1387 1 
1388 2 
1389 1 
1447 1 
1448 2 
1449 1 
2281 1 
2282 2 
2283 1 
2527 1 
2528 2 
2529 1 
2530 1 
2531 2 
2532 1 
3301 1 
3302 2 
3303 1 
3490 1 
3491 2 
3492 1 
3664 1 
3665 2 
3666 1 
4390 1 
4391 2 
4392 1 
4510 1 
4511 2 
4512 1 
4564 1 
4565 2 
4566 1 
4624 1 
4625 2 
4626 1 
4687 1 
4688 2 
4689 1 
4807 1 
4808 2 
4809 1 
5587 1 
5588 2 
5589 1 
5590 1 
5591 2 
5592 1 
5641 1 
5642 2 
5643 1 
5704 1 
5705 2 
5706 1 
5884 1 
5885 2 
5886 1 
6841 1 
6842 2 
6843 1 
6964 1 
6965 3 
6966 1 
7027 1 
7028 2 
7029 1 
7090 1 
7091 2 
7092 1 
7741 1 
7742 2 
7743 1 
7747 1 
7748 2 
7749 1 
7804 1 
7805 2 
7806 1 
8050 1 
8051 3 
8052 1 
8161 1 
8162 2 
8163 1 
8944 1 
8945 2 
8946 1 
9004 1 
9005 2 
9006 1 
9007 1 
9008 2 
9009 1 
9121 1 
9122 2 
9123 1 
9127 1 
9128 3 
9129 1 
10264 1 
10265 2 
10266 1 
10267 1 
10268 2 
10269 1 
10510 1 
10511 2 
10512 1 
19 1 
20 3 
21 1 
316 1 
317 2 
318 1 
496 1 
497 2 
498 1 
1219 1 
1220 2 
1221 1 
1276 1 
1277 2 
1278 1 
1402 1 
1403 3 
1404 1 
1516 1 
1517 2 
1518 1 
1519 1 
1520 2 
1521 1 
1639 1 
1640 2 
1641 1 
2233 1 
2234 2 
2235 1 
2293 1 
2294 2 
2295 1 
2356 1 
2357 2 
2358 1 
2416 1 
2417 2 
2418 1 
2479 1 
2480 2 
2481 1 
2539 1 
2540 2 
2541 1 
2602 1 
2603 2 
2604 1 
3202 1 
3203 2 
3204 1 
3259 1 
3260 2 
3261 1 
3313 1 
3314 2 
3315 1 
3316 1 
3317 2 
3318 1 
3496 1 
3497 2 
3498 1 
3553 1 
3554 2 
3555 1 
3616 1 
3617 2 
3618 1 
3739 1 
3740 2 
3741 1 
4462 1 
4463 2 
4464 1 
4576 1 
4577 2 
4578 1 
4759 1 
4760 3 
4761 1 
4762 1 
4763 2 
4764 1 
4822 1 
4823 2 
4824 1 
5719 1 
5720 3 
5721 1 
6022 1 
6023 2 
6024 1 
6733 1 
6734 2 
6735 1 
7222 1 
7223 2 
7224 1 
7762 1 
7763 2 
7764 1 
7879 1 
7880 2 
7881 1 
7993 1 
7994 2 
7995 1 
8002 1 
8003 2 
8004 1 
8122 1 
8123 2 
8124 1 
8236 1 
8237 2 
8238 1 
8296 1 
8297 2 
8298 1 
8953 1 
8954 2 
8955 1 
9076 1 
9077 2 
9078 1 
10396 1 
10397 3 
10398 1 
10399 1 
10400 2 
10401 1 
265 1 
266 2 
267 1 
328 1 
329 3 
330 1 
331 1 
332 2 
333 1 
334 1 
335 2 
336 1 
1165 1 
1166 2 
1167 1 
1174 1 
1175 2 
1176 1 
1531 1 
1532 2 
1533 1 
1588 1 
1589 2 
1590 1 
1645 1 
1646 2 
1647 1 
2248 1 
2249 2 
2250 1 
2368 1 
2369 2 
2370 1 
2425 1 
2426 2 
2427 1 
3205 1 
3206 2 
3207 1 
3265 1 
3266 2 
3267 1 
3574 1 
3575 2 
3576 1 
4585 1 
4586 3 
4587 1 
4588 1 
4589 2 
4590 1 
4648 1 
4649 2 
4650 1 
4654 1 
4655 2 
4656 1 
4705 1 
4706 2 
4707 1 
4708 1 
4709 3 
4710 1 
4888 1 
4889 3 
4890 1 
5485 1 
5486 2 
5487 1 
5494 1 
5495 2 
5496 1 
5728 1 
5729 2 
5730 1 
5854 1 
5855 2 
5856 1 
5905 1 
5906 2 
5907 1 
5974 1 
5975 3 
5976 1 
6751 1 
6752 2 
6753 1 
6865 1 
6866 2 
6867 1 
7171 1 
7172 2 
7173 1 
7228 1 
7229 2 
7230 1 
8185 1 
8186 2 
8187 1 
8245 1 
8246 2 
8247 1 
8254 1 
8255 2 
8256 1 
8905 1 
8906 2 
8907 1 
9271 1 
9272 2 
9273 1 
9334 1 
9335 2 
9336 1 
9988 1 
9989 2 
9990 1 
10108 1 
10109 2 
10110 1 
10345 1 
10346 2 
10347 1 
10414 1 
10415 2 
10416 1 
40 1 
41 2 
42 1 
46 1 
47 2 
48 1 
337 1 
338 2 
339 1 
457 1 
458 2 
459 1 
526 1 
527 2 
528 1 
1183 1 
1184 2 
1185 1 
1243 1 
1244 2 
1245 1 
1357 1 
1358 2 
1359 1 
1366 1 
1367 2 
1368 1 
2383 1 
2384 2 
2385 1 
2626 1 
2627 2 
2628 1 
3283 1 
3284 2 
3285 1 
3463 1 
3464 2 
3465 1 
3466 1 
3467 2 
3468 1 
4540 1 
4541 2 
4542 1 
4600 1 
4601 3 
4602 1 
4657 1 
4658 2 
4659 1 
4723 1 
4724 2 
4725 1 
4726 1 
4727 2 
4728 1 
4777 1 
4778 2 
4779 1 
4786 1 
4787 2 
4788 1 
5563 1 
5564 2 
5565 1 
5617 1 
5618 2 
5619 1 
6877 1 
6878 2 
6879 1 
6886 1 
6887 2 
6888 1 
7120 1 
7121 2 
7122 1 
7186 1 
7187 2 
7188 1 
7897 1 
7898 3 
7899 1 
8086 1 
8087 2 
8088 1 
8143 1 
8144 2 
8145 1 
8197 1 
8198 2 
8199 1 
8200 1 
8201 2 
8202 1 
8983 1 
8984 3 
8985 1 
9157 1 
9158 2 
9159 1 
9160 1 
9161 2 
9162 1 
9166 1 
9167 2 
9168 1 
10060 1 
10061 2 
10062 1 
10243 1 
10244 2 
10245 1 
10246 1 
10247 2 
10248 1 
10417 1 
10418 2 
10419 1 
172 1 
173 3 
174 1 
178 1 
179 2 
180 1 
1312 1 
1313 2 
1314 1 
1378 1 
1379 3 
1380 1 
1432 1 
1433 2 
1434 1 
1618 1 
1619 2 
1620 1 
2272 1 
2273 2 
2274 1 
2389 1 
2390 2 
2391 1 
2395 1 
2396 2 
2397 1 
2572 1 
2573 2 
2574 1 
2575 1 
2576 2 
2577 1 
3229 1 
3230 2 
3231 1 
3289 1 
3290 2 
3291 1 
3769 1 
3770 2 
3771 1 
3775 1 
3776 2 
3777 1 
4375 1 
4376 2 
4377 1 
4378 1 
4379 2 
4380 1 
4432 1 
4433 2 
4434 1 
4675 1 
4676 2 
4677 1 
4729 1 
4730 2 
4731 1 
4738 1 
4739 3 
4740 1 
5689 1 
5690 2 
5691 1 
5755 1 
5756 3 
5757 1 
5812 1 
5813 2 
5814 1 
6058 1 
6059 2 
6060 1 
6712 1 
6713 2 
6714 1 
6829 1 
6830 2 
6831 1 
6892 1 
6893 2 
6894 1 
6958 1 
6959 2 
6960 1 
7249 1 
7250 2 
7251 1 
7795 1 
7796 2 
7797 1 
7915 1 
7916 2 
7917 1 
9115 1 
9116 2 
9117 1 
10078 1 
10079 2 
10080 1 
10378 1 
10379 2 
10380 1 
541 1 
542 3 
543 1 
661 1 
662 2 
663 1 
904 1 
905 2 
906 1 
970 1 
971 2 
972 1 
1021 1 
1022 2 
1023 1 
1690 1 
1691 2 
1692 1 
1867 1 
1868 2 
1869 1 
1987 1 
1988 2 
1989 1 
2041 1 
2042 2 
2043 1 
2170 1 
2171 3 
2172 1 
2824 1 
2825 2 
2826 1 
2884 1 
2885 2 
2886 1 
3064 1 
3065 2 
3066 1 
3910 1 
3911 3 
3912 1 
4081 1 
4082 2 
4083 1 
4261 1 
4262 2 
4263 1 
4264 1 
4265 2 
4266 1 
4267 1 
4268 2 
4269 1 
5041 1 
5042 3 
5043 1 
5050 1 
5051 2 
5052 1 
5161 1 
5162 2 
5163 1 
5221 1 
5222 2 
5223 1 
5230 1 
5231 2 
5232 1 
5404 1 
5405 2 
5406 1 
6127 1 
6128 2 
6129 1 
6181 1 
6182 2 
6183 1 
6184 1 
6185 2 
6186 1 
6430 1 
6431 2 
6432 1 
6601 1 
6602 2 
6603 1 
6604 1 
6605 2 
6606 1 
8461 1 
8462 2 
8463 1 
8704 1 
8705 2 
8706 1 
8761 1 
8762 2 
8763 1 
8821 1 
8822 3 
8823 1 
9364 1 
9365 2 
9366 1 
9421 1 
9422 2 
9423 1 
9607 1 
9608 2 
9609 1 
9661 1 
9662 2 
9663 1 
9670 1 
9671 2 
9672 1 
9721 1 
9722 3 
9723 1 
9730 1 
9731 2 
9732 1 
10567 1 
10568 2 
10569 1 
10570 1 
10571 2 
10572 1 
10864 1 
10865 2 
10866 1 
553 1 
554 2 
555 1 
556 1 
557 3 
558 1 
742 1 
743 3 
744 1 
793 1 
794 2 
795 1 
799 1 
800 2 
801 1 
913 1 
914 2 
915 1 
922 1 
923 2 
924 1 
979 1 
980 2 
981 1 
1699 1 
1700 2 
1701 1 
1756 1 
1757 3 
1758 1 
1819 1 
1820 2 
1821 1 
1942 1 
1943 2 
1944 1 
2059 1 
2060 2 
2061 1 
2119 1 
2120 2 
2121 1 
2653 1 
2654 2 
2655 1 
2662 1 
2663 3 
2664 1 
2716 1 
2717 2 
2718 1 
2719 1 
2720 2 
2721 1 
3859 1 
3860 2 
3861 1 
3922 1 
3923 2 
3924 1 
4933 1 
4934 2 
4935 1 
5122 1 
5123 2 
5124 1 
5353 1 
5354 2 
5355 1 
5356 1 
5357 2 
5358 1 
5359 1 
5360 2 
5361 1 
5416 1 
5417 2 
5418 1 
6073 1 
6074 2 
6075 1 
6322 1 
6323 2 
6324 1 
6556 1 
6557 2 
6558 1 
6559 1 
6560 3 
6561 1 
7402 1 
7403 2 
7404 1 
7639 1 
7640 2 
7641 1 
7699 1 
7700 2 
7701 1 
8416 1 
8417 2 
8418 1 
8473 1 
8474 2 
8475 1 
8653 1 
8654 3 
8655 1 
8659 1 
8660 3 
8661 1 
9616 1 
9617 2 
9618 1 
9796 1 
9797 2 
9798 1 
9862 1 
9863 2 
9864 1 
10813 1 
10814 2 
10815 1 
10939 1 
10940 2 
10941 1 
685 1 
686 2 
687 1 
1051 1 
1052 2 
1053 1 
1831 1 
1832 2 
1833 1 
2788 1 
2789 2 
2790 1 
2791 1 
2792 2 
2793 1 
2911 1 
2912 2 
2913 1 
2968 1 
2969 2 
2970 1 
2971 1 
2972 2 
2973 1 
3085 1 
3086 2 
3087 1 
3991 1 
3992 2 
3993 1 
4174 1 
4175 2 
4176 1 
5128 1 
5129 3 
5130 1 
6154 1 
6155 2 
6156 1 
6214 1 
6215 2 
6216 1 
6385 1 
6386 2 
6387 1 
6394 1 
6395 2 
6396 1 
6505 1 
6506 2 
6507 1 
6508 1 
6509 3 
6510 1 
6574 1 
6575 2 
6576 1 
6631 1 
6632 2 
6633 1 
7285 1 
7286 2 
7287 1 
7291 1 
7292 2 
7293 1 
7585 1 
7586 2 
7587 1 
7705 1 
7706 2 
7707 1 
8491 1 
8492 2 
8493 1 
8494 1 
8495 2 
8496 1 
8554 1 
8555 2 
8556 1 
8674 1 
8675 2 
8676 1 
8725 1 
8726 3 
8727 1 
9685 1 
9686 2 
9687 1 
9694 1 
9695 2 
9696 1 
9748 1 
9749 2 
9750 1 
10588 1 
10589 2 
10590 1 
10825 1 
10826 3 
10827 1 
10834 1 
10835 2 
10836 1 
583 1 
584 2 
585 1 
643 1 
644 2 
645 1 
703 1 
704 2 
705 1 
1717 1 
1718 2 
1719 1 
1720 1 
1721 2 
1722 1 
1723 1 
1724 2 
1725 1 
1897 1 
1898 2 
1899 1 
2203 1 
2204 2 
2205 1 
2680 1 
2681 3 
2682 1 
2803 1 
2804 2 
2805 1 
3046 1 
3047 2 
3048 1 
3163 1 
3164 2 
3165 1 
4006 1 
4007 2 
4008 1 
4063 1 
4064 2 
4065 1 
4297 1 
4298 2 
4299 1 
4957 1 
4958 2 
4959 1 
5086 1 
5087 3 
5088 1 
5140 1 
5141 2 
5142 1 
5257 1 
5258 2 
5259 1 
5320 1 
5321 2 
5322 1 
5383 1 
5384 2 
5385 1 
5443 1 
5444 2 
5445 1 
6403 1 
6404 2 
6405 1 
6406 1 
6407 2 
6408 1 
6586 1 
6587 2 
6588 1 
7417 1 
7418 2 
7419 1 
7540 1 
7541 2 
7542 1 
7606 1 
7607 2 
7608 1 
8746 1 
8747 2 
8748 1 
8803 1 
8804 2 
8805 1 
9646 1 
9647 2 
9648 1 
9760 1 
9761 2 
9762 1 
9880 1 
9881 2 
9882 1 
10726 1 
10727 3 
10728 1 
10840 1 
10841 2 
10842 1 
10900 1 
10901 2 
10902 1 
1012 1 
1013 2 
1014 1 
1075 1 
1076 2 
1077 1 
1789 1 
1790 2 
1791 1 
1852 1 
1853 2 
1854 1 
2815 1 
2816 3 
2817 1 
2989 1 
2990 2 
2991 1 
3892 1 
3893 2 
3894 1 
3895 1 
3896 3 
3897 1 
3949 1 
3950 2 
3951 1 
3952 1 
3953 2 
3954 1 
4189 1 
4190 2 
4191 1 
4249 1 
4250 2 
4251 1 
4255 1 
4256 2 
4257 1 
4258 1 
4259 2 
4260 1 
4312 1 
4313 2 
4314 1 
4318 1 
4319 2 
4320 1 
4969 1 
4970 2 
4971 1 
5212 1 
5213 2 
5214 1 
6232 1 
6233 2 
6234 1 
6418 1 
6419 3 
6420 1 
6532 1 
6533 2 
6534 1 
7372 1 
7373 2 
7374 1 
7612 1 
7613 2 
7614 1 
7678 1 
7679 2 
7680 1 
7738 1 
7739 2 
7740 1 
8452 1 
8453 2 
8454 1 
8692 1 
8693 2 
8694 1 
8809 1 
8810 2 
8811 1 
8878 1 
8879 2 
8880 1 
9595 1 
9596 2 
9597 1 
9769 1 
9770 2 
9771 1 
9832 1 
9833 2 
9834 1 
9889 1 
9890 2 
9891 1 
9895 1 
9896 2 
9897 1 
9949 1 
9950 2 
9951 1 
9955 1 
9956 2 
9957 1 
10609 1 
10610 2 
10611 1 
10678 1 
10679 2 
10680 1 
10789 1 
10790 2 
10791 1 
10792 1 
10793 2 
10794 1 
10798 1 
10799 2 
10800 1 
11038 1 
11039 2 
11040 1 
11227 1 
11228 2 
11229 1 
11230 1 
11231 2 
11232 1 
11401 1 
11402 2 
11403 1 
12061 1 
12062 2 
12063 1 
12070 1 
12071 2 
12072 1 
12361 1 
12362 2 
12363 1 
12484 1 
12485 2 
12486 1 
13264 1 
13265 2 
13266 1 
13324 1 
13325 2 
13326 1 
13384 1 
13385 2 
13386 1 
13564 1 
13565 2 
13566 1 
13567 1 
13568 2 
13569 1 
14461 1 
14462 2 
14463 1 
15367 1 
15368 2 
15369 1 
15541 1 
15542 2 
15543 1 
15544 1 
15545 2 
15546 1 
15550 1 
15551 2 
15552 1 
16327 1 
16328 2 
16329 1 
16444 1 
16445 2 
16446 1 
17467 1 
17468 2 
17469 1 
17524 1 
17525 2 
17526 1 
17767 1 
17768 3 
17769 1 
17770 1 
17771 2 
17772 1 
18430 1 
18431 3 
18432 1 
18541 1 
18542 2 
18543 1 
18547 1 
18548 2 
18549 1 
18610 1 
18611 2 
18612 1 
18727 1 
18728 2 
18729 1 
18787 1 
18788 2 
18789 1 
19504 1 
19505 3 
19506 1 
19510 1 
19511 3 
19512 1 
19690 1 
19691 2 
19692 1 
20830 1 
20831 2 
20832 1 
21010 1 
21011 2 
21012 1 
11296 1 
11297 2 
11298 1 
11353 1 
11354 2 
11355 1 
11422 1 
11423 2 
11424 1 
11479 1 
11480 3 
11481 1 
12079 1 
12080 2 
12081 1 
12136 1 
12137 2 
12138 1 
12139 1 
12140 2 
12141 1 
12502 1 
12503 2 
12504 1 
12553 1 
12554 2 
12555 1 
13282 1 
13283 2 
13284 1 
13393 1 
13394 3 
13395 1 
13396 1 
13397 2 
13398 1 
13579 1 
13580 2 
13581 1 
14296 1 
14297 2 
14298 1 
14299 1 
14300 2 
14301 1 
14359 1 
14360 2 
14361 1 
14416 1 
14417 2 
14418 1 
14599 1 
14600 2 
14601 1 
15376 1 
15377 2 
15378 1 
15442 1 
15443 2 
15444 1 
15496 1 
15497 2 
15498 1 
15553 1 
15554 2 
15555 1 
15673 1 
15674 2 
15675 1 
15742 1 
15743 2 
15744 1 
17536 1 
17537 2 
17538 1 
17539 1 
17540 2 
17541 1 
17656 1 
17657 2 
17658 1 
18499 1 
18500 2 
18501 1 
18673 1 
18674 3 
18675 1 
19756 1 
19757 2 
19758 1 
19873 1 
19874 2 
19875 1 
21019 1 
21020 2 
21021 1 
11131 1 
11132 2 
11133 1 
11254 1 
11255 2 
11256 1 
11434 1 
11435 2 
11436 1 
12208 1 
12209 2 
12210 1 
12271 1 
12272 2 
12273 1 
13234 1 
13235 2 
13236 1 
13294 1 
13295 2 
13296 1 
13348 1 
13349 2 
13350 1 
13354 1 
13355 2 
13356 1 
13411 1 
13412 2 
13413 1 
13585 1 
13586 2 
13587 1 
14311 1 
14312 3 
14313 1 
14365 1 
14366 2 
14367 1 
14428 1 
14429 2 
14430 1 
14488 1 
14489 2 
14490 1 
15445 1 
15446 2 
15447 1 
16594 1 
16595 2 
16596 1 
17548 1 
17549 3 
17550 1 
17728 1 
17729 2 
17730 1 
17794 1 
17795 2 
17796 1 
18448 1 
18449 2 
18450 1 
18811 1 
18812 2 
18813 1 
18814 1 
18815 2 
18816 1 
20725 1 
20726 2 
20727 1 
20791 1 
20792 2 
20793 1 
20848 1 
20849 3 
20850 1 
11326 1 
11327 2 
11328 1 
11380 1 
11381 2 
11382 1 
11437 1 
11438 3 
11439 1 
11497 1 
11498 2 
11499 1 
12106 1 
12107 2 
12108 1 
12340 1 
12341 2 
12342 1 
12457 1 
12458 2 
12459 1 
12517 1 
12518 2 
12519 1 
13237 1 
13238 2 
13239 1 
13426 1 
13427 2 
13428 1 
14257 1 
14258 2 
14259 1 
14317 1 
14318 2 
14319 1 
14557 1 
14558 2 
14559 1 
15457 1 
15458 2 
15459 1 
15466 1 
15467 2 
15468 1 
16426 1 
16427 2 
16428 1 
16483 1 
16484 2 
16485 1 
16603 1 
16604 2 
16605 1 
16606 1 
16607 2 
16608 1 
17377 1 
17378 2 
17379 1 
17563 1 
17564 2 
17565 1 
17626 1 
17627 2 
17628 1 
17680 1 
17681 2 
17682 1 
17737 1 
17738 2 
17739 1 
17803 1 
17804 2 
17805 1 
18526 1 
18527 2 
18528 1 
18637 1 
18638 2 
18639 1 
18817 1 
18818 2 
18819 1 
19603 1 
19604 2 
19605 1 
19660 1 
19661 2 
19662 1 
19720 1 
19721 2 
19722 1 
19846 1 
19847 2 
19848 1 
20566 1 
20567 2 
20568 1 
20623 1 
20624 2 
20625 1 
20746 1 
20747 2 
20748 1 
20863 1 
20864 2 
20865 1 
20920 1 
20921 2 
20922 1 
21046 1 
21047 2 
21048 1 
11218 1 
11219 2 
11220 1 
11389 1 
11390 2 
11391 1 
12172 1 
12173 2 
12174 1 
12232 1 
12233 2 
12234 1 
12295 1 
12296 2 
12297 1 
12415 1 
12416 2 
12417 1 
12535 1 
12536 3 
12537 1 
12598 1 
12599 2 
12600 1 
13192 1 
13193 2 
13194 1 
13249 1 
13250 2 
13251 1 
13318 1 
13319 2 
13320 1 
13429 1 
13430 2 
13431 1 
13612 1 
13613 2 
13614 1 
14398 1 
14399 3 
14400 1 
15358 1 
15359 2 
15360 1 
15415 1 
15416 2 
15417 1 
15598 1 
15599 3 
15600 1 
15655 1 
15656 2 
15657 1 
16438 1 
16439 2 
16440 1 
16498 1 
16499 2 
16500 1 
16609 1 
16610 2 
16611 1 
17392 1 
17393 2 
17394 1 
17458 1 
17459 2 
17460 1 
17812 1 
17813 2 
17814 1 
17815 1 
17816 2 
17817 1 
18529 1 
18530 2 
18531 1 
18595 1 
18596 3 
18597 1 
18892 1 
18893 2 
18894 1 
19495 1 
19496 2 
19497 1 
19609 1 
19610 2 
19611 1 
19675 1 
19676 2 
19677 1 
19855 1 
19856 3 
19857 1 
19909 1 
19910 2 
19911 1 
19915 1 
19916 2 
19917 1 
20572 1 
20573 2 
20574 1 
20575 1 
20576 2 
20577 1 
20578 1 
20579 2 
20580 1 
20629 1 
20630 2 
20631 1 
21055 1 
21056 2 
21057 1 
21058 1 
21059 2 
21060 1 
11530 1 
11531 2 
11532 1 
11584 1 
11585 2 
11586 1 
11587 1 
11588 2 
11589 1 
11710 1 
11711 2 
11712 1 
11767 1 
11768 2 
11769 1 
11887 1 
11888 2 
11889 1 
11941 1 
11942 2 
11943 1 
12664 1 
12665 2 
12666 1 
12784 1 
12785 2 
12786 1 
12841 1 
12842 2 
12843 1 
12964 1 
12965 3 
12966 1 
13087 1 
13088 2 
13089 1 
13807 1 
13808 2 
13809 1 
13867 1 
13868 2 
13869 1 
14884 1 
14885 2 
14886 1 
15001 1 
15002 2 
15003 1 
15004 1 
15005 2 
15006 1 
15247 1 
15248 2 
15249 1 
15784 1 
15785 2 
15786 1 
15901 1 
15902 3 
15903 1 
15907 1 
15908 2 
15909 1 
16747 1 
16748 2 
16749 1 
17167 1 
17168 3 
17169 1 
17230 1 
17231 2 
17232 1 
17821 1 
17822 2 
17823 1 
17884 1 
17885 2 
17886 1 
17890 1 
17891 2 
17892 1 
18190 1 
18191 2 
18192 1 
18244 1 
18245 2 
18246 1 
18310 1 
18311 2 
18312 1 
21067 1 
21068 2 
21069 1 
21367 1 
21368 2 
21369 1 
21421 1 
21422 2 
21423 1 
11593 1 
11594 2 
11595 1 
11839 1 
11840 2 
11841 1 
12916 1 
12917 2 
12918 1 
12976 1 
12977 2 
12978 1 
13039 1 
13040 3 
13041 1 
13639 1 
13640 2 
13641 1 
13696 1 
13697 3 
13698 1 
13873 1 
13874 2 
13875 1 
13882 1 
13883 2 
13884 1 
13933 1 
13934 2 
13935 1 
15019 1 
15020 2 
15021 1 
15136 1 
15137 2 
15138 1 
15199 1 
15200 2 
15201 1 
15976 1 
15977 2 
15978 1 
16276 1 
16277 2 
16278 1 
16759 1 
16760 3 
16761 1 
16813 1 
16814 2 
16815 1 
16879 1 
16880 2 
16881 1 
17179 1 
17180 2 
17181 1 
17233 1 
17234 2 
17235 1 
17839 1 
17840 2 
17841 1 
18199 1 
18200 2 
18201 1 
19273 1 
19274 2 
19275 1 
19336 1 
19337 2 
19338 1 
19393 1 
19394 3 
19395 1 
20062 1 
20063 2 
20064 1 
20353 1 
20354 2 
20355 1 
20476 1 
20477 2 
20478 1 
21202 1 
21203 2 
21204 1 
21559 1 
21560 2 
21561 1 
11728 1 
11729 2 
11730 1 
11794 1 
11795 2 
11796 1 
11968 1 
11969 2 
11970 1 
11974 1 
11975 3 
11976 1 
12751 1 
12752 3 
12753 1 
12928 1 
12929 3 
12930 1 
13645 1 
13646 2 
13647 1 
14008 1 
14009 2 
14010 1 
14014 1 
14015 2 
14016 1 
14125 1 
14126 2 
14127 1 
14131 1 
14132 3 
14133 1 
14908 1 
14909 2 
14910 1 
15088 1 
15089 2 
15090 1 
15148 1 
15149 2 
15150 1 
15208 1 
15209 2 
15210 1 
15214 1 
15215 2 
15216 1 
15274 1 
15275 2 
15276 1 
15814 1 
15815 3 
15816 1 
15985 1 
15986 2 
15987 1 
16051 1 
16052 2 
16053 1 
16105 1 
16106 2 
16107 1 
16174 1 
16175 2 
16176 1 
16225 1 
16226 2 
16227 1 
16765 1 
16766 2 
16767 1 
17014 1 
17015 2 
17016 1 
17068 1 
17069 2 
17070 1 
17134 1 
17135 3 
17136 1 
17248 1 
17249 2 
17250 1 
17905 1 
17906 2 
17907 1 
18025 1 
18026 2 
18027 1 
18085 1 
18086 2 
18087 1 
18985 1 
18986 3 
18987 1 
19045 1 
19046 2 
19047 1 
19348 1 
19349 2 
19350 1 
20131 1 
20132 2 
20133 1 
20191 1 
20192 2 
20193 1 
20251 1 
20252 2 
20253 1 
20311 1 
20312 2 
20313 1 
20488 1 
20489 2 
20490 1 
21145 1 
21146 2 
21147 1 
21154 1 
21155 2 
21156 1 
21391 1 
21392 2 
21393 1 
21454 1 
21455 2 
21456 1 
21568 1 
21569 3 
21570 1 
11683 1 
11684 2 
11685 1 
12703 1 
12704 2 
12705 1 
12946 1 
12947 3 
12948 1 
13003 1 
13004 2 
13005 1 
13123 1 
13124 2 
13125 1 
13657 1 
13658 2 
13659 1 
13663 1 
13664 2 
13665 1 
13780 1 
13781 2 
13782 1 
13846 1 
13847 3 
13848 1 
13960 1 
13961 2 
13962 1 
14017 1 
14018 2 
14019 1 
14026 1 
14027 2 
14028 1 
14083 1 
14084 2 
14085 1 
14206 1 
14207 3 
14208 1 
14743 1 
14744 3 
14745 1 
14800 1 
14801 3 
14802 1 
15106 1 
15107 2 
15108 1 
16006 1 
16007 2 
16008 1 
16060 1 
16061 2 
16062 1 
16123 1 
16124 2 
16125 1 
16786 1 
16787 2 
16788 1 
16846 1 
16847 2 
16848 1 
16897 1 
16898 2 
16899 1 
16903 1 
16904 2 
16905 1 
17086 1 
17087 2 
17088 1 
17137 1 
17138 2 
17139 1 
17866 1 
17867 2 
17868 1 
17920 1 
17921 2 
17922 1 
17923 1 
17924 3 
17925 1 
18106 1 
18107 2 
18108 1 
18337 1 
18338 2 
18339 1 
18340 1 
18341 2 
18342 1 
18946 1 
18947 2 
18948 1 
19000 1 
19001 2 
19002 1 
19057 1 
19058 2 
19059 1 
19297 1 
19298 2 
19299 1 
19423 1 
19424 2 
19425 1 
19426 1 
19427 2 
19428 1 
20020 1 
20021 2 
20022 1 
20326 1 
20327 2 
20328 1 
21097 1 
21098 2 
21099 1 
21337 1 
21338 2 
21339 1 
11638 1 
11639 2 
11640 1 
11749 1 
11750 2 
11751 1 
11932 1 
11933 2 
11934 1 
12775 1 
12776 2 
12777 1 
13735 1 
13736 2 
13737 1 
13909 1 
13910 2 
13911 1 
13975 1 
13976 2 
13977 1 
13978 1 
13979 2 
13980 1 
14095 1 
14096 2 
14097 1 
14809 1 
14810 2 
14811 1 
15175 1 
15176 2 
15177 1 
15955 1 
15956 2 
15957 1 
16189 1 
16190 2 
16191 1 
16252 1 
16253 2 
16254 1 
16792 1 
16793 2 
16794 1 
16855 1 
16856 2 
16857 1 
16975 1 
16976 2 
16977 1 
17155 1 
17156 2 
17157 1 
17158 1 
17159 2 
17160 1 
17212 1 
17213 2 
17214 1 
18055 1 
18056 2 
18057 1 
18178 1 
18179 2 
18180 1 
18949 1 
18950 2 
18951 1 
19012 1 
19013 2 
19014 1 
19189 1 
19190 2 
19191 1 
19378 1 
19379 2 
19380 1 
19438 1 
19439 2 
19440 1 
19978 1 
19979 3 
19980 1 
20038 1 
20039 2 
20040 1 
20092 1 
20093 2 
20094 1 
20272 1 
20273 3 
20274 1 
20518 1 
20519 2 
20520 1 
21118 1 
21119 2 
21120 1 
21169 1 
21170 2 
21171 1 
21295 1 
21296 2 
21297 1 
21358 1 
21359 2 
21360 1 
21475 1 
21476 2 
21477 1 
