ITEM: TIMESTEP
35000000
ITEM: NUMBER OF ENTRIES
2704
ITEM: BOX BOUNDS pp pp pp
0 50
0 50
0 50
ITEM: ENTRIES c_binfo[1] c_binfo[2] c_binfo[3] 
2 8023 8024 
2 8024 8025 
2 8591 8592 
1 4413 8592 
3 4412 4413 
3 4411 4412 
2 194 195 
1 8025 19491 
3 9260 9261 
3 9377 9378 
3 8773 8774 
1 8773 20259 
1 8775 19459 
3 19459 19460 
3 19460 19461 
3 8774 8775 
3 16664 16665 
3 16663 16664 
1 16663 16827 
3 16826 16827 
3 1978 1979 
1 1978 8590 
1 1980 16665 
3 1979 1980 
3 18223 18224 
1 13227 18223 
3 6286 6287 
3 5446 5447 
1 5446 6286 
2 8590 8591 
3 15167 15168 
3 7579 7580 
1 7579 19050 
3 15166 15167 
1 6954 15166 
3 6953 6954 
3 19049 19050 
3 6287 6288 
1 6288 19048 
3 19048 19049 
3 8986 8987 
1 8986 19746 
3 5447 5448 
3 8987 8988 
3 19490 19491 
3 19489 19490 
3 2683 2684 
1 2683 19489 
1 3909 13065 
3 13064 13065 
3 13063 13064 
1 13063 15765 
3 2021 2022 
3 13276 13277 
3 9508 9509 
1 2022 9508 
3 9509 9510 
3 13277 13278 
3 3526 3527 
1 9510 16825 
3 16825 16826 
3 3527 3528 
1 3528 9376 
3 9376 9377 
3 21433 21434 
3 21434 21435 
1 1734 21433 
3 14527 14528 
3 14528 14529 
1 19119 19678 
3 19118 19119 
3 19117 19118 
3 6614 6615 
3 19678 19679 
3 18224 18225 
3 17002 17003 
3 17003 17004 
3 19679 19680 
1 18225 19680 
3 6613 6614 
1 6613 17004 
3 1427 1428 
3 9928 9929 
1 9928 17002 
3 1426 1427 
1 1426 10630 
3 9929 9930 
3 18898 18899 
3 6952 6953 
1 6952 15582 
3 18899 18900 
3 15580 15581 
1 15580 18900 
3 15581 15582 
1 12327 18204 
3 1498 1499 
1 1498 9064 
3 12176 12177 
3 9065 9066 
3 12175 12176 
1 9066 12175 
3 12325 12326 
1 12325 14142 
3 2657 2658 
3 9064 9065 
3 12326 12327 
1 2658 18240 
3 12035 12036 
3 17575 17576 
3 17576 17577 
3 12034 12035 
1 5448 17577 
3 21350 21351 
3 20242 20243 
3 14140 14141 
1 14140 20242 
3 20243 20244 
3 15763 15764 
3 15764 15765 
1 20244 21351 
1 7527 15763 
3 7526 7527 
3 170 171 
1 171 21576 
3 7525 7526 
1 7525 12036 
3 14141 14142 
3 5981 5982 
3 5980 5981 
3 169 170 
1 169 5980 
1 1635 5982 
3 9725 9726 
1 3585 13339 
3 13339 13340 
3 13340 13341 
3 9724 9725 
1 9724 13341 
3 3584 3585 
3 14698 14699 
1 2982 19708 
3 19708 19709 
3 2020 2021 
1 2020 19710 
3 3124 3125 
1 3124 16929 
3 19709 19710 
3 3125 3126 
1 3126 3690 
3 3689 3690 
3 3688 3689 
1 3688 16186 
3 16186 16187 
3 16187 16188 
1 16188 21435 
3 18014 18015 
3 18013 18014 
1 18013 21138 
3 21137 21138 
2 2981 2982 
2 2980 2981 
3 4292 4293 
3 21160 21161 
3 4291 4292 
1 4291 21160 
1 4293 10554 
3 21161 21162 
1 17940 19117 
1 6615 8613 
3 8611 8612 
1 8611 21162 
3 8612 8613 
1 18828 20241 
1 15045 16120 
3 15044 15045 
3 15043 15044 
1 1428 16122 
3 16120 16121 
3 20240 20241 
3 16121 16122 
3 6310 6311 
1 6310 6919 
3 6919 6920 
3 20125 20126 
1 20125 21022 
3 20239 20240 
1 6312 20239 
3 6311 6312 
3 20126 20127 
1 4089 20127 
3 21022 21023 
2 10573 10574 
1 10573 12858 
2 10574 10575 
2 12857 12858 
3 17938 17939 
1 17938 20994 
3 20993 20994 
2 12856 12857 
1 12856 20992 
3 20992 20993 
3 8711 8712 
1 4860 8712 
3 4859 4860 
3 17939 17940 
3 1499 1500 
3 8710 8711 
1 8710 10126 
3 10126 10127 
3 7871 7872 
3 7870 7871 
1 7870 15043 
1 1500 10128 
3 10127 10128 
3 16550 16551 
3 16549 16550 
1 14295 16549 
1 12642 16551 
3 17756 17757 
3 12641 12642 
3 12640 12641 
1 12640 17757 
3 6001 6002 
1 6001 15418 
2 9946 9947 
2 9947 9948 
3 17788 17789 
3 13078 13079 
1 13078 21349 
3 21349 21350 
3 13079 13080 
3 17789 17790 
1 9948 13080 
3 15754 15755 
3 15755 15756 
1 10650 15756 
3 2836 2837 
1 2836 17788 
3 2837 2838 
3 739 740 
1 276 739 
3 8782 8783 
1 8782 15754 
3 21575 21576 
3 21574 21575 
3 10556 10557 
1 8784 10557 
3 8783 8784 
1 17790 21574 
3 275 276 
3 1583 1584 
3 15130 15131 
3 10555 10556 
1 10555 18238 
1 10176 20446 
1 1584 8644 
3 15161 15162 
1 15162 20448 
3 18239 18240 
3 18238 18239 
3 8644 8645 
3 274 275 
1 274 8646 
3 8645 8646 
3 20447 20448 
3 20446 20447 
3 11215 11216 
1 11215 14863 
3 10907 10908 
3 14863 14864 
1 5595 15337 
3 15337 15338 
3 10906 10907 
3 5593 5594 
1 5593 10906 
3 5594 5595 
3 14864 14865 
1 14865 15508 
3 15508 15509 
3 18035 18036 
3 10922 10923 
3 10921 10922 
1 10921 18034 
3 18034 18035 
1 15285 15622 
3 16928 16929 
3 3784 3785 
1 3784 9726 
1 3786 10923 
3 15622 15623 
3 3667 3668 
1 3667 15510 
3 3785 3786 
3 3668 3669 
3 15623 15624 
1 114 15624 
3 113 114 
3 112 113 
1 112 21136 
1 3669 5194 
3 16861 16862 
3 2318 2319 
3 16816 16817 
1 16816 16861 
3 16862 16863 
3 15509 15510 
3 21136 21137 
1 3054 3493 
3 3493 3494 
3 3494 3495 
3 2317 2318 
1 2317 3495 
2 10553 10554 
3 15284 15285 
3 16927 16928 
3 15283 15284 
1 15283 18961 
3 18961 18962 
3 4832 4833 
3 18827 18828 
3 4831 4832 
1 4831 18826 
3 18826 18827 
3 20816 20817 
3 9358 9359 
1 9358 20817 
3 20815 20816 
3 13699 13700 
1 13699 20815 
3 9359 9360 
3 4088 4089 
3 12871 12872 
1 12871 17511 
3 12872 12873 
1 9360 12873 
3 12521 12522 
3 12091 12092 
1 12091 18129 
3 12092 12093 
2 10552 10553 
3 4858 4859 
3 4450 4451 
1 4450 19729 
3 19729 19730 
3 2420 2421 
3 2419 2420 
1 2419 14293 
1 363 2421 
3 19730 19731 
3 4451 4452 
1 351 4087 
3 4087 4088 
3 350 351 
3 14293 14294 
3 349 350 
1 349 4452 
3 14294 14295 
3 14794 14795 
1 14794 20284 
3 20284 20285 
3 20285 20286 
3 8635 8636 
1 8635 20286 
3 15418 15419 
3 12520 12521 
1 12520 14832 
3 14831 14832 
3 14795 14796 
1 14796 15420 
3 15419 15420 
3 2765 2766 
2 18124 18125 
2 18125 18126 
3 361 362 
3 10648 10649 
1 10648 18124 
3 362 363 
3 10649 10650 
3 10340 10341 
3 10339 10340 
1 6579 10339 
1 10341 12262 
3 6578 6579 
3 12262 12263 
3 10175 10176 
3 12263 12264 
3 10174 10175 
1 10174 12264 
3 14843 14844 
1 3024 5370 
3 14842 14843 
3 10001 10002 
3 15131 15132 
3 3022 3023 
1 3022 15132 
3 10000 10001 
1 10000 14262 
3 14261 14262 
3 14260 14261 
1 14260 14844 
3 3023 3024 
3 8039 8040 
1 8040 9859 
3 9859 9860 
3 15338 15339 
3 20969 20970 
3 20968 20969 
1 51 20968 
3 9202 9203 
1 9202 20053 
3 20053 20054 
3 9203 9204 
3 1948 1949 
1 1948 9204 
3 1949 1950 
1 1950 4978 
3 4978 4979 
3 12392 12393 
3 12391 12392 
1 5196 12393 
3 5195 5196 
3 3053 3054 
3 5194 5195 
3 20924 20925 
3 5672 5673 
3 20923 20924 
3 5671 5672 
1 5671 20923 
3 3052 3053 
1 3052 15228 
3 15227 15228 
3 14603 14604 
3 14602 14603 
3 16459 16460 
1 16459 20925 
3 2702 2703 
3 18371 18372 
3 18370 18371 
1 16461 16863 
1 18330 18370 
3 18329 18330 
1 14604 16408 
3 16408 16409 
3 16409 16410 
3 16460 16461 
1 2703 16410 
3 18962 18963 
3 19286 19287 
1 8571 10197 
3 10196 10197 
3 10195 10196 
1 10195 13701 
3 13700 13701 
3 19285 19286 
3 15226 15227 
1 15226 19285 
3 10043 10044 
3 10042 10043 
3 7948 7949 
1 7948 10042 
1 10044 21495 
3 7949 7950 
3 3217 3218 
1 3217 13255 
3 1351 1352 
1 1351 10291 
3 21494 21495 
1 12093 21493 
3 21493 21494 
3 10291 10292 
3 10292 10293 
1 10293 15766 
3 15766 15767 
2 8570 8571 
2 844 845 
1 844 6813 
2 8569 8570 
2 845 846 
3 6812 6813 
3 6811 6812 
3 10325 10326 
3 10324 10325 
1 10324 18493 
3 18493 18494 
1 10326 21025 
3 8636 8637 
3 14830 14831 
3 1121 1122 
3 1120 1121 
1 1120 18495 
3 18494 18495 
3 20324 20325 
3 18263 18264 
3 10945 10946 
1 10945 20325 
1 1122 14830 
3 20323 20324 
3 10946 10947 
3 2764 2765 
1 2764 18693 
3 13742 13743 
3 13741 13742 
3 4798 4799 
1 4798 13741 
3 18691 18692 
1 18691 20323 
3 4799 4800 
3 12689 12690 
3 18692 18693 
3 18262 18263 
1 4800 18262 
3 10468 10469 
1 10468 12690 
3 10469 10470 
2 18089 18090 
3 6577 6578 
1 6577 18090 
2 18088 18089 
3 3332 3333 
3 3331 3332 
1 3331 8637 
3 13691 13692 
2 8998 8999 
1 8998 10947 
2 8999 9000 
3 13690 13691 
1 1161 13690 
3 1159 1160 
1 1159 14842 
3 1160 1161 
3 12455 12456 
1 1509 9472 
3 1508 1509 
1 4899 10242 
3 853 854 
1 853 1507 
3 854 855 
1 855 12456 
3 1507 1508 
3 16067 16068 
3 4898 4899 
3 6115 6116 
3 6116 6117 
3 18407 18408 
3 49 50 
1 49 18408 
3 50 51 
3 20054 20055 
3 14633 14634 
2 593 594 
2 592 593 
1 592 14634 
3 6265 6266 
1 5673 6265 
3 6266 6267 
3 15481 15482 
1 15481 19801 
2 19801 19802 
3 20023 20024 
1 5997 14602 
3 17471 17472 
3 15482 15483 
1 15483 17472 
3 13106 13107 
3 18328 18329 
3 16025 16026 
3 17470 17471 
1 17470 18328 
3 20024 20025 
3 16919 16920 
3 16918 16919 
1 16918 20025 
1 7119 16026 
3 7118 7119 
3 7117 7118 
1 7117 13107 
3 343 344 
1 343 19539 
2 17879 17880 
3 2696 2697 
3 5996 5997 
3 13105 13106 
2 17878 17879 
3 5995 5996 
1 5995 17878 
3 2695 2696 
1 2695 13105 
3 926 927 
3 925 926 
1 925 15768 
3 13255 13256 
1 10593 18922 
3 15767 15768 
3 18923 18924 
3 18922 18923 
1 14550 18924 
3 10795 10796 
3 10796 10797 
3 667 668 
1 10797 21027 
2 21025 21026 
2 21026 21027 
3 668 669 
1 633 6645 
3 21479 21480 
1 12957 18264 
1 669 12955 
3 12955 12956 
3 12956 12957 
3 3025 3026 
1 3025 10875 
3 3026 3027 
1 16197 21480 
3 21478 21479 
3 632 633 
3 6094 6095 
1 6094 8487 
3 12490 12491 
1 12490 14284 
3 13256 13257 
1 13257 16195 
3 16195 16196 
1 3027 10470 
3 631 632 
1 631 14286 
3 16196 16197 
3 14285 14286 
3 14284 14285 
2 3422 3423 
2 15661 15662 
2 3421 3422 
1 3421 16533 
3 10996 10997 
1 10996 15663 
2 15662 15663 
2 5401 5402 
1 5401 9000 
2 5402 5403 
1 3423 10873 
2 16532 16533 
1 10998 12454 
3 11878 11879 
1 11878 14862 
3 12454 12455 
3 11879 11880 
3 10874 10875 
3 10873 10874 
3 10997 10998 
3 9688 9689 
1 9688 11880 
3 14072 14073 
3 16066 16067 
1 9690 16066 
3 9689 9690 
1 612 16455 
2 19744 19745 
2 2083 2084 
1 2083 7735 
3 7735 7736 
2 2084 2085 
2 19745 19746 
2 193 194 
1 193 2085 
3 9361 9362 
3 9362 9363 
3 7736 7737 
3 1879 1880 
1 1879 7737 
3 1880 1881 
2 1769 1770 
3 20279 20280 
3 20278 20279 
1 2685 20278 
3 2684 2685 
3 21448 21449 
1 1881 21448 
3 9523 9524 
1 4077 9523 
3 4075 4076 
1 4075 9495 
3 9494 9495 
3 4076 4077 
3 5137 5138 
3 5138 5139 
3 3424 3425 
1 3424 5137 
2 1768 1769 
1 1768 15918 
3 9493 9494 
1 9493 15916 
3 15916 15917 
3 15917 15918 
3 11827 11828 
3 13252 13253 
1 3426 13252 
3 3425 3426 
3 13253 13254 
3 1549 1550 
1 1549 11827 
3 1550 1551 
3 21449 21450 
3 21542 21543 
3 21541 21542 
3 9524 9525 
3 7469 7470 
3 16621 16622 
1 7470 16621 
3 16622 16623 
3 7468 7469 
1 2166 17140 
3 2165 2166 
3 17141 17142 
3 740 741 
1 13626 20086 
1 1551 16623 
3 1708 1709 
1 1708 18031 
3 13625 13626 
3 18031 18032 
3 20086 20087 
3 18032 18033 
3 2164 2165 
1 2164 18033 
3 13624 13625 
3 6197 6198 
3 20087 20088 
3 8722 8723 
3 8723 8724 
1 8724 11625 
1 14814 17142 
1 5139 11623 
1 15426 21541 
2 11623 11624 
2 11624 11625 
3 17140 17141 
3 12011 12012 
2 15425 15426 
1 12012 15424 
2 15424 15425 
3 11342 11343 
3 8194 8195 
1 8194 11341 
3 8195 8196 
3 11341 11342 
3 6370 6371 
3 6371 6372 
3 14812 14813 
1 6372 14812 
3 14813 14814 
1 7998 18358 
3 13591 13592 
3 18358 18359 
3 7997 7998 
1 741 13593 
3 13592 13593 
3 19034 19035 
3 19033 19034 
1 6 19035 
3 5 6 
3 18359 18360 
3 5368 5369 
1 5368 18360 
3 5369 5370 
3 4 5 
1 4 13624 
3 20621 20622 
1 14352 15145 
3 14350 14351 
1 14350 20620 
3 14351 14352 
3 20620 20621 
3 15145 15146 
1 2442 6198 
3 12010 12011 
3 19328 19329 
3 9562 9563 
1 9562 19329 
3 19327 19328 
3 2441 2442 
3 2440 2441 
2 6190 6191 
1 6190 18429 
2 6191 6192 
3 19907 19908 
3 7996 7997 
2 3929 3930 
2 3928 3929 
1 3928 13692 
3 19906 19907 
1 3930 19906 
3 19517 19518 
3 64 65 
1 64 4641 
3 65 66 
2 3781 3782 
1 3781 19827 
1 66 19518 
3 11782 11783 
1 11782 18021 
3 11783 11784 
1 11784 19825 
3 19826 19827 
3 19825 19826 
3 19516 19517 
3 9860 9861 
1 9861 19516 
3 10241 10242 
3 9563 9564 
3 2194 2195 
1 2194 9997 
3 2195 2196 
1 2196 9564 
1 8847 21489 
3 21488 21489 
3 21487 21488 
3 16630 16631 
1 16630 21487 
3 16631 16632 
2 5371 5372 
1 5371 15661 
2 4640 4641 
2 5372 5373 
2 4639 4640 
2 12311 12312 
2 12310 12311 
1 9300 12312 
1 4719 9298 
2 9298 9299 
2 9299 9300 
3 4718 4719 
2 3782 3783 
2 5407 5408 
1 5407 21255 
3 16453 16454 
1 16453 20836 
3 20836 20837 
3 10240 10241 
3 14546 14547 
3 4717 4718 
1 4717 10240 
3 14545 14546 
1 14545 21253 
3 21253 21254 
3 21254 21255 
3 16454 16455 
2 9997 9998 
2 9998 9999 
2 5408 5409 
3 18406 18407 
2 5153 5154 
3 4459 4460 
1 4459 5154 
3 4460 4461 
3 17123 17124 
1 4461 17122 
3 17122 17123 
2 19568 19569 
2 19567 19568 
1 19569 19803 
2 19802 19803 
2 5152 5153 
1 5152 6819 
1 9081 20331 
3 9080 9081 
2 20330 20331 
2 20329 20330 
3 9079 9080 
1 345 9079 
3 344 345 
3 4825 4826 
3 13445 13446 
1 6336 13444 
3 13444 13445 
1 7860 13446 
1 2697 6334 
2 6335 6336 
2 20789 20790 
1 16383 20790 
2 16382 16383 
2 16381 16382 
3 14548 14549 
1 14548 16381 
2 6334 6335 
3 3530 3531 
3 3529 3530 
1 3529 16032 
1 3531 19636 
3 14549 14550 
3 19636 19637 
3 7408 7409 
1 7408 7858 
3 7858 7859 
3 7409 7410 
3 7859 7860 
2 18643 18644 
2 18644 18645 
3 6643 6644 
3 6644 6645 
3 6095 6096 
3 8150 8151 
3 8149 8150 
1 6096 8149 
3 6409 6410 
3 4685 4686 
3 4684 4685 
1 4684 7957 
3 7957 7958 
3 7958 7959 
3 73 74 
1 73 7959 
3 14941 14942 
2 16531 16532 
2 14797 14798 
2 14798 14799 
2 13772 13773 
2 13771 13772 
1 13771 19366 
2 19366 19367 
1 14508 19368 
2 19367 19368 
3 14507 14508 
2 14860 14861 
1 14799 14860 
2 14861 14862 
3 14506 14507 
1 14506 16009 
3 16009 16010 
3 16010 16011 
1 14073 16011 
3 20837 20838 
3 14942 14943 
2 547 548 
2 548 549 
2 2650 2651 
2 2651 2652 
1 2652 12310 
2 1786 1787 
1 1786 20838 
2 1787 1788 
1 549 1788 
2 6818 6819 
2 6817 6818 
2 20788 20789 
3 16031 16032 
3 6082 6083 
2 11579 11580 
1 4686 11578 
2 11578 11579 
3 16030 16031 
3 6083 6084 
1 6084 16030 
3 15121 15122 
2 13553 13554 
2 18932 18933 
2 18931 18932 
2 16033 16034 
1 16033 18933 
3 15871 15872 
2 13552 13553 
3 12335 12336 
1 12336 19450 
3 19450 19451 
3 19451 19452 
3 2554 2555 
1 2554 19452 
2 16034 16035 
1 1707 16035 
1 10260 20754 
3 20753 20754 
1 15123 20752 
3 15122 15123 
3 20752 20753 
3 15817 15818 
3 15818 15819 
2 11962 11963 
2 11963 11964 
3 2555 2556 
1 15618 17716 
3 17716 17717 
3 17717 17718 
3 442 443 
2 20884 20885 
1 6435 20884 
3 6434 6435 
3 6433 6434 
3 6067 6068 
1 6067 6433 
2 20885 20886 
3 7460 7461 
2 11366 11367 
3 7459 7460 
1 7459 11367 
3 3488 3489 
1 3489 20910 
3 20713 20714 
3 20714 20715 
3 3487 3488 
1 3487 20713 
2 9410 9411 
2 9409 9410 
3 15314 15315 
3 15313 15314 
1 15313 18888 
1 15315 18909 
2 18907 18908 
2 18908 18909 
3 5710 5711 
3 4996 4997 
1 4996 5710 
3 5711 5712 
3 4997 4998 
3 9205 9206 
1 9205 18402 
3 15872 15873 
1 4998 15873 
3 15217 15218 
3 9206 9207 
3 15218 15219 
3 4874 4875 
3 6436 6437 
1 6436 17836 
3 17836 17837 
3 6437 6438 
1 6438 7581 
3 4873 4874 
1 4873 20182 
3 20182 20183 
3 20183 20184 
1 17844 20184 
2 17843 17844 
3 17837 17838 
1 11964 17838 
3 15830 15831 
3 15829 15830 
2 17842 17843 
3 12334 12335 
1 12334 17842 
3 11935 11936 
1 11935 15831 
3 1706 1707 
3 11936 11937 
3 1705 1706 
1 1705 11937 
3 16130 16131 
3 16129 16130 
1 15219 21586 
3 21586 21587 
1 8292 16131 
3 8290 8291 
1 8290 10258 
3 8291 8292 
3 10258 10259 
3 10259 10260 
3 239 240 
1 240 6594 
3 238 239 
3 1333 1334 
1 1333 14110 
3 1334 1335 
2 14110 14111 
3 9259 9260 
1 9259 11163 
3 11162 11163 
3 11161 11162 
3 397 398 
1 397 11161 
3 4057 4058 
1 4057 4713 
3 2057 2058 
3 18586 18587 
3 18587 18588 
3 4711 4712 
1 4711 18588 
3 398 399 
1 399 2056 
3 2056 2057 
3 4712 4713 
3 18734 18735 
3 18733 18734 
3 1963 1964 
1 1963 18733 
1 1965 18586 
3 1964 1965 
3 15263 15264 
3 17012 17013 
3 17011 17012 
3 15262 15263 
1 15262 17013 
3 12847 12848 
3 12848 12849 
1 12849 18735 
3 10457 10458 
1 8697 10458 
3 7490 7491 
3 7489 7490 
3 9823 9824 
1 9823 10456 
3 10456 10457 
3 9824 9825 
3 6883 6884 
3 6884 6885 
1 11553 14608 
3 14608 14609 
3 11552 11553 
3 11551 11552 
1 11551 15171 
3 15169 15170 
1 15169 15616 
2 15616 15617 
3 15170 15171 
2 15617 15618 
2 19925 19926 
1 16215 19926 
3 16214 16215 
3 16213 16214 
3 506 507 
3 505 506 
3 9707 9708 
1 444 9706 
3 443 444 
3 9706 9707 
3 32 33 
3 31 32 
1 31 5433 
2 5432 5433 
2 5431 5432 
1 5431 5821 
3 5821 5822 
3 5822 5823 
3 3829 3830 
1 3829 5823 
3 13501 13502 
3 5878 5879 
3 3830 3831 
1 6609 13695 
3 6608 6609 
3 6607 6608 
3 13694 13695 
3 5737 5738 
1 5737 16239 
2 16238 16239 
3 5738 5739 
2 16237 16238 
2 15334 15335 
2 15335 15336 
1 15336 17412 
3 19192 19193 
2 20257 20258 
3 13334 13335 
1 4221 13333 
3 13333 13334 
2 4220 4221 
2 20258 20259 
1 9930 13335 
1 11991 19192 
3 20755 20756 
3 19193 19194 
3 8851 8852 
1 8851 19194 
3 8852 8853 
2 4219 4220 
1 4219 11365 
2 11365 11366 
3 20155 20156 
1 20155 20755 
3 20156 20157 
3 5434 5435 
1 5434 20157 
3 5435 5436 
3 16870 16871 
3 16871 16872 
1 19302 21556 
1 5436 20860 
3 20860 20861 
3 6068 6069 
1 6069 20862 
3 20861 20862 
3 21556 21557 
1 7683 21558 
3 21557 21558 
3 7682 7683 
1 5103 10617 
3 7195 7196 
1 7195 9411 
3 7196 7197 
3 7681 7682 
1 7197 7681 
3 7927 7928 
1 7927 10717 
3 10718 10719 
3 10717 10718 
3 5102 5103 
3 5101 5102 
3 13226 13227 
3 13225 13226 
1 13225 15595 
3 15595 15596 
3 15596 15597 
1 15597 18886 
3 18887 18888 
3 10811 10812 
3 18886 18887 
3 10810 10811 
3 3941 3942 
1 3942 10810 
1 2217 20640 
3 20639 20640 
3 16964 16965 
1 5712 20638 
3 20638 20639 
3 20909 20910 
3 19301 19302 
3 20908 20909 
3 3940 3941 
1 3940 20908 
3 16963 16964 
3 2144 2145 
1 2145 12783 
3 2143 2144 
1 2143 16963 
3 12782 12783 
3 19300 19301 
3 6140 6141 
3 18401 18402 
3 15083 15084 
3 18400 18401 
3 12781 12782 
1 12781 18400 
3 15082 15083 
1 6141 15082 
3 1969 1970 
3 4471 4472 
1 4471 7662 
3 20729 20730 
1 9210 20728 
3 20728 20729 
3 10616 10617 
3 1970 1971 
3 820 821 
1 820 15084 
3 821 822 
3 9209 9210 
3 9208 9209 
1 17700 20926 
2 20926 20927 
3 17699 17700 
1 14112 17698 
3 17698 17699 
2 14111 14112 
2 20927 20928 
3 7580 7581 
3 6478 6479 
1 6478 15168 
3 5251 5252 
1 2247 5251 
3 2246 2247 
1 4875 6480 
3 6479 6480 
3 18202 18203 
3 16345 16346 
1 16345 18202 
3 16346 16347 
3 18203 18204 
3 5596 5597 
1 5596 6402 
3 2216 2217 
3 2215 2216 
1 2215 2245 
3 10102 10103 
1 10102 16347 
3 2245 2246 
1 10104 15829 
3 5597 5598 
1 5598 18069 
3 10103 10104 
3 18068 18069 
1 15654 16129 
1 4473 13500 
3 18067 18068 
3 4243 4244 
1 4243 18067 
3 4244 4245 
1 4245 21588 
3 12338 12339 
3 12337 12338 
1 12337 20451 
3 4472 4473 
3 6089 6090 
3 21587 21588 
3 6088 6089 
1 6088 15997 
3 7660 7661 
3 7661 7662 
3 15997 15998 
3 6593 6594 
3 20449 20450 
3 6592 6593 
1 6592 20449 
3 20450 20451 
3 15998 15999 
3 17047 17048 
3 12994 12995 
1 12994 17047 
3 2051 2052 
3 15670 15671 
1 15672 15999 
3 15671 15672 
1 864 2052 
3 2050 2051 
3 17048 17049 
3 8968 8969 
3 3908 3909 
3 8969 8970 
3 4735 4736 
1 4735 8970 
3 3907 3908 
1 3907 4059 
3 4058 4059 
3 1892 1893 
3 3238 3239 
1 6924 15264 
1 1698 3238 
3 1697 1698 
3 4736 4737 
3 1696 1697 
3 16289 16290 
3 16288 16289 
3 6922 6923 
1 4737 16288 
3 6923 6924 
3 20464 20465 
1 429 1696 
1 1893 12339 
3 15653 15654 
3 15652 15653 
1 15652 16290 
3 428 429 
3 427 428 
1 427 1270 
3 1271 1272 
3 1270 1271 
1 1272 8695 
3 15535 15536 
3 15536 15537 
3 14408 14409 
1 12624 20464 
3 8695 8696 
3 8696 8697 
3 1328 1329 
3 12622 12623 
3 1327 1328 
1 1327 12622 
3 12623 12624 
3 14407 14408 
1 14407 20368 
3 20368 20369 
3 12073 12074 
3 863 864 
3 862 863 
1 862 1329 
3 20369 20370 
3 16981 16982 
3 14609 14610 
3 11867 11868 
1 9 11868 
3 8 9 
1 1770 11866 
3 16837 16838 
1 16837 16981 
3 11866 11867 
2 10168 10169 
1 10168 11583 
3 16027 16028 
1 16027 19924 
2 19924 19925 
1 16029 16839 
3 7 8 
1 7 6922 
3 16028 16029 
3 16838 16839 
2 10169 10170 
3 19390 19391 
3 19391 19392 
1 10170 19392 
3 14362 14363 
3 12487 12488 
1 12487 14409 
1 15537 19390 
3 14363 14364 
3 14975 14976 
3 14974 14975 
2 18100 18101 
2 18101 18102 
2 17276 17277 
2 17275 17276 
1 17275 18100 
3 1606 1607 
3 16019 16020 
1 2751 15364 
3 15364 15365 
3 15365 15366 
3 3583 3584 
1 3583 15366 
3 2750 2751 
3 2749 2750 
1 2749 13503 
3 14695 14696 
1 14695 15520 
3 15520 15521 
3 15521 15522 
3 10367 10368 
1 15522 18193 
3 18193 18194 
3 6161 6162 
3 13502 13503 
1 10368 13693 
1 5880 18195 
3 1607 1608 
3 18194 18195 
3 6160 6161 
1 6160 6174 
3 6173 6174 
3 6172 6173 
1 6172 19080 
1 1608 3007 
3 5879 5880 
3 13693 13694 
3 19079 19080 
3 19078 19079 
3 394 395 
1 394 13620 
3 1919 1920 
3 1918 1919 
3 13619 13620 
1 1920 6133 
3 6133 6134 
1 5739 19078 
3 395 396 
1 396 17410 
2 17411 17412 
2 17410 17411 
3 4634 4635 
3 4633 4634 
1 4633 5938 
2 5938 5939 
1 5940 9994 
2 9994 9995 
2 5939 5940 
2 9995 9996 
3 1732 1733 
1 1732 11989 
3 17950 17951 
1 17950 20692 
3 17951 17952 
3 3713 3714 
3 20692 20693 
3 11989 11990 
3 11990 11991 
3 1733 1734 
1 6921 17952 
3 6920 6921 
3 10366 10367 
1 10366 19458 
3 19457 19458 
1 3714 19456 
3 20693 20694 
3 19456 19457 
3 1295 1296 
1 1296 12421 
3 12421 12422 
3 1294 1295 
1 1294 6910 
3 6910 6911 
3 20756 20757 
1 20694 20757 
3 12422 12423 
1 12423 13983 
3 13982 13983 
3 2230 2231 
3 163 164 
1 163 2230 
3 164 165 
3 4526 4527 
3 13981 13982 
1 13981 16872 
3 4525 4526 
1 4525 5479 
3 13618 13619 
1 2232 13618 
3 2231 2232 
3 5479 5480 
3 5480 5481 
3 4366 4367 
1 4366 12709 
3 12709 12710 
1 5481 7929 
3 4367 4368 
3 7928 7929 
1 4368 14263 
3 14263 14264 
3 14264 14265 
1 14265 17707 
2 17707 17708 
3 8789 8790 
2 17708 17709 
2 6692 6693 
2 6691 6692 
1 6693 20928 
3 19750 19751 
3 6337 6338 
3 6338 6339 
3 15382 15383 
3 9220 9221 
3 5509 5510 
1 5509 9220 
3 5510 5511 
1 5217 14976 
3 5216 5217 
3 5215 5216 
1 5215 5511 
3 18076 18077 
1 18076 20604 
2 19178 19179 
3 20603 20604 
3 20602 20603 
3 18854 18855 
1 18855 19179 
1 18102 19177 
2 19177 19178 
2 18389 18390 
2 18388 18389 
3 5314 5315 
3 445 446 
1 445 18390 
3 3805 3806 
1 3805 16018 
3 16018 16019 
3 9221 9222 
3 21125 21126 
3 21124 21125 
1 11217 21124 
3 20452 20453 
1 14697 21126 
1 3969 20452 
3 14699 14700 
3 11216 11217 
3 14696 14697 
3 3968 3969 
3 15733 15734 
3 3967 3968 
1 3967 15733 
3 15734 15735 
3 3007 3008 
1 3009 15735 
1 5316 13248 
3 3008 3009 
3 13247 13248 
3 13492 13493 
3 6769 6770 
1 6769 13492 
3 13493 13494 
3 6134 6135 
1 6135 13494 
3 5315 5316 
3 13246 13247 
1 13246 19833 
3 17948 17949 
3 17947 17948 
2 13576 13577 
1 13576 16206 
3 20536 20537 
3 446 447 
3 17611 17612 
3 17612 17613 
1 447 4635 
2 19106 19107 
2 13577 13578 
3 13363 13364 
1 13363 19107 
1 17613 20536 
3 3806 3807 
1 3807 13365 
3 13364 13365 
2 4364 4365 
3 3712 3713 
1 3712 15715 
3 15715 15716 
3 17509 17510 
3 15716 15717 
1 1845 8166 
3 15173 15174 
3 8165 8166 
3 15172 15173 
1 15172 17509 
3 1844 1845 
1 6912 15174 
1 17562 20122 
3 17510 17511 
1 15717 18015 
1 6162 8979 
3 6770 6771 
3 8978 8979 
3 8977 8978 
3 6911 6912 
3 1843 1844 
1 1843 8977 
3 2542 2543 
1 2542 17560 
3 2543 2544 
3 17560 17561 
1 2544 10851 
1 6771 13822 
3 13822 13823 
3 17561 17562 
3 20672 20673 
3 10033 10034 
1 10033 20671 
3 10850 10851 
1 165 10849 
3 10849 10850 
3 8120 8121 
3 8119 8120 
1 8119 10353 
1 606 8121 
3 20671 20672 
3 6254 6255 
3 12710 12711 
3 20537 20538 
1 12711 20673 
3 605 606 
3 604 605 
1 604 20538 
3 6554 6555 
3 6253 6254 
1 6253 6555 
3 6553 6554 
1 6553 7165 
1 7167 12319 
2 12319 12320 
3 7165 7166 
3 7166 7167 
2 19105 19106 
3 9856 9857 
1 9856 19105 
2 12320 12321 
2 8509 8510 
2 15749 15750 
2 15748 15749 
1 12321 15748 
2 4363 4364 
1 4363 8509 
1 8511 11814 
2 8510 8511 
3 19751 19752 
2 5506 5507 
1 5506 15384 
3 15383 15384 
2 5507 5508 
1 5508 18786 
3 18077 18078 
1 7908 19752 
3 7907 7908 
3 7906 7907 
1 7086 18078 
3 21062 21063 
3 21061 21062 
1 7107 21061 
3 2867 2868 
3 7918 7919 
1 7918 21063 
3 18853 18854 
1 7920 18853 
3 7919 7920 
3 2866 2867 
3 20524 20525 
3 20525 20526 
3 13832 13833 
3 13831 13832 
1 13831 18415 
1 9222 10908 
3 20453 20454 
3 7084 7085 
1 7084 10323 
3 10321 10322 
1 16818 20454 
3 16817 16818 
3 10322 10323 
3 6124 6125 
1 6124 13419 
1 4980 10321 
3 6125 6126 
3 4979 4980 
3 7085 7086 
1 6126 11182 
3 11182 11183 
3 11183 11184 
3 19831 19832 
1 11184 19831 
3 19832 19833 
1 12261 20385 
3 1652 1653 
3 4750 4751 
1 4750 17949 
1 1653 20383 
3 20383 20384 
3 20384 20385 
3 4751 4752 
1 4752 13267 
3 13267 13268 
3 1651 1652 
3 12608 12609 
1 12609 19290 
2 19289 19290 
2 19288 19289 
1 18417 19288 
3 16205 16206 
2 18415 18416 
2 18416 18417 
2 2738 2739 
2 2737 2738 
3 8164 8165 
1 2319 8164 
3 2701 2702 
1 2701 5466 
3 20122 20123 
3 5464 5465 
3 2855 2856 
3 2854 2855 
1 2854 5464 
3 5465 5466 
3 9643 9644 
1 9643 18741 
3 20123 20124 
3 18127 18128 
1 18127 20124 
3 18128 18129 
1 2856 13824 
1 8421 13269 
3 13823 13824 
1 2724 9645 
3 2723 2724 
3 8420 8421 
3 9644 9645 
3 2722 2723 
1 2722 10351 
3 10351 10352 
3 13268 13269 
3 10352 10353 
3 13315 13316 
3 4792 4793 
1 4792 13315 
3 13316 13317 
1 4515 13317 
3 4793 4794 
1 12954 14380 
3 14380 14381 
1 2739 13813 
3 13813 13814 
3 12953 12954 
3 12952 12953 
3 4514 4515 
3 16204 16205 
3 4513 4514 
1 4513 16204 
3 1688 1689 
3 1687 1688 
1 1687 12952 
3 2189 2190 
1 1689 9858 
3 9857 9858 
3 11813 11814 
3 11812 11813 
1 2190 11812 
2 18784 18785 
2 18785 18786 
3 7265 7266 
3 7264 7265 
3 569 570 
3 568 569 
3 9452 9453 
1 12795 14632 
3 13418 13419 
3 17723 17724 
3 12793 12794 
1 12793 17722 
3 17722 17723 
3 11612 11613 
1 11613 17247 
3 13417 13418 
1 13417 18372 
3 12794 12795 
3 14632 14633 
3 7106 7107 
1 570 6100 
3 6100 6101 
3 7105 7106 
1 7105 17724 
3 11611 11612 
1 11611 18453 
3 6101 6102 
3 12260 12261 
3 18452 18453 
3 12259 12260 
1 12259 18451 
3 18451 18452 
3 15608 15609 
1 3033 15609 
1 6102 12726 
3 20387 20388 
3 20386 20387 
3 12607 12608 
1 12607 20386 
3 15607 15608 
3 15049 15050 
1 15049 15607 
3 2071 2072 
1 2071 15051 
3 15050 15051 
3 12829 12830 
1 12829 20388 
3 2072 2073 
1 7956 11334 
3 16024 16025 
1 7866 20352 
3 7865 7866 
3 7864 7865 
1 7864 16024 
3 20351 20352 
3 5264 5265 
3 8419 8420 
1 8419 20350 
3 20350 20351 
3 5263 5264 
1 5263 14895 
3 9884 9885 
1 4794 9885 
1 5265 12831 
3 17401 17402 
1 16134 17401 
3 9883 9884 
3 7955 7956 
3 7954 7955 
1 7954 9883 
3 18620 18621 
3 18619 18620 
3 7009 7010 
1 7009 18621 
3 12830 12831 
3 17402 17403 
3 8842 8843 
1 8842 17403 
3 8843 8844 
3 13814 13815 
3 7010 7011 
1 7011 13815 
3 15440 15441 
3 15439 15440 
3 9451 9452 
3 17246 17247 
3 4571 4572 
3 12725 12726 
1 4572 12724 
3 12724 12725 
3 11549 11550 
1 11550 20703 
3 4570 4571 
1 4570 17124 
3 11548 11549 
3 3031 3032 
1 3031 11548 
3 3032 3033 
1 4827 20701 
3 14894 14895 
3 17245 17246 
3 20702 20703 
3 20701 20702 
3 11429 11430 
1 11430 19537 
3 19537 19538 
3 11428 11429 
1 11428 14893 
3 14893 14894 
3 19538 19539 
1 16920 17245 
3 16133 16134 
3 18875 18876 
3 18874 18875 
1 18874 19444 
3 19444 19445 
3 19445 19446 
1 1479 19446 
3 16132 16133 
3 1477 1478 
1 1477 18619 
3 1478 1479 
3 12941 12942 
3 1612 1613 
1 1612 12942 
3 1613 1614 
3 12940 12941 
3 4826 4827 
1 14250 18876 
3 14249 14250 
3 14248 14249 
3 920 921 
3 919 920 
1 919 10632 
3 12037 12038 
1 12037 18843 
3 10631 10632 
3 10535 10536 
3 10630 10631 
3 18842 18843 
3 18841 18842 
3 7733 7734 
3 15943 15944 
1 15943 18841 
3 2090 2091 
3 15944 15945 
1 2091 16260 
3 7732 7733 
1 7732 10536 
1 7734 16965 
1 921 10812 
3 2089 2090 
1 2089 17578 
3 17578 17579 
3 2525 2526 
1 13902 15945 
3 17579 17580 
1 7242 17580 
3 7241 7242 
3 7240 7241 
3 2524 2525 
1 2524 4527 
1 2526 17326 
3 13901 13902 
3 13900 13901 
1 13900 19300 
3 3500 3501 
3 12403 12404 
3 12404 12405 
3 697 698 
1 697 12405 
3 1430 1431 
3 19063 19064 
3 3499 3500 
1 3499 12403 
3 698 699 
1 16185 19063 
1 1431 13188 
3 6139 6140 
1 6139 7240 
3 1429 1430 
1 1429 20730 
1 699 10615 
3 16184 16185 
3 10493 10494 
3 16183 16184 
2 4384 4385 
1 4384 8790 
3 10492 10493 
1 10492 16641 
3 8788 8789 
1 8788 18880 
2 18880 18881 
3 10615 10616 
2 4385 4386 
2 4421 4422 
1 4386 4420 
2 4420 4421 
1 4422 4914 
2 4913 4914 
2 4912 4913 
3 10534 10535 
1 8448 10534 
3 8447 8448 
1 1824 2656 
3 1823 1824 
3 1822 1823 
1 1822 6400 
3 6400 6401 
3 6401 6402 
3 15701 15702 
3 8446 8447 
1 8446 17755 
1 5253 12177 
3 2656 2657 
3 5252 5253 
3 17755 17756 
1 15702 20109 
3 20108 20109 
3 20107 20108 
1 15105 20107 
3 15104 15105 
3 14788 14789 
3 15103 15104 
3 13498 13499 
1 13498 15103 
3 21205 21206 
1 16182 21205 
3 14789 14790 
3 21206 21207 
3 7207 7208 
1 7207 14790 
3 13499 13500 
1 6090 16180 
3 16181 16182 
3 13186 13187 
1 13186 14788 
3 13187 13188 
3 20395 20396 
3 20396 20397 
1 11181 20397 
3 16180 16181 
1 10584 20395 
3 11180 11181 
3 10583 10584 
3 10582 10583 
1 10582 12996 
3 12995 12996 
2 16640 16641 
2 16639 16640 
2 7226 7227 
1 7227 18558 
2 9083 9084 
1 9084 10201 
2 10201 10202 
2 10202 10203 
2 7225 7226 
3 1634 1635 
3 10562 10563 
3 17725 17726 
1 10563 14337 
1 3240 17725 
3 10561 10562 
3 1582 1583 
1 1582 10561 
3 17726 17727 
3 14336 14337 
1 8439 17331 
3 1633 1634 
1 1633 8968 
3 3887 3888 
3 15578 15579 
3 3886 3887 
1 3886 14335 
3 14335 14336 
3 476 477 
3 475 476 
1 475 8437 
3 8437 8438 
1 477 12757 
3 12757 12758 
1 14448 15579 
3 8438 8439 
3 1891 1892 
1 1891 3888 
3 3239 3240 
3 20465 20466 
3 15577 15578 
1 15577 21207 
3 12758 12759 
1 12759 20466 
3 1501 1502 
1 1501 10635 
3 1502 1503 
1 1503 1908 
3 18112 18113 
3 1906 1907 
1 1906 18112 
3 1907 1908 
3 18113 18114 
3 4397 4398 
3 13376 13377 
1 13377 19221 
2 18556 18557 
1 11049 18556 
3 11048 11049 
3 11047 11048 
1 4398 11047 
3 13375 13376 
2 1780 1781 
1 1780 13375 
2 1781 1782 
1 12075 18114 
2 18557 18558 
3 12074 12075 
1 11829 17727 
3 20344 20345 
3 20345 20346 
1 1710 20346 
1 17799 20344 
1 13254 16983 
3 16982 16983 
3 11828 11829 
3 11582 11583 
3 17798 17799 
3 17797 17798 
3 11581 11582 
1 11581 17797 
3 11929 11930 
1 11929 17055 
3 10052 10053 
3 10051 10052 
1 10051 11931 
3 11930 11931 
1 10053 12489 
1 3597 20443 
3 20443 20444 
3 12488 12489 
3 20444 20445 
3 19693 19694 
1 19693 20445 
3 19694 19695 
3 19220 19221 
3 19219 19220 
3 19613 19614 
3 19612 19613 
3 8032 8033 
1 8032 19612 
3 8033 8034 
3 20173 20174 
3 277 278 
1 279 20175 
3 20174 20175 
3 278 279 
3 15196 15197 
3 15197 15198 