ITEM: TIMESTEP
35000000
ITEM: NUMBER OF ATOMS
3648
ITEM: BOX BOUNDS pp pp pp
0.0000000000000000e+00 5.0000000000000000e+01
0.0000000000000000e+00 5.0000000000000000e+01
0.0000000000000000e+00 5.0000000000000000e+01
ITEM: ATOMS id type xs ys zs
2727 1 0.283158 0.765605 0.179694
2726 3 0.282869 0.771451 0.185303
10309 1 0.262492 0.724927 0.193295
10310 2 0.270347 0.723057 0.193027
6562 1 0.256039 0.741488 0.216839
522 1 0.299611 0.735732 0.195627
10311 1 0.277386 0.721082 0.193867
6010 1 0.280706 0.720834 0.194202
6011 3 0.288207 0.7203 0.194657
6012 1 0.295745 0.718913 0.19596
8062 1 0.298186 0.718078 0.196882
521 2 0.300207 0.74105 0.20301
1663 1 0.295871 0.769761 0.209398
1664 2 0.296536 0.772455 0.217023
14458 1 0.300837 0.747775 0.212501
520 1 0.300983 0.746212 0.209259
6487 1 0.220009 0.798272 0.208291
6488 3 0.218747 0.795621 0.215693
20599 1 0.263074 0.778674 0.189331
20600 3 0.262705 0.78346 0.195995
20601 1 0.261092 0.788387 0.201687
5457 1 0.260709 0.790662 0.204261
5456 3 0.260205 0.796042 0.209375
5455 1 0.259713 0.80061 0.215354
17664 1 0.259809 0.801714 0.218102
2725 1 0.283234 0.776874 0.191946
3300 1 0.283119 0.778926 0.194631
3299 3 0.282685 0.784512 0.200656
3298 1 0.283729 0.788668 0.207244
19344 1 0.284011 0.790201 0.209991
19343 3 0.285628 0.792673 0.217957
11037 1 0.242417 0.701939 0.23796
11036 3 0.24538 0.706209 0.24354
11035 1 0.246166 0.709688 0.249412
12189 1 0.25248 0.713803 0.220848
5875 1 0.296608 0.711176 0.24958
5876 2 0.300357 0.707619 0.244192
5877 1 0.302605 0.702833 0.236936
15796 1 0.303158 0.70133 0.234499
21271 1 0.217667 0.731053 0.249059
12188 2 0.25095 0.719111 0.226217
12187 1 0.250352 0.724577 0.232307
20439 1 0.249699 0.72597 0.234894
20438 2 0.249735 0.730126 0.241492
20437 1 0.250128 0.732827 0.249069
4279 1 0.271811 0.730417 0.246425
4280 2 0.273203 0.725216 0.241008
6563 3 0.254491 0.744624 0.224161
4846 1 0.271349 0.732398 0.248743
4281 1 0.276329 0.720412 0.234663
19816 1 0.288993 0.73593 0.2246
19817 3 0.289138 0.739038 0.232975
19818 1 0.288822 0.741717 0.240372
6679 1 0.288456 0.742414 0.242312
16377 1 0.21045 0.772376 0.247572
21073 1 0.227265 0.750666 0.245801
4638 1 0.23509 0.774249 0.24112
1134 1 0.252934 0.762024 0.219599
1133 3 0.254307 0.768381 0.222177
6564 1 0.25451 0.747943 0.230881
1285 1 0.25476 0.749547 0.233562
1286 2 0.255387 0.753582 0.240566
1287 1 0.255207 0.755352 0.248506
18439 1 0.254524 0.775345 0.246855
18151 1 0.301606 0.756295 0.22932
14459 2 0.301305 0.751789 0.219939
14460 1 0.301639 0.755328 0.227072
7002 1 0.300804 0.760453 0.247015
11325 1 0.276899 0.766175 0.222215
11324 2 0.274393 0.766535 0.230225
11323 1 0.274686 0.767385 0.238178
15937 1 0.274741 0.767896 0.24098
15938 2 0.274537 0.770024 0.248789
1665 1 0.295751 0.774718 0.224364
16782 1 0.29535 0.775715 0.227514
18153 1 0.301496 0.760013 0.243694
18152 2 0.301573 0.758448 0.235233
5022 1 0.216981 0.792919 0.245473
1438 1 0.217329 0.792591 0.242293
1439 2 0.218809 0.792915 0.235045
1440 1 0.218821 0.794639 0.22687
6489 1 0.218484 0.794502 0.223456
4637 2 0.23125 0.776344 0.247985
17663 2 0.261061 0.807045 0.224033
1132 1 0.256065 0.776284 0.22541
3691 1 0.257149 0.778951 0.227119
12678 1 0.247857 0.798067 0.249052
3692 3 0.261272 0.783646 0.232604
3693 1 0.264345 0.787325 0.238231
17994 1 0.265512 0.788253 0.240271
17993 2 0.268501 0.790873 0.247253
16781 2 0.294908 0.778593 0.235247
16780 1 0.293342 0.780672 0.243202
7555 1 0.292627 0.780796 0.246603
19342 1 0.288564 0.796041 0.225409
13969 1 0.288821 0.797826 0.228303
13970 2 0.290186 0.802701 0.233204
13971 1 0.290125 0.806539 0.240577
20878 1 0.230832 0.809978 0.235215
20879 2 0.230826 0.809864 0.243213
16868 2 0.231892 0.832348 0.243799
16869 1 0.228527 0.830399 0.236262
17662 1 0.263816 0.809703 0.230661
2829 1 0.264378 0.811057 0.232824
2828 2 0.265471 0.812947 0.239623
2827 1 0.267583 0.813472 0.247579
15142 1 0.267641 0.814094 0.250054
2983 1 0.289526 0.807631 0.243501
2984 2 0.288929 0.809137 0.250614
9786 1 0.282114 0.831795 0.244291
14766 1 0.210905 0.84334 0.228943
14765 2 0.211721 0.844379 0.236458
14764 1 0.21113 0.845292 0.244743
6649 1 0.211088 0.84589 0.24766
15984 1 0.220746 0.711706 0.258552
14094 1 0.233874 0.695236 0.279623
14093 2 0.229299 0.701375 0.278144
14092 1 0.224958 0.708 0.276704
9921 1 0.246542 0.711084 0.252255
16753 1 0.295169 0.712897 0.252119
15983 2 0.220187 0.717996 0.264446
21272 2 0.217278 0.737466 0.254342
15982 1 0.220036 0.723418 0.269901
138 1 0.220082 0.725314 0.271618
137 2 0.220176 0.731609 0.276481
21273 1 0.2148 0.744419 0.258922
9920 2 0.246009 0.714419 0.258768
19901 2 0.243298 0.723009 0.275926
9919 1 0.245498 0.717728 0.266106
19900 1 0.245114 0.718927 0.268849
13914 1 0.246621 0.741407 0.265629
16312 1 0.245828 0.74282 0.268716
13912 1 0.250086 0.733929 0.251784
13913 2 0.249014 0.738832 0.258702
8306 2 0.268745 0.740247 0.274667
8307 1 0.269483 0.737813 0.267279
4848 1 0.269896 0.737226 0.264205
4847 2 0.270329 0.735148 0.2565
6680 2 0.287131 0.743734 0.250677
16754 2 0.292875 0.718401 0.257591
21037 1 0.289006 0.724368 0.266189
21038 2 0.288535 0.730248 0.273288
16755 1 0.289976 0.722591 0.263128
21039 1 0.286958 0.734348 0.280048
16376 2 0.208449 0.773865 0.254294
21074 2 0.231148 0.75576 0.251091
9666 1 0.214859 0.747029 0.260265
9664 1 0.216445 0.759693 0.270123
9918 1 0.216046 0.7619 0.272599
9665 2 0.21552 0.754088 0.264544
14646 1 0.235679 0.761387 0.259036
21075 1 0.234531 0.759591 0.256643
14645 2 0.237563 0.764834 0.265262
14644 1 0.238588 0.767463 0.272655
9917 2 0.215738 0.767332 0.278343
19242 1 0.238402 0.768871 0.275387
16313 2 0.244086 0.746013 0.276189
19255 1 0.255441 0.75619 0.25127
19256 2 0.256114 0.757765 0.258603
19257 1 0.257216 0.759131 0.266608
12834 1 0.257755 0.759842 0.269517
12833 2 0.258313 0.762105 0.27711
9569 2 0.273249 0.775166 0.266336
10665 1 0.301684 0.752757 0.277755
15939 1 0.274252 0.771789 0.255959
9568 1 0.274198 0.772375 0.258809
6681 1 0.286039 0.746648 0.258412
7001 2 0.299513 0.761843 0.254509
7000 1 0.298757 0.764534 0.261584
7192 1 0.298862 0.765972 0.264228
678 1 0.285677 0.747946 0.260441
677 2 0.284176 0.751763 0.26799
676 1 0.282429 0.755544 0.275035
7193 2 0.297979 0.769733 0.271075
3802 1 0.281935 0.757206 0.276957
7194 1 0.296989 0.771821 0.278687
14182 1 0.296742 0.772975 0.281633
11091 1 0.302259 0.751234 0.274784
10831 1 0.193896 0.786031 0.272216
10832 2 0.197624 0.782348 0.267477
16375 1 0.204532 0.776856 0.259909
10833 1 0.202571 0.778604 0.262458
2159 2 0.212244 0.796266 0.271193
2158 1 0.211648 0.797494 0.279113
9106 1 0.2113 0.798493 0.281763
5021 2 0.215057 0.794436 0.252988
5020 1 0.214284 0.794812 0.260049
2160 1 0.213727 0.795078 0.263264
4636 1 0.229827 0.779903 0.254867
1054 1 0.229977 0.781049 0.257451
1055 2 0.230558 0.784313 0.264075
16126 1 0.231469 0.788483 0.274796
1056 1 0.231393 0.787323 0.272023
16127 2 0.231715 0.793344 0.280377
17992 1 0.271015 0.793346 0.254934
12677 2 0.249009 0.801202 0.255382
1902 1 0.271406 0.794499 0.25733
18440 2 0.252565 0.777767 0.253674
18441 1 0.252586 0.780678 0.260603
8304 1 0.252729 0.781573 0.263458
8303 2 0.252906 0.784398 0.270961
1901 2 0.271846 0.79736 0.264343
8302 1 0.252828 0.787692 0.276681
1900 1 0.273121 0.801297 0.272629
10191 1 0.273136 0.802189 0.27531
12676 1 0.250999 0.804535 0.262319
19743 1 0.251491 0.805817 0.26473
9570 1 0.2731 0.777662 0.273984
17439 1 0.272698 0.778535 0.276948
3838 1 0.252796 0.789012 0.278641
7556 2 0.29167 0.782879 0.253847
7557 1 0.2916 0.786807 0.261852
20106 1 0.291312 0.788083 0.264638
20105 2 0.290959 0.791171 0.272431
20104 1 0.290419 0.794244 0.279921
4071 1 0.210779 0.825946 0.252425
20880 1 0.230184 0.808447 0.250897
4069 1 0.214251 0.829982 0.267
2752 1 0.214268 0.831192 0.270278
4070 2 0.214072 0.82617 0.260154
1936 1 0.230279 0.808351 0.25396
15677 2 0.230869 0.819324 0.27846
1937 2 0.230292 0.80926 0.261677
1938 1 0.230093 0.813287 0.269155
15678 1 0.230444 0.814956 0.271866
2753 2 0.213682 0.833637 0.278224
2483 2 0.240393 0.83597 0.260183
16867 1 0.234879 0.834203 0.250774
2484 1 0.236408 0.834343 0.253113
19742 2 0.25288 0.809867 0.270959
15143 2 0.267558 0.818115 0.256791
19741 1 0.25193 0.813825 0.277495
15144 1 0.266631 0.821443 0.263645
16560 1 0.266487 0.822647 0.266085
16559 2 0.266869 0.825546 0.27312
18859 1 0.251672 0.815132 0.280511
16558 1 0.266688 0.828294 0.281774
6271 1 0.287971 0.819167 0.278488
2985 1 0.287489 0.811888 0.257402
20065 1 0.286947 0.813419 0.260333
20066 2 0.286333 0.816147 0.268304
20067 1 0.287434 0.817987 0.27567
9785 2 0.283844 0.832991 0.252339
9784 1 0.284568 0.835491 0.259572
18793 1 0.284578 0.836037 0.26238
18794 2 0.284888 0.838027 0.269941
6651 1 0.211392 0.850403 0.262199
6650 2 0.211988 0.848038 0.254938
8317 1 0.210871 0.851549 0.265086
8318 2 0.211702 0.853794 0.272959
8319 1 0.211292 0.855599 0.280851
6979 1 0.227211 0.846904 0.28104
2482 1 0.244126 0.838181 0.267088
13761 1 0.249206 0.856486 0.270552
13760 3 0.249041 0.853894 0.278742
1450 1 0.284963 0.844011 0.280707
18795 1 0.284419 0.842363 0.277516
18605 3 0.24943 0.709382 0.312124
18604 1 0.244267 0.706822 0.306792
14168 2 0.297319 0.709806 0.282437
14169 1 0.290891 0.711909 0.285865
421 1 0.289169 0.712336 0.287756
19902 1 0.239779 0.726693 0.283914
17440 1 0.238105 0.727805 0.286392
136 1 0.220366 0.737734 0.28228
6051 1 0.220322 0.740622 0.284274
17441 2 0.235037 0.731599 0.292908
17442 1 0.232421 0.734071 0.300498
5896 1 0.231606 0.734824 0.303512
5897 2 0.229044 0.737828 0.31072
12078 1 0.249793 0.735386 0.310074
8305 1 0.26872 0.742996 0.282712
12077 3 0.252911 0.731547 0.304608
12076 1 0.254977 0.725486 0.299192
7281 1 0.267842 0.743887 0.285727
14690 3 0.27255 0.72125 0.307092
4486 1 0.249142 0.736826 0.312986
9577 1 0.303006 0.735405 0.296879
11214 1 0.286111 0.735024 0.283032
21402 1 0.303526 0.734712 0.294438
9578 2 0.301308 0.737085 0.303557
422 3 0.28296 0.714332 0.293785
423 1 0.276918 0.716712 0.299253
14691 1 0.275345 0.717625 0.30125
11213 2 0.284608 0.73852 0.290399
11212 1 0.282687 0.742274 0.297924
20308 1 0.281985 0.743277 0.300859
9579 1 0.299656 0.739357 0.310855
8926 1 0.20266 0.770696 0.299503
6050 2 0.221679 0.746623 0.288512
2140 1 0.21918 0.766361 0.309772
9916 1 0.216484 0.772263 0.285618
6049 1 0.221843 0.75239 0.29371
7852 1 0.221229 0.754516 0.295877
7853 3 0.219817 0.760175 0.301636
7854 1 0.219295 0.764749 0.307448
13713 1 0.241359 0.756247 0.30546
13712 2 0.239513 0.760349 0.311317
2185 1 0.242057 0.75488 0.303272
2186 2 0.242845 0.750685 0.296821
18459 1 0.216816 0.774486 0.288057
19241 2 0.23737 0.772024 0.283028
19240 1 0.237834 0.776005 0.290258
2187 1 0.243887 0.74893 0.287624
12832 1 0.257808 0.764539 0.283992
16314 1 0.243839 0.748068 0.283803
19713 1 0.257315 0.765398 0.286816
7280 2 0.265954 0.747068 0.293647
5870 2 0.262123 0.755298 0.311165
7279 1 0.264015 0.749837 0.301425
5871 1 0.263697 0.75144 0.304249
19712 2 0.257041 0.767933 0.294113
19711 1 0.257746 0.771275 0.301455
6778 1 0.258355 0.772596 0.304073
10664 2 0.300884 0.754465 0.286212
3803 2 0.280956 0.762076 0.284035
20309 2 0.279857 0.745142 0.308634
19122 1 0.277612 0.771267 0.312111
1957 1 0.277735 0.770828 0.309197
10580 2 0.298395 0.759774 0.305824
3804 1 0.279582 0.765017 0.291355
1959 1 0.279638 0.766236 0.29412
1958 2 0.278491 0.767806 0.301817
10663 1 0.299753 0.757064 0.294918
10581 1 0.299377 0.757582 0.297316
8928 1 0.197206 0.783566 0.307483
8927 2 0.199756 0.777101 0.302869
20810 2 0.192094 0.793309 0.28897
20809 1 0.192897 0.785254 0.286591
20811 1 0.189289 0.801084 0.291594
9107 2 0.211949 0.804276 0.288071
7386 1 0.196701 0.786684 0.309052
2449 1 0.237366 0.787831 0.308059
7818 1 0.237318 0.786571 0.30547
18458 2 0.217559 0.77887 0.293975
18457 1 0.218216 0.784404 0.299827
21105 1 0.218433 0.786672 0.302289
7817 2 0.237412 0.783669 0.298676
16128 1 0.23215 0.797709 0.286981
7816 1 0.238173 0.777899 0.292454
21104 2 0.218839 0.79287 0.307219
21583 1 0.232048 0.799264 0.289784
21584 2 0.232755 0.804727 0.294694
21103 1 0.217669 0.798691 0.312951
10190 2 0.272518 0.805559 0.282583
3839 2 0.252304 0.793363 0.286676
3840 1 0.251075 0.79743 0.293129
14013 1 0.251506 0.798918 0.2964
14012 2 0.251531 0.801204 0.304641
11652 1 0.271905 0.79315 0.307519
13744 1 0.271389 0.794243 0.310424
17438 2 0.271112 0.7821 0.283453
17437 1 0.270284 0.785566 0.29088
11650 1 0.27024 0.786815 0.293084
11651 2 0.27138 0.790553 0.299608
6779 2 0.258316 0.776739 0.311253
14011 1 0.251234 0.803258 0.312471
17043 1 0.289871 0.795587 0.28326
17042 2 0.289092 0.797954 0.290637
14183 2 0.295024 0.776229 0.288546
1743 1 0.289407 0.803463 0.299682
17041 1 0.289534 0.802178 0.297127
14184 1 0.293886 0.778856 0.29589
4917 1 0.293379 0.779681 0.298653
4916 2 0.29194 0.782322 0.306885
6676 1 0.211214 0.824602 0.31091
14916 1 0.210937 0.822539 0.308811
2754 1 0.212369 0.83652 0.285291
285 1 0.212018 0.837383 0.287855
9108 1 0.211272 0.810221 0.294146
14914 1 0.210732 0.812174 0.296228
14915 2 0.211143 0.817653 0.302448
14042 2 0.231225 0.836144 0.312554
15676 1 0.230968 0.822986 0.284918
19363 1 0.230803 0.824298 0.287394
19365 1 0.231555 0.832047 0.301486
19364 2 0.230921 0.828434 0.29484
21585 1 0.233499 0.809369 0.301677
13119 1 0.233423 0.810573 0.304478
14043 1 0.231602 0.833339 0.304606
13118 2 0.233372 0.812887 0.311092
8577 1 0.266947 0.830091 0.284003
13575 1 0.267092 0.837983 0.301739
18260 2 0.251497 0.82435 0.304881
18861 1 0.251004 0.820217 0.295694
18860 2 0.251302 0.818153 0.287891
18261 1 0.251128 0.821073 0.298437
10189 1 0.271754 0.810456 0.289829
8575 1 0.267079 0.837099 0.298552
8576 2 0.267681 0.834392 0.290759
10185 1 0.271742 0.811771 0.292064
10183 1 0.270744 0.816252 0.306357
2127 1 0.27104 0.817095 0.309074
10184 2 0.271041 0.813546 0.299523
18259 1 0.252004 0.827849 0.312437
1742 2 0.289898 0.807192 0.307579
6273 1 0.288929 0.827509 0.291491
6272 2 0.288971 0.823067 0.285067
6176 2 0.287666 0.830188 0.302111
6177 1 0.288922 0.828361 0.294452
6175 1 0.28695 0.831567 0.3097
16878 1 0.286736 0.832017 0.312674
5791 1 0.166643 0.867508 0.302958
284 2 0.211499 0.839818 0.295159
14917 1 0.211348 0.856959 0.283551
283 1 0.212663 0.843472 0.30273
3673 1 0.212274 0.844437 0.305366
14919 1 0.210732 0.863212 0.30011
14918 2 0.21055 0.859527 0.291803
20233 1 0.186288 0.857536 0.313331
3674 2 0.210691 0.848827 0.312388
6981 1 0.228468 0.85313 0.296252
6980 2 0.227628 0.849069 0.288826
19484 2 0.228257 0.857896 0.305874
19485 1 0.228293 0.854229 0.299435
19483 1 0.227897 0.862079 0.313014
12150 1 0.248438 0.852591 0.304729
13759 1 0.248955 0.853417 0.286993
7311 1 0.24794 0.852515 0.30763
12148 1 0.24891 0.853111 0.290137
13574 2 0.267418 0.839611 0.309511
12149 2 0.248851 0.8525 0.297457
1451 3 0.286626 0.846301 0.287558
13471 1 0.288215 0.851636 0.312824
13472 2 0.286514 0.850169 0.305113
1452 1 0.286493 0.849004 0.294629
13473 1 0.286171 0.849698 0.297775
18606 1 0.2522 0.71117 0.318719
14839 1 0.19543 0.744287 0.320021
5808 1 0.224976 0.743604 0.318975
5898 1 0.225992 0.741847 0.317324
1019 2 0.26489 0.739462 0.338633
4487 2 0.24852 0.741442 0.32031
2675 2 0.269364 0.731662 0.322462
2674 1 0.267173 0.734679 0.329607
1020 1 0.266364 0.736396 0.332221
2676 1 0.270982 0.726834 0.316788
1018 1 0.263049 0.743989 0.34404
14689 1 0.27167 0.724525 0.313715
17935 1 0.296099 0.722147 0.331049
17937 1 0.286795 0.728259 0.341931
17936 3 0.291898 0.724802 0.33627
16070 2 0.297467 0.74233 0.322275
16071 1 0.296454 0.744198 0.330217
8169 1 0.297955 0.721062 0.328692
15381 1 0.295946 0.74499 0.333437
8168 2 0.302939 0.717527 0.323935
3694 1 0.285357 0.729029 0.343673
16069 1 0.299158 0.740759 0.314006
1354 1 0.19318 0.761609 0.334216
1355 2 0.194469 0.762656 0.341943
14841 1 0.19825 0.758173 0.327042
14840 2 0.195675 0.751053 0.323996
7059 1 0.22045 0.756966 0.331986
5806 1 0.220807 0.754927 0.329501
5807 2 0.222425 0.749069 0.323564
7058 2 0.220384 0.761441 0.337563
7057 1 0.21875 0.765848 0.343808
14837 2 0.237857 0.770962 0.326299
14838 1 0.237985 0.766769 0.319864
13711 1 0.238062 0.764977 0.317569
12935 2 0.242373 0.750808 0.335939
12936 1 0.241111 0.753967 0.343204
14836 1 0.236589 0.775257 0.333042
2141 2 0.218729 0.771276 0.316619
4488 1 0.245045 0.745012 0.327187
12934 1 0.244113 0.746939 0.32973
21592 1 0.257734 0.766795 0.336259
21593 2 0.25923 0.76479 0.328676
14322 1 0.256975 0.767312 0.33914
21594 1 0.260066 0.760576 0.322242
5869 1 0.260492 0.759102 0.319294
116 2 0.274751 0.757735 0.342501
115 1 0.276236 0.754521 0.335701
15052 1 0.276787 0.753526 0.332978
15380 2 0.294033 0.747972 0.340979
5331 1 0.293499 0.768355 0.335816
3934 1 0.294423 0.767797 0.332826
5330 2 0.291927 0.77094 0.343105
3935 2 0.295165 0.765599 0.325019
15053 2 0.277489 0.751553 0.325347
19121 2 0.277414 0.773597 0.319805
20310 1 0.2788 0.748797 0.315846
15054 1 0.278543 0.749291 0.318869
3936 1 0.296159 0.763573 0.316657
10579 1 0.296907 0.762825 0.313647
8779 1 0.194208 0.802159 0.321264
7384 1 0.194648 0.799596 0.319687
7385 2 0.196157 0.793191 0.314003
2142 1 0.219283 0.776546 0.322986
3547 1 0.215842 0.789327 0.338128
448 1 0.216298 0.787849 0.336169
449 2 0.218158 0.783725 0.330379
21149 2 0.233872 0.780532 0.341829
21148 1 0.235692 0.776672 0.335318
2451 1 0.236262 0.795004 0.32295
11722 1 0.235841 0.796592 0.325318
11723 2 0.234359 0.799846 0.331538
450 1 0.219226 0.778684 0.325046
107 2 0.21596 0.805213 0.322147
2450 2 0.236494 0.790862 0.316248
11724 1 0.232789 0.803969 0.339659
3548 2 0.21444 0.793089 0.344399
108 1 0.217423 0.800775 0.315367
19032 1 0.232246 0.805623 0.342051
8766 1 0.254368 0.790114 0.335317
16992 1 0.253292 0.791186 0.337963
8765 2 0.25656 0.786893 0.328076
13746 1 0.271909 0.800402 0.323126
17317 1 0.271973 0.801686 0.326486
17318 2 0.271877 0.804175 0.333267
8764 1 0.25841 0.782631 0.321086
6780 1 0.258582 0.781117 0.318222
13745 2 0.271299 0.798008 0.317307
16139 2 0.25265 0.806843 0.322648
16140 1 0.251206 0.804126 0.315443
16991 2 0.250844 0.79476 0.344566
502 1 0.289417 0.786602 0.316592
17071 1 0.274085 0.784275 0.343341
17072 2 0.276083 0.78126 0.336793
19120 1 0.277263 0.777052 0.327345
17073 1 0.276747 0.778223 0.32964
504 1 0.289876 0.792712 0.330992
503 2 0.29079 0.790426 0.322798
12532 1 0.289509 0.793446 0.33338
12533 2 0.289773 0.797221 0.340142
4915 1 0.289653 0.78533 0.313777
8781 1 0.192224 0.815492 0.329758
4575 1 0.191958 0.818016 0.331125
4574 2 0.191798 0.825331 0.334836
4573 1 0.191473 0.832703 0.338653
1162 1 0.190848 0.835429 0.339508
17522 2 0.211867 0.816906 0.33678
6678 1 0.2126 0.832185 0.323757
6677 2 0.211439 0.827746 0.31718
17521 1 0.209389 0.821703 0.342672
8780 2 0.193828 0.809213 0.32603
17523 1 0.212636 0.811907 0.330217
7269 1 0.212907 0.834062 0.326476
106 1 0.213452 0.810515 0.328297
5849 2 0.231666 0.821535 0.329122
5850 1 0.231366 0.826962 0.336194
5848 1 0.232395 0.816475 0.321594
10543 1 0.230998 0.828984 0.338513
13117 1 0.232581 0.814759 0.31882
17319 1 0.271133 0.808063 0.340738
16138 1 0.252548 0.810644 0.329159
5674 1 0.252212 0.812554 0.332228
5675 2 0.251446 0.815254 0.338669
11018 2 0.250985 0.832466 0.322385
19217 2 0.269906 0.827045 0.333489
19218 1 0.271948 0.824428 0.326855
2125 1 0.271797 0.823362 0.324256
19216 1 0.26943 0.829256 0.341237
11017 1 0.251195 0.834796 0.329279
11251 1 0.251068 0.836 0.332522
2126 2 0.272006 0.820834 0.316892
4132 1 0.269035 0.830218 0.34415
190 1 0.270627 0.809714 0.343008
11019 1 0.251816 0.829439 0.315639
5770 1 0.290348 0.816443 0.333907
5894 2 0.288939 0.818516 0.344078
5893 1 0.290037 0.816875 0.337274
5771 2 0.289782 0.813667 0.326266
16877 2 0.288142 0.833966 0.320636
16876 1 0.289327 0.835897 0.329053
5772 1 0.290635 0.810855 0.318374
11926 1 0.289448 0.836494 0.331674
1741 1 0.290565 0.809629 0.315329
4508 3 0.168922 0.864542 0.337657
4509 1 0.172528 0.864966 0.330118
892 1 0.209483 0.867021 0.33502
7268 2 0.212228 0.839174 0.332867
1163 2 0.189636 0.84304 0.341708
20234 3 0.1858 0.863028 0.318699
7267 1 0.210662 0.843233 0.339943
15925 1 0.210693 0.844839 0.342824
5883 1 0.209468 0.865443 0.333063
5882 2 0.208973 0.859854 0.327289
3675 1 0.208731 0.852897 0.318666
5881 1 0.208648 0.85459 0.320869
20235 1 0.187856 0.868369 0.325869
10806 1 0.22808 0.864198 0.315943
14204 2 0.232569 0.847166 0.328011
14203 1 0.231949 0.852522 0.334319
10934 2 0.231292 0.856595 0.343125
10935 1 0.232112 0.853888 0.336632
14205 1 0.231164 0.841506 0.321151
14041 1 0.231036 0.83988 0.318989
10805 2 0.22953 0.868547 0.322578
2485 1 0.248595 0.865115 0.338143
13825 1 0.248967 0.866598 0.340865
7310 2 0.248887 0.853267 0.314212
7309 1 0.248657 0.855447 0.321722
11252 2 0.251512 0.839696 0.339414
2487 1 0.248837 0.856783 0.324273
3679 1 0.26925 0.850081 0.335116
3680 2 0.267913 0.845612 0.327571
5053 1 0.269649 0.851875 0.337632
2486 2 0.248257 0.860974 0.330649
3681 1 0.268177 0.84204 0.320481
5054 2 0.269702 0.856601 0.343492
13573 1 0.268218 0.841223 0.317372
8648 2 0.290346 0.861895 0.340621
11927 2 0.289402 0.838347 0.339852
3051 1 0.288259 0.852178 0.316049
3050 2 0.288278 0.854138 0.323742
3049 1 0.289644 0.856487 0.330865
8647 1 0.290041 0.857297 0.333374
12738 1 0.298381 0.712898 0.376202
11404 1 0.203009 0.737262 0.348666
11405 3 0.210543 0.73838 0.350062
11406 1 0.218996 0.739397 0.350957
20517 1 0.222279 0.739406 0.351915
20516 2 0.230821 0.738846 0.354024
20515 1 0.238323 0.740166 0.352845
13148 2 0.272021 0.738934 0.366585
13149 1 0.271018 0.743683 0.373028
3695 2 0.280246 0.731227 0.350659
13147 1 0.275116 0.735161 0.359519
3696 1 0.276383 0.734265 0.357215
9142 1 0.295253 0.733477 0.371306
4968 1 0.293049 0.734956 0.373544
9143 2 0.300506 0.728371 0.3675
3881 2 0.197723 0.771647 0.359368
3880 1 0.197386 0.767776 0.352858
1356 1 0.196777 0.766272 0.350276
17934 1 0.218255 0.767824 0.345911
17242 1 0.240805 0.754818 0.345406
17243 2 0.238493 0.758784 0.351938
17244 1 0.237715 0.764572 0.358108
7335 1 0.236888 0.766296 0.360074
7334 2 0.234546 0.770796 0.366697
17933 2 0.217438 0.773137 0.351526
7333 1 0.23297 0.775319 0.372616
14321 2 0.254034 0.770401 0.344947
3003 1 0.262248 0.745506 0.346314
3002 2 0.25975 0.748312 0.352011
11952 1 0.268343 0.771769 0.368775
3001 1 0.254833 0.75199 0.358583
4329 1 0.253757 0.752975 0.361234
11951 2 0.266701 0.774996 0.375514
4328 2 0.251197 0.75538 0.369048
3552 1 0.268833 0.770685 0.366187
3551 2 0.270377 0.765661 0.359995
117 1 0.272162 0.760294 0.349851
4309 1 0.270567 0.745317 0.37536
3550 1 0.271297 0.761489 0.352681
14320 1 0.251925 0.775126 0.352314
15379 1 0.293014 0.751195 0.348047
5329 1 0.291183 0.773456 0.350549
10642 1 0.292306 0.752476 0.350878
10643 2 0.290557 0.756034 0.357266
10644 1 0.290625 0.759664 0.364637
11113 1 0.290375 0.760262 0.366788
11114 2 0.287784 0.762617 0.374672
9943 1 0.290907 0.774572 0.35265
3882 1 0.196969 0.77634 0.366332
7986 1 0.21061 0.786643 0.374304
3549 1 0.212754 0.797635 0.349952
18561 1 0.211797 0.799646 0.352853
18560 2 0.210647 0.804029 0.359521
17932 1 0.217469 0.777227 0.358129
7985 2 0.21457 0.78291 0.367508
7984 1 0.217065 0.77869 0.360551
21150 1 0.234049 0.784037 0.347957
11073 1 0.233411 0.785563 0.350874
11072 2 0.231845 0.788423 0.358797
11071 1 0.231391 0.793489 0.364753
11659 1 0.231154 0.795584 0.367384
11660 2 0.231066 0.800448 0.37363
21532 1 0.23235 0.776409 0.375393
322 1 0.273247 0.785767 0.346036
16990 1 0.250643 0.79905 0.351667
3999 1 0.251603 0.777138 0.354751
4837 1 0.25049 0.800286 0.354249
3997 1 0.250488 0.784755 0.36876
3998 2 0.251162 0.781277 0.361359
20011 1 0.250011 0.785711 0.371254
5858 2 0.267489 0.79675 0.36998
5857 1 0.270008 0.793982 0.363014
324 1 0.270533 0.793347 0.360214
323 2 0.272682 0.79082 0.352503
4838 2 0.250687 0.803521 0.36102
4839 1 0.251179 0.806761 0.367851
12534 1 0.290073 0.799587 0.347741
9944 2 0.289528 0.77835 0.359743
9945 1 0.288848 0.783064 0.366234
2340 1 0.289529 0.78475 0.369065
12003 1 0.290374 0.800834 0.350815
12002 2 0.289731 0.803551 0.358355
12001 1 0.29028 0.80636 0.365691
5074 1 0.186035 0.819359 0.369774
12880 1 0.203133 0.82984 0.359933
14001 1 0.202819 0.830954 0.362189
12882 1 0.208531 0.823035 0.345466
12881 2 0.206616 0.826667 0.353805
12671 2 0.209655 0.81343 0.375291
14000 3 0.201431 0.834709 0.369223
12672 1 0.210499 0.809967 0.368207
18559 1 0.210735 0.808292 0.366077
5075 3 0.184127 0.824465 0.375626
10544 2 0.230018 0.834404 0.345469
19031 2 0.230099 0.809271 0.34884
19030 1 0.228502 0.814094 0.355366
6541 1 0.227492 0.816212 0.357554
6542 2 0.226482 0.821068 0.364392
6543 1 0.225709 0.826107 0.369447
9429 1 0.225777 0.828462 0.371565
5676 1 0.248687 0.818976 0.346685
191 2 0.2701 0.813881 0.349617
4133 2 0.268379 0.834125 0.351577
15792 1 0.24794 0.819846 0.348782
15791 2 0.247394 0.823706 0.356056
18046 1 0.251116 0.807844 0.36995
6365 2 0.267665 0.81953 0.367678
15790 1 0.24857 0.826824 0.363541
6364 1 0.269026 0.817669 0.359908
192 1 0.269758 0.816792 0.35733
706 1 0.249205 0.828082 0.365882
707 2 0.248361 0.833275 0.373381
6366 1 0.267426 0.821848 0.375531
12117 1 0.290208 0.807171 0.368331
5895 1 0.28769 0.821586 0.351345
4074 1 0.28757 0.822836 0.354202
4073 2 0.287327 0.825848 0.362367
4072 1 0.285739 0.829318 0.369008
13468 1 0.285059 0.830564 0.372121
12116 2 0.289598 0.809526 0.37605
4507 1 0.166648 0.864532 0.345258
14922 1 0.154066 0.84508 0.359272
14921 3 0.162471 0.845578 0.362086
14920 1 0.170433 0.847013 0.364547
21508 1 0.165974 0.864916 0.348144
21509 3 0.163283 0.867047 0.355917
11598 1 0.186076 0.842152 0.366336
1164 1 0.188033 0.849552 0.345744
10651 1 0.187639 0.852438 0.347321
11597 3 0.185918 0.847015 0.372193
9768 1 0.185963 0.866879 0.359814
10653 1 0.186272 0.864724 0.357594
2660 3 0.20529 0.858572 0.365066
2661 1 0.208583 0.854593 0.358705
10652 3 0.186024 0.859159 0.351707
13999 1 0.201134 0.839078 0.37547
15927 1 0.209422 0.853065 0.356044
15926 3 0.210015 0.848914 0.349183
2659 1 0.205031 0.864117 0.371696
12100 1 0.204492 0.866143 0.374376
10545 1 0.230278 0.838733 0.352119
10933 1 0.232017 0.859499 0.350094
2715 1 0.232276 0.860405 0.352818
19029 1 0.230653 0.840216 0.354262
19028 2 0.229995 0.844239 0.361195
19027 1 0.228254 0.848478 0.367667
2641 1 0.227488 0.849993 0.370667
2714 3 0.233365 0.864634 0.359589
1170 1 0.271087 0.869001 0.367342
11253 1 0.251919 0.843539 0.34567
18294 1 0.252065 0.844828 0.348451
19701 1 0.268234 0.839777 0.360563
4134 1 0.268507 0.838287 0.358549
14591 2 0.25189 0.861443 0.369894
18293 2 0.251301 0.8486 0.355912
18292 1 0.250454 0.854102 0.361668
14592 1 0.250326 0.856246 0.363938
19700 2 0.268031 0.842879 0.367925
19699 1 0.267493 0.846637 0.375523
1168 1 0.271291 0.863335 0.352991
5055 1 0.270878 0.861769 0.349985
1169 2 0.271012 0.865973 0.359916
11928 1 0.288143 0.840709 0.346688
8649 1 0.290887 0.865813 0.347895
14784 1 0.287255 0.841992 0.349447
14783 2 0.285091 0.845675 0.35573
14782 1 0.283751 0.849382 0.361566
16135 1 0.284083 0.850828 0.364498
16136 3 0.285014 0.854204 0.372493
5890 1 0.290605 0.867376 0.350273
16370 2 0.281115 0.724123 0.395109
12737 2 0.293149 0.714842 0.381609
16371 1 0.286718 0.719971 0.389296
12736 1 0.288875 0.71836 0.387247
9624 1 0.276216 0.728989 0.402893
16369 1 0.278039 0.727572 0.400958
4967 2 0.28966 0.73907 0.378678
4966 1 0.287391 0.74285 0.385081
14833 1 0.286747 0.744077 0.38745
4530 1 0.302842 0.735918 0.395294
4327 1 0.250474 0.755121 0.376645
4310 2 0.26978 0.749774 0.381
9837 1 0.267983 0.755643 0.387525
4311 1 0.26867 0.754085 0.386104
9836 2 0.26534 0.760177 0.393724
9835 1 0.261789 0.76497 0.398885
14834 2 0.284817 0.748253 0.394177
14835 1 0.282925 0.751277 0.400834
11115 1 0.285679 0.765016 0.381786
4480 1 0.285287 0.766451 0.384182
4481 2 0.284502 0.76977 0.392383
4482 1 0.282992 0.772804 0.399776
18958 1 0.282065 0.774547 0.403035
18701 2 0.299769 0.760886 0.405073
3387 1 0.282074 0.752403 0.403482
18700 1 0.30173 0.759132 0.397307
13242 1 0.302729 0.758278 0.394696
10546 1 0.209225 0.78783 0.376614
10547 2 0.205192 0.791565 0.381785
10548 1 0.201675 0.796029 0.388161
18216 1 0.200253 0.797686 0.390667
18215 3 0.198552 0.803755 0.39559
11661 1 0.229162 0.803308 0.380099
21533 2 0.230458 0.778752 0.383924
21534 1 0.226933 0.7813 0.390672
2619 1 0.224953 0.782861 0.392813
2618 3 0.221465 0.786575 0.398191
751 1 0.228111 0.804694 0.382814
2617 1 0.219537 0.7923 0.403927
2161 1 0.219304 0.794716 0.405952
15502 1 0.242699 0.801657 0.404512
20012 2 0.250026 0.789503 0.378222
5859 1 0.266907 0.799466 0.377364
11950 1 0.265061 0.778717 0.383227
826 1 0.26434 0.779368 0.386373
1140 1 0.243458 0.800425 0.402416
20013 1 0.248717 0.792582 0.385652
9120 1 0.266988 0.800623 0.379421
1139 2 0.245612 0.796796 0.395265
1138 1 0.248017 0.793863 0.388067
827 2 0.262742 0.781043 0.394512
828 1 0.26234 0.783579 0.402651
2077 1 0.261663 0.785127 0.405193
9119 2 0.26615 0.804663 0.387298
3030 1 0.302987 0.779103 0.396843
11077 1 0.302517 0.780054 0.399539
18641 2 0.303302 0.805719 0.40226
2339 2 0.288953 0.787735 0.376653
2338 1 0.289454 0.790754 0.384847
5143 1 0.288976 0.791721 0.387483
5144 2 0.287028 0.794319 0.394597
5145 1 0.285616 0.797259 0.40194
19081 1 0.285252 0.798223 0.404097
11078 2 0.302311 0.783735 0.406876
18670 1 0.169814 0.837927 0.378593
5076 1 0.182387 0.828791 0.382703
18214 1 0.196076 0.809503 0.400209
12670 1 0.208285 0.816487 0.381839
3755 3 0.208085 0.823174 0.390604
3756 1 0.207336 0.827492 0.397813
18099 1 0.207339 0.828907 0.400258
3754 1 0.208001 0.817935 0.384712
14997 1 0.18256 0.830362 0.385415
20028 1 0.195016 0.812037 0.401885
20027 3 0.192224 0.817588 0.406566
18098 3 0.206294 0.83308 0.406956
14996 3 0.183932 0.832971 0.392993
752 2 0.227112 0.808211 0.388839
753 1 0.225679 0.813053 0.395363
21229 1 0.225155 0.814625 0.39747
21230 3 0.22304 0.819904 0.403554
9428 3 0.225255 0.832843 0.378637
9427 1 0.225411 0.836259 0.385858
4080 1 0.225003 0.837389 0.388558
2405 3 0.24116 0.835667 0.407478
18047 2 0.250415 0.81211 0.377111
2446 1 0.267321 0.822929 0.378636
9118 1 0.2652 0.808716 0.3947
67 1 0.264605 0.809769 0.397071
18048 1 0.248978 0.816668 0.383757
21141 1 0.24425 0.828706 0.398457
2404 1 0.243936 0.830563 0.400891