ITEM: TIMESTEP
0
ITEM: NUMBER OF ATOMS
303
ITEM: BOX BOUNDS pp pp pp
0.0000000000000000e+00 5.0000000000000000e+01
0.0000000000000000e+00 5.0000000000000000e+01
0.0000000000000000e+00 5.0000000000000000e+01
ITEM: ATOMS id type 
247 1 
248 2 
249 1 
1267 1 
1268 2 
1269 1 
3250 1 
3251 2 
3252 1 
4447 1 
4448 2 
4449 1 
9010 1 
9011 2 
9012 1 
10441 1 
10442 2 
10443 1 
493 1 
494 3 
495 1 
1522 1 
1523 2 
1524 1 
2473 1 
2474 2 
2475 1 
5779 1 
5780 2 
5781 1 
7876 1 
7877 2 
7878 1 
9319 1 
9320 2 
9321 1 
10099 1 
10100 2 
10101 1 
2254 1 
2255 3 
2256 1 
2308 1 
2309 2 
2310 1 
3268 1 
3269 2 
3270 1 
8965 1 
8966 2 
8967 1 
10228 1 
10229 2 
10230 1 
10474 1 
10475 3 
10476 1 
3706 1 
3707 2 
3708 1 
4663 1 
4664 2 
4665 1 
9346 1 
9347 3 
9348 1 
10537 1 
10538 2 
10539 1 
5515 1 
5516 2 
5517 1 
5692 1 
5693 2 
5694 1 
8212 1 
8213 2 
8214 1 
8938 1 
8939 2 
8940 1 
9355 1 
9356 2 
9357 1 
2047 1 
2048 2 
2049 1 
2767 1 
2768 2 
2769 1 
5344 1 
5345 2 
5346 1 
6064 1 
6065 2 
6066 1 
6547 1 
6548 3 
6549 1 
4936 1 
4937 2 
4938 1 
5176 1 
5177 2 
5178 1 
6193 1 
6194 2 
6195 1 
7702 1 
7703 2 
7704 1 
9559 1 
9560 2 
9561 1 
9676 1 
9677 2 
9678 1 
6454 1 
6455 2 
6456 1 
7594 1 
7595 2 
7596 1 
9514 1 
9515 3 
9516 1 
940 1 
941 2 
942 1 
1837 1 
1838 2 
1839 1 
2986 1 
2987 2 
2988 1 
5203 1 
5204 2 
5205 1 
8440 1 
8441 2 
8442 1 
8443 1 
8444 2 
8445 1 
9700 1 
9701 2 
9702 1 
10603 1 
10604 2 
10605 1 
10903 1 
10904 2 
10905 1 
6538 1 
6539 2 
6540 1 
7315 1 
7316 2 
7317 1 
10918 1 
10919 2 
10920 1 
14221 1 
14222 2 
14223 1 
16570 1 
16571 2 
16572 1 
18367 1 
18368 2 
18369 1 
12574 1 
12575 2 
12576 1 
13345 1 
13346 2 
13347 1 
13594 1 
13595 2 
13596 1 
15505 1 
15506 2 
15507 1 
15634 1 
15635 2 
15636 1 
17491 1 
17492 2 
17493 1 
20854 1 
20855 3 
20856 1 
11317 1 
11318 2 
11319 1 
12166 1 
12167 2 
12168 1 
12637 1 
12638 2 
12639 1 
13180 1 
13181 2 
13182 1 
14266 1 
14267 2 
14268 1 
14386 1 
14387 2 
14388 1 
14617 1 
14618 2 
14619 1 
15586 1 
15587 3 
15588 1 
16366 1 
16367 2 
16368 1 
12298 1 
12299 2 
12300 1 
14278 1 
14279 3 
14280 1 
17452 1 
17453 2 
17454 1 
18832 1 
18833 2 
18834 1 
18835 1 
18836 2 
18837 1 
20812 1 
20813 2 
20814 1 
20875 1 
20876 2 
20877 1 
13930 1 
13931 2 
13932 1 
16261 1 
16262 2 
16263 1 
17050 1 
17051 2 
17052 1 
21184 1 
21185 2 
21186 1 
11779 1 
11780 2 
11781 1 
15193 1 
15194 2 
15195 1 
16822 1 
16823 2 
16824 1 
20116 1 
20117 2 
20118 1 
20359 1 
20360 2 
20361 1 
11965 1 
11966 2 
11967 1 
15085 1 
15086 2 
15087 1 
15094 1 
15095 3 
15096 1 
16285 1 
16286 2 
16287 1 
17008 1 
17009 2 
17010 1 
19171 1 
19172 2 
19173 1 
20014 1 
20015 2 
20016 1 
12877 1 
12878 2 
12879 1 
13057 1 
13058 3 
13059 1 
16798 1 
16799 2 
16800 1 
20215 1 
20216 2 
20217 1 
20509 1 
20510 3 
20511 1 
