ITEM: TIMESTEP
35000000
ITEM: NUMBER OF ATOMS
2817
ITEM: BOX BOUNDS pp pp pp
0.0000000000000000e+00 5.0000000000000000e+01
0.0000000000000000e+00 5.0000000000000000e+01
0.0000000000000000e+00 5.0000000000000000e+01
ITEM: ATOMS id type vx vy vz 
12000 1 3.99013 -1.47835 -3.21603 
11999 3 1.37441 1.71562 1.56331 
5504 3 -4.07748 -0.88306 -0.374685 
5505 1 -1.55549 -0.22824 3.68287 
1771 1 -0.732796 -1.79904 3.06077 
5503 1 -3.20402 0.792185 -0.00994979 
12046 1 4.05972 -0.668339 -4.41051 
12048 1 -2.54023 -0.331647 3.8086 
20545 1 1.95259 2.93282 1.50233 
12047 2 2.52794 0.0319176 3.09595 
20546 3 1.35601 -5.07588 1.8339 
13379 3 1.93843 -1.75788 0.105856 
13380 1 -2.63161 -5.70306 1.3219 
8824 1 -3.45728 -5.55361 -6.00584 
9773 2 -3.12518 -3.74794 1.15479 
9772 1 -2.50974 0.339461 -1.25499 
9774 1 0.0765138 3.15004 0.5016 
2276 2 0.972813 -0.924407 -2.33188 
20547 1 -8.30554 -1.94018 -0.956368 
15513 1 -6.74325 -3.81134 4.54063 
16349 2 -2.72216 1.63792 -3.22289 
16348 1 -1.15491 3.45895 -2.05023 
15512 2 -0.419725 -1.47587 0.785619 
15511 1 2.44853 -1.14859 0.721255 
5838 1 -2.49985 0.45997 -2.51587 
1773 1 1.56193 -1.97126 -3.14403 
1772 2 0.229607 -0.308974 2.83747 
16350 1 4.143 -0.437468 -1.05945 
15769 1 -3.24227 0.769629 -6.63842 
7833 1 -4.66251 -2.13807 -1.60835 
18484 1 -6.40362 -4.05913 1.4906 
18485 2 5.62365 -2.11171 3.14268 
8826 1 3.1746 0.857403 1.25875 
8825 2 4.81977 -1.68099 0.910834 
15310 1 -2.41398 2.29891 3.10512 
4401 1 -0.249858 1.24223 -1.92645 
9063 1 -2.22821 0.185998 2.76729 
18486 1 3.40647 -0.167784 7.59962 
9061 1 1.89989 -0.155911 2.5306 
9062 3 2.32434 1.82567 0.28211 
15312 1 2.74575 3.71982 -4.17519 
16266 1 -2.0385 3.44721 4.24327 
16265 2 0.289902 -5.08242 0.688318 
16264 1 -3.17549 0.968724 2.2129 
1281 1 3.08948 11.4715 -3.51857 
15311 3 0.0825799 0.996508 -1.86314 
2277 1 1.81267 1.77588 2.75039 
1280 2 0.879974 2.21707 0.0422148 
19811 2 -0.0961966 0.0654376 -2.53933 
19810 1 7.7682 1.24905 3.40772 
5347 1 -1.13589 -2.77091 8.72932 
4177 1 -0.860759 0.532536 -0.148102 
11874 1 6.79858 0.0569221 1.56393 
5348 2 2.54753 -5.19255 -0.460328 
9630 1 3.2986 -2.42258 -2.87033 
18267 1 -7.01252 6.37251 0.32694 
5837 2 1.2686 1.88925 5.66008 
5836 1 -0.302634 0.283297 -2.71128 
4644 1 -1.15162 -1.81548 8.51359 
4643 2 -1.50781 0.649363 4.17148 
18265 1 -2.51753 -0.173768 2.98025 
4642 1 2.62926 -8.01913 -1.38904 
18266 2 -5.42615 -2.64023 0.505111 
21406 1 2.94331 1.03098 -2.02421 
21407 2 -0.0219747 -2.9547 -3.6963 
8153 2 -4.30502 -3.10922 1.96154 
15770 3 3.5288 1.50462 -1.14209 
2880 1 -1.77368 -2.63328 2.89964 
2879 2 0.810197 -2.50846 2.80435 
2878 1 -1.68894 5.23477 5.86029 
7296 1 -4.85939 2.00541 -5.14094 
15771 1 1.65748 -4.75267 -5.47529 
7832 2 -0.062274 -3.59932 -0.968315 
900 1 -0.188978 7.5979 2.445 
7831 1 2.53099 -0.31536 3.39472 
899 2 0.430317 3.00184 3.9323 
898 1 -6.2141 3.23779 0.267781 
237 1 1.86529 -5.91775 -6.01525 
236 2 -1.60905 -4.58428 -2.1692 
7158 1 -1.54215 0.960018 0.0665582 
235 1 4.71438 -0.922801 -4.29254 
3415 1 -5.3795 -7.91085 -2.03391 
3416 3 -2.23993 3.67944 -0.881146 
4399 1 7.0831 -5.31006 0.72136 
3417 1 2.44126 -1.68679 0.801758 
7157 2 2.91727 0.0506403 -1.61761 
4400 2 -0.803777 -1.12006 -2.49572 
5411 2 1.38749 0.599928 -2.72289 
1279 1 -2.96989 -0.127115 1.37581 
10426 1 -1.00334 5.40602 5.54915 
10427 2 -3.38035 -1.03271 3.90835 
10428 1 -4.22675 -4.11499 0.252206 
19657 1 1.91308 1.33515 4.28303 
5410 1 -3.12557 2.24087 7.379 
19812 1 1.51234 2.30735 1.94903 
3412 1 -0.530976 0.479197 2.79478 
3413 2 -2.40213 0.115117 1.46579 
6053 2 2.77115 1.88833 0.348361 
6052 1 -0.860341 -2.76771 2.87473 
11872 1 0.180852 -2.69692 3.61029 
11873 2 -0.961238 -3.87734 -4.25865 
20432 3 3.56152 -0.433382 3.89388 
5349 1 4.64532 4.07428 -4.48292 
3979 1 1.09531 1.3249 -3.01546 
3980 2 2.33794 3.14686 3.84937 
3981 1 -1.43242 -0.40308 -6.42391 
20431 1 4.1908 0.540515 2.99977 
20433 1 -1.39741 0.187969 -0.584573 
9628 1 3.52438 -3.98304 -6.94106 
9629 2 -1.0854 -1.32818 0.331316 
414 1 -2.09434 2.78567 -4.93807 
19494 1 0.202682 9.91512 -2.85742 
413 2 -2.45668 -1.87566 1.86481 
7295 2 5.81076 -2.70053 0.190269 
11564 2 -4.56761 2.01904 -1.20699 
7294 1 -0.180672 0.570621 -0.929349 
11565 1 -1.00161 1.22019 -2.50228 
11563 1 3.88627 -1.95177 1.79396 
261 1 1.16144 2.10896 2.6152 
260 2 2.72445 -2.12799 2.1384 
259 1 0.123072 1.47107 3.73599 
1453 1 -2.99977 -6.64093 2.38424 
1454 2 -0.279313 0.743341 -1.03169 
21408 1 0.569877 3.06127 -2.37122 
412 1 1.39213 1.19929 4.48825 
18589 1 1.52756 -5.00611 3.92845 
13651 1 2.22883 -0.395778 0.184226 
9242 2 0.502724 3.18688 4.50362 
3264 1 1.29676 -3.606 4.88735 
3262 1 -0.335983 3.66651 1.95473 
9243 1 -5.68699 -2.03021 2.70123 
3263 2 -2.66213 1.2306 -4.20063 
14724 1 -2.65097 -2.43003 -1.80781 
1740 1 -4.83272 1.71093 -1.46036 
5620 1 2.4802 -1.87568 0.835042 
1739 2 1.34733 2.94768 4.2151 
1738 1 -0.167317 -0.511637 0.997354 
7156 1 0.710298 -9.80484 -1.87856 
20082 1 0.874454 -6.61662 -0.550781 
20081 2 -0.026709 -0.427158 0.837378 
14722 1 3.65026 3.67957 -3.26395 
14723 2 -0.0272379 -2.75936 0.358728 
17479 1 -2.83673 -1.85973 -3.94974 
17480 2 3.09314 2.24326 -0.00225156 
17481 1 -6.53685 4.03287 -1.87939 
19658 2 -4.46183 -1.38984 3.10098 
19659 1 -5.05304 -5.76338 -2.1435 
13800 1 -2.51827 -0.535097 -0.889345 
13799 2 -1.14876 -2.83536 -0.636122 
8176 1 -1.68865 -5.90347 0.564627 
12951 1 0.694789 -3.7486 1.9935 
12950 2 -2.47276 1.54677 0.405319 
13798 1 1.57808 -0.073818 7.16428 
12903 1 -0.219446 -6.4938 0.151711 
12901 1 -2.87114 3.0179 4.29808 
12902 2 1.08269 -0.00405906 0.779477 
3414 1 3.77805 2.74773 -0.927179 
6054 1 -0.576678 1.58338 -1.48833 
12949 1 -3.74854 8.2938 0.931527 
17351 2 -1.77141 1.29497 1.2399 
17352 1 -2.43583 -3.64926 -6.14826 
17350 1 -1.23124 1.25267 2.1262 
374 3 -1.33436 0.0686085 -3.83076 
375 1 3.10559 -3.05881 0.01313 
5471 2 2.36086 1.33342 -4.76178 
5472 1 1.44219 -1.25975 0.616082 
373 1 -3.9719 -0.362674 3.76734 
310 1 -1.58983 -3.19 -2.03796 
312 1 -3.64932 2.65748 -7.55706 
311 2 -5.38593 -3.99715 5.75824 
18535 1 1.37227 4.61584 2.48736 
3450 1 1.52149 1.63703 4.19479 
19493 2 2.37627 1.47501 0.28407 
3448 1 -4.57299 -2.33195 2.35373 
19492 1 -1.51988 -2.23203 4.15554 
3449 2 -2.05389 -0.344582 7.56143 
6648 1 -5.13503 -1.92019 -1.60639 
6646 1 -7.06136 -0.247789 3.64316 
21313 1 -0.00964526 4.39563 2.50833 
6647 2 -3.05565 0.463674 -1.82083 
21314 2 -0.812153 0.71678 -0.652474 
1455 1 1.99008 2.21135 -0.0503171 
7102 1 0.713352 2.45796 5.66372 
7103 2 -4.85045 -2.3698 -4.64331 
7104 1 -2.09225 1.04037 2.39267 
18778 1 0.705232 4.57912 -6.28221 
11882 2 -2.17945 3.8665 0.163783 
11881 1 -3.75661 1.05391 -2.33957 
11883 1 0.507087 1.53224 -0.695234 
9241 1 4.41605 -1.44601 3.92808 
20868 1 3.58553 2.14455 -1.8382 
20867 2 -2.767 2.96371 1.03485 
5622 1 -0.246166 -1.32958 0.138001 
5621 2 -5.7374 -1.99818 -0.782908 
20866 1 -4.19636 -5.98055 0.683735 
19018 1 6.27621 -7.31939 -1.48972 
9752 2 3.23611 1.35657 -1.27568 
9753 1 4.71147 -2.46061 -6.02147 
9751 1 2.82703 4.48607 -0.688816 
20080 1 4.45064 0.726235 1.99524 
7326 1 0.654516 1.13197 2.85852 
19789 1 -3.10214 1.04111 -5.6336 
19790 2 -0.136521 -1.45194 -3.52784 
9099 1 0.432447 2.49843 -0.294944 
9098 2 2.28942 -3.14456 -0.923123 
9097 1 1.46076 0.872662 -3.08497 
7819 1 -1.24997 -3.69428 4.41195 
7820 2 5.66426 -0.277042 -0.990161 
2762 2 1.15285 -1.12315 2.78494 
2763 1 -11.6642 1.09515 -0.396029 
8178 1 -2.76354 -0.78652 -0.341036 
2761 1 -1.33351 -2.62858 1.61541 
8177 2 -3.63447 0.308045 -1.39835 
18297 1 2.94398 0.61018 -1.67903 
13509 1 -3.67348 -6.40853 0.535297 
5556 1 7.79038 1.84019 1.53965 
20765 2 -7.18721 2.1739 -3.07509 
20766 1 7.71282 2.37837 0.198775 
5554 1 -0.855176 -3.63298 -0.197114 
5555 3 5.24174 -1.13719 -1.98841 
7176 1 -0.610134 -1.73967 -3.61947 
7175 2 0.756863 0.194874 0.858193 
5470 1 -4.98282 0.132384 -1.70635 
2941 1 -2.81879 -0.114465 2.5853 
2942 2 0.377217 1.08912 -0.434708 
2943 1 -0.594363 -1.83011 -2.42274 
15988 1 -1.43655 1.76026 -6.92048 
7174 1 -0.191167 8.79129 4.88046 
15989 2 0.585525 -0.213097 1.84895 
18536 2 0.32753 3.97891 1.54187 
18537 1 -1.88338 6.35678 2.69143 
6275 2 -1.93495 -1.61238 2.82225 
6274 1 -3.25452 -0.707673 -1.96996 
21315 1 5.23045 -3.40852 1.55267 
12350 2 -3.07341 -1.57569 0.0718861 
12351 1 -3.35772 2.56685 1.24273 
8800 1 -5.93853 4.69043 0.320599 
12349 1 -2.85113 -7.19649 0.266751 
18779 2 1.59174 -1.51618 0.744307 
18780 1 1.49701 -5.48201 0.39373 
13332 1 -0.686649 -1.91259 3.77841 
13331 2 1.84545 -3.39358 -1.98054 
17432 2 3.02671 0.233978 -1.39379 
17433 1 1.5508 1.90227 5.44803 
16273 1 1.47305 -3.45369 -3.78883 
13330 1 2.29619 -1.33981 0.269168 
17431 1 3.66584 2.04124 6.36185 
16274 2 2.73828 -1.79886 -0.395894 
16728 1 2.11081 0.524108 -5.03427 
7399 1 -6.58568 0.820057 -0.32546 
16727 2 0.493906 -0.446034 1.3823 
7325 2 -0.194979 1.41005 -5.17255 
19019 2 -1.74182 -0.577102 -2.15249 
16726 1 -1.08116 3.95364 6.41274 
19020 1 7.03401 -1.4075 5.74575 
17946 1 6.66247 1.95183 1.04275 
17945 2 0.784999 -0.352206 -2.36397 
7324 1 -1.77569 1.84042 2.0989 
17944 1 6.03609 3.31658 -2.27058 
20764 1 -6.91872 3.49196 -3.14368 
5659 1 -2.55205 3.95882 -6.06134 
5661 1 0.461022 7.1823 0.791605 
1467 1 2.71845 1.8274 -1.97057 
5660 2 3.50247 2.00716 -5.27304 
1466 2 -1.68797 3.61862 2.84909 
19791 1 -5.76794 0.351355 -2.70638 
7821 1 1.36458 4.07501 -1.21453 
12151 1 -0.464553 2.49885 4.1966 
12152 2 -2.45684 -2.87067 -1.81895 
12153 1 -0.77604 -1.79908 -0.470554 
2778 1 3.41098 -2.94891 4.14874 
12568 1 -0.894767 1.78838 -6.45705 
18295 1 -4.83224 1.76214 -5.06922 
6103 1 -3.66488 -5.1754 2.0165 
6104 2 -5.32826 -2.59299 -2.89176 
18296 2 2.06863 -0.41909 -0.312524 
4909 1 0.590878 -0.138117 -4.99775 
4910 2 -2.63683 -2.38771 1.55936 
4911 1 -7.14557 2.25338 -2.16186 
15990 1 -1.89145 2.91958 -2.29813 
14390 2 -3.0005 3.49539 2.92097 
14389 1 3.55865 2.42078 -4.86805 
9400 1 -5.33898 -4.61334 3.00805 
9402 1 -4.63516 -1.4279 -3.26594 
9401 2 1.74201 0.813269 -2.42652 
6276 1 -0.605878 0.664434 3.11142 
8801 2 -0.719462 -2.16271 3.84987 
3380 3 -0.539053 -0.185647 0.935874 
3381 1 0.623519 1.24462 7.99603 
8802 1 1.65092 3.92243 1.07502 
3379 1 3.61069 -1.088 -3.2996 
9058 1 2.45019 4.24024 -4.24474 
4201 1 -0.133315 -0.710618 0.16434 
1624 1 -8.90348 -5.34184 -0.257237 
4203 1 -3.73416 0.154005 4.22814 
4202 2 -3.82965 -0.584725 -4.59308 
16275 1 2.60612 -2.63202 2.98293 
9847 1 2.14325 -0.321946 -2.03219 
9848 2 -0.721472 1.41214 -2.11927 
9849 1 1.01676 2.00953 -1.72625 
18376 1 -1.49364 3.11859 -5.61131 
1625 2 2.44941 -3.09859 0.7042 
20541 1 4.21232 -0.195658 -0.987038 
20417 3 0.200248 -1.66478 1.28162 
7401 1 -5.79807 0.97754 0.285642 
7400 2 1.11443 -1.41138 0.128454 
7050 1 3.382 3.16032 -4.57031 
7049 2 0.806054 -4.46024 3.05961 
7048 1 5.617 -0.458967 -0.0427077 
5476 1 -2.7296 2.88658 -7.71273 
5477 2 -0.69689 -1.18931 -4.15502 
17603 2 -4.42356 3.53265 -7.02634 
17604 1 -0.107577 4.26266 2.11121 
2777 2 -1.38327 2.86371 0.962238 
2776 1 2.71744 1.31742 5.33333 
20416 1 -0.931096 -1.15128 0.820383 
1977 1 -0.84738 1.11386 0.423008 
1976 2 2.20485 0.840459 -4.33203 
1465 1 -4.24819 6.03322 0.318097 
1975 1 -3.01957 0.453001 -0.493409 
17602 1 3.69581 -8.52845 5.98793 
501 1 -3.43736 -3.50355 -1.37459 
12376 1 0.699672 -2.65631 3.81954 
500 3 -1.39923 -1.63958 -5.3173 
14421 1 -2.95986 -0.469849 3.03575 
12569 2 0.326136 2.52028 -0.175511 
6105 1 1.26681 2.53481 -3.5788 
12378 1 -4.03401 -2.17974 0.568699 
12377 2 -1.53932 1.17886 -0.466492 
492 1 -0.484288 -4.51815 -6.34934 
12570 1 5.87357 -3.85759 1.89459 
491 2 -0.834996 -0.64266 -0.96425 
490 1 -2.1052 1.29062 -5.20289 
5829 1 1.15246 0.686814 -0.890485 
86 2 -3.49305 -0.916088 2.64735 
21167 2 -0.0371242 1.36045 -2.05209 
21166 1 -1.35269 1.11905 2.70264 
87 1 2.45294 0.539755 -0.308394 
85 1 2.64267 0.723326 4.43526 
12430 1 -0.622102 2.57815 0.114965 
6474 1 -1.07701 2.0074 -0.37627 
9059 3 -0.679032 -0.926725 -0.432228 
6473 3 5.04731 -3.20125 0.376584 
9060 1 1.20811 0.322726 -0.483906 
10529 2 -2.05161 2.1822 -0.192572 
14495 2 0.641546 2.53437 0.922214 
12431 3 -4.98497 -2.8623 2.80196 
12432 1 3.5207 5.57996 0.0548745 
1626 1 -0.490936 4.41814 -1.27536 
18377 2 -2.95812 3.05431 4.61546 
10528 1 4.61822 -4.42338 -2.67927 
10530 1 3.00302 -1.6114 -3.54787 
14494 1 -2.12174 0.171921 7.12156 
3169 1 0.359449 2.83945 2.65542 
8513 3 -0.983138 -1.49483 -3.89718 
8512 1 -1.54802 0.1643 -3.98661 
8514 1 0.323569 -1.34186 8.47317 
10756 1 0.539238 -0.799449 -4.33208 
20418 1 -0.576359 2.59761 -0.728011 
20539 1 -5.89367 -6.64067 3.61893 
10757 3 3.61775 -0.0263455 -1.80871 
10758 1 -0.474708 -5.84285 -0.439261 
9484 1 -3.80762 4.7648 -4.18068 
20540 2 -1.30627 0.869258 0.908183 
9485 3 -3.18362 0.614013 4.12022 
8714 2 0.556605 -0.450486 2.16286 
8715 1 -3.45175 0.954462 -1.13185 
18378 1 -2.32573 2.78721 4.0877 
5478 1 -4.86049 2.74945 0.270853 
54 1 0.672833 -5.65807 0.22676 
53 2 -0.500796 1.08972 0.905497 
9367 1 6.6249 -2.09253 -6.26042 
52 1 -2.86748 -5.99029 -3.95196 
8713 1 1.84245 0.0823898 -3.91929 
13605 1 3.7448 0.449053 4.57321 
14419 1 2.28713 1.24298 -0.963147 
14420 2 0.954154 -3.04143 0.148287 
499 1 0.683662 3.17096 -2.67302 
13603 1 -2.45229 4.55868 3.47404 
13604 3 -1.96306 1.14856 -3.36541 
5828 2 -2.84704 -4.19189 3.89414 
5827 1 -3.45717 -0.565767 -1.35548 
7358 2 0.393423 3.75395 2.62335 
7359 1 -1.61481 2.60972 1.72682 
21168 1 -0.237025 0.124313 2.75805 
7357 1 1.07884 3.73021 0.947325 
5816 2 1.6359 1.58571 -2.79457 
9040 1 1.62029 -4.0942 5.7401 
14496 1 8.73863 -1.03006 -0.0607904 
5815 1 0.718714 -2.37246 -1.2774 
5817 1 4.44177 4.22327 -1.74805 
17861 2 2.28458 -5.60886 2.04877 
17860 1 -4.05945 4.82426 3.54143 
5469 1 -6.58987 3.66515 3.94364 
5467 1 -0.93327 -2.2682 2.85925 
6472 1 0.609088 5.46277 -4.9354 
5468 2 3.65528 -4.13899 3.02587 
15077 3 1.36814 -1.57931 -2.52166 
15078 1 -3.02053 -1.07388 -0.748413 
10447 1 -1.85136 5.04408 -1.51529 
8471 3 0.0875286 0.323276 -3.14171 
15076 1 0.906088 5.66822 4.51859 
8470 1 -3.81261 -1.19938 1.01008 
10449 1 -2.71592 -0.174665 1.48225 
10448 2 -4.38364 4.12977 -3.08618 
9486 1 -6.00683 -0.600115 -4.61405 
8472 1 1.43964 0.307696 -4.26603 
4290 1 0.444985 -3.37019 7.91729 
9368 2 -2.33999 -1.9075 -0.700315 
4989 1 -2.27049 4.81026 -3.01279 
9369 1 -4.62175 -2.02697 -1.00519 
4987 1 1.83627 0.679918 1.43215 
4988 2 -3.48791 3.42359 2.74822 
17862 1 1.49929 4.78011 -1.54651 
17827 1 2.41155 -0.414695 -1.69024 
9975 1 -2.455 1.07936 1.70162 
14702 2 -5.09181 -2.63205 2.90396 
14703 1 -1.54101 0.427856 4.86864 
14701 1 -4.57595 1.13389 4.74729 
4045 1 -6.59339 -0.73783 -4.20864 
6249 1 1.93828 5.26785 -2.41603 
9973 1 5.6286 4.58674 0.17175 
9974 3 -1.0197 -1.42099 3.56033 
6314 2 -1.72739 4.00961 -1.37657 
6313 1 -3.94475 -8.59081 5.58233 
9925 1 1.83687 -1.02318 4.35565 
6315 1 -2.62839 -1.89172 7.56665 
4126 1 -0.673952 1.77498 2.45374 
12317 3 1.76813 -1.48286 1.32175 
12318 1 -0.373429 -2.10892 -5.50014 
17829 1 0.0281209 -4.7624 -1.29359 
17828 2 -3.45525 -1.29797 -0.336002 
18475 1 2.46429 2.89417 -1.16044 
15189 1 8.65773 5.54978 4.42918 
15188 3 0.607258 -1.72266 -2.90927 
12278 2 -3.07072 0.646797 0.396255 
12277 1 5.28401 1.51687 0.577958 
12279 1 -1.45494 -0.7156 3.37466 
17809 1 3.42957 -5.95653 -0.0233591 
18476 2 1.39285 -3.94994 -2.73205 
18477 1 -0.0861359 -4.82681 5.44181 
3562 1 2.88879 4.15327 4.22224 
18211 1 0.279128 0.286823 7.08995 
18212 2 1.41526 0.710395 -0.75198 
12789 1 -4.77463 -3.29439 -5.62253 
16407 1 2.18402 0.645407 -2.25187 
16406 2 -1.08226 -1.7779 -1.91738 
9030 1 3.45695 -5.27691 3.71164 
8551 1 -3.00534 -1.89563 -7.87432 
12788 3 -0.893224 -2.32245 -3.70405 
12787 1 -1.54515 3.43803 0.523834 
1579 1 0.692571 -3.23029 7.94242 
1580 3 -2.57964 0.122861 -1.27321 
1581 1 4.03569 1.39326 3.18476 
20682 1 0.204593 3.71389 -2.36037 
20681 3 -0.594596 0.846145 -1.0552 
20680 1 0.414489 3.24871 2.53415 
12466 1 3.66098 -0.0226664 -0.881621 
12467 2 1.8328 -5.24026 3.46332 
8258 3 -4.21847 -0.735784 -3.30763 
4046 3 -0.949481 0.599508 2.00623 
8259 1 -0.951432 -0.606995 -2.33634 
4047 1 -0.265766 -2.98663 0.17542 
966 1 -3.10151 1.34062 -0.55644 
965 3 1.11553 5.47366 0.676895 
964 1 -6.77706 -0.1595 2.89755 
7038 1 3.22185 3.55414 6.30671 
6248 3 -2.74633 1.69651 0.0236861 
6247 1 -4.56149 2.94805 1.21013 
2131 1 -0.310139 -2.28231 0.25495 
2132 3 -5.53876 -0.187899 1.93097 
2133 1 -7.43365 3.09153 -1.58072 
9926 3 1.78263 0.705789 1.58903 
18235 1 -2.15375 -0.958792 2.34814 
9927 1 -0.588891 2.8307 4.01668 
18236 3 -0.677988 -0.848004 0.122827 
18237 1 -7.97075 -0.559924 4.20628 
3057 1 5.50371 -4.19481 1.51695 
17347 1 -4.29689 9.05786 -5.97644 
17348 3 6.02496 1.98098 -0.325936 
17349 1 -3.09603 -2.91053 2.47726 
13378 1 -1.3502 -0.409421 -3.10722 
3056 2 -0.295364 -2.36789 -1.00016 
11998 1 0.0878835 2.58204 -3.9329 
8332 1 -3.14554 1.72697 2.52832 
4127 2 0.478505 -0.921017 -0.436313 
4128 1 3.68545 -1.18218 -3.81937 
5953 1 0.619349 2.81894 -4.95827 
5954 3 1.02006 -2.16496 0.703372 
12316 1 -1.89427 -1.55706 -2.54755 
9741 1 1.38712 5.18638 0.543424 
9740 3 -3.7138 1.85466 0.759361 
6972 1 -5.77915 -5.87509 3.32725 
9739 1 3.14542 -5.29133 -3.20144 
6971 2 -3.41819 -1.15995 1.60517 
10284 1 2.97121 -3.61781 -3.22137 
15187 1 -5.39059 -1.44119 3.92861 
2292 1 1.1578 -1.8104 -6.47083 
2291 3 2.23444 0.750405 3.19713 
2290 1 0.169144 -2.96 1.40196 
10885 1 -4.31874 3.06964 1.50221 
5955 1 1.60709 -3.53522 -0.629644 
10283 2 2.39767 -0.0214037 2.89594 
10282 1 2.90932 -7.73184 1.93002 
17810 3 1.62801 -0.342829 0.387629 
8428 1 8.75049 -4.30949 0.179055 
17811 1 -1.29542 1.76619 -2.14928 
8429 3 -1.08474 1.21243 2.59234 
8430 1 2.64569 -3.16871 -7.69573 
15183 1 0.0992941 1.16117 -2.59423 
10577 3 0.770146 -2.66932 -0.196463 
10576 1 3.40417 1.66147 1.42833 
10578 1 2.36693 3.35558 6.91342 
21312 1 1.98778 1.99685 3.6365 
18213 1 0.511707 -2.07584 1.84576 
9712 1 3.85149 -3.12326 -6.09484 
19869 1 2.74564 -2.05454 4.67336 
9713 3 1.15743 -1.72583 -0.238465 
9714 1 0.761071 4.39353 -0.675702 
3563 3 0.489035 -0.607716 -3.45687 
3564 1 0.803259 -2.40657 1.61582 
18040 1 -0.192069 6.78029 1.82148 
18041 2 4.59854 -3.78642 1.0165 
4360 1 -4.94364 -5.90633 6.4926 
20296 1 7.20116 4.31483 1.24967 
4361 3 1.73065 1.94918 2.55878 
18042 1 -5.94472 -6.59174 -4.13072 
5278 1 3.83719 -2.20403 -1.78841 
20297 3 0.0319342 -2.919 2.93731 
16405 1 4.10995 1.28873 -3.18045 
1088 3 3.04007 -0.771087 2.7865 
1089 1 3.26129 2.02814 3.35559 
574 1 3.31564 -2.48489 -1.01249 
1087 1 1.35061 3.24827 0.539584 
7530 1 -4.57008 4.92039 -3.3703 
8037 1 -7.2353 -0.475036 -4.96072 
8035 1 -4.35744 1.63766 -0.22278 
8036 2 -0.684082 1.99193 -2.14708 
2275 1 -2.03174 1.30529 3.36117 
11591 2 1.26387 -2.10956 -2.58104 
11590 1 0.786743 -1.23628 -1.29288 
11592 1 -1.71642 -6.26673 0.779873 
9029 3 -3.41521 -3.9492 6.72229 
14854 1 -2.87883 -3.44392 3.54693 
9028 1 -0.835059 5.30542 1.585 
14855 2 2.55052 1.01191 -0.358235 
8552 3 3.70435 2.62916 -1.73606 
8553 1 0.198538 -4.0254 5.48493 
17956 1 -5.69637 3.5316 6.98144 
17957 3 0.383666 -0.782994 0.338648 
4362 1 -0.492018 6.16119 1.49942 
1476 1 -2.19405 -2.85201 -2.47946 
1475 3 3.87719 -2.98007 -1.05163 
1474 1 1.66196 4.28269 1.74965 
10216 1 4.15244 2.26834 0.543983 
2917 1 3.02348 0.106195 -2.07238 
12468 1 3.68596 -1.66269 -2.74493 
18514 1 -3.15533 2.73363 4.30097 
16201 1 -3.31779 1.93212 -7.26835 
18516 1 -2.49853 -3.08407 -0.505593 
6085 1 -4.44438 -5.40595 -2.53583 
18515 3 -1.11108 1.44792 1.64048 
16507 1 -9.91138 1.22867 4.17194 
16508 2 -3.91265 5.29274 -0.902049 
16509 1 3.96916 -1.39228 4.51847 
5497 1 1.17396 -2.92875 1.78936 
15060 1 4.17705 -3.62564 -3.98795 
8257 1 2.44087 0.207892 6.56045 
4864 1 -1.30707 -0.886347 -4.74981 
4866 1 0.271714 0.552262 1.87103 
4865 2 -0.510831 -2.97768 -2.86719 
11310 1 -5.9806 5.66568 5.10694 
21500 2 -0.381516 -0.390267 -1.64229 
21499 1 -3.85633 0.180381 1.91817 
21501 1 -0.594735 -1.23346 -3.26872 
6086 2 0.556194 1.13455 -2.21991 
17436 1 0.418903 -0.273107 -3.64234 
17435 2 1.40458 -0.0147698 -0.181535 
8333 2 2.31298 2.72168 0.70519 
7726 1 -2.95501 1.74822 3.86192 
5654 2 1.3214 -6.06922 -1.10697 
7727 2 2.66137 -2.82747 4.02299 
7728 1 -5.12072 3.83064 0.55729 
5655 1 -2.90515 1.44043 -1.01479 
10830 1 1.67601 0.618736 -4.73463 
3055 1 -3.66291 4.4632 3.89492 
7510 1 -2.90377 1.23857 -0.887215 
7512 1 1.58811 -2.50635 -0.652136 
7511 2 0.429145 -5.36207 0.0797685 
19353 1 -0.0716316 1.45788 1.91169 
19352 2 -3.38603 -3.31147 0.338004 
8334 1 -4.45975 -0.788272 3.8711 
19351 1 -2.46494 2.79729 -0.191998 
7037 3 -2.06783 -1.83289 -4.50348 
7036 1 -7.17096 -0.671157 1.30527 
3916 1 0.349436 4.86275 -2.93913 
4115 2 -0.00909474 0.803628 1.58461 
6970 1 5.84885 5.18601 -3.38301 
4116 1 5.07847 1.15439 1.53615 
3917 2 -2.10214 -1.88768 1.303 
4114 1 -1.09634 -4.61985 -8.49069 
931 1 -2.70818 1.81521 1.34937 
9537 1 -0.55824 4.60921 2.13058 
9536 2 -0.589766 0.695119 4.54093 
9535 1 0.526313 -1.00117 2.04659 
7019 2 4.39077 -3.43974 -1.68462 
15811 1 1.29632 -2.58726 4.17865 
1872 1 -1.18251 -6.81004 0.32303 
7018 1 -0.120604 0.741616 3.95711 
15812 2 0.952677 -2.27512 -4.25458 
7020 1 -1.00414 -1.66948 -0.198654 
10887 1 1.39324 7.02583 0.153162 
10886 3 -0.118841 -0.387766 -0.604449 
1871 2 -1.2061 -4.62366 0.302891 
831 1 -1.38196 -2.88426 -8.50619 
830 3 2.13311 -1.81761 -3.84273 
829 1 -1.90562 1.59487 2.69429 
5862 1 -3.16455 -2.79176 -3.3694 
3687 1 1.58842 -3.30163 2.99438 
2286 1 -3.35465 -1.2934 -1.07662 
3685 1 0.0727368 4.22508 -2.20036 
3686 3 3.17232 0.684412 1.79773 
11656 1 0.023698 -8.7424 -2.0635 
11657 3 -2.48078 -2.58173 -0.575602 
15181 1 -4.01876 -6.13805 1.08493 
15182 2 0.742407 -4.21206 3.17521 
769 1 -4.45412 -2.07234 -3.43997 
770 2 -3.30169 0.804726 3.97384 
14534 2 -4.93042 -0.0422673 -5.67498 
14535 1 0.873644 -4.5291 2.01414 
14533 1 -2.04849 -2.08581 0.255249 
7528 1 2.85714 -1.24556 0.0728495 
2278 1 3.54559 5.89569 0.0600832 
7191 1 -5.70793 -1.21321 -2.53646 
7190 2 7.96516 1.3446 -1.34835 
7189 1 -0.235432 -4.29512 2.15925 
17574 1 0.540747 -2.99998 2.51251 
20919 1 -2.20156 1.66369 -2.6046 
17573 2 -2.87348 -8.30738 0.232133 
20918 2 -5.2754 0.521628 -3.99463 
21310 1 3.76708 -3.62742 -1.07094 
21311 2 -1.85956 -3.08448 0.155714 
20917 1 3.23097 -2.56608 -3.39093 
19868 3 0.358223 3.6891 0.099205 
1870 1 -1.42518 -9.8408 -1.34264 
4117 1 0.564164 4.78524 -4.07331 
16142 2 4.55707 2.35931 0.111465 
16141 1 -1.44517 3.27861 7.41472 
19867 1 -0.626804 1.14309 -0.426373 
16143 1 -2.05057 -0.2511 -0.411581 
1611 1 -3.98643 -5.85454 1.2936 
21395 2 1.5795 1.7772 -3.81939 
4118 2 3.17916 -4.49478 -1.53548 
5279 2 -3.65308 -3.02322 4.01229 
5280 1 4.14648 -4.12422 2.24079 
21394 1 -3.65332 -1.05745 0.701111 
6398 2 1.05705 -2.54435 2.33923 
13000 1 2.62748 -2.61475 -10.8217 
6397 1 2.25448 0.40467 5.49028 
13002 1 -2.29838 -0.188567 1.46135 
13001 3 0.661216 -2.03746 5.06607 
15236 3 4.26283 -6.33153 -0.333394 
15237 1 0.565458 -5.9935 -2.46151 
15235 1 1.8558 6.09063 1.35826 
20298 1 1.98156 -1.57812 6.72427 
7731 1 1.26853 -2.50988 -4.71052 
575 3 -0.576136 1.94026 -3.87241 
8515 1 0.523027 -0.51145 3.03337 
17284 1 -10.1998 1.88615 3.54333 
17286 1 -3.399 6.62128 -3.5787 
17285 3 1.90359 -5.1382 -0.38293 
6847 1 -6.97293 6.98991 0.499181 
1659 1 0.931454 -1.4033 -3.02155 
576 1 -3.13114 5.48417 3.04737 
1657 1 -2.8804 2.26131 4.42633 
1658 3 3.31932 1.10839 -1.49336 
243 1 -0.944376 1.46557 -0.354639 
14270 2 0.88596 0.102508 -1.22095 
14269 1 -0.981841 -1.08614 3.85792 
242 2 -0.114752 3.76854 0.414673 
241 1 -4.89552 -2.85881 0.843727 
7529 2 -2.0751 -2.65102 -0.0893976 
17062 1 3.2118 5.51511 -0.626654 
14271 1 1.64145 -0.918296 -0.102693 
11682 1 4.90501 -3.8795 1.61046 
6570 1 1.81077 0.156585 -1.3418 
6568 1 0.969786 0.753785 8.29218 
6569 2 -2.83675 -1.3058 0.0110839 
17881 1 -1.92391 3.83785 8.24386 
939 1 1.08346 -10.4145 1.09344 
14856 1 -2.28928 -5.67578 0.565094 
17882 2 -2.45268 -2.15703 1.41095 
17883 1 -5.43951 -3.94717 -0.931427 
11681 2 -0.917628 -1.75973 -2.86433 
14369 2 6.37497 -1.58731 -2.57474 
17958 1 2.49393 -2.38042 0.835072 
14370 1 2.05724 -0.0443138 3.32976 
14163 1 1.56283 -5.45782 3.79164 
14161 1 -3.88922 3.21302 -0.983961 
14162 2 -6.83723 1.58857 5.81717 
7377 1 -3.55333 4.02587 -1.19769 
10218 1 4.48126 2.88677 -2.95105 
7376 3 -0.477451 -4.28849 1.18091 
10217 3 -0.396425 -2.41746 -2.24037 
7584 1 -2.08093 1.07526 6.7057 
16315 1 -1.54612 -3.7517 -6.38183 
16316 3 -0.284467 -0.647992 -0.0695494 
18154 1 -0.412814 3.57915 -7.10295 
2919 1 3.21283 -0.177437 -4.10627 
2918 2 -3.97606 -0.346881 -1.72428 
18155 3 1.37338 0.339488 2.83694 
8107 1 -2.96885 -2.22241 2.79206 
8109 1 3.33355 2.41306 0.574216 
8108 2 -1.03949 1.17599 -2.41231 
2032 1 1.73657 -7.14621 -1.20843 
3480 1 -4.9144 -0.494568 3.18171 
3479 3 0.902146 -4.54793 -4.74605 
3478 1 1.45925 2.33701 -0.42711 
13941 1 -2.36888 -9.31452 -4.5029 
15059 2 -0.58831 -0.0604071 1.06479 
15058 1 -0.886541 1.33814 -0.915711 
18721 1 -5.14904 0.582205 2.67582 
18722 2 -2.56334 1.56235 4.30869 
5498 2 -3.15663 -3.35883 -1.70999 
2034 1 -4.27775 3.97836 -0.591223 
2033 2 -2.27921 -2.05206 -4.10291 
5499 1 0.0656592 0.0963932 -2.50522 
6228 1 -2.06043 -2.73678 -5.57804 
6227 2 3.73533 1.37407 0.109023 
11308 1 -1.90382 3.66947 1.59789 
21153 1 -0.578654 -5.94778 0.968845 
11309 2 -1.89167 -2.48787 -4.07542 
21152 2 -2.82879 -0.629713 -1.07522 
6226 1 -0.993679 -5.6845 -2.62187 
2833 1 1.52748 -3.26105 0.857904 
16202 2 1.88165 -0.348383 -0.756929 
20508 1 -0.385861 2.29283 0.490738 
16203 1 2.65666 -3.30138 6.14348 
7203 1 1.16992 -1.34258 -0.72275 
7202 2 -1.24448 -0.800237 -3.63085 
20507 2 -0.585563 -2.04332 -2.04685 
20506 1 -2.30716 2.40721 -0.989308 
9804 1 2.44477 3.66041 7.27339 
7201 1 -5.71844 -0.535119 -4.64758 
9803 2 3.85804 -0.416345 2.63098 
6087 1 5.74275 -0.851702 1.71031 
19249 1 -1.69305 -2.11807 0.605586 
19250 2 -2.59449 -1.12279 1.7617 
19251 1 1.39398 4.23321 0.566235 
17208 1 4.36215 2.94641 3.01029 
7966 1 5.50919 1.40512 -1.64238 
13940 2 -3.03057 0.774729 -1.84611 
20669 2 3.09301 1.19982 4.92031 
20670 1 -0.377486 -7.37955 -6.77629 
17434 1 1.05486 -4.0773 -1.65811 
3346 1 2.34161 -0.39177 1.61772 
3347 2 -1.20907 1.60818 2.70791 
3348 1 -1.77959 0.0375818 -3.087 
20668 1 -4.00054 6.10475 -2.37045 
10471 1 1.43729 1.93589 0.183057 
21507 1 -3.78917 2.03374 8.06736 
268 1 -0.861704 -2.22416 -3.93845 
15783 1 -3.90292 4.24894 1.85785 
269 2 0.532083 1.51104 -1.23791 
5653 1 2.86157 -1.6021 7.75038 
270 1 -0.77567 -0.418583 -2.2138 
10565 2 0.518116 1.29569 -0.263278 
10828 1 0.395809 5.75389 4.3646 
10564 1 5.13157 -2.50269 -6.6186 
10829 2 -0.743624 4.665 2.04089 
8152 1 1.26559 1.44722 2.91209 
21505 1 -0.98525 -3.15633 0.792972 
21506 2 -1.7731 3.42816 -1.00667 
3918 1 -1.50706 1.39762 -1.50178 
2314 1 -6.25968 -1.72571 0.828509 
2315 2 -3.37348 0.0443493 -0.526785 
933 1 -5.61829 -1.02872 -1.36166 
8434 1 2.46167 -0.513718 0.830334 
932 2 0.792308 -6.27209 3.71433 
2316 1 -2.55083 1.41054 -1.97252 
19788 1 -2.96832 2.66663 -5.03805 
8435 2 0.808484 1.58783 -2.67535 
15615 1 0.358532 1.2322 0.502667 
15813 1 -0.345645 -2.03158 0.10926 
4197 1 -2.80339 -1.55525 4.69139 
19929 1 -0.661892 -2.07943 -2.58294 
19928 2 -1.23101 -5.70704 2.35485 
19927 1 -2.29114 -4.65543 2.26308 
15614 2 0.555603 1.04493 -1.29945 
15613 1 -1.7335 -3.97429 1.75929 
4620 1 3.42472 -2.50684 1.64041 
4196 2 -0.618851 -1.6685 0.301431 
9456 1 0.432236 1.14999 -2.27008 
5861 2 4.30274 2.17781 -5.75819 
11289 1 1.21677 -1.75893 7.8354 
5860 1 -9.71968 -1.51072 -3.20502 
11288 2 4.38177 6.40789 -0.0482026 
13019 2 -0.308975 1.79533 3.79242 
5851 1 -6.32546 -8.51479 2.81164 
13020 1 -2.79621 -1.4185 -6.18109 
5852 2 -2.72947 0.755066 -1.748 
13018 1 1.47372 -2.09093 -0.632879 
11658 1 -2.91612 1.92062 -7.96264 
8329 1 -3.51144 1.74835 3.46323 
8330 2 1.62913 2.89415 -2.26012 
8331 1 -3.74696 0.240609 0.864998 
2284 1 4.13772 0.112478 6.18208 
7851 1 -0.801742 2.53246 -0.684433 
7850 2 -1.83073 3.71927 -1.61363 
2285 2 5.51101 -1.09112 -0.593865 
2568 1 -2.25001 -0.00046561 -7.21401 
3504 1 6.21985 3.75152 -3.30957 
3502 1 4.70122 -1.82636 -5.13955 
3503 3 2.37044 -1.08848 -1.66342 
771 1 7.1329 1.71952 -3.95938 
13555 1 0.611832 4.53362 -0.0526334 
13556 2 -4.58293 4.27842 -0.626589 
2280 1 -1.33953 -1.37752 -6.54591 
2279 2 -0.942561 -2.0482 -4.14008 
15099 1 0.635646 -0.470852 0.734559 
13557 1 1.80337 3.37703 0.860344 
3870 1 1.47428 -0.872895 -4.8449 
15098 2 0.425136 -1.2691 0.884352 
9463 1 -0.000213317 7.51824 3.34973 
16638 1 1.98719 8.59991 -1.06389 
9465 1 5.48933 -3.10125 3.28306 
9464 2 -2.30996 -0.742312 -0.0469791 
17572 1 1.9033 2.78939 -5.61089 
3633 1 3.01814 4.08033 3.99683 
3632 2 0.516682 4.30286 1.42796 
3631 1 2.0735 1.59266 0.289315 
14101 1 1.30711 2.87834 -1.46271 
4119 1 1.81529 3.61275 -7.70768 
10056 1 5.01474 -2.44325 -0.236984 
10055 2 -1.24578 -3.70032 0.160885 
1609 1 5.33235 -0.550858 1.42002 
1610 2 -2.44156 2.00461 1.72781 
19399 1 -2.74468 -1.91362 0.479324 
19400 2 1.58551 -2.1771 0.957313 
2443 1 -2.07067 -8.45015 8.98655 
2444 2 -0.9058 2.29654 -1.70764 
21396 1 5.90362 -2.75635 -4.78297 
2445 1 -3.6331 0.515234 -2.34466 
10896 1 -0.0976963 -2.05587 2.98812 
10054 1 -0.497038 -1.53479 3.75941 
19210 1 -1.50562 2.85674 -2.086 
6399 1 1.83731 0.598902 -1.50906 
8734 1 -3.35869 2.47342 1.56953 
8735 2 3.15753 2.52831 1.42892 
7730 2 -3.40077 1.45223 2.58132 
7729 1 8.87753 3.93819 -0.769782 
8736 1 4.63827 2.30259 -2.83815 
4345 1 -3.14867 -4.08141 -3.09182 
2209 1 -4.57395 -7.51915 -3.98006 
2210 2 1.66133 6.93186 2.17469 
16646 2 -0.756817 -0.898334 -0.625348 
16647 1 1.51866 -3.10453 1.53752 
6849 1 2.70574 -3.62245 2.13138 
8516 3 4.35077 1.325 -1.17929 
8517 1 0.265337 -2.97468 -2.54422 
1000 1 2.03286 1.22946 0.844539 
1001 2 7.00879 1.06251 0.547357 
1002 1 3.53621 3.11187 -3.86859 
6848 3 -3.98642 1.19037 1.93626 