ITEM: TIMESTEP
35000000
ITEM: NUMBER OF ATOMS
2823
ITEM: BOX BOUNDS pp pp pp
0.0000000000000000e+00 5.0000000000000000e+01
0.0000000000000000e+00 5.0000000000000000e+01
0.0000000000000000e+00 5.0000000000000000e+01
ITEM: ATOMS id type vx vy vz 
195 1 5.54206 -0.156003 2.58693 
8023 1 5.1235 1.58145 1.38684 
8024 2 -1.43155 -0.862144 -0.634586 
8591 2 0.420215 3.1138 1.80611 
8592 1 2.15077 -3.48555 -2.00866 
4413 1 -1.97628 -1.33403 -3.80732 
4412 3 1.31544 2.71179 3.13966 
4411 1 2.77003 -1.32409 -1.91194 
194 2 -6.17126 0.269717 -3.98024 
8025 1 -1.37765 1.63165 -4.62743 
9261 1 -0.145349 -5.72119 1.04652 
9260 3 1.79137 -1.64315 -1.02013 
9377 3 0.582913 0.544206 -5.49216 
9378 1 4.46928 7.43904 3.9908 
8773 1 0.885582 -0.806433 -1.49286 
8775 1 3.99901 -9.00742 1.09964 
19459 1 3.20396 2.99809 0.669995 
19460 3 -5.55606 -0.354409 2.72634 
8774 3 -2.91005 1.3294 -2.21799 
16827 1 0.387908 0.295748 0.21445 
16664 3 -1.90959 -6.40138 -4.16276 
16663 1 0.524811 3.29886 -3.51453 
16665 1 3.67406 0.712207 -2.86831 
16826 3 5.84686 -2.28627 1.03991 
1978 1 -2.40411 -0.0410429 -4.59513 
1980 1 1.21862 6.1033 -1.90972 
1979 3 0.891131 4.77043 -2.39555 
18223 1 3.18899 -3.02445 0.0911261 
13227 1 0.0900688 -3.34257 -3.62371 
6286 1 2.73457 1.79887 -0.685867 
5446 1 -3.0872 5.09337 1.81734 
8590 1 -1.32486 -0.115439 -2.55056 
15167 3 0.0519722 2.9063 0.960754 
19050 1 1.71731 4.56471 -7.32554 
7579 1 -2.52316 -0.425806 6.91412 
15166 1 0.412668 -0.885792 -1.337 
6954 1 -4.00976 -2.27891 4.60657 
6953 3 -2.43314 -1.54401 1.58847 
19049 3 3.46269 -1.06863 -0.660774 
6287 3 2.5882 0.110978 1.78375 
6288 1 0.708348 2.83063 1.22433 
19048 1 2.60686 4.25693 -1.23451 
18204 1 0.368799 1.13647 0.0619816 
15168 1 -4.37747 -4.13445 0.305077 
8986 1 0.832587 -1.00081 -2.40078 
19746 1 1.42414 2.3045 -3.9481 
5447 3 1.1675 2.14545 1.28922 
8987 3 -2.9792 -5.69684 -0.747279 
8988 1 3.99588 5.40795 -1.92642 
19491 1 1.28204 6.08468 -0.107293 
19490 3 0.970598 -2.9629 -3.51581 
19489 1 -0.00509298 -2.13283 1.6803 
2683 1 -0.743707 -0.414702 2.34433 
3909 1 0.0232483 -5.37097 0.654655 
13065 1 -1.94734 4.67243 3.55106 
13064 3 -2.96045 1.49702 2.75969 
13063 1 -1.3319 -0.659521 -5.34964 
15765 1 -1.67832 0.184297 -0.368063 
2021 3 -2.81489 -1.34292 1.57978 
13276 1 -2.48366 -2.31793 -4.44019 
9508 1 -1.59407 -5.14123 2.83292 
2022 1 -5.88802 3.92124 3.14787 
9509 3 1.87334 -1.79928 0.271473 
13277 3 -1.35427 -0.426692 -6.67453 
3526 1 2.75669 1.64003 -1.384 
13278 1 -0.901048 3.36509 -2.34867 
9510 1 -6.61015 -0.462819 -0.382074 
16825 1 2.94759 -1.40363 4.82499 
3527 3 -2.6507 1.48473 -2.1351 
3528 1 2.66917 4.97313 -2.50791 
9376 1 0.165087 1.25838 -4.17272 
19461 1 0.818831 9.17514 -1.83721 
21433 1 2.72488 4.01225 0.83733 
21434 3 4.04709 0.265734 1.42307 
1734 1 -2.18375 -1.27821 -1.50572 
14529 1 -1.15018 0.70603 -2.67262 
14527 1 -8.8921 1.02396 3.65925 
14528 3 0.23746 -3.08314 -1.85684 
19119 1 1.06272 4.61155 3.6425 
19118 3 1.33073 3.28068 -1.15876 
19117 1 1.8243 -5.42936 -3.08654 
6614 3 -1.39918 2.84771 1.46323 
19678 1 -6.56575 2.91806 -4.24136 
18224 3 2.24559 0.98175 -1.75864 
17002 1 -1.89687 5.20408 5.27158 
17003 3 -1.16572 1.7003 4.06494 
19679 3 -0.704538 1.22931 1.59864 
17004 1 -4.62179 -0.4173 -1.37865 
19680 1 -4.92042 1.08824 1.96922 
18225 1 -5.88617 -7.24273 -3.27414 
6613 1 2.53374 -3.2814 0.13788 
1427 3 -0.663326 -1.89758 1.84806 
9928 1 1.84939 5.25258 -0.91834 
1426 1 2.74126 -1.1321 1.93066 
9929 3 0.615929 -1.70303 0.425529 
18898 1 -5.51464 -2.27306 6.73924 
6952 1 3.07028 -3.63679 2.65108 
18899 3 0.156774 -0.274816 1.178 
18900 1 1.4723 -3.15229 -2.04067 
15580 1 -3.32594 -0.193993 2.4237 
15581 3 -0.799958 4.53971 0.666305 
15582 1 -3.81331 -2.40986 7.49183 
12327 1 1.89793 0.298243 -0.547253 
1498 1 2.37917 0.325675 4.54675 
12176 3 -0.611774 1.80234 2.0511 
9065 3 5.37892 5.41672 -2.16719 
12175 1 -4.22076 8.98674 2.97478 
9066 1 -2.58301 -5.53151 -2.82696 
12325 1 -0.500206 -0.272925 1.70876 
2657 3 -2.50187 1.32315 1.68291 
9064 1 -0.93946 3.61375 4.11649 
14142 1 -1.87406 2.33011 -2.70694 
12326 3 5.00172 1.88216 -2.89093 
2658 1 -2.96032 0.592263 -5.92516 
12035 3 1.48538 -0.682455 -2.27281 
17575 1 2.92322 2.62637 2.43971 
17576 3 0.431191 -1.91135 -5.72297 
12034 1 -6.56258 0.254625 -3.25006 
17577 1 0.387313 2.51068 -1.5359 
5448 1 1.32476 -0.971405 -3.7268 
21350 3 0.337881 0.934147 0.303457 
20242 1 -3.26616 -3.88959 4.64446 
14140 1 -2.68507 -0.318819 8.61791 
20243 3 2.49386 -1.35664 -0.789408 
15763 1 0.944355 -4.34925 1.12827 
15764 3 3.14675 1.68018 -2.44233 
20244 1 3.34521 -4.44077 2.51764 
21351 1 -0.36917 -0.303107 2.94834 
7527 1 -4.34202 2.27428 4.05724 
7526 3 0.165822 -1.21033 -0.973518 
170 3 1.1865 -2.95463 -1.18991 
171 1 0.317224 -1.96812 3.11298 
21576 1 1.85647 -2.68924 -1.7916 
12036 1 -2.91682 -2.68295 2.91695 
7525 1 3.0397 -0.635067 -0.967456 
18240 1 2.82512 2.39055 4.75381 
14141 3 2.36573 0.891548 4.71721 
5981 3 0.852684 5.55909 -2.36277 
5982 1 -1.41829 2.6936 1.35073 
5980 1 3.87939 -1.15415 1.46162 
169 1 5.43286 -1.3665 0.579453 
1635 1 -3.40586 1.33069 -2.37555 
9725 3 1.95107 -1.9627 -2.7136 
3585 1 -0.191035 0.911079 -1.54641 
13339 1 -0.694023 4.77176 3.43379 
13340 3 1.1172 3.94444 -2.49546 
13341 1 -2.26368 -1.12377 -1.72796 
9724 1 -3.99108 -5.79232 -4.46781 
3584 3 -2.18512 -2.21698 -0.619596 
14698 1 -2.62909 1.2149 1.89892 
2982 1 1.02841 1.95808 -0.0759664 
19708 1 5.99242 3.01423 0.623945 
19710 1 1.05601 5.74769 3.5551 
2020 1 3.64885 0.592924 1.37715 
3124 1 3.83367 2.39404 -0.389719 
19709 3 2.97497 -3.58843 3.33401 
3125 3 -3.06843 -3.63219 -1.87881 
3126 1 4.21538 -1.53758 -0.834144 
3690 1 -0.755877 -5.2906 1.52577 
3689 3 0.972353 5.01187 0.974728 
3688 1 -1.53524 6.07141 -1.27679 
16186 1 3.207 0.226359 -2.64801 
9726 1 5.16824 6.06568 -1.64491 
18015 1 0.349765 -1.603 -0.693569 
16187 3 0.418304 0.313276 2.37016 
16188 1 1.20378 -3.73212 -2.33635 
21435 1 2.41731 2.1663 1.92096 
18014 3 0.825158 1.59015 2.39423 
21138 1 -3.68501 6.84197 -1.84272 
18013 1 3.41826 -0.99746 -5.42419 
21137 3 -0.149838 -3.27018 -3.03236 
2981 2 -4.26797 0.303459 0.0576411 
2980 1 3.69671 -1.1065 -0.851092 
4292 3 0.92966 -0.856642 3.54593 
21160 1 0.761994 2.12502 0.00106966 
4291 1 -0.00888244 7.5127 -2.49086 
4293 1 -3.196 -0.169151 6.35398 
10554 1 -0.751789 3.84641 0.117572 
21161 3 0.499667 0.556945 6.91016 
17940 1 0.0426726 -6.80135 1.09621 
6615 1 1.03305 -0.75536 2.2242 
8613 1 1.38857 1.11215 2.20095 
21162 1 2.25215 -2.05268 -3.55252 
8611 1 2.12635 -1.33125 -1.58326 
8612 3 -0.963257 3.189 1.12454 
18828 1 -1.74077 -1.54861 -3.16836 
20241 1 -0.674183 1.73667 -7.16423 
15045 1 2.72209 -6.83951 -0.877967 
15044 3 1.17069 0.391817 -2.75603 
15043 1 -4.82635 -4.37142 6.93386 
1428 1 3.11237 3.89784 1.49371 
16120 1 -2.50529 0.786259 1.55153 
20240 3 1.70619 0.225768 0.168423 
16121 3 1.32335 -1.05542 0.137863 
6310 1 -0.0822341 -1.43468 2.74133 
6919 1 3.61983 -5.80024 3.93903 
20125 1 -2.4307 3.58823 1.93141 
20239 1 -0.185825 -3.66898 3.41847 
6312 1 -1.39485 -2.37278 6.41061 
6311 3 -0.817929 -2.53412 2.4746 
16122 1 0.169137 -2.63164 1.44409 
20126 3 -2.89235 2.25161 -1.1214 
20127 1 -5.27225 -0.927037 -5.03246 
4089 1 3.93293 -0.574751 -0.292717 
21022 1 5.12531 -1.90303 -6.95151 
10575 1 0.624453 -1.79096 -3.11646 
12858 1 0.101957 -2.50139 1.81369 
10573 1 0.21582 1.503 2.10479 
10574 2 0.390143 -0.660048 -1.23747 
12857 2 -1.01401 2.23879 -0.207436 
17938 1 0.382733 2.86034 2.02785 
20994 1 3.14429 1.05508 -5.7947 
20993 3 0.480496 -0.869235 -0.777317 
12856 1 -3.02655 5.22509 3.23256 
20992 1 -0.696693 0.235995 -4.7285 
8711 3 -5.31364 3.75684 -1.10991 
8712 1 -0.606285 4.66977 0.66535 
4860 1 0.113187 1.48131 -0.195809 
4859 3 1.53245 -0.829819 0.430466 
17939 3 -0.199279 0.420206 1.20895 
1499 3 1.07159 0.43881 3.13567 
8710 1 -5.31814 -4.60199 -2.50081 
10126 1 6.33366 -1.06645 -5.30789 
7871 3 -0.805879 -0.502396 -4.31886 
7870 1 -4.02354 9.45435 -2.04116 
1500 1 3.44838 -0.455955 1.77132 
10128 1 2.40082 3.09502 -2.95029 
10127 3 0.593313 1.21834 3.77304 
16550 3 -5.38684 -1.95678 -2.2143 
16549 1 5.23271 4.83116 -0.680004 
14295 1 -3.21583 -1.43353 -3.72094 
16551 1 -3.24208 -2.57931 -1.17279 
12642 1 2.12032 -5.97501 -4.35176 
17756 3 -3.61901 0.301673 1.03075 
12641 3 2.57033 -2.73183 3.3199 
12640 1 3.53855 -1.95506 -1.21698 
17757 1 -0.979984 5.49775 2.19596 
6001 1 -1.91585 2.09179 -1.47261 
9946 1 1.77684 -7.31512 1.44323 
9947 2 1.38616 1.44252 2.22683 
17788 1 -2.84722 -4.04607 4.33367 
13078 1 -2.4974 -4.86694 -2.95099 
21349 1 -2.64765 -8.55227 -3.02627 
13080 1 -0.866244 -0.690055 5.55925 
13079 3 2.45579 -0.771918 2.41515 
17789 3 -0.579573 -1.29871 4.53031 
9948 1 -3.53098 -2.0098 -1.48977 
15754 1 -0.596114 1.45315 -2.57513 
15755 3 0.910124 -1.05992 1.26642 
15756 1 2.24542 0.371497 4.97053 
10650 1 -0.952372 2.50306 4.19512 
2836 1 -0.967841 -5.24717 2.89127 
2837 3 0.0168167 0.347009 -4.54009 
739 1 -3.38058 -1.36025 -7.61805 
276 1 -1.0371 1.30193 -1.32388 
8782 1 1.61679 -6.54295 -1.12594 
21575 3 -0.577642 -0.671363 -0.271782 
21574 1 -5.08245 1.92102 2.54218 
10556 3 -4.70319 1.75281 -1.93726 
10557 1 -0.206071 1.21155 2.52092 
8784 1 -3.18739 -1.81407 3.86158 
8783 3 1.45588 -5.79058 1.27492 
17790 1 -6.32041 2.3422 -1.23033 
275 3 -2.10985 2.3124 -0.231195 
1583 3 -1.68444 1.84208 -0.609419 
15130 1 -4.4339 2.77882 -0.0404264 
10555 1 3.77022 -2.37712 -4.0232 
10176 1 0.302983 -0.651489 -0.138582 
1584 1 -5.60001 -2.10259 -3.37076 
15161 3 -2.10238 1.07011 0.0818261 
15162 1 -0.25018 -3.50426 -3.51604 
20448 1 -2.54854 1.40441 5.79484 
18239 3 -0.476234 1.08725 -1.92219 
18238 1 -0.842472 -4.40517 2.12228 
8644 1 -1.3747 2.99622 -3.55822 
274 1 4.6595 2.23752 -2.845 
8646 1 2.20992 -4.15333 2.45351 
8645 3 -3.93756 -2.14878 1.87803 
20447 3 -4.70853 1.93752 -0.781155 
20446 1 0.988035 -6.2432 -2.30774 
11215 1 -2.76819 -4.86443 2.54544 
10907 3 0.406059 -1.13435 -1.0809 
14863 1 1.07342 0.268919 -0.31084 
5595 1 -1.19954 4.91446 6.06649 
15337 1 -0.451722 5.8174 -0.831544 
10906 1 -1.56974 2.35491 -4.01091 
5593 1 -6.16671 -4.76624 -0.547429 
5594 3 3.67594 2.97415 3.0125 
14864 3 2.65372 -3.36442 -2.32233 
14865 1 -6.85799 -0.233564 1.65891 
15508 1 -0.680168 -1.2107 0.330093 
18036 1 6.17963 -4.90131 -0.587426 
16929 1 -0.729463 3.45991 -4.88066 
18035 3 1.87478 3.698 0.486349 
10922 3 -2.35367 -0.168522 -0.468648 
10921 1 5.61647 -0.588585 2.28783 
18034 1 -3.60059 -2.62181 -3.0595 
15285 1 1.46695 -1.13644 -4.72454 
16928 3 0.459225 -1.38974 3.9468 
3784 1 -2.23101 -1.45888 3.09916 
15510 1 -4.97797 -2.19833 1.22024 
10923 1 0.304768 -0.064084 -4.1434 
3786 1 7.03586 -0.80145 6.14283 
15622 1 -0.102994 4.53601 0.079594 
3667 1 0.135127 -0.0476212 -2.25743 
3785 3 -1.54296 -3.44492 2.14493 
3668 3 -0.520606 0.926873 -4.21154 
15623 3 0.243432 3.46233 -1.92174 
15624 1 -1.87499 3.97207 3.06036 
114 1 1.99928 -0.550516 3.3483 
113 3 -1.7392 0.379088 -1.87419 
112 1 5.08728 -4.52778 -3.47292 
3669 1 1.6433 5.98833 1.06906 
16861 1 -1.143 4.43045 -0.826031 
2318 3 -0.627462 -4.81614 0.825561 
16816 1 -3.07741 2.87782 4.23636 
16862 3 0.921247 -2.57069 -4.1698 
15509 3 1.31547 0.416861 1.78458 
21136 1 1.23855 -5.72187 -0.23853 
3054 1 -3.1835 3.31965 0.58347 
3493 1 -5.82323 -2.62812 -1.04534 
3494 3 -7.52986 0.700389 0.326729 
3495 1 3.226 -5.28767 -0.806595 
2317 1 -0.287697 -0.343129 -0.397794 
10553 2 -0.439858 -2.7446 1.97642 
15284 3 -4.17768 3.49399 -4.33468 
16927 1 3.64624 3.44271 -0.0552874 
15283 1 -4.40228 3.91424 3.17208 
4833 1 -1.75688 -6.60255 5.0872 
18961 1 3.31058 3.47895 1.89782 
4832 3 -3.35567 0.397642 -2.72685 
18827 3 -0.956457 1.24743 -3.31457 
4831 1 -0.97921 -1.07597 1.37233 
18826 1 -4.05372 -1.75875 3.08577 
20817 1 2.57485 4.78462 1.30117 
20816 3 -2.02258 4.32939 -0.713312 
9358 1 2.81771 -2.81746 -4.23697 
20815 1 0.49932 1.58038 -1.33352 
13699 1 1.38906 -0.620751 -4.46334 
9359 3 2.61307 -4.21477 3.53763 
4088 3 0.960195 0.604374 -1.54892 
17511 1 0.0793455 0.978058 -4.08941 
18129 1 -5.85754 -2.51952 2.01414 
12871 1 0.436122 -2.57471 0.97182 
12872 3 -2.9916 5.18235 1.98846 
12873 1 6.18955 -4.16516 -4.8267 
9360 1 -1.95765 -2.09451 0.845711 
12521 3 2.57139 -4.46077 2.1729 
12091 1 -0.00761529 1.29497 -1.0365 
12522 1 -5.54661 -1.39539 0.632629 
12092 3 0.428464 -1.15115 8.74452 
10552 1 2.21231 -7.12476 -0.808385 
4858 1 -4.49887 4.58101 0.0449351 
4450 1 1.56435 2.40862 10.8525 
19729 1 -1.50155 0.17011 3.01929 
2420 3 -1.14677 0.728926 -1.91242 
2419 1 6.72792 0.0486501 -7.24783 
2421 1 -0.730087 0.440064 -0.218308 
363 1 0.887034 2.77236 2.39279 
19730 3 0.518581 1.31509 7.58164 
7872 1 1.96031 -2.03952 -0.345767 
4451 3 1.53868 -0.563446 -0.140597 
351 1 -4.18285 -1.02264 -0.683773 
4087 1 -1.56823 -0.804761 2.27167 
350 3 2.20793 4.53813 -3.74837 
14293 1 8.3154 6.37807 2.17587 
349 1 1.41884 -1.03863 1.03486 
4452 1 1.36511 3.8718 0.611864 
14294 3 -1.72436 -0.567986 3.48643 
14794 1 -0.983136 3.16768 2.26202 
20284 1 1.1002 6.20206 1.11797 
20285 3 -2.24529 1.84866 1.19534 
20286 1 -4.05461 -5.91169 2.10618 
8635 1 1.88011 5.67091 -7.18844 
15418 1 1.28789 -0.20764 1.32785 
12520 1 -5.72563 1.01663 2.15577 
14832 1 -1.87787 2.32491 1.85984 
14831 3 -0.820225 -1.75388 1.30041 
14795 3 2.52775 2.7043 -2.04508 
14796 1 1.03311 5.20438 -5.83512 
15419 3 -2.12919 -1.89377 1.11737 
15420 1 -0.737296 1.98599 0.908708 
2765 3 1.022 -1.36584 2.7297 
18124 1 1.03843 -3.25303 3.4014 
18126 1 -1.25663 -1.53456 0.302588 
18125 2 -0.213902 -2.82376 -0.557337 
361 1 0.507834 3.66742 6.5402 
10648 1 5.35099 -2.63022 4.47997 
362 3 -0.794891 1.72362 -1.85282 
10649 3 0.278081 -2.59663 -1.29739 
10340 3 -2.83106 1.71383 0.133104 
10339 1 2.29609 2.47347 2.8651 
6579 1 2.76793 -2.28954 0.727056 
10341 1 -4.64353 2.64235 -1.68123 
6578 3 0.182189 -1.49286 -2.05079 
5370 1 -9.37639 -0.870921 2.33106 
12262 1 -0.483731 4.31463 5.64484 
10175 3 0.405876 -4.61313 -0.0671601 
12263 3 -1.81744 -1.71898 -4.14956 
12264 1 -0.302218 4.14736 -1.19077 
10174 1 -1.16346 3.32494 -2.00108 
14843 3 -0.530979 -1.21438 0.526893 
3024 1 1.8936 2.55797 -3.71251 
14842 1 -3.68492 -0.0394091 -5.63147 
10001 3 -2.83764 4.49199 0.740151 
15131 3 4.61742 3.42188 1.74358 
3022 1 -1.53578 -1.35409 0.226125 
14262 1 -2.33475 5.25378 2.1506 
10000 1 -5.36702 5.24871 1.63224 
14261 3 -1.20627 -0.792186 -3.55605 
15132 1 6.38342 -1.26197 2.54027 
14260 1 -1.48786 -4.40679 -0.28107 
3023 3 3.06955 -0.126421 1.21717 
14844 1 -2.94373 2.54511 -7.63715 
8039 3 -0.810326 -0.42763 0.307001 
8040 1 4.83425 1.83521 -1.04361 
9859 1 2.12848 6.77199 2.87137 
15338 3 0.861844 1.34598 0.334985 
15339 1 1.44108 1.33648 -0.793052 
20969 3 1.21939 -1.44128 -2.86238 
20970 1 1.53785 3.15975 0.862198 
20968 1 2.14823 -3.14536 1.18616 
51 1 -1.74406 -3.24661 0.910931 
9202 1 -4.46565 -2.48861 -3.82147 
20053 1 1.30583 -5.55985 3.08173 
9203 3 0.191541 3.65649 4.17335 
1948 1 -0.975354 4.07636 -0.677143 
9204 1 -0.408039 -1.5991 0.606487 
1949 3 -1.76595 -2.70225 -2.6196 
1950 1 5.81867 3.66621 2.33497 
4978 1 3.09569 -4.59726 -3.27937 
12393 1 0.477473 -1.38805 2.77896 
12392 3 -0.00942235 -0.610037 -2.43223 
12391 1 -0.375692 3.0682 -2.40048 
5196 1 -0.841221 -0.596836 -1.81073 
5195 3 -3.20892 -2.20955 3.97688 
3053 3 -3.81952 1.07276 1.69045 
5194 1 -0.928709 6.21797 -7.08678 
20924 3 0.14146 0.646764 2.59759 
20925 1 1.3852 6.17815 -0.481394 
5672 3 -0.832003 -0.998929 -0.0122381 
20923 1 1.34507 -1.78803 0.649899 
5671 1 2.1855 -5.32843 4.4601 
3052 1 3.33135 -6.62511 -1.1978 
15228 1 1.23665 -0.518108 -0.954085 
15227 3 -1.16307 -0.611933 2.8622 
14603 3 -0.65665 0.285563 0.850839 
14602 1 -4.8495 3.59044 -5.70089 
16459 1 -2.74746 -0.273885 -0.952216 
2702 3 -0.410539 -2.69859 -0.652781 
16863 1 1.35994 -0.639587 2.52808 
18371 3 3.65383 2.74878 -2.55071 
18370 1 -0.285146 -0.0460829 -0.173894 
16461 1 8.28195 -0.922259 0.544605 
18330 1 -2.62555 1.02459 3.07262 
18329 3 -0.0312351 -0.190501 1.55053 
14604 1 1.90444 -3.24029 -7.81654 
16408 1 3.20618 -0.0684015 -0.928094 
16409 3 -0.0823006 2.11898 -1.98894 
16460 3 2.27656 -3.00753 -0.790201 
16410 1 0.161867 -0.602941 -1.4105 
2703 1 -6.10779 0.909964 -0.276095 
18963 1 -2.02144 -1.76308 -1.1547 
18962 3 -0.0680354 4.40612 0.892291 
19287 1 -0.591777 -4.54536 -3.10589 
19286 3 4.35706 -0.949468 -2.60142 
8571 1 1.09339 -0.823526 -6.38465 
10197 1 -0.403445 -5.86602 3.38634 
10196 3 0.169364 1.07506 -1.41005 
10195 1 -5.6939 0.924789 -0.117394 
13701 1 1.97858 -0.166726 -0.639174 
13700 3 -1.13821 -2.31457 0.704422 
19285 1 -2.64172 -2.67641 -2.26649 
15226 1 2.46691 -1.6051 7.82924 
10043 3 2.76556 0.677077 1.81292 
10042 1 -0.855591 1.20894 -3.23033 
7948 1 1.01404 0.603466 -2.44157 
10044 1 -2.19692 2.93316 -4.04956 
21495 1 -1.76019 -2.0448 1.88016 
7949 3 2.40684 2.14451 -2.04638 
3217 1 0.0425567 0.826472 -2.00908 
1351 1 -2.18737 -0.475006 -3.84756 
21494 3 1.78928 2.46682 -0.767385 
12093 1 -1.30501 7.8619 0.303493 
21493 1 -7.73564 2.47738 0.273986 
10291 1 3.01536 -2.21461 3.05862 
10292 3 3.66603 -2.66865 2.61894 
10293 1 -2.35147 2.54481 -3.71737 
15766 1 0.447697 -4.2445 -1.4402 
8570 2 -1.02676 -1.23507 0.991978 
844 1 1.8869 -5.21075 2.48962 
6813 1 -0.461019 1.32078 -3.66679 
8569 1 -1.82841 -3.58998 -0.471725 
845 2 -2.33377 1.639 -1.64213 
6812 3 -3.82432 3.21343 1.0894 
6811 1 0.75974 3.29488 -2.42788 
19731 1 -0.594027 1.18741 -0.849881 
10325 3 -0.124539 -0.279984 -0.923216 
10324 1 -4.35565 -7.97978 5.92822 
18493 1 -0.271864 -2.05298 1.7534 
8637 1 -0.452548 0.301979 5.24442 
10947 1 -0.777518 2.61785 2.98189 
10326 1 -3.77874 -0.553237 -7.51666 
8636 3 0.315005 0.150929 1.25654 
14830 1 -1.78843 4.97425 1.06606 
1121 3 4.79983 -2.01549 -2.93882 
1120 1 5.28676 5.94428 -2.98769 
18495 1 -4.22979 3.51087 1.18182 
18494 3 -1.27439 -1.36137 1.00797 
20324 3 -3.09813 1.7534 -1.45947 
20325 1 -1.16913 -3.77013 3.65833 
18263 3 -1.25011 0.207907 3.08286 
10945 1 0.31679 -8.15967 -2.4231 
1122 1 3.43183 -0.925425 -0.494794 
20323 1 5.90821 -4.83039 -0.486051 
10946 3 0.398314 2.2595 1.90367 
18693 1 5.38081 -4.15112 -0.703266 
2764 1 -2.00988 -3.22289 0.203091 
13742 3 -2.61995 3.12216 -2.0952 
13741 1 2.71949 -2.36553 5.59091 
4798 1 8.70962 0.998381 2.33401 
18691 1 -4.80194 -2.05365 2.35254 
4799 3 0.616007 -1.90329 -1.32952 
12689 3 4.63196 3.2608 -1.48534 
18692 3 3.24956 0.958304 5.73761 
18262 1 5.91082 -3.80094 -2.62597 
4800 1 0.737828 1.80136 0.348151 
12690 1 0.725251 0.0426884 4.94035 
10468 1 2.60057 -4.07024 5.54074 
10469 3 3.72732 -1.79129 -2.79277 
18089 2 -2.43603 -1.54308 1.40579 
18090 1 3.27545 -0.520208 -2.66925 
6577 1 4.54499 1.57361 0.354975 
18088 1 0.422115 -1.49523 -0.166928 
846 1 5.13997 -0.87259 -0.764544 
3332 3 1.24982 4.46353 1.01831 
3331 1 5.26967 3.19984 -0.970253 
3333 1 1.66147 5.09585 4.9744 
13692 1 3.02396 -4.48927 -1.83761 
13691 3 -0.603145 -2.7366 -0.681843 
8998 1 0.428261 -1.51049 0.320518 
8999 2 1.42932 -5.54319 -3.29191 
13690 1 5.33727 7.83856 2.78088 
1161 1 -0.866742 -2.54101 -2.00015 
1159 1 2.51264 1.61041 1.62769 
1160 3 -3.06252 3.58749 1.55931 
12455 3 -3.76313 -1.76229 -0.695858 
12456 1 2.59106 2.90859 -6.79069 
1509 1 0.546968 -0.947399 3.84519 
1508 3 -1.97535 -2.44041 3.14454 
4899 1 -0.684864 4.25514 2.3898 
853 1 2.63874 -5.61846 -7.83085 
854 3 3.36053 3.58181 -3.29388 
855 1 1.38873 -0.00161983 -1.82939 
1507 1 -3.29688 -0.91124 -1.73062 
10242 1 1.72501 0.769841 1.99428 
16067 3 -2.97074 0.781675 -0.793746 
4898 3 2.5171 -1.51275 -1.22924 
6115 1 0.209514 2.22746 -3.23953 
6116 3 -3.37743 1.87656 -0.19762 
18407 3 1.10173 -1.07229 -3.86273 
18408 1 0.749493 -3.2679 -3.66593 
49 1 0.585593 3.34896 -0.682917 
50 3 1.52237 0.332989 -0.386012 
20054 3 2.02833 -2.21809 -1.96502 
20055 1 -0.412539 5.91849 5.77136 
594 1 -3.97146 -7.19462 1.16715 
14633 3 3.42423 3.27371 -1.41045 
14634 1 -5.05413 -8.24493 -4.94714 
593 2 2.07491 1.98496 4.60491 
592 1 -2.10829 -2.42706 -3.22498 
6265 1 0.27713 -3.72533 5.02366 
5673 1 -3.92968 1.20878 -0.751539 
6266 3 3.05214 -0.239466 -0.291644 
6267 1 0.424414 -3.91749 -7.0678 
15481 1 5.44197 -2.17588 0.896702 
19801 1 2.58142 -3.18738 -4.0784 
20023 1 -3.14807 0.894234 3.29714 
5997 1 -0.452752 0.793526 -10.2491 
17471 3 3.65524 -2.3848 3.15403 
17472 1 4.24819 3.8335 0.488088 
15482 3 3.29794 2.40722 1.14661 
15483 1 -0.566394 3.32512 -2.03378 
13106 3 5.23539 0.477751 1.0602 
19539 1 0.632914 -3.96354 -3.05133 
18328 1 -3.1536 5.93766 -2.1132 
16025 3 2.86405 4.59058 2.37505 
17470 1 -1.02737 -0.225528 0.932716 
20024 3 3.16341 -0.486015 0.192025 
16919 3 1.16206 0.641942 -2.28714 
16918 1 0.195193 -1.82168 -3.38464 
20025 1 -0.100063 -1.27227 -0.278151 
16026 1 -5.36397 0.137006 -7.22533 
7119 1 -1.25375 -0.89648 -0.473052 
7118 3 0.897131 1.73462 -1.08988 
7117 1 1.77001 0.840389 0.78599 
13107 1 0.942205 0.878106 -0.165125 
343 1 -1.06934 4.21603 -3.73455 
7950 1 -1.17519 0.116393 -6.88074 
17880 1 -6.80407 2.96444 0.654076 
17879 2 2.34904 -1.42515 -1.62647 
2696 3 -0.967641 4.1542 -0.596359 
5996 3 -1.19664 3.6055 -1.42654 
13105 1 -5.22326 -0.179437 3.44754 
17878 1 -5.04566 0.952687 5.58494 
5995 1 6.80995 -3.89625 3.63661 
2695 1 -3.48454 3.50754 0.0716621 
927 1 -4.94255 4.35322 -3.04928 
926 3 -2.90348 -0.10589 -2.48809 
925 1 4.64752 3.40556 -2.27126 
15768 1 -1.17975 6.01675 4.22322 
13255 1 -4.80445 4.3178 -2.09088 
10593 1 4.76262 -1.61346 5.251 
15767 3 -2.52382 0.665022 -2.63332 
18923 3 0.606521 2.56604 3.71372 
18922 1 -3.9024 -2.3504 -0.964869 
18924 1 3.56398 1.32731 0.645449 
14550 1 1.2348 -3.11351 0.506565 
10795 1 -1.03112 12.6211 4.13238 
10796 3 -0.721118 -0.361345 1.63584 
667 1 0.62278 2.1864 2.85289 
10797 1 -3.76419 2.58252 3.12276 
21027 1 -0.476086 -1.75301 1.63583 
21025 1 1.90017 -1.58802 -4.81764 
21026 2 1.42043 -3.65939 -4.84856 
668 3 0.72029 -3.20347 -1.52357 
633 1 1.51158 2.07769 1.28285 
21479 3 0.715535 -1.28855 -7.1434 
18264 1 2.85485 2.52877 6.02267 
12957 1 -2.6864 6.63618 3.65808 
669 1 -2.70191 -2.89322 1.09204 
12955 1 2.52335 5.71009 -0.83762 
21480 1 -4.25409 -4.85917 -3.77072 
12956 3 1.75777 -1.30668 -1.18713 
10875 1 -3.0409 -7.55478 1.01816 
3025 1 -2.03007 1.11957 -3.28228 
3026 3 -0.0465293 2.25501 -1.22142 
16197 1 7.49426 1.51684 3.37264 
21478 1 3.22759 -5.74873 -0.891367 
8487 1 6.97646 1.01045 0.352056 
632 3 0.320098 -1.41019 -5.80579 
6094 1 -2.14131 -9.91456 -1.12998 
12490 1 -4.31086 -5.21282 4.80185 
13256 3 0.905964 -2.04874 3.94275 
13257 1 -2.07976 -5.23583 -1.57861 
16195 1 -1.23072 5.91861 0.434041 
3027 1 5.07653 2.44816 -2.8716 
631 1 -1.66512 1.6064 0.607243 
14286 1 2.49324 2.99676 0.12444 
16196 3 2.1042 -4.48197 -4.01982 
14285 3 -4.4152 0.73906 0.866208 
10470 1 1.82109 0.222276 4.97222 
14284 1 -2.07819 0.0712539 -4.70089 
5403 1 1.09019 -2.92308 -6.85935 
3422 2 2.44417 -1.46397 1.97011 
15661 1 0.590334 -6.35544 -7.28536 
16533 1 5.37126 -1.96971 -1.87424 
3421 1 -6.34059 6.29442 4.98182 
10996 1 -2.20268 -5.37636 -2.04129 
15662 2 3.28002 0.610854 0.438572 
9000 1 -2.3433 -1.42955 0.363539 
5401 1 2.66687 0.955048 2.20326 
5402 2 -5.50196 4.71882 -2.50574 
3423 1 -2.50513 3.79266 -3.67852 
15663 1 3.92399 1.83628 7.1961 
16532 2 -0.390873 3.02738 -0.936056 
10998 1 -4.35488 9.70812 -0.137506 
11878 1 1.61906 0.55753 1.63462 
12454 1 -4.64723 1.47858 5.64815 
11879 3 0.527373 -0.0728436 3.26251 
14862 1 9.95246 -5.10907 -3.51213 
10874 3 -1.79704 -4.89731 -0.5452 
10873 1 2.83577 1.05265 0.290217 
10997 3 -3.94257 -1.04014 4.89184 
9688 1 2.24062 -3.21055 -2.76521 
14072 3 -0.123867 -2.33404 2.25001 
16066 1 1.24374 -7.20515 1.71088 
9690 1 -4.13275 -0.292467 4.17207 
9689 3 -2.67286 3.70713 -0.808317 
11880 1 0.73029 -2.21494 -0.858938 
612 1 -3.09123 0.891261 3.32147 
19744 1 -2.30172 1.77946 -0.965489 
2083 1 -2.65689 2.86449 -1.40555 
7735 1 2.23917 0.620655 2.4715 
2084 2 -1.49744 1.80631 6.02354 
19745 2 -0.302548 -2.82107 1.26613 
2085 1 -0.85886 8.6602 -5.40952 
193 1 -3.28617 -3.67168 1.84348 
9363 1 -1.32957 2.42712 -4.27475 
9361 1 -2.16384 0.817992 1.09842 
9362 3 -2.26951 3.69618 0.132269 
7736 3 1.20925 0.121849 -2.93888 
1879 1 -4.15107 -1.9512 0.517069 
7737 1 1.72769 4.91856 -1.85298 
1880 3 4.5897 -7.14707 2.19596 
1769 2 1.27589 -0.77575 0.298057 
20280 1 2.25844 -1.18159 -4.45895 
20279 3 2.27831 0.913926 0.184883 
20278 1 -1.52169 -2.52792 -3.75952 
2685 1 -3.484 -1.09557 -1.03822 
14610 1 -1.28879 -5.86731 0.429929 
2684 3 2.59495 -1.57449 0.790177 
21448 1 3.12063 -1.15018 2.48615 
1881 1 2.71565 0.686493 -1.23627 
9523 1 -3.92484 -10.0148 -2.16349 
4077 1 2.03322 -0.753109 0.874668 
4075 1 -5.21894 5.26354 -1.39097 
9495 1 3.01031 0.253466 -4.4504 
9494 3 -0.322476 3.30162 -4.4765 
4076 3 1.1127 2.70703 -3.43307 
5137 1 0.0172413 -2.64757 6.48848 
5138 3 -1.12596 -2.65023 -0.853481 
3424 1 -2.35113 -7.02164 -2.27857 
1768 1 0.137291 1.68642 -0.146432 
9493 1 2.02195 -4.36581 -1.26199 
15916 1 -1.51546 -4.76157 -0.847489 
15917 3 0.138206 -2.12323 3.56238 
15918 1 -5.35979 6.21243 -4.38761 
11827 1 -0.331051 0.0816011 2.1993 
13252 1 -4.49497 2.29428 1.89981 
3426 1 -1.03539 2.11757 0.185349 
3425 3 4.51923 4.38478 -0.935444 
13253 3 2.73634 -0.764435 4.03959 
1549 1 5.5732 -7.96632 -0.755625 
1550 3 1.42676 -1.56921 -0.223712 
21449 3 3.39002 0.886649 1.58306 
21450 1 2.50216 -0.963979 0.367273 
21542 3 -0.163423 -0.91836 -1.72581 
21541 1 0.899626 3.7561 1.62176 
21543 1 3.73305 2.948 4.23617 
11343 1 4.33254 -3.76318 0.822379 
9524 3 -2.18929 -1.09968 -2.32047 
9525 1 2.75037 -3.02297 -0.867165 
2838 1 1.61982 0.638176 -5.08747 
7469 3 -1.51596 0.581201 -4.66164 
16621 1 -4.60655 5.87765 -6.37265 
7470 1 5.75681 -2.27829 2.80662 
16622 3 3.25502 -4.59044 4.14301 
7468 1 0.540445 1.38629 -1.13625 
2166 1 4.89881 -7.96374 -5.37892 
2165 3 -2.36117 -3.35418 5.70665 
17141 3 -0.154681 -0.620489 -0.383217 
740 3 1.30493 -0.564693 0.202432 
13626 1 -1.88264 0.905903 1.85733 
16623 1 4.07747 -4.94891 -5.36074 
1551 1 1.97893 6.64469 8.84084 
1708 1 -2.12412 5.97557 -5.74611 
13625 3 2.04291 -5.68514 -1.92571 
18031 1 2.95152 3.38728 -1.04011 
20086 1 3.51229 -3.59054 0.0436442 
18032 3 1.78812 0.593146 -3.51411 
18033 1 -1.61683 6.18294 2.14084 
2164 1 -1.40414 -1.07892 12.8906 
13624 1 1.52355 0.915153 -2.12356 
6198 1 5.63578 -1.26262 4.69438 
6197 3 2.62741 -2.13967 -0.533208 
20087 3 3.89871 2.60452 2.82697 
8722 1 -0.914592 -4.69439 -3.16139 
8723 3 -3.91296 1.2628 1.42309 
8724 1 -4.36925 -2.10821 1.47912 
11625 1 -5.43234 -0.638963 -2.80281 
14814 1 -7.01784 -2.85719 -1.70373 
5139 1 3.19165 3.28165 0.937677 
15426 1 4.22832 -3.1586 3.84865 
11623 1 -9.57408 3.27765 0.865011 
11624 2 7.69051 -0.273749 -2.16208 
17140 1 6.87903 4.48492 1.41553 
12011 3 -5.20877 -2.96705 -0.398515 
15425 2 0.794527 0.862493 -1.91629 
12012 1 -5.99153 -1.93737 0.156865 
15424 1 3.81343 1.45038 0.692687 
17142 1 -0.222939 -2.08033 7.88184 
11342 3 -1.51148 2.14331 1.15578 
8194 1 0.311734 -1.36527 2.68673 
8195 3 -2.75449 -3.59829 -3.50747 
11341 1 3.44766 0.269622 -3.92379 
8196 1 6.73374 -2.48858 0.446587 
6370 1 7.81822 -5.0761 -1.47127 
6371 3 3.35513 0.751886 0.715458 
14812 1 -2.40787 -1.80641 1.45774 
6372 1 5.11303 4.58547 -1.07991 
14813 3 -1.9601 3.1171 -3.90671 
7998 1 -2.45746 -1.2307 -3.01453 
13591 1 -3.26202 -1.55017 -0.241241 
18358 1 -1.22212 -2.10925 2.84835 
7997 3 -2.79408 -4.49621 -1.05987 
741 1 2.39824 -2.89912 4.55488 
13592 3 -3.84216 0.409484 3.13309 
13593 1 -4.05138 -1.91679 -3.84801 
19034 3 3.61275 -1.25251 -1.03315 
19035 1 2.70911 5.39692 1.6664 
19033 1 -0.29981 3.58807 3.37726 
6 1 -1.26801 -1.30639 -1.13358 
5 3 1.61655 0.692505 2.44023 
18359 3 -0.805149 -0.796518 3.09917 
18360 1 0.579836 2.56839 -0.738871 
5368 1 -4.81624 4.92768 -0.285682 
5369 3 -1.69759 0.183028 0.156023 
4 1 -1.99474 -0.134056 0.108687 
20621 3 4.02975 0.471231 -0.385364 
14352 1 12.359 -1.74175 -4.30826 
14350 1 1.2435 -0.170927 7.6739 
14351 3 1.68432 -2.74472 -0.575956 
20620 1 -1.33726 -1.52454 5.36918 
15145 1 3.69686 1.85224 -1.18508 
2442 1 -1.77794 -2.32912 -2.0656 
12010 1 -1.22501 -0.349447 -3.44808 
20622 1 4.61718 0.0996171 2.8768 
19328 3 2.04129 0.9892 4.40288 
19329 1 -1.72152 0.21255 3.27699 
9562 1 -1.63078 -3.50673 1.02998 
19327 1 -4.53394 1.85953 -1.46862 
18429 1 1.12415 2.48915 1.99211 
2441 3 0.0848135 -1.9299 3.44298 
2440 1 1.07972 -0.593128 -0.121566 
6190 1 -2.9975 -2.89603 2.69946 
6191 2 1.36069 3.4128 -3.0724 
6192 1 -6.54887 1.38384 -3.83804 
18285 1 0.531539 -0.154347 2.721 
19907 3 1.69562 -0.178753 2.90287 
19908 1 0.561607 1.47979 -0.874015 
7996 1 1.0702 0.791668 4.98234 
3929 2 -2.23645 -0.501648 0.154468 
3928 1 0.62661 1.37128 4.91568 
19906 1 -1.7132 7.46247 5.32778 
3930 1 1.81642 1.58593 -2.91034 
4641 1 -1.19525 4.72149 3.85383 
19517 3 1.24016 -0.113245 0.00228858 
64 1 -2.08324 1.48945 -2.94427 
65 3 1.93659 2.94694 1.8743 
3781 1 -1.03149 2.77404 -0.010633 
66 1 1.27234 -3.62539 -6.14439 
19518 1 2.39123 2.73405 -1.10585 
19827 1 1.26556 1.80277 1.96305 
11782 1 3.02609 0.224804 -5.08371 
11783 3 -2.44318 2.68093 0.878755 
11784 1 7.2458 6.57664 -3.66875 
19826 3 0.256013 -5.31636 -1.19618 
19825 1 0.928323 1.10242 -1.53274 
18021 1 -2.54765 2.07209 -1.36305 
19516 1 -6.73441 1.37683 4.6361 
9860 3 2.82201 -4.45113 0.549117 
9861 1 -1.39628 2.01959 -5.72979 
10241 3 1.36914 -0.803703 5.47459 
9563 3 2.60166 -3.35599 -3.71261 
2194 1 -5.5968 -1.95846 5.16717 
9564 1 0.630131 0.353415 3.34559 
2195 3 1.49523 3.45899 4.31464 
2196 1 3.50324 1.23496 -3.56284 
21489 1 0.251172 -1.87733 -3.96699 
8847 1 -0.66247 -2.70648 -1.28667 
21488 3 -2.16521 -1.59671 -0.412251 
21487 1 2.85853 -2.76283 -1.29557 
16630 1 0.484977 -1.09495 8.48717 
16631 3 0.359621 2.14468 -2.05512 
5371 1 2.76413 -1.60814 4.8771 
4640 2 5.15942 -1.52276 -1.49452 
5373 1 -0.556102 7.89446 4.43029 
5372 2 1.07096 1.01706 0.425753 
4639 1 -0.337817 -3.54651 6.93533 
12311 2 0.140121 1.53736 2.07599 
12310 1 -6.13348 -1.97739 -1.12396 