LAMMPS data file via write_data, version 7 Aug 2019, timestep = 40000000

2823 atoms
3 atom types
2713 bonds
3 bond types
2603 angles
3 angle types

0.0000000000000000e+00 5.0000000000000000e+01 xlo xhi
0.0000000000000000e+00 5.0000000000000000e+01 ylo yhi
0.0000000000000000e+00 5.0000000000000000e+01 zlo zhi

Masses

1 0.25
2 0.5
3 0.5

Bond Coeffs # harmonic

1 6000 0.15
2 2000 0.4
3 2000 0.4

Angle Coeffs # harmonic

1 100 180
2 50 180
3 50 180

Atoms # angle

16449 1 1 1.0362559762849335e+01 2.5496347361486063e+01 5.6215786576684676e+00
7721 3 3 9.7567419028341700e+00 2.6487976339647577e+01 5.0149321985094133e+00
7720 1 1 9.4280423589889697e+00 2.6670603124586197e+01 4.8065947821290402e+00
7722 1 1 9.9390015682045210e+00 2.6299495350012236e+01 5.2600976694182604e+00
16447 1 1 1.0018507777287116e+01 2.6214579336698002e+01 5.3376081271275293e+00
16448 2 2 1.0229220494380550e+01 2.5902904898838266e+01 5.5003531630690246e+00
8282 3 3 1.0459370890740390e+01 2.2613239261813927e+01 1.2808860855050202e+01
8283 1 1 1.0624151365571468e+01 2.2305978067101922e+01 1.2598587203439241e+01
7553 3 3 1.0093741656211257e+01 2.3252477875382699e+01 1.3453606103898421e+01
8281 1 1 1.0305567470085716e+01 2.2909975647564107e+01 1.3085541467685774e+01
7554 1 1 1.0253257181854980e+01 2.3007577868139460e+01 1.3214479484933994e+01
18645 1 1 1.4644752094655679e+01 2.0529911732379944e+01 1.4330416320074345e+01
7552 1 1 9.9820309771941780e+00 2.3496642188966661e+01 1.3709369648088972e+01
2866 1 1 1.0781142943573297e+01 6.5350492994110940e+00 2.4876273728152569e+01
2867 3 3 1.1119859283810726e+01 6.5998289691783283e+00 2.4846970152023591e+01
2868 1 1 1.1478416517127704e+01 6.7472436469580535e+00 2.4783173721527145e+01
6116 3 3 6.4058146993947727e+00 3.8866578630640191e+01 2.5327862938919008e+01
6117 1 1 6.1822641974660550e+00 3.8753510914897561e+01 2.4998807725089197e+01
6115 1 1 6.5344044313125851e+00 3.8905779104089696e+01 2.5677523103347280e+01
20173 1 1 4.5616969161051317e+00 4.3357528041528170e+01 2.2957285464746878e+01
7484 3 3 1.2000302528391625e+01 4.1372010410058479e+01 2.4184278747819416e+01
7483 1 1 1.2214638270351243e+01 4.1239841436651993e+01 2.3860573445658595e+01
7485 1 1 1.1772067465564426e+01 4.1515404870623172e+01 2.4495035210211832e+01
20174 3 3 4.5584283687326517e+00 4.3602762416646861e+01 2.3281799274996420e+01
20175 1 1 4.4429805938534352e+00 4.3829023050095010e+01 2.3606073063732396e+01
279 1 1 4.4048701330355975e+00 4.3936093547516592e+01 2.3716364822950982e+01
278 3 3 4.2904713537576571e+00 4.4158415644286038e+01 2.3996574606448654e+01
277 1 1 4.2458676333208798e+00 4.4429187468190889e+01 2.4335021603974894e+01
14942 3 3 1.7066518956041680e+01 1.4316792876745325e+01 8.7828883964658537e+00
14943 1 1 1.7027847657967303e+01 1.4619317032839421e+01 9.1117765367415036e+00
14941 1 1 1.7167321592183971e+01 1.4055834657839961e+01 8.4926158731004548e+00
18643 1 1 1.5343696776373685e+01 2.0239385938142028e+01 1.4447256658751682e+01
18644 2 2 1.4996504045405741e+01 2.0386148471533254e+01 1.4417238162950149e+01
5969 3 3 1.8648425619168144e+01 4.1517947415347187e+01 1.5844993800615076e-01
5968 1 1 1.8364729384716338e+01 4.1791060415273911e+01 3.6208510340237365e-01
8774 3 3 1.7740218116139580e+01 4.6594490212929287e+01 1.6484434718155331e+01
20258 2 2 1.6792335780701602e+01 4.6740311793972907e+01 1.6684666335921598e+01
20259 1 1 1.7214553694057766e+01 4.6628117630572412e+01 1.6641552132113318e+01
8773 1 1 1.7383514324945978e+01 4.6601066404753809e+01 1.6614179960462682e+01
20257 1 1 1.6374084895354148e+01 4.6797195051705522e+01 1.6714096305073159e+01
19460 3 3 1.8593535742712110e+01 4.6506313501404350e+01 1.6005152741452832e+01
19461 1 1 1.8887191399798983e+01 4.6595974949072030e+01 1.5741090215833848e+01
8775 1 1 1.8126250969977413e+01 4.6566466410508539e+01 1.6277332976666852e+01
19459 1 1 1.8268055485666224e+01 4.6532259042598092e+01 1.6209276648332967e+01
10575 1 1 2.4821224892177522e+01 1.8805990243924342e+01 2.7101129031851372e+01
10574 2 2 2.4846407589749933e+01 1.8653017728871980e+01 2.7497526522455694e+01
10573 1 1 2.4948388446657379e+01 1.8495911470888309e+01 2.7846854217311620e+01
15337 1 1 2.2163973338869745e+01 1.3719469568377557e+01 2.9446188246023585e+01
5595 1 1 2.2285094353637930e+01 1.3621382264404454e+01 2.9470209931756731e+01
5594 3 3 2.2624510403310982e+01 1.3440509723552463e+01 2.9520735783841339e+01
17837 3 3 2.5180192059311864e+01 1.3588879962503515e+01 2.9167021111082200e+01
17836 1 1 2.5535641800414705e+01 1.3474527342869481e+01 2.9319076018795545e+01
17838 1 1 2.4956669470290642e+01 1.3702538439833202e+01 2.8851127460970865e+01
6436 1 1 2.5688578142608151e+01 1.3429290382395676e+01 2.9387827745316443e+01
15339 1 1 2.1623569188059307e+01 1.4333980131045911e+01 2.9472397420624560e+01
18036 1 1 2.2501316848759476e+01 1.4738880935816212e+01 2.8858527845804907e+01
18035 3 3 2.2935642930914653e+01 1.4754561941634890e+01 2.8956492455879406e+01
15338 3 3 2.1856681395468470e+01 1.3993912125305235e+01 2.9471025963995206e+01
11962 1 1 2.4199354817688214e+01 1.4081772544879897e+01 2.8228445137346235e+01
10922 3 3 2.3938917322307375e+01 1.4790036664835904e+01 2.9154281973555044e+01
10923 1 1 2.4334467458486191e+01 1.4752108504063081e+01 2.9262413518241686e+01
18034 1 1 2.3352096919081944e+01 1.4747988159073655e+01 2.9042822936021473e+01
10921 1 1 2.3510100242596849e+01 1.4759244923627705e+01 2.9095641210902919e+01
3786 1 1 2.4463610544484670e+01 1.4737076120134978e+01 2.9294924410027399e+01
11963 2 2 2.4524101194885208e+01 1.3917252378799301e+01 2.8453515914497800e+01
11964 1 1 2.4861198581146624e+01 1.3733921785666373e+01 2.8722497323320873e+01
3785 3 3 2.4817740096885679e+01 1.4678574485485965e+01 2.9365914165692502e+01
3784 1 1 2.5193194897699136e+01 1.4619457492138599e+01 2.9436495103252934e+01
9726 1 1 2.5313763112100784e+01 1.4607325493409197e+01 2.9471264391495975e+01
18963 1 1 2.1574390257930748e+01 1.5967968371419488e+01 2.8740484138109931e+01
18962 3 3 2.1832346503286836e+01 1.5790542103656556e+01 2.8988202707524238e+01
18961 1 1 2.2104261486012248e+01 1.5662117207548629e+01 2.9220587070319226e+01
15283 1 1 2.2205337375434500e+01 1.5615198523845454e+01 2.9311164371901270e+01
16927 1 1 2.3202744909552333e+01 1.5837126563054252e+01 2.9204444733222608e+01
16928 3 3 2.3606929074902908e+01 1.5839378255382748e+01 2.9152754107939042e+01
16929 1 1 2.4023627697277277e+01 1.5857826110074948e+01 2.9254193187073788e+01
3124 1 1 2.4201609120894837e+01 1.5858741564706078e+01 2.9278828515904287e+01
3125 3 3 2.4584179660631690e+01 1.5832111829769886e+01 2.9325497115849807e+01
3126 1 1 2.4972529556066721e+01 1.5680384475985058e+01 2.9385258748019986e+01
3690 1 1 2.5100097584502347e+01 1.5646937235641310e+01 2.9421584163585393e+01
18406 1 1 2.5883547755683395e+01 1.6291838562467362e+01 2.8691831612931349e+01
10552 1 1 2.4612810136721130e+01 1.7428083044064078e+01 2.9025591068524498e+01
10553 2 2 2.4759454637619648e+01 1.7168865542170970e+01 2.9217930247322922e+01
12856 1 1 2.5376813383518272e+01 1.8037221822670851e+01 2.8511299645224767e+01
20992 1 1 2.5440483395323337e+01 1.7944862928726632e+01 2.8632707599719854e+01
20993 3 3 2.5647542164919390e+01 1.7747766306576565e+01 2.8948652293227337e+01
10554 1 1 2.4936420608956841e+01 1.6928667419688129e+01 2.9419937270477341e+01
4293 1 1 2.5038637711291965e+01 1.6847162603471595e+01 2.9490188382975216e+01
12857 2 2 2.5240533716564489e+01 1.8277498636663775e+01 2.8255283310337315e+01
20994 1 1 2.5811330107093692e+01 1.7622490565513619e+01 2.9285535790554508e+01
17938 1 1 2.5884432526773082e+01 1.7553448087134235e+01 2.9396932738715591e+01
4858 1 1 2.2556213089859000e+01 1.8834473919997425e+01 2.9160642510477068e+01
9946 1 1 2.2928527588374902e+01 1.9786402227288960e+01 2.8441244256022397e+01
4859 3 3 2.2964971082134657e+01 1.8803831110947776e+01 2.9217407178676886e+01
4860 1 1 2.3292671154273386e+01 1.8666393148009636e+01 2.9342749636194128e+01
8712 1 1 2.3422063701925644e+01 1.8620832244794649e+01 2.9390698876756886e+01
8711 3 3 2.3793982510296619e+01 1.8520233791133425e+01 2.9511149762364514e+01
2980 1 1 2.4385937019547487e+01 1.9085624025683465e+01 2.8416280634832763e+01
13080 1 1 2.3494648702447911e+01 1.9632499407375256e+01 2.9145092528185632e+01
13079 3 3 2.3806962785623139e+01 1.9582513483850587e+01 2.9386500559861378e+01
9947 2 2 2.3156275163299277e+01 1.9759282154452151e+01 2.8761990721866809e+01
9948 1 1 2.3383097351457984e+01 1.9663008938748774e+01 2.9070947268573281e+01
6954 1 1 2.5553831720508107e+01 1.9819773162508074e+01 2.9374117235966381e+01
12858 1 1 2.5033803211888493e+01 1.8422984884830633e+01 2.7988991154334908e+01
2981 2 2 2.4668447168777224e+01 1.9003434975124801e+01 2.8705982778896594e+01
2982 1 1 2.5003352675434353e+01 1.8940345508858279e+01 2.8965136152154564e+01
19708 1 1 2.5143402935674636e+01 1.8881780363487703e+01 2.9063462444439214e+01
19709 3 3 2.5441424431111209e+01 1.8740871172295872e+01 2.9320342231047245e+01
19710 1 1 2.5790983304958463e+01 1.8622119510733146e+01 2.9480985391521301e+01
15166 1 1 2.5673964906160325e+01 1.9761577301807094e+01 2.9427445328906696e+01
1948 1 1 2.5159279762862010e+01 1.2177447490112989e+01 3.1093372985896991e+01
20055 1 1 2.3350630224126725e+01 1.2318737036724016e+01 3.0722995787896600e+01
20054 3 3 2.3726808212631592e+01 1.2383616727200767e+01 3.0806713338618888e+01
9202 1 1 2.4234082419588923e+01 1.2398001882767042e+01 3.0971463001121069e+01
20053 1 1 2.4094301651557618e+01 1.2395275098476244e+01 3.0918756995614181e+01
5593 1 1 2.3020853282580049e+01 1.3333321669889289e+01 2.9563808558581162e+01
16459 1 1 2.3943767898601614e+01 1.3548088816240940e+01 3.1126398258464853e+01
10906 1 1 2.3179642824727843e+01 1.3285087294265233e+01 2.9623496393012253e+01
10907 3 3 2.3535433258797770e+01 1.3168742322477998e+01 2.9736756014966694e+01
10908 1 1 2.3907967589179201e+01 1.3135404251581225e+01 2.9878587716115998e+01
9222 1 1 2.4058883141871124e+01 1.3111531890832881e+01 2.9933611262495511e+01
9221 3 3 2.4389169075179161e+01 1.3009700007310661e+01 3.0032990408669868e+01
20925 1 1 2.3810352445538538e+01 1.3596900285642352e+01 3.1121278640366519e+01
16460 3 3 2.4309688204404853e+01 1.3416732369002924e+01 3.1172325439345141e+01
9204 1 1 2.4997682725003294e+01 1.2206321527639838e+01 3.1091053096696939e+01
9203 3 3 2.4604949677099214e+01 1.2321960060073927e+01 3.1058971666019083e+01
9220 1 1 2.4714825931600316e+01 1.2912650505981807e+01 3.0188668145079284e+01
5509 1 1 2.4833903614711055e+01 1.2876570712322533e+01 3.0258325099641883e+01
5510 3 3 2.5204812263449899e+01 1.2797900497705953e+01 3.0344012546749692e+01
5215 1 1 2.5704955742642071e+01 1.2715187739072775e+01 3.0418270720670574e+01
5511 1 1 2.5564440432343201e+01 1.2779942256378833e+01 3.0395758008222458e+01
6437 3 3 2.5991010276385161e+01 1.3354893905852338e+01 2.9536472296408174e+01
6267 1 1 2.1297695835321509e+01 1.4148645622055446e+01 3.0482736248942413e+01
12392 3 3 2.1722704538883885e+01 1.5079695261382124e+01 3.0545550928496301e+01
12393 1 1 2.2055545943134451e+01 1.4889637122210210e+01 3.0500668624823017e+01
5196 1 1 2.2195040970287327e+01 1.4816609530943051e+01 3.0427211116766081e+01
5195 3 3 2.2492674566934063e+01 1.4642930497606562e+01 3.0185767230420485e+01
5672 3 3 2.2519536302287783e+01 1.4076335621276314e+01 3.0988950951652168e+01
5673 1 1 2.2158904294720138e+01 1.4142833057958253e+01 3.0869390120348069e+01
6266 3 3 2.1628313658209528e+01 1.4137370824293447e+01 3.0684269467379899e+01
6265 1 1 2.2013130721555285e+01 1.4141278957762205e+01 3.0803991524614904e+01
5194 1 1 2.2835455733076309e+01 1.4523862883887812e+01 3.0089572386778418e+01
5671 1 1 2.2917850391564194e+01 1.3916995194713641e+01 3.0990085468589079e+01
20923 1 1 2.3044152156615155e+01 1.3858551245135605e+01 3.1001166803995872e+01
20924 3 3 2.3395837400707372e+01 1.3748743739953380e+01 3.1107221634623198e+01
3669 1 1 2.3002860293670661e+01 1.4475041892857691e+01 3.0043207818493880e+01
3668 3 3 2.3336038943636307e+01 1.4291401688135821e+01 3.0033951368244132e+01
3667 1 1 2.3731727333548303e+01 1.4175067299451413e+01 3.0094262003797152e+01
19286 3 3 2.3428273128700013e+01 1.4875058229670751e+01 3.1024952507150509e+01
15510 1 1 2.3871826508895175e+01 1.4162556867830725e+01 3.0118414878541248e+01
19285 1 1 2.3788469872527106e+01 1.4686674262501265e+01 3.1117342225003291e+01
19287 1 1 2.3062135018847727e+01 1.5020348973813093e+01 3.0921639579650265e+01
15509 3 3 2.4287771488804687e+01 1.4159474656654799e+01 3.0190004208129206e+01
113 3 3 2.4147349505352018e+01 1.5215518795261049e+01 3.0241543744062906e+01
112 1 1 2.4526766715832441e+01 1.5163336610794483e+01 3.0335624261997246e+01
11215 1 1 2.5752757312897447e+01 1.3802158430668907e+01 3.0490764219393977e+01
14864 3 3 2.5265208614123420e+01 1.4008545288218818e+01 3.0357744718945703e+01
14865 1 1 2.4831033726333853e+01 1.4096322024911142e+01 3.0305665276422623e+01
15508 1 1 2.4673877269544210e+01 1.4121510600883608e+01 3.0296462766207203e+01
21136 1 1 2.4673675717084006e+01 1.5148218168483533e+01 3.0375710492748773e+01
21137 3 3 2.5042175255986844e+01 1.5041562534058480e+01 3.0470074593542734e+01
21138 1 1 2.5413294905589261e+01 1.4892930349841100e+01 3.0573293977735119e+01
18013 1 1 2.5580481352379881e+01 1.4863795708515259e+01 3.0615989843512988e+01
14863 1 1 2.5633161033873755e+01 1.3855235970393222e+01 3.0449378896130312e+01
9725 3 3 2.5745893256533559e+01 1.4538453140213944e+01 2.9576629866435574e+01
18014 3 3 2.5917651940576860e+01 1.4785653393697773e+01 3.0702855112310527e+01
32 3 3 1.9234996497096958e+01 1.6125949545694816e+01 3.0938150694220148e+01
33 1 1 1.8936191597136013e+01 1.6015300562796615e+01 3.0743821738704426e+01
12391 1 1 2.1424338826093884e+01 1.5269048570496384e+01 3.0504814779696122e+01
10197 1 1 2.1210261256519392e+01 1.6264704661447002e+01 3.0487574621820588e+01
8569 1 1 2.0218028583655009e+01 1.6122411642469324e+01 3.0476001419196727e+01
8570 2 2 2.0629532420962096e+01 1.6203703792213915e+01 3.0476678091169276e+01
8571 1 1 2.1057679757233601e+01 1.6246332010986681e+01 3.0489346716791822e+01
4832 3 3 2.2113983070188148e+01 1.6760863759339905e+01 2.9707858374637944e+01
10196 3 3 2.1592847495523447e+01 1.6220259675207583e+01 3.0476501489346244e+01
15284 3 3 2.2515216839640967e+01 1.5529425064866018e+01 2.9579570269843128e+01
10195 1 1 2.1978341571424110e+01 1.6227704762273689e+01 3.0551452796630414e+01
13701 1 1 2.2148932666652684e+01 1.6211540507940999e+01 3.0576173904199258e+01
13700 3 3 2.2497530823465329e+01 1.6102030129632919e+01 3.0673565590746300e+01
13699 1 1 2.2863388596515172e+01 1.6037371565374848e+01 3.0832513688300814e+01
15285 1 1 2.2834611816138242e+01 1.5474305735240254e+01 2.9795454152056273e+01
4831 1 1 2.2509031366835778e+01 1.6708603826682136e+01 2.9747027323626881e+01
18826 1 1 2.2652698435778113e+01 1.6677338840271677e+01 2.9779250356431113e+01
15622 1 1 2.2960048668610437e+01 1.5473474647634321e+01 2.9881254877016854e+01
20815 1 1 2.2976801002624992e+01 1.6015138520454691e+01 3.0896830303596378e+01
114 1 1 2.3779045191583762e+01 1.5276985266416087e+01 3.0214789614393041e+01
15624 1 1 2.3631678911240858e+01 1.5317561638729936e+01 3.0173332646119874e+01
15623 3 3 2.3239038087363852e+01 1.5414361827458817e+01 3.0082912305520477e+01
18827 3 3 2.3046288083389712e+01 1.6614122195984223e+01 2.9909770188508634e+01
18828 1 1 2.3420360925189932e+01 1.6499049029019947e+01 2.9917991203042067e+01
20241 1 1 2.3561430089679352e+01 1.6454009118569189e+01 2.9954220293609367e+01
20240 3 3 2.3920072308269727e+01 1.6290154432602229e+01 3.0072473691818288e+01
20816 3 3 2.3362874654872396e+01 1.5968337772044789e+01 3.0964702046470510e+01
20239 1 1 2.4285416119429737e+01 1.6220470290107276e+01 3.0193944750619355e+01
6312 1 1 2.4416089303681922e+01 1.6185857522411204e+01 3.0232848536095290e+01
20817 1 1 2.3764923154726201e+01 1.5905138123390470e+01 3.1128537548506909e+01
9358 1 1 2.3897517943553872e+01 1.5870789859261315e+01 3.1144567470644798e+01
4292 3 3 2.5380425187681627e+01 1.6683703227206376e+01 2.9619504017521987e+01
3689 3 3 2.5458049559975837e+01 1.5559527365272938e+01 2.9578146116326213e+01
6311 3 3 2.4784888402771838e+01 1.6161900227951662e+01 3.0378599615766781e+01
6310 1 1 2.5102092745880750e+01 1.6124136368249054e+01 3.0566631423692030e+01
6919 1 1 2.5231478387941280e+01 1.6078206005747482e+01 3.0652494546787935e+01
6920 3 3 2.5604559533057497e+01 1.6023596195644394e+01 3.0781338825576288e+01
3688 1 1 2.5784436368436477e+01 1.5523301007180956e+01 2.9710033238209665e+01
4291 1 1 2.5708145270920784e+01 1.6560427523720705e+01 2.9752896729002735e+01
21160 1 1 2.5846214198570138e+01 1.6530763456440397e+01 2.9808833003628280e+01
16186 1 1 2.5922643038417931e+01 1.5489637114124010e+01 2.9762600138203119e+01
6921 1 1 2.5948890543865549e+01 1.5904410862106843e+01 3.0875748410268166e+01
10795 1 1 1.9816738080029261e+01 1.7329746704137023e+01 3.0851422315086371e+01
10796 3 3 2.0215305739644133e+01 1.7366866675985055e+01 3.0822508364353936e+01
10797 1 1 2.0615566984170609e+01 1.7338837173844755e+01 3.0858864222030927e+01
21027 1 1 2.0731721464487471e+01 1.7319325013739501e+01 3.0892366120656167e+01
21026 2 2 2.1115643441306013e+01 1.7263660320546830e+01 3.0959609613125675e+01
4833 1 1 2.1677028073675928e+01 1.6928491716800369e+01 2.9718108497312304e+01
19731 1 1 2.2070955756951857e+01 1.7487868980161917e+01 3.0404927881971968e+01
19730 3 3 2.2445898154493751e+01 1.7373388982734749e+01 3.0501127497224267e+01
19729 1 1 2.2759052953679589e+01 1.7259073774390696e+01 3.0577599953565542e+01
4450 1 1 2.2879881714117250e+01 1.7223623628694156e+01 3.0612777316481115e+01
21025 1 1 2.1504580721770765e+01 1.7131561355156421e+01 3.1035511616052027e+01
10326 1 1 2.1617632366022150e+01 1.7064669195526474e+01 3.1093432799390346e+01
350 3 3 2.4124568865192298e+01 1.6914638975765556e+01 3.1075892208996063e+01
4452 1 1 2.3607502287694608e+01 1.7009842993833963e+01 3.0912755543425135e+01
4451 3 3 2.3263618338344251e+01 1.7149368024801003e+01 3.0767065610951413e+01
14293 1 1 2.3699925057416728e+01 1.8094645079521740e+01 3.0819048563186158e+01
14294 3 3 2.4033768343082890e+01 1.8000072781722139e+01 3.0941982246045793e+01
349 1 1 2.3780877051539779e+01 1.6983791283775091e+01 3.0952377810512623e+01
14295 1 1 2.4413854833839768e+01 1.7843309550345140e+01 3.1063226456030428e+01
7872 1 1 2.4341965158489646e+01 1.7226252822442486e+01 3.0156286935620820e+01
2419 1 1 2.3570560506864368e+01 1.8128099926177548e+01 3.0762450667729947e+01
2420 3 3 2.3176678722810134e+01 1.8240068693781019e+01 3.0621636403109456e+01
16549 1 1 2.4522819088363430e+01 1.7828757641226829e+01 3.1119146903145751e+01
7871 3 3 2.4718909796450870e+01 1.7175617047847673e+01 3.0303637635745144e+01
15044 3 3 2.5576102171494110e+01 1.7007246254574824e+01 3.0629637849295332e+01
7870 1 1 2.5097840023717520e+01 1.7172845076476680e+01 3.0429705274436333e+01
15043 1 1 2.5209712303016076e+01 1.7146098580742400e+01 3.0486921184351466e+01
15045 1 1 2.5936010180243684e+01 1.6943916397786747e+01 3.0773303142376179e+01
1498 1 1 2.5780827412949133e+01 1.8164537118121423e+01 3.0724777415152197e+01
1499 3 3 2.5473808131981606e+01 1.8198574145560144e+01 3.0502809539188149e+01
1500 1 1 2.5134091091461773e+01 1.8236684980997175e+01 3.0264602719624808e+01
10128 1 1 2.5016656376188024e+01 1.8261410864554069e+01 3.0193224325749974e+01
9064 1 1 2.5905313156857090e+01 1.8145714680972159e+01 3.0800110663544572e+01
19908 1 1 1.9875325607405991e+01 1.8608248824704535e+01 3.0303770534337083e+01
19907 3 3 2.0238126736873259e+01 1.8669751522263624e+01 3.0506791337458036e+01
19906 1 1 2.0476906778145640e+01 1.8735503459258748e+01 3.0852022787881669e+01
3930 1 1 2.0559903023316462e+01 1.8766338790010796e+01 3.1014404029151546e+01
10648 1 1 2.2912560079601075e+01 1.9711446998330160e+01 3.0037508652600849e+01
362 3 3 2.2400572281475903e+01 1.8622232110789838e+01 3.0236993311743284e+01
363 1 1 2.2722784407605882e+01 1.8429099843071537e+01 3.0386467990655870e+01
2421 1 1 2.2852327579094350e+01 1.8360452778953853e+01 3.0458549365136946e+01
361 1 1 2.2126938196580237e+01 1.8863122577975791e+01 3.0013729582273552e+01
6578 3 3 2.1963633841287571e+01 1.9397342214923363e+01 3.0921541902161458e+01
6577 1 1 2.1603752887412323e+01 1.9560716493982376e+01 3.0751697927335890e+01
3333 1 1 2.1679346512167204e+01 1.8443049252231816e+01 3.1076948260561984e+01
6579 1 1 2.2281524648219325e+01 1.9184065521583697e+01 3.1047940091090631e+01
10339 1 1 2.2389442806235866e+01 1.9125154704799854e+01 3.1119479160516214e+01
18090 1 1 2.1504951765612883e+01 1.9639964496454841e+01 3.0686459468010185e+01
18124 1 1 2.2798867513936251e+01 1.9775005652995649e+01 2.9967943023389022e+01
21349 1 1 2.4248955773938032e+01 1.9577822598403529e+01 2.9754207273574817e+01
13078 1 1 2.4123684886105373e+01 1.9591754633237386e+01 2.9678386401535320e+01
10649 3 3 2.3214114285057377e+01 1.9538998561616111e+01 3.0221131710622270e+01
8710 1 1 2.4150981543617576e+01 1.8544517711207511e+01 2.9775002763625228e+01
10650 1 1 2.3582870998121937e+01 1.9414173809387584e+01 3.0411177162585595e+01
15756 1 1 2.3688198050481294e+01 1.9377294432796322e+01 3.0462493704800181e+01
15755 3 3 2.3923820892483143e+01 1.9234955543161437e+01 3.0714630303533330e+01
15754 1 1 2.4275700486577584e+01 1.9115647240086734e+01 3.0915024220315249e+01
10126 1 1 2.4290183147263360e+01 1.8520975167757573e+01 2.9857202430722491e+01
8782 1 1 2.4398978983437022e+01 1.9026165833685720e+01 3.0983739504140107e+01
2020 1 1 2.5930842841838775e+01 1.8561450103337062e+01 2.9564386204901240e+01
21350 3 3 2.4558576293589137e+01 1.9506624550624739e+01 2.9990829654658125e+01
10127 3 3 2.4638487174515678e+01 1.8378500277431463e+01 3.0025218973198623e+01
20244 1 1 2.5064831997706474e+01 1.9395534539265253e+01 3.0182679191816803e+01
20243 3 3 2.5409365590981498e+01 1.9319776373886299e+01 3.0379057366870473e+01
20242 1 1 2.5752271754476109e+01 1.9199780213339256e+01 3.0497250880366106e+01
21351 1 1 2.4920341386126449e+01 1.9414319038683725e+01 3.0125086418382278e+01
8783 3 3 2.4656890661106811e+01 1.8794849558773240e+01 3.1108780511661010e+01
14140 1 1 2.5902737768831219e+01 1.9149395600396996e+01 3.0563069997435871e+01
594 1 1 2.4852015512938106e+01 1.0614427861803991e+01 3.1722457321826308e+01
593 2 2 2.5233509917191210e+01 1.0621026259761793e+01 3.1760966929061365e+01
592 1 1 2.5587793314634819e+01 1.0576940869232951e+01 3.1918959059039771e+01
14634 1 1 2.5750959530969308e+01 1.0555909445160406e+01 3.1919952943661357e+01
20024 3 3 2.4004733532503536e+01 1.1601724819947144e+01 3.2564130783212086e+01
20023 1 1 2.3674930650799919e+01 1.1519181852778344e+01 3.2378790892880275e+01
20025 1 1 2.4483180529923285e+01 1.1656052368100172e+01 3.2653423660462423e+01
1949 3 3 2.5567602916684063e+01 1.2034100451343525e+01 3.1179222149171942e+01
1950 1 1 2.5926619314424030e+01 1.1913986720814366e+01 3.1368789103764936e+01
16918 1 1 2.4629923412285084e+01 1.1644035013742156e+01 3.2686369756030118e+01
16919 3 3 2.5023793538646277e+01 1.1610038407937999e+01 3.2779026521751597e+01
19567 1 1 2.1723879427047947e+01 1.2627123929024366e+01 3.1820092644081232e+01
19568 2 2 2.2060363807481284e+01 1.2706230274342113e+01 3.1899075643989509e+01
19569 1 1 2.2491177048937789e+01 1.2711363163111015e+01 3.1896119903550662e+01
19803 1 1 2.2652062188006735e+01 1.2700349064232491e+01 3.1870821507455744e+01
6336 1 1 2.2811450926859425e+01 1.3343939702642976e+01 3.2774498696835067e+01
13444 1 1 2.2686155167058637e+01 1.3442002977494878e+01 3.2794336331228699e+01
19802 2 2 2.3030995785187216e+01 1.2583095195548930e+01 3.1828697173124478e+01
19801 1 1 2.3421679319429892e+01 1.2616732756727092e+01 3.1836542672469459e+01
15481 1 1 2.3594541467461518e+01 1.2604242696470338e+01 3.1865697921412018e+01
15483 1 1 2.4315753165444633e+01 1.2494243144556314e+01 3.2036674938453231e+01
15482 3 3 2.3938869667609495e+01 1.2558277309082545e+01 3.1988851066102818e+01
17472 1 1 2.4469590031879967e+01 1.2483533908606431e+01 3.2047862008402156e+01
6335 2 2 2.3157134563126348e+01 1.3167591367179194e+01 3.2780196127336659e+01
18329 3 3 2.5782267718703181e+01 1.2245872952587716e+01 3.2313806637225376e+01
16461 1 1 2.4734327069785014e+01 1.3336960317588677e+01 3.1197376735399637e+01
16863 1 1 2.4890197003573231e+01 1.3328649945159409e+01 3.1227138681013439e+01
16862 3 3 2.5264985256853077e+01 1.3259514787854432e+01 3.1378484113838987e+01
17471 3 3 2.4876432143114020e+01 1.2459147224173735e+01 3.2062184116647124e+01
17470 1 1 2.5270448689040254e+01 1.2347726053017281e+01 3.2138236920594800e+01
18328 1 1 2.5418423689812876e+01 1.2318297707435615e+01 3.2173297860661023e+01
5465 3 3 2.5568367832712358e+01 1.3378166310433524e+01 3.2439070290118906e+01
16861 1 1 2.5649337797260479e+01 1.3099060207147827e+01 3.1470233416624467e+01
5466 1 1 2.5159875279091530e+01 1.3483292154168106e+01 3.2282717612830886e+01
2701 1 1 2.5040472442771730e+01 1.3528893407532461e+01 3.2245270461648609e+01
16816 1 1 2.5812423926333981e+01 1.3064781085332484e+01 3.1504329602575613e+01
5464 1 1 2.5976052489793425e+01 1.3242425586024806e+01 3.2566112415365794e+01
17880 1 1 2.0742261625836541e+01 1.4448784413254941e+01 3.1652623324376339e+01
17879 2 2 2.1125158965882040e+01 1.4535618780514364e+01 3.1716228800968480e+01
17878 1 1 2.1480459448220579e+01 1.4620935991478262e+01 3.1800987288179225e+01
5995 1 1 2.1634515234597689e+01 1.4627693593894300e+01 3.1827586233175204e+01
5996 3 3 2.2072363539249430e+01 1.4635954124756605e+01 3.1839224748256118e+01
5997 1 1 2.2474597186064241e+01 1.4553050918181459e+01 3.1833245435810369e+01
14602 1 1 2.2607107140569841e+01 1.4542784794669290e+01 3.1851978188963276e+01
15226 1 1 2.3917488991000528e+01 1.4662321016871962e+01 3.1177749022492652e+01
2703 1 1 2.4303969913773646e+01 1.3900563284600537e+01 3.2204713999070201e+01
16410 1 1 2.4166521985103024e+01 1.3945196579614347e+01 3.2173865184138990e+01
15227 3 3 2.4278622566565328e+01 1.4534010652060491e+01 3.1319395116537684e+01
14603 3 3 2.2987517957444162e+01 1.4430744234379569e+01 3.1884034079762998e+01
14604 1 1 2.3294143358024634e+01 1.4300421084866615e+01 3.1954531697735959e+01
16408 1 1 2.3417676518643248e+01 1.4232752380521847e+01 3.1979150124420631e+01
16409 3 3 2.3783494458212729e+01 1.4048211936523641e+01 3.2068942274726389e+01
10044 1 1 2.3956668411194880e+01 1.5055915314447475e+01 3.2188916112045447e+01
21495 1 1 2.4092314175389433e+01 1.4997875716540339e+01 3.2223816455621595e+01
10043 3 3 2.3624290653847474e+01 1.5176103856196503e+01 3.2124813117334369e+01
21494 3 3 2.4438482651712928e+01 1.4869926483248603e+01 3.2339354418473974e+01
2702 3 3 2.4632516027792729e+01 1.3729613143570806e+01 3.2238566129302242e+01
15228 1 1 2.4683806204407247e+01 1.4411937944232577e+01 3.1354645260849146e+01
3052 1 1 2.4829542890524223e+01 1.4371595366613851e+01 3.1401111975590826e+01
12091 1 1 2.5658632173922161e+01 1.4451821993074011e+01 3.2736414589290270e+01
3053 3 3 2.5209346715909629e+01 1.4297696932499846e+01 3.1517196789785601e+01
21493 1 1 2.4828256906741725e+01 1.4727213308954022e+01 3.2413532197643121e+01
12093 1 1 2.4967098135548117e+01 1.4699257689533177e+01 3.2443070643764898e+01
12092 3 3 2.5308291201344328e+01 1.4570647911530067e+01 3.2569836913363233e+01
3054 1 1 2.5600001560479740e+01 1.4180241298357435e+01 3.1624712416898511e+01
3493 1 1 2.5754023647101086e+01 1.4164891597815581e+01 3.1681568800265502e+01
12871 1 1 2.5411432427147258e+01 1.5214520185412328e+01 3.1579342006851366e+01
17511 1 1 2.5534999266714205e+01 1.5199959645458906e+01 3.1623808802067192e+01
18129 1 1 2.5794819599686761e+01 1.4382165268463472e+01 3.2764255342069383e+01
17510 3 3 2.5937183514583211e+01 1.5148185772947501e+01 3.1687397208623654e+01
31 1 1 1.9543265522451115e+01 1.6164018679451360e+01 3.1203308477721258e+01
5433 1 1 1.9682338874490721e+01 1.6201225899008136e+01 3.1261987901174308e+01
5432 2 2 2.0060882993213333e+01 1.6273847605709495e+01 3.1456796922118173e+01
5431 1 1 2.0438925818991194e+01 1.6341282163633217e+01 3.1582222680001856e+01
5821 1 1 2.0613500808849540e+01 1.6334735835952792e+01 3.1604886049556200e+01
5822 3 3 2.1066009383894425e+01 1.6297875878556358e+01 3.1645607654183024e+01
667 1 1 2.0937690590168916e+01 1.5740679800914252e+01 3.2597511458134115e+01
668 3 3 2.1295235464637788e+01 1.5893523186380667e+01 3.2644939205744059e+01
5823 1 1 2.1460171465593451e+01 1.6150564948454836e+01 3.1581341789862780e+01
3829 1 1 2.1614894141835158e+01 1.6073702066880372e+01 3.1570299932701619e+01
3830 3 3 2.1950195535335446e+01 1.5898965692681736e+01 3.1525938184671094e+01
3831 1 1 2.2301868009563492e+01 1.5761299419278227e+01 3.1634822462655553e+01
7950 1 1 2.2432934143407344e+01 1.5687512139611387e+01 3.1648291875519384e+01
669 1 1 2.1653867632490773e+01 1.6041193265146820e+01 3.2635881412473410e+01
12955 1 1 2.1793355000858487e+01 1.6074198908487219e+01 3.2625102827712745e+01
18494 3 3 2.2735648587622869e+01 1.6627261490267529e+01 3.1659035285404833e+01
7949 3 3 2.2736850634901067e+01 1.5491741382037954e+01 3.1713039159599461e+01
12956 3 3 2.2168482613206017e+01 1.6149998355365781e+01 3.2510665246164635e+01
12957 1 1 2.2542744196614983e+01 1.6040001803518642e+01 3.2564696540482423e+01
18493 1 1 2.2399587080397005e+01 1.6719227038929979e+01 3.1484400974733404e+01
10324 1 1 2.2261311415571427e+01 1.6769740150998235e+01 3.1447232456448955e+01
18264 1 1 2.2688772742135381e+01 1.5995547455992634e+01 3.2626732835677863e+01
351 1 1 2.4485867124391596e+01 1.6752223908764005e+01 3.1283210780069023e+01
9359 3 3 2.4255615711487234e+01 1.5700210071581392e+01 3.1205937980842773e+01
10042 1 1 2.3263079938771437e+01 1.5337634740958281e+01 3.1927354683601905e+01
7948 1 1 2.3124162312620058e+01 1.5402141225844316e+01 3.1867403076620292e+01
18495 1 1 2.3084603229591913e+01 1.6541181224635551e+01 3.1818094205472992e+01
1120 1 1 2.3239856026002311e+01 1.6468160919331595e+01 3.1882848674977204e+01
1121 3 3 2.3631790121641711e+01 1.6404973187905053e+01 3.1967533371337723e+01
1122 1 1 2.4031806064212827e+01 1.6230624028202612e+01 3.2040826539354157e+01