ITEM: TIMESTEP
35000000
ITEM: NUMBER OF ENTRIES
2594
ITEM: BOX BOUNDS pp pp pp
0 50
0 50
0 50
ITEM: ENTRIES c_binfo[1] c_binfo[2] c_binfo[3] 
3 11063 11064 
3 11062 11063 
1 2106 11062 
2 11030 11031 
3 1480 1481 
2 13478 13479 
1 1113 13924 
3 13924 13925 
3 13925 13926 
2 1112 1113 
1 13926 17196 
3 16544 16545 
3 17195 17196 
1 16545 18208 
3 18208 18209 
3 3254 3255 
3 18209 18210 
3 8738 8739 
3 3253 3254 
1 3253 8739 
1 1416 18210 
3 1415 1416 
3 12313 12314 
1 3255 12313 
2 16424 16425 
2 1111 1112 
1 4446 8014 
3 8014 8015 
3 8015 8016 
3 4445 4446 
3 658 659 
1 658 17758 
3 16543 16544 
3 2104 2105 
1 2104 16543 
3 2105 2106 
3 17758 17759 
3 17759 17760 
1 17760 19737 
3 19037 19038 
3 19736 19737 
3 19036 19037 
1 19036 20254 
3 19735 19736 
3 9634 9635 
1 9634 19735 
3 8737 8738 
1 8737 11029 
3 20254 20255 
2 11029 11030 
3 20255 20256 
3 19769 19770 
3 15559 15560 
1 15559 19768 
3 19768 19769 
3 14575 14576 
1 14575 20256 
3 15560 15561 
3 3092 3093 
3 3091 3092 
1 3091 14806 
3 14806 14807 
1 3093 7942 
2 7942 7943 
2 18169 18170 
1 18169 18799 
2 7943 7944 
2 18170 18171 
1 102 7944 
3 18799 18800 
2 13477 13478 
3 18800 18801 
3 21545 21546 
1 8481 21546 
3 8480 8481 
3 8479 8480 
1 8479 11277 
3 11276 11277 
3 17194 17195 
1 14808 17194 
3 14807 14808 
3 18437 18438 
3 18436 18437 
3 1933 1934 
1 1933 18436 
1 9636 13425 
1 1935 3735 
3 1934 1935 
3 3734 3735 
3 13424 13425 
3 9799 9800 
3 15202 15203 
3 1414 1415 
1 1414 18171 
3 13423 13424 
3 9793 9794 
1 9793 13423 
3 12997 12998 
1 12997 14577 
3 12998 12999 
3 9794 9795 
1 12999 15202 
3 14576 14577 
3 11608 11609 
1 11608 16653 
3 16372 16373 
1 16372 20457 
3 20456 20457 
3 13655 13656 
1 13656 20455 
3 20455 20456 
3 13654 13655 
3 1069 1070 
1 1069 16423 
2 16423 16424 
3 21544 21545 
3 4444 4445 
1 4444 18438 
3 1070 1071 
1 5295 6951 
3 5294 5295 
1 1071 5293 
3 5293 5294 
3 6950 6951 
3 10171 10172 
1 10171 21030 
3 9635 9636 
1 9801 13102 
3 13102 13103 
3 3749 3750 
3 4781 4782 
3 3748 3749 
1 3748 13104 
3 13103 13104 
1 4782 20883 
3 9800 9801 
3 4780 4781 
1 4780 8190 
3 11609 11610 
3 1793 1794 
1 11610 20881 
3 20882 20883 
3 20881 20882 
3 14021 14022 
3 1792 1793 
1 1792 14022 
3 19853 19854 
1 1794 14959 
3 20434 20435 
3 437 438 
3 436 437 
2 100 101 
1 100 436 
2 101 102 
3 20435 20436 
1 438 20434 
3 16310 16311 
3 15898 15899 
1 15898 16311 
3 15899 15900 
3 12134 12135 
1 4002 15900 
3 12133 12134 
3 4001 4002 
3 3304 3305 
1 3304 12135 
3 11045 11046 
1 5961 11044 
3 3305 3306 
3 5960 5961 
1 3306 14620 
3 14620 14621 
3 11044 11045 
3 14621 14622 
3 16373 16374 
3 2956 2957 
1 2956 4414 
1 14988 16374 
1 4416 14986 
3 14986 14987 
3 14987 14988 
3 4415 4416 
3 17125 17126 
3 4414 4415 
3 11554 11555 
1 11554 17125 
3 832 833 
1 832 12049 
3 11743 11744 
3 6949 6950 
1 6949 11743 
3 16309 16310 
3 11275 11276 
1 11275 16309 
3 3733 3734 
1 3733 12133 
3 3827 3828 
1 3990 9799 
3 11744 11745 
1 3828 11745 
3 3826 3827 
1 3826 7302 
3 7381 7382 
1 7381 14770 
3 3989 3990 
3 14770 14771 
3 3988 3989 
3 7301 7302 
3 15403 15404 
3 15404 15405 
3 16651 16652 
3 5959 5960 
1 5959 9795 
1 2976 15403 
3 16652 16653 
3 2975 2976 
3 2974 2975 
1 2974 3988 
1 6600 15229 
3 15229 15230 
1 15525 16651 
3 15230 15231 
3 15524 15525 
3 12050 12051 
3 4466 4467 
3 11122 11123 
1 11122 12051 
3 11123 11124 
3 4465 4466 
1 4465 11124 
3 7220 7221 
1 18897 20592 
3 12049 12050 
3 17126 17127 
3 18896 18897 
1 10914 17127 
3 10913 10914 
3 18895 18896 
3 10912 10913 
1 10912 18895 
3 8960 8961 
3 10172 10173 
1 8961 14241 
3 18496 18497 
3 7382 7383 
1 10173 12625 
3 12625 12626 
1 7383 12627 
3 3938 3939 
3 12626 12627 
3 18497 18498 
3 3937 3938 
1 3937 5805 
3 5804 5805 
3 14356 14357 
1 14356 18496 
3 6599 6600 
3 11120 11121 
3 6598 6599 
3 5803 5804 
1 5803 6598 
3 11119 11120 
1 11119 19854 
1 3420 19776 
3 3419 3420 
3 3418 3419 
1 3418 15709 
1 7482 11121 
3 4000 4001 
1 4000 15751 
3 15751 15752 
3 15752 15753 
3 11153 11154 
3 17570 17571 
3 12838 12839 
1 12838 15753 
3 7247 7248 
3 12839 12840 
1 7248 17571 
3 11893 11894 
1 11893 12840 
3 7246 7247 
1 7246 14622 
3 20033 20034 
3 21094 21095 
1 2958 3114 
3 7300 7301 
1 7300 10279 
3 6580 6581 
3 3112 3113 
1 3112 6580 
3 3113 3114 
3 6581 6582 
1 6582 11152 
3 10279 10280 
3 11152 11153 
3 13984 13985 
1 13984 19104 
1 1155 21094 
3 5684 5685 
3 20032 20033 
3 10280 10281 
3 2708 2709 
3 5683 5684 
1 5683 15405 
1 2709 10281 
3 16268 16269 
3 2707 2708 
1 2707 20032 
1 16269 20980 
3 20980 20981 
3 8797 8798 
1 5685 8797 
3 2957 2958 
3 21095 21096 
1 18519 21096 
3 18518 18519 
3 833 834 
1 834 18517 
3 18517 18518 
3 2206 2207 
1 2206 3337 
3 2207 2208 
3 11555 11556 
3 19103 19104 
3 19102 19103 
3 12343 12344 
1 12343 19102 
1 11556 12345 
3 12344 12345 
3 7177 7178 
1 7177 16731 
3 14771 14772 
1 14772 21414 
1 2208 8148 
3 16730 16731 
3 1187 1188 
3 1186 1187 
1 1186 15231 
3 16267 16268 
1 16267 21412 
3 21412 21413 
3 21413 21414 
3 8902 8903 
1 8902 13023 
3 8903 8904 
3 20171 20172 
3 2477 2478 
3 2476 2477 
1 2476 20172 
3 20170 20171 
3 1099 1100 
1 1099 16659 
1 696 7221 
3 3337 3338 
3 3338 3339 
3 694 695 
1 694 3339 
3 695 696 
3 10454 10455 
3 10453 10454 
1 10453 17988 
3 16658 16659 
3 8959 8960 
1 8959 19540 
3 19540 19541 
3 17987 17988 
3 7178 7179 
3 4009 4010 
1 4009 12906 
3 13675 13676 
1 13675 18498 
1 7179 19542 
3 19541 19542 
3 12905 12906 
3 12904 12905 
3 5269 5270 
1 5269 12904 
3 5270 5271 
3 9124 9125 
1 9124 15126 
3 13022 13023 
3 13676 13677 
3 15709 15710 
3 13021 13022 
1 13021 13677 
3 15124 15125 
3 15125 15126 
3 2950 2951 
1 2950 15124 
3 2951 2952 
3 15710 15711 
3 13231 13232 
1 13231 15711 
3 8621 8622 
3 8620 8621 
3 1727 1728 
1 11154 19174 
1 1728 17371 
3 17371 17372 
3 14510 14511 
3 11894 11895 
3 19174 19175 
3 19175 19176 
1 8541 19176 
1 14511 20034 
2 8540 8541 
3 787 788 
1 787 8707 
3 15304 15305 
1 15304 16497 
3 1726 1727 
1 1726 6694 
3 6695 6696 
3 1154 1155 
3 1153 1154 
1 1153 6696 
3 6694 6695 
1 8478 13531 
3 8477 8478 
3 16496 16497 
3 13985 13986 
1 13986 18181 
1 6138 20982 
3 788 789 
1 789 18183 
3 18181 18182 
3 18182 18183 
3 17302 17303 
1 9396 17302 
3 9395 9396 
3 20981 20982 
3 9758 9759 
3 15305 15306 
3 1292 1293 
3 1291 1292 
1 1291 7465 
3 7465 7466 
3 16729 16730 
1 16729 18037 
3 13531 13532 
3 13532 13533 
3 8147 8148 
3 8146 8147 
1 8146 13533 
3 12959 12960 
3 7466 7467 
3 11503 11504 
1 11503 12960 
3 18037 18038 
3 17303 17304 
3 6856 6857 
1 6856 8904 
1 17304 18039 
3 18038 18039 
3 10982 10983 
3 10981 10982 
1 10746 10983 
3 5218 5219 
1 5218 10981 
3 10745 10746 
3 11504 11505 
3 4438 4439 
1 4438 10395 
3 10393 10394 
3 10394 10395 
3 9757 9758 
1 1293 14154 
3 14153 14154 
3 14152 14153 
1 14152 16657 
3 16657 16658 
1 1395 9309 
3 1394 1395 
3 9308 9309 
3 7129 7130 
1 7129 20035 
3 12958 12959 
1 5034 12958 
3 5033 5034 
3 5032 5033 
1 5032 17986 
3 17986 17987 
3 7130 7131 
1 7131 9448 
3 9448 9449 
3 9449 9450 
3 1393 1394 
1 1393 1615 
3 1615 1616 
3 2107 2108 
1 2107 2952 
1 5271 10744 
3 10744 10745 
3 3932 3933 
1 3933 15072 
3 15071 15072 
1 9450 18714 
3 3931 3932 
1 3931 11739 
3 15070 15071 
3 2252 2253 
3 19759 19760 
1 2265 19759 
3 8708 8709 
2 8539 8540 
1 8539 13828 
3 2251 2252 
1 2251 13830 
3 13829 13830 
3 13828 13829 
3 17372 17373 
3 2264 2265 
3 8707 8708 
3 8600 8601 
3 8599 8600 
1 8599 17763 
3 5572 5573 
1 5572 8601 
3 19760 19761 
3 16495 16496 
1 12606 16495 
3 12605 12606 
3 12604 12605 
1 12604 19761 
3 18146 18147 
3 8860 8861 
1 8860 18147 
3 8476 8477 
3 3817 3818 
1 3817 8476 
3 17498 17499 
3 14581 14582 
1 6738 17497 
3 17497 17498 
3 9394 9395 
1 9394 14581 
3 17762 17763 
3 6737 6738 
1 3819 17761 
3 17761 17762 
3 3818 3819 
3 6736 6737 
3 6070 6071 
1 6070 6736 
1 9111 12346 
3 12346 12347 
3 9109 9110 
3 9110 9111 
3 18145 18146 
3 12347 12348 
1 14481 18145 
3 14480 14481 
1 7467 14479 
3 14479 14480 
1 2598 6303 
3 6302 6303 
3 6071 6072 
3 13042 13043 
3 12142 12143 
1 6072 11505 
3 7420 7421 
1 7420 12142 
3 7421 7422 
1 7422 18712 
3 18712 18713 
3 6301 6302 
1 6301 13042 
3 13043 13044 
3 12143 12144 
3 12248 12249 
1 2214 11703 
3 2597 2598 
3 1616 1617 
3 2596 2597 
1 1617 2596 
1 12249 19023 
3 19022 19023 
3 19021 19022 
3 2213 2214 
3 1912 1913 
1 1912 7626 
3 18713 18714 
3 17528 17529 
3 17527 17528 
3 7625 7626 
3 11200 11201 
1 11200 17527 
3 7624 7625 
1 7624 19021 
3 10300 10301 
1 10300 11202 
3 11201 11202 
2 9838 9839 
2 9839 9840 
1 9840 11892 
1 1506 9513 
3 9512 9513 
3 11891 11892 
3 11890 11891 
3 2263 2264 
1 2263 11890 
3 18884 18885 
3 18883 18884 
3 21163 21164 
3 21164 21165 
3 8861 8862 
3 21410 21411 
3 9511 9512 
1 9511 10461 
3 10460 10461 
1 8862 10459 
3 19061 19062 
1 19062 21411 
3 10459 10460 
3 10784 10785 
3 10783 10784 
1 6567 10783 
3 6566 6567 
3 6565 6566 
1 6565 8058 
3 8057 8058 
3 8467 8468 
1 6852 8467 
3 8056 8057 
1 1914 6850 
3 19060 19061 
1 13044 19060 
3 6851 6852 
3 6850 6851 
3 1913 1914 
3 2746 2747 
3 2747 2748 
3 2212 2213 
1 2212 2746 
3 1666 1667 
3 20077 20078 
3 10859 10860 
3 10858 10859 
1 3609 10860 
1 5658 10858 
3 5657 5658 
3 1481 1482 
3 13399 13400 
1 7809 13399 
3 7808 7809 
3 7807 7808 
1 7807 14137 
3 14137 14138 
3 14138 14139 
3 11056 11057 
3 10637 10638 
3 10636 10637 
1 10636 11056 
1 8532 10638 
3 13400 13401 
3 3608 3609 
3 18080 18081 
1 12450 18081 
3 12449 12450 
3 12448 12449 
1 12448 20719 
3 3607 3608 
1 3607 11058 
3 18079 18080 
1 1482 13401 
1 10329 18079 
3 3221 3222 
3 11057 11058 
3 3220 3221 
3 19244 19245 
3 13535 13536 
1 3978 13534 
3 3977 3978 
3 13534 13535 
3 3976 3977 
1 3976 19243 
3 19243 19244 
1 3987 18801 
3 18220 18221 
1 6801 18220 
3 9014 9015 
3 2705 2706 
3 18755 18756 
3 18754 18755 
3 2704 2705 
1 2704 18754 
1 2706 9013 
3 9013 9014 
3 21388 21389 
3 8854 8855 
1 8854 21388 
1 12315 13536 
3 3083 3084 
1 13644 18222 
3 13643 13644 
3 13642 13643 
3 3082 3083 
1 3082 13642 
3 18221 18222 
3 12314 12315 
1 15204 17544 
1 3378 5548 
3 15203 15204 
3 8531 8532 
1 14139 18756 
3 20720 20721 
3 8855 8856 
3 14963 14964 
3 14962 14963 
1 14962 20721 
1 8856 14964 
3 6874 6875 
1 6874 18805 
3 6875 6876 
3 5548 5549 
3 18805 18806 
3 8530 8531 
1 8530 17301 
2 17300 17301 
2 17299 17300 
3 17162 17163 
3 2155 2156 
1 2155 17163 
3 2156 2157 
2 15695 15696 
3 20719 20720 
1 3084 15561 
3 14960 14961 
3 3377 3378 
3 3376 3377 
3 2623 2624 
1 2623 3376 
3 212 213 
3 2624 2625 
3 211 212 
1 211 2625 
3 8912 8913 
3 5449 5450 
1 5449 13843 
3 10334 10335 
3 14959 14960 
3 7591 7592 
3 995 996 
3 994 995 
1 994 13942 
3 18806 18807 
1 13845 18807 
3 13844 13845 
3 13843 13844 
3 7592 7593 
3 6652 6653 
1 6652 7593 
3 8911 8912 
1 8911 9315 
1 5439 7591 
3 13942 13943 
3 13943 13944 
1 13944 15694 
2 15694 15695 
3 6653 6654 
3 15991 15992 
3 16292 16293 
3 16291 16292 
1 16291 17919 
2 15385 15386 
1 15385 16293 
2 17918 17919 
3 3808 3809 
1 3808 15991 
3 3985 3986 
3 1090 1091 
1 1090 3810 
3 1091 1092 
1 1092 3985 
3 3809 3810 
3 1234 1235 
1 1234 2500 
3 3986 3987 
3 3365 3366 
2 15386 15387 
3 13474 13475 
1 13474 19245 
3 13475 13476 
1 13476 15387 
3 3364 3365 
1 3364 4785 
1 2808 10021 
3 10021 10022 
3 10022 10023 
1 12045 12294 
3 12044 12045 
3 12043 12044 
1 12043 20988 
3 4616 4617 
3 4615 4616 
2 20987 20988 
3 1235 1236 
3 17543 17544 
1 3366 11169 
3 11168 11169 
3 11167 11168 
1 11167 17542 
3 17542 17543 
3 12440 12441 
3 12439 12440 
3 6800 6801 
3 11960 11961 
1 1236 11046 
3 21389 21390 
3 2807 2808 
3 2806 2807 
1 2806 19992 
3 19991 19992 
3 19990 19991 
3 6799 6800 
1 6799 19990 
3 2467 2468 
1 2467 4747 
3 4747 4748 
3 11959 11960 
1 11959 13543 
3 13543 13544 
1 10674 21390 
3 2468 2469 
3 12293 12294 
3 12292 12293 
3 10672 10673 
1 10672 12292 
3 10673 10674 
3 2183 2184 
1 2184 16303 
3 16303 16304 
3 16304 16305 
1 16305 17748 
3 3430 3431 
1 3430 14961 
1 12441 15523 
3 6142 6143 
1 6142 11961 
3 3431 3432 
1 3432 6144 
3 7480 7481 
1 7480 9379 
3 15523 15524 
3 9379 9380 
3 6143 6144 
3 5035 5036 
1 5035 8313 
3 9380 9381 
1 6876 12024 
3 208 209 
1 208 2469 
3 209 210 
1 210 5550 
3 5549 5550 
3 3703 3704 
1 3703 14484 
3 3704 3705 
3 8312 8313 
1 3705 15271 
3 8311 8312 
1 8311 21129 
3 15271 15272 
3 2182 2183 
1 2182 12022 
3 12022 12023 
3 12023 12024 
1 2595 5646 
3 2594 2595 
3 2593 2594 
1 2593 16015 
3 16015 16016 
3 16016 16017 
3 15272 15273 
3 5645 5646 
3 17161 17162 
3 7481 7482 
3 10333 10334 
3 5036 5037 
3 2842 2843 
1 2842 5037 
3 2843 2844 
1 2844 10333 
3 8831 8832 
3 8830 8831 
3 1729 1730 
1 1729 8830 
3 6062 6063 
1 6063 16153 
3 14483 14484 
3 14482 14483 
3 9313 9314 
1 9313 14482 
3 9314 9315 
3 1144 1145 
1 1144 21066 
3 16153 16154 
3 16154 16155 
3 21065 21066 
3 21064 21065 
1 19161 21064 
3 10732 10733 
1 10732 21042 
3 1145 1146 
3 5644 5645 
1 5644 6654 
1 19203 21040 
3 21040 21041 
3 21041 21042 
1 1146 6571 
3 6571 6572 
3 19202 19203 
3 19201 19202 
1 5769 19201 
2 9913 9914 
1 9913 14049 
2 9914 9915 
3 14048 14049 
3 14047 14048 
3 8341 8342 
3 8342 8343 
1 6243 8343 
3 6242 6243 
3 6241 6242 
1 6241 20436 
3 15992 15993 
3 18965 18966 
3 1004 1005 
3 1003 1004 
1 1003 3535 
3 7969 7970 
1 7969 18966 
1 9915 17917 
2 17917 17918 
1 1005 14307 
2 14306 14307 
2 14305 14306 
2 20986 20987 
2 18625 18626 
1 18625 20986 
2 18626 18627 
2 14936 14937 
2 14935 14936 
1 14935 17337 
1 8658 14937 
2 8657 8658 
2 8656 8657 
3 18964 18965 
3 2500 2501 
3 2501 2502 
1 2502 14079 
3 17569 17570 
1 3441 17569 
3 14078 14079 
3 14077 14078 
1 14077 18964 
3 21326 21327 
3 20218 20219 
3 3535 3536 
3 3536 3537 
1 3537 4783 
3 4784 4785 
3 4783 4784 
1 13464 14737 
3 14737 14738 
3 20219 20220 
1 20220 21306 
3 13463 13464 
3 13462 13463 
3 6934 6935 
1 6934 20218 
1 408 17335 
3 407 408 
3 406 407 
1 406 4270 
2 17335 17336 
3 10486 10487 
1 10486 13462 
2 17336 17337 
3 4270 4271 
3 10487 10488 
2 19865 19866 
1 14100 17746 
3 14099 14100 
3 14098 14099 
1 14098 19866 
2 19864 19865 
3 17746 17747 
2 10771 10772 
3 21325 21326 
1 8799 21325 
1 10008 12439 
3 10007 10008 
3 10006 10007 
3 9281 9282 
1 6936 10006 
3 9280 9281 
3 7039 7040 
1 7039 9280 
3 6935 6936 
3 7040 7041 
3 8798 8799 
3 4748 4749 
3 14738 14739 
3 1601 1602 
3 1600 1601 
1 1600 2337 
3 13544 13545 
1 13545 14739 
3 2336 2337 
3 12478 12479 
3 1765 1766 
1 1765 12478 
3 1766 1767 
3 2335 2336 
1 2335 9226 
3 9226 9227 
3 4271 4272 
1 4272 4749 
3 12004 12005 
1 12004 19434 
3 19433 19434 
1 1767 7159 
3 19432 19433 
3 7159 7160 
3 12005 12006 
1 2520 19432 
3 2519 2520 
3 17747 17748 
3 10999 11000 
3 2551 2552 
1 2551 10999 
3 2552 2553 
1 2553 6373 
3 11000 11001 
3 14303 14304 
2 6373 6374 
1 6375 10771 
2 6374 6375 
2 1151 1152 
3 9352 9353 
1 1152 9352 
1 1188 9282 
3 2797 2798 
1 2797 9381 
3 2798 2799 
3 15320 15321 
1 13233 15321 
3 15319 15320 
1 15319 16236 
1 1602 2799 
3 13232 13233 
3 18697 18698 
1 18697 19152 
3 12479 12480 
1 12480 21127 
3 21127 21128 
3 21128 21129 
3 18698 18699 
3 9152 9153 
3 6784 6785 
1 6784 18699 
3 9151 9152 
3 730 731 
1 730 9151 
3 6785 6786 
1 12006 15273 
1 2349 9153 
3 8482 8483 
1 8482 11421 
3 11420 11421 
3 2348 2349 
3 11419 11420 
1 6573 11419 
3 2347 2348 
3 21548 21549 
3 8483 8484 
1 666 2347 
3 6572 6573 
1 11001 16017 
3 5768 5769 
3 14302 14303 
1 8484 14302 
3 5767 5768 
1 5767 14736 
1 9354 14734 
3 14734 14735 
3 14735 14736 
3 20800 20801 
3 5788 5789 
1 5788 20800 
3 9353 9354 
3 20801 20802 
3 19151 19152 
3 13994 13995 
3 19150 19151 
3 1730 1731 
3 5393 5394 
1 1731 19150 
3 5392 5393 
1 5392 14544 
3 14543 14544 
1 5394 17106 
3 731 732 
3 13993 13994 
1 11526 13993 
1 732 16155 
3 11525 11526 
3 11524 11525 
3 7694 7695 
1 11097 11524 
3 7693 7694 
1 7693 15288 
3 11096 11097 
1 1896 7695 
1 3276 12268 
3 12268 12269 
3 7154 7155 
3 7153 7154 
3 3671 3672 
3 3670 3671 
1 3670 7153 
3 15287 15288 
3 15286 15287 
1 15286 21547 
3 21547 21548 
3 12269 12270 
1 3672 20802 
1 7155 15480 
3 20705 20706 
3 3439 3440 
1 3439 10297 
3 10298 10299 
3 10297 10298 
3 10675 10676 
3 7970 7971 
1 6882 20299 
3 20299 20300 
3 20300 20301 
3 9337 9338 
1 9337 17740 
3 9338 9339 
3 17740 17741 
3 17741 17742 
3 16055 16056 
3 16054 16055 
3 3440 3441 
3 10676 10677 
1 15075 21327 
3 15074 15075 
3 8534 8535 
1 8535 17712 
1 10677 14509 
3 8533 8534 
3 15073 15074 
3 6880 6881 
1 6880 15073 
3 6881 6882 
3 14509 14510 
1 9339 21304 
3 21304 21305 
3 21305 21306 
3 18257 18258 
1 3540 18258 
3 18256 18257 
3 3539 3540 
1 9021 9228 
3 9020 9021 
3 3538 3539 
1 3538 10977 
3 9019 9020 
1 9019 9438 
1 10488 16056 
3 20894 20895 
3 20893 20894 
1 12516 20893 
3 9437 9438 
3 9436 9437 
3 12515 12516 
3 9556 9557 
1 9556 21364 
3 6481 6482 
1 6481 9436 
3 9557 9558 
3 12514 12515 
3 7883 7884 
2 10772 10773 
3 6136 6137 
1 6136 8533 
1 7041 7089 
3 14147 14148 
3 14146 14147 
1 3216 14146 
3 6137 6138 
3 3215 3216 
3 7088 7089 
1 6798 14148 
3 10970 10971 
3 7087 7088 
1 7087 18256 
3 9227 9228 
3 10969 10970 
1 10969 14190 
3 14189 14190 
3 12104 12105 
3 12103 12104 
3 14188 14189 
1 702 14188 
1 3744 12103 
3 701 702 
3 3743 3744 
3 7160 7161 
3 21364 21365 
1 7161 20895 
3 664 665 
1 664 20362 
3 20362 20363 
3 20363 20364 
3 3742 3743 
1 3742 21366 
3 21365 21366 
3 665 666 
3 4055 4056 
3 4054 4055 
1 4054 12513 
3 7882 7883 
3 2518 2519 
1 2518 7882 
3 1546 1547 
1 1546 14304 
3 1547 1548 
3 8030 8031 
3 8029 8030 
1 8029 20589 
3 20588 20589 
2 1150 1151 
2 17198 17199 
1 10971 16234 
3 3214 3215 
1 3214 6858 
3 16235 16236 
3 20558 20559 
1 9132 20559 
3 20557 20558 
3 9131 9132 
3 16234 16235 
1 2109 20557 
1 3384 3600 
3 6857 6858 
3 5219 5220 
1 6786 12105 
3 3659 3660 
3 3383 3384 
3 803 804 
3 3382 3383 
3 802 803 
1 802 3382 
1 804 19837 
3 19837 19838 
3 3658 3659 
1 3658 11095 
1 3375 17514 
1 3660 13896 
3 3374 3375 
3 13895 13896 
3 6037 6038 
1 6037 21549 
3 13894 13895 
1 4056 13894 
3 6038 6039 
1 6039 11463 
3 175 176 
1 175 5787 
1 8031 11461 
3 11461 11462 
3 11462 11463 
3 5789 5790 
1 2118 5790 
3 2117 2118 
3 2116 2117 
1 2116 17197 
3 688 689 
1 688 18867 
2 17197 17198 
3 11569 11570 
1 11569 18709 
3 14542 14543 
3 3598 3599 
1 3598 14542 
3 11738 11739 
3 2108 2109 
3 14450 14451 
3 3599 3600 
3 11671 11672 
1 141 7339 
3 140 141 
3 7339 7340 
3 139 140 
1 139 11671 
3 11672 11673 
3 7340 7341 
3 17192 17193 
3 17191 17192 
1 17191 17253 
1 465 7366 
3 11095 11096 
3 1231 1232 
1 1231 14451 
3 12566 12567 
3 1232 1233 
1 1233 17512 
3 17512 17513 
3 17513 17514 
3 12565 12566 
3 464 465 
3 463 464 
3 11065 11066 
1 11065 12565 
3 11066 11067 
3 7366 7367 
3 176 177 
1 5751 12270 
1 177 11067 
3 5750 5751 
3 20365 20366 
3 5749 5750 
3 20366 20367 
1 11847 20367 
3 20704 20705 
1 690 5749 
3 689 690 
1 1671 10675 
2 1670 1671 
2 1669 1670 
1 1669 5235 
3 5234 5235 
2 5531 5532 
3 5233 5234 
2 10621 10622 
3 18955 18956 
1 4029 18955 
2 4028 4029 
2 4027 4028 
1 4027 10623 
2 10622 10623 
3 10975 10976 
2 4768 4769 
1 4768 10975 
3 10976 10977 
2 14122 14123 
1 14122 17742 
2 20869 20870 
2 20870 20871 
1 14124 20871 
2 4769 4770 
2 14123 14124 
1 819 6483 
2 818 819 
2 817 818 
3 6482 6483 
3 7913 7914 
1 5532 7912 
3 7912 7913 
3 17711 17712 
1 2589 4125 
3 2588 2589 
2 4124 4125 
3 17710 17711 
1 17710 18957 
2 4123 4124 
1 4123 17176 
1 7914 8709 
3 18956 18957 
3 4147 4148 
1 4147 17557 
3 17557 17558 
3 4148 4149 
3 17558 17559 
1 14877 17559 
3 16724 16725 
3 16954 16955 
3 14876 14877 
3 16723 16724 
1 16723 20683 
3 20683 20684 
3 20684 20685 
2 1486 1487 
1 1486 20685 
2 1487 1488 
3 8141 8142 
3 12203 12204 
3 12202 12203 
1 12202 15637 
2 15637 15638 
2 15638 15639 
3 2587 2588 
1 2587 14583 
3 20804 20805 
3 20803 20804 
3 14582 14583 
1 2151 20803 
1 16956 20805 
3 6797 6798 
3 16955 16956 
3 14525 14526 
3 2150 2151 
1 4149 6796 
3 700 701 
1 700 16725 
3 6796 6797 
3 10954 10955 
1 10954 14526 
3 10955 10956 
1 10956 17781 
3 17780 17781 
1 19839 21079 
3 21079 21080 
3 6493 6494 
1 6493 14209 
3 14209 14210 
3 19838 19839 
1 8142 17779 
3 17779 17780 
3 21080 21081 
3 3970 3971 
1 3970 17457 
3 18655 18656 
1 18657 21081 
3 18656 18657 
3 12512 12513 
3 8623 8624 
1 8623 8992 
3 8992 8993 
3 8624 8625 
3 8993 8994 
3 12511 12512 
3 3139 3140 
1 3139 12511 
1 3141 12204 
3 20587 20588 
3 3140 3141 
2 4094 4095 
2 4093 4094 
1 4093 17199 
3 9130 9131 
1 9130 14524 
3 6028 6029 
1 6028 20043 
3 20042 20043 
3 6029 6030 
3 2149 2150 
1 2149 5220 
3 20041 20042 
1 3972 6030 
3 7501 7502 
1 7501 12144 
3 11737 11738 
1 11737 20041 
3 679 680 
1 679 11673 
3 14524 14525 
3 13459 13460 
3 7988 7989 
3 6494 6495 
3 3971 3972 
1 13314 13459 
3 680 681 
1 681 5313 
3 5312 5313 
3 5311 5312 
1 5311 6495 
3 1130 1131 
1 1131 6166 
3 6166 6167 
3 3373 3374 
1 3373 9249 
3 5786 5787 
3 9248 9249 
3 9247 9248 
1 8994 9247 
3 14741 14742 
1 4506 14742 
3 5785 5786 
1 5785 19482 
3 14740 14741 
1 14740 17518 
3 17518 17519 
2 18866 18867 
3 19481 19482 
2 18865 18866 
3 19480 19481 
1 7989 17529 
3 18709 18710 
3 17774 17775 
3 17375 17376 
3 11602 11603 
1 11602 18711 
3 13460 13461 
3 11603 11604 
1 11604 13461 
3 18710 18711 
1 120 463 
1 17193 17341 
3 17773 17774 
1 1644 17773 
3 17341 17342 
3 17342 17343 
1 6168 17343 
3 6167 6168 
3 119 120 
3 2891 2892 
1 2892 19377 
3 2890 2891 
1 2890 5256 
3 4505 4506 
3 118 119 
1 118 4504 
3 4504 4505 
1 3606 15469 
2 3605 3606 
3 15469 15470 
3 15470 15471 
1 453 10621 
3 452 453 
2 3604 3605 
1 3604 5073 
3 5072 5073 
3 451 452 
1 451 5071 
3 5071 5072 
3 20000 20001 
3 1456 1457 
1 1456 5530 
2 5530 5531 
3 1457 1458 
3 19999 20000 
1 18288 18319 
2 18319 18320 
3 18287 18288 
2 18320 18321 
3 18286 18287 
2 5290 5291 
1 15807 20869 
2 2428 2429 
1 2428 19113 
2 3634 3635 
1 3634 14875 
2 2429 2430 
1 2430 3636 
2 3635 3636 
2 15806 15807 
2 15805 15806 
2 4034 4035 
3 5573 5574 
2 13145 13146 
3 17176 17177 
2 3946 3947 
1 3946 13146 
2 3947 3948 
1 3132 3948 
2 6655 6656 
1 6655 13144 
1 17178 18286 
2 19970 19971 
3 17177 17178 
1 5292 16527 
2 16526 16527 
2 16525 16526 
3 184 185 
1 184 16525 
3 185 186 
2 5291 5292 
1 186 16954 
2 13144 13145 
2 19969 19970 
2 17366 17367 
1 4500 19969 
3 14875 14876 
2 14440 14441 
3 8140 8141 
1 8140 14440 
2 14441 14442 
2 14728 14729 
2 6905 6906 
1 6906 19248 
1 15102 17365 
2 17365 17366 
2 15101 15102 
2 4033 4034 
1 4033 15639 
2 6904 6905 
1 6904 15100 
2 15100 15101 
3 21409 21410 
3 2270 2271 
3 3131 3132 
3 2269 2270 
1 2269 21409 
3 3130 3131 
1 3130 17499 
3 3469 3470 
1 3469 12057 
3 3470 3471 
1 3471 7503 
3 12056 12057 
3 12055 12056 
2 1492 1493 
1 1492 12055 
2 5581 5582 
1 5581 19971 
2 5582 5583 
1 5583 17455 
3 17455 17456 
3 17456 17457 
3 9581 9582 
3 6485 6486 
1 14730 19558 
3 20210 20211 
3 14210 14211 
3 19558 19559 
3 19559 19560 
1 14211 19560 
3 20209 20210 
1 7605 20209 
2 14729 14730 
1 3018 20211 
2 13073 13074 
2 13072 13073 
1 13072 15690 
3 290 291 
3 8468 8469 
3 7502 7503 
3 7987 7988 
1 7987 16467 
3 16466 16467 
3 16465 16466 
1 2367 16465 
3 2365 2366 
1 2365 9582 
3 2366 2367 
3 12224 12225 
3 928 929 
1 928 2634 
3 2632 2633 
3 13312 13313 
1 13312 13357 
3 6484 6485 
1 6484 13359 
3 13313 13314 
3 13357 13358 
3 2633 2634 
3 13358 13359 
3 1129 1130 
1 1129 4963 
3 4963 4964 
3 7604 7605 
1 4965 7603 
3 7603 7604 
3 4964 4965 
3 15689 15690 
3 17519 17520 
3 15688 15689 
1 15688 17520 
3 20078 20079 
3 16667 16668 
3 3517 3518 
1 3517 16666 
1 3519 17376 
3 16666 16667 
3 3518 3519 
3 1643 1644 
3 929 930 
1 930 1642 
1 12225 16668 
3 1642 1643 
2 5255 5256 
2 5254 5255 
1 13521 14715 
3 13520 13521 
3 13519 13520 
1 660 13519 
3 18584 18585 
1 8952 18585 
3 18583 18584 
2 1045 1046 
1 1045 18583 
3 659 660 
2 1046 1047 
2 11005 11006 
1 4908 11005 
3 4907 4908 
2 11006 11007 
3 4906 4907 
3 11803 11804 
3 11804 11805 
3 5656 5657 
3 14714 14715 
3 14713 14714 
2 15914 15915 
1 1299 15915 
2 1298 1299 
2 1297 1298 
1 1297 10867 
3 8951 8952 
3 1226 1227 
2 21034 21035 
2 21035 21036 
3 8950 8951 
3 7126 7127 
2 15913 15914 
1 15913 18538 
3 18538 18539 
3 16075 16076 
1 11007 16075 
3 2012 2013 
1 2013 4546 
3 2011 2012 
1 2011 14505 
3 19054 19055 
3 19055 19056 
2 21190 21191 
1 16692 21190 
2 9590 9591 
2 4546 4547 
2 9589 9590 
1 4548 9589 
2 4547 4548 
2 11834 11835 
3 10121 10122 
2 11833 11834 
3 10120 10121 
1 10120 11833 
2 21191 21192 
1 8406 21192 
2 8405 8406 
3 21317 21318 
3 21316 21317 
2 8404 8405 
2 7423 7424 
2 7424 7425 
3 2300 2301 
3 2299 2300 
1 2299 5463 
1 1149 2301 
3 1148 1149 
2 5462 5463 
1 1392 7128 
3 1391 1392 
3 1390 1391 
1 1390 8188 
3 8188 8189 
3 8189 8190 
1 1047 19038 
3 1147 1148 
1 1147 3750 
3 3973 3974 
1 3973 11787 
3 3974 3975 
1 3975 12667 
3 17635 17636 
3 12667 12668 
3 2110 2111 
1 2110 4906 
3 12668 12669 
3 2111 2112 
3 17636 17637 
1 2112 19770 
3 10327 10328 
1 10327 11805 
3 10328 10329 
1 13650 17637 
3 11129 11130 
3 11128 11129 
1 11128 16989 
3 13649 13650 
3 16988 16989 
1 5451 16987 
3 16987 16988 
2 10249 10250 
2 10250 10251 
1 10251 20305 
3 13837 13838 
3 13414 13415 
1 13414 13837 
3 16742 16743 
3 16741 16742 
3 13838 13839 
3 20305 20306 
3 13415 13416 
2 5461 5462 
1 5461 13416 
1 1362 5950 
3 1361 1362 
3 1360 1361 
1 1360 11677 
3 11677 11678 
3 5950 5951 
3 1225 1226 
1 1225 11785 
3 11785 11786 
3 11786 11787 
3 7127 7128 
1 150 2998 
3 18539 18540 
3 2998 2999 
3 2999 3000 
1 3000 18540 
3 149 150 
3 5951 5952 
3 14503 14504 
1 14503 17635 
3 14504 14505 
1 16194 18091 
3 18091 18092 
3 2671 2672 
1 2671 16192 
3 16192 16193 
3 16193 16194 
3 11272 11273 
1 11272 16042 
3 2672 2673 
1 11130 19056 
3 16042 16043 
3 16043 16044 
3 10760 10761 
3 10759 10760 
1 10759 16044 
3 21529 21530 
3 21530 21531 
3 11747 11748 
1 11748 21531 
1 13839 17875 
2 17876 17877 
2 17875 17876 
2 15178 15179 
1 3900 15178 
3 11678 11679 
2 16691 16692 
2 16690 16691 
1 11679 16690 
3 8125 8126 
3 3898 3899 
1 3898 8125 
3 3899 3900 
3 7142 7143 
3 18092 18093 
3 7141 7142 
1 7141 9232 
3 11273 11274 
3 4156 4157 
1 4156 21318 
3 2677 2678 
3 2678 2679 
1 2679 3186 
3 4157 4158 
1 4158 7351 
3 7351 7352 
3 7352 7353 
1 7353 9471 
2 15179 15180 
2 12698 12699 
2 12697 12698 
2 355 356 
1 355 7425 
2 356 357 
1 357 20590 
3 20590 20591 
3 18623 18624 
3 20591 20592 
3 7138 7139 
1 7138 12697 
2 4121 4122 
3 21028 21029 
2 4120 4121 
1 4120 21028 
3 21029 21030 
3 10502 10503 
1 2814 17701 
3 2812 2813 
1 2812 5952 
3 2813 2814 
3 8882 8883 
3 17701 17702 
3 148 149 
1 148 7962 
3 17702 17703 
1 3939 17703 
3 19852 19853 
3 11149 11150 
3 7961 7962 
3 13660 13661 
3 7960 7961 
1 7960 11149 
3 13661 13662 
3 11150 11151 
3 838 839 
1 838 5647 
3 14020 14021 
3 5647 5648 
1 12669 14020 
1 11151 19852 
3 13648 13649 
3 12862 12863 
1 12862 13662 
1 8082 10761 
3 8081 8082 
3 8080 8081 
1 8080 12630 
1 14394 17130 
3 12863 12864 
3 12629 12630 
1 10335 12864 
1 213 13648 
3 11746 11747 
3 133 134 
1 133 11746 
3 134 135 
1 135 5437 
3 5437 5438 
3 12943 12944 
1 12943 20676 
3 12628 12629 
3 5438 5439 
1 8913 12628 
3 5450 5451 
3 532 533 
3 533 534 
1 4188 11026 
3 11026 11027 
2 3832 3833 
1 18207 18624 
2 18206 18207 
2 18205 18206 
3 20306 20307 
2 3833 3834 
1 14580 16743 
2 4474 4475 
1 4474 10503 
3 14579 14580 
2 4475 4476 
1 4476 14578 
3 14578 14579 
1 468 8127 
3 467 468 
3 9233 9234 
3 8881 8882 
1 8881 21237 
3 21236 21237 
3 21235 21236 
3 466 467 
1 466 21235 
3 1808 1809 
1 1809 21274 
3 21274 21275 
1 2673 13660 
3 839 840 
1 8550 9234 
1 840 8548 
3 8548 8549 
3 3184 3185 
3 8549 8550 
3 205 206 
1 205 3184 
3 206 207 
3 3185 3186 
3 8135 8136 
3 14393 14394 
3 9470 9471 
1 207 14392 
3 9469 9470 
1 9469 11790 
3 14392 14393 
3 11789 11790 
3 10157 10158 
3 11788 11789 
1 11788 20674 
1 10158 20283 
3 20675 20676 
3 20674 20675 
1 2535 19500 
3 19499 19500 
3 5273 5274 
3 4186 4187 
1 4186 19498 
3 19498 19499 
3 4187 4188 
3 2860 2861 
1 2860 5274 
3 997 998 
3 8126 8127 
2 7016 7017 
3 998 999 
2 7015 7016 
1 999 7015 
3 9232 9233 
3 21275 21276 
3 8134 8135 
3 7313 7314 
3 14635 14636 
3 14636 14637 
3 10156 10157 
3 3058 3059 
1 3058 10156 
3 7312 7313 
1 3060 7312 
3 3059 3060 
3 1115 1116 
1 1116 8935 
3 8935 8936 
3 8936 8937 
3 2533 2534 
3 2534 2535 
3 5272 5273 
1 5272 8937 
2 5731 5732 
1 5731 14635 
2 5732 5733 
3 1114 1115 
3 8371 8372 
2 2504 2505 
2 10118 10119 
2 15793 15794 
2 15794 15795 
1 3072 7140 
3 7139 7140 
3 17426 17427 
3 3071 3072 
3 8974 8975 
1 8974 20553 
3 3070 3071 
1 3070 7219 
3 7219 7220 
3 18622 18623 
3 11320 11321 
1 11320 18622 
3 11321 11322 
3 9104 9105 
1 11322 14239 
3 14239 14240 
3 9103 9104 
3 14240 14241 
3 10501 10502 
1 10501 11203 
3 11203 11204 
3 11204 11205 
1 201 7677 
1 11205 14358 
3 200 201 
3 4387 4388 
1 4387 8883 
3 14357 14358 
3 5287 5288 
1 5287 9103 
3 4388 4389 
1 4389 19774 
3 5648 5649 
3 2740 2741 
1 2740 11394 
3 19774 19775 
3 19775 19776 
1 5649 14185 
3 14185 14186 
3 11393 11394 
1 8832 14187 
3 17129 17130 
1 7344 17128 
3 17128 17129 
3 4181 4182 
3 4180 4181 
1 4180 16036 
3 16036 16037 
3 14186 14187 
3 7343 7344 
3 6061 6062 
1 6061 7342 
3 12944 12945 
1 12945 19159 
3 19159 19160 
3 19160 19161 
3 7441 7442 
1 7441 11643 
3 11642 11643 
3 11641 11642 
3 7342 7343 
3 1894 1895 
1 1894 11641 
3 11027 11028 
3 15479 15480 
3 7813 7814 
1 10734 11028 
3 15478 15479 
3 7507 7508 
1 7507 7813 
3 7508 7509 
1 7509 15478 
3 10733 10734 
2 5810 5811 
1 5811 15795 
3 8975 8976 
1 3834 15117 
1 8976 15115 
3 15115 15116 
3 15116 15117 
3 5299 5300 
1 5299 9105 
3 15973 15974 
3 12769 12770 
3 15974 15975 
1 15975 16147 
3 5300 5301 
3 12770 12771 
1 12771 20167 
3 199 200 
1 199 20169 
3 1807 1808 
1 1807 10213 
3 20167 20168 
3 20168 20169 
3 13688 13689 
3 10213 10214 
1 11733 13689 
3 13687 13688 
3 11488 11489 
1 11488 13687 
3 10214 10215 
1 8136 16948 
3 16948 16949 
3 11392 11393 
1 10215 11392 
3 16949 16950 
3 5611 5612 
1 5611 14676 
3 5612 5613 
3 14675 14676 
1 16038 16950 
3 16037 16038 
3 8699 8700 
3 20282 20283 
1 6210 8700 
3 20281 20282 
3 6209 6210 