ITEM: TIMESTEP
35000000
ITEM: NUMBER OF ATOMS
3648
ITEM: BOX BOUNDS pp pp pp
0.0000000000000000e+00 5.0000000000000000e+01
0.0000000000000000e+00 5.0000000000000000e+01
0.0000000000000000e+00 5.0000000000000000e+01
ITEM: ATOMS id type vx vy vz 
2727 1 -1.4719 3.56032 6.55167 
2726 3 4.7835 3.79861 1.70223 
10309 1 -0.724736 -3.3857 -2.15626 
10310 2 -0.585497 5.06931 -2.16082 
6562 1 -1.89734 -2.06409 0.833861 
522 1 2.03988 -4.06241 0.475608 
10311 1 -5.74247 0.609157 -3.98561 
6010 1 0.58016 -5.61436 -3.86515 
6011 3 -3.87408 -0.148505 -3.60073 
6012 1 -2.0032 1.17984 -0.721989 
8062 1 -5.79629 2.78347 0.408129 
521 2 0.750815 0.886318 1.62834 
1663 1 5.1238 1.72427 -1.76053 
1664 2 0.0450232 0.19591 -3.26878 
14458 1 -2.75113 1.57719 0.913414 
520 1 -1.01794 -1.01967 -4.29732 
6487 1 1.51295 4.47765 -1.3137 
6488 3 -4.44038 5.66451 1.72501 
20599 1 3.08832 2.77583 0.0712326 
20600 3 -1.08759 -0.364733 -0.344026 
20601 1 -3.55368 1.81784 -1.41041 
5457 1 -3.06762 3.69622 -6.00986 
5456 3 -0.521357 0.904744 -2.83969 
5455 1 -4.16006 3.39385 -3.20957 
17664 1 -3.1578 -2.04468 3.66325 
2725 1 -0.541136 -3.77827 4.11961 
3300 1 6.73413 -1.07837 -0.511665 
3299 3 0.703963 -2.85623 0.118135 
3298 1 -0.435643 0.612888 -1.26274 
19344 1 -1.92404 -5.13614 -0.155389 
19343 3 -5.39177 -3.1289 -3.41662 
11037 1 4.748 -0.609701 -3.30602 
11036 3 5.60347 -0.786197 -2.29526 
11035 1 4.41325 -2.83476 -0.424434 
12189 1 3.85064 -1.51245 -10.1192 
5875 1 -3.05515 -5.29324 -0.496414 
5876 2 -0.548866 -1.92225 -0.0430955 
5877 1 -1.19912 -5.16903 1.21372 
15796 1 1.33485 -5.24041 -6.13527 
21271 1 -2.06252 0.439891 0.219725 
12188 2 -0.00698502 -0.296035 1.70577 
12187 1 2.42382 1.57457 -1.80836 
20439 1 -1.00721 -0.688379 -0.494809 
20438 2 -4.60648 -3.49401 -2.73561 
20437 1 -0.979045 -2.5749 2.08017 
4279 1 -1.57048 5.486 -8.0344 
4280 2 1.8159 -0.37152 -4.87622 
6563 3 -0.824117 0.0212927 -2.96581 
4846 1 3.49104 -2.33947 -3.38398 
4281 1 -3.33016 2.31439 -0.166235 
19816 1 -4.76516 1.24899 -6.62808 
19817 3 0.554083 -0.5919 2.12701 
19818 1 -0.214465 -0.920701 -5.78688 
6679 1 1.22559 5.38996 -0.340346 
16377 1 1.30495 0.658853 0.0613784 
21073 1 0.0886369 0.265094 3.47071 
4638 1 -1.79128 0.169128 1.61238 
1134 1 1.24071 -2.21246 1.11295 
1133 3 -3.33122 1.30262 -6.35577 
6564 1 7.21185 5.49784 -0.616847 
1285 1 1.73848 0.747881 1.1965 
1286 2 -4.00819 1.76622 -4.2882 
1287 1 -0.143517 -4.69232 0.428651 
18439 1 -2.01614 -4.95147 -8.8975 
18151 1 -6.95733 -7.10891 -1.92766 
14459 2 1.37058 -2.51635 -1.27808 
14460 1 -5.62472 1.40516 -0.959069 
7002 1 -2.10501 4.38471 -3.44818 
11325 1 0.646289 3.31195 -2.19053 
11324 2 0.721013 -6.06162 3.49179 
11323 1 4.06486 -5.60937 1.88822 
15937 1 -0.180308 1.55443 -1.22941 
15938 2 4.60758 3.07786 1.03404 
1665 1 4.40778 -1.31119 2.815 
16782 1 5.14833 -1.65024 -0.779804 
18153 1 -0.77165 3.61913 -8.88571 
18152 2 2.32545 -1.85436 -3.18056 
5022 1 1.47822 -4.40215 3.69869 
1438 1 0.595948 -2.49576 -2.75234 
1439 2 -0.360046 -2.48692 -3.59518 
1440 1 3.52976 -2.43244 -5.71167 
6489 1 -1.20408 0.127639 -6.5955 
4637 2 2.16197 0.427754 -2.44101 
17663 2 4.10402 -2.49924 1.73522 
1132 1 -3.01362 -1.00794 -7.07931 
3691 1 1.46044 -3.73411 -1.05031 
12678 1 2.80754 0.671466 5.92026 
3692 3 6.90987 0.73298 -2.331 
3693 1 -0.499501 -2.19216 0.0726954 
17994 1 5.81795 5.06738 -2.14123 
17993 2 3.1522 -1.35093 2.80943 
16781 2 1.49084 0.89562 -0.138799 
16780 1 -4.36602 1.58362 0.15224 
7555 1 -4.7484 -0.646316 -1.6811 
19342 1 -1.57554 6.64525 2.94934 
13969 1 2.96328 -4.63644 0.0736985 
13970 2 -2.37477 -2.03489 -1.42091 
13971 1 5.19351 5.84728 1.31583 
20878 1 -0.356798 2.33025 4.96683 
20879 2 -3.38312 -3.09203 3.52981 
16868 2 4.15993 -2.04777 0.89649 
16869 1 9.27052 -1.10005 1.46633 
17662 1 1.11725 2.58411 5.26471 
2829 1 -0.976387 0.539627 2.40844 
2828 2 0.494236 -0.498272 3.8832 
2827 1 2.12275 -1.2875 0.905227 
15142 1 0.625712 -0.158015 0.394895 
2983 1 -6.36945 -0.681866 -3.14654 
2984 2 -0.0662445 -2.98334 -1.7538 
9786 1 7.351 2.29513 -6.53216 
14766 1 0.00195654 2.18345 -4.82049 
14765 2 -0.693168 -0.606457 2.08246 
14764 1 -1.5209 4.92424 4.81457 
6649 1 2.53519 -2.52493 0.46191 
15984 1 0.109632 6.10502 2.0272 
14094 1 1.95439 0.910134 -2.16119 
14093 2 -3.06378 0.931736 1.0604 
14092 1 3.76077 3.28037 -6.42309 
9921 1 -6.24149 1.6249 -0.203662 
16753 1 -3.49561 -2.72009 4.77601 
15983 2 1.11146 1.31887 -0.54628 
21272 2 -1.42276 2.07903 0.652569 
15982 1 -1.58926 4.94819 -3.70777 
138 1 1.4593 3.63752 -1.76237 
137 2 2.5507 2.9021 2.37312 
21273 1 -5.47123 5.1707 2.82253 
9920 2 -1.44802 -2.08251 -1.16208 
19901 2 -0.506026 -2.23478 1.98996 
9919 1 2.64099 0.922607 -1.5622 
19900 1 3.95825 3.68871 -2.15868 
13914 1 0.182192 9.61124 2.71003 
16312 1 -0.92165 0.594839 -3.74937 
13912 1 -1.58665 -3.17342 0.600444 
13913 2 -3.28756 -1.39879 -0.912733 
8306 2 0.570565 0.396184 -3.34494 
8307 1 3.52935 2.23222 -2.79666 
4848 1 -0.551063 -1.35901 0.132102 
4847 2 1.05575 0.433027 0.716647 
6680 2 -0.219067 1.20654 0.128312 
16754 2 5.84588 -1.06569 -2.23405 
21037 1 5.09294 -2.95374 -6.72649 
21038 2 4.80741 2.58661 0.931292 
16755 1 -3.39243 -5.49293 1.13118 
21039 1 -1.08172 4.64612 2.64602 
16376 2 0.142657 -1.30671 1.13006 
21074 2 -1.20119 -3.91912 -0.661531 
9666 1 4.54521 -2.09139 -3.68495 
9664 1 -1.62497 2.20496 0.904483 
9918 1 3.97085 -1.41215 -3.1804 
9665 2 2.75625 -2.20083 4.59037 
14646 1 2.60354 -2.16496 2.0602 
21075 1 -5.34886 -2.21505 1.30991 
14645 2 0.613899 1.6737 -3.3195 
14644 1 2.69834 0.0241057 3.07326 
9917 2 0.27303 2.82595 1.56314 
19242 1 3.50001 -2.74712 0.0796168 
16313 2 1.32075 3.80139 -2.36705 
19255 1 5.8859 -2.04665 2.14836 
19256 2 0.273409 -2.03554 1.62897 
19257 1 -3.88372 -4.26668 2.43969 
12834 1 5.2716 0.703576 -1.57193 
12833 2 -0.701616 0.459319 -5.5133 
9569 2 -3.71554 -1.82211 0.275058 
10665 1 13.6361 -2.87532 -1.3833 
15939 1 1.58396 2.96551 4.21045 
9568 1 0.499364 5.61027 -2.41541 
6681 1 0.225114 -1.62623 3.31512 
7001 2 2.62471 -0.158365 0.482606 
7000 1 1.70373 -2.06942 2.74244 
7192 1 -2.54075 2.40907 4.10702 
678 1 2.83702 1.21504 3.25001 
677 2 -2.67696 -1.33093 -0.338509 
676 1 -2.44208 0.681129 -2.11025 
7193 2 -0.955519 -1.50051 0.951603 
3802 1 1.29003 3.55761 -3.17717 
7194 1 4.71391 -3.76745 -2.98717 
14182 1 4.11684 -3.31022 -1.80025 
11091 1 4.43705 1.46479 -0.525438 
10831 1 3.3483 -6.01576 -5.78211 
10832 2 0.0600297 -3.04479 1.64658 
16375 1 3.8 -2.56966 -0.876872 
10833 1 -2.13468 4.20191 -4.13333 
2159 2 2.21856 2.26216 -1.13791 
2158 1 -2.21537 3.1349 0.724619 
9106 1 0.0776223 7.15075 1.66225 
5021 2 2.88758 0.302194 -3.29566 
5020 1 -6.05056 0.900769 -2.33616 
2160 1 8.48768 -0.193957 -1.84749 
4636 1 -1.55085 3.50017 -0.3421 
1054 1 -0.560993 -1.59353 -0.136839 
1055 2 -1.52386 1.4147 -1.76895 
16126 1 -3.29959 -1.74236 -1.0374 
1056 1 -2.92667 -7.39756 8.70232 
16127 2 4.74176 0.070404 0.535453 
17992 1 5.08571 1.09945 4.45724 
12677 2 -0.627122 -2.04814 -5.58767 
1902 1 -0.649887 0.783388 0.795478 
18440 2 2.45914 3.11831 -1.15059 
18441 1 0.995705 -3.2099 2.19894 
8304 1 -1.23917 -2.2133 -2.0572 
8303 2 4.6799 0.523404 0.362196 
1901 2 -2.21738 5.91835 -3.09716 
8302 1 0.820717 -5.56878 0.258476 
1900 1 1.3254 0.557877 -0.146451 
10191 1 2.36789 4.11476 3.10384 
12676 1 5.28393 1.84382 3.01445 
19743 1 3.82859 -3.46839 3.01194 
9570 1 -4.63638 -2.10909 2.03029 
17439 1 -1.53485 -6.78928 2.42367 
3838 1 5.55416 1.88363 0.794964 
7556 2 -1.55216 -0.775473 -3.19596 
7557 1 -3.10884 1.61817 3.02001 
20106 1 5.91453 1.05196 5.16873 
20105 2 1.55594 -3.44324 -0.377034 
20104 1 -6.38897 -2.39511 -0.897099 
4071 1 5.59119 -6.11838 5.59413 
20880 1 -1.73664 0.055125 4.21445 
4069 1 4.11069 0.755149 4.0154 
2752 1 3.93946 -0.272984 -7.91155 
4070 2 -1.49965 -2.61901 -0.47637 
1936 1 -2.19085 -4.2169 5.62175 
15677 2 2.15902 -2.44007 -1.70341 
1937 2 -2.63761 0.391871 -2.2271 
1938 1 1.32965 -5.65704 4.74209 
15678 1 0.526457 0.44701 5.7636 
2753 2 -2.02008 -0.201353 -2.02286 
2483 2 -2.40381 0.230516 -1.24353 
16867 1 1.1138 1.96757 4.54109 
2484 1 -8.19801 5.2556 -4.16774 
19742 2 4.15234 1.78681 -1.58591 
15143 2 2.30784 1.99538 -1.5142 
19741 1 1.44684 2.8254 1.47381 
15144 1 -3.68354 -4.35447 -0.0526683 
16560 1 5.37464 -3.03365 -3.27571 
16559 2 3.40821 0.709366 0.291538 
18859 1 4.29111 -4.23228 -0.322305 
16558 1 -6.70104 -2.36881 -2.66074 
6271 1 0.660634 -2.69172 0.731319 
2985 1 -0.292178 -5.91709 1.94006 
20065 1 0.658673 0.157716 4.79563 
20066 2 1.61206 -0.716663 -0.874967 
20067 1 -0.323855 -5.26105 2.48336 
9785 2 0.352232 -0.33309 1.72521 
9784 1 -3.7693 1.55925 5.0773 
18793 1 3.58185 -3.495 -2.07455 
18794 2 -0.390591 1.01531 0.736087 
6651 1 4.51925 -0.635976 3.34852 
6650 2 0.313425 0.616129 -1.02256 
8317 1 -4.21045 1.27293 -1.01166 
8318 2 2.69347 1.73209 3.21478 
8319 1 0.83305 -2.27556 -2.5389 
6979 1 0.534119 7.9288 -8.91973 
2482 1 -4.11125 -2.13504 -2.98739 
13761 1 -2.87847 -1.16338 1.15628 
13760 3 -3.23849 1.72674 -1.57033 
1450 1 -1.72595 -2.66926 -1.5465 
18795 1 1.83512 -3.32391 -2.84422 
18605 3 2.65932 -1.25547 -2.86217 
18604 1 2.91598 3.21233 -2.77149 
14168 2 3.35595 -0.226436 0.916768 
14169 1 -3.73893 -0.854662 2.63684 
421 1 -9.10783 -3.76833 -1.40486 
19902 1 -1.85839 -4.32552 2.83191 
17440 1 3.62206 0.713477 -4.00429 
136 1 -4.34905 -1.06007 -8.65493 
6051 1 -3.94279 1.27806 -0.404488 
17441 2 -3.61422 0.38599 2.70829 
17442 1 -0.777318 0.160884 -3.62702 
5896 1 5.69246 3.52951 3.38838 
5897 2 -4.71608 0.235465 0.0548832 
12078 1 -0.855964 -1.28592 1.35182 
8305 1 4.40435 -4.07175 1.02226 
12077 3 2.31212 -1.4867 0.26877 
12076 1 -0.701386 0.205053 4.22163 
7281 1 -2.72073 2.77609 1.72922 
14690 3 -3.39016 4.39813 -0.687348 
4486 1 0.898606 -0.110222 -1.21001 
9577 1 7.41623 -0.343125 3.66389 
11214 1 -1.6221 -0.625206 0.278021 
21402 1 -5.85117 -5.10798 -2.89347 
9578 2 0.425753 1.69595 -4.28766 
422 3 2.15174 -2.50235 -1.65864 
423 1 -2.57199 1.61019 -8.90673 
14691 1 -1.25441 -0.224248 0.658651 
11213 2 -0.512646 2.01646 2.24658 
11212 1 3.14755 4.72879 -3.40971 
20308 1 -0.0633255 -1.61682 -7.66776 
9579 1 -2.10794 -0.369971 -2.98362 
8926 1 -3.08122 -0.731917 4.11525 
6050 2 0.880236 0.985791 0.188087 
2140 1 -0.426749 -1.94781 -2.28261 
9916 1 -2.65852 -0.317631 6.38127 
6049 1 0.759354 -5.01707 0.882072 
7852 1 0.720584 -1.24165 3.69817 
7853 3 1.98757 -2.01777 2.26796 
7854 1 3.31564 -5.95781 -0.200787 
13713 1 -1.98962 7.01079 -3.45757 
13712 2 -4.28819 1.70835 2.86873 
2185 1 -3.51026 1.79318 -5.06007 
2186 2 4.34625 -2.66989 1.67445 
18459 1 -3.53166 -6.50464 1.57783 
19241 2 -0.27862 0.310703 1.56098 
19240 1 -0.889513 2.28108 3.16287 
2187 1 1.96981 2.43509 2.54059 
12832 1 7.11729 -1.55141 2.19252 
16314 1 -0.884558 6.5462 0.901414 
19713 1 -4.02966 -0.0826958 4.7178 
7280 2 0.571336 -2.23712 1.51778 
5870 2 -0.99554 -2.89416 0.426132 
7279 1 -1.66238 4.99961 -3.94477 
5871 1 -2.57146 -6.42361 -1.12161 
19712 2 -0.0972285 -1.309 1.83479 
19711 1 -0.84847 -5.26929 -0.495794 
6778 1 -2.18898 -1.50829 3.62888 
10664 2 0.764688 -2.09546 1.39827 
3803 2 0.513508 2.62694 3.29616 
20309 2 -0.336286 2.58118 -0.372086 
19122 1 1.05335 -5.05664 -1.10508 
1957 1 4.0034 7.78835 -3.12231 
10580 2 -0.122251 4.56168 1.52098 
3804 1 -3.08086 -4.62022 -1.24105 
1959 1 -1.50617 -5.14331 3.99239 
1958 2 2.5223 2.57376 2.75918 
10663 1 -0.549051 -3.32346 2.96554 
10581 1 1.94386 -0.156858 -0.391042 
8928 1 5.42598 0.997149 -0.150607 
8927 2 -0.817665 -2.66015 -0.51007 
20810 2 1.72609 -2.2165 4.14693 
20809 1 2.2958 -2.03564 -2.05447 
20811 1 -0.500418 -1.01008 5.44747 
9107 2 1.39938 1.15872 -2.51652 
7386 1 0.362288 -3.16333 -1.42059 
2449 1 4.46601 -2.57844 -0.199277 
7818 1 9.91514 -1.22609 3.53309 
18458 2 -2.65964 -1.81447 -4.48044 
18457 1 5.55825 3.32052 0.762669 
21105 1 -3.2414 6.57625 -0.249343 
7817 2 -5.87449 0.152916 -5.71642 
16128 1 -3.2817 -0.395805 0.337967 
7816 1 0.864283 0.200762 -0.204275 
21104 2 -1.95462 -0.930597 -0.233987 
21583 1 4.37302 2.88953 3.91224 
21584 2 1.10874 0.468143 -2.16551 
21103 1 -0.881177 1.46481 -1.00845 
10190 2 -4.21617 1.34465 2.44178 
3839 2 0.46298 3.31315 -0.59061 
3840 1 -4.11868 -1.60448 -0.454904 
14013 1 -4.61887 -4.21631 4.94385 
14012 2 -2.82678 0.224335 -0.0241998 
11652 1 3.0311 5.44016 1.12665 
13744 1 -0.417814 -1.6407 -3.84714 
17438 2 -1.70268 -0.323645 0.289087 
17437 1 1.81082 4.07903 1.92304 
11650 1 -8.41396 -2.85098 -3.55138 
11651 2 1.83325 0.093758 -1.21412 
6779 2 -3.88904 1.88974 -2.16585 
14011 1 -0.281428 -2.21375 0.0678697 
17043 1 -3.01651 -4.85924 -1.06755 
17042 2 1.70492 2.9286 1.58746 
14183 2 0.361789 1.23837 -0.150132 
1743 1 2.90844 3.86894 2.13781 
17041 1 -0.146118 -1.83561 -4.34561 
14184 1 -4.69881 5.4795 1.68146 
4917 1 -0.969191 2.23008 0.892475 
4916 2 -2.75505 0.998674 -0.392163 
6676 1 -0.965537 3.95724 -0.0181377 
14916 1 2.2373 0.239436 -1.84578 
2754 1 1.98536 -1.36529 -5.98134 
285 1 3.09587 3.00977 1.96132 
9108 1 -1.3936 1.9436 -1.85729 
14914 1 2.78497 -3.25893 4.43207 
14915 2 1.53154 -5.22527 -2.77554 
14042 2 2.72875 -4.27431 2.87482 
15676 1 3.26571 -0.446203 -5.8884 
19363 1 0.183856 -1.4801 0.483605 
19365 1 -0.360575 5.98671 0.556828 
19364 2 -3.14916 0.126729 2.61426 
21585 1 3.59223 -5.52983 6.82808 
13119 1 -5.00321 -0.522755 2.35005 
14043 1 3.42274 -3.64843 0.345901 
13118 2 2.2982 1.98934 0.874032 
8577 1 0.303854 7.72561 -1.9691 
13575 1 -1.70404 -0.714667 3.1803 
18260 2 -3.96339 -1.24126 -0.0981656 
18861 1 -0.420212 5.80201 3.89388 
18860 2 -1.85434 -2.87146 -1.89428 
18261 1 5.13029 5.4386 0.143709 
10189 1 -0.349309 -0.830509 0.694378 
8575 1 -3.57106 0.925344 3.12979 
8576 2 3.58159 -1.89992 -2.03245 
10185 1 3.74759 -0.766115 4.82962 
10183 1 1.6344 0.398773 2.96641 
2127 1 2.76813 2.96505 -1.59372 
10184 2 -3.27941 -0.203661 -3.94143 
18259 1 3.12377 10.0008 0.61586 
1742 2 3.23428 -1.75043 -1.25628 
6273 1 0.963291 7.48149 -0.70235 
6272 2 -1.67814 -3.16866 -2.18831 
6176 2 2.08376 -4.29773 0.283178 
6177 1 -3.11904 -0.728461 -2.01298 
6175 1 -0.272129 7.512 5.71382 
16878 1 1.31069 -0.7495 0.463818 
5791 1 2.16455 1.15002 1.85819 
284 2 4.01928 -3.14793 0.690367 
14917 1 -1.33265 -7.38573 1.23134 
283 1 6.8669 -2.46356 0.834819 
3673 1 6.70448 -0.609863 3.82063 
14919 1 0.775397 3.60414 -3.9708 
14918 2 -4.92436 -2.93693 -0.97158 
20233 1 1.73997 -3.8216 0.503815 
3674 2 1.69733 -0.724805 -4.52431 
6981 1 -0.97013 1.28231 4.21133 
6980 2 0.424559 -0.78804 -0.827948 
19484 2 -1.49808 -0.408516 -2.63888 
19485 1 -1.03009 -1.26872 -1.54696 
19483 1 -0.971207 -0.63212 -6.11838 
12150 1 -2.85536 5.36189 0.679049 
13759 1 -0.237964 -6.18574 1.53741 
7311 1 -0.292543 -0.779514 4.04441 
12148 1 -0.754027 0.157694 -4.10116 
13574 2 -2.61653 2.4283 -5.00888 
12149 2 -5.10621 -0.469511 4.23626 
1451 3 -2.13934 1.45028 -0.350288 
13471 1 -2.77835 1.56649 9.60469 
13472 2 -0.854135 3.87684 -2.58112 
1452 1 -4.78103 -2.90776 -1.1811 
13473 1 0.720473 0.048062 -4.58986 
18606 1 -3.63779 1.68988 -1.63552 
14839 1 -1.15058 2.80474 2.54841 
5808 1 -1.80699 1.18483 0.285818 
5898 1 4.6674 5.09688 3.47445 
1019 2 2.19067 0.26411 0.765914 
4487 2 0.948129 -0.83132 -1.64308 
2675 2 -3.62183 -1.50807 1.04723 
2674 1 2.76062 -0.563182 -7.63349 
1020 1 2.50877 2.19905 3.88455 
2676 1 -5.80865 3.48683 -0.575358 
1018 1 3.21291 1.25974 -0.214848 
14689 1 -3.06236 4.37007 4.28316 
17935 1 1.21776 -3.34389 4.80262 
17937 1 -0.940926 -2.61222 -1.97995 
17936 3 2.02688 6.83648 4.26532 
16070 2 -0.363688 0.626656 1.10866 
16071 1 0.103909 -0.370863 5.71995 
8169 1 6.23703 0.321108 -0.693068 
15381 1 0.397336 1.9038 1.99224 
8168 2 0.760638 -1.83825 1.55654 
3694 1 0.597059 -1.33954 -4.56131 
16069 1 0.674456 -2.0097 -0.354469 
1354 1 0.000342529 -2.56062 4.90891 
1355 2 1.13479 -0.158059 -0.452287 
14841 1 5.61277 -1.32437 0.664908 
14840 2 2.86521 1.19706 -1.71132 
7059 1 5.08091 -0.731557 -5.86462 
5806 1 1.65128 2.0328 2.44825 
5807 2 -1.80336 0.208148 1.01824 
7058 2 -0.185938 -2.61691 -0.723895 
7057 1 -0.534178 -4.02314 6.6865 
14837 2 -2.70104 -0.651479 -3.4499 
14838 1 -2.11491 1.58342 0.963321 
13711 1 -8.24165 2.543 2.93693 
12935 2 -0.992485 -6.0597 -0.405395 
12936 1 -0.532626 0.286777 2.69644 
14836 1 -0.214299 -1.22274 -2.01975 
2141 2 1.57873 4.36313 -1.93947 
4488 1 0.653644 3.24791 -0.498209 
12934 1 -5.81284 -1.34289 1.97375 
21592 1 1.67451 3.36706 -0.0454344 
21593 2 0.831508 -2.59329 -0.286205 
14322 1 -1.17549 -5.81109 0.651995 
21594 1 -1.64711 -2.86677 1.14253 
5869 1 0.99975 -3.41986 -5.66786 
116 2 -0.875431 1.43012 6.31391 
115 1 -4.42626 -0.167377 4.66491 
15052 1 -2.86371 0.146772 -8.47416 
15380 2 1.48461 0.2413 0.754901 
5331 1 -0.285594 3.12568 -3.91569 
3934 1 3.42478 0.621491 0.885041 
5330 2 2.35413 -2.8586 1.58941 
3935 2 -1.28359 -0.230646 2.74768 
15053 2 -3.77571 -0.708886 0.435545 
19121 2 -0.265512 4.77 1.87661 
20310 1 1.31401 -1.62219 5.48315 
15054 1 -0.653397 -0.182036 1.86634 
3936 1 5.47495 2.86423 4.05599 
10579 1 -1.14817 -3.16155 -0.306682 
8779 1 -0.407574 -3.18719 1.59748 
7384 1 4.03279 -3.26783 2.86914 
7385 2 -0.508395 -4.03487 -0.570552 
2142 1 -2.3223 0.013648 -5.48768 
3547 1 1.29079 0.904177 3.81991 
448 1 -1.57054 0.612263 -5.37828 
449 2 -2.06504 -3.02026 1.02427 
21149 2 1.17343 -1.6006 -1.08763 
21148 1 0.601194 3.35333 -2.83505 
2451 1 2.50448 -0.266716 1.36446 
11722 1 -1.68416 3.41458 3.46143 
11723 2 1.82767 1.00604 -2.99973 
450 1 1.53745 -1.84441 -5.1068 
107 2 5.99997 -2.52765 -1.94732 
2450 2 -0.0986745 0.913654 -4.66097 
11724 1 1.23839 3.26212 -9.62712 
3548 2 1.05994 4.48586 -1.38769 
108 1 -0.144746 1.37092 0.744866 
19032 1 -2.83084 -1.25506 1.94526 
8766 1 4.5029 6.26584 -0.844402 
16992 1 -3.69762 -3.85801 -0.386051 
8765 2 -2.24167 1.70683 -2.46292 
13746 1 -2.70428 0.117208 5.00365 
17317 1 -3.34606 0.768338 -2.93956 
17318 2 1.83262 -0.627708 -2.30721 
8764 1 -3.53694 0.695158 4.15566 
6780 1 0.636457 -0.307834 2.21237 
13745 2 1.61236 1.10826 -3.02933 
16139 2 -3.1895 -1.45964 -2.66236 
16140 1 1.35915 -4.77884 5.27601 
16991 2 -2.1085 -1.77726 -1.22712 
502 1 -4.08009 0.0452464 5.81721 
17071 1 -1.48999 3.40587 2.52097 
17072 2 2.74463 0.106486 -2.76799 
19120 1 -0.30911 0.85554 -5.59169 
17073 1 1.29102 3.00136 -2.80884 
504 1 1.24419 -1.25738 2.35049 
503 2 -0.0307089 -0.0981041 1.44199 
12532 1 1.71953 0.0532943 -0.661471 
12533 2 1.62434 0.444442 1.26433 
4915 1 -3.36764 1.61711 0.014573 
8781 1 2.33762 3.38236 2.45359 
4575 1 1.88151 -5.3142 3.50055 
4574 2 1.85112 4.63437 3.21149 
4573 1 -6.30304 2.8482 -3.13324 
1162 1 -2.61239 -2.94483 -3.36077 
17522 2 0.952782 -0.716965 1.06106 
6678 1 -3.88187 -2.0849 -3.0206 
6677 2 -0.0970839 -2.90477 -4.83852 
17521 1 -2.29176 -0.18273 -0.606883 
8780 2 1.91246 -3.52786 -1.65817 
17523 1 -2.0466 -4.3878 4.90833 
7269 1 -0.828151 0.309195 0.445154 
106 1 -3.96348 3.33019 -3.62428 
5849 2 1.91514 2.50162 -1.46915 
5850 1 2.17785 3.64907 -3.577 
5848 1 2.67938 -3.73998 3.49529 
10543 1 2.30939 3.08903 -3.0974 
13117 1 -1.01798 -4.21023 -2.13105 
17319 1 4.86282 -3.45874 -6.2833 
16138 1 2.21365 -2.69284 2.12031 
5674 1 9.35232 4.869 -2.82219 
5675 2 0.544106 2.84044 2.79848 
11018 2 5.54082 -1.87132 0.120412 
19217 2 -1.66226 1.71933 -0.979643 
19218 1 3.86905 -5.5827 -2.9054 
2125 1 -4.34122 1.14209 -1.12456 
19216 1 -4.06674 -1.98849 -1.66551 
11017 1 0.0670969 -0.994845 5.87758 
11251 1 2.4184 -1.66018 -5.70576 
2126 2 -2.94919 0.194053 2.1883 
4132 1 -4.73467 0.422823 -0.353159 
190 1 -0.344271 1.22161 -2.50867 
11019 1 0.749512 6.33074 -4.65739 
5770 1 4.06362 -0.142461 4.18841 
5894 2 -4.11617 5.47926 -1.21161 
5893 1 1.3804 -3.38012 -4.28785 
5771 2 -2.7076 1.99732 0.385233 
16877 2 1.59676 0.820095 1.67509 
16876 1 2.59553 -2.49226 4.62385 
5772 1 -4.6264 0.516469 -2.0571 
11926 1 -5.68397 2.14879 -5.9228 
1741 1 0.118596 5.83589 1.27998 
4508 3 0.380633 1.0736 0.252377 
4509 1 0.73745 -2.02421 -0.132817 
892 1 -7.33719 4.90852 6.83958 
7268 2 0.043505 0.725606 0.281592 
1163 2 0.463517 2.18572 0.348963 
20234 3 1.31707 0.334382 3.04283 
7267 1 5.4973 7.40699 -5.10016 
15925 1 -2.21365 2.34628 -1.00427 
5883 1 1.49241 2.73602 5.17013 
5882 2 -3.2453 -1.35939 1.92294 
3675 1 -4.19199 -5.98199 -1.24346 
5881 1 0.168747 -3.13722 -2.81653 
20235 1 3.79415 7.89769 -5.31995 
10806 1 0.375377 0.616931 0.685771 
14204 2 0.696047 3.40471 -4.40143 
14203 1 -1.74707 2.86844 -0.109332 
10934 2 -1.28624 -1.03211 1.11026 
10935 1 -2.76225 0.774798 -1.32565 
14205 1 2.09722 -7.2755 1.63596 
14041 1 3.04286 2.06207 -0.598815 
10805 2 -0.467904 4.77443 1.83676 
2485 1 1.6497 7.57403 -6.06622 
13825 1 -1.47901 -2.61171 -3.36424 
7310 2 1.93466 -3.87876 -2.43635 
7309 1 1.68021 6.57702 -2.18039 
11252 2 2.16559 -5.67979 -1.39774 
2487 1 3.13612 -4.97672 -3.17404 
3679 1 2.65511 4.97932 6.03526 
3680 2 -5.45643 0.36711 -1.18689 
5053 1 -2.27803 -1.62269 -4.3167 
2486 2 1.10023 1.188 -1.23979 
3681 1 8.17348 -3.79283 -1.19212 
5054 2 -2.38189 -0.893929 0.119451 
13573 1 0.602968 2.4779 1.90761 
8648 2 2.92144 1.21157 0.760704 
11927 2 1.61145 -2.32298 2.62413 
3051 1 -0.0700775 4.79621 -1.35152 
3050 2 -3.14297 1.44862 0.877613 
3049 1 -1.6701 1.84926 -2.28549 
8647 1 9.47791 3.78164 0.770254 
12738 1 -3.4603 -3.46805 -2.31405 
11404 1 -0.802478 -1.52038 -3.22066 
11405 3 1.8231 -0.544776 5.90354 
11406 1 0.228209 4.03958 0.988649 
20517 1 1.85284 -1.26623 4.32801 
20516 2 -1.47213 3.02416 -1.37543 
20515 1 -0.186034 1.21356 1.27786 
13148 2 -2.42839 -1.98027 0.738045 
13149 1 6.9012 -1.12614 0.797858 
3695 2 -0.879808 -5.10719 1.76941 
13147 1 -4.0338 -0.0974022 -0.041603 
3696 1 -6.20392 3.99525 3.96014 
9142 1 1.1638 4.11488 -7.29467 
4968 1 -0.951006 4.96577 0.141622 
9143 2 0.573908 -3.77787 3.81247 
3881 2 2.15923 -2.09223 5.21239 
3880 1 -0.474213 5.16851 -1.89565 
1356 1 2.49664 -3.48504 -1.40461 
17934 1 1.77783 -4.31151 -0.947728 
17242 1 -4.99636 -1.97883 -4.16823 
17243 2 2.41053 1.83177 2.17023 
17244 1 1.90494 0.00721234 -0.959811 
7335 1 3.29483 0.124846 -9.10459 
7334 2 -5.01226 2.54261 0.76749 
17933 2 -0.997796 3.66179 0.697248 
7333 1 -1.44603 -5.78042 2.54125 
14321 2 -2.4452 1.0301 1.51109 
3003 1 7.16929 -6.13445 5.73111 
3002 2 -0.0959761 0.634168 0.349267 
11952 1 -0.700018 0.255096 -0.705234 
3001 1 3.08554 -5.93626 5.02607 
4329 1 1.54345 -1.97776 1.31056 
11951 2 -2.31027 -4.39029 -0.380591 
4328 2 -2.47627 2.92094 2.91496 
3552 1 -4.25642 -2.99887 -6.31336 
3551 2 -0.376457 -0.546472 0.677467 
117 1 1.046 -1.68898 -0.134486 
4309 1 -4.53576 0.632235 -7.95977 
3550 1 2.25354 -0.802218 3.24164 
14320 1 -4.13034 -0.0434856 1.87666 
15379 1 1.29657 2.99623 0.507043 
5329 1 1.54073 3.29085 4.58125 
10642 1 -4.46226 -2.00932 -3.75712 
10643 2 1.07083 -1.43033 -2.24311 
10644 1 4.72504 1.94786 -4.2476 
11113 1 0.72465 -1.59626 4.00691 
11114 2 1.37638 -3.12746 -1.23816 
9943 1 5.42349 -1.02496 4.06308 
3882 1 2.23536 6.32229 2.67259 
7986 1 -3.44974 -1.40194 -4.6789 
3549 1 -3.50697 -1.06093 -0.6868 
18561 1 -4.17947 3.32056 -3.00019 
18560 2 -1.66944 -0.202782 -4.07501 
17932 1 0.101242 4.52986 3.15585 
7985 2 -1.42781 -2.9017 2.17428 
7984 1 -0.243721 -3.39209 3.02543 
21150 1 4.1958 0.892249 1.76442 
11073 1 6.01355 -1.07194 -5.06736 
11072 2 1.87565 -1.23323 1.12384 
11071 1 3.1412 -0.660271 -0.978208 
11659 1 1.32455 -3.18778 0.50885 
11660 2 -1.29228 0.562614 2.10609 
21532 1 -0.790018 4.06739 -4.09659 
322 1 0.370621 -4.76349 -4.90652 
16990 1 -0.765931 -2.27025 -7.50233 
3999 1 -0.642724 -0.798764 -4.96978 
4837 1 3.93727 -2.94729 -0.292648 
3997 1 -2.9587 -4.31399 -4.54995 
3998 2 0.628391 4.67891 -0.0116077 
20011 1 -1.76821 1.59945 0.693904 
5858 2 -0.262833 -1.70966 0.646047 
5857 1 -3.26589 -5.11096 0.343152 
324 1 0.863233 0.977095 -1.12719 
323 2 -0.0408253 -0.14663 -0.548707 
4838 2 -3.45721 1.11044 3.91231 
4839 1 -0.456702 1.41173 4.91628 
12534 1 4.38533 -0.113064 -1.71694 
9944 2 1.93321 2.49459 -1.53185 
9945 1 2.40794 -2.97302 5.83943 
2340 1 0.28347 0.645253 -7.74282 
12003 1 -3.71665 -2.07765 4.64253 
12002 2 3.63056 -0.0818735 0.366158 
12001 1 -0.419642 -1.55602 2.53549 
5074 1 0.916603 -0.62116 2.82525 
12880 1 1.30757 2.41759 2.30944 
14001 1 -3.08037 -0.975261 6.41902 
12882 1 2.47731 1.07674 -2.54737 
12881 2 -0.35511 -0.352719 0.608389 
12671 2 2.00285 4.54744 1.46702 
14000 3 -2.49704 -3.25347 -0.58378 
12672 1 2.35954 0.32054 -2.94361 
18559 1 -3.40257 1.18125 2.74206 
5075 3 1.68784 -0.691355 1.27153 
10544 2 0.136759 1.27798 0.624102 
19031 2 2.11653 -2.19171 4.21976 
19030 1 7.59053 3.07143 0.115792 
6541 1 5.39116 2.46606 -0.160978 
6542 2 2.11548 0.568865 -2.23114 
6543 1 -1.36003 1.55739 1.51447 
9429 1 3.19782 -5.72663 -2.36564 
5676 1 -0.424857 0.884249 -1.19198 
191 2 -1.11369 1.29578 -3.34862 
4133 2 0.0921781 -0.296601 0.208948 
15792 1 2.97639 -1.85576 -2.55025 
15791 2 -1.90714 -4.40605 0.858529 
18046 1 -3.1014 -6.83788 6.22682 
6365 2 -2.06832 -1.83205 0.683256 
15790 1 0.763244 -8.85659 2.6538 
6364 1 -0.713726 6.10223 -1.87001 
192 1 2.9406 4.05604 -1.21974 
706 1 -2.80076 -3.40765 3.69103 
707 2 -0.214861 -4.61854 1.23389 
6366 1 -5.71313 -1.09697 3.38733 
12117 1 1.09833 0.229688 -3.88105 
5895 1 -1.21461 0.0418753 -3.7049 
4074 1 -2.32169 -0.216862 2.82277 
4073 2 1.30397 -5.43414 6.04271 
4072 1 -2.23697 -10.1397 -1.9898 
13468 1 3.30397 1.18194 5.71172 
12116 2 0.890334 3.59805 -2.94983 
4507 1 -4.22722 0.282688 5.25558 
14922 1 -0.350792 -0.512344 1.78952 
14921 3 -0.153263 1.00117 -2.7783 
14920 1 -1.27161 0.469873 0.0476564 
21508 1 -4.99906 0.146305 5.67057 
21509 3 4.70617 -0.425284 -0.781048 
11598 1 -5.54527 -3.02605 0.762589 
1164 1 0.390006 4.23539 1.3492 
10651 1 2.31693 1.46478 3.06148 
11597 3 -0.074547 -1.89795 2.15577 
9768 1 -1.29165 -0.0222483 1.00053 
10653 1 1.16746 4.82142 -3.76088 
2660 3 -2.60998 -0.00131328 2.58811 
2661 1 -4.65696 -3.71193 3.52455 
10652 3 0.0392299 -1.27364 -3.21349 
13999 1 -3.78169 1.94898 6.67438 
15927 1 -0.234253 3.20896 -2.34864 
15926 3 5.64121 -0.256183 5.26233 
2659 1 -0.0349547 -1.29285 -1.19305 
12100 1 -6.31458 2.92268 6.11261 
10545 1 1.89062 -2.48408 -8.6105 
10933 1 -1.97363 -4.16644 5.26474 
2715 1 -4.04086 3.028 -0.244259 
19029 1 -0.456615 -1.6335 -1.32653 
19028 2 0.902448 -0.0980006 -4.07483 
19027 1 4.01617 -3.03609 1.41725 
2641 1 -0.86213 -5.66373 -1.81705 
2714 3 -2.88935 -3.685 0.867404 
1170 1 -0.275856 -1.81046 2.67803 
11253 1 -0.963031 -2.54248 -3.34865 
18294 1 -1.03418 -1.15151 -2.97344 
19701 1 -2.15666 -4.4885 -2.81063 
4134 1 1.29181 0.581177 1.98782 
14591 2 -1.72691 -0.340067 -0.302979 
18293 2 2.24229 -2.46507 -0.0186789 
18292 1 -0.612484 8.2553 6.55623 
14592 1 2.11671 -5.08751 1.73116 
19700 2 -2.40452 -3.02091 0.00926437 
19699 1 -2.66451 4.40888 1.92338 
1168 1 0.730423 -1.80772 -3.62395 
5055 1 -6.80313 8.50035 1.09209 
1169 2 1.5542 -0.744538 5.00072 
11928 1 2.63061 -1.17293 1.90179 
8649 1 -0.247115 1.16246 3.6148 
14784 1 -1.56112 -0.855374 -3.74384 
14783 2 -2.24279 -0.353717 -1.88706 
14782 1 -0.500958 0.0191395 2.32591 
16135 1 3.79342 1.0524 4.73401 
16136 3 -2.46034 0.162484 2.03354 
5890 1 5.7382 0.131311 1.70702 
16370 2 0.932808 -0.338077 -4.73603 
12737 2 -3.94814 -1.25577 -2.26203 
16371 1 -1.59653 1.86037 -0.0466961 
12736 1 0.285767 -0.280095 7.77607 
9624 1 2.83726 0.0442641 -2.33088 
16369 1 -3.14585 0.969655 -0.407046 
4967 2 -5.84208 1.60104 -2.16904 
4966 1 3.80795 4.37644 -1.42834 
14833 1 1.75003 5.17124 6.2789 
4530 1 2.24572 2.02642 4.18181 
4327 1 4.58626 2.45511 -2.66351 
4310 2 -3.19263 3.25663 -1.52706 
9837 1 0.180093 -0.595695 6.87776 
4311 1 -2.55062 -5.65231 -5.37052 
9836 2 1.84389 -2.06402 3.15964 
9835 1 -2.36492 2.93765 0.804331 
14834 2 1.33439 -1.56242 -1.64845 
14835 1 -2.83535 0.662324 -2.94059 
11115 1 1.67039 0.460933 -3.76681 
4480 1 -0.207698 -0.536731 -0.342395 
4481 2 1.31415 -2.43268 -0.502986 
4482 1 5.98267 1.07093 -8.2344 
18958 1 -1.55057 0.829852 4.13257 
18701 2 1.1207 -2.15132 -0.568626 
3387 1 0.0515707 -9.06416 -1.48787 
18700 1 2.37879 -0.0753991 -0.177197 
13242 1 -2.60838 0.329885 -0.16537 
10546 1 -2.4275 0.138548 2.60817 
10547 2 -0.263661 -0.62429 2.47676 
10548 1 4.89439 2.62212 -5.85278 
18216 1 4.32962 3.02277 -6.75392 
18215 3 0.692922 -1.58059 -3.28174 
11661 1 -1.24655 -3.89062 8.73856 
21533 2 -2.93046 1.42146 4.01885 
21534 1 4.52874 -3.02039 2.6964 
2619 1 2.83113 3.25035 2.32805 
2618 3 -2.92804 3.21369 1.68504 
751 1 1.67168 3.15342 -6.30582 
2617 1 -2.28247 -1.71275 -1.57072 
2161 1 -5.55015 -4.09324 1.13801 
15502 1 0.619309 -3.07803 5.54038 
20012 2 -3.02675 -2.12413 0.693936 
5859 1 -2.84068 0.237458 -2.01897 
11950 1 -1.82767 -2.86518 1.57302 
826 1 -0.666242 0.493613 1.90179 
1140 1 -3.8743 1.87061 -1.29137 
20013 1 -6.19555 -3.58809 -4.3712 
9120 1 -1.20022 -2.35754 0.872913 
1139 2 1.70502 3.6434 -0.434426 
1138 1 2.22106 1.42546 -2.91964 
827 2 0.135658 0.548985 1.25423 
828 1 -3.67348 -2.72585 5.74797 
2077 1 6.51266 -1.82328 -3.74173 
9119 2 0.133337 1.75975 -1.74789 
3030 1 1.33892 -2.41604 -5.61446 
11077 1 0.498264 1.56573 3.0936 
18641 2 -3.92193 -3.04158 -1.48058 
2339 2 5.74104 -1.54933 0.164036 
2338 1 0.839268 0.662746 6.98443 
5143 1 -1.29534 0.0267065 3.12155 
5144 2 2.52982 -2.19355 -0.696596 
5145 1 3.05334 3.97418 -7.70675 
19081 1 -3.49364 -4.53357 -1.12432 
11078 2 1.05315 0.287649 4.73247 
18670 1 0.132928 -3.1506 -0.820471 
5076 1 2.76901 -1.60896 2.44988 
18214 1 0.531968 0.265181 8.52264 
12670 1 -1.58941 -3.93851 3.4526 
3755 3 0.555398 -0.661368 -2.22557 
3756 1 -0.21767 -0.209845 5.2643 
18099 1 -2.17349 0.116009 0.348928 
3754 1 0.305153 0.123191 -1.48952 
14997 1 1.6568 3.25112 4.34324 
20028 1 0.940952 -2.8326 -3.9701 
20027 3 1.77186 -1.04562 2.51415 
18098 3 1.51298 -1.03634 1.99024 
14996 3 -3.25009 -0.539026 0.530574 
752 2 -3.20627 -1.41968 0.617776 
753 1 5.97668 2.54489 1.21635 
21229 1 6.26349 4.55279 2.63526 
21230 3 -3.05185 0.177187 1.67708 
9428 3 -1.04137 1.82299 1.42697 