ITEM: TIMESTEP
35000000
ITEM: NUMBER OF ENTRIES
2704
ITEM: BOX BOUNDS pp pp pp
0 50
0 50
0 50
ITEM: ENTRIES c_binfo[1] c_binfo[2] c_binfo[3] 
3 11999 12000 
3 5504 5505 
2 1771 1772 
1 1771 5505 
3 5503 5504 
2 12046 12047 
1 12048 20545 
3 20545 20546 
2 12047 12048 
3 20546 20547 
3 13379 13380 
2 8824 8825 
2 9773 9774 
2 9772 9773 
1 9774 16266 
2 2276 2277 
1 15513 20547 
2 16349 16350 
2 16348 16349 
2 15512 15513 
2 15511 15512 
1 5838 15511 
1 1773 16348 
2 1772 1773 
1 16350 18265 
3 15769 15770 
1 7833 9063 
2 18484 18485 
2 18485 18486 
1 8826 18484 
2 8825 8826 
3 15310 15311 
1 4401 15310 
3 9061 9062 
3 9062 9063 
2 16265 16266 
2 16264 16265 
1 1281 16264 
3 15311 15312 
1 2277 15312 
2 1280 1281 
2 19811 19812 
2 19810 19811 
2 5347 5348 
2 4177 4178 
2 5348 5349 
1 18267 21406 
2 5837 5838 
2 5836 5837 
1 4644 5836 
2 4643 4644 
2 18265 18266 
2 4642 4643 
2 18266 18267 
2 21406 21407 
2 21407 21408 
2 8153 8154 
3 15770 15771 
1 2880 7296 
2 2879 2880 
2 2878 2879 
1 2878 15771 
2 7832 7833 
1 900 7831 
2 7831 7832 
2 899 900 
2 898 899 
1 898 3262 
1 237 7158 
2 236 237 
2 235 236 
1 235 18486 
3 3415 3416 
1 3415 14724 
3 3416 3417 
2 4399 4400 
1 3417 4399 
2 7157 7158 
2 4400 4401 
2 5411 5412 
2 1279 1280 
1 1279 10426 
2 10426 10427 
2 10427 10428 
1 10428 19657 
2 19657 19658 
2 5410 5411 
1 5410 19812 
2 3412 3413 
2 3413 3414 
2 6053 6054 
2 6052 6053 
1 6052 11872 
2 11872 11873 
2 11873 11874 
3 20432 20433 
2 3979 3980 
1 3979 5349 
2 3980 3981 
1 3981 20431 
3 20431 20432 
2 9628 9629 
2 9629 9630 
1 414 19494 
2 413 414 
2 7295 7296 
2 11564 11565 
2 7294 7295 
1 7294 11565 
2 11563 11564 
1 261 4642 
2 260 261 
2 259 260 
1 259 1453 
2 1453 1454 
2 1454 1455 
2 412 413 
1 412 21408 
2 18589 18590 
2 13651 13652 
1 13651 18589 
2 9242 9243 
1 3264 9243 
2 3262 3263 
2 3263 3264 
1 1740 5620 
2 5620 5621 
2 1739 1740 
2 1738 1739 
1 1738 7156 
2 7156 7157 
2 20081 20082 
2 14722 14723 
1 14722 20082 
2 14723 14724 
2 17479 17480 
2 17480 17481 
2 19658 19659 
1 13800 19659 
2 13799 13800 
2 8176 8177 
1 8176 12951 
2 12950 12951 
2 13798 13799 
2 12901 12902 
2 12902 12903 
1 3414 17352 
1 6054 12949 
2 12949 12950 
2 17351 17352 
2 17350 17351 
3 374 375 
1 375 5472 
2 5471 5472 
3 373 374 
2 310 311 
1 310 373 
2 311 312 
2 18535 18536 
1 3450 18535 
2 19493 19494 
2 3448 3449 
1 3448 19492 
2 19492 19493 
2 3449 3450 
1 6648 11563 
2 6646 6647 
1 6646 21313 
2 21313 21314 
2 6647 6648 
2 21314 21315 
1 1455 7102 
2 7102 7103 
2 7103 7104 
1 7104 18778 
2 18778 18779 
2 11882 11883 
2 11881 11882 
1 11883 17431 
2 9241 9242 
1 9241 20868 
2 20867 20868 
1 5622 11881 
2 5621 5622 
2 20866 20867 
2 19018 19019 
1 19018 20866 
2 9752 9753 
2 9751 9752 
1 9751 20080 
2 20080 20081 
1 7326 9753 
2 19789 19790 
2 19790 19791 
1 9099 13798 
2 9098 9099 
2 9097 9098 
2 7819 7820 
1 7819 9097 
2 7820 7821 
2 2762 2763 
1 2763 18297 
2 2761 2762 
1 2761 8178 
2 8177 8178 
1 13509 19789 
1 5556 12903 
2 20765 20766 
3 5554 5555 
1 5554 20766 
3 5555 5556 
2 7175 7176 
2 5470 5471 
2 2941 2942 
1 2941 5470 
2 2942 2943 
2 15988 15989 
2 7174 7175 
1 7174 15988 
2 15989 15990 
2 18536 18537 
2 6275 6276 
2 6274 6275 
1 6274 18537 
2 12350 12351 
2 8800 8801 
1 8800 12351 
2 12349 12350 
1 12349 21315 
2 18779 18780 
1 13332 18780 
2 13331 13332 
2 17432 17433 
2 16273 16274 
1 16273 17433 
2 13330 13331 
2 17431 17432 
2 16274 16275 
2 7399 7400 
1 7399 16728 
2 16727 16728 
2 7325 7326 
2 19019 19020 
2 16726 16727 
1 16726 19020 
2 17945 17946 
2 7324 7325 
1 7324 17946 
2 17944 17945 
2 20764 20765 
2 5659 5660 
1 5659 20764 
1 1467 5661 
2 5660 5661 
2 1466 1467 
1 7821 12151 
2 12151 12152 
2 12152 12153 
1 2778 12153 
2 12568 12569 
2 18295 18296 
2 6103 6104 
1 6103 18295 
2 6104 6105 
2 18296 18297 
2 4909 4910 
1 4909 12568 
2 4910 4911 
1 4911 19791 
2 14390 14391 
2 14389 14390 
2 9400 9401 
2 9401 9402 
1 6276 9400 
2 8801 8802 
3 3380 3381 
1 3381 8802 
3 3379 3380 
1 3379 9058 
3 9058 9059 
2 4201 4202 
2 1624 1625 
1 1624 4201 
1 4203 13330 
2 4202 4203 
2 9847 9848 
1 9847 18376 
2 9848 9849 
1 9849 16275 
2 18376 18377 
2 1625 1626 
3 20417 20418 
2 7400 7401 
1 7050 17944 
2 7049 7050 
2 7048 7049 
2 5476 5477 
1 5476 7048 
2 5477 5478 
2 17603 17604 
2 2777 2778 
2 2776 2777 
1 2776 17604 
3 20416 20417 
1 1977 20416 
2 1976 1977 
2 1465 1466 
1 1465 1975 
2 1975 1976 
2 17602 17603 
1 501 12376 
2 12376 12377 
3 500 501 
1 14421 17602 
2 12569 12570 
1 6105 12378 
2 12377 12378 
1 492 12570 
2 491 492 
2 490 491 
1 490 5829 
2 86 87 
2 21167 21168 
2 21166 21167 
1 87 21166 
2 85 86 
1 85 14389 
3 12430 12431 
1 6474 12430 
3 9059 9060 
3 6473 6474 
2 10529 10530 
2 14495 14496 
3 12431 12432 
1 1626 12432 
2 18377 18378 
2 10528 10529 
1 10530 14494 
2 14494 14495 
2 3169 3170 
1 3169 10528 
3 8513 8514 
3 8512 8513 
1 8512 20539 
3 10756 10757 
1 10756 20418 
2 20539 20540 
3 10757 10758 
3 9484 9485 
1 9484 10758 
2 20540 20541 
3 9485 9486 
2 8714 8715 
1 8715 18378 
1 54 5478 
2 53 54 
2 9367 9368 
2 52 53 
1 52 9367 
2 8713 8714 
1 13605 14419 
2 14419 14420 
2 14420 14421 
3 499 500 
3 13603 13604 
3 13604 13605 
2 5828 5829 
2 5827 5828 
2 7358 7359 
2 7357 7358 
1 7357 21168 
2 5816 5817 
2 9040 9041 
2 5815 5816 
1 5815 10449 
1 5817 9040 
2 17861 17862 
2 17860 17861 
1 5469 17860 
2 5467 5468 
1 5467 6472 
3 6472 6473 
2 5468 5469 
3 15077 15078 
2 10447 10448 
1 10447 15078 
3 8471 8472 
3 15076 15077 
3 8470 8471 
2 10448 10449 
2 9368 9369 
2 4987 4988 
1 4987 9369 
2 4988 4989 
2 17827 17828 
2 14702 14703 
2 14701 14702 
3 4045 4046 
1 4045 14701 
1 6249 9973 
3 9973 9974 
3 9974 9975 
2 6314 6315 
2 6313 6314 
3 9925 9926 
1 6315 9925 
2 4126 4127 
3 12317 12318 
1 12318 17829 
2 17828 17829 
2 18475 18476 
3 15188 15189 
2 12278 12279 
2 12277 12278 
1 12279 17809 
3 17809 17810 
2 18476 18477 
3 3562 3563 
1 3562 18477 
2 18211 18212 
2 18212 18213 
2 16406 16407 
3 8551 8552 
3 12788 12789 
3 12787 12788 
3 1579 1580 
3 1580 1581 
1 1581 20682 
3 20681 20682 
3 20680 20681 
2 12466 12467 
1 12466 20680 
2 12467 12468 
3 8258 8259 
3 4046 4047 
1 966 4047 
3 965 966 
3 964 965 
1 964 7038 
3 6248 6249 
3 6247 6248 
3 2131 2132 
1 2131 6247 
3 2132 2133 
3 9926 9927 
3 18235 18236 
1 9927 18235 
3 18236 18237 
1 3057 17347 
3 17347 17348 
3 17348 17349 
3 13378 13379 
2 3056 3057 
3 11998 11999 
2 8332 8333 
1 8332 13380 
2 4127 4128 
1 4128 5953 
3 5953 5954 
3 5954 5955 
3 12316 12317 
1 12316 17349 
3 9740 9741 
1 6972 9741 
3 9739 9740 
2 6971 6972 
3 15187 15188 
1 2292 15187 
3 2291 2292 
3 2290 2291 
1 2290 10885 
3 10885 10886 
1 5955 9537 
2 10283 10284 
2 10282 10283 
3 17810 17811 
3 8428 8429 
1 8428 17811 
3 8429 8430 
1 8430 15183 
3 10577 10578 
3 10576 10577 
3 9712 9713 
1 9712 19869 
3 9713 9714 
1 9714 18213 
3 3563 3564 
1 3564 18040 
2 18040 18041 
2 18041 18042 
3 4360 4361 
1 4360 20296 
3 20296 20297 
3 4361 4362 
2 5278 5279 
1 5278 18042 
3 20297 20298 
2 16405 16406 
3 1088 1089 
1 1089 16405 
3 574 575 
1 574 1087 
3 1087 1088 
1 7530 8037 
2 8035 8036 
1 8035 9028 
2 8036 8037 
2 2275 2276 
1 2275 11592 
2 11591 11592 
2 11590 11591 
3 9029 9030 
2 14854 14855 
3 9028 9029 
2 14855 14856 
3 8552 8553 
1 8553 17956 
3 17956 17957 
3 17957 17958 
3 1475 1476 
3 1474 1475 
1 1474 10216 
3 10216 10217 
2 2917 2918 
1 12468 18514 
3 18514 18515 
2 16201 16202 
2 6085 6086 
1 6085 18516 
3 18515 18516 
2 16507 16508 
2 16508 16509 
2 5497 5498 
1 5497 16509 
3 8257 8258 
2 4864 4865 
1 4864 11310 
2 4865 4866 
2 21500 21501 
2 21499 21500 
2 6086 6087 
2 17435 17436 
2 8333 8334 
2 7726 7727 
1 7726 18237 
2 5654 5655 
2 7727 7728 
1 5655 7728 
2 3055 3056 
1 3055 7510 
2 7510 7511 
1 7512 10830 
2 7511 7512 
1 19353 21507 
2 19352 19353 
1 8334 19351 
2 19351 19352 
3 7037 7038 
3 7036 7037 
2 3916 3917 
1 3916 7036 
2 4115 4116 
2 6970 6971 
1 4116 6970 
2 3917 3918 
2 4114 4115 
2 931 932 
1 931 4114 
2 9536 9537 
2 9535 9536 
1 9535 15811 
2 7019 7020 
2 15811 15812 
1 1872 10282 
2 7018 7019 
1 7018 10887 
2 15812 15813 
1 7020 19927 
3 10886 10887 
2 1871 1872 
1 831 5862 
3 830 831 
3 829 830 
1 2286 3687 
3 3685 3686 
3 3686 3687 
3 11656 11657 
3 11657 11658 
2 15181 15182 
2 15182 15183 
2 769 770 
1 769 15181 
2 770 771 
2 14534 14535 
2 14533 14534 
2 7528 7529 
1 7528 14533 
2 2278 2279 
1 2278 14535 
1 7191 10578 
2 7190 7191 
2 7189 7190 
1 7189 17574 
1 20919 21310 
2 17573 17574 
2 20918 20919 
2 21310 21311 
2 21311 21312 
2 20917 20918 
3 19868 19869 
2 1870 1871 
1 1870 4117 
2 4117 4118 
2 16142 16143 
2 16141 16142 
1 16141 19867 
3 19867 19868 
1 1611 16143 
2 21395 21396 
2 4118 4119 
2 5279 5280 
1 5280 21394 
2 21394 21395 
2 6398 6399 
3 13000 13001 
2 6397 6398 
1 6397 13002 
3 13001 13002 
3 15236 15237 
3 15235 15236 
1 15235 20298 
1 7731 15237 
3 575 576 
3 8515 8516 
1 8515 17284 
3 17284 17285 
3 17285 17286 
3 6847 6848 
1 1659 6847 
1 576 1657 
3 1657 1658 
3 1658 1659 
1 243 3309 
2 14270 14271 
2 14269 14270 
1 14269 17062 
2 242 243 
2 241 242 
1 241 19810 
2 7529 7530 
2 17062 17063 
1 6570 11682 
2 6568 6569 
2 6569 6570 
2 17881 17882 
1 939 17883 
1 14856 17881 
2 17882 17883 
2 11681 11682 
2 14369 14370 
1 14163 14370 
2 14161 14162 
1 14161 17958 
2 14162 14163 
1 7377 10218 
3 7376 7377 
3 10217 10218 
1 7584 13527 
3 16315 16316 
3 16316 16317 
3 18154 18155 
1 2919 18154 
2 2918 2919 
3 18155 18156 
2 8107 8108 
2 8108 8109 
2 2032 2033 
3 3479 3480 
3 3478 3479 
1 3478 13941 
2 15059 15060 
2 15058 15059 
1 15058 18721 
2 18721 18722 
2 18722 18723 
2 5498 5499 
2 2033 2034 
1 5499 6228 
2 6227 6228 
2 11308 11309 
1 11308 21153 
2 11309 11310 
2 21152 21153 
2 6226 6227 
2 2833 2834 
1 2833 6226 
2 16202 16203 
1 20508 21501 
1 7203 16203 
2 7202 7203 
2 20507 20508 
2 20506 20507 
1 9804 20506 
2 7201 7202 
1 7201 7966 
2 9803 9804 
1 6087 19249 
2 19249 19250 
2 19250 19251 
1 17208 19251 
2 7966 7967 
2 13940 13941 
2 20669 20670 
2 17434 17435 
2 3346 3347 
1 3346 17434 
2 3347 3348 
1 3348 9456 
2 20668 20669 
2 10471 10472 
1 10471 20668 
2 268 269 
1 268 15783 
2 269 270 
2 5653 5654 
1 270 5653 
2 10565 10566 
2 10828 10829 
2 10564 10565 
1 10564 10828 
2 10829 10830 
2 8152 8153 
1 8152 21505 
2 21505 21506 
2 21506 21507 
2 2314 2315 
1 2314 3918 
2 2315 2316 
1 933 8434 
2 8434 8435 
2 932 933 
1 2316 19788 
2 8435 8436 
1 15615 15813 
1 4197 19929 
2 19928 19929 
2 19927 19928 
2 15614 15615 
2 15613 15614 
1 4620 15613 
2 4196 4197 
2 5861 5862 
2 5860 5861 
1 5860 11289 
2 11288 11289 
2 13019 13020 
2 5851 5852 
1 5851 13020 
2 5852 5853 
2 13018 13019 
2 8329 8330 
1 8329 11658 
2 8330 8331 
2 2284 2285 
1 2284 7851 
2 7850 7851 
2 2285 2286 
1 2568 8331 
1 3504 5337 
3 3502 3503 
3 3503 3504 
1 771 13555 
2 13555 13556 
2 13556 13557 
1 2280 15099 
2 2279 2280 
1 3870 13557 
2 15098 15099 
2 9463 9464 
1 9463 16638 
1 9465 17572 
2 9464 9465 
2 17572 17573 
1 3633 14101 
2 3632 3633 
2 3631 3632 
1 3631 20917 
2 14101 14102 
1 4119 10056 
2 10055 10056 
2 1609 1610 
1 1609 19399 
2 1610 1611 
2 19399 19400 
2 19400 19401 
2 2443 2444 
1 2443 10896 
2 2444 2445 
1 2445 21396 
2 10054 10055 
1 10054 19210 
2 19210 19211 
1 6399 8736 
2 8734 8735 
2 8735 8736 
2 7730 7731 
2 7729 7730 
2 4345 4346 
1 4345 8734 
2 2209 2210 
1 2209 7729 
2 2210 2211 
2 16646 16647 
1 6849 16647 
3 8516 8517 
2 1000 1001 
1 1000 8517 
2 1001 1002 
1 1002 11620 
3 6848 6849 
2 6295 6296 
2 17063 17064 
2 56 57 
2 55 56 
1 55 13539 
1 57 17064 
1 5412 6295 
2 11680 11681 
1 11680 17679 
2 938 939 
2 11024 11025 
2 11023 11024 
2 937 938 
1 937 11023 
2 17678 17679 
2 17677 17678 
2 15406 15407 
1 15406 17677 
2 1876 1877 
1 1876 11907 
2 11906 11907 
2 11905 11906 
1 11905 14368 
2 14368 14369 
2 12301 12302 
1 12301 15451 
2 19183 19184 
2 19184 19185 
2 13526 13527 
2 16940 16941 
2 16939 16940 
3 7375 7376 
1 7375 16939 
1 951 16941 
2 13525 13526 
1 13525 19183 
2 15451 15452 
1 12282 16317 
2 12281 12282 
2 12280 12281 
1 3039 12280 
3 14776 14777 
1 14776 19578 
1 6630 7054 
1 14778 18156 
2 6629 6630 
3 14777 14778 
3 7054 7055 
3 7055 7056 
3 10523 10524 
2 9053 9054 
3 298 299 
2 10882 10883 
2 10883 10884 
2 4534 4535 
1 13167 16710 
2 16709 16710 
2 16708 16709 
2 13166 13167 
2 11897 11898 
1 8568 9324 
2 20056 20057 
1 7905 20056 
3 7904 7905 
3 7903 7904 
1 7903 18723 
2 17339 17340 
2 12028 12029 
2 17338 17339 
1 2835 17338 
2 2834 2835 
2 21151 21152 
1 12030 21151 
2 12029 12030 
1 5580 12028 
2 5579 5580 
1 3906 21033 
1 3108 20074 
2 15686 15687 
2 9802 9803 
1 9802 20076 
1 7968 15685 
2 20074 20075 
2 7967 7968 
2 20075 20076 
2 15685 15686 
2 17207 17208 
2 17206 17207 
2 3904 3905 
1 3904 17206 
2 3905 3906 
2 8567 8568 
2 8566 8567 
2 13939 13940 
1 13939 17113 
2 17113 17114 
2 10303 10304 
1 10303 17115 
2 17114 17115 
2 10304 10305 
2 10472 10473 
2 13154 13155 
1 10473 13153 
2 13153 13154 
2 13862 13863 
2 13861 13862 
1 8154 13653 
2 20561 20562 
2 15781 15782 
1 15781 20562 
2 15782 15783 
2 6355 6356 
1 6355 9813 
2 13652 13653 
1 6357 10566 
2 6356 6357 
2 4715 4716 
1 4716 15487 
2 15260 15261 
2 15259 15260 
1 15259 19786 
2 19786 19787 
2 19787 19788 
1 8436 15489 
2 15488 15489 
2 15487 15488 
1 15 14274 
2 13262 13263 
2 13261 13262 
2 4618 4619 
1 4618 13261 
2 4195 4196 
2 4619 4620 
2 14 15 
2 13 14 
1 13 4195 
2 9136 9137 
2 15706 15707 
1 15706 19108 
2 19108 19109 
2 9137 9138 
2 9455 9456 
2 9454 9455 
2 11287 11288 
1 4020 11287 
1 9138 9454 
2 4019 4020 
2 4018 4019 
1 4018 19962 
2 19109 19110 
1 5853 19110 
2 4405 4406 
1 4405 9136 
2 4402 4403 
2 7849 7850 
2 2567 2568 
1 4704 7849 
2 2566 2567 
1 2566 4404 
2 4702 4703 
1 4702 11863 
2 4703 4704 
2 11863 11864 
2 4403 4404 
2 21266 21267 
1 948 16491 
2 3869 3870 
2 3868 3869 
1 3868 21265 
2 21265 21266 
2 947 948 
2 946 947 
1 946 15097 
2 15097 15098 
2 18718 18719 
2 16810 16811 
2 18719 18720 
2 13114 13115 
1 13114 16810 
2 16636 16637 
1 16636 18718 
2 16637 16638 
2 13115 13116 
2 14102 14103 
1 13116 14103 
2 17225 17226 
2 17224 17225 
1 17224 19212 
1 1632 6589 
2 19211 19212 
1 6591 19401 
2 6590 6591 
2 6589 6590 
2 11467 11468 
2 10894 10895 
1 10894 11467 
2 11468 11469 
2 10895 10896 
2 4109 4110 
1 4110 10801 
2 10802 10803 
2 7261 7262 
2 4346 4347 
2 7262 7263 
1 4347 7263 
2 10801 10802 
1 2211 10803 
2 11620 11621 
2 11621 11622 
1 5991 11622 
2 5335 5336 
1 5335 20227 
2 20227 20228 
2 20228 20229 
2 5990 5991 
2 5336 5337 
2 9052 9053 
1 9052 16114 
2 16114 16115 
2 16115 16116 
2 7840 7841 
1 7840 16116 
2 6296 6297 
2 13511 13512 
2 6728 6729 
2 13538 13539 
2 13537 13538 
2 6727 6728 
1 6727 13537 
1 6297 13512 
2 15407 15408 
2 3295 3296 
1 3295 5166 
2 5164 5165 
1 5164 11025 
2 5165 5166 
2 14345 14346 
1 816 8191 
2 814 815 
1 814 15408 
2 815 816 
2 1877 1878 
1 1878 14346 
2 952 953 
1 952 15453 
2 15802 15803 
1 3363 15844 
2 15844 15845 
2 3361 3362 
1 3361 19185 
2 3362 3363 
2 15803 15804 
2 949 950 
1 949 15804 
2 950 951 
2 566 567 
2 6664 6665 
2 16645 16646 
2 565 566 
1 565 11973 
1 567 16645 
2 3038 3039 
2 6665 6666 
2 3037 3038 
1 3037 6664 
1 6666 18160 
2 6628 6629 
1 6628 20712 
2 19577 19578 
1 159 6994 
2 6994 6995 
1 6996 19576 
2 19576 19577 
2 20710 20711 
2 6995 6996 
2 20711 20712 
1 12192 20710 
1 300 11509 
3 10522 10523 
2 4408 4409 
1 4408 10522 
2 11510 11511 
2 4409 4410 
2 11509 11510 
3 299 300 
3 3128 3129 
1 4536 14247 
2 4535 4536 
3 9598 9599 
1 27 9600 
2 13165 13166 
1 13165 19585 
2 19585 19586 
2 26 27 
2 19586 19587 
2 25 26 
1 25 13110 
3 9599 9600 
2 2932 2933 
1 2932 19587 
2 13109 13110 
2 13108 13109 
2 11896 11897 
1 11896 13108 
2 9323 9324 
2 9322 9323 
2 5338 5339 
1 5338 9322 
2 5339 5340 
2 15718 15719 
2 15719 15720 
1 525 20058 
2 524 525 
2 523 524 
1 523 20134 
2 20134 20135 
1 9468 20560 
2 20057 20058 
2 20560 20561 
2 14246 14247 
2 3628 3629 
1 3628 17340 
2 3629 3630 
1 3630 7611 
2 20651 20652 
2 5578 5579 
1 5578 20650 
2 20650 20651 
2 14245 14246 
1 14245 20098 
2 1240 1241 
1 1240 20652 
2 20098 20099 
2 19463 19464 
2 19462 19463 
1 19462 19524 
2 12853 12854 
2 3106 3107 
1 3106 12853 
2 12854 12855 
2 8041 8042 
1 8041 12855 
1 15687 19464 
2 21032 21033 
2 19523 19524 
2 21031 21032 
1 16713 21031 
1 9255 10305 
2 9254 9255 
2 9253 9254 
2 16712 16713 
1 4338 9253 
1 9312 13726 
2 13726 13727 
2 9311 9312 
1 9993 18564 
2 9992 9993 
2 9991 9992 
1 9991 13155 
2 13727 13728 
2 18563 18564 
2 9310 9311 
2 11012 11013 
2 9467 9468 
2 9466 9467 
1 9466 11013 
2 9245 9246 
2 3167 3168 
2 9811 9812 
1 3168 9811 
2 3166 3167 
1 3166 11844 
2 9244 9245 
1 9244 18591 
1 9246 20677 
2 18590 18591 
2 9812 9813 
2 11485 11486 
1 11485 15261 
2 11486 11487 
1 11487 18681 
2 4714 4715 
1 4714 15429 
2 15428 15429 
2 15427 15428 
1 15427 17620 
2 17620 17621 
2 6077 6078 
2 18904 18905 
1 6078 13263 
2 14272 14273 
2 5752 5753 
1 5752 14272 
2 5753 5754 
2 14273 14274 
2 6076 6077 
1 6076 18904 
2 18905 18906 
1 5754 21132 
2 3107 3108 
2 4406 4407 
2 16679 16680 
1 4407 4852 
2 4852 4853 
2 16678 16679 
1 16678 19960 
2 19960 19961 
1 14493 15708 
2 15707 15708 
1 8718 16680 
2 4853 4854 
2 14492 14493 
2 19961 19962 
2 7415 7416 
2 7414 7415 
1 7414 11865 
1 1815 7416 
2 985 986 
1 985 4402 
2 11864 11865 
2 20983 20984 
2 20617 20618 
1 20617 20983 
2 20984 20985 
1 20985 21267 
2 1750 1751 
1 1750 16489 
2 16489 16490 
2 1751 1752 
1 1752 18423 
2 16490 16491 
1 10389 18720 
2 10388 10389 
2 15760 15761 
2 10387 10388 
1 10387 15760 
2 13321 13322 
1 13321 16812 
2 16811 16812 
2 13322 13323 
2 14170 14171 
2 14171 14172 
1 3297 14172 
2 15761 15762 
1 10137 14170 
1 4518 17226 
2 4517 4518 
2 1630 1631 
1 1630 2236 
2 2236 2237 
2 2237 2238 
2 641 642 
1 642 21370 
2 21370 21371 
2 4516 4517 
1 4516 7093 
2 21371 21372 
2 7093 7094 
1 1323 2238 
2 640 641 
1 640 11469 
2 1631 1632 
2 6319 6320 
1 6319 12909 
2 6320 6321 
2 12394 12395 
2 4108 4109 
1 4108 12394 
2 12908 12909 
2 12395 12396 
1 6321 7261 
1 987 15372 
2 15371 15372 
2 986 987 
2 6491 6492 
2 6178 6179 
1 6178 6492 
2 8180 8181 
2 4555 4556 
1 4555 8181 
2 6490 6491 
2 5989 5990 
1 5989 6490 
2 3764 3765 
2 4556 4557 
1 3765 7842 
1 4557 20229 
2 7841 7842 
2 13507 13508 
1 13507 13510 
2 2267 2268 
1 5502 6729 
2 5501 5502 
2 5500 5501 
1 5500 12544 
2 12544 12545 
2 13508 13509 
2 13510 13511 
2 622 623 
1 622 2268 
2 623 624 
2 15346 15347 
2 8192 8193 
2 16699 16700 
1 8193 16699 
2 5722 5723 
1 5722 12961 
2 12961 12962 
2 12962 12963 
2 16700 16701 
1 12963 14344 
1 13176 15346 
2 5723 5724 
2 3296 3297 
2 14344 14345 
2 8191 8192 
2 13174 13175 
1 13174 15846 
2 19276 19277 
2 10780 10781 
1 10780 19276 
2 10781 10782 
2 19277 19278 
1 12396 20767 
1 10782 15802 
2 20767 20768 
2 15845 15846 
2 13175 13176 
2 18160 18161 
2 10336 10337 
1 11109 12897 
1 18162 19740 
2 18161 18162 
2 11108 11109 
2 11107 11108 
1 11107 11971 
2 11971 11972 
2 19739 19740 
2 158 159 
2 10337 10338 
2 157 158 
1 157 10336 
2 11972 11973 
1 888 3763 
2 3763 3764 
2 5150 5151 
2 5149 5150 
1 5149 12190 
2 12190 12191 
2 12191 12192 
2 917 918 
2 5624 5625 
2 5623 5624 
2 916 917 
1 916 5623 
2 3454 3455 
1 3454 18483 
2 18482 18483 
2 3455 3456 
1 918 11511 
3 3127 3128 
2 14999 15000 
2 17893 17894 
1 17893 18103 
2 20099 20100 
1 18435 20100 
2 18434 18435 
3 18103 18104 
3 18104 18105 
1 18105 21537 
2 21536 21537 
1 2934 19671 
2 19670 19671 
2 2933 2934 
2 21535 21536 
1 5835 21535 
2 5834 5835 
2 5833 5834 
2 5260 5261 
1 5260 5340 
2 19987 19988 
2 19988 19989 
2 2929 2930 
1 2929 5262 
2 17926 17927 
2 20135 20136 
1 20136 20569 
2 20569 20570 
2 20570 20571 
2 7610 7611 
2 7609 7610 
1 2601 7609 
2 2600 2601 
1 1242 16851 
2 1241 1242 
2 16850 16851 
2 2599 2600 
1 2599 10966 
2 10966 10967 
2 19522 19523 
2 14236 14237 
1 14236 19522 
2 14237 14238 
2 7921 7922 
1 7921 14238 
2 8042 8043 
1 8043 15165 
2 15164 15165 
2 15163 15164 
1 15163 17031 
2 5261 5262 
2 16711 16712 
2 4337 4338 
2 5818 5819 
1 5818 16711 
2 4336 4337 
1 4336 12582 
2 5819 5820 
2 12581 12582 
1 5820 20824 
2 20824 20825 
2 12580 12581 
1 12580 15501 
1 2517 9310 
2 2516 2517 
2 2515 2516 
1 2515 9496 
2 9496 9497 
2 9497 9498 
2 18562 18563 
1 4200 18562 
2 4199 4200 
2 1343 1344 
2 1342 1343 
1 1344 5628 
1 16083 17022 
2 11011 11012 
1 11011 16081 
2 16081 16082 
2 16082 16083 
2 20677 20678 
2 5725 5726 
1 5725 20679 
2 20678 20679 
2 11842 11843 
2 11843 11844 
1 7827 11842 
2 5726 5727 
2 7826 7827 
2 229 230 
1 229 20619 
2 18680 18681 
2 18679 18680 
2 12859 12860 
1 12859 18679 
2 12860 12861 
1 13389 17622 
2 17621 17622 
2 1222 1223 
1 1222 12861 
2 13388 13389 
2 13273 13274 
1 13273 18906 
2 21131 21132 
2 21130 21131 
2 3232 3233 
1 3232 21130 
2 13274 13275 
1 639 13275 
2 3233 3234 
2 14491 14492 
1 4854 19128 
2 19127 19128 
2 19126 19127 
2 3514 3515 
2 1126 1127 
1 1126 3514 
2 3515 3516 
2 5707 5708 
1 5707 19126 
2 1127 1128 
1 1128 14491 
2 4198 4199 
2 2770 2771 
1 2770 4198 
2 1814 1815 
2 1813 1814 
1 1813 12922 
2 12922 12923 
2 12923 12924 
2 5627 5628 
2 19361 19362 
2 19360 19361 
2 20618 20619 
1 231 12885 
2 230 231 
2 18421 18422 
2 18422 18423 
1 1812 18421 
2 1811 1812 
2 17000 17001 
1 17001 20563 
2 20563 20564 
1 15762 16999 
2 16999 17000 
1 13323 16980 
2 16979 16980 
2 16978 16979 
1 16978 18361 
2 18361 18362 
2 10135 10136 
2 10136 10137 
2 18362 18363 
2 1322 1323 
2 7094 7095 
2 19591 19592 
1 7095 19591 
2 1321 1322 
1 1321 7123 
2 7123 7124 
2 7550 7551 
1 7551 21372 
2 7124 7125 
2 19592 19593 
2 7549 7550 
2 4246 4247 
1 4246 7549 
2 16207 16208 
1 16207 19593 
2 8717 8718 
2 8716 8717 
1 8716 16602 
2 16601 16602 
2 12907 12908 
1 9231 12907 
2 9230 9231 
2 9229 9230 
1 9229 17097 
2 15370 15371 
1 15370 17857 
2 17857 17858 
2 17858 17859 
2 8179 8180 
1 8179 20412 
2 6179 6180 
1 6180 7299 
2 20411 20412 
2 7298 7299 
2 20410 20411 
1 2613 20410 
2 3157 3158 
1 3157 17859 
2 7297 7298 
1 7297 8232 
2 2612 2613 
1 1338 19360 
2 1337 1338 
2 1336 1337 
2 11791 11792 
1 11791 14391 
2 12545 12546 
2 2266 2267 
1 2266 11793 
2 2341 2342 
1 2341 12546 
2 2342 2343 
1 2343 4236 
2 11792 11793 
1 72 10135 
2 71 72 
1 2736 16701 
2 2735 2736 
2 9269 9270 
1 5724 9270 
2 2734 2735 
1 2734 12919 
2 12919 12920 
2 9268 9269 
1 9268 10948 
2 10948 10949 
2 14057 14058 
1 5244 19278 
2 5243 5244 
2 5242 5243 
1 5242 13405 
2 13405 13406 
2 4892 4893 
2 4891 4892 
1 4891 20769 
2 20768 20769 
2 12896 12897 
2 19738 19739 
1 3642 19738 
2 3641 3642 
2 12895 12896 
1 12895 16564 
2 3640 3641 
1 3640 4137 
2 16565 16566 
2 16564 16565 
2 11515 11516 
1 11515 19008 
1 10338 19006 
2 19006 19007 
2 19007 19008 
2 887 888 
2 2926 2927 
2 886 887 
1 886 2926 
2 2927 2928 
1 5151 13905 
2 13904 13905 
2 13903 13904 
2 6931 6932 
1 6931 13903 
2 6932 6933 
1 7065 9933 
2 7063 7064 
1 7063 18481 
2 7064 7065 
2 18481 18482 
3 3451 3452 
1 3451 13560 
3 13559 13560 
3 13558 13559 
3 3452 3453 
2 17894 17895 
2 14998 14999 
2 5983 5984 
1 5983 14998 
2 5984 5985 
2 5638 5639 
1 5638 21361 
2 5639 5640 
1 5640 18433 
2 18433 18434 
2 13351 13352 
2 10978 10979 
2 10979 10980 
2 13352 13353 
2 19669 19670 
2 1774 1775 
1 1774 19669 
2 12712 12713 
2 1775 1776 
1 1776 12712 
2 20555 20556 
2 2930 2931 
2 883 884 
1 883 2931 
2 884 885 
2 12713 12714 
1 5538 20554 
2 20554 20555 
2 17927 17928 
2 8414 8415 
1 8415 15343 
2 15343 15344 
2 8413 8414 
1 8413 20571 
2 17020 17021 
1 1515 17020 
2 1514 1515 
2 1513 1514 
1 1513 18130 
2 15344 15345 
2 21361 21362 
2 10967 10968 
2 745 746 
1 745 10968 
2 746 747 
2 16849 16850 
1 16849 17898 
2 17897 17898 
2 17896 17897 
1 1650 17896 
2 1649 1650 
2 7922 7923 
1 7923 15870 
2 15869 15870 
1 4851 17029 
2 17030 17031 
2 17029 17030 
2 4850 4851 
2 15868 15869 
1 15868 19443 
2 20825 20826 
2 11575 11576 
1 11575 20826 
2 15500 15501 
2 15499 15500 
1 15499 19369 
2 19369 19370 
2 11576 11577 
2 19370 19371 
1 885 19650 
1 9498 15234 
2 15233 15234 
2 15232 15233 
1 381 15232 
1 2772 19470 
2 19469 19470 
3 15434 15435 
3 15433 15434 
2 3170 3171 
2 17021 17022 
2 11605 11606 
1 3171 11607 
2 7825 7826 
1 7825 19291 
2 19291 19292 
2 19292 19293 
1 16563 19293 
2 11606 11607 
1 5727 11605 
1 1224 21379 
2 21379 21380 
2 1223 1224 
2 13387 13388 
2 5428 5429 
1 5428 13387 
2 21380 21381 
2 5429 5430 
1 5430 17364 
2 17363 17364 
1 3234 21070 
2 638 639 
2 21070 21071 
2 21071 21072 
2 637 638 
1 637 10720 
2 10720 10721 
2 10721 10722 
1 1374 21072 
1 10722 18327 
2 5708 5709 
2 20423 20424 
1 5709 20424 
2 9044 9045 
1 3516 9045 
2 10048 10049 
2 9043 9044 
1 9043 10048 
2 7933 7934 
1 7933 15112 
2 15112 15113 
1 15114 16600 
2 15113 15114 
2 16600 16601 
2 7934 7935 
2 20422 20423 
1 20422 20605 
2 2771 2772 
2 1888 1889 
1 1888 12924 
2 1889 1890 
1 1890 15118 
2 15118 15119 
2 15119 15120 
2 19468 19469 
1 480 5626 
2 5626 5627 
2 478 479 
2 479 480 
2 6584 6585 
1 6585 12883 
2 12883 12884 
2 12884 12885 
2 1810 1811 
1 1810 3522 
2 3521 3522 
2 3520 3521 
1 3520 21102 
2 14354 14355 
1 14355 20565 
2 20564 20565 
2 11977 11978 
1 11977 18363 
2 11978 11979 
1 11979 17074 
2 17074 17075 
1 7125 19234 
2 19234 19235 
2 16208 16209 
2 19235 19236 
2 4247 4248 
1 4248 20784 
2 20783 20784 
1 12684 16209 
2 8269 8270 
1 8269 19236 
2 12683 12684 
2 20782 20783 
2 8270 8271 
2 17096 17097 
2 17095 17096 
1 2847 17095 
2 2846 2847 
2 2845 2846 
1 2845 3457 
2 3457 3458 
2 2005 2006 
1 2005 3159 
2 2611 2612 
2 2006 2007 
2 3158 3159 
2 8231 8232 
2 2548 2549 
1 2548 2611 
2 8230 8231 
1 8230 10924 
2 10924 10925 
2 2549 2550 
1 2550 16656 
2 10925 10926 
1 2007 9216 
2 2492 2493 
1 2493 10390 
3 10390 10391 
3 10391 10392 
2 4235 4236 
2 15949 15950 
2 4234 4235 
1 4234 15949 
2 15950 15951 
2 12920 12921 
1 17346 21259 
2 21260 21261 
2 21259 21260 
2 19214 19215 
1 19215 21211 
2 21211 21212 
2 70 71 
1 70 19213 
2 19213 19214 
1 10950 18399 
2 10949 10950 
1 12921 16720 
2 16721 16722 
2 16720 16721 
2 18398 18399 
1 16722 19629 
2 21212 21213 
2 18397 18398 
1 14058 21261 
1 4893 10708 
2 10708 10709 
2 13406 13407 
2 8389 8390 
1 8389 13407 
2 8390 8391 
1 8337 10710 
2 10709 10710 
2 5776 5777 
1 5776 8391 
2 8336 8337 
1 11517 16593 
2 11146 11147 
2 11516 11517 
1 4206 11146 
2 4204 4205 
2 4136 4137 
1 8586 16566 
2 8585 8586 
1 264 8584 
2 8584 8585 
2 4135 4136 
1 4135 4204 
2 4205 4206 
2 16592 16593 
2 16591 16592 
2 224 225 
1 225 2928 
2 5569 5570 
1 5569 6933 
2 5570 5571 
1 5118 5571 
2 223 224 
1 223 9492 
2 9932 9933 
2 5191 5192 
2 5192 5193 
2 9491 9492 
1 5193 9931 
2 9931 9932 
2 2491 2492 
2 10319 10320 
2 10318 10319 
1 10318 16272 
2 635 636 
1 3036 13353 
2 3035 3036 
2 3034 3035 
2 872 873 
2 871 872 
1 1317 18550 
2 1315 1316 
1 1315 12714 
2 1316 1317 
2 5537 5538 
2 18550 18551 
2 20095 20096 
2 5536 5537 
1 5536 20097 
2 20096 20097 
2 18130 18131 
2 8741 8742 
1 14640 15345 
2 18131 18132 
2 8740 8741 
1 8740 18132 
3 14639 14640 
3 14638 14639 
1 3759 14638 
1 14694 15190 
2 15190 15191 
2 21362 21363 
1 15192 21363 
2 15191 15192 
1 18660 19009 
2 16271 16272 
2 16270 16271 
1 747 16270 
2 1648 1649 
1 1648 18658 
2 18658 18659 
2 18659 18660 
2 19009 19010 
1 636 19441 
2 19441 19442 
2 19442 19443 
2 21281 21282 
2 4849 4850 
1 4849 21280 
2 21280 21281 
2 16163 16164 
2 455 456 
1 10233 11577 
2 19649 19650 
1 16164 19648 
2 19648 19649 
2 454 455 
1 454 10231 
2 10232 10233 
2 10231 10232 
2 1678 1679 
1 1678 19315 
2 19315 19316 
1 19317 19371 
2 19316 19317 
2 380 381 
2 379 380 
1 379 14281 
2 14281 14282 
2 14282 14283 
2 16562 16563 
2 16688 16689 
2 2900 2901 
2 2899 2900 
1 2899 16561 
2 16561 16562 
1 2901 12646 
2 16687 16688 
1 16687 17545 
2 17545 17546 
2 16099 16100 
2 9898 9899 
1 9898 16099 
2 5992 5993 
1 5992 12822 
2 5993 5994 
1 5994 21381 
2 17362 17363 
1 9900 17362 
2 9899 9900 
2 11923 11924 
1 11923 20392 
2 20392 20393 
2 19849 19850 
1 19849 21282 
2 19148 19149 
2 11924 11925 
2 18325 18326 
1 18325 19149 
2 18326 18327 
2 1373 1374 
2 1372 1373 
1 1372 11925 
2 1925 1926 
2 20605 20606 
2 20606 20607 
1 1926 20607 
2 6854 6855 
2 10049 10050 
2 6853 6854 
1 6853 10050 
2 5134 5135 
2 28 29 
1 28 7935 
1 30 5134 
2 29 30 
1 6855 17035 
2 7567 7568 
1 7567 19468 
1 7569 16695 
2 7568 7569 
2 16694 16695 
1 603 15120 
2 601 602 
2 602 603 
2 6583 6584 
1 6583 17547 
2 12215 12216 
2 17546 17547 
2 17531 17532 
2 21101 21102 
2 17530 17531 
1 17530 21100 
2 21100 21101 
1 12369 14353 
2 12368 12369 
1 12216 12367 
2 12367 12368 
2 5528 5529 
2 5527 5528 
1 5527 7200 
2 4495 4496 
1 4495 19684 
2 14353 14354 
1 5529 21213 
2 4496 4497 
2 17075 17076 
1 4497 17076 
2 13310 13311 
1 9528 20146 
2 13309 13310 
2 5201 5202 
1 1104 13309 
2 5200 5201 
1 5200 14454 
2 14452 14453 
1 14452 20782 
2 12682 12683 
2 1103 1104 
2 1102 1103 
1 1102 12682 
2 14453 14454 
1 8271 20148 
2 20147 20148 
2 20146 20147 
2 15392 15393 
2 3458 3459 
1 3459 15393 
2 271 272 
1 271 4551 
2 14384 14385 
2 272 273 
1 273 10926 
2 16655 16656 
2 9215 9216 
2 9214 9215 
1 9214 14385 
2 16654 16655 
1 14121 16654 
2 14120 14121 
2 4550 4551 
2 19627 19628 
1 2841 15951 
2 2839 2840 
2 2840 2841 
2 295 296 
1 295 2839 
2 5669 5670 
1 5670 19627 
1 1968 14343 
2 17345 17346 
2 19628 19629 
2 1966 1967 
1 1966 18397 
1 16548 17344 
2 14342 14343 
2 1967 1968 
2 16547 16548 
2 16546 16547 
2 17344 17345 
2 5452 5453 
1 5452 16546 
2 5777 5778 
1 5778 11667 
2 11666 11667 
2 8335 8336 
1 8335 15651 
2 11147 11148 
2 253 254 
1 253 1347 
2 15649 15650 
1 15649 21051 
2 262 263 
2 263 264 
2 254 255 
2 12163 12164 
2 12164 12165 
1 255 262 
1 11148 12163 
2 15650 15651 
1 5766 16591 
2 2453 2454 
1 2454 16779 
2 5116 5117 
2 2452 2453 
1 2452 5116 
2 5117 5118 
3 1778 1779 
2 9490 9491 
1 615 9490 
2 613 614 
1 1779 5191 
2 614 615 
3 12655 12656 
3 12656 12657 
1 10320 12657 
3 2953 2954 
1 2953 11244 
3 11243 11244 
2 634 635 
1 634 11242 
3 11242 11243 
3 2954 2955 
2 18551 18552 
2 9041 9042 
1 9042 15606 
2 3758 3759 
2 3757 3758 
3 15605 15606 
2 20143 20144 