ITEM: TIMESTEP
35000000
ITEM: NUMBER OF ATOMS
7056
ITEM: BOX BOUNDS pp pp pp
0.0000000000000000e+00 5.0000000000000000e+01
0.0000000000000000e+00 5.0000000000000000e+01
0.0000000000000000e+00 5.0000000000000000e+01
ITEM: ATOMS id type vx vy vz 
7875 1 -1.46464 -4.39525 -10.1286 
7873 1 1.14989 -8.98023 1.92605 
7874 2 1.22468 -2.04097 -0.497112 
8251 1 1.82488 -9.02548 1.14904 
8252 3 -0.298459 0.38188 1.29753 
16152 1 -1.99914 -3.71845 2.6266 
16151 2 -7.07366 2.57067 -0.878929 
13714 1 -0.571702 7.43091 -0.89721 
13715 2 3.92833 6.04236 3.02275 
10234 1 -2.34942 -1.33926 -0.531698 
10235 3 -1.14314 0.0726106 6.02335 
5650 1 -8.67224 -1.80415 -0.708638 
5652 1 1.15486 0.786429 -5.51312 
5651 3 -0.123161 1.10775 -4.0883 
16241 2 -1.36735 -1.12071 -0.221893 
16242 1 1.57974 8.66735 -3.8101 
16240 1 3.11806 -0.312994 1.93874 
8668 1 -2.18797 -1.46868 -1.76763 
8669 3 -1.63364 -3.03371 0.548757 
9443 3 -0.400049 -0.886982 0.398264 
9444 1 0.53879 -3.09657 0.0971708 
15490 1 -2.23798 -5.83635 -1.83786 
12826 1 2.05711 -1.77623 3.19543 
12827 3 -0.435007 -3.89074 0.737478 
12828 1 -2.75021 0.0751346 -1.46321 
9442 1 1.05602 4.19476 1.32743 
18058 1 4.17139 -2.69768 4.3538 
18059 2 -0.670715 0.811075 -1.11096 
9869 2 1.59363 -1.83068 5.24262 
9868 1 -4.58197 2.4319 -3.64098 
18060 1 -2.85967 -1.62968 1.62051 
9870 1 4.92431 -6.77336 3.3248 
19163 3 1.45876 -1.70861 -3.27729 
19164 1 -3.47033 -0.858636 2.88565 
19162 1 -0.462806 0.776756 7.26183 
1110 1 2.98826 -0.479736 -2.14534 
1108 1 0.943379 -0.879511 -5.20255 
1109 2 1.78723 -3.57629 -0.815629 
1594 1 -3.7475 -1.6036 -2.3986 
1595 2 3.31907 -2.44679 -2.97909 
1596 1 4.24373 -0.446713 5.50768 
10495 1 0.983155 -5.2291 -1.54385 
10496 2 -1.09863 0.265055 3.2336 
10497 1 -2.95381 -3.40486 -4.63886 
727 1 -4.48767 -5.73869 3.618 
7319 3 0.422277 -7.94176 5.26501 
7320 1 6.94519 2.43401 -4.59122 
13258 1 0.339358 2.35066 0.0777906 
7395 1 1.14803 -3.89116 4.00046 
7394 2 -2.70028 -4.34302 -0.0285662 
6149 3 0.493264 4.50737 -4.03281 
6150 1 -1.87123 -1.68755 0.490968 
7393 1 2.2649 0.53144 4.05276 
6148 1 2.89417 -2.31853 -3.59203 
13259 3 -0.715442 -0.37809 -0.509223 
17649 1 -2.5682 1.2361 -7.49894 
17648 2 -3.09469 3.05398 2.31922 
9370 1 2.30272 -1.16376 -2.16771 
17647 1 3.06378 1.43542 1.78412 
17182 1 0.0733666 1.95192 -5.10987 
17183 2 2.92573 1.66791 1.27407 
14667 1 4.70093 -5.50086 2.25836 
8253 1 -0.288376 5.34464 6.73276 
15558 1 -2.1398 1.97605 4.64833 
15556 1 7.63984 -0.489294 -1.91919 
15557 3 -2.53153 0.158741 2.82641 
20213 3 -1.29505 -1.30364 0.780917 
20212 1 4.31878 -0.671118 -3.02448 
10236 1 0.773824 -3.15021 6.20344 
20214 1 -4.36009 -3.69734 2.11834 
15492 1 -4.38609 0.0488043 -7.34642 
11483 3 -0.661481 3.9829 1.01377 
11482 1 -1.43713 -4.59799 -6.90464 
8670 1 0.705143 0.454761 -2.39837 
15491 3 -6.06055 1.50101 -4.07098 
17148 1 7.23184 3.82752 -5.7777 
17146 1 5.43036 -0.176947 -1.44542 
17147 2 0.515623 0.0187242 -0.714546 
20004 1 -5.05393 -1.65997 -2.04674 
8829 1 -2.23838 0.166439 1.58365 
11338 1 -1.84088 -2.36159 1.15501 
11340 1 2.02087 -2.6113 -2.11817 
11339 3 -0.909705 -2.51881 -1.96289 
20002 1 2.8123 -0.712475 -1.11458 
20003 2 0.923057 3.70749 -3.55708 
2914 1 -3.57462 -1.39615 -3.47586 
2915 2 -4.93937 -4.44085 1.56131 
8828 2 -1.57265 2.58356 -5.09601 
8827 1 -4.41968 -0.378717 -2.60955 
8239 1 -1.16696 2.93383 1.19955 
9189 1 -5.35347 4.15395 0.113712 
9188 2 3.2733 1.33997 -2.9658 
19957 1 0.417963 -3.25348 -3.95265 
19958 3 -0.906625 0.52321 -4.30598 
19959 1 -8.85588 -5.31052 -1.94212 
14852 2 0.373845 -2.7905 -4.84439 
14851 1 -0.448851 1.95282 0.979228 
14853 1 2.62986 0.467458 4.27522 
3964 1 -6.49467 1.06553 0.892938 
9187 1 2.36926 2.26871 -3.81525 
3965 3 2.54616 -1.087 1.55231 
3966 1 -2.17174 3.43412 2.49488 
1197 1 1.11828 -0.250397 0.271424 
1195 1 -1.90689 -0.989663 3.07648 
1196 3 0.0533761 0.563877 -0.754425 
5632 1 -3.15346 -0.04253 2.71173 
3241 1 3.58166 3.35917 -1.58271 
728 3 -0.706642 -1.41164 -2.57879 
729 1 1.14281 0.465742 0.0690193 
13200 1 0.0806851 -0.781089 -6.32381 
13199 2 1.43065 1.47671 1.08989 
13198 1 -2.63085 -0.742869 -1.72948 
3242 2 1.63366 -0.539869 -1.57367 
20378 3 0.399812 -2.16729 4.53105 
20377 1 4.94112 -2.99542 2.46007 
20379 1 0.80493 -1.39096 2.21269 
8634 1 -1.29624 0.373525 -3.05449 
8633 3 0.711914 1.52118 -1.37188 
8632 1 -2.34712 1.23185 -3.48216 
18732 1 -0.533778 2.12534 2.9283 
18731 2 -7.57473 3.95654 3.13722 
18730 1 -3.41232 3.243 5.56554 
7318 1 -2.09471 2.48261 1.06809 
6544 1 -1.15413 -3.44768 7.19283 
6545 3 -5.00996 -0.124093 3.69365 
6546 1 -5.49395 1.93943 3.04755 
18525 1 -1.68219 0.243342 0.695439 
18524 3 -0.0624769 3.64628 0.648501 
9371 3 1.16871 -2.25754 -1.51857 
9372 1 4.45338 -4.17314 -3.12102 
1060 1 4.94631 6.39595 -1.83691 
1061 2 1.22739 -2.03297 -4.36215 
1062 1 -0.499868 -4.1435 1.86558 
11055 1 -3.37844 1.49004 -2.6545 
11053 1 -3.82494 0.836467 -0.737194 
11054 2 -1.03815 3.65459 -3.375 
18523 1 3.31674 -5.71378 3.79204 
4456 1 5.78279 -3.29304 1.20563 
4457 2 -0.372288 2.11353 -2.93442 
4458 1 5.91447 -2.70601 -0.0465953 
16397 2 2.88501 0.0792412 -3.22155 
16396 1 1.26145 4.00455 7.14625 
11484 1 5.45348 -0.293342 1.48112 
18809 2 -1.32099 -0.151199 -2.22038 
18808 1 0.936977 2.63718 -8.85189 
18810 1 -5.20876 3.95435 -2.03927 
12588 1 -4.12706 -2.1435 -7.15573 
2802 1 -2.99464 7.44698 4.25766 
12586 1 -0.986348 -5.66154 -0.993161 
12587 2 -0.575337 0.066474 -1.62729 
18135 1 -0.415729 2.58436 6.68988 
18134 2 0.628098 1.63795 -4.57317 
18133 1 -1.80778 6.29153 -2.20655 
17873 2 -3.14317 -0.529347 -1.2886 
17874 1 2.36963 -4.90642 1.35277 
2801 3 -3.11455 -2.88804 -3.66935 
8240 2 0.634169 0.136001 -4.6405 
8241 1 -1.6024 2.80552 2.25434 
13908 1 -0.563504 1.78588 1.70852 
13907 2 0.518929 -1.56458 -1.92427 
13906 1 9.64635 5.61383 6.57817 
6496 1 3.07538 -1.56509 4.30033 
16049 2 -0.959716 3.4713 -5.07371 
2902 1 2.31222 0.197917 -0.996901 
16050 1 -0.923293 10.3145 1.16133 
16048 1 -2.14736 1.78528 -3.43241 
5634 1 0.306978 3.90917 4.77968 
5633 3 3.20413 1.98175 1.64588 
3879 1 4.27071 -4.84171 0.42096 
3878 3 0.068944 2.71031 -1.77647 
109 1 -5.21757 2.90826 -4.97226 
110 3 -0.636382 0.288186 -1.42223 
111 1 2.08647 -4.7147 -1.03997 
19263 1 -7.77936 2.48413 -2.20198 
9172 1 -2.35865 0.524015 -0.487989 
9173 3 -4.81444 -1.1711 0.210402 
3243 1 -0.340768 2.22343 -1.22165 
17423 3 -2.93391 -0.509622 3.93796 
8344 1 3.93467 5.53944 -0.154911 
17422 1 4.40598 -3.99656 4.76643 
12728 3 -3.71212 -0.627106 1.94323 
12729 1 1.13333 6.60921 4.59685 
3920 3 1.39404 -0.667494 -0.943338 
3919 1 -2.43731 -0.20469 -3.17882 
12727 1 -6.4632 -9.52764 5.50313 
3921 1 2.38927 4.947 -0.205883 
16398 1 2.29697 2.49946 -1.20056 
11068 1 1.50976 3.48126 -5.1017 
11069 3 -2.09331 2.97252 1.43244 
11070 1 -1.67344 -0.704646 1.19029 
3399 1 0.213216 -1.49058 2.48228 
10012 1 0.915834 -2.50315 -2.97584 
10013 3 -1.94354 -1.08711 -2.55021 
14891 2 -1.11961 -5.08848 -1.26952 
14890 1 7.1798 -3.78416 6.40309 
1929 1 -1.26445 2.92884 2.21628 
10014 1 3.99294 -4.22822 -0.0673141 
10413 1 -1.53667 0.393808 -5.37978 
17872 1 -5.05157 3.82902 -0.826183 
10412 2 -4.57389 0.54946 2.48382 
10411 1 3.8836 0.792732 0.168956 
1928 2 -1.66293 -0.605622 -3.23504 
1927 1 -4.7032 0.535934 -3.77606 
2800 1 -1.18686 -0.513625 -2.11666 
14160 1 4.24742 -3.56541 -4.98827 
14159 2 -2.7803 0.421707 -1.80863 
14158 1 -2.08831 -0.1208 4.50878 
7273 1 -1.18671 1.16401 -0.951748 
10376 2 2.19362 3.33989 1.53661 
10377 1 5.40118 2.30674 1.06164 
10375 1 5.52599 0.798595 -4.79633 
1182 1 3.37858 0.77339 0.565417 
2904 1 -3.14643 -3.24254 4.02472 
2903 3 1.10647 -0.884467 -1.07492 
1180 1 -2.70039 0.571181 -0.985516 
1181 2 3.39806 4.4504 -1.97887 
14687 3 4.56286 -1.78738 -0.827801 
14688 1 1.04799 0.165157 -0.3753 
2775 1 2.1281 0.921218 -1.77215 
2773 1 3.52077 3.17019 6.28691 
2774 3 -3.24409 -0.809553 -0.530801 
3877 1 2.88273 0.564099 -2.84276 
17596 1 -6.01539 5.86831 -2.63073 
9174 1 5.05174 1.19364 0.328449 
5526 1 0.0173591 4.44525 -3.16861 
5524 1 5.73097 4.03997 -0.835845 
5525 3 1.41038 -0.781585 -2.46703 
17597 2 4.83701 1.20606 0.535072 
17598 1 -5.14472 0.733964 -1.80162 
14070 1 -2.15616 1.11456 4.04279 
14068 1 -4.51923 0.61485 -1.88728 
14069 2 -4.31321 -2.05835 -0.609193 
16577 2 -0.788686 1.57132 -0.801975 
16578 1 0.55353 2.32814 -7.27272 
16576 1 1.84456 -0.535924 2.83162 
866 2 -1.33631 0.0804029 1.22102 
17424 1 1.84361 -1.45685 2.1854 
867 1 3.44814 -1.26528 -4.30569 
1246 1 -0.64864 -4.21539 -1.86558 
1247 2 -8.49449 2.04103 -1.14282 
1248 1 5.81995 -2.16924 0.563166 
8345 3 -0.860403 0.551992 0.653578 
8346 1 0.499284 2.48633 2.25057 
16790 2 -2.45781 1.55821 -2.66792 
10917 1 0.701855 -1.69355 -3.31377 
16791 1 -0.395546 -1.12295 -1.16473 
1200 1 -1.67354 3.66654 1.24333 
16789 1 -0.127471 7.04438 2.03686 
13946 3 0.792421 -1.89458 2.99961 
13945 1 1.29823 -3.79151 -2.67625 
12974 3 6.24209 3.35386 3.66171 
12975 1 0.572514 -2.3867 -3.68895 
12973 1 0.262949 3.49502 -0.00620115 
14892 1 4.41105 0.336694 -0.839714 
4490 3 -5.70673 -2.99547 2.03291 
4489 1 2.88753 5.25551 5.39605 
4491 1 6.20009 -2.66705 -2.55628 
3588 1 0.311257 3.22129 3.10266 
5844 1 -2.43026 1.42517 0.344507 
15568 1 8.3913 -0.181615 2.42064 
15569 3 0.263826 3.17075 -0.23086 
7274 3 1.64015 -0.90194 -0.404598 
7275 1 -5.00022 1.8752 -0.389772 
19986 1 1.71199 -2.12444 2.90263 
19984 1 -2.20741 -0.517139 -1.65958 
19985 3 0.707786 2.42784 1.78022 
4765 1 4.18573 3.29702 2.33981 
4767 1 -3.10675 -1.33583 0.704964 
4766 3 5.36227 -1.90573 2.77268 
14686 1 -1.76801 -2.35558 1.69802 
1538 3 0.197796 2.69976 4.00978 
1539 1 2.70923 1.97511 -1.63415 
1537 1 -7.37585 -4.16472 7.70727 
6384 1 2.74391 -3.67339 -1.36321 
17553 1 0.754676 4.39202 2.10614 
6382 1 -0.738779 -0.238686 2.13824 
6383 2 -0.619063 2.04022 2.81418 
11377 1 3.41698 -1.63872 -2.05529 
1066 1 3.06372 1.89029 -2.02428 
17551 1 -2.50955 5.73887 1.59531 
17552 3 3.40169 -1.46191 0.348283 
19943 2 2.81905 3.5691 -0.587704 
19944 1 2.37643 -3.33664 -4.37044 
19942 1 1.52767 -2.01049 -3.40193 
865 1 2.1664 -2.37057 3.42956 
19546 1 -1.73119 -0.451366 -4.57614 
19547 3 -1.70495 0.811018 0.627797 
20758 1 7.08831 2.39809 -2.30521 
19548 1 2.52639 -8.90484 0.892787 
21289 1 2.89562 -1.34525 6.64693 
21290 2 -0.416313 0.56965 -0.118585 
15206 2 -1.04711 -0.764865 -2.80506 
15207 1 0.262705 -1.45289 -0.76497 
21291 1 1.24877 -2.59168 1.08474 
19100 2 -0.775797 3.94809 -0.465391 
19099 1 -1.88543 1.76655 0.604588 
8173 1 2.42224 -0.76853 0.312483 
1199 2 -0.940704 -4.89827 -0.0719288 
1198 1 3.01768 -1.47107 5.44376 
2605 1 -1.76033 1.26903 0.267295 
2606 2 -0.499548 0.627528 4.53758 
2607 1 -2.8314 3.79006 -0.12866 
11399 2 -2.09114 -0.460741 -0.767971 
11398 1 -1.91206 5.34027 -2.33521 
19823 2 1.74563 -3.89474 -2.35747 
11400 1 -4.93507 -0.0973947 1.21549 
19822 1 -3.78892 2.73256 2.01243 
13947 1 -5.57957 -0.488294 5.09937 
7724 2 3.40604 -1.72188 0.161034 
7725 1 6.1189 -6.67938 -3.83813 
15514 1 2.1424 -5.94826 0.461589 
15516 1 -5.92326 -7.34707 7.44284 
7723 1 4.92231 2.80793 1.92955 
15515 3 1.63103 3.31338 -2.42063 
3580 1 3.4908 7.51647 2.38146 
3581 2 -1.74797 1.77798 -2.40792 
3582 1 1.01119 -3.86581 -0.683155 
12496 1 4.38492 2.88426 -5.43023 
18382 1 -0.0806042 -3.19504 2.70996 
18383 2 -1.34684 -0.047657 -0.428333 
18384 1 5.45148 -3.5626 -1.45526 
12497 3 -3.01145 1.80763 0.169357 
20735 3 -2.26913 -0.917436 1.02555 
20734 1 6.70431 3.73733 -2.24693 
12498 1 2.61777 -6.04259 -2.84559 
20736 1 4.08876 -2.71359 -1.88355 
3587 3 1.26014 -1.21964 0.866756 
3586 1 -0.00484843 -3.26407 -2.93653 
17719 1 -7.71811 -1.78381 -0.0910173 
17720 2 2.6411 -0.386034 1.55442 
17721 1 4.96839 2.01089 0.139836 
15570 1 0.564666 -0.362093 1.34746 
5843 3 -8.46613 0.699206 3.31059 
5842 1 4.90255 3.79828 -0.17382 
2387 3 2.58315 -1.4976 -0.39974 
2386 1 1.19628 2.05174 0.423379 
2388 1 0.11096 3.81594 1.33311 
97 1 -0.844471 2.04992 0.187915 
98 3 1.35053 -2.13689 -3.42938 
99 1 -1.94976 2.55483 -0.801001 
8929 1 6.31396 -4.87009 -1.53003 
11388 1 -2.75979 -1.58239 -1.48576 
11386 1 2.74328 -8.05714 -2.71609 
11387 3 -2.0806 2.80337 -1.09605 
10349 3 0.458745 -3.11146 -2.99185 
10348 1 -0.320987 -2.82727 2.87202 
10350 1 -0.409988 3.35221 2.2417 
14625 1 -3.55899 2.96086 -1.32586 
14624 2 -1.95923 0.128131 -1.78464 
14623 1 4.67854 1.14193 -6.66934 
10667 2 -2.64475 -4.43209 -1.02309 
10666 1 4.39878 2.12309 -0.514189 
10668 1 6.42393 0.127214 1.58841 
19388 2 0.767951 -1.07426 -0.580814 
8744 2 2.62728 1.00958 2.81973 
8745 1 0.728916 0.776537 1.8455 
19389 1 -0.105195 0.0871697 -1.3532 
8743 1 2.79845 2.92191 -1.66089 
4522 1 3.63244 -1.17831 -1.0515 
4523 3 -4.45686 3.78318 1.06066 
4524 1 -1.77973 4.25904 -0.977467 
1068 1 1.81633 2.35157 -4.82043 
19387 1 0.979697 -3.86678 4.25923 
1067 3 -0.464473 0.0590124 1.94197 
12129 1 -2.56155 1.84211 4.6293 
12127 1 -3.43172 0.903199 -5.42901 
12128 3 0.720019 -2.04678 1.47527 
1735 1 -1.80231 2.48761 -2.37466 
1736 3 3.1292 0.371315 0.196176 
11379 1 1.31571 0.367962 1.39396 
11378 3 0.530317 -0.404459 4.16356 
20759 2 0.147061 0.953335 -2.76755 
20760 1 -3.24967 -1.18718 -0.596524 
14953 1 -0.587251 -2.12867 -1.91655 
14954 2 -3.77014 -0.832918 1.19204 
2995 1 2.82535 -1.72581 1.41237 
2996 2 2.87778 2.07379 0.357961 
2997 1 -0.331101 3.34059 -4.86164 
15205 1 2.66572 1.3016 -3.05658 
3041 3 -3.35372 0.848629 -6.70421 
11449 1 -2.99941 2.0007 -1.90278 
11451 1 -0.294805 5.6224 -6.22226 
11450 3 -3.42724 -1.13973 2.37265 
8174 2 -2.25497 1.09278 -2.0075 
8175 1 -3.96952 6.82378 8.37596 
3042 1 -0.913148 0.690322 3.7934 
5830 1 -0.0753306 8.10093 -0.284665 
5831 3 -3.05038 -3.49922 -1.17733 
5832 1 1.93182 1.49401 -1.03895 
11762 2 0.116678 -0.848792 -0.103611 
11763 1 -5.91603 -3.09234 -5.50282 
11761 1 -3.72876 -1.20111 2.48826 
19824 1 -4.87979 -2.37347 3.32544 
564 1 2.17222 3.68868 -1.96242 
563 3 -3.63555 2.43314 1.97297 
562 1 -3.36161 -1.19605 -1.30169 
15395 3 -2.60579 -2.02664 1.8291 
15394 1 -4.98794 -2.98899 0.206752 
7868 2 -2.95132 -0.960423 -1.83875 
7869 1 3.0718 -0.534743 -0.566203 
166 1 -2.92939 1.07101 0.468098 
7867 1 0.0179447 0.341016 -0.0725329 
12283 1 1.04988 -0.844229 4.98826 
11448 1 1.74673 -6.17102 1.04573 
12284 3 1.45273 -1.02455 -4.41794 
1038 1 -0.567477 -1.36679 2.08332 
1037 2 -2.01493 -2.97748 1.1835 
19479 1 0.360995 -0.0290014 1.31682 
11447 3 -1.34997 -1.47457 -0.758387 
19477 1 1.63099 1.74682 -1.02617 
19478 2 0.517745 0.915951 1.7512 
11446 1 -2.37866 -3.89702 -5.07077 
16168 1 3.68364 3.87229 0.259042 
16169 3 1.2364 -3.79534 -4.44195 
16170 1 5.33413 1.30039 -3.74658 
1036 1 1.7182 1.18392 -5.93735 
20271 1 -4.83735 1.35404 -3.40295 
10765 1 2.28759 2.59761 -2.4276 
8931 1 2.87216 -0.836279 -2.70006 
8930 2 -8.10529 -0.712501 -4.80194 
4355 2 -4.90324 -1.05653 0.863013 
4354 1 4.4936 0.376645 1.96574 
4356 1 4.85658 3.5372 -3.58336 
6031 1 5.10643 -3.38686 -0.858037 
6032 2 0.626782 -0.190126 2.66067 
6033 1 1.14197 -2.3079 -2.22989 
10713 1 1.13196 -5.00451 -0.60573 
14025 1 -0.928592 0.48848 -0.917463 
14024 3 -1.07509 5.31826 3.99612 
14023 1 -3.18109 -2.32878 -2.40432 
1737 1 -1.89988 -5.46056 -2.25269 
18889 1 -0.362232 1.3379 -1.48262 
18890 3 -0.146111 -7.27889 -1.13533 
18891 1 -6.1558 3.01574 -0.587284 
14955 1 -3.20614 0.129739 -1.29914 
3040 1 -6.37884 -1.19134 3.53935 
7431 1 -0.116249 2.39049 3.88809 
7429 1 2.33786 0.285928 4.37664 
7430 3 -0.914958 -1.41666 3.71929 
10618 1 -1.7683 -3.61591 0.324638 
10619 2 -0.435547 0.704436 0.75187 
1081 1 0.828179 -2.29786 3.39083 
1082 3 -0.525454 -1.66014 1.98892 
5636 2 0.375353 -1.96479 -1.30746 
5635 1 -0.486092 -8.65559 1.63148 
13008 1 -0.993887 2.80149 0.968075 
9808 1 -3.05387 -1.71304 0.689201 
9809 3 0.571241 -0.421914 0.280127 
9810 1 -0.737493 4.65811 -3.15142 
15396 1 -2.48253 0.62165 0.414444 
12323 2 -1.53118 4.09489 -0.237629 
12322 1 0.82768 -4.14558 -0.834691 
4284 1 4.7783 1.08813 2.60172 
4282 1 -1.38908 -2.61694 1.35234 
4283 3 -1.99407 -1.19625 5.80218 
8505 1 -2.75247 0.429155 -1.02247 
20808 1 1.77634 5.36438 -3.98641 
20807 2 -0.528693 4.99834 2.30032 
20806 1 -3.61506 -1.07692 -0.347218 
781 1 0.9484 -3.38178 -0.543975 
8504 2 1.4839 3.03266 3.64368 
8503 1 -1.80465 -4.40057 -4.35846 
168 1 0.32806 0.136574 -0.832287 
167 2 1.90604 2.10964 0.34382 
325 1 -0.599668 -3.18703 -1.71915 
326 2 -0.239946 -0.48336 -2.89134 
327 1 -1.06302 3.31527 4.2616 
12285 1 -2.3285 -4.61442 2.09114 
14277 1 -2.7282 -1.97462 1.17769 
13951 1 0.953364 0.519611 2.65776 
14276 2 1.92633 2.23017 -0.578419 
13953 1 -1.14242 1.29906 0.00829474 
13952 2 -1.23276 -3.26734 3.11297 
3710 2 -0.306749 2.79676 0.516339 
3709 1 3.20625 -5.46242 -2.46665 
3396 1 -3.72664 3.34979 2.08584 
3395 3 -1.57601 -3.13166 1.49007 
3711 1 -5.67458 -2.42497 -2.24829 
20269 1 -2.54677 1.94778 4.47444 
20270 3 -1.70869 -3.40388 -2.08666 
17404 1 -0.725195 -1.09511 -1.95616 
17405 2 -1.93005 4.07803 -3.66972 
17406 1 0.551837 -4.1201 -2.13186 
3394 1 -1.60602 -1.99077 -2.23892 
10767 1 2.56484 4.22155 8.14194 
6702 1 2.03098 0.864751 -3.21797 
6701 3 2.01913 0.581857 2.46656 
6700 1 -9.74271 -4.25522 3.1823 
10766 3 3.51191 -1.02698 -0.654777 
13674 1 1.28786 -5.99741 3.28182 
13673 2 -2.12087 -0.453173 1.7364 
9502 1 -3.81678 6.878 -5.2711 
18331 1 0.928301 0.0936102 -0.661254 
21016 1 -1.9194 -1.58276 3.46366 
21017 3 -0.59049 2.67571 -0.682938 
13672 1 2.32806 4.59523 4.25309 
9504 1 -7.47983 11.5535 1.07382 
9503 2 -1.86668 4.60204 -3.07763 
314 3 2.47645 -0.596696 -0.413333 
313 1 -0.696645 -6.4963 3.57725 
4348 1 -3.24142 -0.334134 4.05984 
4349 3 -3.70695 2.59062 -2.99699 
4350 1 2.63324 5.28391 -2.4979 
3736 1 4.74305 -0.237042 -1.9804 
3737 2 1.37586 6.76191 -5.16709 
315 1 -6.07057 -2.95826 -0.161348 
3738 1 -1.12082 7.48451 -2.0402 
17017 1 -4.29714 -3.55992 6.25376 
17018 3 0.88512 4.12549 -4.33843 
17019 1 -1.97773 -3.07862 -0.0997679 
7546 1 2.72856 0.977242 -3.43268 
13408 1 6.7288 0.111638 -3.1117 
16173 1 -2.49526 -1.80732 -2.43557 
16172 2 -0.763357 -1.75963 0.256612 
16171 1 -2.62604 -6.11362 4.66852 
1083 1 6.46877 -0.405784 -6.21866 
8920 1 -0.880358 3.04548 3.73657 
8922 1 7.7 2.82155 -1.01796 
3121 1 -2.60074 2.46021 2.23938 
8921 3 0.398817 2.15024 0.50179 
3122 3 0.215377 -0.109434 -0.0335532 
3123 1 -1.82587 1.33909 0.387309 
5637 1 0.0664105 2.93525 -2.80931 
13287 1 -2.96624 2.05665 -6.61096 
13285 1 2.03278 2.38531 1.2468 
13286 2 1.40438 1.75246 2.45062 
13006 1 -2.81771 -0.520693 -1.37565 
21580 1 4.68477 -1.24009 4.93265 
13007 2 2.62757 -0.623336 -0.0139689 
14252 3 0.583668 1.60725 1.13661 
14253 1 -1.16009 -1.92466 -3.79543 
14251 1 4.08723 -1.52824 -4.84266 
21582 1 4.96944 -3.88862 -6.91058 
21581 2 1.63702 2.33869 -1.23809 
1861 1 1.00898 -5.08265 1.20236 
12324 1 2.39213 1.50354 4.39672 
1863 1 -4.79458 -2.83604 4.72497 
1862 3 1.30448 -3.74143 -1.85062 
16504 1 -5.07961 2.67295 -2.00866 
16505 2 -2.63445 3.537 -1.48199 
16506 1 4.30917 0.698796 -2.10765 
17671 1 -0.507221 -3.3897 3.51184 
17672 2 0.146734 4.01801 4.26124 
17673 1 2.79774 4.83591 2.33354 
4151 3 2.47445 1.42856 0.184145 
4150 1 -4.12356 1.68798 -0.393951 
12652 1 -5.83113 1.87551 -3.75861 
11370 1 0.953989 -0.185988 -5.52063 
12654 1 2.488 -0.503429 4.77772 
12653 3 0.797024 0.847581 2.27903 
11369 3 2.04794 2.69205 -2.21077 
17887 1 -6.52513 -0.723238 -0.0644408 
11368 1 -1.40542 1.18595 -1.60782 
14275 1 1.69993 4.05462 -0.440251 
17889 1 -4.09277 1.0422 -2.69273 
17888 3 0.888909 3.2487 -2.10999 
2019 1 -0.564187 1.38846 -2.45651 
2018 2 -0.624017 0.833272 3.00233 
2017 1 -1.98845 -1.62783 -1.40553 
15697 1 6.49222 -1.19172 1.85765 
15698 3 0.23423 3.15276 3.68216 
15699 1 5.61319 2.14807 2.59991 
19253 3 4.75001 2.30933 0.136306 
19252 1 -1.26968 -4.56512 -2.56072 
18942 1 -5.12604 0.416453 -1.64372 
7654 1 -1.39754 0.350594 -0.0444422 
7655 2 -2.20159 4.18596 -2.0772 
7656 1 -3.72934 -0.710468 5.66888 
2288 2 -2.33642 1.1631 -1.01659 
2289 1 -3.64094 -11.5741 0.106703 
18333 1 2.72406 -5.12175 -1.08667 
18332 2 -0.94724 1.24261 -3.87052 
21018 1 -5.90774 0.557335 -0.521768 
9278 2 -2.30098 3.6366 0.729331 
9279 1 1.67996 2.29879 2.99619 
9277 1 0.842779 -6.9646 -5.25517 
15736 1 1.28303 -5.56365 1.98387 
15738 1 -1.47518 5.03026 -8.88772 
15737 3 -0.172142 0.899091 -3.39951 
15879 1 -1.45304 -2.99438 -0.932272 
15878 3 -1.47759 3.05421 1.05588 
15877 1 1.12467 6.33888 -4.97813 
6229 1 -1.17361 3.28364 1.68862 
6230 2 -2.77889 1.93333 -1.13259 
6231 1 5.45315 -1.01568 -3.91547 
20942 2 0.123386 2.36129 -0.732132 
20943 1 1.34464 4.4547 4.29908 
18783 1 -0.692843 9.20336 1.83003 
8848 1 1.73246 -1.93087 1.30098 
8849 2 0.507038 -1.63062 4.23067 
8850 1 3.69865 -0.157112 -0.409559 
18782 2 0.385351 0.801847 0.776006 
18781 1 2.34897 -0.708248 0.944837 
9481 1 -1.13759 -0.851847 1.42953 
9482 3 -1.32133 0.219816 -1.10758 
9483 1 5.55859 4.44254 1.86441 
7547 2 -4.45166 2.86823 0.437209 
7548 1 -0.839371 0.461654 -0.847383 
13409 2 -1.75784 -1.33903 -6.54898 
13410 1 -4.11029 -0.6565 -6.37387 
387 1 -1.84383 -3.81121 0.412374 
17450 2 1.29967 2.20552 -2.32505 
17449 1 -4.16685 -0.0066592 -1.26201 
187 1 -4.04354 1.76379 -1.62044 
2497 1 2.47932 -2.68638 4.07189 
13821 1 1.58766 1.88379 -7.25799 
2499 1 0.373037 -2.59836 1.6734 
2498 3 2.20309 1.78361 1.41942 
9519 1 2.57197 1.06478 3.02921 
9517 1 2.11617 2.70719 -4.15453 
9518 3 -2.84791 1.06796 -0.481487 
1158 1 -1.32789 2.60274 1.23158 
1157 2 0.720515 0.091101 2.66874 
13820 3 2.00498 -0.471903 -1.25953 
13819 1 1.53402 -1.37678 -1.65743 
12371 3 1.48287 5.79755 -0.025443 
12372 1 2.76313 4.59971 1.76588 
12370 1 3.16852 -6.1446 0.915627 
7757 2 0.0228305 0.051953 -4.96742 
7756 1 1.47337 1.09478 3.55155 
7758 1 -5.54139 -0.946392 3.99441 
19373 2 1.74069 1.18058 0.585456 
19372 1 2.808 4.27045 -5.795 
12291 1 1.20265 -5.86609 -0.839331 
12289 1 -0.984669 -2.54518 2.55272 
12290 2 4.84119 -3.87704 1.22251 
15133 1 -0.578279 -7.66228 -3.37715 
15134 2 -4.46821 -3.47164 -4.10012 
7453 1 -3.29843 -6.3141 -4.90415 
14201 3 -0.793669 1.66078 -3.65001 
4152 1 0.375597 2.51461 4.59267 
14200 1 -2.72322 0.989627 10.7068 
7455 1 -2.09023 5.80463 -1.92694 
7454 3 2.67747 0.126393 -2.10092 
4745 3 -3.84518 4.4257 2.25413 
4744 1 0.677483 0.730664 -3.28984 
14202 1 -3.42689 4.01189 4.24485 
11558 3 -2.45871 -1.78622 2.78693 
11559 1 1.5348 10.2205 -1.07963 
11459 3 -2.21602 -2.08902 1.92567 
11458 1 1.54276 2.48662 1.02208 
11460 1 -0.275092 0.451032 2.54076 
11557 1 -4.25146 6.72079 9.89765 
10406 3 -4.36127 -0.0174213 1.73231 
10407 1 3.05893 1.38924 0.938548 
19254 1 2.02663 -0.565571 0.318746 
10405 1 -2.3933 -5.48685 4.96409 
18941 3 0.508842 1.74825 1.44939 
18940 1 2.53898 3.58659 -8.60365 
2287 1 -1.87097 0.197498 -0.300775 
1915 1 -0.340467 4.66047 7.63345 
1916 2 1.26696 -4.12424 0.556806 
17175 1 1.99077 -0.0837583 1.2704 
16891 1 -0.131952 -3.79368 -2.94636 
8562 1 3.36019 -0.234097 -0.301479 
16893 1 -1.53178 -0.440042 -0.50016 
1441 1 3.73193 -6.39343 2.36257 
1442 2 -1.00591 -2.60458 -0.808197 
17174 3 -1.45797 -4.02962 3.51343 
1443 1 -3.9286 -2.39086 0.338391 
17173 1 -3.25186 2.85447 -2.76308 
16341 1 0.732083 3.3146 -2.91539 
20941 1 -4.58839 -4.43103 2.99084 
252 1 -1.78521 -0.408818 0.9627 
19435 1 1.42873 -0.725259 0.941702 
386 3 -0.0552337 -1.74755 -8.02531 
16232 3 0.824782 1.3356 1.42028 
385 1 7.158 3.46375 -2.62924 
16231 1 1.67253 -1.35662 3.46815 
16233 1 -2.97492 -2.30118 5.67627 
17451 1 1.82505 2.34973 -0.247264 
16471 1 -5.66267 -2.1662 -2.76297 
16472 2 1.49554 2.74385 -1.31068 
16473 1 5.92031 0.100195 2.88147 
7666 1 -1.11033 -0.976324 3.17815 
7667 2 0.879035 -1.829 2.81688 
14650 1 -1.81291 0.922395 -2.7496 
7909 1 -0.559037 -6.71534 -3.58014 
14651 2 -0.132511 -5.94489 -1.00609 
14652 1 -4.4875 -6.0932 -3.25385 
3796 1 -8.23883 -1.34803 -3.0146 
19374 1 5.34622 -5.30814 2.13314 
3798 1 -0.830232 -2.65973 4.15326 
3797 3 -1.18385 3.1482 -1.78047 
2398 1 2.16932 0.0550746 3.14948 
6035 2 -1.0026 -0.628766 1.7893 
6036 1 1.39103 6.8923 -2.98114 
2399 2 2.66797 4.68476 -1.21836 
2400 1 -2.49216 1.12314 -1.85982 
6034 1 3.85803 -0.991396 -7.18209 
20931 1 -1.0551 0.406259 3.95234 
20930 3 2.12386 0.813743 -0.761872 
20929 1 2.93014 -3.89165 2.20837 
4746 1 0.860284 -3.80135 2.08006 
10238 2 0.146799 -4.65743 5.20584 
10239 1 -0.981898 -1.41486 -5.89229 
11815 1 -7.88179 0.290438 2.57901 
11691 1 4.83373 -3.91212 -2.72816 
1917 1 -0.263668 -0.285012 2.97755 
9091 1 1.57323 -3.10504 -5.85378 
9092 2 -4.26346 -0.111274 1.30785 
16892 2 -0.54002 0.285518 2.16903 
16340 2 -0.88301 -3.59417 -0.00555622 
16339 1 2.71846 1.48619 2.57252 
8596 1 6.24038 1.12549 1.37065 
8598 1 -3.05832 0.451758 -0.0906488 
8597 2 3.18201 -0.108758 -1.7934 
7688 3 -0.0400676 -3.40806 -1.38307 
250 1 -1.15953 -1.79821 0.333081 
251 3 1.67641 -1.07948 3.6616 
7687 1 -1.12093 -2.06583 0.790176 
4339 1 -0.1339 0.742733 2.81502 
4340 2 -0.872547 0.121412 -3.49823 
4341 1 -7.24643 -0.207885 1.1117 
9135 1 0.951959 6.4012 4.01087 
9134 3 1.04185 0.618145 2.2706 
9133 1 -2.49061 0.225583 -4.91909 
19436 3 -0.377641 2.42989 -2.05932 
19437 1 3.95462 -1.63531 -3.47163 
15244 1 5.85841 -1.98947 4.9165 
15245 2 -2.18658 -0.819853 -0.63206 
15246 1 5.4592 1.03705 2.32092 
15528 1 -4.08543 -0.459976 -3.63546 
8869 1 -0.53341 -2.87796 -1.11133 
8870 2 -0.942796 3.66738 -3.45001 
8871 1 6.6114 4.89104 4.14504 
6636 1 -3.28954 7.74558 4.90499 
6635 2 -0.700852 5.56404 0.444007 
6634 1 -4.82325 5.89641 -1.77989 
1462 1 -3.06916 -3.27442 -6.18581 
1464 1 -1.97558 0.528971 1.27149 
1463 2 0.806933 -1.30159 -1.82437 
7668 1 -5.25275 4.47932 5.28611 
13987 1 -4.05407 0.238619 -1.71821 
13988 3 -4.89824 1.62094 1.93204 
13989 1 -2.32156 -0.271383 5.51524 
7911 1 4.47381 2.31216 -8.49128 
7910 3 2.82917 -1.64832 5.80968 
1206 1 -1.84221 -3.24124 1.22077 
1205 3 2.06636 0.0102406 -1.35964 
1204 1 -2.42349 4.81639 -0.24704 
14064 1 8.93559 3.67068 -0.525544 
14063 2 -0.762271 0.331356 0.499837 
8887 1 -1.96849 8.11682 1.51267 
8888 2 -2.51676 -0.43923 -1.14405 
16318 1 4.25919 -5.9965 0.610693 
8889 1 5.09362 1.21247 1.73488 
16320 1 -4.75779 -1.00314 -5.79616 
16319 2 2.31801 2.82305 -3.46491 
7149 1 -3.52808 -2.49309 -0.625623 
10237 1 0.496999 2.59424 1.52494 
19385 2 -2.40386 2.48941 2.32802 
19384 1 4.12184 -3.99873 -3.16676 
19386 1 0.407499 4.30702 -2.60872 
11816 3 3.84045 -9.10454 4.41622 
11817 1 0.457487 0.957719 6.00289 
14900 2 2.92809 0.726411 6.56556 
14899 1 3.81387 -3.82285 -0.478048 
14901 1 6.5781 -4.16046 3.16304 
5933 3 3.57679 -2.32528 2.70891 
5934 1 -1.85134 -1.10946 0.186321 
17028 1 -2.6551 3.86121 2.66538 
17027 3 0.261286 2.8786 -0.480647 
19333 1 -2.93465 2.39523 3.15856 
19885 1 -1.08258 7.4553 3.86994 
19886 3 2.81858 -2.8347 -1.3252 
19887 1 4.47492 -0.318146 0.337072 
19334 2 -4.12501 -0.243414 0.482491 
19335 1 -7.42586 -2.69373 1.49562 
5183 3 -3.03442 -0.107851 -1.82129 
5182 1 4.11304 0.16902 -0.190645 
9093 1 0.586869 -0.803947 7.25412 
5184 1 -3.44616 2.46949 0.618758 
11707 1 0.755813 4.58648 -3.51421 
11708 2 2.7757 2.31133 4.65147 
7099 1 0.427 3.69359 -7.59486 
11709 1 -3.29307 -3.29714 -1.72866 
7100 2 -0.2639 2.45892 2.24356 
7101 1 4.94707 1.39778 -7.4439 
7689 1 2.02673 -0.324081 2.45801 
14007 1 -0.433449 0.812142 -2.05063 
14006 2 -3.11984 -0.0915789 -1.45326 
1097 2 -2.36843 0.0197266 -4.42518 
1096 1 -1.30283 -2.92453 1.80883 
1098 1 -2.74507 8.01929 1.77606 
1828 1 -1.41812 -2.95381 -1.69835 
1829 2 0.245156 -1.33085 1.88968 
1830 1 2.68956 -2.24535 1.11818 
11546 3 1.46606 4.3035 -7.4567 
11545 1 1.01554 -2.63733 -3.77947 
11547 1 6.36498 -1.03085 2.93416 
14062 1 -0.927632 -3.0924 2.0289 
7746 1 -0.687617 3.91648 -2.21795 
17478 1 2.60153 4.73623 8.72763 
18177 1 3.8839 -0.613543 7.35813 
7745 2 -0.107742 -0.168761 -2.37928 
7744 1 0.507411 -1.50128 7.22051 
18175 1 -0.232321 1.30358 4.22264 
18176 2 -0.806164 1.69098 1.41704 
2169 1 9.58955 5.11102 -6.08607 
17476 1 -0.519281 -0.782175 1.98156 
17477 3 -0.373935 -7.00585 4.28325 
2167 1 6.19177 -0.282078 2.51096 
2168 2 -1.71487 -1.33618 2.43112 
616 1 3.56818 0.675147 -6.50711 
16968 1 -3.12485 -2.62372 -5.9665 
16967 2 -0.533899 2.09523 1.23271 
16966 1 2.85163 -7.33492 0.597594 
7148 3 -1.4943 -3.31525 3.67718 
7147 1 -1.09479 8.88794 -3.53905 
5932 1 -1.05973 1.61837 0.821558 
17026 1 -1.71249 -3.9979 -2.18128 
7597 1 4.71965 4.40935 0.879058 
4084 1 -0.900725 -2.86721 -2.32752 
7599 1 -0.632309 0.125924 1.88921 
7598 3 1.1502 -4.19656 -4.51237 
4086 1 4.65601 -1.60301 -7.16354 
4085 3 -4.45438 -0.849992 -1.73199 
19590 1 -1.33654 3.78895 -4.72811 
10944 1 0.816306 2.1733 -7.49416 
19589 2 -3.00509 -2.19858 -4.29667 
19588 1 -1.86405 -5.2711 -4.23941 
14902 1 0.579616 3.50007 -2.56909 
16598 3 -1.53322 -0.210341 0.329508 
16599 1 2.37402 -4.96164 3.05157 
1348 1 -0.594541 2.48166 -3.40941 
5113 1 4.61033 1.19678 -0.898624 
1349 2 -0.731007 2.71074 -2.41401 
1350 1 -6.91266 2.37326 -0.890098 
7789 1 -6.6433 -3.58402 2.29462 
7790 2 -0.730552 1.81147 -1.42274 
7791 1 3.05993 1.60524 0.00489287 
20901 1 7.40981 1.81876 -0.303017 
20900 3 -2.51625 3.55737 0.985689 
20899 1 3.42876 -0.784328 3.50093 
10315 1 -0.159611 0.632522 -3.65682 
8498 2 -6.72878 2.78035 4.28675 
8499 1 2.66596 2.87715 0.11606 
10317 1 -4.70823 -3.8357 -2.54691 
10316 2 2.44022 6.23584 0.822289 
2869 1 -1.39563 6.28929 0.0293234 
2870 2 1.4392 3.93409 -4.8598 
2871 1 -5.75414 -1.2714 -0.555221 
19200 1 -1.57567 -4.58025 1.31754 
14005 1 -4.32817 4.10437 3.34256 
19199 2 4.40644 -1.20335 0.456359 
19198 1 2.24769 -3.27894 -2.32026 
19087 1 -4.06278 1.51143 -1.16101 
8593 1 3.93567 0.289072 -3.31022 
15644 2 -1.87625 -1.22231 0.859272 
15645 1 3.22154 1.77511 -0.247259 
15643 1 -2.6393 -1.89014 -2.71628 
11060 2 1.00117 -2.44839 -3.21553 
11059 1 3.05334 -0.484112 -3.39659 
11061 1 1.72398 1.98848 -2.82918 
10943 2 0.269923 -1.42001 0.56541 
10942 1 1.2118 -3.347 -2.44107 
17400 1 -2.17544 3.10814 -3.57407 
17399 2 2.411 -3.6651 -0.422461 
17398 1 -2.53757 0.579972 6.92236 
786 1 2.41259 -2.12475 -3.58849 