ITEM: TIMESTEP
35000000
ITEM: NUMBER OF ATOMS
303
ITEM: BOX BOUNDS pp pp pp
0.0000000000000000e+00 5.0000000000000000e+01
0.0000000000000000e+00 5.0000000000000000e+01
0.0000000000000000e+00 5.0000000000000000e+01
ITEM: ATOMS id type vx vy vz 
20015 2 0.330448 3.06172 0.649666 
20014 1 2.61738 7.00633 -3.85152 
20016 1 1.72984 -2.63312 0.878227 
6547 1 0.995939 -1.60451 1.56279 
6548 3 -0.193221 2.62432 -4.31594 
2310 1 2.67607 3.10672 0.565107 
5203 1 6.64107 -7.32416 3.3076 
4663 1 6.75272 -0.292232 -0.77701 
4664 2 -5.34538 1.57683 -4.28329 
4665 1 -0.76355 1.11276 -4.09955 
2309 2 4.67304 2.28496 -0.769446 
1267 1 -4.21765 -3.46193 -2.77157 
5779 1 2.52983 -0.707512 -3.65046 
5780 2 2.79556 1.53344 -0.308819 
5781 1 -2.18194 -1.84105 -1.9228 
6549 1 -0.106033 3.72068 2.93144 
11967 1 1.85746 7.25551 1.97887 
8443 1 -3.54539 2.03394 -0.774351 
8444 2 1.49347 -2.3378 4.71358 
16366 1 -0.579426 3.87153 -3.38226 
7316 2 -1.41328 0.099966 0.480578 
7317 1 5.29602 2.26404 4.30279 
2308 1 2.38294 10.0662 0.470761 
17051 2 -2.49228 -0.344504 -1.05735 
17050 1 3.75653 0.242211 -0.479766 
17052 1 0.121698 0.205255 -0.00528043 
12166 1 -1.24952 -2.48723 -1.83 
2767 1 -4.68061 -1.69212 -0.221707 
2768 2 -1.57463 3.47307 -1.22301 
5204 2 -1.12571 -2.29364 3.25187 
5205 1 1.89242 -2.56025 2.15352 
8965 1 -3.2418 1.86682 -2.35096 
8966 2 2.33883 0.727951 -3.30527 
14388 1 -6.01203 4.59448 -4.81707 
8967 1 -0.653344 4.27356 5.36116 
2769 1 -2.81747 -6.05929 1.59743 
6538 1 -6.44866 3.25556 3.0681 
6539 2 -2.22413 -2.04411 -0.541883 
20360 2 2.08769 -2.47388 -2.38447 
20361 1 5.65993 -1.32225 -0.139828 
6540 1 -1.24184 -8.14724 -0.787892 
20359 1 -3.09494 4.37053 -2.59135 
18835 1 0.451815 3.12272 0.878656 
18836 2 0.360149 5.59181 -1.10814 
18837 1 5.67888 -3.00974 -2.64857 
1269 1 -3.29204 3.06356 -2.16138 
9012 1 -4.85923 7.82373 -1.98871 
1268 2 0.126191 -5.30324 -2.57019 
11966 2 2.79997 1.71272 0.695127 
8441 2 3.02899 -3.44322 1.26931 
11965 1 0.562909 3.4957 2.79357 
8440 1 4.11228 0.823118 0.810585 
8442 1 0.965185 -4.84689 -0.930934 
7704 1 -0.423172 -5.90569 1.62775 
4448 2 -5.04792 1.15071 -0.0581409 
9321 1 -0.29609 1.20417 -1.31294 
4449 1 7.9376 -1.97731 -2.39862 
7315 1 -3.23513 5.68784 5.46832 
8445 1 0.53722 3.44636 -3.9644 
4447 1 -1.04082 0.515702 -6.1295 
15085 1 -4.73535 -2.04142 1.67897 
9561 1 0.920235 -3.23449 -0.715466 
15087 1 -7.25104 0.074531 2.34636 
15086 2 -3.05727 -2.56606 -4.74562 
5346 1 -0.675146 -4.08933 3.20093 
5345 2 -3.73855 -0.12098 -2.84559 
5344 1 -1.60418 2.51453 1.61248 
16368 1 -0.935386 4.07488 -7.31608 
9560 2 -2.59724 1.29138 -3.53341 
16367 2 -1.77964 2.58457 1.17865 
3270 1 -3.61486 -2.31985 3.91407 
3269 2 -6.34726 1.75894 0.298741 
3268 1 -3.58299 0.195757 -3.18591 
5516 2 0.838041 -1.77982 3.71756 
5515 1 2.55792 -1.38761 -0.657649 
5517 1 1.26314 6.12338 1.78127 
21186 1 1.48674 -2.00754 -4.58217 
2256 1 7.36741 3.35163 -2.54999 
12168 1 -0.219976 -5.24023 0.494738 
12167 2 1.15237 -1.27725 2.85061 
2988 1 -4.03797 1.51995 4.92894 
20812 1 -0.295035 -4.42094 -4.67889 
18367 1 4.63912 -2.20563 -1.01123 
20814 1 -3.19871 5.82162 0.410754 
20813 2 -1.39086 2.60207 -0.327489 
14386 1 0.832431 2.26405 1.75822 
14387 2 2.3764 1.04755 5.09499 
15195 1 0.526757 -1.88271 2.33284 
2047 1 -4.53928 2.09917 3.0297 
2987 2 -2.76806 1.59726 3.33634 
2986 1 3.06742 2.24637 -0.429327 
15634 1 0.648617 -2.39127 -2.64604 
15635 2 2.27611 -2.05366 -1.48125 
15636 1 -7.27714 3.11218 -1.66877 
3706 1 -2.28895 -1.85586 3.80603 
3707 2 -0.0236887 0.116302 -0.37687 
3708 1 -0.997845 -2.38973 -3.73439 
7596 1 5.0476 2.02109 2.54135 
7595 2 -2.1308 -1.75933 2.65587 
9011 2 -0.653104 0.576254 1.31956 
12878 2 -1.26745 2.62879 -0.52114 
12879 1 0.630337 1.96837 0.329971 
9010 1 -0.997786 3.98444 3.97647 
9357 1 3.2891 0.926299 1.03103 
1524 1 5.22228 5.51332 2.49943 
12877 1 1.12848 -2.34065 -2.96376 
2048 2 0.187233 -4.4026 1.22443 
2049 1 0.453078 -4.9753 -3.47234 
9319 1 -3.40485 3.91386 2.12516 
7703 2 0.391066 0.457801 1.07998 
7702 1 -1.71646 -0.152251 0.838105 
9355 1 4.93547 -0.988251 2.21012 
9356 2 -4.16313 2.03884 -2.15679 
7878 1 -2.52127 3.44987 -2.65224 
10918 1 -0.344378 -0.327368 -5.2885 
9320 2 1.17027 -0.922582 0.155911 
249 1 1.53523 1.94392 1.36164 
9559 1 -2.25143 5.36186 4.71986 
10920 1 4.38858 2.62804 3.5982 
10919 2 -1.31232 0.720068 2.21654 
17493 1 -2.96236 -1.85448 0.401442 
17492 2 -0.37942 -2.30269 0.565216 
248 2 4.30341 -1.63314 0.501201 
247 1 -1.0268 4.25511 5.14589 
7594 1 1.59395 -1.34316 2.15841 
14266 1 -4.65717 -0.111169 3.43366 
14267 2 -0.0679231 -1.34781 1.15675 
14268 1 5.93322 -0.0015522 -1.00299 
3250 1 -3.39791 -2.30867 0.931777 
3251 2 -0.0982707 2.37134 2.8289 
3252 1 -3.47942 -1.67434 -2.23829 
6195 1 -2.45649 -1.12854 -3.55091 
6193 1 2.28395 -0.712898 -3.316 
6194 2 -3.36005 -1.77119 -2.18537 
20118 1 -0.33449 -2.44238 2.82359 
11781 1 -3.34533 3.6528 0.923786 
11780 2 4.73375 -0.015874 -1.45958 
11779 1 1.84458 -1.90423 0.79221 
14617 1 0.983037 4.67243 0.19391 
14618 2 0.582547 3.46926 -0.101792 
9678 1 -5.39669 -1.6301 -5.25265 
12574 1 2.87739 -2.04273 -8.54067 
16800 1 -2.27046 2.32472 -8.12916 
9677 2 0.857666 3.11896 3.34713 
21185 2 -0.0542786 1.80866 -2.88775 
21184 1 -1.0682 -1.32425 0.344161 
16798 1 1.86568 -1.59983 -1.11803 
16799 2 -0.513794 3.21679 1.29191 
17452 1 -1.678 6.04145 -5.49336 
9676 1 3.47608 3.69126 8.57639 
2254 1 3.58684 -3.96618 -3.13669 
5694 1 4.41471 -0.325649 -4.28216 
2255 3 0.543396 2.21721 -0.457284 
13058 3 -0.66068 -2.58523 7.32382 
13057 1 1.23784 -5.72177 -0.470968 
10905 1 -0.324232 -5.8502 2.31464 
10904 2 -1.55447 -0.809641 5.94187 
13059 1 2.80819 1.89312 -4.96378 
18368 2 -1.60016 2.10176 -1.36913 
18369 1 0.514934 0.131738 0.707714 
8214 1 5.54737 0.0886792 -6.71576 
15194 2 -1.4151 1.50787 3.87352 
15193 1 -1.73053 6.77484 6.86995 
8212 1 0.751076 -4.52228 -6.38419 
8213 2 2.13337 -3.81172 -0.868462 
5178 1 -4.14747 -4.99809 -3.87067 
16285 1 -2.92121 -2.04151 -0.890265 
14221 1 0.408368 4.15887 -1.84896 
5177 2 -2.31712 -2.52996 -0.366485 
5176 1 3.04455 -2.02715 0.687339 
10903 1 0.0990144 -2.58352 -1.01759 
16824 1 -0.499142 4.90298 -0.472082 
13180 1 -1.1222 -3.67481 3.75958 
16823 2 -0.747959 -2.42853 1.85068 
16822 1 4.49834 -0.21834 -1.26792 
17010 1 9.31191 1.30773 2.08316 
17009 2 -4.1983 -1.19287 -1.79543 
4936 1 -0.777378 -0.35074 4.92373 
13347 1 -0.844317 -2.56553 2.22341 
10605 1 -1.96722 1.03272 7.39945 
10603 1 -3.05361 4.31846 2.84242 
10604 2 4.14152 -0.87405 -1.18149 
1522 1 -2.09797 3.24075 1.72 
1523 2 -1.80562 -3.31854 -1.80273 
14619 1 -2.42805 1.53859 -0.0536338 
9700 1 -2.28986 0.266233 -4.97684 
941 2 -1.6935 -3.62821 0.441965 
9702 1 -6.62865 4.6958 -1.74311 
942 1 -2.15251 -0.169598 -1.73346 
9701 2 -0.929271 -0.858422 -1.78079 
14222 2 1.32166 0.342414 4.00326 
14223 1 1.60077 -0.330281 1.35733 
7876 1 -0.310604 5.41875 4.59641 
7877 2 2.38106 0.622097 3.31496 
17491 1 2.41106 4.60853 -0.828815 
17008 1 -0.0124456 -0.905804 -2.22182 
6064 1 0.185207 3.15698 -0.969087 
6065 2 1.55906 2.44341 1.70551 
5692 1 -2.9024 -0.00939729 1.42709 
6066 1 4.54054 3.34044 -2.36428 
5693 2 1.5203 0.790074 -3.70117 
6456 1 3.31642 4.12556 -1.0948 
1839 1 7.00293 1.93285 0.596204 
14280 1 -2.43019 -2.24942 0.482671 
1838 2 -3.59235 -4.1 0.667253 
19173 1 0.301702 -3.11273 -2.13144 
19172 2 -3.26058 -0.550869 -0.646183 
19171 1 -3.37749 1.84441 3.6678 
4937 2 0.16784 -1.79435 -4.61769 
20117 2 -2.17035 -2.93763 -0.507401 
4938 1 -0.371663 -6.28133 2.14308 
13931 2 0.273582 1.64412 0.520658 
20116 1 -1.34856 -3.32376 7.11647 
13930 1 -3.55655 -0.314409 -4.96243 
8940 1 4.61274 -1.75883 -2.65565 
13932 1 3.03794 -2.75777 0.908902 
12575 2 -0.568971 -2.54194 2.14358 
16571 2 2.76554 0.834576 -4.01496 
16570 1 -0.951431 0.729558 3.0953 
13596 1 -2.56276 5.55452 3.95544 
12576 1 -0.236624 3.44637 -1.89451 
16572 1 0.763401 0.105329 3.17762 
12300 1 -2.74148 1.82337 -1.05605 
16261 1 5.67524 -1.43382 6.35063 
16262 2 -1.00249 3.64898 -1.96109 
16263 1 -2.79919 3.74393 -1.26987 
12299 2 1.44266 0.848044 -0.457306 
12298 1 3.12441 8.70236 4.88521 
17453 2 -3.1921 4.07429 3.4251 
17454 1 -1.38952 -1.86002 6.46201 
16287 1 -1.70987 -0.226887 -8.17417 
495 1 -1.56312 -3.13679 -0.12561 
20877 1 -3.215 2.67301 -2.69901 
20876 2 6.84548 1.21195 -0.674929 
20875 1 -3.20206 0.0949244 3.31367 
16286 2 -1.79157 1.55897 -1.1526 
13181 2 -1.21332 3.69946 1.76185 
13182 1 1.58798 4.47008 1.06027 
14278 1 7.34179 1.24127 2.03906 
13345 1 0.636062 1.08853 -7.82105 
18833 2 -5.21359 5.15325 -2.62379 
18832 1 1.86194 5.29375 3.65502 
13346 2 -0.326853 -1.11135 -3.18201 
20216 2 0.565759 -0.410072 -5.14925 
20217 1 -3.137 -10.1445 -1.23741 
13595 2 3.67964 -3.08163 -0.885537 
940 1 -1.90164 6.59555 3.2687 
20215 1 5.83612 2.82106 1.59758 
15505 1 4.27924 1.19264 -1.43785 
15507 1 1.99948 1.49232 1.87188 
15506 2 -2.63725 1.42696 4.6967 
13594 1 0.644607 -3.36295 6.09146 
10100 2 4.99967 1.32012 -2.13608 
9348 1 0.525792 2.77035 -5.58765 
10099 1 -0.757471 -1.51103 -4.47218 
11319 1 3.30713 -4.77697 -4.51748 
10537 1 0.872869 2.6185 -1.89953 
10101 1 -5.35862 0.712673 1.14189 
6455 2 2.29115 -2.32908 -1.37174 
2475 1 -0.0998523 0.425658 4.30561 
6454 1 2.2374 -0.147608 -6.78108 
11317 1 0.938085 -4.03527 -0.211611 
12637 1 0.547501 -4.51368 -0.487065 
12638 2 -3.44031 -0.609544 -0.481873 
1837 1 -0.25589 2.1008 1.08087 
12639 1 1.53696 -2.68958 -4.03516 
11318 2 5.33439 -1.50621 0.294675 
14279 3 1.51644 -1.45241 0.253505 
8939 2 -0.287955 0.0424858 1.17601 
10442 2 -2.93734 2.28946 1.43327 
10443 1 -1.23579 -1.38914 1.67233 
10441 1 -0.993566 -3.47365 1.18617 
8938 1 -0.745678 5.0087 -3.15074 
2473 1 -5.64907 -3.39902 -1.66054 
2474 2 -4.43111 -3.47579 -3.41585 
15588 1 0.140833 3.42801 -1.33054 
15587 3 3.79995 -1.54866 2.41076 
15586 1 1.80077 2.27791 -1.07954 
20856 1 4.37435 -0.534204 2.83393 
20855 3 -0.596831 -1.03159 1.62934 
494 3 1.85462 -2.42829 -0.367313 
493 1 -2.54043 0.224217 -4.07478 
20510 3 2.03057 -2.19501 -6.1743 
10539 1 -5.48675 6.42508 2.97063 
20511 1 -0.58698 -1.89055 0.383818 
15096 1 0.257889 2.14526 -3.69488 
20509 1 1.10961 -0.488416 -5.54771 
10230 1 -4.30437 -1.83839 0.410802 
18834 1 -6.87305 4.01729 5.9841 
10228 1 2.75419 -3.88384 -2.5194 
10229 2 -0.911884 -1.99003 -2.06225 
10475 3 1.40888 1.82339 0.256959 
9346 1 6.03838 0.538396 6.55347 
10474 1 3.48157 0.669161 -1.80571 
10476 1 -3.10151 -7.15958 2.24522 
9515 3 -0.130745 -2.138 -0.516186 
9514 1 -7.14738 -2.31311 0.495205 
10538 2 1.01148 0.0424544 -2.9075 
9347 3 -2.54241 -0.15091 -3.04545 
20854 1 -2.87645 -5.85212 -0.777725 
15094 1 2.25403 -3.56483 -7.36022 
15095 3 -0.685165 1.38411 -3.79818 
9516 1 -4.60785 -0.606405 -5.85276 
