ITEM: TIMESTEP
35000000
ITEM: NUMBER OF ATOMS
2823
ITEM: BOX BOUNDS pp pp pp
0.0000000000000000e+00 5.0000000000000000e+01
0.0000000000000000e+00 5.0000000000000000e+01
0.0000000000000000e+00 5.0000000000000000e+01
ITEM: ATOMS id type xs ys zs
195 1 0.47527 0.355563 0.530384
8023 1 0.481073 0.32129 0.558568
8024 2 0.484666 0.327508 0.560485
8591 2 0.498648 0.31023 0.559859
8592 1 0.502183 0.316217 0.55658
4413 1 0.504468 0.318604 0.555276
4412 3 0.508439 0.323593 0.552579
4411 1 0.513563 0.32712 0.548262
194 2 0.478303 0.359757 0.536148
8025 1 0.487597 0.334914 0.563076
9261 1 0.505753 0.352591 0.553118
9260 3 0.514002 0.353964 0.552381
9377 3 0.488544 0.241602 0.591573
9378 1 0.488468 0.236534 0.585211
8773 1 0.515051 0.273037 0.574816
8775 1 0.502527 0.269499 0.584686
19459 1 0.500235 0.268626 0.586492
19460 3 0.494342 0.268045 0.593088
8774 3 0.508322 0.271976 0.579548
16827 1 0.477859 0.277833 0.589375
16664 3 0.48458 0.283959 0.5825
16663 1 0.48034 0.279267 0.58754
16665 1 0.486308 0.289721 0.577284
16826 3 0.471631 0.274809 0.593041
1978 1 0.493339 0.303377 0.566534
1980 1 0.487489 0.291587 0.575228
1979 3 0.49034 0.297383 0.571986
18223 1 0.51078 0.291163 0.590169
13227 1 0.513363 0.291234 0.588252
6286 1 0.480039 0.331678 0.587492
5446 1 0.476868 0.331987 0.588678
8590 1 0.494812 0.305203 0.564658
15167 3 0.510175 0.311307 0.586057
19050 1 0.512017 0.328962 0.573431
7579 1 0.514335 0.328863 0.572347
15166 1 0.503124 0.31162 0.588887
6954 1 0.500465 0.312165 0.590039
6953 3 0.491998 0.312478 0.592648
19049 3 0.504469 0.329195 0.575962
6287 3 0.487889 0.332082 0.582508
6288 1 0.494759 0.330979 0.579454
19048 1 0.497169 0.330087 0.578411
18204 1 0.514408 0.329565 0.592145
15168 1 0.516621 0.311831 0.582231
8986 1 0.466476 0.362415 0.568969
19746 1 0.46443 0.363158 0.567194
5447 3 0.468457 0.333989 0.590906
8987 3 0.471009 0.361878 0.574013
8988 1 0.474797 0.362325 0.580438
19491 1 0.488501 0.337537 0.563794
19490 3 0.48906 0.346788 0.565435
19489 1 0.490778 0.354235 0.565336
2683 1 0.49149 0.356998 0.565635
3909 1 0.510511 0.34984 0.578849
13065 1 0.508207 0.349481 0.580085
13064 3 0.499318 0.349079 0.584543
13063 1 0.492758 0.349948 0.589673
15765 1 0.490245 0.350456 0.591257
2021 3 0.44429 0.269205 0.620791
13276 1 0.454634 0.252217 0.594961
9508 1 0.451013 0.270783 0.611843
2022 1 0.449202 0.270244 0.614169
9509 3 0.456354 0.271075 0.606003
13277 3 0.461661 0.250992 0.596586
3526 1 0.486286 0.259348 0.611114
13278 1 0.469048 0.251754 0.599322
9510 1 0.462006 0.272116 0.600022
16825 1 0.464752 0.272521 0.597821
3527 3 0.486482 0.25387 0.605362
3528 1 0.487225 0.248909 0.599347
9376 1 0.48761 0.246973 0.596888
19461 1 0.487835 0.266856 0.598536
21433 1 0.512476 0.258262 0.618362
21434 3 0.505156 0.257358 0.620968
1734 1 0.514665 0.258518 0.617528
14529 1 0.510577 0.259158 0.600974
14527 1 0.510552 0.244064 0.593861
14528 3 0.510999 0.251585 0.596878
19119 1 0.481106 0.297423 0.612885
19118 3 0.475486 0.298915 0.617594
19117 1 0.469273 0.302707 0.622768
6614 3 0.482519 0.275172 0.620365
19678 1 0.48357 0.297265 0.611152
18224 3 0.504826 0.293167 0.595751
17002 1 0.505396 0.275129 0.608718
17003 3 0.499798 0.276386 0.612479
19679 3 0.489909 0.29608 0.606963
17004 1 0.492908 0.276217 0.615951
19680 1 0.496192 0.294226 0.602664
18225 1 0.498708 0.293775 0.600979
6613 1 0.489846 0.275332 0.617598
1427 3 0.509568 0.2939 0.62089
9928 1 0.507291 0.274857 0.607059
1426 1 0.516355 0.292366 0.616215
9929 3 0.514211 0.274543 0.602019
18898 1 0.451382 0.317921 0.613057
6952 1 0.48449 0.313449 0.59525
18899 3 0.459301 0.317127 0.609683
18900 1 0.466526 0.315547 0.60711
15580 1 0.469432 0.314848 0.606258
15581 3 0.475633 0.314035 0.601683
15582 1 0.481533 0.313857 0.596312
12327 1 0.511844 0.330248 0.593673
1498 1 0.488538 0.31772 0.620876
12176 3 0.512016 0.311387 0.607084
9065 3 0.496985 0.315508 0.61493
12175 1 0.50576 0.313089 0.610156
9066 1 0.50307 0.313815 0.611387
12325 1 0.498294 0.33284 0.599726
2657 3 0.514999 0.331794 0.618902
9064 1 0.490655 0.317215 0.618658
14142 1 0.495518 0.333029 0.601076
12326 3 0.5052 0.331386 0.597214
2658 1 0.50717 0.333673 0.622582
12035 3 0.451453 0.361305 0.613661
17575 1 0.442721 0.339197 0.60262
17576 3 0.449846 0.336425 0.5993
12034 1 0.446408 0.36206 0.61985
17577 1 0.457412 0.336457 0.596016
5448 1 0.460209 0.335896 0.594834
21350 3 0.456954 0.339798 0.623799
20242 1 0.479354 0.334962 0.610924
14140 1 0.482357 0.334608 0.609447
20243 3 0.472761 0.336739 0.614671
15763 1 0.475935 0.351667 0.599341
15764 3 0.4833 0.350786 0.59564
20244 1 0.466101 0.337886 0.618439
21351 1 0.463716 0.338544 0.619731
7527 1 0.473042 0.352054 0.600629
7526 3 0.466754 0.35455 0.603394
170 3 0.486294 0.354496 0.616809
171 1 0.47899 0.354185 0.619955
21576 1 0.476817 0.354653 0.621306
12036 1 0.458055 0.357977 0.609106
7525 1 0.460923 0.357091 0.607521
18240 1 0.504825 0.334591 0.623509
14141 3 0.488901 0.33383 0.604925
5981 3 0.504834 0.351676 0.610478
5982 1 0.511781 0.350189 0.607191
5980 1 0.497146 0.352911 0.613518
169 1 0.494031 0.353673 0.61437
1635 1 0.514159 0.349643 0.606208
9725 3 0.4825 0.242529 0.650403
3585 1 0.505641 0.237844 0.634606
13339 1 0.503191 0.238009 0.63677
13340 3 0.49717 0.238893 0.641439
13341 1 0.490828 0.239431 0.646227
9724 1 0.488782 0.239847 0.647962
3584 3 0.511956 0.238977 0.630047
14698 1 0.514802 0.223255 0.643969
2982 1 0.422545 0.272252 0.640996
19708 1 0.424381 0.272391 0.638911
19710 1 0.43553 0.270542 0.628219
2020 1 0.43759 0.27009 0.626135
3124 1 0.453979 0.269271 0.654236
19709 3 0.430319 0.272505 0.633415
3125 3 0.459834 0.266426 0.650072
3126 1 0.466832 0.263686 0.645982
3690 1 0.46914 0.263405 0.644207
3689 3 0.476296 0.261607 0.640122
3688 1 0.48179 0.259886 0.636592
16186 1 0.484144 0.25894 0.634884
9726 1 0.475297 0.245607 0.652947
18015 1 0.516386 0.257624 0.640871
16187 3 0.489452 0.25693 0.630723
16188 1 0.495804 0.255078 0.626393
21435 1 0.498078 0.255078 0.624709
18014 3 0.509484 0.259255 0.644445
21138 1 0.50038 0.260338 0.650068
18013 1 0.502898 0.260012 0.648616
21137 3 0.494036 0.260742 0.654373
2981 2 0.417863 0.273511 0.646887
2980 1 0.413097 0.27501 0.653022
4292 3 0.437885 0.290381 0.64782
21160 1 0.445535 0.286765 0.643041
4291 1 0.443234 0.287831 0.644169
4293 1 0.434015 0.296078 0.65119
10554 1 0.431697 0.297548 0.652549
21161 3 0.452037 0.285611 0.640555
17940 1 0.466919 0.303381 0.624425
6615 1 0.475291 0.277977 0.6241
8613 1 0.473068 0.278356 0.626187
21162 1 0.458275 0.283535 0.637211
8611 1 0.460933 0.282814 0.635578
8612 3 0.467066 0.279402 0.631082
18828 1 0.477765 0.280954 0.651279
20241 1 0.479942 0.281055 0.64941
15045 1 0.484946 0.298397 0.633998
15044 3 0.47929 0.300761 0.639565
15043 1 0.473235 0.302651 0.643951
1428 1 0.503254 0.295967 0.624463
16120 1 0.487654 0.29824 0.631966
20240 3 0.487414 0.280526 0.644782
16121 3 0.493585 0.297739 0.627576
6310 1 0.509971 0.276933 0.630144
6919 1 0.512061 0.276127 0.628089
20125 1 0.513479 0.293202 0.644361
20239 1 0.495267 0.279066 0.640251
6312 1 0.497971 0.278978 0.639003
6311 3 0.50396 0.277848 0.63499
16122 1 0.50066 0.296335 0.625211
20126 3 0.506924 0.295988 0.648315
20127 1 0.500683 0.29917 0.651732
4089 1 0.497835 0.30003 0.652878
21022 1 0.516196 0.292517 0.643127
10575 1 0.399581 0.32065 0.634664
12858 1 0.416042 0.314342 0.633352
10573 1 0.413694 0.315439 0.633611
10574 2 0.4062 0.318079 0.635211
12857 2 0.423513 0.310768 0.633144
17938 1 0.452189 0.304151 0.630056
20994 1 0.449233 0.304068 0.630832
20993 3 0.441599 0.304961 0.631932
12856 1 0.430872 0.306927 0.633732
20992 1 0.433493 0.306069 0.633434
8711 3 0.449959 0.325675 0.641566
8712 1 0.443286 0.325393 0.645182
4860 1 0.440593 0.325598 0.646649
4859 3 0.433419 0.326431 0.651314
17939 3 0.460106 0.304712 0.627367
1499 3 0.482354 0.320584 0.625769
8710 1 0.458066 0.326046 0.640091
10126 1 0.460715 0.325661 0.639436
7871 3 0.464881 0.305599 0.650123
7870 1 0.471036 0.303802 0.64566
1500 1 0.475638 0.322574 0.630034
10128 1 0.473014 0.323255 0.631372
10127 3 0.467372 0.324872 0.635888
16550 3 0.481118 0.320992 0.649995
16549 1 0.473804 0.322393 0.65326
14295 1 0.470924 0.323443 0.65427
16551 1 0.487521 0.319487 0.644984
12642 1 0.489942 0.318955 0.643546
17756 3 0.512349 0.314 0.631814
12641 3 0.496775 0.317333 0.640584
12640 1 0.503651 0.316404 0.636188
17757 1 0.505949 0.315571 0.634457
6001 1 0.51589 0.316053 0.653403
9946 1 0.416807 0.345443 0.639647
9947 2 0.422313 0.343508 0.634836
17788 1 0.445889 0.360895 0.636663
13078 1 0.447888 0.340414 0.627267
21349 1 0.450478 0.340177 0.626606
13080 1 0.431209 0.341959 0.631336
13079 3 0.438542 0.339863 0.628885
17789 3 0.45306 0.358517 0.633832
9948 1 0.428473 0.342648 0.632195
15754 1 0.454967 0.345939 0.648801
15755 3 0.44765 0.347735 0.651816
15756 1 0.440563 0.349812 0.653733
10650 1 0.437659 0.350033 0.65431
2836 1 0.443005 0.36194 0.637314
2837 3 0.435918 0.364087 0.638459
739 1 0.469907 0.363765 0.650533
276 1 0.472445 0.363276 0.649803
8782 1 0.457728 0.345697 0.647923
21575 3 0.469775 0.356737 0.625333
21574 1 0.462541 0.357258 0.628919
10556 3 0.481256 0.341998 0.636421
10557 1 0.474558 0.343031 0.639769
8784 1 0.471775 0.343484 0.641232
8783 3 0.464374 0.344673 0.64411
17790 1 0.459786 0.357354 0.630209
275 3 0.481114 0.362492 0.64756
1583 3 0.513079 0.354784 0.629533
15130 1 0.517085 0.354437 0.65358
10555 1 0.488545 0.339893 0.632303
10176 1 0.488261 0.341371 0.654076
1584 1 0.506529 0.355501 0.634138
15161 3 0.514762 0.335254 0.643208
15162 1 0.507272 0.336423 0.647844
20448 1 0.504515 0.337162 0.648968
18239 3 0.497483 0.337926 0.62704
18238 1 0.491547 0.339671 0.630809
8644 1 0.50425 0.3561 0.63585
274 1 0.487229 0.360289 0.643647
8646 1 0.489917 0.359637 0.642422
8645 3 0.496974 0.357451 0.639131
20447 3 0.496812 0.337848 0.65025
20446 1 0.490578 0.34052 0.652865
11215 1 0.513023 0.238521 0.65528
10907 3 0.513494 0.222067 0.665953
14863 1 0.510281 0.239237 0.657028
5595 1 0.492144 0.226616 0.682189
15337 1 0.489332 0.226743 0.683888
10906 1 0.506786 0.22339 0.670719
5593 1 0.50474 0.223914 0.672555
5594 3 0.498112 0.225313 0.677363
14864 3 0.503574 0.241102 0.661613
14865 1 0.496764 0.241562 0.664979
15508 1 0.494348 0.241743 0.666084
18036 1 0.425619 0.251265 0.680289
16929 1 0.451664 0.270496 0.656112
18035 3 0.433304 0.252048 0.676811
10922 3 0.449324 0.251442 0.6675
10921 1 0.442624 0.251013 0.671204
18034 1 0.440317 0.251185 0.672805
15285 1 0.45452 0.271074 0.677827
16928 3 0.445699 0.2729 0.659454
3784 1 0.472556 0.246624 0.654663
15510 1 0.479739 0.244522 0.673189
10923 1 0.456445 0.25115 0.664141
3786 1 0.459132 0.250834 0.662136
15622 1 0.456782 0.270257 0.676523
3667 1 0.477453 0.245057 0.674561
3785 3 0.466265 0.248384 0.65871
3668 3 0.471238 0.245464 0.678745
15623 3 0.463642 0.269038 0.672126
15624 1 0.470825 0.267912 0.66882
114 1 0.473493 0.267482 0.667286
113 3 0.479611 0.265973 0.662777
112 1 0.485518 0.263958 0.659123
3669 1 0.465941 0.246946 0.682811
16861 1 0.514579 0.244496 0.678369
2318 3 0.512371 0.260549 0.667318
16816 1 0.516956 0.244214 0.676436
16862 3 0.507382 0.244792 0.682497
15509 3 0.487091 0.243998 0.670331
21136 1 0.487615 0.262756 0.657319
3054 1 0.486855 0.265947 0.682085
3493 1 0.489745 0.26525 0.680808
3494 3 0.497044 0.265083 0.676633
3495 1 0.503954 0.262596 0.673351
2317 1 0.506364 0.261398 0.671967
10553 2 0.425465 0.301603 0.655423
15284 3 0.447309 0.27321 0.679921
16927 1 0.440012 0.274025 0.663374
15283 1 0.44052 0.274919 0.682563
4833 1 0.450066 0.295217 0.669063
18961 1 0.438281 0.275555 0.684041
4832 3 0.456075 0.290997 0.665178
18827 3 0.471359 0.282878 0.655872
4831 1 0.461462 0.287149 0.661373
18826 1 0.464008 0.286056 0.659782
20817 1 0.479203 0.288745 0.675314
20816 3 0.473457 0.290435 0.679499
9358 1 0.481635 0.287542 0.673445
20815 1 0.466183 0.290491 0.682882
13699 1 0.463228 0.290805 0.684087
9359 3 0.488971 0.284834 0.67083
4088 3 0.491255 0.301436 0.657059
17511 1 0.515203 0.27768 0.656509
18129 1 0.516626 0.28003 0.679003
12871 1 0.512831 0.277921 0.657398
12872 3 0.505573 0.279876 0.661393
12873 1 0.499048 0.282581 0.665633
9360 1 0.496097 0.283302 0.667278
12521 3 0.509081 0.301156 0.670516
12091 1 0.514555 0.28092 0.680487
12522 1 0.51497 0.299801 0.66617
12092 3 0.507872 0.282789 0.683705
10552 1 0.42009 0.308222 0.6578
4858 1 0.426827 0.326258 0.655677
4450 1 0.452059 0.313988 0.67847
19729 1 0.449603 0.3151 0.680089
2420 3 0.448219 0.330478 0.667161
2419 1 0.45587 0.328585 0.663558
2421 1 0.44187 0.33209 0.670593
363 1 0.438615 0.332686 0.671385
19730 3 0.44331 0.317578 0.684793
7872 1 0.460767 0.305726 0.655512
4451 3 0.458426 0.311068 0.674097
351 1 0.48276 0.304636 0.66352
4087 1 0.484739 0.303977 0.662141
350 3 0.474886 0.307158 0.667515
14293 1 0.458695 0.327813 0.662292
349 1 0.468218 0.308483 0.670199
4452 1 0.465672 0.308868 0.67112
14294 3 0.465189 0.325153 0.65871
14794 1 0.484145 0.32679 0.672396
20284 1 0.481716 0.327354 0.674241
20285 3 0.47501 0.328669 0.678746
20286 1 0.468518 0.330141 0.682871
8635 1 0.46621 0.331038 0.684107
15418 1 0.513136 0.316963 0.655011
12520 1 0.502171 0.303749 0.674463
14832 1 0.499276 0.304409 0.676203
14831 3 0.493332 0.30545 0.680478
14795 3 0.490757 0.323576 0.667771
14796 1 0.497221 0.321087 0.664249
15419 3 0.505843 0.319024 0.659118
15420 1 0.499734 0.32053 0.662631
2765 3 0.510435 0.321632 0.67993
18124 1 0.420437 0.348552 0.659711
18126 1 0.406489 0.352003 0.668154
18125 2 0.413327 0.348328 0.663804
361 1 0.424588 0.334593 0.672468
10648 1 0.423294 0.34876 0.658315
362 3 0.432009 0.334266 0.672661
10649 3 0.430091 0.350522 0.655791
10340 3 0.447508 0.349816 0.675282
10339 1 0.441637 0.352423 0.678511
6579 1 0.439011 0.353244 0.680132
10341 1 0.455355 0.347965 0.672165
6578 3 0.432164 0.355071 0.682551
5370 1 0.482246 0.363787 0.669059
12262 1 0.457856 0.347372 0.671026
10175 3 0.481146 0.342152 0.657813
12263 3 0.465262 0.345099 0.667767
12264 1 0.47166 0.343671 0.66334
10174 1 0.474518 0.343239 0.661468
14843 3 0.483678 0.347082 0.682196
3024 1 0.484596 0.363126 0.667996
14842 1 0.476355 0.349626 0.684452
10001 3 0.516008 0.336411 0.664483
15131 3 0.509697 0.355832 0.65733
3022 1 0.500221 0.358949 0.661797
14262 1 0.50531 0.338542 0.668556
10000 1 0.508491 0.337609 0.66714
14261 3 0.498971 0.341428 0.673158
15132 1 0.503292 0.358489 0.660355
14260 1 0.492532 0.344581 0.677549
3023 3 0.492374 0.360197 0.665398
14844 1 0.490448 0.345411 0.678981
8039 3 0.51503 0.358015 0.680342
8040 1 0.508165 0.361242 0.683656
9859 1 0.505441 0.362388 0.684464
15338 3 0.482452 0.227393 0.687647
15339 1 0.475779 0.22785 0.692189
20969 3 0.462996 0.233313 0.704249
20970 1 0.464775 0.233518 0.696617
20968 1 0.460991 0.232349 0.712488
51 1 0.459884 0.232003 0.71511
9202 1 0.48141 0.219224 0.712142
20053 1 0.479227 0.218385 0.713373
9203 3 0.48683 0.222476 0.706788
1948 1 0.495785 0.225591 0.701663
9204 1 0.493056 0.225113 0.702895
1949 3 0.502615 0.226432 0.697607
1950 1 0.509612 0.22607 0.694642
4978 1 0.512318 0.225927 0.692804
12393 1 0.447137 0.254214 0.6959
12392 3 0.441132 0.257638 0.698716
12391 1 0.434831 0.259821 0.70215
5196 1 0.44966 0.252859 0.694178
5195 3 0.456377 0.249604 0.690084
3053 3 0.480528 0.267175 0.685792
5194 1 0.463655 0.24741 0.684963
20924 3 0.471667 0.25181 0.701591
20925 1 0.478806 0.249267 0.69792
5672 3 0.45677 0.255576 0.714041
20923 1 0.465858 0.254011 0.707084
5671 1 0.463756 0.254296 0.708877
3052 1 0.473953 0.26894 0.689869
15228 1 0.470876 0.269582 0.69138
15227 3 0.463869 0.271665 0.694309
14603 3 0.482639 0.271168 0.708089
14602 1 0.47725 0.272251 0.714699
16459 1 0.48162 0.248661 0.696668
2702 3 0.515442 0.261628 0.690432
16863 1 0.499191 0.244558 0.687618
18371 3 0.512849 0.246907 0.705343
18370 1 0.50725 0.247063 0.710739
16461 1 0.496572 0.244793 0.68917
18330 1 0.504373 0.247107 0.71272
18329 3 0.496851 0.248085 0.715203
14604 1 0.489024 0.26947 0.70345
16408 1 0.491592 0.26849 0.702106
16409 3 0.498991 0.266339 0.699621
16460 3 0.488659 0.246663 0.693792
16410 1 0.50589 0.263927 0.696221
2703 1 0.50903 0.262655 0.694195
18963 1 0.423089 0.279976 0.691098
18962 3 0.43045 0.278066 0.687985
19287 1 0.440734 0.280674 0.707383
19286 3 0.447767 0.278378 0.704101
8571 1 0.429767 0.30232 0.697887
10197 1 0.432157 0.300843 0.696603
10196 3 0.439347 0.298275 0.693513
10195 1 0.445531 0.295607 0.690949
13701 1 0.448511 0.294914 0.689894
13700 3 0.455452 0.293109 0.688905
19285 1 0.454648 0.275963 0.700396
15226 1 0.457069 0.275466 0.69892
10043 3 0.47439 0.290312 0.703503
10042 1 0.468651 0.293338 0.708395
7948 1 0.466265 0.294123 0.70972
10044 1 0.481014 0.288492 0.698422
21495 1 0.48337 0.288582 0.696869
7949 3 0.459193 0.295052 0.712986
3217 1 0.516206 0.302277 0.714304
1351 1 0.516132 0.284083 0.702632
21494 3 0.490444 0.287382 0.692256
12093 1 0.501018 0.283905 0.68769
21493 1 0.498459 0.284839 0.688918
10291 1 0.513033 0.284217 0.703454
10292 3 0.506376 0.28527 0.70758
10293 1 0.500813 0.286961 0.712482
15766 1 0.49877 0.287519 0.713899
8570 2 0.422859 0.305934 0.701158
844 1 0.420318 0.328903 0.700901
6813 1 0.422153 0.327487 0.698586
8569 1 0.416611 0.309031 0.705149
845 2 0.414485 0.331183 0.706868
6812 3 0.426011 0.324943 0.692201
6811 1 0.427029 0.322436 0.685328
19731 1 0.437734 0.319257 0.688946
10325 3 0.44791 0.316429 0.71026
10324 1 0.45322 0.315528 0.704781
18493 1 0.45504 0.315111 0.703039
8637 1 0.452127 0.33375 0.689534
10947 1 0.454406 0.333754 0.711017
10326 1 0.441715 0.316135 0.71501
8636 3 0.459813 0.33192 0.687079
14830 1 0.486244 0.308144 0.685476
1121 3 0.477779 0.309449 0.689446
1120 1 0.469981 0.311156 0.692914
18495 1 0.467766 0.311781 0.693912
18494 3 0.460577 0.313183 0.697754
20324 3 0.479054 0.329998 0.700083
20325 1 0.471925 0.331888 0.703118
18263 3 0.479875 0.313092 0.711367
10945 1 0.469228 0.332734 0.704782
1122 1 0.484347 0.308348 0.686738
20323 1 0.485969 0.328315 0.697104
10946 3 0.46247 0.33273 0.70902
18693 1 0.501367 0.324882 0.687482
2764 1 0.504024 0.324125 0.685569
13742 3 0.511336 0.304094 0.693562
13741 1 0.50471 0.304498 0.697552
4798 1 0.502548 0.304949 0.698804
18691 1 0.488543 0.327748 0.695695
4799 3 0.495855 0.307755 0.702685
12689 3 0.511217 0.321742 0.703207
18692 3 0.495397 0.326674 0.691528
18262 1 0.487043 0.312286 0.708374
4800 1 0.489687 0.311473 0.706721
12690 1 0.504578 0.323539 0.707073
10468 1 0.502269 0.324108 0.708522
10469 3 0.496644 0.326655 0.712915
18089 2 0.417539 0.358934 0.694798
18090 1 0.423236 0.357959 0.68972
6577 1 0.425245 0.357223 0.687843
18088 1 0.412853 0.358451 0.700075
846 1 0.408074 0.334449 0.710995
3332 3 0.443939 0.339318 0.692553
3331 1 0.449658 0.334819 0.690714
3333 1 0.437942 0.344058 0.69533
13692 1 0.445405 0.363144 0.700845
13691 3 0.451228 0.360534 0.697796
8998 1 0.45108 0.334067 0.711908
8999 2 0.444131 0.336252 0.714446
13690 1 0.458563 0.357714 0.693455
1161 1 0.461035 0.355817 0.69184
1159 1 0.473367 0.350272 0.685931
1160 3 0.467049 0.351825 0.689899
12455 3 0.478587 0.34855 0.712505
12456 1 0.485756 0.349186 0.709138
1509 1 0.516787 0.339339 0.689068
1508 3 0.51045 0.34051 0.694326
4899 1 0.510684 0.361786 0.708161
853 1 0.502051 0.344231 0.700124
854 3 0.494956 0.346285 0.703536
855 1 0.488291 0.348986 0.707395
1507 1 0.504535 0.343567 0.698599
10242 1 0.508139 0.362737 0.710038
16067 3 0.515021 0.343296 0.715245
4898 3 0.515913 0.359614 0.702587
6115 1 0.506581 0.206732 0.729948
6116 3 0.513122 0.203867 0.726889
18407 3 0.448461 0.225394 0.740225
18408 1 0.451354 0.227649 0.732524
49 1 0.452977 0.227956 0.730337
50 3 0.457396 0.230492 0.72289
20054 3 0.471857 0.217156 0.716944
20055 1 0.464225 0.216421 0.720021
594 1 0.489517 0.22511 0.743746
14633 3 0.512569 0.225894 0.727315
14634 1 0.506553 0.224617 0.732254
593 2 0.496379 0.22453 0.739049
592 1 0.503954 0.224292 0.733597
6265 1 0.448037 0.258473 0.720851
5673 1 0.450702 0.257685 0.71925
6266 3 0.441093 0.260743 0.725261
6267 1 0.434366 0.260467 0.728982
15481 1 0.463857 0.26002 0.739598
19801 1 0.461747 0.260752 0.742156
20023 1 0.484224 0.253334 0.742358
5997 1 0.475193 0.272769 0.716917
17471 3 0.479467 0.251648 0.721941
17472 1 0.473662 0.254876 0.725846
15482 3 0.467296 0.258788 0.733993
15483 1 0.471501 0.256189 0.728314
13106 3 0.486198 0.27081 0.733928
19539 1 0.511362 0.269477 0.744061
18328 1 0.489714 0.250127 0.718059
16025 3 0.516729 0.26288 0.715701
17470 1 0.48692 0.250492 0.718929
20024 3 0.491211 0.251759 0.740219
16919 3 0.511052 0.249965 0.735166
16918 1 0.502146 0.248836 0.738184
20025 1 0.498947 0.249118 0.739099
16026 1 0.510094 0.264858 0.719298
7119 1 0.508001 0.26531 0.720569
7118 3 0.500981 0.26636 0.723889
7117 1 0.493579 0.267899 0.726892
13107 1 0.491419 0.268467 0.728389
343 1 0.5082 0.269787 0.744837
7950 1 0.452118 0.296503 0.716424
17880 1 0.447102 0.283849 0.736976
17879 2 0.453362 0.27993 0.732259
2696 3 0.471401 0.278327 0.744191
5996 3 0.469105 0.274526 0.721608
13105 1 0.480191 0.273918 0.739071
17878 1 0.459787 0.277302 0.727925
5995 1 0.462414 0.276508 0.726266
2695 1 0.4782 0.275024 0.740687
927 1 0.472473 0.299552 0.734339
926 3 0.477429 0.29545 0.728542
925 1 0.482363 0.293471 0.723958
15768 1 0.484346 0.292253 0.721807
13255 1 0.513791 0.303118 0.715434
10593 1 0.511584 0.286759 0.728661
15767 3 0.491217 0.289544 0.717729
18923 3 0.503162 0.290345 0.734792
18922 1 0.509555 0.287775 0.72998
18924 1 0.498519 0.290867 0.740412
14550 1 0.496061 0.290875 0.742695
10795 1 0.417653 0.311522 0.741493
10796 3 0.424342 0.311048 0.736906
667 1 0.449751 0.311622 0.744297
10797 1 0.428368 0.312034 0.730087
21027 1 0.42956 0.312887 0.727316
21025 1 0.439721 0.315967 0.71675
21026 2 0.434282 0.31494 0.721905
668 3 0.453571 0.313053 0.737095
633 1 0.483935 0.328496 0.745411
21479 3 0.477291 0.312687 0.740606
18264 1 0.472822 0.313382 0.715297
12957 1 0.470921 0.31367 0.716876
669 1 0.457744 0.314416 0.730815
12955 1 0.459564 0.314284 0.728703
21480 1 0.483425 0.312587 0.736107
12956 3 0.46508 0.313214 0.722738
10875 1 0.472498 0.331912 0.730588
3025 1 0.475016 0.331717 0.728899
3026 3 0.481417 0.330219 0.72428
16197 1 0.485943 0.312144 0.734424
21478 1 0.470464 0.314143 0.745674
8487 1 0.516293 0.307476 0.739635
632 3 0.491742 0.327101 0.742024
6094 1 0.51416 0.307935 0.742345
12490 1 0.516712 0.324588 0.726284
13256 3 0.506818 0.305342 0.71936
13257 1 0.499451 0.307158 0.724127
16195 1 0.497496 0.307927 0.725432
3027 1 0.488034 0.329429 0.719828
631 1 0.499034 0.327645 0.738016
14286 1 0.50116 0.327175 0.736323
16196 3 0.492748 0.31118 0.729841
14285 3 0.507412 0.325811 0.732156
10470 1 0.490493 0.328857 0.717751
14284 1 0.514194 0.324902 0.7276
5403 1 0.422613 0.338125 0.729302
3422 2 0.448387 0.340971 0.741772
15661 1 0.442269 0.362655 0.734132
16533 1 0.438148 0.344674 0.743595
3421 1 0.440854 0.343277 0.743224
10996 1 0.455185 0.354137 0.725451
15662 2 0.447061 0.358862 0.731013
9000 1 0.43749 0.33732 0.717879
5401 1 0.434481 0.337694 0.71933
5402 2 0.427942 0.338753 0.723606
3423 1 0.4557 0.338461 0.738697
15663 1 0.45289 0.355256 0.727201
16532 2 0.430951 0.347217 0.745052
10998 1 0.468713 0.34981 0.717863
11878 1 0.476609 0.349142 0.73862
12454 1 0.471153 0.349262 0.716432
11879 3 0.483847 0.348674 0.734935
14862 1 0.473968 0.349975 0.740508
10874 3 0.464711 0.334515 0.734947
10873 1 0.458056 0.337616 0.737756
10997 3 0.462246 0.352582 0.721809
9688 1 0.493051 0.347937 0.728491
14072 3 0.512118 0.344055 0.745144
16066 1 0.508357 0.343026 0.719494
9690 1 0.505976 0.343479 0.721392
9689 3 0.499951 0.344699 0.725203
11880 1 0.490604 0.34814 0.729752
612 1 0.510823 0.363814 0.729581
19744 1 0.451143 0.366764 0.557735
2083 1 0.47936 0.374589 0.556916
7735 1 0.479829 0.37616 0.558799
2084 2 0.47982 0.369796 0.551421
19745 2 0.457878 0.365271 0.562713
2085 1 0.479868 0.365802 0.545125
193 1 0.479773 0.364281 0.542454
9363 1 0.51607 0.38296 0.553046
9361 1 0.505721 0.378791 0.542519
9362 3 0.510796 0.381388 0.546815
7736 3 0.480034 0.380791 0.564258
1879 1 0.479533 0.387599 0.573117
7737 1 0.479532 0.385519 0.570393
1880 3 0.478772 0.392347 0.579476
1769 2 0.514424 0.368146 0.593493
20280 1 0.505346 0.385182 0.578163
20279 3 0.500262 0.380896 0.573043
20278 1 0.497164 0.374143 0.570094
2685 1 0.496078 0.371612 0.569001
14610 1 0.511106 0.371815 0.569764
2684 3 0.493646 0.364254 0.566782
21448 1 0.477537 0.397531 0.589051
1881 1 0.47817 0.396401 0.586236
9523 1 0.456148 0.379567 0.620315
4077 1 0.458593 0.378482 0.618967
4075 1 0.471973 0.373738 0.613307
9495 1 0.474801 0.373466 0.61185
9494 3 0.481379 0.373143 0.607599
4076 3 0.465561 0.375228 0.61634
5137 1 0.485815 0.394334 0.618114
5138 3 0.477367 0.39553 0.620264
3424 1 0.488691 0.393982 0.617514
1768 1 0.506854 0.369322 0.594821
9493 1 0.487778 0.372796 0.602214
15916 1 0.490104 0.372656 0.600444
15917 3 0.496123 0.371238 0.596718
15918 1 0.503851 0.370359 0.595286
11827 1 0.511432 0.371119 0.617777
13252 1 0.506689 0.390092 0.611404
3426 1 0.504196 0.390666 0.612887
3425 3 0.496255 0.393086 0.615301
13253 3 0.512947 0.388318 0.608065
1549 1 0.50923 0.371709 0.619348
1550 3 0.503138 0.372602 0.623702
21449 3 0.47661 0.401027 0.596311
21450 1 0.473788 0.404604 0.604211
21542 3 0.474238 0.418236 0.616656
21541 1 0.474688 0.419111 0.623733
21543 1 0.473122 0.419047 0.60848
11343 1 0.513549 0.401285 0.617378
9524 3 0.44897 0.382351 0.624337
9525 1 0.442841 0.384668 0.627853
2838 1 0.429039 0.366218 0.641869
7469 3 0.468245 0.376395 0.63533
16621 1 0.477797 0.373795 0.632367
7470 1 0.47498 0.374267 0.633188
16622 3 0.485117 0.37378 0.630588
7468 1 0.46031 0.377699 0.637539
2166 1 0.477098 0.395201 0.644397
2165 3 0.484035 0.392384 0.64157
17141 3 0.466008 0.395571 0.648609
740 3 0.462644 0.366435 0.653267
13626 1 0.507069 0.375313 0.64693
16623 1 0.493161 0.372508 0.629355
1551 1 0.495797 0.37265 0.628313
1708 1 0.512146 0.389062 0.633338
13625 3 0.500153 0.375208 0.649389
18031 1 0.509522 0.389167 0.634282
20086 1 0.509343 0.37496 0.645701
18032 3 0.501964 0.39014 0.636319
18033 1 0.494675 0.389641 0.637894
2164 1 0.491469 0.389709 0.638694
13624 1 0.49309 0.375791 0.653647
6198 1 0.50949 0.393963 0.654379
6197 3 0.516821 0.39167 0.652094
20087 3 0.516306 0.372976 0.642354
8722 1 0.438573 0.404364 0.640702
8723 3 0.445387 0.405531 0.63862
8724 1 0.452263 0.405142 0.634312
11625 1 0.454974 0.40474 0.632692
14814 1 0.456135 0.39757 0.654205
5139 1 0.471124 0.397861 0.624876
15426 1 0.474994 0.41958 0.626376
11623 1 0.468743 0.399297 0.626477
11624 2 0.461898 0.402311 0.629675
17140 1 0.474026 0.395867 0.64545
12011 3 0.483575 0.417639 0.652377
15425 2 0.476057 0.419443 0.634453
12012 1 0.481502 0.418945 0.644425
15424 1 0.48032 0.419369 0.642021
17142 1 0.458673 0.397695 0.65249
11342 3 0.510412 0.405355 0.624365
8194 1 0.505615 0.409812 0.634257
8195 3 0.50391 0.414385 0.642109
11341 1 0.507039 0.408131 0.631897
8196 1 0.504709 0.416271 0.649353
6370 1 0.42537 0.384561 0.666428
6371 3 0.433185 0.387388 0.664289
14812 1 0.443205 0.392905 0.660549
6372 1 0.440487 0.391529 0.661927
14813 3 0.449435 0.394354 0.658224
7998 1 0.447074 0.374367 0.681896
13591 1 0.438427 0.370103 0.665741
18358 1 0.450323 0.373095 0.680778
7997 3 0.440477 0.376255 0.684767
741 1 0.454585 0.366353 0.656202
13592 3 0.444774 0.367442 0.661406
13593 1 0.451865 0.366542 0.657734
19034 3 0.47074 0.387496 0.668964
19035 1 0.476683 0.383786 0.666354
19033 1 0.465 0.39229 0.672274
6 1 0.478763 0.382432 0.664696
5 3 0.484853 0.378992 0.658994
18359 3 0.457941 0.371683 0.677513
18360 1 0.464943 0.370077 0.674284
5368 1 0.467598 0.368927 0.673722
5369 3 0.474952 0.365883 0.67256
4 1 0.490243 0.376411 0.655185
20621 3 0.490382 0.391174 0.6802
14352 1 0.510556 0.377239 0.670394
14350 1 0.498867 0.385056 0.676393
14351 3 0.504865 0.381466 0.672934
20620 1 0.496212 0.386206 0.677641
15145 1 0.513302 0.37607 0.6695
2442 1 0.50702 0.394855 0.655522
12010 1 0.48646 0.416206 0.660684
20622 1 0.484339 0.395697 0.683559
19328 3 0.474789 0.409131 0.669828
19329 1 0.47289 0.40779 0.676831
9562 1 0.47265 0.407601 0.679909
19327 1 0.479149 0.412148 0.663853
18429 1 0.513162 0.404371 0.673238
2441 3 0.500271 0.397361 0.660011
2440 1 0.492729 0.398937 0.663896
6190 1 0.510662 0.406543 0.674047
6191 2 0.505018 0.411345 0.676717
6192 1 0.498054 0.414983 0.677054
18285 1 0.515107 0.430382 0.671991
19907 3 0.420626 0.376983 0.707046
19908 1 0.41223 0.379558 0.70784
7996 1 0.431913 0.37904 0.688903
3929 2 0.436311 0.368393 0.705504
3928 1 0.442727 0.364496 0.702278
19906 1 0.426914 0.373365 0.7066
3930 1 0.429243 0.372061 0.706305
4641 1 0.459668 0.377487 0.712907
19517 3 0.482328 0.371292 0.692635
64 1 0.461808 0.376829 0.711151
65 3 0.468843 0.375024 0.706672
3781 1 0.483358 0.386824 0.714206
66 1 0.474475 0.373718 0.700808
19518 1 0.476718 0.372932 0.698309
19827 1 0.48586 0.385795 0.713037
11782 1 0.513741 0.377826 0.694105
11783 3 0.506027 0.379584 0.698418
11784 1 0.499726 0.381644 0.702604
19826 3 0.492091 0.383722 0.708472
19825 1 0.497255 0.38261 0.704567
18021 1 0.516786 0.377437 0.692628
19516 1 0.488594 0.367461 0.689176
9860 3 0.498712 0.36521 0.686214
9861 1 0.491778 0.366615 0.688173
10241 3 0.500517 0.365229 0.714041
9563 3 0.47232 0.408366 0.688112
2194 1 0.465123 0.405468 0.713506
9564 1 0.471374 0.408046 0.696424
2195 3 0.468024 0.407912 0.70589
2196 1 0.47002 0.40798 0.699393
21489 1 0.514532 0.401317 0.704366
8847 1 0.516741 0.400569 0.703569
21488 3 0.507832 0.403558 0.706549
21487 1 0.50131 0.406316 0.709579
16630 1 0.498444 0.407455 0.71081
16631 3 0.490802 0.41062 0.714049
5371 1 0.439459 0.36464 0.735186
4640 2 0.452443 0.377499 0.718156
5373 1 0.427456 0.374761 0.740856
5372 2 0.433464 0.369542 0.737611
4639 1 0.448119 0.378624 0.725175
12311 2 0.452698 0.381626 0.74148
12310 1 0.446455 0.387203 0.745079
12312 1 0.458988 0.377395 0.739254
9300 1 0.461713 0.375814 0.737965
4719 1 0.477579 0.369197 0.728889
9298 1 0.475367 0.370428 0.730527
9299 2 0.468544 0.372603 0.733918
4718 3 0.483782 0.365885 0.723743
3782 2 0.47733 0.389261 0.718422
3783 1 0.470113 0.389017 0.722491
5407 1 0.48825 0.395279 0.73723