ITEM: TIMESTEP
40000000
ITEM: NUMBER OF ENTRIES
4016
ITEM: BOX BOUNDS pp pp pp
0 50
0 50
0 50
ITEM: ENTRIES c_binfo[1] c_binfo[2] c_binfo[3] 
3 895 896 
3 1133 1134 
3 2725 2726 
1 2725 3300 
3 19886 19887 
1 5457 20601 
3 5456 5457 
3 2726 2727 
3 3299 3300 
3 20599 20600 
3 20600 20601 
2 6163 6164 
2 1285 1286 
1 1285 6564 
3 6562 6563 
3 6563 6564 
3 896 897 
1 897 6487 
3 6487 6488 
3 6488 6489 
3 1132 1133 
1 1132 3691 
3 3691 3692 
3 3692 3693 
2 11324 11325 
2 11323 11324 
1 11323 15937 
3 12425 12426 
3 12424 12425 
3 19343 19344 
3 19885 19886 
1 19885 21238 
1 3693 17994 
3 21238 21239 
3 21239 21240 
2 3043 3044 
1 3043 21240 
2 3044 3045 
3 19342 19343 
2 13969 13970 
1 13969 19342 
3 3298 3299 
1 3298 19344 
3 5455 5456 
1 5455 17664 
2 17663 17664 
2 17662 17663 
1 2829 17662 
2 20941 20942 
2 15983 15984 
3 11036 11037 
2 6164 6165 
2 21271 21272 
2 21272 21273 
1 6165 20017 
2 20017 20018 
1 9666 21273 
1 4638 20019 
2 20018 20019 
1 1287 19255 
2 12686 12687 
2 19255 19256 
2 1286 1287 
2 12685 12686 
1 12685 17596 
1 1440 6489 
2 1439 1440 
2 1438 1439 
1 1438 5022 
2 9569 9570 
2 9568 9569 
1 9568 15939 
2 2921 2922 
2 19256 19257 
1 9570 17439 
2 18440 18441 
2 2920 2921 
1 2920 18439 
2 18439 18440 
1 8304 18441 
2 15938 15939 
1 12834 19257 
2 16960 16961 
2 16961 16962 
2 2302 2303 
2 2303 2304 
2 19526 19527 
1 16962 19525 
2 19525 19526 
1 12426 16255 
2 16255 16256 
1 16257 20878 
2 20878 20879 
2 20879 20880 
2 16256 16257 
2 14918 14919 
2 14917 14918 
1 8319 14917 
2 17993 17994 
2 17992 17993 
1 1902 17992 
2 1901 1902 
1 3045 12678 
2 1900 1901 
1 1900 10191 
2 13970 13971 
2 2983 2984 
1 2983 13971 
2 5171 5172 
2 5170 5171 
2 8318 8319 
2 12677 12678 
2 12676 12677 
1 12676 19743 
2 17650 17651 
2 19742 19743 
2 2828 2829 
2 2984 2985 
2 2827 2828 
1 2827 15142 
2 15142 15143 
2 15143 15144 
1 15144 16560 
1 2985 20065 
2 17651 17652 
1 16737 17652 
2 9785 9786 
2 9784 9785 
1 9784 18793 
2 18793 18794 
2 15982 15983 
2 9919 9920 
1 9919 19900 
2 9920 9921 
1 138 15982 
3 11035 11036 
1 9921 11035 
2 20534 20535 
2 577 578 
1 577 20535 
2 20533 20534 
2 19900 19901 
2 136 137 
1 136 6051 
2 137 138 
2 6050 6051 
2 19901 19902 
2 4637 4638 
2 17596 17597 
2 10831 10832 
1 10831 20533 
2 16313 16314 
2 21074 21075 
2 21073 21074 
1 17598 21073 
2 17597 17598 
2 10832 10833 
2 16312 16313 
1 13914 16312 
2 13913 13914 
2 8926 8927 
2 9916 9917 
1 9916 18459 
2 9917 9918 
3 19621 19622 
2 9665 9666 
2 9664 9665 
1 9664 9918 
2 4636 4637 
2 1054 1055 
1 1054 4636 
2 1055 1056 
1 1056 16126 
2 16126 16127 
2 5021 5022 
2 5020 5021 
1 2160 5020 
2 8302 8303 
2 12833 12834 
2 12832 12833 
1 12832 19713 
2 19712 19713 
2 8303 8304 
2 3838 3839 
1 3838 8302 
2 17438 17439 
2 8927 8928 
1 7386 8928 
2 7385 7386 
1 4071 19527 
2 7384 7385 
1 7384 8779 
2 1936 1937 
1 1936 20880 
2 2159 2160 
2 1937 1938 
1 1938 15678 
1 3840 14013 
2 2158 2159 
1 2158 9106 
2 3839 3840 
2 9106 9107 
2 20105 20106 
2 20104 20105 
2 17437 17438 
2 11650 11651 
1 11650 17437 
2 11651 11652 
2 10190 10191 
2 10189 10190 
1 10185 10189 
2 10184 10185 
2 10183 10184 
1 17043 20104 
2 4070 4071 
2 4069 4070 
2 9236 9237 
2 2752 2753 
1 2752 4069 
1 5172 7768 
2 7768 7769 
2 7769 7770 
2 1198 1199 
1 1198 7770 
2 2753 2754 
2 1199 1200 
2 8317 8318 
1 6651 8317 
2 6650 6651 
2 6649 6650 
1 6649 14764 
2 14764 14765 
1 18261 18861 
2 14765 14766 
2 18860 18861 
2 18859 18860 
1 18859 19741 
2 19741 19742 
2 20065 20066 
2 20066 20067 
2 6271 6272 
1 6271 20067 
2 6272 6273 
1 2127 10183 
2 16735 16736 
3 13760 13761 
2 16736 16737 
3 1450 1451 
1 1450 18795 
2 16559 16560 
2 16558 16559 
2 18794 18795 
2 2122 2123 
1 2122 15840 
1 8577 16558 
2 8576 8577 
1 2124 11508 
2 2123 2124 
2 8575 8576 
1 8575 13575 
1 3768 7477 
2 3766 3767 
2 3767 3768 
2 6049 6050 
1 6049 7852 
3 7852 7853 
2 17440 17441 
1 17440 19902 
2 17441 17442 
2 5896 5897 
1 5896 17442 
2 5897 5898 
1 14646 21075 
3 12077 12078 
1 7281 8305 
2 8305 8306 
1 2187 16314 
2 16376 16377 
1 10833 16375 
2 16375 16376 
3 12076 12077 
1 12076 16377 
3 19622 19623 
2 18458 18459 
2 18457 18458 
1 18457 21105 
2 2141 2142 
2 2140 2141 
1 2140 7854 
1 450 2142 
2 14645 14646 
3 7853 7854 
2 16127 16128 
2 19241 19242 
2 14644 14645 
1 14644 19242 
1 16128 21583 
2 21583 21584 
2 8765 8766 
2 19240 19241 
1 1959 3804 
2 1958 1959 
2 19711 19712 
2 6778 6779 
1 6778 19711 
2 2186 2187 
2 2185 2186 
1 2185 13713 
2 1957 1958 
1 1957 19122 
2 13712 13713 
2 6779 6780 
1 6780 8764 
2 8764 8765 
2 19121 19122 
1 13836 19623 
2 13835 13836 
3 359 360 
3 358 359 
1 358 13834 
2 13834 13835 
2 21104 21105 
2 8779 8780 
2 21103 21104 
2 8780 8781 
2 14915 14916 
1 4575 8781 
1 108 21103 
2 107 108 
2 21584 21585 
2 14914 14915 
1 9108 14914 
2 9107 9108 
2 14011 14012 
1 14011 16140 
2 14012 14013 
2 16139 16140 
2 16138 16139 
1 13119 21585 
2 5674 5675 
1 5674 16138 
2 4915 4916 
2 17042 17043 
1 11652 13744 
2 13744 13745 
2 13745 13746 
1 13746 17317 
2 17317 17318 
2 17318 17319 
2 502 503 
1 502 4915 
2 4573 4574 
2 16868 16869 
2 16867 16868 
2 1162 1163 
1 1162 4573 
2 4574 4575 
2 9235 9236 
1 9235 16869 
1 285 2754 
2 284 285 
2 283 284 
1 283 3673 
2 3673 3674 
2 6676 6677 
1 6676 14916 
2 3674 3675 
2 15677 15678 
2 15676 15677 
1 15676 19363 
2 19363 19364 
2 18260 18261 
2 19364 19365 
1 14043 19365 
2 18259 18260 
1 11019 18259 
2 19217 19218 
2 19216 19217 
2 16280 16281 
2 2125 2126 
1 2125 19218 
2 17041 17042 
1 1743 17041 
2 2126 2127 
2 1742 1743 
2 1741 1742 
1 1741 5772 
1 6177 6273 
2 6176 6177 
2 6175 6176 
1 6175 16878 
2 16279 16280 
1 2484 16867 
2 2483 2484 
2 21581 21582 
2 10916 10917 
1 10917 16791 
1 1200 16789 
2 16789 16790 
2 16790 16791 
2 19484 19485 
1 6981 19485 
2 6980 6981 
1 7311 12150 
2 11018 11019 
3 13759 13760 
2 6979 6980 
1 6979 14766 
2 12148 12149 
1 12148 13759 
2 12149 12150 
2 11017 11018 
1 11017 11251 
2 3680 3681 
2 11251 11252 
2 11507 11508 
2 16877 16878 
1 3681 13573 
2 13573 13574 
2 11506 11507 
1 12 11506 
2 13574 13575 
2 11 12 
2 10 11 
1 10 13705 
2 4487 4488 
1 5808 5898 
2 4486 4487 
1 4486 12078 
2 7280 7281 
2 7279 7280 
1 5871 7279 
2 5870 5871 
2 7517 7518 
2 7058 7059 
1 3549 18561 
2 5807 5808 
2 5806 5807 
1 5806 7059 
2 3547 3548 
2 448 449 
1 448 3547 
2 449 450 
2 3548 3549 
2 21149 21150 
2 12935 12936 
1 4488 12934 
2 12934 12935 
2 7816 7817 
1 7816 19240 
2 7817 7818 
2 2449 2450 
1 2449 7818 
2 2450 2451 
2 21148 21149 
2 14836 14837 
1 14836 21148 
2 21593 21594 
2 5869 5870 
1 5869 21594 
2 20309 20310 
2 13711 13712 
1 13711 14838 
1 15054 20310 
2 14837 14838 
2 20308 20309 
2 11212 11213 
1 11212 20308 
1 12882 17521 
2 17521 17522 
1 2451 11722 
2 11722 11723 
2 10543 10544 
2 17522 17523 
2 106 107 
1 106 17523 
1 5850 10543 
2 5849 5850 
2 5848 5849 
1 5848 13117 
2 13117 13118 
2 10544 10545 
1 8766 16992 
2 4837 4838 
1 4837 16990 
2 16990 16991 
2 13118 13119 
2 16991 16992 
2 4838 4839 
2 323 324 
2 3935 3936 
2 19120 19121 
1 17073 19120 
2 190 191 
1 190 17319 
2 503 504 
1 504 12532 
2 17072 17073 
2 322 323 
1 322 17071 
2 17071 17072 
2 12532 12533 
3 20333 20334 
3 5791 5792 
3 9767 9768 
3 15926 15927 
1 9768 10653 
2 1163 1164 
3 10652 10653 
3 10651 10652 
1 1164 10651 
3 15925 15926 
2 6677 6678 
2 7267 7268 
1 7267 15925 
1 3675 5881 
2 5881 5882 
2 7268 7269 
1 6678 7269 
2 14204 14205 
2 14203 14204 
1 10935 14203 
2 19699 19700 
2 5675 5676 
2 6365 6366 
2 15790 15791 
2 14042 14043 
2 14041 14042 
1 14041 14205 
2 4132 4133 
1 4132 19216 
2 19700 19701 
2 15791 15792 
1 4134 19701 
1 5676 15792 
2 4133 4134 
2 6364 6365 
2 191 192 
2 12533 12534 
2 5771 5772 
1 192 6364 
2 5893 5894 
2 5894 5895 
2 5770 5771 
1 5770 5893 
1 4074 5895 
1 7245 7941 
3 5419 5420 
3 5420 5421 
1 5421 5793 
3 5792 5793 
3 11855 11856 
2 2482 2483 
1 2482 11854 
3 11854 11855 
3 20375 20376 
1 11856 20376 
3 892 893 
1 892 5883 
2 5882 5883 
1 6459 10915 
2 10915 10916 
2 19483 19484 
1 10806 19483 
2 10804 10805 
1 10804 18759 
3 18758 18759 
2 10805 10806 
2 5054 5055 
2 1168 1169 
1 1168 5055 
2 3679 3680 
1 3679 5053 
2 18293 18294 
1 11253 18294 
2 18292 18293 
2 11252 11253 
2 5053 5054 
2 8573 8574 
2 21386 21387 
2 11926 11927 
1 11926 16876 
2 8572 8573 
2 5774 5775 
2 16876 16877 
1 11928 14784 
2 13706 13707 
2 5773 5774 
1 5773 8572 
2 13705 13706 
1 13707 21387 
2 11927 11928 
1 8574 16279 
2 3076 3077 
2 3077 3078 
1 8562 16893 
3 8561 8562 
2 16892 16893 
3 422 423 
2 13973 13974 
2 17933 17934 
2 17932 17933 
2 7984 7985 
1 7984 17932 
2 7985 7986 
2 7334 7335 
1 7335 17244 
2 7057 7058 
1 7057 17934 
2 17243 17244 
2 17242 17243 
1 3999 14320 
2 14320 14321 
2 3998 3999 
1 12936 17242 
2 14321 14322 
1 14322 21592 
2 21592 21593 
2 2219 2220 
1 2220 3078 
2 15053 15054 
3 14689 14690 
3 14690 14691 
1 2676 14689 
2 115 116 
1 115 15052 
2 15052 15053 
1 423 14691 
2 9629 9630 
2 9628 9629 
3 5074 5075 
2 12880 12881 
1 12880 14001 
2 7516 7517 
2 12881 12882 
2 18560 18561 
2 12670 12671 
2 18559 18560 
1 12672 18559 
2 19030 19031 
2 12671 12672 
2 19031 19032 
2 6541 6542 
1 6541 19030 
1 11724 19032 
2 11723 11724 
2 7333 7334 
1 7333 21532 
1 11073 21150 
2 11072 11073 
2 11071 11072 
1 11071 11659 
2 11659 11660 
2 11660 11661 
2 18047 18048 
2 9119 9120 
2 18046 18047 
1 5859 9120 
1 4839 18046 
1 18048 21139 
2 116 117 
1 117 3550 
2 3550 3551 
2 3551 3552 
2 5858 5859 
2 9944 9945 
2 9943 9944 
2 5329 5330 
1 5329 9943 
2 5330 5331 
2 5857 5858 
1 324 5857 
2 3934 3935 
1 3934 5331 
3 4424 4425 
3 4423 4424 
3 4507 4508 
1 4507 21508 
3 21508 21509 
3 21509 21510 
3 7901 7902 
3 4508 4509 
1 7902 10116 
3 7900 7901 
1 7900 9766 
3 9766 9767 
1 849 3982 
3 11596 11597 
1 3984 11596 
3 3982 3983 
3 3983 3984 
1 2661 15927 
3 14000 14001 
3 13999 14000 
1 13999 21201 
3 2660 2661 
3 2659 2660 
1 2659 12100 
3 12100 12101 
3 11597 11598 
2 6542 6543 
2 19028 19029 
2 19027 19028 
3 2641 2642 
1 2641 19027 
3 2642 2643 
2 21320 21321 
1 2643 14470 
2 21319 21320 
1 10545 19029 
2 21139 21140 
1 708 21321 
2 21140 21141 
2 4816 4817 
1 2448 4816 
2 2447 2448 
2 4817 4818 
2 2446 2447 
1 2446 6366 
2 707 708 
2 706 707 
1 706 15790 
1 12003 12534 
2 7940 7941 
2 12002 12003 
2 12001 12002 
1 12001 12117 
2 12116 12117 
2 4073 4074 
2 8096 8097 
2 4072 4073 
1 4072 13468 
2 8095 8096 
2 7939 7940 
1 7939 8097 
1 4425 7896 
3 20332 20333 
3 2780 2781 
3 8339 8340 
3 8338 8339 
3 2779 2780 
1 2779 8338 
3 7810 7811 
1 7810 8220 
1 8340 20332 
3 7811 7812 
3 10115 10116 
1 7812 20235 
1 3189 5419 
3 20233 20234 
3 20234 20235 
3 10106 10107 
3 10105 10106 
3 6895 6896 
1 6895 10107 
1 894 10105 
3 12101 12102 
3 6896 6897 
3 20374 20375 
3 893 894 
1 777 20374 
2 10933 10934 
1 2715 10933 
3 2714 2715 
3 2713 2714 
1 2713 3210 
3 14143 14144 
1 14143 21319 
3 3209 3210 
3 14470 14471 
3 18757 18758 
1 18757 20110 
3 20110 20111 
3 18878 18879 
2 10934 10935 
3 20890 20891 
2 4582 4583 
1 4582 19699 
3 18877 18878 
2 14590 14591 
1 14590 18877 
2 4583 4584 
2 14591 14592 
1 4584 6093 
3 6092 6093 
3 16135 16136 
2 14782 14783 
1 14782 16135 
3 16136 16137 
1 16137 20890 
1 14592 18292 
2 14783 14784 
2 16628 16629 
1 16476 16627 
2 13468 13469 
2 7204 7205 
1 7204 8095 
2 13469 13470 
2 16475 16476 
2 16474 16475 
2 16627 16628 
1 5775 16474 
3 17174 17175 
2 16891 16892 
1 16891 17175 
3 10039 10040 
1 10039 15859 
2 15859 15860 
2 10547 10548 
1 7986 10546 
2 10546 10547 
2 4544 4545 
2 4543 4544 
1 4543 16224 
3 16223 16224 
3 16222 16223 
2 2218 2219 
1 2218 4545 
3 17173 17174 
1 16341 17173 
2 16340 16341 
2 3997 3998 
1 3997 20011 
2 20011 20012 
2 20012 20013 
2 16339 16340 
2 8596 8597 
1 8596 16339 
2 2675 2676 
2 1018 1019 
1 1018 3003 
2 2674 2675 
1 1020 2674 
2 1019 1020 
2 15860 15861 
2 4309 4310 
1 4309 13149 
3 19999 20000 
2 8357 8358 
2 8356 8357 
1 8356 13972 
2 13972 13973 
3 20389 20390 
3 2962 2963 
3 20390 20391 
1 6759 8358 
3 20000 20001 
1 10548 18216 
3 18215 18216 
3 18214 18215 
1 18214 20028 
3 5075 5076 
1 5076 14997 
3 14996 14997 
1 3756 18099 
3 3755 3756 
3 3754 3755 
1 3754 12670 
2 21532 21533 
2 21533 21534 
1 2619 21534 
3 2618 2619 
3 2617 2618 
3 21230 21231 
3 21229 21230 
1 753 21229 
2 751 752 
1 751 11661 
2 752 753 
2 1138 1139 
1 1138 20013 
2 1139 1140 
2 826 827 
1 826 11950 
2 11950 11951 
2 10643 10644 
2 11951 11952 
1 3552 11952 
2 11113 11114 
2 4480 4481 
1 4480 11115 
1 2340 9945 
2 11114 11115 
1 10644 11113 
2 2339 2340 
3 3236 3237 
3 3235 3236 
1 3235 12558 
3 12556 12557 
1 12556 21510 
1 13764 20391 
3 12557 12558 
3 15308 15309 
3 847 848 
1 847 15309 
3 15307 15308 
3 3652 3653 
1 3652 15307 
3 848 849 
3 18098 18099 
3 14995 14996 
3 21200 21201 
3 21199 21200 
3 19330 19331 
1 19330 21199 
3 19331 19332 
3 18097 18098 
3 670 671 
1 670 14995 
3 16648 16649 
1 16648 19332 
3 7060 7061 
1 7060 18097 
1 1320 21231 
1 6543 9429 
3 9428 9429 
3 9427 9428 
1 4080 9427 
3 4079 4080 
3 9392 9393 
3 4078 4079 
1 4078 8602 
3 9391 9392 
1 2406 9391 
3 2404 2405 
1 2404 21141 
2 9118 9119 
2 67 68 
1 67 9118 
3 2405 2406 
2 68 69 
1 69 2193 
3 2192 2193 
2 18953 18954 
2 18952 18953 
1 5310 18952 
2 12115 12116 
1 12115 12528 
2 18640 18641 
2 2338 2339 
1 2338 5143 
2 5143 5144 
2 12526 12527 
1 12526 18954 
2 12527 12528 
2 18641 18642 
2 5144 5145 
2 15517 15518 
1 15517 18642 
2 181 182 
1 181 18640 
2 12538 12539 
3 7895 7896 
3 7894 7895 
3 2470 2471 
1 2470 7894 
3 2471 2472 
1 2472 12118 
3 12118 12119 
3 15967 15968 
3 21484 21485 
1 2781 21484 
3 10114 10115 
1 10114 21228 
3 21227 21228 
3 21226 21227 
3 13342 13343 
1 13342 21226 
3 10897 10898 
3 10898 10899 
3 13343 13344 
3 7615 7616 
1 7615 10897 
3 3653 3654 
3 8219 8220 
1 6897 13173 
3 7616 7617 
1 7617 12102 
3 353 354 
1 354 15681 
3 352 353 
1 352 14472 
3 14471 14472 
3 16649 16650 
1 4797 9393 
3 3208 3209 
1 3208 4428 
3 14144 14145 
3 10435 10436 
1 10435 14145 
3 10436 10437 
1 10437 18009 
3 17966 17967 
3 6091 6092 
3 962 963 
3 961 962 
1 961 6091 
1 963 17965 
3 17965 17966 
2 16901 16902 
2 16900 16901 
2 340 341 
1 340 16902 
2 341 342 
3 8521 8522 
1 8521 16900 
3 20891 20892 
1 342 13470 
2 7205 7206 
2 6250 6251 
1 6250 7206 
2 6251 6252 
1 3321 6252 
1 16629 19656 
2 1381 1382 
3 6758 6759 
3 6757 6758 
3 14680 14681 
3 9736 9737 
1 14682 16222 
3 14681 14682 
2 8374 8375 
3 4945 4946 
1 4945 8374 
2 3002 3003 
2 19783 19784 
2 8597 8598 
1 8376 8598 
2 8375 8376 
2 19784 19785 
2 4310 4311 
2 20440 20441 
2 13454 13455 
2 20441 20442 
1 13455 20442 
1 4311 9837 
2 9835 9836 
2 9836 9837 
2 151 152 
1 151 9835 
2 152 153 
3 2963 2964 
1 2964 10288 
3 10288 10289 
3 10289 10290 
3 20027 20028 
3 20026 20027 
1 5736 20026 
3 5735 5736 
3 20047 20048 
3 2161 2162 
1 2161 2617 
3 20048 20049 
3 2162 2163 
1 2163 20049 
1 9069 15504 
3 4946 4947 
3 9068 9069 
1 4947 9639 
1 1140 15502 
2 3001 3002 
1 3001 4329 
2 4328 4329 
2 15503 15504 
2 15502 15503 
2 827 828 
1 828 2077 
2 4327 4328 
1 4327 7144 
2 7144 7145 
2 7145 7146 
2 2077 2078 
2 2078 2079 
2 21422 21423 
2 6034 6035 
2 6035 6036 
2 4481 4482 
1 4482 18958 
2 18958 18959 
2 18959 18960 
1 18960 21288 
1 2400 6034 
1 3237 5682 
3 13763 13764 
3 10820 10821 
1 10290 15964 
3 10819 10820 
1 10819 18672 
3 15964 15965 
3 13762 13763 
1 13762 18670 
3 18670 18671 
3 18671 18672 
3 19975 19976 
1 12813 19975 
3 12812 12813 
3 8602 8603 
3 12811 12812 
1 672 12811 
3 671 672 
3 5734 5735 
1 5734 13755 
3 7061 7062 
1 5535 7062 
3 5534 5535 
3 5533 5534 
1 5533 13221 
3 4036 4037 
1 4036 20047 
2 13220 13221 
3 1319 1320 
3 1318 1319 
1 1318 19642 
3 19642 19643 
3 9067 9068 
1 2733 9067 
3 19643 19644 
1 2811 19644 
3 16361 16362 
3 10423 10424 
1 10423 16362 
3 16360 16361 
1 16360 21550 
3 2191 2192 
1 2191 10425 
2 124 125 
1 124 2079 
2 125 126 
3 10424 10425 
2 1117 1118 
1 1117 11079 
1 5145 19081 
1 2298 19083 
2 19082 19083 
2 2297 2298 
2 19081 19082 
2 1118 1119 
2 2863 2864 
1 1119 2863 
2 2864 2865 
3 1576 1577 
1 1576 12120 
3 12119 12120 
3 5681 5682 
3 5680 5681 
1 5680 9417 
3 9416 9417 
3 9415 9416 
1 9415 14475 
3 5318 5319 
1 13344 15934 
3 5317 5318 
1 5317 10899 
3 15934 15935 
1 3654 12354 
3 12353 12354 
3 12352 12353 
3 10876 10877 
1 10876 12352 
3 7006 7007 
3 7007 7008 
3 10877 10878 
3 15935 15936 
1 5229 7006 
3 8603 8604 
3 5228 5229 
1 7521 15679 
3 3874 3875 
1 3874 8604 
3 5227 5228 
1 5227 16650 
3 15679 15680 
3 15680 15681 
3 3875 3876 
1 3876 10600 
3 10600 10601 
3 5585 5586 
3 15065 15066 
3 18008 18009 
3 4796 4797 
3 4795 4796 
1 4795 11772 
3 11771 11772 
3 11770 11771 
1 11770 17848 
3 17848 17849 
3 18007 18008 
3 5584 5585 
1 5584 17967 
1 15066 18007 
1 3090 8523 
3 5284 5285 
1 5284 11316 
3 5309 5310 
3 5308 5309 
1 5308 11314 
3 11314 11315 
3 8522 8523 
3 11315 11316 
3 7838 7839 
2 7915 7916 
1 156 3319 
2 15518 15519 
3 7837 7838 
1 6354 7837 
2 6352 6353 
1 6352 15519 
2 3319 3320 
2 6353 6354 
2 3320 3321 
2 10763 10764 
3 2153 2154 
3 2152 2153 
1 2152 9286 
2 9286 9287 
2 9287 9288 
1 9288 10150 
3 9737 9738 
3 11356 11357 
1 9345 11356 
3 11357 11358 
2 9344 9345 
2 9343 9344 
2 1382 1383 
1 1383 9343 
2 10762 10763 
3 4861 4862 
1 4861 10762 
1 1527 4863 
3 1526 1527 
3 4862 4863 
3 1525 1526 
3 10150 10151 
3 10151 10152 
3 3820 3821 
1 3820 10152 
3 3821 3822 
3 10207 10208 
3 10208 10209 
3 9638 9639 
3 9637 9638 
1 9637 10209 
3 14038 14039 
1 14038 15567 
3 14039 14040 
1 14040 16515 
3 15566 15567 
1 7146 15565 
3 15565 15566 
2 21287 21288 
2 3103 3104 
2 3104 3105 
2 21286 21287 
3 19976 19977 
3 8075 8076 
3 15965 15966 
3 17170 17171 
1 8076 17170 
1 15966 17172 
3 17171 17172 
3 11533 11534 
1 11533 19356 
3 19355 19356 
3 11534 11535 
3 13754 13755 
3 19354 19355 
3 13753 13754 
1 13753 19354 
3 4037 4038 
3 11032 11033 
3 11033 11034 
1 4038 11032 
1 11034 18351 
3 2810 2811 
3 21550 21551 
3 2732 2733 
3 2731 2732 
1 561 2731 
3 560 561 
3 559 560 
1 559 6808 
3 6808 6809 
1 126 10438 
3 10438 10439 
3 10439 10440 
1 10440 19995 
1 12525 17445 
3 12524 12525 
3 12523 12524 
2 2296 2297 
1 2296 12523 
3 14473 14474 
1 1992 14473 
1 10029 10821 
3 10028 10029 
3 10027 10028 
3 5107 5108 
1 5107 10027 
3 14474 14475 
3 5108 5109 
1 5109 9684 
3 19448 19449 
1 19977 20584 
3 20584 20585 
3 20585 20586 
3 20530 20531 
1 20530 20586 
1 10878 19447 
3 19447 19448 
3 1955 1956 
3 1954 1955 
1 1954 7008 
3 8300 8301 
3 20531 20532 
3 2809 2810 
1 2809 10018 
1 8301 19135 
3 19135 19136 
3 10019 10020 
2 13219 13220 
1 13219 19137 
3 19136 19137 
1 10020 19209 
3 19208 19209 
3 10750 10751 
1 10602 10750 
3 10601 10602 
3 10018 10019 
3 1399 1400 
1 1399 14968 
3 16097 16098 
3 21551 21552 
1 14970 21552 
1 16098 17850 
3 14969 14970 
3 17849 17850 
3 19673 19674 
3 14968 14969 
3 19672 19673 
1 5286 19672 
3 5285 5286 
3 19994 19995 
2 17444 17445 
3 14929 14930 
1 14929 19993 
3 19993 19994 
1 7839 16117 
3 16118 16119 
3 16117 16118 
1 7917 15021 
2 7916 7917 
3 9262 9263 
1 9262 9780 
3 9263 9264 
3 6116 6117 
3 18122 18123 
3 7289 7290 
3 6115 6116 
1 6115 7290 
3 11329 11330 
3 11330 11331 
1 11331 15265 
2 15265 15266 
2 15266 15267 
2 9779 9780 
2 9778 9779 
1 9778 15267 
3 18350 18351 
1 8457 18349 
3 18349 18350 
3 6809 6810 
3 16514 16515 
3 16513 16514 
1 6810 20163 
3 9682 9683 
1 9682 11988 
3 11818 11819 
3 8074 8075 
3 7951 7952 
1 7951 8074 
3 7952 7953 
3 5351 5352 
3 5350 5351 
1 5350 7953 
3 9683 9684 
3 10909 10910 
1 10909 11818 
3 10910 10911 
3 10256 10257 
3 902 903 
3 673 674 
1 673 8299 
3 20470 20471 
3 2881 2882 
1 2881 11535 
3 2882 2883 
3 901 902 
1 901 2883 
1 10911 20532 
3 8299 8300 
3 674 675 
1 675 20470 
3 15154 15155 
3 15959 15960 
3 19207 19208 
3 15958 15959 
1 15958 19207 
3 13775 13776 
2 20161 20162 
3 3812 3813 
3 10255 10256 
3 3811 3812 
1 3811 15154 
3 8455 8456 
1 8455 10255 
1 13776 20161 
2 20162 20163 
3 8456 8457 
1 15960 19314 
3 12130 12131 
3 5024 5025 
3 1400 1401 
1 1401 3813 
1 5025 12130 
3 5023 5024 
1 5023 14931 
3 14930 14931 
2 17443 17444 
2 13472 13473 
3 728 729 
3 1451 1452 
1 1452 13473 
2 10496 10497 
3 727 728 
1 727 10497 
3 9809 9810 
1 9810 15396 
3 9808 9809 
1 9808 13008 
2 13007 13008 
2 13006 13007 
1 13006 21580 
2 21580 21581 
2 13667 13668 
2 13666 13667 
1 3051 13471 
2 13471 13472 
2 8647 8648 
2 3049 3050 
1 3049 8647 
2 8648 8649 
2 3050 3051 
2 7310 7311 
2 10481 10482 
2 10480 10481 
1 10480 14898 
2 14897 14898 
2 14896 14897 
2 10495 10496 
1 10495 14896 
2 5488 5489 
2 5489 5490 
3 3188 3189 
3 9224 9225 
3 563 564 
1 5514 9223 
3 5513 5514 
3 9223 9224 
3 5512 5513 
1 5512 20581 
3 20581 20582 
3 562 563 
1 562 15394 
3 15394 15395 
3 15395 15396 
3 6457 6458 
3 2221 2222 
1 2221 14761 
3 14761 14762 
3 2222 2223 
1 2223 6457 
3 14762 14763 
3 20582 20583 
3 6458 6459 
3 14641 14642 
3 14642 14643 
1 14643 20934 
3 13825 13826 
3 13826 13827 
3 20933 20934 
2 2485 2486 
1 2485 13825 
2 2486 2487 
2 5890 5891 
1 5890 8649 
3 19225 19226 
1 5892 19225 
2 5891 5892 
2 1169 1170 
1 1170 17595 
1 2487 7309 
2 7309 7310 
2 9274 9275 
1 9274 20991 
1 8889 17311 
2 9275 9276 
2 17311 17312 
2 17312 17313 
1 9276 10482 
1 8490 21385 
2 21385 21386 
1 5307 17313 
2 5306 5307 
3 20645 20646 
3 14902 14903 
3 14903 14904 
1 5490 14215 
3 14215 14216 
3 14216 14217 
1 11958 14217 
3 11957 11958 
3 3226 3227 
3 3227 3228 
3 21176 21177 
3 21175 21176 
2 12539 12540 
2 1027 1028 
1 1027 15969 
3 1370 1371 
2 1028 1029 
3 15968 15969 
1 714 3187 
3 3187 3188 
3 713 714 
3 712 713 
1 712 10779 
3 7963 7964 
1 7963 9225 
3 7964 7965 
3 10778 10779 
3 776 777 
3 15547 15548 
3 775 776 
1 775 4231 
3 4231 4232 
3 4232 4233 
3 15128 15129 
3 7777 7778 
1 7777 14763 
1 4233 15547 
3 15127 15128 
1 15129 20112 
3 5248 5249 
1 5248 15127 
1 11478 21439 
3 20111 20112 
3 20932 20933 
1 13827 18138 
3 18137 18138 
3 18136 18137 
1 18136 18354 
3 11476 11477 
1 11476 20932 
3 11477 11478 
3 18271 18272 
1 18271 19227 
3 18272 18273 
3 14035 14036 
1 14035 18879 
3 19226 19227 
2 20990 20991 
2 20989 20990 
3 17593 17594 
3 17594 17595 
3 15823 15824 
1 15823 17593 
3 15824 15825 
3 10687 10688 
1 10687 20989 
2 17983 17984 
1 17983 21429 
3 10688 10689 
2 8753 8754 
2 8752 8753 
2 8489 8490 
2 5305 5306 
2 17984 17985 
2 8488 8489 
1 8488 17985 
1 8754 11520 
2 11519 11520 
3 305 306 
3 6331 6332 
1 6331 7965 
3 304 305 
1 304 8835 
3 18355 18356 
3 5866 5867 
1 5866 18355 
3 5867 5868 
3 6332 6333 
1 5868 20644 
3 20644 20645 
3 7778 7779 
3 424 425 
1 424 7779 
3 21440 21441 
3 21439 21440 
3 13207 13208 
3 425 426 
3 13208 13209 
1 11172 18273 
3 2665 2666 
1 2665 11956 
3 11956 11957 
3 2666 2667 
1 2667 4632 
2 2545 2546 
1 2545 10689 
3 1409 1410 
3 1408 1409 
1 1408 13015 
2 2546 2547 
3 10069 10070 
1 15894 21486 
3 10070 10071 
3 15893 15894 
3 15892 15893 
3 10063 10064 
1 10063 15892 
3 1369 1370 
1 1369 8133 
3 8132 8133 
3 8131 8132 
1 2040 8131 
3 21485 21486 
3 8218 8219 
1 8218 9478 
3 3352 3353 
1 3352 20295 
3 10003 10004 
3 3353 3354 
1 3354 10777 
3 10777 10778 
1 9480 10003 
3 7364 7365 
1 7365 14431 
3 7363 7364 
1 7363 15549 
3 14431 14432 
3 9479 9480 
3 9478 9479 
3 13172 13173 
3 5249 5250 
3 15548 15549 
3 13171 13172 
1 13171 21172 
3 21172 21173 
1 5250 11236 
3 11236 11237 
3 11237 11238 
3 21173 21174 
3 21113 21114 
3 21112 21113 
3 4426 4427 
1 4426 21112 
3 18353 18354 
3 14036 14037 
3 18352 18353 
1 17691 18352 
1 12207 14037 
3 12206 12207 
3 17690 17691 
3 17689 17690 
3 12205 12206 
1 12205 19639 
3 19639 19640 
1 3462 15538 
3 15538 15539 
3 9805 9806 
1 9805 17689 
3 3461 3462 
3 4427 4428 
1 15540 15825 
3 15539 15540 
3 21428 21429 
3 6766 6767 
1 6766 21427 
3 21427 21428 
3 18053 18054 
3 10936 10937 
1 6768 10936 
3 18052 18053 
1 7260 18052 
3 6767 6768 
3 7259 7260 
1 18054 20892 
2 6388 6389 
1 6388 20250 
2 6389 6390 
2 14731 14732 
3 11416 11417 
1 11416 14731 
3 11417 11418 
1 6390 19654 
2 19654 19655 
2 19655 19656 
1 8160 11418 
3 20492 20493 
3 8834 8835 
3 20491 20492 
1 13704 20491 
3 13703 13704 
3 13702 13703 
1 8949 13702 
3 20294 20295 
3 8833 8834 
3 6946 6947 
1 6946 8833 
3 8917 8918 
3 18356 18357 
1 6333 10729 
3 10729 10730 
3 10730 10731 
1 5157 10731 
1 9963 18357 
3 5156 5157 
3 8276 8277 
1 21441 21595 
1 4323 8275 
3 8275 8276 
3 4322 4323 
1 9432 11238 
3 4321 4322 
1 426 4321 
3 21596 21597 
3 21595 21596 
1 7278 21597 
3 7277 7278 
3 4631 4632 
3 7697 7698 
3 11171 11172 
3 3460 3461 
1 3460 6838 
3 11170 11171 
1 11170 17871 
3 17870 17871 
3 17869 17870 
3 13150 13151 
1 13150 17869 
3 4630 4631 
1 4630 7696 
3 7696 7697 
2 13015 13016 
2 13016 13017 
1 5013 6622 
1 2547 6624 
3 6623 6624 
3 6622 6623 
3 5012 5013 
1 13017 14593 
3 14593 14594 
3 14594 14595 
3 6947 6948 
3 7492 7493 
1 6948 7492 
3 8918 8919 
1 780 8919 
3 9962 9963 
3 9961 9962 
1 9961 13099 
3 13099 13100 
1 5061 13209 
3 5060 5061 
3 5059 5060 
1 5059 11574 
3 8776 8777 
3 8777 8778 
1 7698 8776 
3 1577 1578 
3 12251 12252 
3 12250 12251 
1 1578 12250 
3 12220 12221 
1 12220 15936 
3 10064 10065 
1 10065 10134 
3 10133 10134 
3 12221 12222 
3 10132 10133 
3 3325 3326 
1 3325 10132 
1 12222 14664 
3 10004 10005 
1 5319 6898 
3 6898 6899 
1 10005 11427 
3 11425 11426 
1 11425 12594 
3 11426 11427 
3 20996 20997 
3 6899 6900 
1 882 20997 
3 20995 20996 
1 1638 6900 
3 12593 12594 
3 7520 7521 
3 20911 20912 
1 20911 21114 
3 881 882 
3 973 974 
1 973 15064 
3 880 881 
1 880 21174 
3 20912 20913 
3 12385 12386 
1 12385 20913 
3 12386 12387 
3 974 975 
3 16985 16986 
3 7519 7520 
1 7519 16986 
3 15064 15065 
3 20473 20474 
3 19640 19641 
1 17655 19641 
3 17654 17655 
3 18992 18993 
3 20474 20475 
1 10485 18993 
3 17653 17654 
1 16041 17653 
1 18777 20475 
3 10484 10485 
1 5586 20473 
3 3088 3089 
1 3088 5332 
3 5332 5333 
3 10483 10484 
3 7258 7259 
1 7258 10483 
3 1535 1536 
1 1536 20248 
3 20248 20249 
3 20249 20250 
3 1534 1535 
1 1534 18490 
3 18490 18491 
3 5333 5334 
3 3089 3090 
2 154 155 
1 154 17100 
2 5044 5045 
1 5044 14595 
2 14732 14733 
3 10994 10995 
1 5046 10993 
3 10993 10994 
2 5045 5046 
3 17099 17100 
2 155 156 
3 17098 17099 
1 12636 20173 
3 20173 20174 
3 12635 12636 
3 2039 2040 
3 8948 8949 
3 8947 8948 
3 12634 12635 
3 2038 2039 
1 2038 12634 
3 20293 20294 
1 8349 8947 
1 19281 20293 
3 19280 19281 
3 8348 8349 
3 19279 19280 
1 17904 19279 
3 17903 17904 
3 15863 15864 
3 14432 14433 
3 15862 15863 
3 5155 5156 
1 5155 15862 
3 6055 6056 
1 6055 14433 
1 8277 19828 
3 19828 19829 
3 19829 19830 
3 6056 6057 
1 6057 11076 
3 18970 18971 
3 9806 9807 
3 9431 9432 
1 10365 18970 
3 10364 10365 
3 10363 10364 
3 9430 9431 
1 9430 10363 
1 7347 9807 
3 7276 7277 
1 7276 10662 
3 10661 10662 
3 7346 7347 
3 10660 10661 
1 10660 16762 
3 7345 7346 
1 7345 8325 
3 6838 6839 
3 13151 13152 
3 6110 6111 
3 6109 6110 
1 6109 13152 
3 6839 6840 
1 6840 7035 
3 7034 7035 
3 20954 20955 
3 5011 5012 
1 5011 20953 
3 20953 20954 
3 10937 10938 
3 3778 3779 
1 3778 10938 
3 3779 3780 
1 3780 16414 
3 15574 15575 
2 14563 14564 
2 14564 14565 
2 6169 6170 
3 778 779 
1 778 6169 
2 6170 6171 
3 7493 7494 
3 779 780 
3 8347 8348 
3 2392 2393 
1 2392 8347 
1 7494 20460 
3 20459 20460 
3 20458 20459 
3 6304 6305 
1 6304 20458 
1 2895 15864 
3 6008 6009 
3 13100 13101 
3 1603 1604 
3 1604 1605 
1 13959 19830 
1 13101 13720 
3 13720 13721 
3 13721 13722 
3 21403 21404 
3 5998 5999 
1 5998 21403 
1 6009 13722 
3 21404 21405 
3 11572 11573 
1 11572 21405 
3 13958 13959 
3 16762 16763 
3 11573 11574 
3 2794 2795 
1 2794 8778 
3 2795 2796 
1 2796 11830 
3 11830 11831 
3 16763 16764 
1 6111 17295 
3 1471 1472 
1 1471 20955 
3 1472 1473 
3 15575 15576 
3 19223 19224 
3 19222 19223 
3 15601 15602 
1 15601 19222 
3 15602 15603 
3 12691 12692 
1 12691 19449 
1 12252 19224 
3 1991 1992 
3 12692 12693 
3 14662 14663 
1 14662 17766 
3 14663 14664 
3 17765 17766 
1 1674 1990 
3 1990 1991 
3 3326 3327 
3 17764 17765 
1 6048 17764 
3 1636 1637 
1 1636 11125 
3 1637 1638 
3 11125 11126 
3 1123 1124 
1 1123 20995 
3 11653 11654 
1 4920 11653 
3 11654 11655 
3 11126 11127 
3 3956 3957 
3 4919 4920 
1 11127 20113 
3 20113 20114 
1 3957 10192 
3 3955 3956 
1 1956 3955 
3 16096 16097 
1 16096 20070 
1 2313 12387 
1 975 5067 
1 10752 15585 
3 16984 16985 
3 4918 4919 
1 4918 16984 
3 5066 5067 
3 5065 5066 
1 5065 8731 
3 8731 8732 
3 8732 8733 
3 10751 10752 
1 15855 19674 
3 18776 18777 
3 18775 18776 
1 8814 18775 
3 8813 8814 
3 11158 11159 
1 11158 12886 
3 12886 12887 
3 15854 15855 
3 7484 7485 
3 12887 12888 
1 5334 12888 
3 7771 7772 
1 7771 12643 
3 12643 12644 
3 12644 12645 
3 7772 7773 
1 7773 16819 
3 16819 16820 
3 7483 7484 
1 7483 16119 
3 6419 6420 
1 6420 15019 
2 15019 15020 
1 6552 10995 
1 12645 17098 
3 6551 6552 
2 15020 15021 
3 20174 20175 
1 279 20175 
3 278 279 
3 277 278 
1 277 11196 
3 13588 13589 
3 11470 11471 
1 11470 12592 
1 10224 13588 
1 3327 10222 
3 11471 11472 
3 10222 10223 
1 2070 11472 
3 10223 10224 
3 8528 8529 
3 17902 17903 
1 8529 17902 
3 8527 8528 
1 1875 8527 
3 12592 12593 
3 1124 1125 
3 874 875 
1 874 12462 
3 875 876 
1 1125 7600 
1 876 11074 
3 11074 11075 
3 7600 7601 
3 11075 11076 
1 16248 18972 
3 16247 16248 
3 7601 7602 
3 16246 16247 
1 13515 16246 
3 18971 18972 
3 8324 8325 
3 16039 16040 
3 9601 9602 
1 9601 16039 
3 2312 2313 
3 2311 2312 
1 2311 18751 
3 18751 18752 
3 8323 8324 
1 2016 8323 
3 2015 2016 
3 18752 18753 
3 9602 9603 
3 2014 2015 
1 2014 16012 
3 16012 16013 
1 9603 10645 
3 10645 10646 
3 7033 7034 
1 7033 8266 
3 16040 16041 
3 18991 18992 
1 18991 21526 
3 21526 21527 
3 21527 21528 
3 8536 8537 
3 8267 8268 
3 8266 8267 
1 8268 8536 
1 4041 21528 
3 539 540 
3 8537 8538 
3 538 539 
1 538 16416 
3 16415 16416 
3 4040 4041 
3 16414 16415 
3 18491 18492 
3 6145 6146 
1 6145 18492 
3 6146 6147 
1 6147 21258 
3 6550 6551 
3 959 960 
1 10527 14415 
3 10526 10527 
3 10525 10526 
1 2394 10525 
3 6305 6306 
3 2393 2394 
3 1874 1875 
3 2894 2895 
3 2893 2894 
1 2893 14434 
3 14434 14435 
3 14435 14436 
1 2538 14436 
3 5077 5078 
1 5077 6306 