ITEM: TIMESTEP
40000000
ITEM: NUMBER OF ATOMS
5472
ITEM: BOX BOUNDS pp pp pp
0.0000000000000000e+00 5.0000000000000000e+01
0.0000000000000000e+00 5.0000000000000000e+01
0.0000000000000000e+00 5.0000000000000000e+01
ITEM: ATOMS id type xs ys zs
308 2 0.177588 0.0224937 0.00240522
309 1 0.183227 0.025886 0.000560312
307 1 0.170866 0.0192782 0.00798087
19804 1 0.273652 0.0401051 0.0150957
19805 3 0.280239 0.0399377 0.0121069
19806 1 0.287342 0.0415934 0.00788857
20419 1 0.0526055 0.149357 0.0246374
1661 2 0.116619 0.180543 0.0128929
1660 1 0.117481 0.172762 0.0111474
1662 1 0.115655 0.187925 0.0158331
17777 3 0.112144 0.196479 0.0206407
17778 1 0.11489 0.190276 0.0168474
17776 1 0.109982 0.201599 0.0263443
18749 3 0.104929 0.242402 0.0277635
18748 1 0.100638 0.242505 0.0215237
16146 1 0.232432 0.30258 0.00148217
16145 3 0.238612 0.297368 0.00125188
16144 1 0.243804 0.291138 0.00092323
9023 2 0.224155 0.310518 0.00150998
9022 1 0.21884 0.316139 0.000986667
20514 1 0.26045 0.315558 0.0189333
20513 2 0.256098 0.316633 0.0249953
9024 1 0.230023 0.304963 0.00162774
20186 2 0.163043 0.455792 0.00622801
20187 1 0.163 0.455355 0.0138241
12836 3 0.256396 0.441696 0.0182494
12837 1 0.256252 0.433092 0.0170606
12835 1 0.257413 0.449068 0.0202989
6739 1 0.288108 0.46489 0.0162382
6740 2 0.283721 0.46096 0.0114627
6741 1 0.28059 0.456726 0.00595733
12870 1 0.0363887 0.510741 0.0053181
12869 2 0.0424995 0.510937 0.000593633
2492 2 0.213162 0.541881 0.0275825
2491 1 0.215954 0.541552 0.0201503
16320 1 0.184383 0.591439 0.00148837
16319 2 0.183844 0.599309 0.000802939
5924 3 0.0131504 0.627201 0.0155453
5923 1 0.0204817 0.629198 0.0167022
18823 1 0.0234987 0.629943 0.017199
18824 3 0.0305749 0.631936 0.0193997
5925 1 0.00543413 0.628569 0.0131889
18825 1 0.037223 0.633977 0.0223958
18773 2 0.0470912 0.662882 0.0149836
18774 1 0.0502619 0.663689 0.0221399
18772 1 0.0428415 0.662109 0.00800649
10161 1 0.156349 0.721448 0.0244624
5605 1 0.0458497 0.744849 0.0277187
20706 1 0.114328 0.787049 0.0103451
20704 1 0.107396 0.803986 0.0102102
20705 3 0.111412 0.795677 0.00979203
7392 1 0.0789998 0.0143649 0.0597791
18604 1 0.0649933 0.0337796 0.0583167
18606 1 0.0560204 0.0473175 0.0562138
18605 3 0.0613362 0.04124 0.0569067
13945 1 0.198533 0.0754422 0.0482794
13946 3 0.202758 0.074043 0.0419428
13947 1 0.206688 0.0736273 0.0351492
20421 1 0.055865 0.147064 0.0409473
20420 3 0.0536584 0.149262 0.0338598
4722 1 0.0252071 0.207306 0.0576266
4721 2 0.03258 0.210574 0.056395
4720 1 0.0394105 0.213865 0.0545278
7393 1 0.042093 0.215968 0.053272
7394 2 0.0476082 0.21921 0.049965
7395 1 0.0538838 0.223574 0.047864
6150 1 0.0568228 0.225557 0.0471484
6149 3 0.0627713 0.229004 0.0457389
6148 1 0.0688227 0.234046 0.0430616
18750 1 0.108597 0.241778 0.0338996
2915 2 0.179211 0.272745 0.051706
2914 1 0.17941 0.270293 0.0428407
2916 1 0.178344 0.27615 0.0587108
5801 2 0.235628 0.298093 0.0591318
5802 1 0.229739 0.297802 0.0545585
20512 1 0.252279 0.317434 0.0315619
8250 1 0.0186212 0.351588 0.0399744
8249 3 0.0249878 0.351476 0.0453067
8248 1 0.0323221 0.352307 0.0478242
19003 1 0.0354155 0.35287 0.0492424
19005 1 0.0496684 0.355264 0.0544687
19004 2 0.0420659 0.353973 0.0524578
12160 1 0.017596 0.415899 0.0363443
12161 3 0.0237974 0.420576 0.0353776
12162 1 0.0299814 0.42457 0.0326368
8410 1 0.063646 0.508823 0.0383245
8411 3 0.0679454 0.515734 0.039202
8412 1 0.0733172 0.52284 0.0404639
14279 3 0.175624 0.53938 0.0502571
14278 1 0.175292 0.538535 0.0420071
14280 1 0.174713 0.539214 0.058906
2493 1 0.210948 0.542072 0.0351879
10390 1 0.209917 0.542288 0.0376504
10391 3 0.206187 0.543337 0.0462828
10392 1 0.201682 0.54356 0.0533095
18308 2 0.0489197 0.588428 0.0562448
18309 1 0.043335 0.594104 0.0579894
1266 1 0.0414376 0.595815 0.0588964
18307 1 0.054583 0.583568 0.0545677
8224 1 0.236398 0.637149 0.0462967
8225 3 0.243682 0.632546 0.0445639
8226 1 0.249609 0.62775 0.04143
8686 1 0.0325525 0.667068 0.0595911
1081 1 0.228506 0.669732 0.0549231
1082 3 0.222028 0.674627 0.0533831
1083 1 0.21668 0.680496 0.054637
10160 3 0.154828 0.726151 0.0310384
10159 1 0.1515 0.728837 0.0367462
5607 1 0.0592242 0.738594 0.0329371
5606 2 0.0524883 0.741762 0.0312288
20153 2 0.00482569 0.818837 0.0352628
20152 1 0.00144377 0.813275 0.030584
14883 1 0.151192 0.816674 0.0491452
7390 1 0.076467 0.00594528 0.0695565
7391 2 0.077646 0.0110578 0.0659831
7982 3 0.113808 0.0147281 0.0858508
7983 1 0.11958 0.0120476 0.0811633
3587 3 0.115838 0.059201 0.0724606
3588 1 0.11428 0.0517089 0.0717621
17719 1 0.119719 0.0705564 0.073282
3586 1 0.118711 0.0674075 0.0728153
17720 2 0.121858 0.0770548 0.0740578
17721 1 0.123931 0.0851625 0.0744286
4490 3 0.272734 0.0856726 0.0731245
4491 1 0.268384 0.0831189 0.0800706
14892 1 0.266654 0.0824041 0.0818698
4489 1 0.274947 0.0884616 0.0655505
14891 2 0.260838 0.0805159 0.0868527
5800 1 0.240923 0.299173 0.0643129
20406 1 0.259006 0.408858 0.089677
20405 2 0.253871 0.415552 0.0897299
12501 1 0.122938 0.448796 0.0810157
12500 2 0.115881 0.451417 0.0841282
12499 1 0.110098 0.4541 0.0884285
9458 2 0.130357 0.515205 0.0747828
9459 1 0.133615 0.509103 0.0716612
9457 1 0.129641 0.521383 0.0791194
19086 1 0.117701 0.547469 0.0662983
1839 1 0.174736 0.53921 0.0615716
1838 2 0.175561 0.539152 0.0693079
1837 1 0.17706 0.541789 0.0767666
2475 1 0.178091 0.542991 0.0794646
2474 2 0.182063 0.545453 0.0871322
19084 1 0.1282 0.557486 0.0607334
19085 2 0.123213 0.552476 0.0629179
1264 1 0.0306351 0.607354 0.0646494
7619 3 0.0290959 0.605111 0.0901583
1265 3 0.0345958 0.601509 0.0616092
7618 1 0.0343897 0.598308 0.0885232
4581 1 0.124235 0.590723 0.0698477
4580 2 0.129744 0.58876 0.075811
4579 1 0.135288 0.586497 0.0821693
8688 1 0.0389358 0.657629 0.071212
8687 3 0.0361131 0.663048 0.0663422
17081 3 0.1134 0.777219 0.0833095
17082 1 0.117942 0.783442 0.0827496
17080 1 0.108758 0.771502 0.0832955
18798 1 0.288767 0.792977 0.0827099
18797 2 0.285668 0.795409 0.0772929
18796 1 0.280592 0.796266 0.0711254
7981 1 0.108256 0.0173031 0.0920877
14340 1 0.0264246 0.0677408 0.0930265
14339 2 0.02123 0.070752 0.0981722
14338 1 0.0159998 0.0723711 0.104978
5096 3 0.00778058 0.0742171 0.113182
5095 1 0.00148775 0.074925 0.117533
5097 1 0.0138679 0.0729042 0.107434
13075 1 0.106736 0.0772629 0.10514
13076 3 0.105329 0.0777605 0.113144
14890 1 0.254441 0.0794101 0.091962
11346 1 0.117233 0.14981 0.117971
11345 2 0.123343 0.144913 0.112592
11344 1 0.126821 0.138964 0.106894
11735 3 0.25882 0.169316 0.0950013
11734 1 0.255435 0.162827 0.0933477
11736 1 0.261441 0.1764 0.0979287
20404 1 0.249275 0.421046 0.0906475
13481 3 0.112534 0.507901 0.0987879
13482 1 0.107223 0.503069 0.0996867
13480 1 0.118338 0.512747 0.0972429
16449 1 0.207251 0.509927 0.112432
7721 3 0.195135 0.52976 0.100299
7720 1 0.188561 0.533412 0.0961319
2473 1 0.185115 0.547068 0.0942674
7722 1 0.19878 0.52599 0.105202
16447 1 0.20037 0.524292 0.106752
16448 2 0.204584 0.518058 0.110007
9549 1 0.163162 0.59362 0.119295
10683 1 0.198561 0.600965 0.0906929
10682 3 0.20092 0.606005 0.0963108
17223 1 0.0224745 0.613846 0.0917062
17222 3 0.0170741 0.617804 0.0919476
17221 1 0.0102315 0.622535 0.0939733
7620 1 0.0242535 0.611784 0.0913049
12364 1 0.190455 0.625587 0.11529
12365 3 0.182868 0.625841 0.119458
10681 1 0.205615 0.610324 0.10203
1847 3 0.279278 0.632134 0.0940072
8893 1 0.288077 0.636242 0.0974352
1846 1 0.285674 0.635403 0.0963758
1848 1 0.271944 0.629488 0.0917044
15721 1 0.00901759 0.692896 0.110632
11766 1 0.0108512 0.695383 0.111408
15722 2 0.004647 0.685191 0.110345
15723 1 6.09368e-05 0.678447 0.110329
11765 2 0.017495 0.700915 0.11378
11764 1 0.0240771 0.705347 0.114903
4895 3 0.0895008 0.750334 0.117943
4896 1 0.0966262 0.7486 0.112569
8876 2 0.105483 0.748678 0.103719
8877 1 0.110652 0.747035 0.0997399
8875 1 0.0990875 0.748218 0.110178
6114 1 0.0894616 0.764275 0.114572
6113 2 0.0929446 0.770232 0.119179
3341 2 0.0591937 0.804185 0.10099
15485 2 0.0511669 0.818819 0.0921093
3340 1 0.0558459 0.810957 0.0975663
3342 1 0.063417 0.798145 0.103048
15484 1 0.0548363 0.81301 0.0959951
15929 2 0.205958 0.0181916 0.133208
15930 1 0.207461 0.0196333 0.14067
16864 1 0.207749 0.020134 0.143595
15928 1 0.205773 0.0155464 0.124796
4553 3 0.0269005 0.0602419 0.136589
4552 1 0.0250661 0.0545979 0.141374
11761 1 0.128224 0.0396084 0.136372
11763 1 0.116001 0.0352799 0.14578
11762 2 0.122333 0.0372134 0.141307
21471 1 0.280032 0.0517715 0.14892
4554 1 0.0268934 0.0658321 0.131657
13077 1 0.103013 0.0763157 0.120815
17623 1 0.00829753 0.164658 0.121596
17624 2 0.0163396 0.162282 0.124502
17625 1 0.0229571 0.160189 0.128491
14755 1 0.0391821 0.17966 0.126176
14757 1 0.0348401 0.189153 0.138319
14756 2 0.0372138 0.183476 0.132655
20965 1 0.0392253 0.243233 0.13218
20966 3 0.0423747 0.236614 0.134927
20967 1 0.0469891 0.229857 0.135613
1866 1 0.0438055 0.269543 0.142972
1865 2 0.0478526 0.263801 0.14798
18872 3 0.229563 0.257004 0.149685
18871 1 0.233204 0.250494 0.14545
17481 1 0.033235 0.332554 0.130042
17479 1 0.0272985 0.343918 0.137147
17480 2 0.0301189 0.337688 0.133773
20819 3 0.0203357 0.357688 0.132278
20779 1 0.0290967 0.359132 0.126466
20820 1 0.0267872 0.35874 0.128132
20818 1 0.0130426 0.357563 0.134359
20781 1 0.042371 0.364982 0.12073
20780 3 0.0357487 0.361194 0.123554
5324 3 0.0207372 0.41908 0.140954
5325 1 0.0153731 0.419093 0.146973
5323 1 0.0252215 0.419652 0.134105
9747 1 0.130951 0.557077 0.143328
9746 2 0.136039 0.563308 0.14047
9745 1 0.140662 0.568831 0.136915
15033 1 0.142989 0.57066 0.13619
15032 2 0.149097 0.574783 0.132563
9547 1 0.155745 0.58259 0.128808
15031 1 0.153976 0.580559 0.129805
9548 3 0.159624 0.587464 0.123675
20915 2 0.132673 0.607706 0.14548
20916 1 0.139981 0.606756 0.149407
20914 1 0.12527 0.609138 0.143026
8942 3 0.160259 0.631958 0.148699
12366 1 0.177149 0.626526 0.123547
11187 1 0.174954 0.626587 0.125803
8943 1 0.163521 0.629338 0.14168
11185 1 0.164908 0.628792 0.13837
11186 2 0.168517 0.627604 0.13203
4894 1 0.0825878 0.753746 0.122111
6520 1 0.24358 0.759783 0.137052
6112 1 0.0949803 0.775861 0.124112
11757 1 0.172434 0.770913 0.122388
11756 2 0.170571 0.768053 0.129677
11755 1 0.170327 0.763121 0.135999
6521 2 0.236634 0.764484 0.137872
6522 1 0.229642 0.768255 0.137388
16865 3 0.207314 0.0213281 0.151343
16866 1 0.208286 0.0243041 0.158355
21470 3 0.277565 0.0522439 0.156494
21469 1 0.275111 0.0545435 0.163695
18615 1 0.172309 0.0952742 0.172946
18614 3 0.173296 0.101692 0.169006
18613 1 0.173399 0.108557 0.16435
20643 1 0.291048 0.196407 0.178038
1864 1 0.0530282 0.260236 0.151873
16935 1 0.223132 0.264705 0.15498
18873 1 0.224914 0.262234 0.153783
16934 2 0.219738 0.271483 0.156765
16933 1 0.216741 0.277679 0.160078
21163 1 0.235999 0.278006 0.16859
21164 3 0.243116 0.280649 0.168846
21165 1 0.250522 0.281819 0.169283
9487 1 0.268638 0.510889 0.176642
9488 3 0.274345 0.516365 0.178231
9489 1 0.282202 0.519309 0.180267
19604 2 0.069725 0.586583 0.159244
19605 1 0.0694254 0.57929 0.159364
19603 1 0.0706526 0.594274 0.159929
8941 1 0.158721 0.635026 0.1561
4014 1 0.17449 0.727658 0.168968
4012 1 0.183081 0.739715 0.160898
4013 3 0.178792 0.733486 0.164914
4820 3 0.285081 0.786295 0.179939
4819 1 0.276973 0.78656 0.17842
2227 1 0.160916 0.817588 0.166205
2228 2 0.165943 0.817089 0.159607
2229 1 0.170922 0.817081 0.152653
17323 1 0.247909 0.042165 0.207232
20642 2 0.28569 0.197526 0.18372
20641 1 0.280586 0.199849 0.191123
3372 1 0.19531 0.299705 0.208904
3370 1 0.206408 0.290284 0.200202
3371 3 0.200222 0.294802 0.205131
19860 1 0.1427 0.43912 0.203546
1326 1 0.072701 0.510407 0.20465
20958 1 0.269164 0.497077 0.195261
20956 1 0.282719 0.496123 0.186372
20957 2 0.276009 0.495326 0.191037
7077 1 0.284877 0.520823 0.181048
7076 3 0.291368 0.52335 0.183318
4061 2 0.0260625 0.687411 0.188691
4060 1 0.0178295 0.688767 0.185695
4062 1 0.0332904 0.686569 0.193126
19131 1 0.0901285 0.750834 0.18867
19130 3 0.0875202 0.742643 0.192655
19129 1 0.0840983 0.736282 0.197775
4821 1 0.293333 0.78736 0.181931
4954 1 0.247647 0.0353369 0.231177
17325 1 0.236302 0.0362719 0.216951
17324 3 0.24318 0.038348 0.21242
4955 3 0.248654 0.0360988 0.239016
16517 3 0.257794 0.0853904 0.240296
16518 1 0.251899 0.0872203 0.235769
19165 1 0.267261 0.161961 0.229184
19166 3 0.265293 0.168022 0.233737
19167 1 0.261973 0.17207 0.23938
2197 1 0.189793 0.220488 0.215926
2198 2 0.182831 0.224976 0.217821
2199 1 0.177053 0.229831 0.220354
8618 3 0.174201 0.357496 0.238757
8617 1 0.16753 0.355435 0.234743
907 1 0.249412 0.420014 0.226069
908 3 0.256112 0.417564 0.221432
909 1 0.262279 0.414649 0.218574
19858 1 0.14149 0.436382 0.219019
19859 2 0.141569 0.438274 0.210849
1325 2 0.076769 0.507704 0.211096
1324 1 0.080451 0.50837 0.217958
8026 1 0.167222 0.606053 0.229995
8027 3 0.167915 0.608822 0.222628
8028 1 0.16865 0.613853 0.215342
9625 1 0.180907 0.804927 0.223042
9626 2 0.18338 0.807715 0.230298
9627 1 0.186538 0.811477 0.23607
18918 1 0.187999 0.81294 0.238253
4237 1 0.283413 0.80692 0.231325
4238 2 0.27969 0.812661 0.232483
4239 1 0.276329 0.819657 0.233864
5374 1 0.250023 0.0299815 0.264639
4956 1 0.248814 0.0342003 0.246997
5376 1 0.248669 0.0336793 0.250022
5375 2 0.24874 0.0313173 0.257071
11981 3 0.258105 0.0549275 0.269461
7537 1 0.260666 0.0507617 0.260188
11982 1 0.25964 0.05188 0.26294
7539 1 0.265543 0.0469544 0.245808
7538 2 0.263174 0.0492775 0.252566
14487 1 0.275768 0.0859976 0.261146
14486 2 0.27144 0.0862229 0.25503
16516 1 0.263025 0.0857236 0.246732
14485 1 0.265598 0.0859213 0.248551
14667 1 0.272622 0.107163 0.261527
14665 1 0.262339 0.119665 0.262994
14666 3 0.266668 0.112774 0.261218
11802 1 0.227923 0.173783 0.257296
20944 1 0.252469 0.172975 0.258501
11801 3 0.23026 0.168985 0.251229
20945 3 0.258269 0.167555 0.255058
11800 1 0.234298 0.166938 0.244291
20946 1 0.264979 0.162189 0.25131
12080 2 0.292171 0.297928 0.248151
12081 1 0.288495 0.302734 0.243922
7991 3 0.255394 0.321921 0.268192
7992 1 0.262723 0.324842 0.263476
2787 1 0.289541 0.333671 0.246257
8619 1 0.180895 0.360118 0.242256
21219 1 0.012944 0.379414 0.270101
18247 1 0.282798 0.406093 0.253708
18248 3 0.284331 0.412308 0.250163
6343 1 0.289662 0.420786 0.246438
18249 1 0.287721 0.418359 0.247093
8282 3 0.209187 0.452265 0.256177
8283 1 0.212483 0.44612 0.251972
3134 2 0.0730498 0.479139 0.261436
3133 1 0.0690997 0.485138 0.258215
3135 1 0.0776303 0.474207 0.265008
12931 1 0.0787333 0.472691 0.266724
7553 3 0.201875 0.46505 0.269072
8281 1 0.206111 0.4582 0.261711
7554 1 0.205065 0.460152 0.26429
7885 1 0.0459075 0.499022 0.265731
20741 3 0.214607 0.521778 0.266459
20742 1 0.220248 0.523962 0.261076
4325 3 0.112953 0.554849 0.269338
4324 1 0.120994 0.553823 0.26729
4259 2 0.00705593 0.631191 0.254433
4258 1 0.00947803 0.629039 0.246626
4260 1 0.00774843 0.634607 0.261455
723 1 0.0649612 0.666194 0.258048
722 2 0.0684351 0.659064 0.258407
721 1 0.0731713 0.651341 0.255268
4840 1 0.190296 0.6978 0.244429
4842 1 0.180349 0.71152 0.243684
4841 3 0.185564 0.705066 0.243914
15834 1 0.143278 0.736335 0.25849
15833 2 0.148678 0.743124 0.258554
10147 1 0.156435 0.750972 0.257587
15832 1 0.15472 0.748938 0.257027
10148 3 0.16139 0.757954 0.259184
2138 3 0.16971 0.774474 0.265424
2139 1 0.174085 0.780955 0.267375
2137 1 0.165737 0.76863 0.262316
10149 1 0.164799 0.765742 0.260932
18686 3 0.182258 0.79094 0.257968
18685 1 0.187807 0.785376 0.255988
18687 1 0.176116 0.79626 0.25954
18917 3 0.190896 0.817793 0.24329
19326 1 0.061849 0.0193627 0.295144
19325 3 0.0700244 0.0182939 0.295887
19324 1 0.0782801 0.0200087 0.295882
3790 1 0.223579 0.0263116 0.290471
5083 1 0.254433 0.0148526 0.286574
5085 1 0.241471 0.0217426 0.290852
3792 1 0.238636 0.0227052 0.290889
5084 2 0.247836 0.01882 0.288575
10276 1 0.256629 0.0130201 0.285835
3791 2 0.230937 0.0242357 0.290853
5190 1 0.271927 0.00184726 0.278376
10277 3 0.263285 0.00880129 0.283446
10278 1 0.269217 0.0037178 0.279762
18820 1 0.25417 0.0572628 0.279376
11980 1 0.255034 0.0566271 0.27672
18821 2 0.252313 0.0598164 0.287544
9846 1 0.0608382 0.0724123 0.291678
9657 1 0.0578984 0.0722961 0.292118
9655 1 0.0432605 0.0723669 0.296066
9656 3 0.0504442 0.0719879 0.293319
9845 2 0.0680428 0.0728259 0.291666
9844 1 0.0761651 0.0733671 0.29336
18822 1 0.252373 0.0644972 0.294216
1338 1 0.0502051 0.194469 0.288252
19360 1 0.0521878 0.193212 0.290386
19361 2 0.0580073 0.190412 0.295696
1337 2 0.0460057 0.197892 0.284305
1336 1 0.0438594 0.203381 0.279611
18646 1 0.0306408 0.288348 0.286372
18647 3 0.0279482 0.286984 0.279469
18648 1 0.0263134 0.28397 0.272197
7990 1 0.247819 0.320385 0.271114
21218 3 0.015898 0.376188 0.277802
21217 1 0.0192158 0.376081 0.285808
15931 1 0.143164 0.394711 0.293433
15932 2 0.148026 0.388613 0.293266
15933 1 0.155196 0.382913 0.291262
20119 1 0.128366 0.40737 0.293668
20121 1 0.140876 0.396844 0.293569
20120 3 0.135327 0.40207 0.293117
18645 1 0.292895 0.410598 0.286608
11769 1 0.113831 0.456167 0.277054
9717 1 0.215003 0.454793 0.27295
9715 1 0.213878 0.450686 0.287594
9716 3 0.213865 0.452779 0.280595
9476 3 0.0382111 0.467819 0.298958
9477 1 0.0404397 0.473999 0.293536
15658 1 0.0413514 0.475748 0.29132
15659 2 0.0420674 0.481705 0.285462
15660 1 0.0439791 0.486902 0.2795
12932 2 0.0829019 0.4694 0.272444
12933 1 0.0861064 0.46563 0.277986
11767 1 0.100484 0.461888 0.273562
11768 2 0.106281 0.459037 0.274715
7552 1 0.199641 0.469933 0.274187
7887 1 0.0445215 0.489278 0.277432
7886 3 0.0453651 0.495548 0.272547
5041 1 0.0617226 0.510767 0.276604
5043 1 0.0758428 0.510601 0.283836
5042 3 0.0687447 0.509375 0.279089
17814 1 0.13224 0.504947 0.273778
17813 2 0.139961 0.504441 0.273766
15176 2 0.159144 0.505434 0.273708
15177 1 0.1513 0.505465 0.274959
17812 1 0.148578 0.505231 0.274971
15175 1 0.167234 0.50506 0.271009
15714 1 0.219685 0.510387 0.29236
15712 1 0.234802 0.507975 0.298883
15713 2 0.228457 0.509086 0.295331
20740 1 0.208941 0.518398 0.271606
4326 1 0.104955 0.555147 0.272211
19964 2 0.193991 0.575822 0.290747
19963 1 0.194703 0.569556 0.294045
19965 1 0.191837 0.582923 0.286414
11377 1 0.202302 0.660654 0.289095
11378 3 0.197307 0.665986 0.29042
11379 1 0.191236 0.671051 0.289565
11473 1 0.0142711 0.708759 0.297366
8377 1 0.182271 0.788774 0.296564
6367 1 0.156463 0.808429 0.286746
6368 3 0.162094 0.803199 0.288367
8379 1 0.170881 0.797536 0.291406
6369 1 0.168238 0.799247 0.290887
8378 2 0.177076 0.792724 0.293268
6535 1 0.0462087 0.0210373 0.326031
6536 2 0.0438488 0.0195123 0.318528
6537 1 0.0407349 0.0195262 0.311596
19362 1 0.063307 0.187788 0.302071
9763 1 0.0350657 0.20706 0.316047
9765 1 0.034183 0.199174 0.330014
9764 3 0.0345835 0.203354 0.323777
14899 1 0.157439 0.330906 0.325578
14901 1 0.172702 0.330488 0.321715
14900 2 0.164882 0.332145 0.323164
403 1 0.201916 0.320588 0.308919
405 1 0.21652 0.324735 0.309306
404 3 0.209246 0.322491 0.309471
2148 1 0.27104 0.427527 0.320402
2147 2 0.266839 0.426317 0.327047
9475 1 0.0401007 0.460651 0.303866
10499 3 0.104513 0.516052 0.313269
10498 1 0.109263 0.511717 0.312852
10500 1 0.0982809 0.520241 0.314237
13725 1 0.18506 0.573114 0.328674
11286 1 0.0804388 0.664571 0.324227
11285 3 0.0842673 0.667857 0.328905
11475 1 0.00471423 0.71535 0.306249
11474 3 0.0089771 0.712104 0.301401
19807 1 0.143674 0.726743 0.316561
19808 3 0.151662 0.723053 0.317369
19809 1 0.158144 0.720579 0.315664
14967 1 0.160971 0.71915 0.315088
14965 1 0.177156 0.714887 0.311364
14966 2 0.169883 0.715969 0.313649
14444 3 0.00920218 0.745717 0.310802
14443 1 0.00532443 0.752335 0.310929
14445 1 0.0116054 0.739021 0.314662
15069 1 0.0242888 0.808208 0.303067
15068 2 0.0298117 0.802819 0.302158
15067 1 0.0359578 0.796695 0.301066
5426 3 0.0969157 0.0122756 0.358968
5427 1 0.101034 0.0197132 0.355204
9960 1 0.269849 0.177469 0.35709
9959 3 0.277291 0.179221 0.360073
8827 1 0.132843 0.302218 0.33325
8828 2 0.138231 0.308551 0.33432
8829 1 0.144408 0.314763 0.334091
13183 1 0.0908221 0.420214 0.350113
13184 2 0.0957933 0.420678 0.355434
13185 1 0.101934 0.422476 0.360778
2146 1 0.262691 0.425687 0.333509
6107 2 0.206416 0.435572 0.342376
6106 1 0.214703 0.433919 0.34164
6108 1 0.199199 0.437423 0.343594
1945 1 0.108433 0.467634 0.35735
13724 3 0.182628 0.576178 0.335824
13723 1 0.180136 0.581528 0.340892
20079 1 0.0954967 0.638016 0.346039
20078 3 0.0925891 0.642936 0.340253
20077 1 0.091814 0.648168 0.335333
11284 1 0.0879454 0.671612 0.335162
5425 1 0.0926146 0.00616933 0.361397
10125 1 0.105426 0.025665 0.362474
10124 3 0.104865 0.0276436 0.370635
10123 1 0.104131 0.0323831 0.377416
11547 1 0.212036 0.0339683 0.383738
11546 3 0.217191 0.0396755 0.383995
11545 1 0.221875 0.0463048 0.383393
11940 1 0.25099 0.0710854 0.369021
11939 3 0.252637 0.0785834 0.372606
11938 1 0.252796 0.0858503 0.37538
12159 1 0.0607006 0.121404 0.386807
12158 3 0.0562805 0.126088 0.381691
12157 1 0.0504299 0.130197 0.378743
9958 1 0.285636 0.179756 0.363528
10204 1 0.184408 0.332912 0.379902
10205 2 0.177884 0.33564 0.384116
10206 1 0.172462 0.339574 0.388234
17793 1 0.00414868 0.440606 0.380627
8632 1 0.080503 0.476332 0.393146
1946 3 0.114863 0.467863 0.363781
1947 1 0.120777 0.470048 0.368628
12238 1 0.290629 0.503803 0.37172
6689 3 0.157023 0.547021 0.375229
6688 1 0.162279 0.540283 0.37566
6690 1 0.152953 0.552927 0.37545
16330 1 0.0720125 0.620032 0.392264
18289 1 0.049853 0.698888 0.383746
18290 3 0.0499731 0.693823 0.379405
18291 1 0.0521157 0.688059 0.374895
13997 2 0.0496823 0.707688 0.391324
13996 1 0.0500378 0.701411 0.386077
8956 1 0.0939536 0.781025 0.382832
8957 2 0.0998563 0.777751 0.376919
8958 1 0.106333 0.775432 0.372146
13523 2 0.253027 0.104906 0.426198
13522 1 0.249737 0.101713 0.418165
21285 1 0.0635597 0.191929 0.412542
21283 1 0.0769767 0.185623 0.41711
21284 3 0.0699311 0.188654 0.414198
14685 1 0.0424295 0.261439 0.403959
14684 2 0.0447311 0.268301 0.401179
16150 1 0.259735 0.272651 0.410379
16151 2 0.267863 0.27137 0.410118
16152 1 0.275085 0.270079 0.408866
14683 1 0.0466943 0.275602 0.398001
5444 2 0.101157 0.282576 0.422647
5443 1 0.100092 0.289475 0.419127
5445 1 0.102648 0.275005 0.424997
7451 2 0.250571 0.280774 0.39846
7450 1 0.254509 0.274328 0.396371
7452 1 0.245815 0.286424 0.400105
5843 3 0.125835 0.333343 0.41697
5842 1 0.13068 0.328209 0.414629
15570 1 0.110732 0.359411 0.420171
15569 3 0.114346 0.351429 0.419247
15568 1 0.119208 0.344146 0.418304
5844 1 0.120536 0.341047 0.417793
20377 1 0.0838231 0.465221 0.425832
20378 3 0.0837173 0.467862 0.418386
8634 1 0.082205 0.471566 0.408666
20379 1 0.0826755 0.470553 0.411148
8633 3 0.0811616 0.473875 0.401448
14055 1 0.0960839 0.493492 0.397199
14054 2 0.0991703 0.500817 0.396143
14053 1 0.10171 0.508585 0.396074
19946 3 0.230292 0.541226 0.423396
19945 1 0.229883 0.537854 0.415138
16332 1 0.0591792 0.61712 0.401479
16331 2 0.0664893 0.619504 0.397665
1212 1 0.0247734 0.69989 0.426661
13998 1 0.0482369 0.712411 0.39828
18683 3 0.120444 0.0257604 0.436085
18682 1 0.124839 0.0212965 0.439727
434 2 0.226449 0.00617286 0.455955
435 1 0.229914 0.0128772 0.45302
18684 1 0.116374 0.0316648 0.431278
6230 2 0.133745 0.0734952 0.452508
6229 1 0.135475 0.0690006 0.445724
6231 1 0.134116 0.077668 0.458701
13524 1 0.258073 0.105764 0.432612
9139 1 0.00654064 0.157463 0.452476
9140 2 0.00715122 0.165628 0.455945
19947 1 0.232495 0.543642 0.430335
12383 3 0.0589829 0.581391 0.458978
12384 1 0.0547724 0.582843 0.451632
983 3 0.290321 0.595667 0.454055
982 1 0.284139 0.591515 0.450174
1210 1 0.027353 0.702287 0.442037
1211 3 0.0246313 0.701932 0.433975
9141 1 0.00563447 0.173407 0.459598
1283 3 0.216155 0.211577 0.478522
1284 1 0.21766 0.208464 0.485874
1282 1 0.215046 0.215687 0.470911
4569 1 0.248621 0.302713 0.486542
12382 1 0.0616181 0.581243 0.466111
21460 1 0.261492 0.656764 0.487643
1158 1 0.0609466 0.712787 0.46333
1156 1 0.0705756 0.712015 0.478795
1157 2 0.0652618 0.71202 0.471734
4744 1 0.0971406 0.0228499 0.524344
4745 3 0.101264 0.0178361 0.519799
4746 1 0.106089 0.0133593 0.516172
17355 1 0.130366 0.118346 0.493305
17353 1 0.133802 0.132998 0.492888
17354 3 0.131713 0.126229 0.493938
552 1 0.179573 0.145955 0.519762
2866 1 0.215623 0.130701 0.497525
2867 3 0.222397 0.131997 0.496939
2868 1 0.229568 0.134945 0.495663
7524 1 0.273919 0.193345 0.514018
7523 3 0.272696 0.199156 0.508895
7522 1 0.269708 0.205557 0.503897
12433 1 0.227773 0.263496 0.508288
12435 1 0.232191 0.24702 0.512899
12434 3 0.231001 0.254735 0.510601
4568 2 0.253137 0.305099 0.492415
4567 1 0.257127 0.309095 0.497969
7945 1 0.258299 0.310454 0.500165
7947 1 0.265215 0.318897 0.511415
7946 2 0.262162 0.314743 0.505583
6730 1 0.240719 0.422154 0.495409
6732 1 0.232672 0.433983 0.503051
6731 3 0.236185 0.427935 0.498611
11141 2 0.0114187 0.537914 0.519582
11140 1 0.0138039 0.540484 0.513157
21462 1 0.25595 0.666807 0.497515
21461 2 0.258581 0.661432 0.492928
7053 1 0.286225 0.692436 0.492821
8631 1 0.0829869 0.755145 0.523227
17166 1 0.252276 0.830625 0.00257676
1858 1 0.240699 0.892074 0.0247533
1859 3 0.248057 0.887073 0.0281932
10408 1 0.275995 0.885517 0.0232659
4930 1 0.265126 0.880496 0.00783313
10409 3 0.271262 0.884411 0.0167495
10410 1 0.266733 0.881549 0.0106822
1065 1 0.172062 0.937354 0.0238518
1064 2 0.167448 0.941375 0.0270517
20154 1 0.00589935 0.825662 0.0388944
14882 3 0.155359 0.823005 0.0553519
8054 3 0.289656 0.853427 0.0424508
1860 1 0.252904 0.881063 0.0314984
3198 1 0.25517 0.878659 0.0322788
3197 2 0.261299 0.874272 0.0351708
9199 1 0.281414 0.860394 0.0442838
8053 1 0.283253 0.858733 0.0440563
3196 1 0.267313 0.869929 0.0380751
9201 1 0.269485 0.868558 0.0393313
9200 2 0.275923 0.866005 0.0425464
1063 1 0.162278 0.944455 0.0320328
15486 1 0.0476589 0.825006 0.0893175
8580 1 0.159192 0.829199 0.0641778
14881 1 0.157951 0.827473 0.0618999
8579 2 0.161648 0.834411 0.0703043
8578 1 0.164885 0.838916 0.0761928
6258 1 0.0977938 0.955204 0.0626332
6257 2 0.10032 0.954195 0.0703448
6256 1 0.103976 0.951333 0.0757586
18512 2 0.110291 0.948153 0.085566
18513 1 0.105644 0.950809 0.0779834
18511 1 0.115958 0.946072 0.0912495
11614 1 0.176666 0.932602 0.075166
11615 3 0.178076 0.940349 0.0791534
11616 1 0.178327 0.947561 0.0829881
7083 1 0.218651 0.979001 0.0718639
7082 3 0.221848 0.984722 0.0758489
7081 1 0.227274 0.990376 0.0779633
3637 1 0.167079 0.848485 0.123417
15465 1 0.240279 0.844991 0.116782
15464 2 0.243239 0.851768 0.114797
15463 1 0.248241 0.856369 0.112067
3119 3 0.256097 0.861074 0.107098
3118 1 0.250807 0.857747 0.110644
3120 1 0.262181 0.863956 0.103476
21088 1 0.118477 0.945798 0.0932977
21089 3 0.124609 0.945039 0.0977091
21090 1 0.130425 0.944057 0.10245
6514 1 0.128198 0.978709 0.112904
6515 2 0.134278 0.977434 0.118428
6516 1 0.139617 0.976393 0.123438
3639 1 0.163192 0.834275 0.129171
3638 2 0.165559 0.841704 0.125565
13327 1 0.123814 0.865198 0.152134
13328 2 0.123008 0.868147 0.145017
13329 1 0.122655 0.873681 0.13892
17916 1 0.218574 0.909646 0.147795
6977 3 0.146049 0.978092 0.132971
6978 1 0.153104 0.977017 0.1382
6976 1 0.141673 0.976556 0.125858
21323 2 0.028534 0.827561 0.167363
21322 1 0.0206171 0.827143 0.169264
21324 1 0.0364674 0.827519 0.16613
1497 1 0.21163 0.852777 0.180686
1496 2 0.21082 0.860322 0.182893
1495 1 0.21006 0.867946 0.183809
17915 2 0.216812 0.913747 0.155583
17914 1 0.215727 0.916765 0.16332
4138 1 0.00308296 0.835092 0.19246
4139 3 0.009327 0.832783 0.188476
4140 1 0.0163902 0.830329 0.18647
4090 1 0.0231393 0.875559 0.213526
4091 3 0.0155401 0.874593 0.215096
3760 1 0.126656 0.962884 0.206431
3761 3 0.12143 0.961559 0.211443
3579 1 0.146701 0.944878 0.198319
3578 3 0.14892 0.951774 0.199972
3577 1 0.150807 0.959344 0.201761
6211 1 0.120864 0.854344 0.235286
6213 1 0.113795 0.8546 0.22105
6212 2 0.117368 0.853912 0.227968
5343 1 0.273239 0.836947 0.238843
5341 1 0.275662 0.822803 0.234316
5342 3 0.273972 0.829176 0.236008
4092 1 0.00758828 0.873716 0.217097
7097 2 0.248599 0.902445 0.225935
7096 1 0.246507 0.900559 0.218185
7322 3 0.248511 0.903952 0.244573
7323 1 0.249578 0.902743 0.236958
7098 1 0.249493 0.9026 0.23394
3762 1 0.11621 0.957636 0.216596
18916 1 0.194182 0.822836 0.24848
9907 1 0.18135 0.925057 0.262982
7321 1 0.246631 0.903648 0.252518
9908 3 0.181934 0.932884 0.26349
9909 1 0.182493 0.940374 0.264513
5189 2 0.278656 0.997253 0.275818
5188 1 0.286647 0.995192 0.271829
14944 1 0.259437 0.974373 0.32125
14945 3 0.267252 0.972734 0.318962
14946 1 0.275941 0.971188 0.316461
4695 1 0.150257 0.95387 0.357289
4694 3 0.149413 0.953833 0.365244
20690 3 9.06189e-05 0.994023 0.341695
20689 1 0.0075748 0.99211 0.343057
14114 3 0.273616 0.974637 0.355263
14113 1 0.265252 0.974938 0.356665
14115 1 0.281632 0.975635 0.354815
4693 1 0.150225 0.953277 0.371978
13819 1 0.188972 0.983304 0.453685
13820 3 0.183026 0.987025 0.45908
18988 1 0.219694 0.99764 0.462304
433 1 0.221767 0.999928 0.460348
4111 1 0.0272155 0.859944 0.47601
6378 1 0.0284084 0.881534 0.492685
6377 2 0.0323562 0.887104 0.488049
4113 1 0.0426429 0.865552 0.472593
4112 2 0.0348575 0.863063 0.473797
6376 1 0.0369146 0.891889 0.485606
2499 1 0.176714 0.990624 0.466533
2498 3 0.172074 0.994685 0.470264
2497 1 0.16616 0.998955 0.475036
13821 1 0.178711 0.989803 0.464973
18989 2 0.215048 0.99196 0.466958
18990 1 0.209803 0.987275 0.470382
17381 2 0.0324374 0.952705 0.517638
17380 1 0.0243068 0.951567 0.514652
17382 1 0.0393095 0.95317 0.522064
12727 1 0.0639793 0.989033 0.507978
12729 1 0.0713978 0.985543 0.520556
12728 3 0.0685348 0.986824 0.513916
6349 1 0.31587 0.020465 0.0206229
6350 3 0.322619 0.0166171 0.0199486
6351 1 0.330819 0.0133102 0.0206577
20749 1 0.395206 0.00692538 0.0292812
20750 3 0.391699 0.00049669 0.0292993
8819 3 0.317618 0.195053 0.0136153
8818 1 0.321168 0.198285 0.0204399
8820 1 0.315803 0.191533 0.00612735
19515 1 0.343768 0.209877 0.0118755
19514 2 0.340153 0.206786 0.00569069
13483 1 0.341706 0.317181 0.0161037
13484 3 0.344968 0.322235 0.0214318
13485 1 0.345221 0.326505 0.0288497
16746 1 0.336683 0.48339 0.0279609
11451 1 0.317207 0.528436 0.0269845
384 1 0.356369 0.546222 0.0273655
382 1 0.360949 0.540846 0.0127805