ITEM: TIMESTEP
40000000
ITEM: NUMBER OF ATOMS
4152
ITEM: BOX BOUNDS pp pp pp
0.0000000000000000e+00 5.0000000000000000e+01
0.0000000000000000e+00 5.0000000000000000e+01
0.0000000000000000e+00 5.0000000000000000e+01
ITEM: ATOMS id type xs ys zs
895 1 0.254068 0.714377 0.210598
1133 3 0.281607 0.720649 0.206769
1134 1 0.281686 0.717705 0.199127
2727 1 0.282578 0.729699 0.185383
2725 1 0.284046 0.737779 0.199249
19887 1 0.266315 0.740162 0.195922
19886 3 0.265441 0.741408 0.204338
20601 1 0.276498 0.758633 0.198658
5457 1 0.277658 0.758812 0.201151
5456 3 0.279699 0.7608 0.208633
2726 3 0.283057 0.734558 0.191503
3299 3 0.286685 0.741206 0.209817
3300 1 0.284622 0.738797 0.202068
20599 1 0.267563 0.755041 0.186424
20600 3 0.272461 0.757741 0.192265
6163 1 0.258662 0.693317 0.234044
6564 1 0.283672 0.687615 0.234215
1285 1 0.284887 0.68894 0.237073
6562 1 0.274031 0.677503 0.224465
6563 3 0.279342 0.682902 0.228802
896 3 0.254685 0.716285 0.218886
897 1 0.252796 0.715367 0.226594
6487 1 0.251944 0.714925 0.229312
6488 3 0.249395 0.713642 0.237669
2922 1 0.272438 0.703044 0.235989
1132 1 0.281292 0.724126 0.214854
3691 1 0.280797 0.725636 0.218328
3692 3 0.280175 0.728798 0.2262
11325 1 0.292367 0.703858 0.221863
11324 2 0.291992 0.707222 0.22891
11323 1 0.293189 0.710258 0.23566
12425 3 0.25587 0.73574 0.23346
12424 1 0.254138 0.732717 0.225895
19343 3 0.291233 0.748546 0.227363
19885 1 0.265464 0.744449 0.211117
3693 1 0.280394 0.731547 0.233745
17994 1 0.280462 0.732603 0.23626
21238 1 0.265037 0.7456 0.213448
21239 3 0.264834 0.74919 0.220012
21240 1 0.264851 0.753096 0.226605
3043 1 0.264275 0.754471 0.229323
3044 2 0.263831 0.758434 0.236019
19342 1 0.291427 0.751452 0.235172
13969 1 0.291284 0.752476 0.237777
3298 1 0.289198 0.744206 0.217495
19344 1 0.289972 0.745284 0.22014
17664 1 0.279913 0.765941 0.218206
5455 1 0.27986 0.764451 0.215833
17663 2 0.279489 0.769716 0.224969
17662 1 0.278984 0.773284 0.233651
2829 1 0.27901 0.773637 0.23663
20941 1 0.290433 0.802052 0.240708
15984 1 0.245832 0.660708 0.263448
15983 2 0.24128 0.663613 0.269009
11037 1 0.26431 0.652622 0.261942
11036 3 0.262265 0.655838 0.267883
6164 2 0.258646 0.69175 0.241765
21271 1 0.237566 0.685521 0.25781
21272 2 0.234258 0.688896 0.263941
6165 1 0.258087 0.689862 0.248441
20017 1 0.25779 0.688979 0.25189
21273 1 0.232166 0.69424 0.26905
9666 1 0.231822 0.696097 0.270846
20019 1 0.255033 0.693754 0.266017
4638 1 0.254004 0.695105 0.268795
20018 2 0.256099 0.690355 0.258865
1287 1 0.285641 0.695047 0.252829
12686 2 0.276941 0.680103 0.263931
12687 1 0.281599 0.677846 0.257368
19255 1 0.28569 0.696438 0.255186
1286 2 0.286643 0.691529 0.244685
12685 1 0.274536 0.683198 0.270493
6489 1 0.248196 0.713578 0.245834
1440 1 0.248056 0.714682 0.248477
1439 2 0.246967 0.718612 0.256031
1438 1 0.244852 0.721223 0.26316
5022 1 0.244692 0.722493 0.265643
15939 1 0.290394 0.720073 0.251734
9569 2 0.288928 0.723193 0.262163
9568 1 0.289788 0.721229 0.254615
2921 2 0.272857 0.706856 0.243303
19256 2 0.283625 0.700365 0.261484
19257 1 0.281934 0.705495 0.268225
9570 1 0.286723 0.725348 0.269799
18440 2 0.268978 0.715548 0.257315
2920 1 0.272183 0.710063 0.250069
18439 1 0.271283 0.711424 0.252806
18441 1 0.267599 0.719421 0.263289
8304 1 0.267104 0.721148 0.265496
15938 2 0.292562 0.715805 0.245541
12834 1 0.280821 0.707021 0.270291
2304 1 0.188849 0.75239 0.265831
16960 1 0.220496 0.733342 0.249632
16961 2 0.221504 0.738357 0.255512
2302 1 0.203539 0.748464 0.265327
2303 2 0.195879 0.750284 0.266123
19526 2 0.224205 0.75138 0.270762
16962 1 0.222535 0.744239 0.261828
19525 1 0.223065 0.746155 0.264038
12426 1 0.256376 0.736674 0.240999
14919 1 0.241178 0.747799 0.246635
16255 1 0.25665 0.737065 0.243243
16257 1 0.257538 0.739801 0.258836
20878 1 0.256928 0.741074 0.261153
20879 2 0.253778 0.745304 0.268028
16256 2 0.258765 0.738671 0.25064
14918 2 0.239405 0.752898 0.252834
14917 1 0.23983 0.757857 0.259
8319 1 0.239531 0.759772 0.260907
17993 2 0.280335 0.734738 0.243795
17992 1 0.278756 0.737579 0.250521
1902 1 0.278197 0.738492 0.253503
1901 2 0.276011 0.741814 0.260357
3045 1 0.263232 0.761085 0.242757
1900 1 0.275158 0.74462 0.267178
10191 1 0.274545 0.745726 0.269834
13970 2 0.288509 0.755183 0.245589
13971 1 0.28598 0.757672 0.25288
2983 1 0.285315 0.758501 0.255578
5171 2 0.212428 0.770933 0.268352
5170 1 0.212216 0.765586 0.261465
8318 2 0.239338 0.765592 0.267271
12677 2 0.259395 0.764063 0.252248
12676 1 0.256594 0.765967 0.259568
19743 1 0.256456 0.766441 0.262209
17650 1 0.260151 0.788596 0.254973
19742 2 0.258629 0.768497 0.270751
2828 2 0.277902 0.77571 0.245003
12678 1 0.262322 0.761735 0.245844
2984 2 0.283626 0.761305 0.263271
2827 1 0.27868 0.77961 0.252153
15142 1 0.278763 0.780986 0.25498
15143 2 0.276971 0.784716 0.261297
15144 1 0.27521 0.788077 0.26845
2985 1 0.282028 0.764803 0.270218
17651 2 0.255135 0.792806 0.259705
17652 1 0.252505 0.795663 0.266169
16737 1 0.251903 0.796797 0.268438
9785 2 0.283893 0.807003 0.260087
9786 1 0.287951 0.802466 0.255802
9784 1 0.278884 0.810746 0.264637
18793 1 0.277165 0.812059 0.266561
15982 1 0.238479 0.667417 0.274453
9919 1 0.256704 0.669244 0.289469
9920 2 0.259901 0.666494 0.283774
138 1 0.237937 0.66928 0.276887
11035 1 0.261401 0.660364 0.274707
9921 1 0.261026 0.662309 0.277207
20535 1 0.289331 0.663359 0.280365
20534 2 0.285915 0.66634 0.286914
577 1 0.290791 0.662277 0.277934
20533 1 0.283063 0.668895 0.293406
19900 1 0.255565 0.670834 0.291785
136 1 0.23803 0.681226 0.287452
137 2 0.237863 0.674991 0.281778
6051 1 0.238485 0.683564 0.290055
6050 2 0.238528 0.689386 0.295944
19901 2 0.252035 0.674085 0.298348
4637 2 0.25237 0.698013 0.276299
17596 1 0.273391 0.68437 0.273611
10831 1 0.282154 0.66991 0.295875
16313 2 0.286854 0.694247 0.298128
21074 2 0.264122 0.693831 0.296138
21073 1 0.26701 0.691275 0.289112
17598 1 0.267902 0.690123 0.286647
17597 2 0.269992 0.686664 0.279689
10832 2 0.278168 0.673998 0.30058
16312 1 0.288673 0.692569 0.290289
13914 1 0.289667 0.691585 0.287325
13913 2 0.291915 0.689107 0.280213
8926 1 0.221145 0.727327 0.275569
9916 1 0.224367 0.71946 0.295554
18459 1 0.223447 0.720805 0.297655
9917 2 0.225875 0.714485 0.291168
19621 1 0.200376 0.722174 0.299117
9918 1 0.228199 0.709981 0.284836
9665 2 0.231083 0.702864 0.276541
9664 1 0.229123 0.708221 0.282915
4636 1 0.251202 0.7021 0.283508
1054 1 0.250545 0.703934 0.285697
1055 2 0.250028 0.709519 0.291554
1056 1 0.247082 0.713519 0.297886
16126 1 0.246091 0.714595 0.299981
5021 2 0.244401 0.725346 0.272218
5020 1 0.24273 0.728599 0.279512
2160 1 0.241549 0.729674 0.281619
8302 1 0.263017 0.72881 0.279185
12833 2 0.278433 0.709544 0.277262
12832 1 0.275923 0.711673 0.286113
19713 1 0.275167 0.712611 0.288711
19712 2 0.271839 0.714369 0.296033
8303 2 0.265491 0.72532 0.273083
17439 1 0.286362 0.726063 0.272247
3838 1 0.262258 0.730026 0.28169
17438 2 0.284527 0.729378 0.27908
3804 1 0.290979 0.719662 0.299821
8927 2 0.219342 0.733121 0.280029
8928 1 0.217581 0.739216 0.284751
7386 1 0.216346 0.740948 0.286215
7385 2 0.212444 0.74564 0.292635
4071 1 0.226119 0.758789 0.277205
19527 1 0.225696 0.757 0.274638
7384 1 0.209328 0.749645 0.299115
20880 1 0.25158 0.749168 0.274843
1936 1 0.250203 0.750828 0.277888
2159 2 0.238879 0.73364 0.288113
1937 2 0.247794 0.754269 0.28373
1938 1 0.244828 0.7593 0.291309
3840 1 0.25889 0.736753 0.294329
15678 1 0.244321 0.760848 0.293875
2158 1 0.236802 0.737536 0.294859
3839 2 0.260133 0.733299 0.287586
9106 1 0.236387 0.739175 0.29697
14013 1 0.25848 0.738577 0.296961
20105 2 0.292718 0.753889 0.285167
20104 1 0.290682 0.756557 0.292
17437 1 0.281018 0.731674 0.285509
11650 1 0.279674 0.733111 0.287919
11651 2 0.278531 0.737462 0.294871
10190 2 0.27331 0.748861 0.276133
10189 1 0.271594 0.751727 0.282377
10185 1 0.2708 0.752973 0.284863
10184 2 0.267521 0.756915 0.290824
10183 1 0.265919 0.760497 0.297427
17043 1 0.29 0.757726 0.294562
4070 2 0.226372 0.763293 0.283907
4069 1 0.225085 0.766931 0.290524
9237 1 0.202367 0.767922 0.296109
9236 2 0.197753 0.772847 0.300379
2752 1 0.224615 0.768099 0.292945
5172 1 0.212265 0.775709 0.274237
7768 1 0.21234 0.777762 0.276604
7769 2 0.212761 0.782454 0.283033
7770 1 0.212428 0.785894 0.289111
1198 1 0.21248 0.78732 0.291586
2753 2 0.222614 0.770416 0.29945
1199 2 0.21188 0.790887 0.297855
8317 1 0.238317 0.771569 0.272568
6651 1 0.23783 0.773451 0.274902
6650 2 0.236629 0.77906 0.280182
6649 1 0.235158 0.783791 0.286284
14764 1 0.234475 0.785856 0.28867
18861 1 0.257299 0.777728 0.293084
18261 1 0.256707 0.778861 0.295768
14765 2 0.233371 0.789917 0.294921
18860 2 0.258174 0.775136 0.286188
18859 1 0.258566 0.771765 0.280187
19741 1 0.25847 0.770675 0.277545
16560 1 0.274239 0.789809 0.270955
20065 1 0.281451 0.767149 0.273098
20066 2 0.280774 0.770903 0.279276
20067 1 0.279495 0.774312 0.286984
6271 1 0.278916 0.775606 0.289282
6272 2 0.277735 0.778787 0.295711
2127 1 0.265115 0.761481 0.300084
16735 1 0.24682 0.801008 0.282814
13761 1 0.233922 0.817314 0.289999
13760 3 0.235693 0.816062 0.297534
16736 2 0.249004 0.800356 0.275603
1450 1 0.268126 0.821909 0.280121
15840 1 0.292005 0.792833 0.279143
16559 2 0.2713 0.79345 0.277044
16558 1 0.268224 0.7953 0.284338
18794 2 0.272543 0.816799 0.271934
18795 1 0.26911 0.820685 0.278221
2122 1 0.291094 0.7942 0.281481
11508 1 0.285993 0.80246 0.296221
8577 1 0.267612 0.795864 0.286861
8576 2 0.266113 0.798471 0.294271
2124 1 0.286453 0.800703 0.293333
2123 2 0.288574 0.79697 0.287636
8575 1 0.265246 0.802867 0.300528
3768 1 0.293273 0.639087 0.303052
3766 1 0.290197 0.651856 0.313569
3767 2 0.292472 0.646042 0.30789
6049 1 0.23742 0.695545 0.301758
7852 1 0.237024 0.698019 0.303847
19902 1 0.24815 0.678149 0.304789
17440 1 0.246801 0.679303 0.307641
17441 2 0.244359 0.682118 0.31458
17442 1 0.241024 0.685072 0.320819
5896 1 0.239779 0.686287 0.323188
5897 2 0.235976 0.690718 0.329151
14646 1 0.260572 0.697255 0.304456
12077 3 0.258693 0.689898 0.330285
21075 1 0.261772 0.696129 0.302108
7281 1 0.29002 0.687775 0.325904
8305 1 0.29158 0.686717 0.324078
16314 1 0.284228 0.697127 0.305293
2187 1 0.283032 0.698596 0.307907
16376 2 0.267246 0.682571 0.31414
10833 1 0.273256 0.677377 0.306133
16375 1 0.271795 0.678288 0.308131
16377 1 0.263051 0.686084 0.32023
12076 1 0.261889 0.687237 0.322297
19623 1 0.194317 0.728729 0.312403
19622 3 0.197762 0.724144 0.3059
18458 2 0.220207 0.723901 0.303614
18457 1 0.216595 0.729121 0.309536
2141 2 0.223804 0.713697 0.322655
2140 1 0.227761 0.709644 0.317537
2142 1 0.219819 0.716785 0.328532
450 1 0.218736 0.717529 0.330842
14645 2 0.257412 0.701644 0.311447
7853 3 0.233518 0.70304 0.309938
7854 1 0.229403 0.708039 0.3156
16127 2 0.243698 0.719725 0.305031
19241 2 0.247895 0.709829 0.324795
14644 1 0.253452 0.705635 0.317352
19242 1 0.25195 0.706798 0.319199
16128 1 0.242064 0.72413 0.310734
21583 1 0.241274 0.725851 0.312922
8765 2 0.259421 0.730197 0.325568
19240 1 0.244683 0.714003 0.330001
1959 1 0.289996 0.720445 0.302459
1958 2 0.288416 0.722412 0.309691
19711 1 0.268959 0.717946 0.301645
6778 1 0.267794 0.719616 0.303678
2186 2 0.279127 0.702025 0.314369
2185 1 0.275911 0.705778 0.320724
1957 1 0.286587 0.725282 0.316713
13713 1 0.274797 0.706709 0.323087
13712 2 0.27088 0.711405 0.328232
6779 2 0.265 0.722092 0.310135
6780 1 0.262749 0.725308 0.316297
8764 1 0.261771 0.727211 0.318916
19122 1 0.28543 0.726521 0.319459
19121 2 0.28275 0.729766 0.325625
13836 1 0.193247 0.730959 0.313772
13835 2 0.189434 0.737144 0.317791
359 3 0.179256 0.747098 0.330299
358 1 0.183459 0.742501 0.325591
13834 1 0.185403 0.740983 0.323558
21105 1 0.215219 0.731248 0.311616
21104 2 0.213662 0.736351 0.316874
8779 1 0.207734 0.751238 0.301854
21103 1 0.210117 0.741934 0.322029
8780 2 0.204817 0.754511 0.307673
8781 1 0.200926 0.758519 0.313205
14915 2 0.226784 0.756832 0.31767
4575 1 0.199334 0.759822 0.314869
108 1 0.209063 0.743332 0.32343
107 2 0.205721 0.747174 0.329454
21584 2 0.238075 0.730892 0.318132
14914 1 0.23052 0.752556 0.312185
9108 1 0.231885 0.75093 0.310136
9107 2 0.233949 0.745228 0.303566
14011 1 0.252187 0.747334 0.309102
16140 1 0.251646 0.748946 0.311842
14012 2 0.25586 0.742868 0.303563
16139 2 0.248892 0.754 0.318453
21585 1 0.234366 0.735484 0.322234
16138 1 0.245865 0.757757 0.323834
13119 1 0.233049 0.737022 0.324605
5674 1 0.244434 0.759052 0.326813
4915 1 0.290895 0.74986 0.326911
17042 2 0.288856 0.761189 0.301124
11652 1 0.277073 0.741125 0.301487
13744 1 0.276652 0.742797 0.304099
13745 2 0.274464 0.74701 0.311705
13746 1 0.271258 0.750748 0.317564
17317 1 0.269884 0.751855 0.320029
17318 2 0.266995 0.754431 0.326026
502 1 0.290016 0.750855 0.329853
4573 1 0.189827 0.766319 0.324803
16868 2 0.189233 0.785644 0.311313
16867 1 0.18679 0.790555 0.316692
16869 1 0.192669 0.781313 0.305693
1162 1 0.188375 0.767522 0.326371
4574 2 0.195056 0.76279 0.321076
9235 1 0.193719 0.779285 0.304061
14916 1 0.223392 0.76144 0.323584
2754 1 0.219155 0.773993 0.305809
285 1 0.217927 0.774907 0.307714
284 2 0.213559 0.777461 0.313207
283 1 0.209317 0.779351 0.319741
3673 1 0.207567 0.780361 0.322267
6676 1 0.221905 0.762909 0.325789
3674 2 0.20458 0.784271 0.329012
15677 2 0.24303 0.765889 0.300986
15676 1 0.240014 0.770632 0.30778
19363 1 0.239059 0.772567 0.30971
18260 2 0.254754 0.78284 0.303231
19364 2 0.235958 0.776925 0.315227
19365 1 0.233863 0.780204 0.321681
14043 1 0.232813 0.780795 0.324663
18259 1 0.251539 0.786925 0.310016
11019 1 0.25061 0.788722 0.312431
19217 2 0.260238 0.774826 0.321974
19216 1 0.256838 0.777847 0.328341
16280 2 0.291122 0.787168 0.323388
19218 1 0.262115 0.771701 0.315143
2125 1 0.262003 0.769947 0.31271
17041 1 0.2855 0.763858 0.308026
6273 1 0.275378 0.783947 0.302357
1743 1 0.284601 0.764549 0.310871
2126 2 0.263856 0.765078 0.306663
1742 2 0.283142 0.766961 0.318135
1741 1 0.281479 0.770457 0.325713
5772 1 0.280817 0.771936 0.328403
6177 1 0.274636 0.785552 0.305031
6176 2 0.273252 0.788198 0.312234
6175 1 0.271669 0.791563 0.318987
16279 1 0.289297 0.790767 0.331059
2484 1 0.186198 0.792167 0.319423
2483 2 0.183199 0.795183 0.325586
21582 1 0.218791 0.812996 0.315772
21581 2 0.217937 0.820624 0.317605
10916 2 0.20014 0.809402 0.328537
10917 1 0.202197 0.804825 0.322738
1200 1 0.209638 0.794804 0.305225
16791 1 0.203333 0.803057 0.320957
16789 1 0.208449 0.796131 0.308262
16790 2 0.206365 0.798406 0.315194
19484 2 0.224254 0.80224 0.329472
19485 1 0.225958 0.800365 0.32252
6981 1 0.226398 0.799601 0.31928
6980 2 0.227332 0.796349 0.312112
7311 1 0.2401 0.818414 0.328292
12150 1 0.240588 0.817057 0.325428
14766 1 0.231429 0.793106 0.301704
11018 2 0.249094 0.793194 0.3189
13759 1 0.238275 0.815181 0.305839
6979 1 0.23028 0.793965 0.305203
12148 1 0.239298 0.81462 0.308586
12149 2 0.240783 0.814833 0.317566
11017 1 0.247238 0.795683 0.326863
3680 2 0.260655 0.815294 0.328411
11251 1 0.24659 0.796913 0.328827
11507 2 0.284985 0.807001 0.303258
16878 1 0.2705 0.793007 0.321863
16877 2 0.269019 0.79647 0.328885
3681 1 0.262238 0.813001 0.321123
13573 1 0.262936 0.811697 0.318515
13575 1 0.264373 0.804101 0.303803
11506 1 0.282272 0.808893 0.31082
12 1 0.281767 0.809376 0.314014
13574 2 0.263734 0.80735 0.311516
11 2 0.281562 0.811104 0.321546
10 1 0.280293 0.814486 0.329354
5898 1 0.232518 0.696147 0.334697
4487 2 0.250858 0.699495 0.345754
5808 1 0.230767 0.69784 0.336753
4486 1 0.254579 0.695692 0.339954
12078 1 0.255799 0.694349 0.337386
7280 2 0.286147 0.691111 0.331522
7279 1 0.282293 0.693268 0.338409
5871 1 0.280962 0.694497 0.34057
5870 2 0.276627 0.698057 0.345996
7517 2 0.182764 0.728065 0.359881
7518 1 0.181164 0.723394 0.353846
7058 2 0.220739 0.707907 0.357325
3549 1 0.206085 0.729233 0.360575
5807 2 0.227034 0.700635 0.341831
7059 1 0.222485 0.704117 0.350628
5806 1 0.223407 0.703131 0.348255
3547 1 0.212404 0.72273 0.348115
448 1 0.213976 0.722094 0.345019
449 2 0.216989 0.720266 0.337623
3548 2 0.208713 0.72515 0.354801
21149 2 0.254055 0.728406 0.358589
12935 2 0.241794 0.710473 0.358482
4488 1 0.247335 0.703678 0.350912
12934 1 0.245868 0.705548 0.352621
7816 1 0.243475 0.715707 0.331529
7818 1 0.235432 0.722625 0.342961
7817 2 0.240029 0.719532 0.337315
2449 1 0.234264 0.724343 0.345313
2450 2 0.231042 0.729448 0.350944
21148 1 0.257544 0.724084 0.351854
14836 1 0.258611 0.722516 0.34947
21593 2 0.265546 0.703768 0.360356
21594 1 0.269511 0.701216 0.354729
5869 1 0.27125 0.700312 0.352464
20309 2 0.286593 0.719264 0.345489
13711 1 0.266284 0.714734 0.333664
14838 1 0.265019 0.7158 0.336139
20310 1 0.282541 0.721058 0.353149
15054 1 0.281058 0.721335 0.356345
14837 2 0.261507 0.718448 0.343176
20308 1 0.290098 0.716622 0.337726
11212 1 0.291384 0.715809 0.335478
360 1 0.174248 0.751723 0.335384
12882 1 0.198362 0.752612 0.359341
17521 1 0.198439 0.752311 0.356204
2451 1 0.227998 0.734006 0.356959
11722 1 0.226951 0.736079 0.35971
10543 1 0.220694 0.756118 0.355002
17522 2 0.198996 0.751032 0.347123
17523 1 0.201549 0.748644 0.339969
106 1 0.202933 0.748152 0.337166
5850 1 0.221965 0.754166 0.352629
5849 2 0.224535 0.750209 0.346379
5848 1 0.226873 0.745272 0.34107
13117 1 0.227722 0.743302 0.338848
10544 2 0.217715 0.760946 0.360562
8766 1 0.25476 0.734421 0.331284
16992 1 0.253505 0.735716 0.333396
4837 1 0.249547 0.744756 0.350024
16990 1 0.25008 0.743303 0.346843
13118 2 0.22965 0.739703 0.331703
16991 2 0.251035 0.739718 0.339623
4838 2 0.247937 0.749216 0.356986
323 2 0.269192 0.747406 0.358188
3935 2 0.290041 0.74284 0.355171
19120 1 0.279554 0.73285 0.333512
17073 1 0.278291 0.734089 0.336087
17319 1 0.264742 0.757505 0.332554
190 1 0.263866 0.758698 0.334981
503 2 0.287664 0.754962 0.335862
504 1 0.285656 0.757697 0.343624
17072 2 0.275122 0.737962 0.341669
322 1 0.271198 0.743479 0.350402
17071 1 0.272382 0.741864 0.347977
12532 1 0.28466 0.759299 0.346518
20333 3 0.141459 0.791479 0.3604
5791 1 0.154222 0.787282 0.338918
20334 1 0.14505 0.786621 0.354797
9767 3 0.162684 0.785518 0.360916
15926 3 0.18922 0.775041 0.3584
11598 1 0.176232 0.76313 0.359172
9768 1 0.167582 0.783332 0.354916
1163 2 0.183697 0.771868 0.331502
10653 1 0.169576 0.782233 0.352915
10652 3 0.174288 0.780208 0.346821
10651 1 0.177654 0.777461 0.340279
1164 1 0.179072 0.776328 0.3379
15925 1 0.194544 0.773909 0.352622
6677 2 0.216862 0.766853 0.332648
7267 1 0.19673 0.773025 0.351077
3675 1 0.202933 0.78791 0.336192
5881 1 0.201885 0.789222 0.339326
7268 2 0.201987 0.770906 0.346128
6678 1 0.210495 0.769057 0.338177
7269 1 0.20814 0.769585 0.339966
14204 2 0.225005 0.788152 0.34874
14203 1 0.221588 0.789753 0.354814
10935 1 0.219952 0.790623 0.356912
19699 1 0.245981 0.7914 0.360957
5675 2 0.242786 0.762647 0.334525
14205 1 0.22883 0.785125 0.342959
6365 2 0.259343 0.767549 0.358993
15790 1 0.235866 0.771377 0.358756
14042 2 0.231758 0.781855 0.331763
14041 1 0.22971 0.784488 0.340248
4132 1 0.255626 0.779086 0.331084
19700 2 0.247707 0.789353 0.354158
19701 1 0.249345 0.786341 0.346562
15791 2 0.237752 0.769894 0.351523
4134 1 0.2498 0.785283 0.343331
5676 1 0.239597 0.76571 0.34119
15792 1 0.238989 0.767038 0.343861
4133 2 0.251686 0.782069 0.337042
6364 1 0.260642 0.766154 0.350962
7941 1 0.29141 0.781589 0.354587
191 2 0.261864 0.763231 0.342076
12533 2 0.282186 0.76285 0.353736
5895 1 0.268539 0.784816 0.356934
5771 2 0.277455 0.774685 0.335325
192 1 0.261172 0.765437 0.348422
5893 1 0.273225 0.778552 0.34368
5894 2 0.270813 0.782418 0.349354
5770 1 0.27436 0.777784 0.341536
4074 1 0.268213 0.785305 0.359943
7245 1 0.291769 0.780121 0.351177
12534 1 0.280645 0.764835 0.360502
5419 1 0.149998 0.815212 0.360615
5420 3 0.149559 0.808528 0.355908
5421 1 0.15016 0.802322 0.349386
5793 1 0.150623 0.800138 0.347704
5792 3 0.152718 0.794006 0.342848
20583 1 0.171457 0.819247 0.33571
11855 3 0.181846 0.804721 0.34267
2482 1 0.181728 0.797707 0.332899
11854 1 0.181295 0.799336 0.335556
20376 1 0.181077 0.811735 0.35104
20375 3 0.179862 0.815001 0.356981
11856 1 0.18141 0.809948 0.348771
892 1 0.195328 0.794879 0.35545
5882 2 0.197918 0.791688 0.346477
6459 1 0.197187 0.817172 0.335601
10915 1 0.198383 0.814958 0.333859
19483 1 0.220617 0.804386 0.335691
5883 1 0.196002 0.794036 0.353222
10806 1 0.218972 0.805323 0.338517
10804 1 0.211782 0.810049 0.351441
18759 1 0.210151 0.811344 0.353136
18758 3 0.204875 0.815593 0.357377
10805 2 0.215882 0.807172 0.344548
5054 2 0.258103 0.821154 0.346356
5055 1 0.255776 0.821679 0.35444
1168 1 0.25491 0.822097 0.356763
3679 1 0.259079 0.818885 0.335146
18294 1 0.24195 0.804952 0.345503
18293 2 0.240649 0.808191 0.352447
11253 1 0.242908 0.803836 0.342154
18292 1 0.238519 0.811989 0.358935
11252 2 0.243949 0.801973 0.335236
5053 1 0.258741 0.819835 0.337781
8573 2 0.287285 0.794415 0.340139
21386 2 0.275709 0.821284 0.359174
11926 1 0.266584 0.798999 0.339883
8572 1 0.286206 0.798128 0.346527
21387 1 0.277993 0.818783 0.35129
5774 2 0.282712 0.801587 0.357098
16876 1 0.267142 0.797934 0.336627
11928 1 0.262208 0.802908 0.354132
13706 2 0.280413 0.817523 0.341504
5773 1 0.28558 0.798888 0.349231
13705 1 0.280016 0.81607 0.332983
13707 1 0.278489 0.818315 0.349112
14784 1 0.261004 0.803736 0.356873
11927 2 0.264455 0.801493 0.347171
8574 1 0.28903 0.791706 0.333707
3076 1 0.244235 0.688547 0.369852
3077 2 0.241735 0.694703 0.374365
3078 1 0.23775 0.699789 0.379039
8562 1 0.281476 0.687246 0.384524
8561 3 0.288172 0.683623 0.380838
16893 1 0.27887 0.688709 0.38569
16892 2 0.272997 0.691887 0.388703
422 3 0.291637 0.698446 0.364177
13974 1 0.149481 0.728286 0.384917
13973 2 0.150907 0.730337 0.3929
17933 2 0.209725 0.712453 0.372673
17932 1 0.205581 0.714313 0.379975
7984 1 0.204298 0.715099 0.38299
17934 1 0.214804 0.711543 0.366114
7985 2 0.201167 0.719219 0.39021
7334 2 0.221157 0.727808 0.385925
7335 1 0.224434 0.724603 0.379785
17244 1 0.225676 0.723199 0.377916
7057 1 0.216586 0.710378 0.363708
17243 2 0.23011 0.719096 0.372136
17242 1 0.235536 0.716039 0.366322
3999 1 0.252645 0.715546 0.38347
14320 1 0.253825 0.713935 0.38099
3998 2 0.249712 0.720743 0.389832
12936 1 0.237608 0.71493 0.363886
14321 2 0.25599 0.709531 0.37512
14322 1 0.259114 0.706896 0.368808
21592 1 0.260725 0.706168 0.366147
2219 2 0.235086 0.706354 0.389091
2220 1 0.236512 0.702038 0.382042
15053 2 0.277071 0.724226 0.362342
14689 1 0.281269 0.710054 0.386627
14690 3 0.283936 0.707189 0.379954
2676 1 0.280098 0.711064 0.388686
115 1 0.27056 0.729598 0.370046
15052 1 0.272645 0.728838 0.368249
423 1 0.288597 0.701938 0.370768
14691 1 0.28697 0.703784 0.373204
9630 1 0.180083 0.733415 0.380712
9629 2 0.173538 0.736755 0.379221
9628 1 0.167466 0.741746 0.378154
5074 1 0.175426 0.755163 0.390122
12880 1 0.195275 0.757047 0.373939
14001 1 0.1947 0.758112 0.375978
7516 1 0.185407 0.732741 0.366231
18561 1 0.205606 0.730964 0.362723
12881 2 0.198159 0.754486 0.366547
18560 2 0.204351 0.734699 0.369265
12670 1 0.197689 0.747122 0.392015
18559 1 0.203086 0.738277 0.376538
12672 1 0.20219 0.739406 0.379191
19030 1 0.219464 0.756132 0.385124
12671 2 0.199494 0.74345 0.386149
19031 2 0.221154 0.751267 0.380107
6541 1 0.218885 0.757887 0.386839
19032 1 0.222056 0.746474 0.374761
11724 1 0.22301 0.744401 0.372193
11723 2 0.225382 0.739964 0.365881
7333 1 0.218285 0.73112 0.392749
11073 1 0.248283 0.732966 0.367624
21150 1 0.249562 0.732003 0.364808
11072 2 0.24535 0.734176 0.374348
11071 1 0.241914 0.736524 0.381243
11659 1 0.240613 0.737801 0.383368
11660 2 0.236408 0.741296 0.389411
18047 2 0.243273 0.757431 0.373684
9119 2 0.255192 0.760538 0.391182
18046 1 0.245935 0.754315 0.366442
9120 1 0.258254 0.757647 0.384141
5859 1 0.259804 0.756224 0.381783
4839 1 0.246862 0.753125 0.364466
18048 1 0.239737 0.760984 0.380039
116 2 0.265756 0.73206 0.376241
117 1 0.262852 0.734807 0.382973
3550 1 0.262345 0.736012 0.385654
3551 2 0.262105 0.739914 0.392666
5858 2 0.263219 0.753017 0.375349
9944 2 0.280795 0.752591 0.388537
9943 1 0.281432 0.750096 0.382115
5329 1 0.28193 0.749884 0.379087
5330 2 0.28388 0.746382 0.372026
5331 1 0.286224 0.744361 0.36506
5857 1 0.265891 0.750092 0.368194
324 1 0.266558 0.74973 0.365471
3934 1 0.287359 0.744275 0.361961
4424 3 0.129721 0.788804 0.386654
4423 1 0.135393 0.784731 0.382011
4507 1 0.142784 0.764885 0.382864
21508 1 0.141944 0.765715 0.385543
21509 3 0.139122 0.76772 0.392755
7901 3 0.155536 0.787575 0.376818
4508 3 0.14579 0.763294 0.375908
7902 1 0.153346 0.789356 0.383992
7900 1 0.157418 0.785973 0.370405
9766 1 0.158654 0.785894 0.367915
10116 1 0.152062 0.789838 0.386658
849 1 0.162464 0.771158 0.392293
4509 1 0.148568 0.762196 0.369067
11596 1 0.170589 0.766074 0.373739
3984 1 0.169238 0.766771 0.376513
3982 1 0.163613 0.770706 0.389644
3983 3 0.166487 0.768996 0.383114
15927 1 0.185834 0.777879 0.365593
2661 1 0.184618 0.779264 0.368549
14000 3 0.193532 0.762224 0.382344
13999 1 0.190652 0.765937 0.388538
2660 3 0.181587 0.782513 0.375198
21201 1 0.188909 0.767354 0.390879
2659 1 0.179339 0.785886 0.38147
12100 1 0.178319 0.787671 0.38381
11597 3 0.174309 0.764062 0.366457
6542 2 0.215985 0.762939 0.392075
19028 2 0.209981 0.773465 0.372646
19027 1 0.205551 0.77744 0.378542
2641 1 0.204065 0.779007 0.380505
2642 3 0.200216 0.783971 0.385585
21320 2 0.22555 0.785034 0.382057
19029 1 0.213024 0.76926 0.367827
2643 1 0.197572 0.789818 0.390299
21319 1 0.222342 0.790436 0.387532
10545 1 0.214278 0.766631 0.365638
21321 1 0.229022 0.780479 0.376465
21139 1 0.23866 0.762623 0.382833
708 1 0.230259 0.778969 0.374312
21140 2 0.236229 0.766946 0.388578
4816 1 0.251984 0.780115 0.384529
2448 1 0.252711 0.778865 0.381995
2447 2 0.255611 0.774724 0.375976
4817 2 0.248627 0.783047 0.391032
2446 1 0.257612 0.770609 0.368876
707 2 0.233199 0.775767 0.368785
6366 1 0.258345 0.769184 0.366163
706 1 0.234937 0.772519 0.36159
12003 1 0.280181 0.765525 0.363865
7940 2 0.290622 0.782599 0.361623
12002 2 0.279495 0.767493 0.370577
12001 1 0.278082 0.769364 0.378998
12117 1 0.27693 0.770139 0.381562
12116 2 0.273003 0.773593 0.387981
4073 2 0.268048 0.787334 0.367247
8096 2 0.286892 0.786586 0.378835
4072 1 0.268275 0.790924 0.37437
8095 1 0.286576 0.79008 0.387339
8097 1 0.28849 0.784191 0.371313
7939 1 0.289286 0.783501 0.368747
4425 1 0.124094 0.792991 0.390961
7896 1 0.122514 0.794232 0.392703
20332 1 0.140249 0.795649 0.36698
2780 3 0.13533 0.814049 0.389514
8339 3 0.138862 0.803228 0.375548
8338 1 0.138086 0.808435 0.380965
2779 1 0.137239 0.810183 0.383363
7810 1 0.156901 0.815486 0.390611
8340 1 0.139867 0.796889 0.369374
7811 3 0.158551 0.811641 0.384197
10115 3 0.150129 0.792371 0.393185
20235 1 0.162609 0.80799 0.375353
7812 1 0.160883 0.809199 0.377872
3189 1 0.149516 0.817332 0.362696
8220 1 0.156478 0.816628 0.393382
20233 1 0.168901 0.805892 0.361838
20234 3 0.166049 0.805791 0.368857
10107 1 0.185549 0.809303 0.384299
10106 3 0.187045 0.80385 0.378246
10105 1 0.188791 0.801376 0.371167
6895 1 0.184678 0.811048 0.386682
894 1 0.19006 0.800299 0.36819
12101 3 0.173594 0.792233 0.389844
6896 3 0.18195 0.815416 0.392893
20374 1 0.176412 0.819029 0.363858
893 3 0.192686 0.797868 0.361903
777 1 0.17569 0.821228 0.366956
10933 1 0.212221 0.797408 0.368844
2715 1 0.211128 0.799069 0.371439
2714 3 0.208705 0.802883 0.377168
2713 1 0.207156 0.807022 0.384104
3210 1 0.206626 0.808615 0.386135
14143 1 0.220796 0.792146 0.38978
3209 3 0.203358 0.814651 0.391511
14470 1 0.197162 0.792052 0.392449
18757 1 0.201349 0.81959 0.362452
20110 1 0.199754 0.821543 0.3649
18878 3 0.228092 0.821151 0.386158
10934 2 0.215701 0.794607 0.362653
20890 1 0.250766 0.814256 0.390611
4582 1 0.245168 0.792734 0.363425
18877 1 0.232065 0.818758 0.379627
14590 1 0.232781 0.817478 0.377125
4583 2 0.242437 0.794991 0.371122
14591 2 0.236001 0.815338 0.369497
4584 1 0.240257 0.798855 0.379032
6093 1 0.239689 0.799312 0.382022
6092 3 0.23827 0.800464 0.388946
16135 1 0.256035 0.809842 0.374817
14782 1 0.256582 0.809096 0.372212
16136 3 0.253851 0.812635 0.381478
16137 1 0.251937 0.81368 0.388062
14592 1 0.237545 0.81294 0.361737
14783 2 0.258665 0.806216 0.364362
13470 1 0.263798 0.796756 0.391673
16628 2 0.274895 0.816107 0.393199
16476 1 0.27853 0.811793 0.384044
13468 1 0.267438 0.791853 0.376816
7204 1 0.285758 0.791996 0.389806
13469 2 0.266019 0.793474 0.384798
16475 2 0.280208 0.808125 0.37611
16474 1 0.28193 0.804668 0.368435
16627 1 0.277814 0.813177 0.386932
5775 1 0.282511 0.803461 0.365332
17175 1 0.267774 0.696584 0.396828
17174 3 0.264093 0.699151 0.402946
16891 1 0.269507 0.69592 0.394271
10039 1 0.290362 0.695734 0.4115
15859 1 0.287895 0.697665 0.412719
10547 2 0.193685 0.73066 0.403014
7986 1 0.198481 0.72365 0.395649
10546 1 0.197112 0.725619 0.397404
4544 2 0.226537 0.715144 0.404065
4543 1 0.221937 0.719251 0.411104
16224 1 0.220283 0.72056 0.413738
16223 3 0.216368 0.722684 0.42035
16222 1 0.211552 0.724678 0.425572
4545 1 0.2303 0.712041 0.397708
2218 1 0.23192 0.710262 0.394943
17173 1 0.258814 0.702309 0.408287
16341 1 0.256996 0.70356 0.4103
16340 2 0.253358 0.706962 0.416722
3997 1 0.247498 0.724386 0.396117
20011 1 0.246723 0.725603 0.39892
20012 2 0.243834 0.728384 0.40612
16339 1 0.249491 0.710565 0.422133
8596 1 0.248455 0.712029 0.424234
20013 1 0.240148 0.73019 0.412844
2675 2 0.27778 0.713473 0.395548
3003 1 0.262519 0.724874 0.420015
1018 1 0.263879 0.723512 0.417545
2674 1 0.275126 0.71689 0.402456
1020 1 0.273747 0.718098 0.404981
1019 2 0.268269 0.720847 0.410845
15860 2 0.281573 0.701008 0.416622
15861 1 0.275784 0.70632 0.419048
4309 1 0.291611 0.723034 0.42013
13149 1 0.292734 0.722144 0.417709
19999 1 0.125417 0.749718 0.41983
8357 2 0.157236 0.733061 0.411187
8356 1 0.154288 0.732433 0.403933
13972 1 0.152888 0.731597 0.400673
8358 1 0.161063 0.731764 0.418217
20389 1 0.148609 0.755038 0.407695
2962 1 0.157012 0.74706 0.422642
20390 3 0.147168 0.758925 0.413358
6759 1 0.162367 0.731232 0.420651
20000 3 0.130701 0.744673 0.422632
20001 1 0.1348 0.739336 0.42619
10548 1 0.189047 0.735244 0.408285
18216 1 0.187367 0.73647 0.410567
18215 3 0.183358 0.74055 0.415691
18214 1 0.180732 0.745268 0.421302