ITEM: TIMESTEP
40000000
ITEM: NUMBER OF ENTRIES
5943
ITEM: BOX BOUNDS pp pp pp
0 50
0 50
0 50
ITEM: ENTRIES c_binfo[1] c_binfo[2] c_binfo[3] 
2 16478 16479 
3 14579 14580 
1 14580 16743 
3 16741 16742 
3 16742 16743 
2 21190 21191 
2 13850 13851 
2 13849 13850 
3 1555 1556 
1 1555 13849 
3 1556 1557 
1 1557 10081 
3 10081 10082 
2 16477 16478 
2 7423 7424 
3 16973 16974 
3 16972 16973 
2 12698 12699 
1 16974 17032 
2 17032 17033 
2 15179 15180 
1 3900 15178 
2 15178 15179 
2 11590 11591 
2 11591 11592 
2 2275 2276 
1 2275 11592 
2 12097 12098 
2 3281 3282 
1 3282 17034 
2 17033 17034 
2 12098 12099 
2 3280 3281 
2 3307 3308 
2 14869 14870 
2 14870 14871 
2 10984 10985 
3 15923 15924 
3 9061 9062 
3 9062 9063 
2 6917 6918 
2 9773 9774 
2 9772 9773 
1 9774 16266 
2 6916 6917 
2 1819 1820 
1 1819 5695 
2 5695 5696 
2 1820 1821 
2 5696 5697 
2 7151 7152 
2 13285 13286 
2 7150 7151 
3 298 299 
1 298 7150 
3 299 300 
2 13286 13287 
1 7833 9063 
2 7832 7833 
2 17629 17630 
2 15241 15242 
2 15242 15243 
2 16265 16266 
1 900 7831 
2 7831 7832 
2 16264 16265 
1 1281 16264 
2 3262 3263 
2 898 899 
1 898 3262 
2 899 900 
2 1280 1281 
2 1279 1280 
1 1279 10426 
2 4210 4211 
2 4211 4212 
2 10426 10427 
1 300 11509 
2 11509 11510 
2 11510 11511 
2 9242 9243 
2 9241 9242 
1 9241 20868 
2 21511 21512 
2 21512 21513 
1 3264 9243 
2 3263 3264 
2 13756 13757 
1 4803 13756 
1 4212 11874 
1 10428 19657 
2 10427 10428 
2 19657 19658 
2 19658 19659 
2 11873 11874 
2 11872 11873 
2 6052 6053 
1 6052 11872 
2 4159 4160 
2 4160 4161 
2 6053 6054 
1 4161 20337 
2 20336 20337 
2 7663 7664 
2 20866 20867 
2 19018 19019 
1 19018 20866 
2 20867 20868 
2 7664 7665 
1 9099 13798 
1 13800 19659 
2 13799 13800 
2 13798 13799 
2 8176 8177 
1 8176 12951 
2 12949 12950 
1 6054 12949 
2 12950 12951 
2 20335 20336 
2 2761 2762 
1 2761 8178 
2 8177 8178 
3 3379 3380 
1 3379 9058 
3 9059 9060 
3 9058 9059 
2 3880 3881 
1 1356 3880 
2 3881 3882 
1 501 12376 
2 12376 12377 
3 500 501 
2 12377 12378 
3 499 500 
3 10868 10869 
2 8404 8405 
2 3247 3248 
1 3247 8404 
2 3248 3249 
2 8405 8406 
1 8406 21192 
2 21191 21192 
3 17465 17466 
3 17464 17465 
3 16291 16292 
1 16291 17919 
2 17918 17919 
3 16292 16293 
2 9913 9914 
1 9913 14049 
3 14048 14049 
2 9914 9915 
1 9915 17917 
2 17917 17918 
3 14047 14048 
3 15667 15668 
3 15668 15669 
3 11893 11894 
1 11893 12840 
3 11894 11895 
3 12839 12840 
3 16889 16890 
3 16888 16889 
3 7970 7971 
2 8657 8658 
2 8656 8657 
1 8658 14937 
1 2277 15312 
2 17828 17829 
2 17827 17828 
2 6313 6314 
2 6314 6315 
2 2276 2277 
2 12277 12278 
2 12278 12279 
3 13829 13830 
3 13828 13829 
2 8539 8540 
1 8539 13828 
2 8540 8541 
1 8541 19176 
3 2251 2252 
1 2251 13830 
3 2252 2253 
3 451 452 
1 451 5071 
2 3605 3606 
2 3604 3605 
1 3604 5073 
3 5071 5072 
3 5072 5073 
1 6237 13858 
2 6236 6237 
2 6235 6236 
1 6235 16480 
3 16480 16481 
2 18475 18476 
2 18476 18477 
3 7906 7907 
1 7906 15189 
3 16481 16482 
1 7908 19752 
3 7907 7908 
3 12494 12495 
3 13034 13035 
3 13033 13034 
1 12495 13033 
3 1579 1580 
3 17371 17372 
3 6580 6581 
3 6581 6582 
1 1728 17371 
1 6582 11152 
3 17372 17373 
3 11152 11153 
3 11153 11154 
1 11154 19174 
3 19175 19176 
3 19174 19175 
3 13441 13442 
1 13441 17373 
1 7914 8709 
3 7913 7914 
2 1669 1670 
1 1669 5235 
2 1670 1671 
1 1671 10675 
3 10675 10676 
3 5234 5235 
3 7912 7913 
1 5532 7912 
3 10676 10677 
3 5233 5234 
3 20300 20301 
3 452 453 
2 20869 20870 
1 15807 20869 
2 15805 15806 
2 15806 15807 
2 6425 6426 
2 12046 12047 
2 12047 12048 
1 12048 20545 
3 15310 15311 
3 15311 15312 
1 4401 15310 
3 19763 19764 
1 6315 9925 
3 9925 9926 
3 9926 9927 
1 9927 18235 
3 18235 18236 
1 12318 17829 
3 12317 12318 
3 12316 12317 
1 12316 17349 
3 18236 18237 
2 14702 14703 
2 14701 14702 
3 4045 4046 
1 4045 14701 
3 4046 4047 
3 15470 15471 
2 4399 4400 
2 4400 4401 
3 9029 9030 
3 9028 9029 
1 12279 17809 
3 17809 17810 
3 17810 17811 
3 10576 10577 
3 10577 10578 
3 8428 8429 
1 8428 17811 
3 9739 9740 
3 9740 9741 
2 4126 4127 
3 5953 5954 
1 4128 5953 
2 4127 4128 
3 5954 5955 
3 20681 20682 
3 20680 20681 
2 12466 12467 
1 12466 20680 
2 9292 9293 
2 9293 9294 
3 17734 17735 
1 9294 17734 
1 1581 20682 
3 17735 17736 
3 11891 11892 
3 11890 11891 
3 5158 5159 
3 5159 5160 
3 1457 1458 
1 1458 4615 
3 4616 4617 
3 4615 4616 
1 3606 15469 
3 15469 15470 
3 18275 18276 
3 18274 18275 
2 9211 9212 
1 9211 18274 
2 9212 9213 
2 14854 14855 
3 8551 8552 
3 8552 8553 
2 13858 13859 
2 13859 13860 
3 3562 3563 
1 3562 18477 
2 10283 10284 
2 18040 18041 
1 3564 18040 
3 3563 3564 
1 2292 15187 
3 15187 15188 
1 13785 19260 
3 13784 13785 
3 2291 2292 
3 2290 2291 
1 2290 10885 
3 10885 10886 
3 15188 15189 
3 12493 12494 
3 13783 13784 
3 442 443 
3 443 444 
3 1580 1581 
3 19760 19761 
3 19759 19760 
1 2265 19759 
3 12604 12605 
1 12604 19761 
3 13442 13443 
3 15028 15029 
1 13443 15028 
3 15029 15030 
3 2263 2264 
1 2263 11890 
3 2264 2265 
3 5572 5573 
1 5572 8601 
3 5573 5574 
3 8600 8601 
3 1456 1457 
1 1456 5530 
2 5530 5531 
2 5531 5532 
2 4123 4124 
1 4123 17176 
2 4124 4125 
3 17176 17177 
3 17177 17178 
1 17178 18286 
3 18286 18287 
2 4028 4029 
2 4027 4028 
1 4027 10623 
2 10622 10623 
2 2429 2430 
1 453 10621 
2 10621 10622 
2 2428 2429 
1 2428 19113 
2 19112 19113 
1 2430 3636 
2 19111 19112 
3 11995 11996 
1 11995 18276 
3 11996 11997 
1 6426 11997 
3 11209 11210 
3 11210 11211 
3 20545 20546 
2 15512 15513 
1 15513 20547 
3 20546 20547 
3 5504 5505 
2 1771 1772 
1 1771 5505 
3 5503 5504 
2 16507 16508 
3 14117 14118 
3 19762 19763 
3 13378 13379 
3 13379 13380 
2 8332 8333 
1 8332 13380 
3 17348 17349 
1 5655 7728 
2 7727 7728 
2 7726 7727 
1 7726 18237 
2 8333 8334 
1 966 4047 
3 965 966 
3 964 965 
1 964 7038 
3 7037 7038 
2 5497 5498 
1 5497 16509 
2 16508 16509 
2 16201 16202 
2 16202 16203 
2 8615 8616 
2 3308 3309 
1 3417 4399 
3 3416 3417 
3 3415 3416 
1 3415 14724 
2 8035 8036 
1 8035 9028 
2 14723 14724 
2 8036 8037 
1 7530 8037 
2 7529 7530 
3 8429 8430 
1 8430 15183 
2 15182 15183 
3 17347 17348 
1 3057 17347 
2 3056 3057 
2 3055 3056 
1 3055 7510 
2 7510 7511 
1 7191 10578 
2 7190 7191 
2 7189 7190 
1 7189 17574 
2 4865 4866 
2 4864 4865 
1 4864 11310 
1 6972 9741 
2 6971 6972 
2 6970 6971 
1 4116 6970 
2 4115 4116 
2 9536 9537 
2 9535 9536 
1 9535 15811 
2 15811 15812 
1 5955 9537 
2 21499 21500 
2 21500 21501 
2 12467 12468 
3 18515 18516 
1 12468 18514 
3 18514 18515 
2 13940 13941 
3 3478 3479 
1 3478 13941 
3 3479 3480 
2 12442 12443 
1 12442 17736 
2 9839 9840 
1 9840 11892 
2 9838 9839 
2 12443 12444 
3 18425 18426 
2 10343 10344 
2 10342 10343 
1 10342 18426 
1 10344 16582 
2 8498 8499 
1 18288 18319 
2 18319 18320 
2 18320 18321 
2 8497 8498 
2 8614 8615 
1 8614 9213 
2 83 84 
2 82 83 
1 82 14271 
2 14855 14856 
1 14856 17881 
2 17881 17882 
2 17882 17883 
2 21311 21312 
2 21310 21311 
2 20918 20919 
1 20919 21310 
1 939 17883 
3 19867 19868 
2 16141 16142 
1 16141 19867 
2 5278 5279 
1 5278 18042 
2 10282 10283 
1 1872 10282 
2 1871 1872 
2 1870 1871 
1 1870 4117 
2 5279 5280 
2 4117 4118 
1 1611 16143 
1 5280 21394 
2 4118 4119 
2 18041 18042 
2 16142 16143 
3 830 831 
3 19259 19260 
2 4789 4790 
1 4789 19258 
3 19258 19259 
2 7019 7020 
2 7018 7019 
1 7018 10887 
3 10886 10887 
1 831 5862 
1 7020 19927 
3 17551 17552 
2 4790 4791 
1 4791 17436 
3 17552 17553 
1 6384 17553 
2 6383 6384 
3 3686 3687 
3 8156 8157 
2 1505 1506 
3 9511 9512 
1 9511 10461 
3 9512 9513 
1 1506 9513 
2 15454 15455 
3 3685 3686 
3 18287 18288 
3 18424 18425 
3 3131 3132 
2 3947 3948 
2 3946 3947 
1 3946 13146 
1 3132 3948 
2 5291 5292 
2 5290 5291 
1 5292 16527 
2 2888 2889 
1 18279 20496 
2 20495 20496 
2 2887 2888 
2 10678 10679 
2 10679 10680 
2 20494 20495 
1 2886 10680 
1 13716 20494 
3 17584 17585 
3 18278 18279 
3 17585 17586 
1 17586 18277 
3 18277 18278 
3 8725 8726 
1 8727 10678 
3 8726 8727 
3 15769 15770 
3 15770 15771 
2 15511 15512 
1 5838 15511 
2 5837 5838 
2 5836 5837 
2 1772 1773 
1 1773 16348 
2 16348 16349 
2 16349 16350 
2 15059 15060 
3 14116 14117 
1 14116 14949 
2 14947 14948 
2 14948 14949 
2 2434 2435 
1 2434 14947 
2 2435 2436 
2 11395 11396 
1 11395 15922 
3 15922 15923 
2 11396 11397 
1 11397 16674 
2 16673 16674 
1 4644 5836 
2 4643 4644 
1 19353 21507 
1 8334 19351 
2 19351 19352 
2 19352 19353 
2 269 270 
2 5654 5655 
2 5653 5654 
1 270 5653 
2 268 269 
1 268 15783 
2 5498 5499 
3 7036 7037 
2 3916 3917 
1 3916 7036 
1 5499 6228 
2 6227 6228 
2 6226 6227 
2 2833 2834 
1 2833 6226 
2 3917 3918 
2 21152 21153 
2 11308 11309 
1 11308 21153 
2 21151 21152 
1 7203 16203 
2 7202 7203 
2 7201 7202 
1 7201 7966 
2 7966 7967 
2 16708 16709 
2 21383 21384 
2 21382 21383 
2 8566 8567 
1 8566 21384 
2 16709 16710 
1 6087 19249 
2 19250 19251 
2 19249 19250 
2 14722 14723 
1 14722 20082 
2 20081 20082 
2 20080 20081 
2 9752 9753 
2 9751 9752 
1 9751 20080 
2 7528 7529 
1 7528 14533 
2 14533 14534 
1 243 3309 
2 14534 14535 
1 771 13555 
2 13555 13556 
2 15181 15182 
2 7511 7512 
2 770 771 
2 769 770 
1 769 15181 
1 7512 10830 
2 10829 10830 
2 17573 17574 
2 17572 17573 
1 9465 17572 
2 9464 9465 
2 10828 10829 
2 9463 9464 
1 9463 16638 
2 13556 13557 
2 11309 11310 
2 15812 15813 
2 2314 2315 
1 2314 3918 
2 4114 4115 
2 932 933 
2 931 932 
1 931 4114 
1 15615 15813 
2 15614 15615 
1 933 8434 
2 8434 8435 
2 2315 2316 
2 8435 8436 
2 15613 15614 
1 4620 15613 
1 20508 21501 
2 20507 20508 
2 20506 20507 
1 9804 20506 
2 3347 3348 
2 3346 3347 
1 3346 17434 
1 4197 19929 
2 17435 17436 
2 17434 17435 
2 4196 4197 
2 6085 6086 
1 6085 18516 
2 13939 13940 
1 13939 17113 
2 6086 6087 
2 17113 17114 
2 17114 17115 
2 10303 10304 
1 10303 17115 
2 16582 16583 
2 16583 16584 
1 13728 16584 
2 8174 8175 
2 12226 12227 
1 12226 18732 
2 13727 13728 
2 20668 20669 
2 10315 10316 
2 10316 10317 
2 8173 8174 
1 8499 10317 
2 6656 6657 
2 6655 6656 
1 6655 13144 
2 13144 13145 
2 4469 4470 
2 17398 17399 
2 11716 11717 
3 9553 9554 
1 9553 11716 
2 11717 11718 
2 14270 14271 
2 241 242 
1 241 19810 
2 14269 14270 
1 14269 17062 
2 19810 19811 
2 17063 17064 
2 17062 17063 
2 242 243 
2 2278 2279 
1 2278 14535 
2 6568 6569 
1 5697 15891 
2 20917 20918 
2 938 939 
2 937 938 
1 937 11023 
2 11023 11024 
2 11024 11025 
2 3631 3632 
1 3631 20917 
2 3632 3633 
1 3633 14101 
2 14101 14102 
2 19400 19401 
2 19399 19400 
1 6591 19401 
1 4119 10056 
2 10055 10056 
2 10054 10055 
1 10054 19210 
2 21394 21395 
2 21395 21396 
2 14102 14103 
2 19210 19211 
2 1609 1610 
1 1609 19399 
2 1610 1611 
2 5861 5862 
2 19928 19929 
2 19927 19928 
1 2445 21396 
2 5860 5861 
1 5860 11289 
2 11288 11289 
2 11287 11288 
2 2444 2445 
2 2567 2568 
1 2568 8331 
2 6382 6383 
1 6382 13018 
2 13018 13019 
2 13019 13020 
2 5851 5852 
1 5851 13020 
2 2284 2285 
1 2284 7851 
2 2285 2286 
1 2286 3687 
2 20669 20670 
2 18730 18731 
2 1504 1505 
1 1504 18730 
2 18731 18732 
1 15456 20670 
2 15455 15456 
2 13145 13146 
2 15533 15534 
2 15532 15533 
2 8546 8547 
1 8547 20260 
3 8155 8156 
1 8155 15534 
2 20260 20261 
1 402 4498 
2 401 402 
2 20261 20262 
2 4468 4469 
1 4468 20262 
2 4498 4499 
2 400 401 
1 400 9555 
3 9554 9555 
3 19246 19247 
1 6906 19248 
3 19247 19248 
2 6905 6906 
2 15100 15101 
2 6904 6905 
1 6904 15100 
2 21407 21408 
1 18267 21406 
1 16350 18265 
2 18265 18266 
2 18266 18267 
2 21406 21407 
2 15058 15059 
1 15058 18721 
3 7903 7904 
1 7903 18723 
2 18722 18723 
2 18721 18722 
3 7904 7905 
1 1344 5628 
2 1342 1343 
2 1343 1344 
1 2436 12993 
2 17630 17631 
1 2880 7296 
2 2879 2880 
2 2878 2879 
1 2878 15771 
2 16672 16673 
2 8824 8825 
1 8824 16672 
2 8825 8826 
2 1453 1454 
2 20561 20562 
1 8154 13653 
2 21506 21507 
2 4642 4643 
1 261 4642 
2 260 261 
2 21505 21506 
2 8152 8153 
1 8152 21505 
2 15781 15782 
1 15781 20562 
2 259 260 
1 259 1453 
2 15782 15783 
2 8153 8154 
2 5579 5580 
2 3628 3629 
1 3628 17340 
2 19919 19920 
2 2834 2835 
2 17339 17340 
2 17338 17339 
1 2835 17338 
1 5580 12028 
2 12028 12029 
2 12029 12030 
1 12030 21151 
2 19918 19919 
2 12991 12992 
1 12991 19918 
2 12992 12993 
2 15686 15687 
2 7967 7968 
1 7968 15685 
2 15685 15686 
1 15687 19464 
2 9322 9323 
2 19585 19586 
2 3904 3905 
1 3904 17206 
2 8567 8568 
1 13167 16710 
2 13166 13167 
2 13165 13166 
1 13165 19585 
2 9323 9324 
1 8568 9324 
2 17206 17207 
2 17207 17208 
1 17208 19251 
2 17216 17217 
2 18485 18486 
1 8826 18484 
2 18484 18485 
1 7326 9753 
2 7324 7325 
1 7324 17946 
2 7325 7326 
2 21265 21266 
1 3870 13557 
2 10564 10565 
1 10564 10828 
2 3869 3870 
1 6357 10566 
2 10565 10566 
2 6356 6357 
2 3868 3869 
1 3868 21265 
1 4716 15487 
2 15259 15260 
1 15259 19786 
1 2316 19788 
2 19786 19787 
2 19787 19788 
2 13262 13263 
2 15488 15489 
1 8436 15489 
2 13261 13262 
2 4618 4619 
1 4618 13261 
2 4619 4620 
2 15487 15488 
1 3348 9456 
2 9803 9804 
2 20074 20075 
2 20075 20076 
2 9802 9803 
1 9802 20076 
2 9455 9456 
2 14 15 
1 15 14274 
1 9138 9454 
2 9454 9455 
2 13 14 
1 13 4195 
2 4195 4196 
1 3108 20074 
2 10304 10305 
1 9255 10305 
2 9254 9255 
2 9253 9254 
2 13154 13155 
2 12227 12228 
2 10471 10472 
1 10471 20668 
2 13726 13727 
1 9312 13726 
1 2517 9310 
2 9310 9311 
2 10472 10473 
1 10473 13153 
2 9311 9312 
2 13153 13154 
2 11944 11945 
1 11944 12228 
2 11945 11946 
2 17215 17216 
2 19333 19334 
2 20765 20766 
3 5555 5556 
2 17399 17400 
3 5554 5555 
1 5554 20766 
2 15097 15098 
1 57 17064 
2 2279 2280 
2 6295 6296 
2 15890 15891 
1 5412 6295 
2 19811 19812 
2 56 57 
2 5410 5411 
1 5410 19812 
2 5411 5412 
1 2280 15099 
2 15098 15099 
2 55 56 
1 55 13539 
2 13538 13539 
2 18719 18720 
2 16637 16638 
2 16636 16637 
1 16636 18718 
2 18718 18719 
2 5165 5166 
2 5164 5165 
1 5164 11025 
2 3295 3296 
1 3295 5166 
2 3296 3297 
2 6590 6591 
1 1632 6589 
2 16810 16811 
2 6589 6590 
2 1631 1632 
1 13116 14103 
2 17225 17226 
2 13114 13115 
1 13114 16810 
2 13115 13116 
2 17224 17225 
1 17224 19212 
2 19211 19212 
1 4020 11287 
2 2443 2444 
1 2443 10896 
2 4019 4020 
2 19961 19962 
2 11467 11468 
2 4018 4019 
1 4018 19962 
2 10895 10896 
2 10894 10895 
1 10894 11467 
2 7261 7262 
2 2566 2567 
1 2566 4404 
2 15706 15707 
1 15706 19108 
2 985 986 
1 985 4402 
2 4403 4404 
2 5852 5853 
2 19109 19110 
2 4702 4703 
1 4702 11863 
2 7849 7850 
2 19108 19109 
2 4402 4403 
1 5853 19110 
2 4703 4704 
1 4704 7849 
2 7850 7851 
2 986 987 
2 1975 1976 
2 1465 1466 
1 1465 1975 
2 12059 12060 
2 19973 19974 
2 19972 19973 
1 3036 13353 
2 12058 12059 
1 12058 19974 
2 3035 3036 
2 1466 1467 
1 1467 5661 
3 8684 8685 
2 20764 20765 
2 5659 5660 
1 5659 20764 
2 19334 19335 
2 5660 5661 
2 311 312 
2 310 311 
1 310 373 
3 373 374 
2 412 413 
1 412 21408 
3 374 375 
2 20056 20057 
1 7905 20056 
2 20057 20058 
1 525 20058 
1 480 5626 
2 5626 5627 
2 5627 5628 
2 479 480 
2 7294 7295 
1 7294 11565 
2 7295 7296 
2 11564 11565 
2 11563 11564 
1 6648 11563 
1 13758 17631 
2 13757 13758 
2 413 414 
1 414 19494 
2 7102 7103 
1 1455 7102 
2 9467 9468 
2 9466 9467 
1 9466 11013 
1 9468 20560 
2 7103 7104 
1 7104 18778 
2 18778 18779 
2 20560 20561 
2 13652 13653 
2 11012 11013 
2 1454 1455 
2 4535 4536 
1 4536 14247 
2 4534 4535 
1 4534 19920 
2 3629 3630 
1 3630 7611 
2 7610 7611 
2 20651 20652 
2 20650 20651 
2 1240 1241 
1 1240 20652 
2 5578 5579 
1 5578 20650 
2 19462 19463 
1 19462 19524 
2 19463 19464 
2 19523 19524 
1 16713 21031 
2 21031 21032 
2 21032 21033 
1 3906 21033 
2 2933 2934 
2 2932 2933 
1 2932 19587 
2 5260 5261 
1 5260 5340 
2 5261 5262 
2 5339 5340 
1 2934 19671 
2 5338 5339 
1 5338 9322 
2 19586 19587 
2 3905 3906 
1 9498 15234 
2 9497 9498 
2 9496 9497 
2 2515 2516 
1 2515 9496 
2 12901 12902 
2 4802 4803 
2 236 237 
1 237 7158 
2 235 236 
1 235 18486 
2 17944 17945 
1 7050 17944 
2 17945 17946 
2 18589 18590 
2 13651 13652 
1 13651 18589 
2 18590 18591 
1 20985 21267 
2 20984 20985 
2 9812 9813 
2 9811 9812 
1 3168 9811 
2 21266 21267 
2 6355 6356 
1 6355 9813 
2 20983 20984 
2 3167 3168 
2 20617 20618 
1 20617 20983 
2 11485 11486 
1 11485 15261 
2 15260 15261 
2 11486 11487 
2 6077 6078 
2 6076 6077 
1 6076 18904 
2 18904 18905 
2 4715 4716 
2 4714 4715 
1 4714 15429 
2 15428 15429 
1 6078 13263 
2 15427 15428 
1 15427 17620 
2 17620 17621 
2 3106 3107 
1 3106 12853 
2 12853 12854 
2 12854 12855 
2 5752 5753 
1 5752 14272 
2 5753 5754 
1 5754 21132 
2 3107 3108 
2 14272 14273 
2 14273 14274 
1 4407 4852 
2 4852 4853 
2 4405 4406 
1 4405 9136 
2 9136 9137 
2 4406 4407 
2 9137 9138 
2 12581 12582 
2 4336 4337 
1 4336 12582 
2 4337 4338 
2 14491 14492 
1 1128 14491 
2 14492 14493 
1 14493 15708 
1 4338 9253 
2 2516 2517 
2 9992 9993 
1 9993 18564 
2 9991 9992 
1 9991 13155 
2 14840 14841 
2 9692 9693 
1 9693 21180 
2 14839 14840 
2 12902 12903 
1 5556 12903 
2 6728 6729 
2 7049 7050 
2 7048 7049 
2 5476 5477 
1 5476 7048 
1 6297 13512 
2 13511 13512 
2 6296 6297 
2 13510 13511 
2 947 948 
2 946 947 
1 946 15097 
2 6727 6728 
1 6727 13537 
2 13537 13538 
2 14170 14171 
1 948 16491 
2 16490 16491 
1 10389 18720 
2 10388 10389 
2 10387 10388 
1 10387 15760 
2 15760 15761 
1 3297 14172 
2 14171 14172 
1 10137 14170 
2 1630 1631 
1 1630 2236 
2 2236 2237 
2 16811 16812 
1 4518 17226 
2 4517 4518 
2 13321 13322 
1 13321 16812 
2 13322 13323 
2 4516 4517 
1 4516 7093 
2 7093 7094 
2 2237 2238 
1 13323 16980 
2 7094 7095 
2 1322 1323 
1 1323 2238 
2 6319 6320 
1 6319 12909 
2 11468 11469 
2 640 641 
1 640 11469 
2 641 642 
1 642 21370 
2 16679 16680 
1 8718 16680 
2 16678 16679 
1 16678 19960 
2 19960 19961 
2 21370 21371 
2 12908 12909 
2 6320 6321 
1 6321 7261 
2 15707 15708 
2 15370 15371 
1 15370 17857 
2 17857 17858 
2 15371 15372 
1 987 15372 
2 11864 11865 
2 7414 7415 
1 7414 11865 
2 7415 7416 
2 11863 11864 
2 8180 8181 
1 12060 21178 
2 21179 21180 
2 8179 8180 
1 8179 20412 
2 11707 11708 
1 11707 13351 
2 13351 13352 
2 11708 11709 
2 13352 13353 
2 21178 21179 
2 2636 2637 
2 2635 2636 
1 375 5472 
2 2941 2942 
1 2941 5470 
2 5470 5471 
2 5471 5472 
2 2942 2943 
2 523 524 
1 523 20134 
2 524 525 
2 20134 20135 
2 20135 20136 
1 20136 20569 
2 20569 20570 
2 478 479 
1 478 9982 
2 9982 9983 
2 9983 9984 
2 4144 4145 
1 4144 9984 
2 1775 1776 
2 11060 11061 
2 11059 11060 
1 11059 15645 
2 19670 19671 
2 1774 1775 
1 1774 19669 
2 19669 19670 
2 6647 6648 
2 6646 6647 
1 6646 21313 
2 21313 21314 
2 21314 21315 
2 12349 12350 
1 12349 21315 
2 19493 19494 
2 19492 19493 
2 3448 3449 
1 3448 19492 
2 3449 3450 
2 18779 18780 
1 13332 18780 
2 11011 11012 
1 11011 16081 
2 16081 16082 
2 13331 13332 
1 3450 18535 
2 16082 16083 
1 16083 17022 
2 18535 18536 
2 13330 13331 
2 14245 14246 
1 14245 20098 
2 14246 14247 
2 7609 7610 
2 1241 1242 
1 2601 7609 
2 2600 2601 
2 2599 2600 
1 2599 10966 
2 10966 10967 
2 16850 16851 
2 20098 20099 
2 20099 20100 
1 1242 16851 
2 10967 10968 
2 16849 16850 
1 16849 17898 
1 18435 20100 
2 19522 19523 
2 14236 14237 
1 14236 19522 
2 14237 14238 
2 7921 7922 
1 7921 14238 
1 5820 20824 
2 5819 5820 
2 7922 7923 
2 5818 5819 
1 5818 16711 
2 16711 16712 
2 16712 16713 
2 2929 2930 
1 2929 5262 
2 2930 2931 
2 883 884 
1 883 2931 
2 884 885 
2 15644 15645 
2 15643 15644 
2 380 381 
1 381 15232 
2 15232 15233 
2 15233 15234 
2 379 380 
1 379 14281 
2 724 725 
2 19019 19020 
1 4296 10560 
2 7157 7158 
2 7156 7157 
2 1738 1739 
1 1738 7156 
2 1739 1740 
1 1740 5620 
2 5620 5621 
2 4295 4296 
2 10559 10560 
2 4294 4295 
1 4294 4801 
2 4801 4802 
2 9244 9245 
1 9244 18591 
2 20677 20678 
1 9246 20677 
2 20618 20619 
2 9245 9246 
2 3166 3167 
1 3166 11844 
2 11843 11844 
2 11842 11843 
2 20678 20679 
2 229 230 
1 229 20619 
2 230 231 
1 7827 11842 
1 11487 18681 
2 18905 18906 
2 13273 13274 
1 13273 18906 
2 13274 13275 
2 18680 18681 
2 18679 18680 
2 12859 12860 
1 12859 18679 
2 12860 12861 
2 17621 17622 
1 639 13275 
1 13389 17622 
2 13388 13389 
2 8041 8042 
1 8041 12855 
2 8042 8043 
1 8043 15165 
2 15164 15165 
2 3233 3234 
2 3232 3233 
1 3232 21130 
2 21130 21131 
2 21131 21132 
1 4854 19128 
2 19127 19128 
2 19126 19127 
2 5707 5708 
1 5707 19126 
2 4853 4854 
2 12580 12581 
1 12580 15501 
2 15499 15500 
1 15499 19369 
2 19369 19370 
2 19370 19371 
2 15500 15501 
2 3515 3516 
2 3514 3515 
2 1126 1127 
1 1126 3514 
2 1127 1128 
2 9691 9692 
1 9691 12388 
2 12388 12389 
2 18563 18564 
2 12389 12390 
2 18562 18563 
1 4200 18562 
2 4199 4200 
2 4198 4199 
2 2770 2771 
1 2770 4198 
1 726 12390 
2 725 726 
2 7819 7820 
1 7819 9097 
1 13509 19789 
2 13507 13508 
1 13507 13510 
2 5477 5478 
2 13508 13509 
1 54 5478 
2 53 54 
2 52 53 
1 52 9367 
2 9098 9099 
2 16726 16727 
1 16726 19020 
2 9097 9098 
2 16489 16490 
2 10135 10136 
2 15761 15762 
2 1750 1751 
1 1750 16489 
2 1751 1752 
1 1752 18423 
1 15762 16999 
2 16999 17000 
2 17000 17001 
1 17001 20563 
2 20563 20564 
2 10136 10137 
2 18422 18423 
1 72 10135 
1 231 12885 
2 70 71 
1 70 19213 
2 71 72 
2 7124 7125 
2 16979 16980 
1 7095 19591 
2 19591 19592 
2 16978 16979 
1 16978 18361 
2 18361 18362 
2 19592 19593 
2 18362 18363 
2 16207 16208 
1 16207 19593 
2 7123 7124 
1 7125 19234 
2 19234 19235 
2 1321 1322 
1 1321 7123 
1 9231 12907 
2 8717 8718 
2 21371 21372 
1 7551 21372 
2 7550 7551 
2 8716 8717 
1 8716 16602 
2 16601 16602 
2 9229 9230 
1 9229 17097 
2 9230 9231 
2 7549 7550 
2 16600 16601 
1 15114 16600 
2 17858 17859 
2 3158 3159 
2 3157 3158 
1 3157 17859 
2 2005 2006 
1 2005 3159 
2 17096 17097 
2 7099 7100 
1 7099 11709 
2 1813 1814 
1 1813 12922 
2 12922 12923 
2 12923 12924 
2 7100 7101 
2 20411 20412 
2 2612 2613 
1 1815 7416 
2 1814 1815 
1 2613 20410 
2 20410 20411 
2 2611 2612 
1 5835 21535 
2 21535 21536 
2 2548 2549 
1 2548 2611 
2 5834 5835 
2 5833 5834 
2 21491 21492 
1 4671 8211 
1 2943 8209 
2 8209 8210 
2 8210 8211 
2 11086 11087 
2 15343 15344 
2 4670 4671 
2 8413 8414 
1 8413 20571 
2 8414 8415 
2 20570 20571 
1 8415 15343 
2 4145 4146 
1 4146 14889 
2 14888 14889 
1 10131 14887 
2 14887 14888 
2 1315 1316 
1 1315 12714 
2 12713 12714 
2 1316 1317 
2 8800 8801 
1 8800 12351 
2 12350 12351 
2 8801 8802 
2 1625 1626 
2 1624 1625 
1 1624 4201 
2 4201 4202 
2 18536 18537 
1 4203 13330 
2 17021 17022 
2 4202 4203 
2 6274 6275 
1 6274 18537 
2 6275 6276 
2 17020 17021 
1 6276 9400 
2 18433 18434 
1 5640 18433 
2 18434 18435 
2 745 746 
1 745 10968 
2 746 747 
1 747 16270 
2 5639 5640 
1 1650 17896 
2 17896 17897 
2 16270 16271 
2 17897 17898 
2 1649 1650 
2 1648 1649 
1 1648 18658 
2 16271 16272 
1 1776 12712 
2 20824 20825 
2 12712 12713 
1 7923 15870 
2 15869 15870 
2 15868 15869 
1 15868 19443 
2 11576 11577 
2 20825 20826 
2 11575 11576 
1 11575 20826 
1 885 19650 
2 19649 19650 
2 19648 19649 
1 16164 19648 
2 14281 14282 
2 4673 4674 
2 4672 4673 
1 4672 14283 
2 14282 14283 
3 202 203 
1 202 16750 
2 5621 5622 
1 5622 11881 
2 11881 11882 
2 11882 11883 
1 11883 17431 
2 16751 16752 
2 10558 10559 
1 10558 16752 
2 16750 16751 
1 1515 17020 
2 1514 1515 
2 1513 1514 
1 1513 18130 
2 11605 11606 
1 5727 11605 
2 5725 5726 
1 5725 20679 
2 5726 5727 
2 7826 7827 
2 7825 7826 
1 7825 19291 
2 19291 19292 
2 19292 19293 
2 11606 11607 
2 18130 18131 
2 638 639 
2 1223 1224 
2 1222 1223 
1 1222 12861 
2 637 638 
1 637 10720 
2 10720 10721 
2 10721 10722 
1 1224 21379 
2 21379 21380 
2 5428 5429 
1 5428 13387 
2 13387 13388 
2 17363 17364 
1 10722 18327 
1 3234 21070 
2 15163 15164 
1 15163 17031 
2 17030 17031 
2 17029 17030 
1 4851 17029 
2 21071 21072 
1 1374 21072 
2 21070 21071 
2 5708 5709 
1 5709 20424 
2 20423 20424 
2 20422 20423 
1 20422 20605 
2 1373 1374 
2 1678 1679 
1 1678 19315 
1 19317 19371 
2 19315 19316 
2 19316 19317 
1 3516 9045 
2 9043 9044 
1 9043 10048 
2 10048 10049 
2 9044 9045 
2 10049 10050 
2 2771 2772 
2 19469 19470 
1 2772 19470 
2 19468 19469 
2 15118 15119 
1 1890 15118 
2 1889 1890 
2 1888 1889 
1 1888 12924 
2 15119 15120 
2 7820 7821 
2 9367 9368 
2 12151 12152 
2 9368 9369 
2 4987 4988 
1 4987 9369 
2 4988 4989 
1 7821 12151 
2 7400 7401 
2 16727 16728 
2 7399 7400 
1 7399 16728 
2 12152 12153 
2 12884 12885 
2 1811 1812 
1 6585 12883 
2 12883 12884 
2 18421 18422 
1 1812 18421 
2 20564 20565 
1 14355 20565 
2 14354 14355 
2 1810 1811 
1 1810 3522 
2 6584 6585 
2 19213 19214 
2 5429 5430 
1 5430 17364 
2 17074 17075 
2 11978 11979 
2 11977 11978 
1 11977 18363 
2 16208 16209 
1 11979 17074 
1 12684 16209 
2 12683 12684 
2 12682 12683 
2 8270 8271 
2 17075 17076 
2 8269 8270 
1 8269 19236 
1 8271 20148 
2 4246 4247 
1 4246 7549 
2 4247 4248 
1 4248 20784 
2 20783 20784 
2 1102 1103 
1 1102 12682 
2 15113 15114 
2 3457 3458 
2 2845 2846 
1 2845 3457 
2 2846 2847 
2 15112 15113 
2 7933 7934 
1 7933 15112 
2 7934 7935 
2 2006 2007 
2 9215 9216 
1 2007 9216 
2 28 29 
1 28 7935 
2 9214 9215 
1 9214 14385 
2 17095 17096 
1 2847 17095 
2 2549 2550 
2 16655 16656 
1 2550 16656 
2 4667 4668 
2 4666 4667 
1 4666 5833 
2 21490 21491 
2 11087 11088 
2 15344 15345 
2 4669 4670 
2 19466 19467 
2 10130 10131 
3 5678 5679 
2 10129 10130 
3 5677 5678 
1 5677 10129 
2 18550 18551 
2 18551 18552 
1 1317 18550 
2 6707 6708 
2 2621 2622 
2 6706 6707 
1 3381 8802 
1 1626 12432 
3 3380 3381 
3 12431 12432 
1 3759 14638 
3 14638 14639 
3 14639 14640 
1 14640 15345 
2 9400 9401 
2 9401 9402 
2 15191 15192 
2 5638 5639 
1 5638 21361 
2 21361 21362 
1 15192 21363 
2 21362 21363 
1 10320 12657 
2 18658 18659 
2 10319 10320 
2 10318 10319 
1 10318 16272 
2 18659 18660 
1 18660 19009 
2 19010 19011 
2 19009 19010 
2 455 456 
2 634 635 
1 634 11242 
1 10233 11577 
2 19442 19443 
2 10232 10233 
2 10231 10232 
2 635 636 
1 636 19441 
2 19441 19442 
2 454 455 
1 454 10231 
2 21250 21251 
2 6475 6476 
1 6475 12651 
1 8229 21250 
2 1679 1680 
2 21251 21252 
2 16163 16164 
2 16162 16163 
1 16162 21252 
2 12650 12651 
2 12649 12650 
2 1916 1917 
2 1915 1916 
1 1915 4674 
3 203 204 
3 6472 6473 
2 17431 17432 
3 6473 6474 
3 12430 12431 
1 6474 12430 
2 17432 17433 
1 16563 19293 
2 10529 10530 
2 8740 8741 
1 8740 18132 
2 18131 18132 
1 3171 11607 
2 10528 10529 
2 3169 3170 
1 3169 10528 
2 8741 8742 
2 3170 3171 
2 16562 16563 
2 16561 16562 
2 2899 2900 
1 2899 16561 
2 2900 2901 
1 8742 19309 
2 21380 21381 
2 19148 19149 
2 5992 5993 
1 5992 12822 
2 5993 5994 
1 5994 21381 
2 18326 18327 
2 18325 18326 
1 18325 19149 
2 4850 4851 
2 20605 20606 
2 19849 19850 
1 19849 21282 
2 11923 11924 
1 11923 20392 
2 21281 21282 
2 21280 21281 
2 4849 4850 
1 4849 21280 
2 1372 1373 
1 1372 11925 
2 11924 11925 
2 20606 20607 
1 1680 12649 
1 1926 20607 
2 1925 1926 
2 6853 6854 
1 6853 10050 
1 6855 17035 
2 17035 17036 
2 6854 6855 
2 7567 7568 
1 7567 19468 
2 16694 16695 
1 7569 16695 
2 7568 7569 
1 603 15120 
2 602 603 
2 601 602 
2 1355 1356 
2 9641 9642 
2 16273 16274 
1 16273 17433 
2 16274 16275 
2 1354 1355 
1 4989 18163 
2 18163 18164 
1 9642 18165 
2 18164 18165 
2 3521 3522 
2 3520 3521 
1 3520 21102 
2 16688 16689 
2 14353 14354 
1 12369 14353 
2 6583 6584 
1 6583 17547 
2 16687 16688 
1 16687 17545 
2 17545 17546 
2 17546 17547 
2 12368 12369 
2 12367 12368 
1 12216 12367 
2 12215 12216 
2 17362 17363 
1 9900 17362 
2 19684 19685 
2 16099 16100 
1 4497 17076 
2 9898 9899 
1 9898 16099 
2 4496 4497 
2 4495 4496 
1 4495 19684 
2 9899 9900 
2 5201 5202 
2 20392 20393 
2 14453 14454 
2 14452 14453 
1 14452 20782 
2 13310 13311 
1 1104 13309 
2 5200 5201 
1 5200 14454 
2 20782 20783 
2 13309 13310 
2 1103 1104 
2 14384 14385 
2 15392 15393 
2 14383 14384 
2 10145 10146 
1 30 5134 
2 3458 3459 
1 3459 15393 
2 29 30 
2 5134 5135 
2 5135 5136 
2 15391 15392 
2 10144 10145 
1 10144 14383 
2 8359 8360 
1 8359 15391 
1 615 9490 
1 9996 14119 
2 14119 14120 
2 9491 9492 
2 4550 4551 
2 613 614 
2 614 615 
2 271 272 
1 271 4551 
2 9995 9996 
2 14120 14121 
2 4549 4550 
2 9490 9491 
1 14121 16654 
2 16654 16655 
2 11777 11778 
2 11776 11777 
3 6130 6131 
1 3288 6130 
3 6131 6132 
1 6132 19465 
3 14692 14693 
1 14694 15190 
3 14693 14694 
2 15190 15191 
3 14560 14561 
1 14560 14692 
3 3287 3288 
3 14561 14562 
2 19465 19466 
2 2620 2621 
1 3099 4173 
3 4172 4173 
2 3757 3758 
2 3097 3098 
1 3097 3757 
2 3758 3759 
2 3098 3099 
3 6544 6545 
3 19319 19320 
3 19318 19319 
1 3891 19318 
1 6546 12655 
3 6545 6546 
3 12655 12656 
3 2954 2955 
3 12656 12657 
3 2953 2954 
1 2953 11244 
1 19011 21331 
3 21332 21333 
3 21331 21332 
3 8227 8228 
3 8228 8229 
3 11243 11244 
3 9709 9710 
3 715 716 
1 715 9709 
3 9710 9711 
1 456 9711 
3 11242 11243 
2 6476 6477 
2 13298 13299 
2 5167 5168 
1 5167 13297 
2 13297 13298 
2 5168 5169 
2 1442 1443 
2 1441 1442 
2 5468 5469 
1 5469 17860 
2 17860 17861 
2 17861 17862 
2 5467 5468 
1 5467 6472 
1 19311 19320 
3 19310 19311 
3 19309 19310 
1 10530 14494 
2 14494 14495 
2 14495 14496 
3 12820 12821 
3 12821 12822 
1 1983 21333 
3 1982 1983 
2 19147 19148 
3 20687 20688 
1 19851 20686 
3 20686 20687 
1 20688 20977 
2 19850 19851 
2 19618 19619 
2 19619 19620 
2 15295 15296 
1 15295 17037 
2 15296 15297 
2 1924 1925 
1 1924 19620 
2 17036 17037 
2 16693 16694 
1 13299 16693 
2 5939 5940 
1 5940 9994 
3 4633 4634 
1 4633 5938 
2 5938 5939 
3 4634 4635 
2 9994 9995 
2 9640 9641 
2 18376 18377 
2 18377 18378 
2 9847 9848 
1 9847 18376 
2 9848 9849 
1 9849 16275 
1 15495 20145 
2 15494 15495 
2 320 321 
2 319 320 
1 319 9640 
2 12647 12648 
2 12646 12647 
2 15493 15494 
1 15493 16689 
2 16063 16064 
2 12214 12215 
1 12214 16063 
1 2901 12646 
3 1817 1818 
2 16064 16065 
1 8667 16065 
2 2522 2523 
3 1816 1817 
1 1816 16101 
1 2523 19686 
2 19685 19686 
2 16100 16101 
3 3400 3401 
2 2521 2522 
1 2521 3400 
2 20393 20394 
2 17695 17696 
2 17696 17697 
1 2424 17695 
3 2423 2424 
1 8370 20394 
3 8369 8370 
3 8368 8369 
1 5202 16308 
1 13311 17697 
1 4317 8368 
3 5762 5763 
1 5763 13854 
2 13853 13854 
2 13852 13853 
3 5761 5762 
1 5136 13852 
2 8360 8361 
3 3286 3287 
3 4171 4172 
3 3890 3891 
3 3889 3890 
3 6845 6846 
3 6844 6845 
3 6040 6041 
1 6040 6844 
1 2955 12358 
3 12358 12359 
3 12359 12360 
1 6846 12360 
3 4042 4043 
1 4042 4885 
3 716 717 
1 717 4887 
3 4886 4887 
3 4885 4886 
1 5169 13014 
2 13013 13014 
2 13012 13013 
2 18388 18389 
3 445 446 
1 445 18390 
2 18389 18390 