LAMMPS data file via write_data, version 7 Aug 2019, timestep = 40000000

6156 atoms
3 atom types
5943 bonds
3 bond types
5730 angles
3 angle types

0.0000000000000000e+00 5.0000000000000000e+01 xlo xhi
0.0000000000000000e+00 5.0000000000000000e+01 ylo yhi
0.0000000000000000e+00 5.0000000000000000e+01 zlo zhi

Masses

1 0.25
2 0.5
3 0.5

Bond Coeffs # harmonic

1 6000 0.15
2 2000 0.4
3 2000 0.4

Angle Coeffs # harmonic

1 100 180
2 50 180
3 50 180

Atoms # angle

16478 2 2 2.5875419521040289e+01 3.0365882101953666e+01 3.0743368748919342e+00
14579 3 3 2.5993538504748045e+01 3.3572308468925804e+01 2.8226958171133125e+00
14580 1 1 2.5658121503963550e+01 3.3648702575662988e+01 2.6540186595100033e+00
16743 1 1 2.5503437956776192e+01 3.3686467271862952e+01 2.5888405459617050e+00
16741 1 1 2.4811736941941938e+01 3.3936948236573649e+01 2.4909541941309246e+00
16742 3 3 2.5147356061174694e+01 3.3837857186188181e+01 2.5044797939071173e+00
21190 1 1 2.5937335435701485e+01 3.5592905242665722e+01 2.3170496818853388e+00
13850 2 2 2.4731173811987194e+01 2.9518572977211765e+01 3.6339221541578817e+00
13849 1 1 2.5051196434315692e+01 2.9355459323816024e+01 3.8599907677550398e+00
1555 1 1 2.5162008707239611e+01 2.9328458794056612e+01 3.9313150050190901e+00
1556 3 3 2.5544567126934691e+01 2.9235760938047790e+01 4.1319877895453159e+00
1557 1 1 2.5866854489819019e+01 2.9081598925501677e+01 4.2801678317500809e+00
10081 1 1 2.5994090016519223e+01 2.9005612856533354e+01 4.3285082309831644e+00
13851 1 1 2.4391539075583093e+01 2.9596355766998101e+01 3.4203879484957356e+00
16477 1 1 2.5676300307713753e+01 3.0380401517509899e+01 3.4300477655022994e+00
7423 1 1 2.5919264247007558e+01 3.1639283048628140e+01 3.1974825927394419e+00
12699 1 1 2.5616368466230554e+01 3.1596770780741188e+01 4.2421910829477589e+00
16973 3 3 2.5131939257005172e+01 3.2485032456619528e+01 4.1798227495369380e+00
16972 1 1 2.5021663433418414e+01 3.2164122939398830e+01 3.9253490919563685e+00
12698 2 2 2.5860243451356627e+01 3.1377937379067482e+01 4.3403510707450517e+00
16974 1 1 2.5317404322929754e+01 3.2772438558745890e+01 4.4582972834140326e+00
17032 1 1 2.5384319350081931e+01 3.2897173720351731e+01 4.5613872707431220e+00
15179 2 2 2.5499997674694196e+01 3.5010655771372598e+01 3.3000215451169859e+00
15180 1 1 2.5122652834978769e+01 3.5109483562369768e+01 3.1275898669644979e+00
3900 1 1 2.5999727609600850e+01 3.4991650361089377e+01 3.5941122609718290e+00
15178 1 1 2.5839667707689610e+01 3.4982162336875241e+01 3.5311778260701860e+00
11590 1 1 2.5016956272951312e+01 2.2081385349066316e+01 4.6752725443495491e+00
11591 2 2 2.5346671293582798e+01 2.2077276982575484e+01 4.9146982672042965e+00
11592 1 1 2.5639575937117488e+01 2.2033235114101359e+01 5.1565807089857909e+00
2275 1 1 2.5747658581386862e+01 2.1991359077108932e+01 5.2722886843019756e+00
12097 1 1 2.5327081646386283e+01 3.3372902619668544e+01 6.0639107597196258e+00
3281 2 2 2.5849816111728831e+01 3.3981381614943480e+01 5.1626475657053588e+00
3282 1 1 2.5801597177387535e+01 3.3626339915449051e+01 4.9990062482528623e+00
17033 2 2 2.5574303168027829e+01 3.3154195966744346e+01 4.7881750571375088e+00
17034 1 1 2.5743434502509725e+01 3.3502188469939732e+01 4.9468756807661718e+00
12098 2 2 2.5724485783321857e+01 3.3228082662831284e+01 6.0415023336928373e+00
3280 1 1 2.5898264944655370e+01 3.4363745183742459e+01 5.3786274889233745e+00
15924 1 1 2.5524646619957544e+01 2.1538573092320167e+01 9.0624646623600942e+00
3307 1 1 2.5986944678849856e+01 2.3272619550813150e+01 9.0327763952875380e+00
1821 1 1 2.5565602195869001e+01 2.4356608507793592e+01 9.1672743175027076e+00
14869 1 1 2.5097962673991159e+01 2.5049771452956886e+01 9.0524486978093499e+00
14870 2 2 2.5123468194500816e+01 2.5383067356623538e+01 8.8448531990287851e+00
14871 1 1 2.5223777616741543e+01 2.5750944081292992e+01 8.6739511821007085e+00
10984 1 1 2.5962232332877758e+01 2.5211969951895146e+01 8.7254516151083905e+00
15923 3 3 2.5742358183149964e+01 2.1607534672243077e+01 9.3950876880779770e+00
9061 1 1 2.5087693335961969e+01 2.0674607065152518e+01 1.0201171850079710e+01
9062 3 3 2.5284132618695867e+01 2.0870777818629513e+01 1.0495789972916313e+01
9063 1 1 2.5486988632628883e+01 2.1100845507914087e+01 1.0789364118305301e+01
6918 1 1 2.5234935148945500e+01 2.1524447737324039e+01 1.0222507287142721e+01
6917 2 2 2.4950332764171076e+01 2.1808997246092179e+01 1.0272629982295815e+01
9773 2 2 2.5814128089994270e+01 2.2422655706758903e+01 1.0277511193414592e+01
9772 1 1 2.5910946915797275e+01 2.2160965091128709e+01 1.0071882595361876e+01
9774 1 1 2.5683709427726683e+01 2.2680139294288761e+01 1.0539360975416388e+01
16266 1 1 2.5634405798726998e+01 2.2758879563065612e+01 1.0653634718407533e+01
6916 1 1 2.4658256663970629e+01 2.2035553787978941e+01 1.0299340926522977e+01
7152 1 1 2.3969812028468066e+01 2.4852714805097389e+01 1.0503677132170480e+01
1819 1 1 2.5730189381788009e+01 2.4351076566401638e+01 9.9272609047541476e+00
5695 1 1 2.5787272473402556e+01 2.4395385679608552e+01 1.0069876406336158e+01
1820 2 2 2.5623829347970183e+01 2.4302873568701706e+01 9.5780211681095331e+00
5696 2 2 2.5911053778077285e+01 2.4584066814445148e+01 1.0442364826340480e+01
7151 2 2 2.4388116571156655e+01 2.4971084519557120e+01 1.0544139899464325e+01
13287 1 1 2.5365534364075756e+01 2.5516746517845490e+01 9.5106876813273775e+00
13285 1 1 2.5770223812947975e+01 2.5433756399914667e+01 1.0171027364226671e+01
7150 1 1 2.4717566581566285e+01 2.5118438090690702e+01 1.0646927432039318e+01
298 1 1 2.4861814443843564e+01 2.5196812967256168e+01 1.0678483234950500e+01
4023 1 1 2.5908124767749804e+01 2.6267220035479998e+01 1.0456738860669786e+01
299 3 3 2.5174511244573882e+01 2.5396360320126746e+01 1.0804901323006643e+01
13286 2 2 2.5532978477287433e+01 2.5447583290289028e+01 9.8261089559598993e+00
7833 1 1 2.5557241293839521e+01 2.1200540202966366e+01 1.0867487747795192e+01
7832 2 2 2.5727390229984113e+01 2.1541758317591810e+01 1.1040469666124213e+01
17629 1 1 2.5848316846417525e+01 2.0964012677329237e+01 1.1870749395669497e+01
15241 1 1 2.4297786045123129e+01 2.2252532374833763e+01 1.1415501151607119e+01
15243 1 1 2.5025330620363825e+01 2.1980254036377850e+01 1.1324058787784413e+01
15242 2 2 2.4651781871955887e+01 2.2102792568766287e+01 1.1413723469972060e+01
16265 2 2 2.5526077227921832e+01 2.2978733886416634e+01 1.0951057879709708e+01
900 1 1 2.5833288655826919e+01 2.1989033441168733e+01 1.1425307066851898e+01
7831 1 1 2.5816442054978946e+01 2.1878354158983697e+01 1.1332768893651455e+01
16264 1 1 2.5449208487202412e+01 2.3189387094873130e+01 1.1315263348174437e+01
1281 1 1 2.5438264880923043e+01 2.3266113819537249e+01 1.1439842830244459e+01
3262 1 1 2.5816060614752267e+01 2.2432376846600054e+01 1.2255305655049613e+01
898 1 1 2.5831607601022935e+01 2.2396763260064336e+01 1.2090755351054341e+01
899 2 2 2.5860181985110295e+01 2.2237209328966554e+01 1.1742045844022662e+01
1280 2 2 2.5459379680391798e+01 2.3456243730628749e+01 1.1810795198895905e+01
1279 1 1 2.5617369239858334e+01 2.3578827935639044e+01 1.2165690553136626e+01
4210 1 1 2.5576478288603816e+01 2.4457631838104980e+01 1.1607332481555845e+01
4211 2 2 2.5484505531102918e+01 2.4572635076606563e+01 1.1974711494006996e+01
10426 1 1 2.5665236665950140e+01 2.3618429236062084e+01 1.2341496395061178e+01
300 1 1 2.5455665582312076e+01 2.5619788864134090e+01 1.1019385962325448e+01
11509 1 1 2.5536969386817880e+01 2.5691992240186565e+01 1.1101185723448101e+01
11510 2 2 2.5770859507766517e+01 2.5935292444928958e+01 1.1372047724265860e+01
11511 1 1 2.5965617608317221e+01 2.6190157593911461e+01 1.1599568023003082e+01
9242 2 2 2.5935484818886476e+01 2.2875788555455820e+01 1.3485478587334249e+01
9241 1 1 2.5950357495332206e+01 2.2966659319552239e+01 1.3838659543488545e+01
21511 1 1 2.4793078084199685e+01 2.3044749050135021e+01 1.3350571181235360e+01
21512 2 2 2.4975200830067923e+01 2.2669702766703853e+01 1.3337960893341004e+01
21513 1 1 2.5035672978039173e+01 2.2301072334964744e+01 1.3176443663688339e+01
3264 1 1 2.5870814002855361e+01 2.2667693104713994e+01 1.2970924551198696e+01
3263 2 2 2.5851372059086497e+01 2.2569059970535541e+01 1.2608384003808078e+01
13756 1 1 2.6009094486727108e+01 2.1783688457596572e+01 1.3518624891349676e+01
4803 1 1 2.6009910620732835e+01 2.1848380544399404e+01 1.3674860680446415e+01
9243 1 1 2.5891772399552107e+01 2.2727568990052195e+01 1.3127519617124285e+01
4212 1 1 2.5493591003307749e+01 2.4679720726125268e+01 1.2385084918311149e+01
11874 1 1 2.5506281802156565e+01 2.4732102098467809e+01 1.2514770273976666e+01
10428 1 1 2.5752301386967527e+01 2.3841737419015281e+01 1.3071937318689496e+01
10427 2 2 2.5686839476658811e+01 2.3719142591816709e+01 1.2720868396514806e+01
19657 1 1 2.5753446173524885e+01 2.3886392954081092e+01 1.3194646436158166e+01
19658 2 2 2.5821346578070351e+01 2.3985436639965819e+01 1.3494100438125869e+01
19659 1 1 2.5882157685212672e+01 2.4121471991201808e+01 1.3840056313807338e+01
11873 2 2 2.5560230449290991e+01 2.4904265621069175e+01 1.2881163034864660e+01
11872 1 1 2.5649718901416584e+01 2.5114754600822536e+01 1.3250533377924262e+01
6052 1 1 2.5681617677171765e+01 2.5180593466802712e+01 1.3384798011930716e+01
4159 1 1 2.5714981113543288e+01 2.5727787251392940e+01 1.2375596444827359e+01
4160 2 2 2.5665409392830579e+01 2.5965521995182552e+01 1.2687713784064330e+01
6053 2 2 2.5756282386845935e+01 2.5315233620803991e+01 1.3746015287125173e+01
20337 1 1 2.5628890861491040e+01 2.6245603507821489e+01 1.3202916913055143e+01
4161 1 1 2.5636136380088171e+01 2.6156435109525656e+01 1.3056418779321888e+01
20336 2 2 2.5666395300379637e+01 2.6433451492918483e+01 1.3594785543229941e+01
7663 1 1 2.4808980171458845e+01 2.1626729391810397e+01 1.4306163252055297e+01
20866 1 1 2.6003775091549603e+01 2.3249742429633912e+01 1.4798569416860833e+01
19018 1 1 2.6003090261577320e+01 2.3278652161690296e+01 1.4913840732238707e+01
20867 2 2 2.5998918710987379e+01 2.3103390710659856e+01 1.4354146721168318e+01
7665 1 1 2.5421173911156359e+01 2.2037705273338791e+01 1.4667894581903871e+01
7664 2 2 2.5121623453240780e+01 2.1832664277251691e+01 1.4495924570315614e+01
20868 1 1 2.5975234965700153e+01 2.3001069401896082e+01 1.3953641102639869e+01
9099 1 1 2.5999119866257818e+01 2.4353123428812371e+01 1.4944852032696653e+01
13800 1 1 2.5893621166454228e+01 2.4147540306190255e+01 1.3987886486843248e+01
13799 2 2 2.5928976138221589e+01 2.4253994498633169e+01 1.4405708980794664e+01
13798 1 1 2.6010207218441138e+01 2.4325808527983995e+01 1.4813238008253427e+01
8176 1 1 2.5807539614326963e+01 2.5795070157598442e+01 1.5138321088314330e+01
12951 1 1 2.5804507789369996e+01 2.5744143225239458e+01 1.4992826237107977e+01
12949 1 1 2.5731728441978039e+01 2.5427373187626465e+01 1.4294856901364579e+01
6054 1 1 2.5751262888329251e+01 2.5393106685561971e+01 1.4146728138496604e+01
12950 2 2 2.5734189076126711e+01 2.5570598398985759e+01 1.4657539325888665e+01
20335 1 1 2.5676469855432920e+01 2.6650544037412701e+01 1.3912962066134988e+01
2761 1 1 2.5969987674897240e+01 2.6058276370822810e+01 1.6034783840186179e+01
8178 1 1 2.5946561088107959e+01 2.6000634578456811e+01 1.5871776978252656e+01
8177 2 2 2.5858822894832194e+01 2.5894821541678379e+01 1.5522611320449810e+01
3379 1 1 2.5895307203683316e+01 2.1276001455659287e+01 1.8316972688563204e+01
9059 3 3 2.5439476945178303e+01 2.1220141679580962e+01 1.8498134692728438e+01
9058 1 1 2.5792360109846840e+01 2.1255081926555789e+01 1.8390975526809545e+01
3880 1 1 2.5737842884085577e+01 2.4538790540836686e+01 1.7689567611971437e+01
1356 1 1 2.5822109530051566e+01 2.4479169750240558e+01 1.7814878398288464e+01
3881 2 2 2.5494309640682310e+01 2.4634846436075190e+01 1.7402587005788575e+01
3882 1 1 2.5260062020874685e+01 2.4814611647565805e+01 1.7168002133784061e+01
9060 1 1 2.5119080874362936e+01 2.1154036136103585e+01 1.8707603041583116e+01
501 1 1 2.5189519859452268e+01 2.7127642078401468e+01 1.9206489324838671e+01
12376 1 1 2.5298707748526812e+01 2.7139244571705404e+01 1.9095661017257108e+01
500 3 3 2.4879215845890865e+01 2.7133019707290753e+01 1.9441287099979938e+01
12377 2 2 2.5632656346771558e+01 2.7111952293648244e+01 1.8864141879193959e+01
499 1 1 2.4583146240448045e+01 2.7238644393983577e+01 1.9655233025562364e+01
12378 1 1 2.5941268108653823e+01 2.7037635062629228e+01 1.8695163996227190e+01
10868 3 3 2.5949465924339311e+01 3.6490218135190183e+01 1.2207460693834564e+00
10869 1 1 2.5749452987594672e+01 3.6627662974301408e+01 9.0003002740808569e-01
8404 1 1 2.4955426551362443e+01 3.6922258421388108e+01 1.9887781843485914e+00
3247 1 1 2.4827094750128548e+01 3.7037413430360601e+01 1.9283307999442667e+00
3248 2 2 2.4564802333819976e+01 3.7279710625820670e+01 1.7838012307562803e+00
8405 2 2 2.5182151169800441e+01 3.6650864740942573e+01 2.0844523848066134e+00
8406 1 1 2.5389152768242962e+01 3.6298695879561819e+01 2.1324276536324525e+00
21192 1 1 2.5464530160517686e+01 3.6156159511759398e+01 2.1481092695472936e+00
21191 2 2 2.5703318653174257e+01 3.5856326453303751e+01 2.1871757971258843e+00
3249 1 1 2.4427858229232601e+01 3.7581848995901055e+01 1.6085820404617959e+00
17465 3 3 3.2878350855176961e+01 2.4840169152083128e+01 2.3195418017163543e+00
17464 1 1 3.2782371872176469e+01 2.4550967089375330e+01 2.6019271885323385e+00
16291 1 1 3.9522767263932671e+01 2.4704983124568514e+01 2.8113597407855653e+00
17919 1 1 3.9667097126185695e+01 2.4623838480090210e+01 2.8095979374601110e+00
17918 2 2 4.0026261906876151e+01 2.4478445802048437e+01 2.8971476864407353e+00
16292 3 3 3.9227983153208427e+01 2.4900840403296254e+01 2.8015555092662177e+00
9913 1 1 4.1391740643644837e+01 2.4040769003195244e+01 2.7796252558647416e+00
14049 1 1 4.1537219778638367e+01 2.4010117681773927e+01 2.7980663201338585e+00
14048 3 3 4.1918420621684874e+01 2.3948676100332595e+01 2.8408945196105724e+00
9914 2 2 4.0966463035139213e+01 2.4143942254641786e+01 2.8159358185666776e+00
9915 1 1 4.0571910432324145e+01 2.4296554866892901e+01 2.8608292273074634e+00
17917 1 1 4.0414322073958189e+01 2.4346781196772241e+01 2.8550768658028685e+00
14047 1 1 4.2322697957094313e+01 2.3856731130391132e+01 2.8166640015895479e+00
15667 1 1 3.2400679048935579e+01 2.4698518658179292e+01 3.9101567274988493e+00
15668 3 3 3.2514557436005369e+01 2.4464386850142791e+01 3.6500588202397726e+00
15669 1 1 3.2630964348293595e+01 2.4153759546626461e+01 3.4196082268216785e+00
11893 1 1 3.5164343826253429e+01 2.4652790647010615e+01 3.8247600382959672e+00
11894 3 3 3.5555972958942242e+01 2.4391791656463614e+01 3.6770977321437841e+00
12840 1 1 3.5034054883594500e+01 2.4725407041840885e+01 3.8556636474537154e+00
12839 3 3 3.4722637999319645e+01 2.4900550275152018e+01 3.9342022146107998e+00
11895 1 1 3.5875572825702974e+01 2.4143257685852962e+01 3.6740720171374472e+00
16890 1 1 3.6831391045632309e+01 2.4466272050213494e+01 3.1979169368116223e+00
16889 3 3 3.7106536166451257e+01 2.4521441273309364e+01 3.5005306332106070e+00
7971 1 1 3.8006926014391993e+01 2.4441822459333221e+01 4.3090457505001094e+00
16888 1 1 3.7419122114594863e+01 2.4553058301668973e+01 3.8152220954613361e+00
7970 3 3 3.7954130993067324e+01 2.4831624854053548e+01 4.1606753841815989e+00
8657 2 2 4.1534502120186751e+01 2.4747025556730314e+01 4.7244455674922810e+00
8656 1 1 4.1857673221946939e+01 2.4533931820366398e+01 4.6433455860958466e+00
8658 1 1 4.1213325261516943e+01 2.5025918530274762e+01 4.6696271273117134e+00
15312 1 1 2.6288998905786066e+01 2.1851913338497504e+01 6.1034566526756668e+00
2277 1 1 2.6257563352127761e+01 2.1852291090789670e+01 5.9831071258970914e+00
17828 2 2 2.8880713604086043e+01 2.1469044906690627e+01 6.0760015853163001e+00
17827 1 1 2.8891554504151454e+01 2.1514364495858921e+01 5.6800527949584820e+00
6313 1 1 2.8203389087585954e+01 2.0554906348176786e+01 5.6132956073581584e+00
6314 2 2 2.8177157083143133e+01 2.0568877876377307e+01 5.9740796776526901e+00
14703 1 1 3.0119942961394781e+01 2.1177092152254545e+01 5.9901827469119189e+00
2276 2 2 2.6052243459496303e+01 2.1942683174407463e+01 5.6058756284356237e+00
12277 1 1 2.8213247544436022e+01 2.2268042619393675e+01 5.9144798999736201e+00
12278 2 2 2.7965598871342934e+01 2.2287211029609242e+01 6.2087008104637409e+00
13829 3 3 3.7053930375794415e+01 2.2658220939719975e+01 5.4438559049571520e+00
13828 1 1 3.6654462893497083e+01 2.2817225368854501e+01 5.5967673340034629e+00
8539 1 1 3.6519075158801357e+01 2.2873935138323997e+01 5.6641586690031556e+00
8540 2 2 3.6147270370635816e+01 2.3091730569074844e+01 5.7538899308282030e+00
8541 1 1 3.5873604888504019e+01 2.3373261414318261e+01 5.7883424013686753e+00
2253 1 1 3.8075772934988983e+01 2.2037623222464052e+01 4.7684753505573205e+00
13830 1 1 3.7349369741067761e+01 2.2486161074757383e+01 5.2758896720337249e+00
2251 1 1 3.7493811977686690e+01 2.2420573888005933e+01 5.2015766870489966e+00
2252 3 3 3.7800840547522178e+01 2.2228345150934064e+01 5.0241062001794736e+00
451 1 1 3.8681522749142324e+01 2.3250163016081384e+01 6.1158636838746245e+00
3605 2 2 3.9828101524409135e+01 2.2327911289207275e+01 6.2870791476765424e+00
5073 1 1 3.9425906741702327e+01 2.2650490713603862e+01 6.0627109847641227e+00
3604 1 1 3.9534479443380576e+01 2.2568430273638310e+01 6.1159366030945099e+00
5071 1 1 3.8811871306533540e+01 2.3118642813606094e+01 6.0869117892550335e+00
5072 3 3 3.9163493517007652e+01 2.2881417160858948e+01 6.0230723112718936e+00
6237 1 1 2.9912008470754511e+01 2.3594424896747700e+01 6.2437023158005758e+00
6236 2 2 3.0276102643462224e+01 2.3665558758825842e+01 5.9995580091136480e+00
6235 1 1 3.0623382568779430e+01 2.3793248965710124e+01 5.8424619855303277e+00
16480 1 1 3.0744479342045100e+01 2.3826173421989566e+01 5.7562767364381173e+00
18475 1 1 2.9606337514029274e+01 2.4607398191204854e+01 5.9592860990731031e+00
18476 2 2 2.9855339086956100e+01 2.4765102235183054e+01 6.2574324658529799e+00
7906 1 1 3.1719557018084476e+01 2.4871681158834221e+01 5.7847511172453308e+00
16482 1 1 3.1509486222875832e+01 2.4045796484445251e+01 5.4193569034259710e+00
16481 3 3 3.1168083736784109e+01 2.3939565540813465e+01 5.5854953781035102e+00
7908 1 1 3.1862012657912416e+01 2.5033711424517627e+01 5.0126952022883779e+00
15189 1 1 3.1674645463432650e+01 2.4854314902450099e+01 5.9196101693706105e+00
7907 3 3 3.1837799635644874e+01 2.4941441428785478e+01 5.4118735456379792e+00
12494 3 3 3.2614144621852084e+01 2.4677170639872394e+01 6.0527477620169128e+00
13035 1 1 3.3124418383634882e+01 2.4039899645214653e+01 5.0904193651647436e+00
13034 3 3 3.2896691723586237e+01 2.4273655767542348e+01 5.2913790920480110e+00
13033 1 1 3.2719096825024288e+01 2.4466214141657606e+01 5.5930510678225787e+00
12495 1 1 3.2691672966575837e+01 2.4530615606444339e+01 5.7078082109394090e+00
1579 1 1 3.3723796846735659e+01 2.3696472417751128e+01 6.2511409606555883e+00
17371 1 1 3.3911088257002682e+01 2.4900793947662894e+01 6.0032668585352527e+00
6580 1 1 3.3690190039795716e+01 2.5017298512146368e+01 4.8846859226294423e+00
6581 3 3 3.3952689337100338e+01 2.4753435571462795e+01 4.9652449404972927e+00
1728 1 1 3.3811990340695459e+01 2.4992101700126682e+01 5.9611737419247754e+00
6582 1 1 3.4246505925053071e+01 2.4526181384106632e+01 5.1011446643078706e+00
17372 3 3 3.4183552998917079e+01 2.4649285083788424e+01 6.1222625459038538e+00
8709 1 1 3.5544995397331142e+01 2.4850203011226359e+01 5.9955294109828019e+00
11152 1 1 3.4367760807938367e+01 2.4440227666379684e+01 5.1619430468882594e+00
11153 3 3 3.4647395329560908e+01 2.4251548180611234e+01 5.2888057356150178e+00
11154 1 1 3.4967119478028245e+01 2.3981717571071460e+01 5.4336350785420509e+00
19175 3 3 3.5429083791421391e+01 2.3698373392173000e+01 5.6351331932787714e+00
19174 1 1 3.5109583703067365e+01 2.3886725146801357e+01 5.4726463775917367e+00
17373 1 1 3.4432534286150251e+01 2.4349506921010526e+01 6.2206611341798608e+00
13441 1 1 3.4558012909592875e+01 2.4250595290266968e+01 6.2667832384004436e+00
7914 1 1 3.5664169477438733e+01 2.4745712049186391e+01 6.0144482201033069e+00
19176 1 1 3.5750045628216036e+01 2.3476173256600539e+01 5.7765549381187471e+00
7913 3 3 3.5990373961334171e+01 2.4509101052273859e+01 6.1014725007972022e+00
1669 1 1 3.6810223471533526e+01 2.4097628531213015e+01 4.8977511274819259e+00
5235 1 1 3.6953036530613105e+01 2.3998692054580843e+01 4.9516333331994851e+00
1670 2 2 3.6529229905212077e+01 2.4335089837865908e+01 4.8374440595237962e+00
1671 1 1 3.6182828378620627e+01 2.4564276197970038e+01 4.8028562190470465e+00
10675 1 1 3.6076625148718847e+01 2.4628321210062239e+01 4.8064162388712131e+00
5234 3 3 3.7203649061296503e+01 2.3788977513758237e+01 5.0623152294540201e+00
7912 1 1 3.6276446030572281e+01 2.4236235333271367e+01 6.1622022970947423e+00
5532 1 1 3.6405817289744320e+01 2.4149646168791850e+01 6.2050602412649063e+00
10676 3 3 3.5750270000014801e+01 2.4825064295604527e+01 4.7835552546766991e+00
5233 1 1 3.7556763799322248e+01 2.3597724230707584e+01 5.0482799520170341e+00
20301 1 1 3.7715895058106312e+01 2.4462196474280869e+01 5.1843219452699234e+00
20300 3 3 3.7483932554334572e+01 2.4803003419413766e+01 5.0889822953808306e+00
452 3 3 3.8478160908613788e+01 2.3605500584393585e+01 6.2255598730819859e+00
20869 1 1 4.0020902879376976e+01 2.4747041010866770e+01 4.8291171503322161e+00
15807 1 1 4.0128625485483049e+01 2.4640256253244054e+01 4.7985151002274051e+00
15805 1 1 4.0579461384534063e+01 2.3958114420840388e+01 4.7613132097108428e+00
15806 2 2 4.0445269693672827e+01 2.4313090678821652e+01 4.7641584826576384e+00
6425 2 2 4.0529946950104552e+01 2.4772058679210449e+01 6.1506795598555684e+00
12046 1 1 2.8472351816512365e+01 1.8503845674543953e+01 7.2407107223180223e+00
12047 2 2 2.8415063490437216e+01 1.8771804781616670e+01 7.5144524562816564e+00
12048 1 1 2.8405022040654320e+01 1.9046841361546754e+01 7.7894088803585362e+00
15310 1 1 2.6467687677694066e+01 2.1852692039883738e+01 6.9089122511652228e+00
15311 3 3 2.6395728165205885e+01 2.1892737963358510e+01 6.4991593432137158e+00
4401 1 1 2.6490906015490069e+01 2.1875446428144695e+01 7.0449079332643718e+00
19763 3 3 2.7313465175877862e+01 2.1268155225279507e+01 7.6495773371984699e+00
19764 1 1 2.7266173506334212e+01 2.1333503618440837e+01 7.2656286348459336e+00
17829 1 1 2.8927319039889646e+01 2.1503655729016788e+01 6.4672837817991402e+00
6315 1 1 2.8154508724433910e+01 2.0695491685553929e+01 6.3767895458028283e+00
9925 1 1 2.8126215666577341e+01 2.0725383653421602e+01 6.5322252157847371e+00
9926 3 3 2.8122709809179547e+01 2.0813636284512587e+01 6.9038182465435556e+00
9927 1 1 2.8201431593652551e+01 2.0821245947904696e+01 7.3045028060833426e+00
18235 1 1 2.8250145111394033e+01 2.0834843663272427e+01 7.4592668885371793e+00
12318 1 1 2.8925538554431824e+01 2.1543203445760142e+01 6.6266356898387144e+00
12317 3 3 2.8931784133601226e+01 2.1654458102275171e+01 7.0222964654774058e+00
12316 1 1 2.8923053075563452e+01 2.1777678984927501e+01 7.3654448131993622e+00
17349 1 1 2.8919366702844400e+01 2.1809779236945207e+01 7.5348990845041230e+00
18236 3 3 2.8312658022918853e+01 2.0846815320191336e+01 7.8691975386725082e+00
14702 2 2 2.9943360167837614e+01 2.1139767756344945e+01 6.3602892050189137e+00
14701 1 1 2.9910028916480289e+01 2.1083955310747296e+01 6.7508990360484615e+00
4045 1 1 2.9903752305389681e+01 2.1095190245271212e+01 6.9172399542100251e+00
4046 3 3 2.9914647517779507e+01 2.1107634198547469e+01 7.3826155129550139e+00
4047 1 1 2.9848109630496147e+01 2.1048097061551708e+01 7.8061156381204047e+00
15471 1 1 4.0779392286622510e+01 2.1400328594076271e+01 6.6483626244008889e+00
15470 3 3 4.0498863838426452e+01 2.1647114912935564e+01 6.4523507092742154e+00
4399 1 1 2.6562523305727712e+01 2.2022609561402675e+01 7.7827236228025729e+00
4400 2 2 2.6527530530079300e+01 2.1970198231489551e+01 7.4113481598808173e+00
9030 1 1 2.7298397183028154e+01 2.2831109158107591e+01 7.0274376111398160e+00
9029 3 3 2.7326581517383769e+01 2.2945303558030862e+01 7.3760058297634554e+00
9028 1 1 2.7340391005458855e+01 2.3082132115463224e+01 7.7462055319810483e+00
12279 1 1 2.7801597446208582e+01 2.2250466418264228e+01 6.5939708743745866e+00
17809 1 1 2.7764355453828848e+01 2.2206619472866063e+01 6.7334652451129102e+00
17811 1 1 2.7795584448410072e+01 2.1989252059601629e+01 7.5610059475356666e+00
17810 3 3 2.7721132712676123e+01 2.2084679626224766e+01 7.1496108913421281e+00
10576 1 1 2.8233259265528599e+01 2.3113510534726444e+01 7.3483096400104175e+00
10577 3 3 2.8439795479148174e+01 2.3050765163582327e+01 7.7068015398537915e+00
8428 1 1 2.7812858215767498e+01 2.1971670025460078e+01 7.7161094008241040e+00
9739 1 1 2.9642673298113237e+01 2.2055041483166992e+01 7.0899091734608630e+00
9740 3 3 2.9725530190904628e+01 2.2296713671954834e+01 7.3889785857785855e+00
9741 1 1 2.9709886827881512e+01 2.2570915943745259e+01 7.7413903800280055e+00
4126 1 1 3.0953716930412821e+01 2.3400780265145993e+01 6.4061355603121637e+00
5953 1 1 3.0977022142635633e+01 2.3269555465228727e+01 7.3594036384235579e+00
4128 1 1 3.0956775785085430e+01 2.3305681001197868e+01 7.2176535399945942e+00
4127 2 2 3.0949842466947040e+01 2.3338680552779540e+01 6.8471064133583370e+00
5954 3 3 3.0983536186372156e+01 2.3175470935871026e+01 7.7615580106407238e+00
20681 3 3 3.3214373748305213e+01 2.3044065765220637e+01 7.3292790392374236e+00
20680 1 1 3.3099330404197566e+01 2.2844452509111441e+01 7.6936527465635658e+00
12466 1 1 3.3039638948881020e+01 2.2770390611191832e+01 7.8158685573569153e+00
9292 1 1 3.2774418452991483e+01 2.2079471580988375e+01 6.8507544848303503e+00
9293 2 2 3.2955736255697538e+01 2.2012032284903007e+01 7.1729455083036200e+00
17734 1 1 3.3322814214441557e+01 2.1968036211217225e+01 7.5446631903112555e+00
9294 1 1 3.3225947376496514e+01 2.1964746714401276e+01 7.4325841424522290e+00
1581 1 1 3.3323151458598289e+01 2.3338931304901052e+01 6.8392544389405110e+00
20682 1 1 3.3289350239795411e+01 2.3266372547222538e+01 6.9775060767792159e+00
17735 3 3 3.3579309119119166e+01 2.1937892924485343e+01 7.8406645136518414e+00
11891 3 3 3.4705365110133165e+01 2.3129964853968929e+01 7.7489169316921123e+00
11890 1 1 3.4482877090975300e+01 2.3424206361346773e+01 7.5248723256419154e+00
5158 1 1 3.6065000359250718e+01 2.2584786276916557e+01 7.0689886276332139e+00
5159 3 3 3.6377158913916830e+01 2.2783914933843032e+01 6.9210022031940586e+00
5160 1 1 3.6658116699989790e+01 2.2872339114988918e+01 6.6933633319747896e+00
1457 3 3 3.7401872223322343e+01 2.3314388123209355e+01 6.3934583334492050e+00
1458 1 1 3.7718695461248352e+01 2.3096036788771450e+01 6.4279478930592955e+00
4617 1 1 3.8404689170256830e+01 2.2445795494087179e+01 6.6966299866484409e+00
4616 3 3 3.8083348481707496e+01 2.2709314739940332e+01 6.5666579028805305e+00
4615 1 1 3.7799446188349179e+01 2.3018926238263585e+01 6.4502978333612084e+00
3606 1 1 4.0117310339383678e+01 2.2035609784184473e+01 6.3306244464604076e+00
15469 1 1 4.0235027510372497e+01 2.1918476405640057e+01 6.3670702998709636e+00
18275 3 3 4.0785622803482852e+01 2.3212443108581766e+01 7.1459025225427402e+00
18274 1 1 4.0869129048035205e+01 2.2940628805359758e+01 7.4069250797796276e+00
9211 1 1 4.0867180442181159e+01 2.2811881380904126e+01 7.5083059263934082e+00
9212 2 2 4.0897370943172390e+01 2.2514995238697523e+01 7.7563254637655117e+00
14854 1 1 2.7579610868646927e+01 2.4460372698844033e+01 7.6853532038728476e+00
8551 1 1 2.8023650601141355e+01 2.4863727563235308e+01 7.0081416362922599e+00
13860 1 1 2.9046024397360856e+01 2.3670530242287118e+01 6.6597635615179618e+00
21312 1 1 2.8772719636979765e+01 2.3947152422595664e+01 7.8295436005141434e+00
8552 3 3 2.8150777465078434e+01 2.4993837180491543e+01 7.3572722009725204e+00
13858 1 1 2.9774691089833624e+01 2.3585449578770632e+01 6.3289474249778452e+00
13859 2 2 2.9406968495476665e+01 2.3599214653673929e+01 6.5402502940121456e+00
10284 1 1 2.9660713409622172e+01 2.4046078799835730e+01 7.1476909497082373e+00
3562 1 1 3.0117489786877506e+01 2.4901001922665639e+01 6.7291396099055056e+00
10283 2 2 2.9742532431501907e+01 2.4052343049195592e+01 7.5012377140283037e+00
18477 1 1 3.0063506525741811e+01 2.4885515941905933e+01 6.6065829346212652e+00
18040 1 1 3.0298701391820511e+01 2.4975925636033004e+01 7.6581472931753432e+00
3564 1 1 3.0268381999229668e+01 2.4997587440447941e+01 7.5245146628330160e+00
3563 3 3 3.0224394696871382e+01 2.4945598484818166e+01 7.1114920383953892e+00
2292 1 1 3.1565204668203521e+01 2.4751306233002271e+01 6.8597415876914996e+00
15187 1 1 3.1570959415411139e+01 2.4772451776413597e+01 6.7084118625900242e+00
19260 1 1 3.2347818444744611e+01 2.3706693561747830e+01 7.6554670471001298e+00
13785 1 1 3.2367097035721464e+01 2.3725798074435847e+01 7.5027854587307443e+00
13784 3 3 3.2383793308515472e+01 2.3762121941346415e+01 7.1242528801242067e+00
2291 3 3 3.1571432783606877e+01 2.4693713589375438e+01 7.2818373606584155e+00
2290 1 1 3.1533835507684785e+01 2.4544560336648523e+01 7.6122749724786978e+00
10885 1 1 3.1515069421222929e+01 2.4485843966230597e+01 7.7149774601847279e+00
15188 3 3 3.1571859494132291e+01 2.4815000032135256e+01 6.3144065759644414e+00
19761 1 1 3.3214699785063907e+01 2.4792480205192451e+01 7.0497869700688387e+00
12493 1 1 3.2580089547645812e+01 2.4873771133369807e+01 6.4408924992589318e+00
13783 1 1 3.2456148929029091e+01 2.3969089070028403e+01 6.7497385067010480e+00
442 1 1 3.2819702230347374e+01 2.4631656684426890e+01 7.8352281965634392e+00
443 3 3 3.2582496262568434e+01 2.4908951885703051e+01 7.8228426854455577e+00
1580 3 3 3.3476583844523411e+01 2.3559351782855451e+01 6.4945178064548097e+00
19760 3 3 3.3478772949799001e+01 2.4463766236719568e+01 7.1699647426679736e+00
19759 1 1 3.3758544080304347e+01 2.4130303654826090e+01 7.2392580035299359e+00
2265 1 1 3.3854307202007774e+01 2.3990948689800955e+01 7.2574288091594097e+00
12604 1 1 3.3146959851394897e+01 2.4898450524462483e+01 6.9996616062256454e+00
13442 3 3 3.4813906396978062e+01 2.4046485087113613e+01 6.4461790762325615e+00
15028 1 1 3.5250323045748829e+01 2.3743914025088944e+01 6.7272992371194711e+00
13443 1 1 3.5118570553656220e+01 2.3823137833151620e+01 6.6546808599590426e+00