ITEM: TIMESTEP
40000000
ITEM: NUMBER OF ATOMS
3219
ITEM: BOX BOUNDS pp pp pp
0.0000000000000000e+00 5.0000000000000000e+01
0.0000000000000000e+00 5.0000000000000000e+01
0.0000000000000000e+00 5.0000000000000000e+01
ITEM: ATOMS id type xs ys zs
10575 1 0.496424 0.37612 0.542023
10574 2 0.496928 0.37306 0.549951
10573 1 0.498968 0.369918 0.556937
15337 1 0.443279 0.274389 0.588924
5595 1 0.445702 0.272428 0.589404
5594 3 0.45249 0.26881 0.590415
17837 3 0.503604 0.271778 0.58334
17836 1 0.510713 0.269491 0.586382
17838 1 0.499133 0.274051 0.577023
6436 1 0.513772 0.268586 0.587757
15339 1 0.432471 0.28668 0.589448
18036 1 0.450026 0.294778 0.577171
18035 3 0.458713 0.295091 0.57913
15338 3 0.437134 0.279878 0.589421
11962 1 0.483987 0.281635 0.564569
10922 3 0.478778 0.295801 0.583086
10923 1 0.486689 0.295042 0.585248
18034 1 0.467042 0.29496 0.580856
10921 1 0.470202 0.295185 0.581913
3786 1 0.489272 0.294742 0.585898
11963 2 0.490482 0.278345 0.56907
11964 1 0.497224 0.274678 0.57445
3785 3 0.496355 0.293571 0.587318
3784 1 0.503864 0.292389 0.58873
9726 1 0.506275 0.292147 0.589425
18963 1 0.431488 0.319359 0.57481
18962 3 0.436647 0.315811 0.579764
18961 1 0.442085 0.313242 0.584412
15283 1 0.444107 0.312304 0.586223
16927 1 0.464055 0.316743 0.584089
16928 3 0.472139 0.316788 0.583055
16929 1 0.480473 0.317157 0.585084
3124 1 0.484032 0.317175 0.585577
3125 3 0.491684 0.316642 0.58651
3126 1 0.499451 0.313608 0.587705
3690 1 0.502002 0.312939 0.588432
18406 1 0.517671 0.325837 0.573837
20897 3 0.454276 0.351402 0.590565
12695 3 0.484825 0.355367 0.57688
12694 1 0.479638 0.360046 0.573609
12696 1 0.490712 0.350384 0.579351
10552 1 0.492256 0.348562 0.580512
10553 2 0.495189 0.343377 0.584359
12856 1 0.507536 0.360744 0.570226
20992 1 0.50881 0.358897 0.572654
20993 3 0.512951 0.354955 0.578973
10554 1 0.498728 0.338573 0.588399
4293 1 0.500773 0.336943 0.589804
12857 2 0.504811 0.36555 0.565106
20994 1 0.516227 0.35245 0.585711
17938 1 0.517689 0.351069 0.587939
4858 1 0.451124 0.376689 0.583213
9946 1 0.458571 0.395728 0.568825
4859 3 0.459299 0.376077 0.584348
4860 1 0.465853 0.373328 0.586855
8712 1 0.468441 0.372417 0.587814
8711 3 0.47588 0.370405 0.590223
2980 1 0.487719 0.381712 0.568326
13080 1 0.469893 0.39265 0.582902
13079 3 0.476139 0.39165 0.58773
9947 2 0.463126 0.395186 0.57524
9948 1 0.467662 0.39326 0.581419
6954 1 0.511077 0.396395 0.587482
12858 1 0.500676 0.36846 0.55978
2981 2 0.493369 0.380069 0.57412
2982 1 0.500067 0.378807 0.579303
19708 1 0.502868 0.377636 0.581269
19709 3 0.508828 0.374817 0.586407
19710 1 0.51582 0.372442 0.58962
16091 3 0.512929 0.396339 0.562178
15166 1 0.513479 0.395232 0.588549
16090 1 0.516441 0.389513 0.564474
1948 1 0.503186 0.243549 0.621867
20055 1 0.467013 0.246375 0.61446
20054 3 0.474536 0.247672 0.616134
9202 1 0.484682 0.24796 0.619429
20053 1 0.481886 0.247906 0.618375
5593 1 0.460417 0.266666 0.591276
16459 1 0.478875 0.270962 0.622528
10906 1 0.463593 0.265702 0.59247
10907 3 0.470709 0.263375 0.594735
10908 1 0.478159 0.262708 0.597572
9222 1 0.481178 0.262231 0.598672
9221 3 0.487783 0.260194 0.60066
20925 1 0.476207 0.271938 0.622426
16460 3 0.486194 0.268335 0.623447
9204 1 0.499954 0.244126 0.621821
9203 3 0.492099 0.246439 0.621179
9220 1 0.494297 0.258253 0.603773
5509 1 0.496678 0.257531 0.605167
5510 3 0.504096 0.255958 0.60688
5215 1 0.514099 0.254304 0.608365
5511 1 0.511289 0.255599 0.607915
6437 3 0.51982 0.267098 0.590729
6267 1 0.425954 0.282973 0.609655
12392 3 0.434454 0.301594 0.610911
12393 1 0.441111 0.297793 0.610013
5196 1 0.443901 0.296332 0.608544
5195 3 0.449853 0.292859 0.603715
5672 3 0.450391 0.281527 0.619779
5673 1 0.443178 0.282857 0.617388
6266 3 0.432566 0.282747 0.613685
6265 1 0.440263 0.282826 0.61608
5194 1 0.456709 0.290477 0.601791
5671 1 0.458357 0.27834 0.619802
20923 1 0.460883 0.277171 0.620023
20924 3 0.467917 0.274975 0.622144
3669 1 0.460057 0.289501 0.600864
3668 3 0.466721 0.285828 0.600679
3667 1 0.474635 0.283501 0.601885
19286 3 0.468565 0.297501 0.620499
15510 1 0.477437 0.283251 0.602368
19285 1 0.475769 0.293733 0.622347
19287 1 0.461243 0.300407 0.618433
15509 3 0.485755 0.283189 0.6038
113 3 0.482947 0.30431 0.604831
112 1 0.490535 0.303267 0.606712
11215 1 0.515055 0.276043 0.609815
14864 3 0.505304 0.280171 0.607155
14865 1 0.496621 0.281926 0.606113
15508 1 0.493478 0.28243 0.605929
21136 1 0.493474 0.302964 0.607514
21137 3 0.500844 0.300831 0.609401
21138 1 0.508266 0.297859 0.611466
18013 1 0.51161 0.297276 0.61232
14863 1 0.512663 0.277105 0.608988
9725 3 0.514918 0.290769 0.591533
18014 3 0.518353 0.295713 0.614057
32 3 0.3847 0.322519 0.618763
33 1 0.378724 0.320306 0.614876
12391 1 0.428487 0.305381 0.610096
10197 1 0.424205 0.325294 0.609751
8569 1 0.404361 0.322448 0.60952
8570 2 0.412591 0.324074 0.609534
8571 1 0.421154 0.324927 0.609787
4832 3 0.44228 0.335217 0.594157
10196 3 0.431857 0.324405 0.60953
15284 3 0.450304 0.310589 0.591591
10195 1 0.439567 0.324554 0.611029
13701 1 0.442979 0.324231 0.611523
13700 3 0.449951 0.322041 0.613471
13699 1 0.457268 0.320747 0.61665
15285 1 0.456692 0.309486 0.595909
4831 1 0.450181 0.334172 0.594941
18826 1 0.453054 0.333547 0.595585
15622 1 0.459201 0.309469 0.597625
20815 1 0.459536 0.320303 0.617937
114 1 0.475581 0.30554 0.604296
15624 1 0.472634 0.306351 0.603467
15623 3 0.464781 0.308287 0.601658
18827 3 0.460926 0.332282 0.598195
18828 1 0.468407 0.329981 0.59836
20241 1 0.471229 0.32908 0.599084
20240 3 0.478401 0.325803 0.601449
20816 3 0.467257 0.319367 0.619294
20239 1 0.485708 0.324409 0.603879
6312 1 0.488322 0.323717 0.604657
20817 1 0.475298 0.318103 0.622571
9358 1 0.47795 0.317416 0.622891
4292 3 0.507609 0.333674 0.59239
3689 3 0.509161 0.311191 0.591563
6311 3 0.495698 0.323238 0.607572
6310 1 0.502042 0.322483 0.611333
6919 1 0.50463 0.321564 0.61305
6920 3 0.512091 0.320472 0.615627
3688 1 0.515689 0.310466 0.594201
4291 1 0.514163 0.331209 0.595058
21160 1 0.516924 0.330615 0.596177
16186 1 0.518453 0.309793 0.595252
6921 1 0.518978 0.318088 0.617515
10795 1 0.396335 0.346595 0.617028
10796 3 0.404306 0.347337 0.61645
10797 1 0.412311 0.346777 0.617177
21027 1 0.414634 0.346387 0.617847
21026 2 0.422313 0.345273 0.619192
4833 1 0.433541 0.33857 0.594362
20898 1 0.458023 0.344091 0.591343
19731 1 0.441419 0.349757 0.608099
19730 3 0.448918 0.347468 0.610023
19729 1 0.455181 0.345181 0.611552
4450 1 0.457598 0.344472 0.612256
21025 1 0.430092 0.342631 0.62071
20896 1 0.450854 0.358886 0.591406
10326 1 0.432353 0.341293 0.621869
18061 1 0.470085 0.35377 0.596485
350 3 0.482491 0.338293 0.621518
4452 1 0.47215 0.340197 0.618255
18062 3 0.476874 0.349059 0.598439
4451 3 0.465272 0.342987 0.615341
14293 1 0.473999 0.361893 0.616381
14294 3 0.480675 0.360001 0.61884
18063 1 0.483976 0.345214 0.601456
349 1 0.475618 0.339676 0.619048
14295 1 0.488277 0.356866 0.621265
7872 1 0.486839 0.344525 0.603126
2419 1 0.471411 0.362562 0.615249
2420 3 0.463534 0.364801 0.612433
16549 1 0.490456 0.356575 0.622383
7871 3 0.494378 0.343512 0.606073
15044 3 0.511522 0.340145 0.612593
7870 1 0.501957 0.343457 0.608594
15043 1 0.504194 0.342922 0.609738
15045 1 0.51872 0.338878 0.615466
1498 1 0.515617 0.363291 0.614496
1499 3 0.509476 0.363971 0.610056
1500 1 0.502682 0.364734 0.605292
10128 1 0.500333 0.365228 0.603864
9064 1 0.518106 0.362914 0.616002
19908 1 0.397507 0.372165 0.606075
19907 3 0.404763 0.373395 0.610136
19906 1 0.409538 0.37471 0.61704
3930 1 0.411198 0.375327 0.620288
10648 1 0.458251 0.394229 0.60075
362 3 0.448011 0.372445 0.60474
363 1 0.454456 0.368582 0.607729
2421 1 0.457047 0.367209 0.609171
361 1 0.442539 0.377262 0.600275
6578 3 0.439273 0.387947 0.618431
6577 1 0.432075 0.391214 0.615034
3333 1 0.433587 0.368861 0.621539
6579 1 0.44563 0.383681 0.620959
10339 1 0.447789 0.382503 0.62239
18090 1 0.430099 0.392799 0.613729
18124 1 0.455977 0.3955 0.599359
21349 1 0.484979 0.391556 0.595084
13078 1 0.482474 0.391835 0.593568
10649 3 0.464282 0.39078 0.604423
8710 1 0.48302 0.37089 0.5955
10650 1 0.471657 0.388283 0.608224
15756 1 0.473764 0.387546 0.60925
15755 3 0.478476 0.384699 0.614293
15754 1 0.485514 0.382313 0.6183
10126 1 0.485804 0.37042 0.597144
8782 1 0.48798 0.380523 0.619675
2020 1 0.518617 0.371229 0.591288
21350 3 0.491172 0.390132 0.599817
10127 3 0.49277 0.36757 0.600504
20244 1 0.501297 0.387911 0.603654
20243 3 0.508187 0.386396 0.607581
20242 1 0.515045 0.383996 0.609945
21351 1 0.498407 0.388286 0.602502
8783 3 0.493138 0.375897 0.622176
14140 1 0.518055 0.382988 0.611261
594 1 0.49704 0.212289 0.634449
593 2 0.50467 0.212421 0.635219
592 1 0.511756 0.211539 0.638379
14634 1 0.515019 0.211118 0.638399
15692 3 0.489033 0.227557 0.632575
20024 3 0.480095 0.232034 0.651283
15693 1 0.485407 0.223761 0.638599
20023 1 0.473499 0.230384 0.647576
20025 1 0.489664 0.233121 0.653068
1949 3 0.511352 0.240682 0.623584
1950 1 0.518532 0.23828 0.627376
15691 1 0.491328 0.232035 0.627215
16918 1 0.492598 0.232881 0.653727
16919 3 0.500476 0.232201 0.655581
19567 1 0.434478 0.252542 0.636402
19568 2 0.441207 0.254125 0.637982
19569 1 0.449824 0.254227 0.637922
19803 1 0.453041 0.254007 0.637416
6336 1 0.456229 0.266879 0.65549
13444 1 0.453723 0.26884 0.655887
19802 2 0.46062 0.251662 0.636574
19801 1 0.468434 0.252335 0.636731
15481 1 0.471891 0.252085 0.637314
15483 1 0.486315 0.249885 0.640733
15482 3 0.478777 0.251166 0.639777
17472 1 0.489392 0.249671 0.640957
6335 2 0.463143 0.263352 0.655604
18329 3 0.515645 0.244917 0.646276
16461 1 0.494687 0.266739 0.623948
16863 1 0.497804 0.266573 0.624543
16862 3 0.5053 0.26519 0.62757
17471 3 0.497529 0.249183 0.641244
17470 1 0.505409 0.246955 0.642765
18328 1 0.508368 0.246366 0.643466
5465 3 0.511367 0.267563 0.648781
16861 1 0.512987 0.261981 0.629405
5466 1 0.503198 0.269666 0.645654
2701 1 0.500809 0.270578 0.644905
16816 1 0.516248 0.261296 0.630087
5464 1 0.519521 0.264849 0.651322
17880 1 0.414845 0.288976 0.633052
17879 2 0.422503 0.290712 0.634325
17878 1 0.429609 0.292419 0.63602
5995 1 0.43269 0.292554 0.636552
5996 3 0.441447 0.292719 0.636784
5997 1 0.449492 0.291061 0.636665
14602 1 0.452142 0.290856 0.63704
15226 1 0.47835 0.293246 0.623555
2703 1 0.486079 0.278011 0.644094
16410 1 0.48333 0.278904 0.643477
15227 3 0.485572 0.29068 0.626388
14603 3 0.45975 0.288615 0.637681
14604 1 0.465883 0.286008 0.639091
16408 1 0.468354 0.284655 0.639583
16409 3 0.47567 0.280964 0.641379
10044 1 0.479133 0.301118 0.643778
21495 1 0.481846 0.299958 0.644476
10043 3 0.472486 0.303522 0.642496
21494 3 0.48877 0.297399 0.646787
2702 3 0.49265 0.274592 0.644771
15228 1 0.493676 0.288239 0.627093
3052 1 0.496591 0.287432 0.628022
12091 1 0.513173 0.289036 0.654728
3053 3 0.504187 0.285954 0.630344
21493 1 0.496565 0.294544 0.648271
12093 1 0.499342 0.293985 0.648861
12092 3 0.506166 0.291413 0.651397
3054 1 0.512 0.283605 0.632494
3493 1 0.51508 0.283298 0.633631
12871 1 0.508229 0.30429 0.631587
17511 1 0.5107 0.303999 0.632476
18129 1 0.515896 0.287643 0.655285
17510 3 0.518744 0.302964 0.633748
31 1 0.390865 0.32328 0.624066
5433 1 0.393647 0.324025 0.62524
5432 2 0.401218 0.325477 0.629136
5431 1 0.408779 0.326826 0.631644
5821 1 0.41227 0.326695 0.632098
5822 3 0.42132 0.325958 0.632912
667 1 0.418754 0.314814 0.65195
668 3 0.425905 0.31787 0.652899
5823 1 0.429203 0.323011 0.631627
3829 1 0.432298 0.321474 0.631406
3830 3 0.439004 0.317979 0.630519
3831 1 0.446037 0.315226 0.632696
7950 1 0.448659 0.31375 0.632966
669 1 0.433077 0.320824 0.652718
12955 1 0.435867 0.321484 0.652502
18494 3 0.454713 0.332545 0.633181
7949 3 0.454737 0.309835 0.634261
12956 3 0.44337 0.323 0.650213
12957 1 0.450855 0.3208 0.651294
18493 1 0.447992 0.334385 0.629688
10324 1 0.445226 0.335395 0.628945
18264 1 0.453775 0.319911 0.652535
351 1 0.489717 0.335044 0.625664
9359 3 0.485112 0.314004 0.624119
10042 1 0.465262 0.306753 0.638547
7948 1 0.462483 0.308043 0.637348
18495 1 0.461692 0.330824 0.636362
1120 1 0.464797 0.329363 0.637657
1121 3 0.472636 0.328099 0.639351
1122 1 0.480636 0.324612 0.640817
14830 1 0.482937 0.323589 0.641507
18263 3 0.461419 0.315802 0.655828
14831 3 0.49008 0.319445 0.643738
9360 1 0.492351 0.311192 0.626345
12872 3 0.50141 0.307106 0.629383
12873 1 0.495158 0.310363 0.627211
14832 1 0.496773 0.315913 0.644816
4088 3 0.499185 0.331611 0.629138
4089 1 0.506512 0.327964 0.63147
20127 1 0.509178 0.326551 0.632491
12520 1 0.499315 0.314611 0.645786
12521 3 0.505878 0.311788 0.649364
12522 1 0.512007 0.309006 0.651577
20126 3 0.515844 0.324947 0.636676
4087 1 0.492291 0.334029 0.626582
12420 1 0.514637 0.308219 0.652306
6001 1 0.513062 0.332173 0.654712
15418 1 0.510917 0.333227 0.653081
8999 2 0.412223 0.36441 0.642704
8998 1 0.419178 0.361325 0.642033
10947 1 0.422313 0.359602 0.642142
16531 1 0.403695 0.350397 0.654148
3332 3 0.439503 0.364053 0.624106
3331 1 0.445219 0.359614 0.6261
10325 3 0.438501 0.337842 0.625793
10946 3 0.430165 0.35538 0.642417
8637 1 0.448006 0.357793 0.626803
10945 1 0.436382 0.350795 0.6454
20325 1 0.439058 0.348758 0.647052
20324 3 0.44474 0.343992 0.649721
8636 3 0.454884 0.355056 0.630114
20323 1 0.451411 0.340433 0.652467
18691 1 0.453887 0.339663 0.653503
14842 1 0.455082 0.365259 0.648878
8635 1 0.461043 0.351943 0.632877
14843 3 0.46158 0.362537 0.650987
20286 1 0.464153 0.351067 0.634273
20285 3 0.471021 0.349023 0.637315
20284 1 0.478069 0.347858 0.639521
14794 1 0.480971 0.347291 0.640035
14795 3 0.487795 0.343784 0.642282
14844 1 0.46796 0.360527 0.654063
10175 3 0.486581 0.365989 0.64081
14260 1 0.470675 0.35979 0.655044
16550 3 0.497404 0.353143 0.625752
12641 3 0.5124 0.34589 0.634151
14796 1 0.495074 0.340585 0.644491
15420 1 0.497885 0.339126 0.645861
16551 1 0.503859 0.349886 0.628388
12642 1 0.506178 0.348583 0.630174
20447 3 0.502462 0.358327 0.64808
15419 3 0.503904 0.335759 0.649876
20448 1 0.50889 0.355034 0.652241
15162 1 0.510527 0.354083 0.65306
10176 1 0.492691 0.362984 0.643221
20446 1 0.495134 0.36165 0.643981
15161 3 0.516507 0.350063 0.656205
12640 1 0.519266 0.343085 0.636309
5403 1 0.389627 0.377081 0.646819
5402 2 0.395194 0.373351 0.645152
5401 1 0.401448 0.369308 0.643744
9000 1 0.404605 0.368107 0.643314
3928 1 0.421389 0.379108 0.633344
3929 2 0.416084 0.3777 0.627731
13692 1 0.423665 0.379286 0.635047
7997 3 0.445093 0.395698 0.635949
10340 3 0.454542 0.38012 0.626281
13691 3 0.430917 0.377928 0.639703
1159 1 0.451948 0.366286 0.648109
1160 3 0.445461 0.36986 0.646262
1161 1 0.439447 0.372712 0.642671
13690 1 0.436834 0.374227 0.641574
18358 1 0.452579 0.391365 0.641266
18359 3 0.458697 0.389188 0.645407
19518 1 0.434968 0.395171 0.655308
7998 1 0.45065 0.392239 0.640202
13592 3 0.482603 0.3907 0.63727
10341 1 0.46117 0.376592 0.628905
12262 1 0.464082 0.375109 0.630224
10174 1 0.479899 0.368957 0.638061
12264 1 0.477576 0.370201 0.63671
12263 3 0.470714 0.373058 0.634154
18360 1 0.464698 0.38622 0.649123
5368 1 0.46677 0.384718 0.650619
5369 3 0.472433 0.379774 0.653596
13591 1 0.475968 0.395202 0.634139
5982 1 0.512561 0.394501 0.634436
13593 1 0.490075 0.387959 0.641246
741 1 0.492369 0.386899 0.642786
8784 1 0.499741 0.372151 0.626218
10557 1 0.502254 0.371447 0.627066
740 3 0.498097 0.384101 0.646051
10556 3 0.50906 0.370402 0.630076
739 1 0.504225 0.380476 0.649974
276 1 0.507002 0.379695 0.65224
275 3 0.513572 0.377335 0.655878
10555 1 0.516751 0.369262 0.63378
1635 1 0.514648 0.392981 0.635488
18238 1 0.519261 0.368702 0.635276
3031 1 0.515457 0.212894 0.682027
4825 1 0.460697 0.219264 0.666155
4826 3 0.468907 0.220287 0.666179
4827 1 0.477923 0.221777 0.666677
20701 1 0.481315 0.221701 0.667396
20702 3 0.487675 0.219346 0.669366
345 1 0.474573 0.241508 0.672724
344 3 0.482474 0.241207 0.674102
9079 1 0.471051 0.242078 0.672415
9080 3 0.46411 0.243449 0.67095
11549 3 0.506224 0.216203 0.676856
16920 1 0.508026 0.229568 0.657649
17245 1 0.510269 0.22837 0.658807
20703 1 0.495786 0.218768 0.671818
11430 1 0.512119 0.234848 0.681118
19537 1 0.508837 0.23563 0.680595
19538 3 0.500572 0.236314 0.679488
11550 1 0.498687 0.218498 0.673008
343 1 0.48974 0.239815 0.677222
19539 1 0.492612 0.239144 0.678249
11548 1 0.512591 0.213572 0.681125
17246 3 0.517628 0.226011 0.660572
11429 3 0.519637 0.232446 0.68237
20788 1 0.417443 0.269167 0.682367
20789 2 0.425108 0.267316 0.683079
20329 1 0.439427 0.248019 0.667495
20330 2 0.446955 0.246267 0.668291
16381 1 0.451778 0.267349 0.682046
14548 1 0.454642 0.268295 0.681559
20331 1 0.454201 0.244528 0.669857
9081 1 0.456572 0.244154 0.670108
13445 3 0.446483 0.273168 0.658393
20790 1 0.433122 0.264967 0.68416
16383 1 0.435837 0.264942 0.684195
16382 2 0.44416 0.26571 0.684551
6334 1 0.47024 0.260752 0.657728
2697 1 0.473603 0.260095 0.658174
2696 3 0.481943 0.258249 0.659168
18923 3 0.482657 0.26736 0.679559
18924 1 0.474269 0.269275 0.679548
14550 1 0.471375 0.269533 0.679473
14549 3 0.462363 0.269917 0.6807
2695 1 0.489857 0.256562 0.662034
18922 1 0.490501 0.266661 0.681651
13105 1 0.492874 0.255549 0.662621
13106 3 0.500624 0.253598 0.661907
10593 1 0.493623 0.266288 0.682325
10592 3 0.499658 0.263615 0.68498
7117 1 0.511069 0.25101 0.662898
13107 1 0.507875 0.251519 0.662212
11332 1 0.510173 0.261409 0.688593
10591 1 0.507374 0.262015 0.687771
1352 3 0.517042 0.270642 0.67249
10291 1 0.506779 0.273933 0.668262
1351 1 0.50927 0.273434 0.669218
7118 3 0.517974 0.251171 0.666261
7858 1 0.424324 0.290647 0.661033
7408 1 0.422096 0.292199 0.661796
7410 1 0.410399 0.302057 0.665079
7409 3 0.41624 0.297693 0.663275
7860 1 0.438524 0.280655 0.658714
7859 3 0.431068 0.285881 0.659215
13446 1 0.440546 0.278707 0.658389
16197 1 0.456186 0.303514 0.675034
21480 1 0.453738 0.304749 0.674301
927 1 0.459777 0.292014 0.658445
926 3 0.467708 0.288307 0.658342
925 1 0.473919 0.286463 0.659027
15768 1 0.476476 0.285694 0.659798
15767 3 0.483566 0.284128 0.663439
13256 3 0.477779 0.293558 0.681498
16195 1 0.468993 0.298947 0.680597
13257 1 0.4714 0.297657 0.681025
13255 1 0.48622 0.290563 0.684721
3217 1 0.488859 0.2893 0.685872
16196 3 0.46216 0.301105 0.67774
15766 1 0.490213 0.281823 0.665574
10293 1 0.492951 0.280239 0.665925
10292 3 0.499508 0.275951 0.666872
7628 3 0.511294 0.295212 0.675676
7629 1 0.503964 0.29919 0.673242
13743 1 0.501756 0.300533 0.6723
3218 3 0.495344 0.286147 0.68769
13742 3 0.495701 0.303809 0.669078
7627 1 0.518711 0.29279 0.677501
21479 3 0.446287 0.307982 0.672001
21478 1 0.439605 0.311389 0.668234
3025 1 0.454156 0.329685 0.673243
10875 1 0.451611 0.330586 0.672001
10874 3 0.443471 0.332709 0.670342
6643 1 0.434682 0.323451 0.687055
3026 3 0.460146 0.326545 0.675647
3027 1 0.466257 0.323632 0.677701
10470 1 0.468835 0.322326 0.679232
4799 3 0.478144 0.310653 0.6629
4800 1 0.470672 0.31241 0.659647
18262 1 0.468519 0.313007 0.658442
10468 1 0.481442 0.316313 0.683419
12690 1 0.484102 0.315653 0.683959
10469 3 0.475527 0.318652 0.681933
2766 1 0.484109 0.329373 0.663115
4798 1 0.485953 0.30831 0.665534
2694 1 0.486836 0.328764 0.664358
2765 3 0.478549 0.331661 0.660771
13741 1 0.488833 0.307018 0.666655
18693 1 0.467728 0.334903 0.659242
2764 1 0.470526 0.333769 0.659963
1508 3 0.488209 0.335399 0.687944
6002 3 0.519968 0.329219 0.658674
4333 1 0.518971 0.314428 0.676132
12689 3 0.490909 0.313776 0.686693
2693 3 0.493601 0.326157 0.666369
18489 1 0.504519 0.32297 0.669252
2692 1 0.501477 0.324318 0.668586
18488 3 0.510277 0.319483 0.672067
18487 1 0.516426 0.315836 0.674751
13773 1 0.385796 0.353457 0.664419
13772 2 0.391136 0.349931 0.669759
13771 1 0.396696 0.346974 0.675665
16532 2 0.410001 0.348527 0.658076
3421 1 0.419377 0.344005 0.662217
16533 1 0.416774 0.345202 0.66125
3422 2 0.426529 0.34136 0.664149
14860 1 0.417933 0.359884 0.678286
14861 2 0.422937 0.355315 0.681067
14799 1 0.41533 0.361979 0.677493
19366 1 0.398845 0.345795 0.677784
19367 2 0.404909 0.34387 0.682669
14508 1 0.412615 0.3428 0.688851
19368 1 0.4103 0.34333 0.687232
15662 2 0.422519 0.365149 0.661095
14862 1 0.429396 0.351369 0.682723
3423 1 0.433754 0.337118 0.666141
10873 1 0.436722 0.335653 0.667085
10997 3 0.440371 0.356719 0.66625
10998 1 0.447779 0.354654 0.669432
12454 1 0.450691 0.354185 0.67081
12455 3 0.457252 0.351014 0.673978
11878 1 0.432205 0.349838 0.68306
11879 3 0.440225 0.34614 0.685726
10996 1 0.432395 0.359287 0.66509
15663 1 0.429468 0.360551 0.664241
11880 1 0.446727 0.343011 0.688636
18692 3 0.460319 0.33795 0.656532
14261 3 0.477318 0.355689 0.658138
12456 1 0.463713 0.348502 0.677301
855 1 0.465889 0.347162 0.678515
854 3 0.47181 0.342911 0.680887
1507 1 0.481199 0.338673 0.685335
853 1 0.47841 0.340301 0.684296
14262 1 0.484316 0.352789 0.662609
10000 1 0.486786 0.351512 0.664244
6815 3 0.483207 0.36339 0.683701
6816 1 0.475864 0.365382 0.681052
6814 1 0.490197 0.360486 0.687895
18502 1 0.513836 0.339136 0.679131
13156 1 0.492775 0.358924 0.688941
10001 3 0.492062 0.34848 0.668333
18503 3 0.508315 0.340452 0.676426
10002 1 0.498324 0.343474 0.671627
18504 1 0.500531 0.342544 0.672931
9850 1 0.516637 0.338341 0.679914
12067 1 0.514649 0.364181 0.673875
15130 1 0.512211 0.364628 0.672355
6813 1 0.381697 0.395311 0.68551
6812 3 0.386048 0.390002 0.688289
14797 1 0.400529 0.368865 0.675609
5373 1 0.41049 0.389967 0.659633
5372 2 0.412782 0.38111 0.659878
15661 1 0.417195 0.371822 0.658999
5371 1 0.415381 0.374575 0.659292
12311 2 0.42038 0.391467 0.677277
14798 2 0.408135 0.366838 0.676499
12310 1 0.413794 0.395941 0.675054
12312 1 0.426646 0.385904 0.678506
19517 3 0.43938 0.389068 0.658937
9300 1 0.429074 0.383982 0.679321
9299 2 0.434769 0.378734 0.681829
9298 1 0.439847 0.374256 0.685826
9860 3 0.451076 0.376634 0.667196
9861 1 0.445567 0.380923 0.663088
19516 1 0.443389 0.383174 0.661856
4719 1 0.442297 0.372272 0.68732
9859 1 0.456668 0.37387 0.671412
1050 1 0.476989 0.389856 0.679819
8040 1 0.459323 0.372984 0.672666
8038 1 0.472944 0.366536 0.679847
5370 1 0.477714 0.376063 0.657822
8039 3 0.466237 0.370346 0.674935
1049 3 0.483129 0.38599 0.683316
3024 1 0.48031 0.375021 0.659864
1048 1 0.489651 0.384029 0.686705
3023 3 0.486299 0.373011 0.664529
9176 3 0.46925 0.393796 0.673764
9177 1 0.475044 0.39126 0.678672
19034 3 0.487079 0.396334 0.661275
13625 3 0.518802 0.384878 0.678158
19035 1 0.493387 0.393799 0.664936
274 1 0.519991 0.37572 0.659169
20622 1 0.492005 0.382914 0.687773
13624 1 0.512011 0.388472 0.674398
5 3 0.502465 0.391554 0.669994
15131 3 0.504388 0.367552 0.670387
15132 1 0.495934 0.370084 0.668084
3022 1 0.492862 0.370671 0.667753
4 1 0.509505 0.389592 0.673279
6 1 0.49573 0.393024 0.66603
15355 1 0.518635 0.198762 0.713611
15356 3 0.519671 0.193134 0.707805
19771 1 0.451315 0.241382 0.690246
568 1 0.488147 0.229916 0.701249
569 3 0.495668 0.227179 0.700892
570 1 0.502778 0.223535 0.702027
6100 1 0.505089 0.222397 0.702198
6101 3 0.512186 0.219148 0.703613
18874 1 0.51607 0.241208 0.703343
19444 1 0.518919 0.24025 0.704541
19772 2 0.451129 0.247976 0.695863
19773 1 0.453507 0.254202 0.699601
1215 1 0.455032 0.255983 0.701376
1214 2 0.456591 0.261133 0.707229
14248 1 0.482689 0.251375 0.697135
1213 1 0.459745 0.266292 0.71249
6637 1 0.461499 0.267883 0.714286
6638 3 0.46553 0.270689 0.720756
11333 3 0.517883 0.258471 0.691086
14249 3 0.49009 0.248559 0.698031
18875 3 0.508042 0.244231 0.701642
4621 1 0.519276 0.263444 0.71125
18927 1 0.516359 0.264541 0.710906
18876 1 0.500764 0.245989 0.700255
14250 1 0.497899 0.246554 0.6993
18926 2 0.508046 0.266804 0.709196
18925 1 0.501324 0.270197 0.707528
2700 1 0.498555 0.271297 0.706552
2699 3 0.492065 0.273948 0.703706
8151 1 0.433615 0.301225 0.691196
2181 1 0.430542 0.302592 0.691102
8150 3 0.440938 0.298142 0.692698
8149 1 0.44791 0.294803 0.693511
6096 1 0.450724 0.293119 0.694557
6095 3 0.458103 0.289366 0.69579
16032 1 0.458038 0.300752 0.71477
16031 3 0.450382 0.303449 0.712934
3529 1 0.460895 0.299842 0.715302
6094 1 0.464386 0.285534 0.697641
2698 1 0.484577 0.276154 0.701088
8485 1 0.481647 0.277429 0.700537
3531 1 0.475195 0.292364 0.719342
8487 1 0.467206 0.2839 0.698206
8486 3 0.475028 0.281242 0.699255
3530 3 0.468518 0.296572 0.718005
19637 3 0.484963 0.286089 0.72155
19636 1 0.477969 0.290545 0.720128
12490 1 0.482496 0.302034 0.700597
14284 1 0.479716 0.303439 0.700165
10614 1 0.516751 0.301478 0.695979
3219 1 0.502054 0.283745 0.690438
9406 1 0.504967 0.283005 0.691536
14866 1 0.514039 0.302915 0.694673
12491 3 0.490028 0.300285 0.702639
9407 3 0.512394 0.281729 0.692822
12492 1 0.497137 0.298211 0.70532
2115 1 0.51281 0.289796 0.711216
2114 3 0.50593 0.292958 0.709723
2379 1 0.515197 0.288053 0.712358
2113 1 0.499699 0.297004 0.706827
9408 1 0.520037 0.279489 0.693517
2180 3 0.42231 0.305278 0.692942
2179 1 0.414794 0.306656 0.694432
6082 1 0.426194 0.318012 0.713718
6644 3 0.440222 0.322416 0.691161
6645 1 0.446815 0.319294 0.692945
633 1 0.44971 0.317909 0.693237
16030 1 0.442664 0.308471 0.711722
6084 1 0.440221 0.310062 0.711651
6083 3 0.432672 0.313883 0.712718
632 3 0.457407 0.315137 0.694889
14073 1 0.442469 0.332154 0.712556
14072 3 0.449996 0.331088 0.715232
16011 1 0.440331 0.333261 0.711251
14071 1 0.457349 0.326861 0.715564
20842 1 0.459561 0.325785 0.715912
631 1 0.463381 0.311439 0.697157
14286 1 0.465877 0.310136 0.697952
14285 3 0.472387 0.307118 0.699474
16068 1 0.47715 0.327337 0.701711
18649 1 0.479924 0.325458 0.702339
18650 3 0.486462 0.32198 0.705463
16067 3 0.470818 0.330775 0.699082
20843 3 0.466232 0.3202 0.718729
20844 1 0.472265 0.315986 0.721208
16066 1 0.464514 0.334128 0.69732
12688 1 0.4981 0.31151 0.690132
9923 2 0.516917 0.30894 0.719468
1509 1 0.494101 0.332158 0.690884
9472 1 0.497025 0.331167 0.691673
9473 3 0.504269 0.329817 0.693115
14868 1 0.500432 0.31088 0.690702
14867 3 0.507417 0.307639 0.692286
18651 1 0.492657 0.319366 0.707789
8719 1 0.507101 0.312762 0.715899
17706 1 0.514996 0.326566 0.695545
8721 1 0.494734 0.31835 0.709117
8720 3 0.500732 0.315149 0.712707
9924 1 0.509726 0.31198 0.716936
9474 1 0.511619 0.327906 0.694822
17025 1 0.519933 0.332589 0.719917
14507 3 0.418998 0.339994 0.694031
14506 1 0.425572 0.338448 0.699578
16009 1 0.427844 0.337662 0.701491
1786 1 0.421797 0.364485 0.702747
20838 1 0.424486 0.363259 0.703938
16010 3 0.433924 0.336107 0.705779
20836 1 0.438302 0.356544 0.707971
9688 1 0.449258 0.341823 0.689868
16454 3 0.448442 0.354437 0.710321
16455 1 0.454854 0.3513 0.710902
9689 3 0.455786 0.338902 0.693163
16453 1 0.441134 0.355967 0.708587
612 1 0.457593 0.350087 0.711635
10240 1 0.457719 0.365171 0.695137
20837 3 0.431175 0.359418 0.707015
9690 1 0.462248 0.335778 0.696598
10770 1 0.473312 0.341081 0.717347
611 3 0.464558 0.347317 0.71368
10241 3 0.465257 0.362715 0.69681
10242 1 0.472127 0.357875 0.699025
4898 3 0.481537 0.351745 0.70057
4899 1 0.474437 0.356349 0.698973
610 1 0.470376 0.34247 0.716251
10769 3 0.479669 0.338473 0.721413
17265 1 0.475484 0.363986 0.720923
14547 1 0.47277 0.365184 0.720207
4897 1 0.48998 0.349043 0.703125
17024 3 0.513521 0.337119 0.71706
17067 1 0.491969 0.347793 0.704083
2225 3 0.517305 0.3488 0.695307
13157 3 0.499717 0.35526 0.689652
17066 3 0.498411 0.343265 0.707623
13158 1 0.507428 0.351976 0.691625
17023 1 0.507612 0.340952 0.712405
17065 1 0.504891 0.341427 0.711028
2226 1 0.510341 0.35084 0.69241
5630 3 0.514479 0.358578 0.71754
5629 1 0.507556 0.360951 0.713708
18019 1 0.505281 0.362002 0.712707
18020 3 0.49824 0.365052 0.710078
6811 1 0.392109 0.385 0.690473
547 1 0.394213 0.383127 0.691413
548 2 0.400133 0.378503 0.694297
549 1 0.406514 0.373288 0.695842
1788 1 0.408736 0.371719 0.697062
1787 2 0.415396 0.367663 0.699077
4718 3 0.448665 0.368359 0.690234
5408 2 0.437084 0.390864 0.706439
5407 1 0.441819 0.384713 0.709084
21253 1 0.455993 0.372648 0.715503
21254 3 0.449182 0.376865 0.712276
21255 1 0.443915 0.382767 0.709839
14545 1 0.458409 0.371301 0.716349
4717 1 0.455044 0.366071 0.693974
14546 3 0.465406 0.368262 0.718499
3781 1 0.460167 0.39392 0.697804
19827 1 0.462211 0.392475 0.699091
19826 3 0.468234 0.387191 0.701714
11784 1 0.475888 0.38038 0.704804
11783 3 0.482142 0.376499 0.707478
19825 1 0.474081 0.381731 0.703513
11782 1 0.488435 0.371821 0.707987
18429 1 0.496136 0.39295 0.711196
346 1 0.517607 0.394051 0.700327
6190 1 0.494317 0.394744 0.710585
20621 3 0.499278 0.379339 0.690948
20620 1 0.506936 0.377262 0.693226
14351 3 0.515809 0.372046 0.697
12014 3 0.516499 0.377822 0.718036
18021 1 0.491145 0.370412 0.708449
12015 1 0.509378 0.382627 0.716571
18427 1 0.507506 0.38398 0.715819
14350 1 0.509674 0.376045 0.694271
18428 3 0.501712 0.387725 0.713662
1704 1 0.520165 0.392967 0.702007
8352 1 0.519918 0.226929 0.728293
6639 1 0.469352 0.27296 0.728315
4597 1 0.51766 0.266256 0.751737
13750 1 0.515309 0.268587 0.751344
13751 2 0.509991 0.273469 0.749771
12179 2 0.514582 0.26332 0.731983
12180 1 0.508538 0.267444 0.729667
21525 1 0.506025 0.269048 0.728834
7958 3 0.457218 0.29255 0.737073
7957 1 0.449427 0.294356 0.736085
4684 1 0.44724 0.295265 0.735886
11578 1 0.430166 0.30382 0.736017
4686 1 0.432898 0.302279 0.736304
4685 3 0.43968 0.298605 0.736788
7959 1 0.464797 0.291273 0.738748
73 1 0.46793 0.29103 0.739358
75 1 0.48535 0.289703 0.744444
7755 1 0.487962 0.289115 0.744904
74 3 0.476245 0.2899 0.740719
1566 1 0.518316 0.28774 0.737519
19638 1 0.490874 0.280849 0.724552
7754 3 0.495351 0.286239 0.746933
21523 1 0.493509 0.279109 0.725628
13752 1 0.504265 0.27941 0.748767
21524 3 0.499919 0.275242 0.727188
1565 2 0.512624 0.292187 0.734999
1564 1 0.506555 0.296487 0.732629
12031 1 0.504541 0.298047 0.732265
12032 3 0.497202 0.302703 0.730704
7753 1 0.501815 0.281268 0.748498
11580 1 0.417816 0.313157 0.737615
11579 2 0.424208 0.308307 0.736547
6118 1 0.474547 0.314587 0.722208
6119 3 0.481221 0.311795 0.725905
6120 1 0.488325 0.307831 0.728669
7233 1 0.518181 0.314809 0.738176
8865 1 0.515463 0.316464 0.737523
12033 1 0.49069 0.306282 0.729489
8863 1 0.503291 0.325805 0.732732
16807 1 0.50097 0.328211 0.73162
16808 3 0.495357 0.332945 0.728864
8864 3 0.510138 0.321106 0.735618
17263 1 0.487795 0.35776 0.727997