ITEM: TIMESTEP
40000000
ITEM: NUMBER OF ENTRIES
2508
ITEM: BOX BOUNDS pp pp pp
0 50
0 50
0 50
ITEM: ENTRIES c_binfo[1] c_binfo[2] c_binfo[3] 
3 517 518 
1 517 3067 
3 21449 21450 
3 21448 21449 
1 1881 21448 
3 3067 3068 
3 1880 1881 
3 17768 17769 
3 17767 17768 
3 14131 14132 
1 14131 17769 
3 1879 1880 
1 1879 7737 
3 7736 7737 
3 4709 4710 
3 4708 4709 
1 4708 12106 
2 12106 12107 
2 12107 12108 
3 11492 11493 
2 5417 5418 
2 5416 5417 
1 5416 20274 
3 20273 20274 
3 20272 20273 
1 20272 21055 
2 21055 21056 
2 21056 21057 
3 3068 3069 
1 3069 15684 
2 15682 15683 
2 1699 1700 
1 1699 15682 
2 15683 15684 
2 1700 1701 
3 1402 1403 
3 1403 1404 
1 1404 8416 
2 8416 8417 
2 8417 8418 
1 8418 19915 
2 19915 19916 
2 18338 18339 
2 5492 5493 
2 865 866 
2 866 867 
1 867 1246 
2 1246 1247 
2 5491 5492 
3 2170 2171 
3 2171 2172 
1 2172 9004 
2 9004 9005 
3 15901 15902 
3 14132 14133 
3 15902 15903 
1 15903 17803 
2 17803 17804 
1 3492 13581 
2 11015 11016 
2 13580 13581 
2 17804 17805 
3 7735 7736 
2 2083 2084 
1 2083 7735 
2 2084 2085 
1 13239 17805 
2 13238 13239 
2 193 194 
1 193 2085 
2 15542 15543 
2 194 195 
2 15541 15542 
1 11232 15541 
1 195 13882 
2 11231 11232 
2 13882 13883 
2 1247 1248 
2 332 333 
2 331 332 
1 331 17920 
1 4320 16749 
2 16748 16749 
2 4319 4320 
2 4318 4319 
1 4318 15816 
3 15815 15816 
2 11014 11015 
2 10417 10418 
1 10417 11014 
2 5162 5163 
1 2061 14133 
2 5161 5162 
2 2060 2061 
2 2059 2060 
1 2059 17014 
2 17014 17015 
2 17015 17016 
2 4657 4658 
1 4657 5161 
2 4658 4659 
2 17212 17213 
1 17212 19189 
2 11230 11231 
1 12108 19191 
2 19190 19191 
2 19189 19190 
2 10789 10790 
1 10789 11230 
2 10790 10791 
2 18134 18135 
2 18133 18134 
1 10791 19297 
2 19297 19298 
2 13636 13637 
3 11491 11492 
2 7237 7238 
2 836 837 
2 5642 5643 
2 5641 5642 
1 5641 19720 
2 7238 7239 
2 6460 6461 
1 6460 7239 
2 6461 6462 
2 19720 19721 
2 10378 10379 
2 5615 5616 
1 21057 21060 
2 21059 21060 
2 21058 21059 
1 21058 21169 
2 5614 5615 
1 5614 15957 
2 15956 15957 
1 1701 19875 
2 10108 10109 
1 1755 11491 
2 1754 1755 
2 1753 1754 
1 1753 6015 
2 6014 6015 
2 6013 6014 
1 6013 6631 
2 6631 6632 
1 4512 6462 
2 18245 18246 
2 18244 18245 
1 6507 18244 
2 6506 6507 
2 6505 6506 
1 6505 13003 
2 13003 13004 
2 13004 13005 
2 21169 21170 
2 4511 4512 
2 18337 18338 
1 16848 18337 
2 21170 21171 
2 16847 16848 
2 16846 16847 
1 2427 16846 
2 2426 2427 
1 4377 21171 
2 4510 4511 
2 793 794 
1 793 4510 
2 9005 9006 
2 20747 20748 
2 20746 20747 
2 4376 4377 
2 10109 10110 
2 19874 19875 
1 10110 17250 
2 13579 13580 
1 2604 13579 
2 2603 2604 
2 6073 6074 
1 6073 14010 
2 6074 6075 
2 2602 2603 
1 2602 5406 
2 14009 14010 
2 17249 17250 
2 19916 19917 
2 19873 19874 
1 10572 19917 
1 3303 19873 
2 3302 3303 
2 13237 13238 
2 9862 9863 
1 9862 13237 
2 9863 9864 
1 9864 13641 
2 3301 3302 
1 3301 12072 
2 2425 2426 
1 2425 5232 
2 10571 10572 
2 10570 10571 
2 4969 4970 
1 4969 10570 
2 13883 13884 
1 13884 14416 
2 4970 4971 
2 14416 14417 
1 4971 21012 
2 17920 17921 
1 17772 20746 
1 4890 9006 
3 4889 4890 
3 4888 4889 
1 4888 16225 
2 16225 16226 
2 16226 16227 
1 1359 16227 
2 10400 10401 
2 17771 17772 
2 4253 4254 
2 4252 4253 
2 10903 10904 
2 16747 16748 
2 8200 8201 
2 5176 5177 
1 5176 10903 
2 496 497 
1 496 3496 
2 5177 5178 
1 5178 5587 
2 5587 5588 
2 5588 5589 
2 2203 2204 
1 2203 5589 
1 6510 16747 
2 497 498 
3 3895 3896 
1 3895 8200 
3 6509 6510 
2 10418 10419 
2 5405 5406 
1 10419 20623 
2 20623 20624 
2 20624 20625 
1 20193 20625 
2 20192 20193 
2 13640 13641 
2 2204 2205 
2 5404 5405 
1 5404 8803 
2 8803 8804 
2 8246 8247 
1 4659 6831 
2 14417 14418 
2 13639 13640 
2 6830 6831 
2 6829 6830 
1 6829 8247 
2 2968 2969 
1 2968 14418 
1 3894 13639 
2 3893 3894 
2 17921 17922 
2 526 527 
1 526 19299 
2 19298 19299 
2 2969 2970 
1 1434 17922 
2 1433 1434 
2 1432 1433 
1 1432 14014 
2 14014 14015 
2 14015 14016 
1 2970 4654 
2 4654 4655 
2 10399 10400 
2 4189 4190 
1 4189 10399 
2 4190 4191 
1 4191 6324 
2 13637 13638 
2 13210 13211 
2 835 836 
1 835 16756 
2 16756 16757 
2 8198 8199 
2 8197 8198 
1 8197 11481 
3 11480 11481 
2 10379 10380 
1 10380 15369 
2 17149 17150 
2 21392 21393 
2 13211 13212 
1 12063 13212 
2 15368 15369 
2 15955 15956 
2 5728 5729 
1 5728 15955 
2 12062 12063 
2 12061 12062 
2 6886 6887 
1 6886 12061 
2 5729 5730 
2 21391 21392 
2 2873 2874 
2 2872 2873 
1 2872 12790 
2 2092 2093 
2 6887 6888 
2 12790 12791 
2 12791 12792 
2 21559 21560 
1 2655 21559 
2 3776 3777 
2 16757 16758 
1 6318 16758 
2 2653 2654 
1 2653 16278 
2 2654 2655 
2 6317 6318 
2 3775 3776 
1 3775 7092 
2 6316 6317 
1 6316 8145 
3 11479 11480 
1 11479 18814 
2 18814 18815 
2 19721 19722 
2 6632 6633 
1 915 19722 
2 914 915 
1 5259 6633 
2 913 914 
1 913 18528 
2 8144 8145 
2 15367 15368 
1 15367 17794 
2 17794 17795 
2 18527 18528 
2 4261 4262 
1 4261 13005 
2 17795 17796 
2 18526 18527 
2 794 795 
1 795 12273 
2 12272 12273 
1 11040 18526 
2 12271 12272 
1 12271 19045 
2 19045 19046 
2 11039 11040 
2 2093 2094 
2 4375 4376 
1 4266 5730 
2 1867 1868 
1 1867 4375 
2 1868 1869 
2 4265 4266 
2 4264 4265 
1 4264 13234 
2 13234 13235 
1 1314 1869 
2 13235 13236 
2 8182 8183 
2 8183 8184 
1 2094 11664 
2 11663 11664 
2 11662 11663 
1 11662 12747 
2 2576 2577 
2 20093 20094 
2 17248 17249 
2 16277 16278 
2 16276 16277 
1 11424 17248 
2 11423 11424 
2 18178 18179 
2 2575 2576 
1 2575 18178 
2 18179 18180 
2 4255 4256 
1 4255 16276 
2 13975 13976 
1 13975 18180 
2 5258 5259 
2 12071 12072 
2 11422 11423 
1 9687 11422 
2 5257 5258 
1 5257 15742 
2 15742 15743 
2 15743 15744 
2 9686 9687 
2 9685 9686 
1 2370 9685 
2 12070 12071 
2 2572 2573 
1 2572 12070 
2 4256 4257 
2 5231 5232 
2 4262 4263 
2 2573 2574 
1 4263 6408 
2 6407 6408 
2 6406 6407 
1 6406 16608 
2 21011 21012 
2 16607 16608 
1 2574 7224 
2 10864 10865 
1 10864 15744 
2 19046 19047 
2 1313 1314 
2 5230 5231 
1 4578 5230 
2 4577 4578 
2 4576 4577 
1 4576 15546 
2 15545 15546 
2 15544 15545 
1 2358 15544 
2 12746 12747 
2 17770 17771 
2 370 371 
1 370 17770 
2 371 372 
1 372 20863 
2 20863 20864 
2 1312 1313 
1 1312 16483 
2 16483 16484 
2 16484 16485 
2 20864 20865 
2 12745 12746 
2 21262 21263 
1 1221 3291 
2 1220 1221 
3 8050 8051 
2 2896 2897 
1 2896 8050 
2 6022 6023 
1 6022 6075 
2 6023 6024 
1 6024 21097 
2 1219 1220 
1 1219 8202 
2 8201 8202 
2 21097 21098 
3 8051 8052 
1 8052 9955 
2 9608 9609 
2 2369 2370 
2 21098 21099 
2 8804 8805 
1 2295 21099 
1 2205 9609 
2 3664 3665 
1 3664 8805 
2 3665 3666 
2 2294 2295 
2 15248 15249 
2 21010 21011 
1 3666 15247 
2 15247 15248 
2 7223 7224 
2 3892 3893 
1 3892 12703 
2 12703 12704 
2 12704 12705 
2 7222 7223 
2 6601 6602 
1 6601 7222 
2 3205 3206 
1 3205 12705 
1 4656 17526 
2 1358 1359 
1 14559 21010 
2 14558 14559 
2 1357 1358 
1 1357 9421 
2 4655 4656 
2 14557 14558 
1 14557 18949 
2 18949 18950 
2 18950 18951 
2 9421 9422 
2 9422 9423 
1 9663 10611 
2 6323 6324 
1 3618 20865 
1 9423 9661 
2 9661 9662 
2 9662 9663 
2 6322 6323 
1 6322 20572 
2 20572 20573 
2 3617 3618 
2 20573 20574 
2 21263 21264 
2 1175 1176 
2 1174 1175 
1 1174 4740 
3 4739 4740 
3 4738 4739 
1 4738 12459 
2 12458 12459 
2 12457 12458 
1 12457 18499 
2 21539 21540 
2 21538 21539 
2 7756 7757 
2 7757 7758 
2 10381 10382 
1 10381 21540 
2 10060 10061 
2 16625 16626 
2 10061 10062 
2 15041 15042 
2 16624 16625 
2 11494 11495 
1 11494 16624 
2 18499 18500 
2 17150 17151 
2 12208 12209 
1 6396 12208 
2 12209 12210 
1 12210 17151 
2 6395 6396 
2 6877 6878 
1 6877 18501 
2 18500 18501 
1 7758 10080 
2 2716 2717 
1 2716 21391 
2 2717 2718 
1 2718 14298 
2 14297 14298 
2 10079 10080 
1 7707 14430 
1 6888 6892 
2 7706 7707 
2 10078 10079 
2 7705 7706 
1 7705 10078 
2 6892 6893 
2 6893 6894 
2 20201 20202 
1 1095 12792 
2 20200 20201 
1 3273 20200 
2 3272 3273 
2 6713 6714 
2 6712 6713 
1 6712 16254 
1 10062 15468 
2 7091 7092 
2 7090 7091 
2 1690 1691 
1 1690 7090 
2 1691 1692 
2 15467 15468 
2 18815 18816 
2 8879 8880 
2 15466 15467 
2 8878 8879 
1 8878 15466 
2 8143 8144 
2 4705 4706 
1 4705 8143 
2 4706 4707 
2 15496 15497 
1 15496 18816 
1 1833 8880 
1 1692 18543 
2 6394 6395 
1 6394 7762 
2 7762 7763 
2 14296 14297 
1 14296 19438 
2 2119 2120 
1 2119 17796 
2 19438 19439 
2 12140 12141 
2 15497 15498 
2 12139 12140 
1 12139 15498 
2 2120 2121 
1 2121 20251 
2 19439 19440 
1 6894 15274 
2 15275 15276 
2 20251 20252 
2 15274 15275 
2 20252 20253 
1 20253 20580 
2 6430 6431 
1 6430 13236 
2 3574 3575 
1 3574 15276 
2 6431 6432 
2 3575 3576 
2 1094 1095 
2 1093 1094 
1 1093 14469 
2 14468 14469 
2 14467 14468 
1 6432 16815 
2 9289 9290 
1 9289 14467 
2 7372 7373 
1 7372 20094 
2 13355 13356 
1 5487 6714 
2 7373 7374 
1 7374 19059 
2 19058 19059 
2 19057 19058 
2 11296 11297 
1 15378 19057 
2 583 584 
1 583 4707 
1 4257 5359 
2 5359 5360 
1 5361 15415 
2 15415 15416 
2 5360 5361 
2 15416 15417 
2 18542 18543 
2 584 585 
2 14366 14367 
2 11038 11039 
1 11038 21477 
2 10865 10866 
1 585 14365 
2 21476 21477 
2 14365 14366 
2 21475 21476 
2 9271 9272 
1 9271 10866 
2 9272 9273 
2 7879 7880 
1 7879 21475 
2 20579 20580 
2 16606 16607 
1 4959 7881 
2 2041 2042 
1 2041 19047 
2 15550 15551 
1 15550 16606 
2 7880 7881 
2 2042 2043 
1 2043 4378 
2 4378 4379 
2 4379 4380 
2 20578 20579 
1 4380 17538 
2 11228 11229 
1 2721 16485 
2 11227 11228 
1 11227 16813 
2 16813 16814 
2 16814 16815 
2 2720 2721 
2 2719 2720 
1 2719 4675 
2 4675 4676 
2 9290 9291 
1 9291 14439 
2 6280 6281 
1 6280 14437 
2 14437 14438 
2 6281 6282 
2 14438 14439 
3 12170 12171 
3 12169 12170 
2 488 489 
2 13976 13977 
1 2235 9957 
2 487 488 
1 487 9730 
1 9732 11296 
2 9731 9732 
2 9730 9731 
2 9955 9956 
2 9956 9957 
1 9159 16062 
2 2293 2294 
1 2293 8187 
2 2234 2235 
1 7029 13977 
2 2368 2369 
1 2368 4807 
2 4807 4808 
2 7028 7029 
2 7027 7028 
1 7027 17890 
2 17890 17891 
2 17891 17892 
2 6602 6603 
2 8461 8462 
2 4808 4809 
1 4809 5691 
1 9273 14361 
2 5690 5691 
2 5689 5690 
1 5689 8461 
1 6603 13428 
2 14360 14361 
1 10590 15417 
2 13426 13427 
1 13426 15555 
2 5591 5592 
2 13427 13428 
2 14359 14360 
2 2357 2358 
2 7700 7701 
2 8236 8237 
2 15551 15552 
2 5590 5591 
1 5590 18951 
2 7699 7700 
1 7699 8236 
1 7701 15552 
2 1619 1620 
2 17536 17537 
1 1620 2385 
2 13978 13979 
1 13978 17536 
2 2356 2357 
2 2384 2385 
2 4676 4677 
2 8237 8238 
2 1618 1619 
1 1618 2356 
2 17537 17538 
2 3616 3617 
1 3616 4542 
2 47 48 
2 4540 4541 
1 4540 13569 
2 4541 4542 
1 48 4677 
2 4169 4170 
1 12171 13891 
2 13892 13893 
1 4170 13893 
2 13891 13892 
2 4168 4169 
2 10382 10383 
1 10383 16896 
1 7776 11496 
2 7775 7776 
2 7774 7775 
2 5984 5985 
2 11495 11496 
2 15040 15041 
2 11825 11826 
1 6879 13585 
2 11824 11825 
2 5236 5237 
1 5236 11824 
2 13585 13586 
2 13586 13587 
2 6878 6879 
2 16945 16946 
2 16946 16947 
2 16895 16896 
2 9880 9881 
1 9880 13587 
2 14428 14429 
1 14428 15148 
2 15148 15149 
2 14429 14430 
2 16894 16895 
2 15989 15990 
2 3271 3272 
1 3271 10404 
2 4687 4688 
2 5381 5382 
2 4688 4689 
1 4689 20022 
2 20021 20022 
2 20020 20021 
2 5983 5984 
1 5983 14998 
1 17682 20020 
2 17681 17682 
2 14998 14999 
2 14999 15000 
2 1832 1833 
2 1831 1832 
1 1831 16605 
2 1717 1718 
1 1717 7764 
2 1718 1719 
2 16604 16605 
1 1719 13123 
2 7763 7764 
2 13123 13124 
1 15000 20490 
2 8674 8675 
1 8674 12141 
2 9881 9882 
1 9882 13249 
2 9115 9116 
1 9115 16107 
2 13124 13125 
2 16106 16107 
1 13125 21145 
2 9116 9117 
2 16105 16106 
2 13249 13250 
1 9117 19440 
2 21145 21146 
2 15149 15150 
1 4626 15150 
2 4625 4626 
2 10402 10403 
1 10402 14793 
2 19691 19692 
2 10403 10404 
2 19690 19691 
2 4624 4625 
1 3576 19690 
2 14792 14793 
2 14791 14792 
1 14791 20655 
2 20654 20655 
2 13354 13355 
2 3859 3860 
1 3859 13354 
2 3860 3861 
2 5485 5486 
1 5485 12600 
2 12599 12600 
2 5486 5487 
2 15376 15377 
2 12598 12599 
1 12504 12598 
2 12503 12504 
2 12232 12233 
1 7608 12232 
2 12233 12234 
2 7607 7608 
1 12234 18541 
2 15377 15378 
2 18541 18542 
2 16603 16604 
1 4788 16603 
2 8675 8676 
2 7606 7607 
1 7606 11389 
2 11389 11390 
2 4787 4788 
2 3086 3087 
2 4786 4787 
1 4786 14599 
2 3085 3086 
1 3085 18813 
1 3087 14367 
2 11390 11391 
1 7749 8676 
2 7748 7749 
2 7747 7748 
2 6214 6215 
1 6214 7747 
2 6215 6216 
1 6216 21360 
1 1167 20578 
2 4958 4959 
1 15786 16105 
2 1166 1167 
1 15909 19692 
2 1165 1166 
1 1165 6184 
2 6184 6185 
2 6185 6186 
1 6186 16903 
2 15908 15909 
2 15785 15786 
2 16903 16904 
2 20653 20654 
2 7612 7613 
1 7612 11229 
2 15907 15908 
2 9595 9596 
1 9595 15907 
2 7613 7614 
2 9596 9597 
2 20519 20520 
2 20518 20519 
1 7614 17158 
2 17158 17159 
2 10747 10748 
1 10747 20653 
2 10748 10749 
2 7804 7805 
1 7804 9597 
2 13264 13265 
1 3861 13296 
2 13295 13296 
1 12777 13266 
2 13265 13266 
2 13294 13295 
1 13294 21456 
2 12776 12777 
1 9834 13264 
1 489 11638 
2 17884 17885 
1 3555 15376 
1 11640 17884 
2 3554 3555 
2 11638 11639 
2 12916 12917 
2 3553 3554 
1 3553 12916 
2 11639 11640 
2 12917 12918 
2 16879 16880 
1 16879 17892 
2 16880 16881 
2 3266 3267 
2 17821 17822 
2 17822 17823 
2 3265 3266 
1 3265 17823 
2 10588 10589 
1 10588 17821 
2 10589 10590 
2 4957 4958 
1 4957 7587 
2 18812 18813 
2 7586 7587 
2 18811 18812 
1 7293 18811 
1 2529 5223 
2 2528 2529 
2 7292 7293 
2 5222 5223 
1 3267 10345 
2 2527 2528 
1 2527 14359 
2 7585 7586 
1 7585 20478 
2 20477 20478 
2 20476 20477 
2 14017 14018 
1 14017 20476 
1 13566 13980 
2 16904 16905 
2 13565 13566 
2 13979 13980 
1 16905 18085 
1 8238 17626 
2 14018 14019 
2 17626 17627 
1 924 2416 
2 922 923 
2 13564 13565 
1 13564 17815 
2 923 924 
2 17159 17160 
1 14886 17160 
2 14885 14886 
2 17815 17816 
2 18085 18086 
2 46 47 
1 46 922 
2 2416 2417 
2 5237 5238 
2 7175 7176 
2 15988 15989 
2 7174 7175 
1 7174 15988 
2 20071 20072 
3 18520 18521 
1 18520 20071 
3 18521 18522 
2 20072 20073 
1 5238 15628 
2 20489 20490 
2 20488 20489 
2 13645 13646 
1 13645 20488 
2 15628 15629 
2 13646 13647 
2 15629 15630 
2 13250 13251 
2 3244 3245 
1 3244 15630 
2 3245 3246 
1 13251 17658 
1 3246 16387 
2 21146 21147 
2 16387 16388 
2 17657 17658 
1 3165 4624 
2 3164 3165 
2 17656 17657 
1 2790 17656 
2 3163 3164 
1 3163 13665 
1 7362 13864 
2 7361 7362 
3 13864 13865 
2 7360 7361 
2 5380 5381 
1 5380 7360 
2 17680 17681 
2 2989 2990 
1 2989 17680 
2 12502 12503 
2 11728 11729 
1 11728 12502 
2 2990 2991 
2 11729 11730 
2 14599 14600 
1 2991 16176 
2 16175 16176 
2 16174 16175 
2 7741 7742 
1 7741 16174 
2 7742 7743 
2 1789 1790 
1 1789 13647 
2 14600 14601 
2 1790 1791 
2 7417 7418 
1 7417 14601 
1 15201 21147 
2 15200 15201 
1 1791 16765 
2 7418 7419 
2 15199 15200 
2 6574 6575 
1 6574 15199 
2 16765 16766 
2 2789 2790 
2 15784 15785 
1 1023 15784 
2 1022 1023 
2 1021 1022 
1 1021 10798 
2 10798 10799 
2 10799 10800 
2 6575 6576 
1 6576 13429 
2 2788 2789 
1 2788 11133 
2 13429 13430 
2 13664 13665 
2 13663 13664 
1 13663 13809 
2 13808 13809 
2 3871 3872 
1 3871 10749 
2 7805 7806 
2 13807 13808 
1 13807 19012 
2 3872 3873 
3 1303 1304 
3 1304 1305 
1 1305 16000 
2 21455 21456 
2 21454 21455 
1 10269 21454 
2 10267 10268 
2 10268 10269 
1 5052 11730 
2 16001 16002 
2 16000 16001 
2 9988 9989 
1 9988 10267 
2 8473 8474 
1 8473 9334 
1 8475 12918 
2 8474 8475 
2 5051 5052 
2 3229 3230 
1 3229 11391 
2 5050 5051 
1 5050 13089 
2 3230 3231 
2 13088 13089 
1 3231 12297 
2 13087 13088 
1 5814 13087 
2 20038 20039 
1 9009 12295 
2 12295 12296 
2 7291 7292 
1 7291 20040 
2 12296 12297 
1 687 7419 
2 20039 20040 
2 686 687 
2 685 686 
1 685 17155 
2 17155 17156 
1 8556 20038 
2 21359 21360 
2 21358 21359 
2 1051 1052 
1 1051 21358 
2 1052 1053 
1 1053 17565 
2 17564 17565 
1 14019 18549 
2 18086 18087 
2 6232 6233 
1 6232 10800 
2 17393 17394 
1 17394 18087 
1 7806 12342 
2 6233 6234 
2 12341 12342 
2 14884 14885 
1 14884 18055 
2 17392 17393 
2 18056 18057 
2 18055 18056 
2 12340 12341 
2 6181 6182 
1 6181 12340 
2 6182 6183 
2 16388 16389 
1 7743 17086 
2 7432 7433 
1 7432 16389 
2 16766 16767 
1 16767 20631 
2 20630 20631 
2 7433 7434 
2 11132 11133 
2 11131 11132 
1 11131 12486 
2 12485 12486 
2 19012 19013 
2 19013 19014 
2 12484 12485 
1 12484 20793 
1 7542 19014 
2 5813 5814 
2 17086 17087 
2 17087 17088 
1 9123 17088 
2 9122 9123 
2 9121 9122 
1 9121 18789 
2 20629 20630 
1 20629 21295 
2 21295 21296 
1 3315 17563 
2 17563 17564 
2 17156 17157 
2 14809 14810 
1 14809 17157 
2 13430 13431 
2 21296 21297 
1 13431 14097 
2 14096 14097 
2 14095 14096 
2 3949 3950 
1 3949 14095 
1 15987 21297 
1 3951 21202 
2 9770 9771 
1 6234 14490 
2 3950 3951 
2 14488 14489 
2 14489 14490 
1 9771 14488 
2 20792 20793 
2 20791 20792 
1 20791 21457 
2 9769 9770 
2 7541 7542 
2 7540 7541 
1 7540 14743 
2 11887 11888 
1 11887 14311 
1 6183 11889 
2 11888 11889 
3 14743 14744 
3 14744 14745 
3 14311 14312 
2 15985 15986 
1 15985 18946 
2 15986 15987 
2 18946 18947 
2 18947 18948 
2 21202 21203 
2 21457 21458 
2 21458 21459 
2 2911 2912 
1 2911 17016 
2 17213 17214 
3 12476 12477 
3 12475 12476 
1 4563 12475 
2 4562 4563 
1 498 4081 
2 19154 19155 
2 4081 4082 
2 4082 4083 
2 167 168 
2 2912 2913 
3 6508 6509 
1 6508 14085 
2 20191 20192 
2 14084 14085 
2 14083 14084 
1 13350 14083 
1 2913 8298 
2 13349 13350 
2 9889 9890 
1 9889 20191 
2 4561 4562 
2 8297 8298 
1 12843 17214 
2 12842 12843 
2 8296 8297 
2 7285 7286 
1 7285 8296 
2 7286 7287 
1 7287 8761 
2 12841 12842 
1 12841 20725 
2 8761 8762 
2 11684 11685 
2 8245 8246 
1 8245 11685 
2 527 528 
2 20725 20726 
2 20726 20727 
1 528 9696 
2 9695 9696 
2 9694 9695 
1 9694 18448 
2 20131 20132 
1 20131 20727 
2 18448 18449 
2 9317 9318 
2 9316 9317 
1 1521 14016 
2 19153 19154 
2 16576 16577 
2 16577 16578 
2 14989 14990 
2 14990 14991 
2 14191 14192 
1 14191 14991 
2 20132 20133 
2 8704 8705 
1 8704 10815 
2 6385 6386 
2 1852 1853 
1 1852 4083 
1 6387 12976 
2 12976 12977 
2 6386 6387 
2 12977 12978 
2 1942 1943 
1 1942 12978 
2 1853 1854 
2 3290 3291 
1 1854 10264 
2 10264 10265 
2 10265 10266 
2 13348 13349 
1 13348 14317 
2 1244 1245 
2 14317 14318 
2 1243 1244 
1 1243 9607 
1 705 1245 
2 9607 9608 
2 3206 3207 
2 704 705 
1 9891 19350 
2 19348 19349 
2 13192 13193 
1 13192 19348 
2 13193 13194 
2 19349 19350 
2 9890 9891 
1 13911 15249 
2 11683 11684 
1 11683 11710 
2 11710 11711 
2 11711 11712 
2 6751 6752 
1 6751 11712 
2 1183 1184 
1 1183 3207 
2 17524 17525 
2 6752 6753 
2 11530 11531 
1 11530 17524 
2 17525 17526 
2 1520 1521 
2 18449 18450 
2 1519 1520 
1 1519 7795 
2 11531 11532 
2 7795 7796 
2 7796 7797 
2 8254 8255 
1 8254 18450 
2 178 179 
1 178 11532 
2 16444 16445 
1 16444 20574 
1 3954 7797 
2 3953 3954 
2 16445 16446 
2 166 167 
1 166 7867 
2 7867 7868 
2 7868 7869 
1 7869 16887 
2 14318 14319 
2 5353 5354 
1 5353 10266 
2 5354 5355 
2 16886 16887 
2 16885 16886 
2 5212 5213 
1 5212 16885 
2 5213 5214 
2 11326 11327 
2 8762 8763 
1 8763 19911 
1 2541 14319 
2 2540 2541 
2 2539 2540 
2 334 335 
1 334 2539 
1 15090 20133 
2 19910 19911 
2 15089 15090 
2 15088 15089 
2 19909 19910 
1 19909 21154 
2 21154 21155 
2 21155 21156 
2 4564 4565 
1 4564 6753 
2 4565 4566 
1 1989 21156 
1 2274 15088 
2 2273 2274 
2 8255 8256 
2 4588 4589 
1 4588 8256 
2 4589 4590 
1 4590 9330 
2 18716 18717 
2 3952 3953 
1 3952 17181 
3 10507 10508 
3 10508 10509 
1 10509 18715 
2 18715 18716 
3 15076 15077 
2 14192 14193 
2 11327 11328 
1 21 11328 
3 20 21 
3 19 20 
1 19 8088 
2 2272 2273 
1 2272 4267 
2 4267 4268 
2 4268 4269 
2 10447 10448 
1 10447 15078 
3 15077 15078 
1 15207 21291 
2 9592 9593 
2 8953 8954 
1 8953 9157 
2 9593 9594 
2 8705 8706 
2 265 266 
1 265 8706 
2 266 267 
1 267 8692 
2 8692 8693 
2 8693 8694 
2 9157 9158 
2 9158 9159 
2 18311 18312 
2 3289 3290 
1 3289 12784 
2 12784 12785 
2 8186 8187 
2 2233 2234 
1 2233 18312 
2 12785 12786 
1 2397 12786 
2 2396 2397 
2 2395 2396 
1 2395 16609 
1 6129 11593 
2 8462 8463 
2 8185 8186 
1 8185 11595 
2 13910 13911 
2 11594 11595 
2 13909 13910 
1 11796 13909 
2 703 704 
1 703 6558 
2 11795 11796 
2 6557 6558 
2 11593 11594 
1 5592 11353 
2 1184 1185 
2 11794 11795 
1 11794 11941 
2 11941 11942 
1 1185 5124 
2 5123 5124 
2 15553 15554 
2 15554 15555 
2 8494 8495 
1 8494 15553 
2 5122 5123 
1 5122 20575 
2 11942 11943 
2 20575 20576 
2 15445 15446 
2 11353 11354 
2 2383 2384 
1 2383 12138 
2 10610 10611 
2 9760 9761 
1 9760 15445 
2 10609 10610 
1 10245 10609 
2 179 180 
2 11354 11355 
1 9762 11355 
2 9761 9762 
2 10244 10245 
1 180 6606 
2 12137 12138 
1 4065 16446 
2 13567 13568 
2 4064 4065 
2 4063 4064 
1 4063 17233 
2 2248 2249 
1 2248 13567 
2 10243 10244 
1 10243 15657 
2 15656 15657 
2 2249 2250 
2 17233 17234 
2 15655 15656 
2 13568 13569 
2 19423 19424 
1 2250 19423 
2 17234 17235 
2 8122 8123 
1 8122 15978 
2 15976 15977 
1 15976 21289 
2 21290 21291 
2 21289 21290 
2 15977 15978 
2 643 644 
1 643 8694 
2 1943 1944 
1 1944 6735 
2 13325 13326 
1 5355 9160 
2 9160 9161 
2 16609 16610 
2 13324 13325 
2 6733 6734 
1 6733 13324 
2 6734 6735 
2 9161 9162 
2 16610 16611 
2 335 336 
1 336 1516 
2 1516 1517 
2 7171 7172 
1 7171 9162 
2 6556 6557 
1 6556 19495 
2 19495 19496 
2 19496 19497 
2 11968 11969 
1 11968 19497 
2 1517 1518 
1 16611 21337 
1 4728 13194 
2 4727 4728 
2 4726 4727 
1 4726 19675 
2 19675 19676 
1 6588 19677 
2 19676 19677 
2 6587 6588 
2 11969 11970 
2 20576 20577 
1 4566 17230 
2 17230 17231 
2 6605 6606 
2 14257 14258 
1 14257 20577 
2 17231 17232 
1 17232 18201 
2 6604 6605 
1 6604 7230 
2 7228 7229 
1 7228 12555 
2 12554 12555 
2 9329 9330 
2 7229 7230 
2 3770 3771 
2 17180 17181 
2 3769 3770 
1 3769 15655 
2 17179 17180 
1 597 17179 
2 596 597 
2 595 596 
1 595 17968 
2 17968 17969 
1 17235 21367 
2 21367 21368 
2 21368 21369 
3 14398 14399 
1 14398 21369 
3 14399 14400 
3 4759 4760 
1 4759 14400 
1 13326 20566 
1 5214 13846 
3 13846 13847 
3 13847 13848 
2 3283 3284 
1 3283 13848 
2 11255 11256 
2 7172 7173 
1 7173 11256 
2 8087 8088 
2 3284 3285 
1 3285 12519 
2 11254 11255 
2 1988 1989 
2 8086 8087 
1 3924 8086 
2 6586 6587 
1 6586 9076 
1 1518 15208 
2 1987 1988 
1 1987 4299 
2 15208 15209 
1 15210 21069 
2 15209 15210 
2 21068 21069 
1 4269 9951 
2 980 981 
2 4298 4299 
2 18200 18201 
2 4297 4298 
1 4297 17460 
2 9950 9951 
2 9949 9950 
2 18199 18200 
1 981 18199 
2 17459 17460 
2 17458 17459 
2 10448 10449 
2 9328 9329 
1 978 9328 
2 12508 12509 
2 976 977 
1 976 12508 
2 977 978 
2 12509 12510 
1 17094 17970 
2 17969 17970 
2 12518 12519 
2 12517 12518 
2 5702 5703 
2 3923 3924 
2 3922 3923 
1 3922 5703 
2 5701 5702 
1 3048 9949 
2 5815 5816 
1 5815 10449 
2 3047 3048 
2 3046 3047 
2 5816 5817 
1 5817 9040 
2 9040 9041 
2 9041 9042 
1 9042 15606 
3 15605 15606 
3 15604 15605 
1 8955 17739 
2 8954 8955 
2 9833 9834 
2 17885 17886 
2 17738 17739 
1 4251 17886 
2 3065 3066 
2 17737 17738 
1 17737 19426 
2 19426 19427 
2 3064 3065 
2 19427 19428 
2 18310 18311 
1 3066 18310 
2 2791 2792 
1 2791 3064 
2 1388 1389 
1 1389 11751 
2 1387 1388 
1 1387 11586 
2 11585 11586 
2 6127 6128 
1 6127 20832 
2 2792 2793 
1 8463 18729 
2 6128 6129 
2 11584 11585 
1 11584 16881 
2 18728 18729 
2 9616 9617 
1 9616 18727 
2 18727 18728 
2 9617 9618 
1 1014 5221 
2 10345 10346 
2 5221 5222 
2 8495 8496 
2 17627 17628 
2 1013 1014 
1 8496 8907 
2 1012 1013 
1 1012 5884 
2 2627 2628 
2 8906 8907 
2 2626 2627 
1 2626 17628 
1 2628 19378 
2 19378 19379 
2 19379 19380 
2 15446 15447 
2 1075 1076 
1 1075 15444 
2 1076 1077 
2 6841 6842 
1 6841 17817 
1 1077 12136 
2 15443 15444 
2 17816 17817 
2 12136 12137 
2 2417 2418 
2 4463 4464 
1 2418 4462 
2 4462 4463 
1 4464 9366 
2 2479 2480 
1 2479 19425 
2 19424 19425 
2 18928 18929 
2 18929 18930 
3 12979 12980 
1 12979 18930 
3 12980 12981 
2 8123 8124 
1 9594 18928 
1 645 11401 
2 11401 11402 
2 11402 11403 
1 11403 12174 
2 644 645 
1 8124 13933 
2 13933 13934 
2 12173 12174 
2 20831 20832 
2 21338 21339 
1 2793 9670 
2 9670 9671 
2 19000 19001 
1 19000 21339 
2 20830 20831 
2 19001 19002 
2 21337 21338 
1 8493 9618 
2 9895 9896 
1 9895 20830 
2 8492 8493 
2 9896 9897 
1 9897 11436 
2 5383 5384 
1 5383 10836 
2 5384 5385 
2 5320 5321 
1 5320 11970 
2 10835 10836 
1 5385 11943 
2 8905 8906 
1 8905 10416 
2 10834 10835 
2 799 800 
1 799 10834 
2 10415 10416 
2 10414 10415 
1 10414 19848 
1 15447 21048 
1 14259 17541 
2 17540 17541 
2 14258 14259 
2 21046 21047 
1 17070 21046 
2 17069 17070 
2 21047 21048 
2 17068 17069 
2 15214 15215 
1 15214 17068 
2 15442 15443 
2 4723 4724 
1 4723 15442 
1 2826 3771 
2 2480 2481 
2 4724 4725 
3 2663 2664 
1 2664 2824 
2 2825 2826 
2 2824 2825 
3 2662 2663 
1 2662 5757 
1 2481 18432 
3 18431 18432 
3 18430 18431 
1 5721 18430 
3 5720 5721 
3 5719 5720 
1 5719 17550 
2 13934 13935 
1 4392 13935 
2 4391 4392 
2 4390 4391 
1 2025 4390 
2 20566 20567 
2 20567 20568 
1 17730 20568 
2 17729 17730 
2 17728 17729 
1 1647 17728 
1 6534 11254 
2 5617 5618 
1 5617 19002 
2 5618 5619 
2 12172 12173 
1 12172 17907 
2 6533 6534 
2 6532 6533 
2 1897 1898 
1 1897 6532 
2 5321 5322 
2 661 662 
1 661 5322 
2 662 663 
1 663 6154 
2 6154 6155 
2 21067 21068 
1 2805 21067 
2 800 801 
2 20920 20921 
2 20921 20922 
1 9078 20922 
1 1722 20920 
2 17539 17540 
1 3204 17539 
2 9077 9078 
2 9076 9077 
2 979 980 
1 979 13411 
2 3203 3204 
2 3202 3203 
1 3202 16125 
2 20062 20063 
2 16124 16125 
2 13412 13413 
2 13411 13412 
2 20063 20064 
1 18597 20064 
3 18596 18597 
2 15215 15216 
2 12553 12554 
1 12553 20062 
3 20627 20628 
3 17092 17093 
1 17092 20628 
3 17093 17094 
3 5756 5757 
3 5755 5756 
3 20626 20627 
3 19582 19583 
1 19582 20626 
3 19583 19584 
3 8984 8985 
1 4761 8983 
3 8983 8984 
3 4760 4761 
3 17549 17550 
3 17548 17549 
2 1646 1647 
2 1645 1646 
2 11543 11544 
2 11542 11543 
1 4560 5701 
2 1898 1899 
1 1899 6958 
2 6958 6959 
2 6959 6960 
2 2804 2805 
2 1721 1722 
2 2803 2804 
1 8163 13413 
2 8162 8163 
2 8161 8162 
3 18595 18596 
1 1206 18595 
3 1205 1206 
3 1204 1205 
2 4052 4053 
2 4051 4052 
3 4559 4560 
3 4558 4559 
2 4250 4251 
2 9832 9833 
1 9832 10842 
2 10841 10842 
2 10840 10841 
1 10840 16855 
2 16855 16856 
2 16856 16857 
2 9989 9990 
2 9334 9335 
1 9990 13282 
2 13282 13283 
2 4249 4250 
1 4249 17377 
2 17377 17378 
2 17378 17379 
1 9336 19611 
2 5563 5564 
1 5563 17379 
2 9335 9336 
2 10346 10347 
2 9008 9009 
2 19610 19611 
2 11750 11751 
2 19609 19610 
1 10347 18027 
2 18026 18027 
2 18025 18026 
2 3466 3467 
1 3466 18025 
2 3467 3468 
2 9007 9008 
2 1588 1589 
1 1588 9007 
2 5884 5885 
2 5885 5886 
2 8555 8556 
2 8554 8555 
2 3991 3992 
1 3991 8554 
2 3992 3993 
2 18548 18549 
2 6842 6843 
1 6843 16438 
2 18547 18548 
2 9647 9648 
2 9646 9647 
1 9646 18547 
2 16438 16439 
1 1542 9648 
1 7641 13612 
2 16439 16440 
2 7640 7641 
2 7639 7640 
1 7639 17392 
2 9365 9366 
2 13612 13613 
3 13054 13055 
3 13055 13056 
1 813 12981 
1 10248 16857 
2 812 813 
2 16975 16976 
1 16975 19428 
2 16976 16977 
2 15673 15674 
1 15673 16977 
2 811 812 
1 811 9855 
2 10247 10248 
2 9671 9672 
1 9672 14125 
2 5564 5565 
1 5565 18894 
2 15674 15675 
2 14125 14126 
1 15675 19758 
2 14126 14127 
2 18893 18894 
2 11749 11750 
2 8944 8945 
1 8944 11749 
2 8945 8946 
1 4314 8946 
2 4313 4314 
2 11435 11436 
2 8491 8492 
1 8491 15003 
2 4312 4313 
1 4312 11932 
2 11932 11933 
2 19847 19848 
1 2532 5886 
2 2531 2532 
2 15002 15003 
2 15001 15002 
1 15001 17467 
2 2530 2531 
1 2530 13398 
2 17467 17468 
2 17468 17469 
1 555 3468 
2 13873 13874 
1 13873 19380 
2 19846 19847 
2 13397 13398 
2 13874 13875 
2 5704 5705 
1 5704 19846 
1 13875 16596 
2 16595 16596 
2 16594 16595 
1 2973 16594 
2 13396 13397 
1 13396 14463 
2 1541 1542 
1 12363 16440 
2 9364 9365 
1 9364 19512 
2 12362 12363 
2 12361 12362 
1 12361 20326 
2 20326 20327 
2 20327 20328 
2 2972 2973 
3 19511 19512 
3 19510 19511 
3 3508 3509 
1 3508 15729 
2 15728 15729 
2 15727 15728 
3 11437 11438 
2 9854 9855 
2 9853 9854 
1 8004 14127 
2 17906 17907 
2 17905 17906 
2 40 41 
1 40 17905 
2 41 42 
1 18 42 
2 19757 19758 
2 19756 19757 
2 6155 6156 
2 11434 11435 
1 4935 11434 
1 5619 13659 
2 8003 8004 
2 8002 8003 
1 8002 9166 
2 9166 9167 
2 4934 4935 
2 13658 13659 
2 9167 9168 
2 4933 4934 
1 4933 16899 
1 801 3318 
1 7680 17469 
2 3317 3318 
2 3316 3317 
1 3316 7404 
2 16898 16899 
2 16897 16898 
2 7679 7680 
1 15612 16897 
2 7678 7679 
1 7678 18784 
2 16123 16124 
1 3912 16123 
3 3911 3912 
2 7403 7404 
2 5705 5706 
2 7402 7403 
1 7402 13869 
3 3910 3911 
1 3910 6966 
2 2971 2972 
1 14802 15216 
3 14801 14802 
3 14800 14801 
1 10398 14800 
3 10397 10398 
1 4602 5755 
3 4601 4602 
3 10396 10397 
1 10396 19704 
3 19703 19704 
3 4600 4601 
1 4600 11439 
3 19702 19703 
3 11438 11439 
2 2024 2025 
2 2023 2024 
1 2023 8808 
2 8807 8808 
2 8806 8807 
1 4845 8806 
2 17 18 
2 4844 4845 
2 4843 4844 
2 13657 13658 
1 6561 13657 
3 6560 6561 
3 6559 6560 
2 1720 1721 
1 6156 17866 
2 17866 17867 
2 17867 17868 
1 17868 18673 
3 18673 18674 
3 18674 18675 
2 13868 13869 
2 13867 13868 
1 13395 13867 
3 13394 13395 
3 6965 6966 
3 6964 6965 
3 13393 13394 
3 5389 5390 
1 5389 13393 
3 5390 5391 
1 5391 9531 
2 9530 9531 
2 9529 9530 
1 11241 18675 
3 11240 11241 
2 9611 9612 
2 9610 9611 
1 9610 16914 
2 5812 5813 
1 5812 16008 
2 13283 13284 
1 10569 13284 
2 10568 10569 
3 16913 16914 
2 18637 18638 
1 18637 19609 
2 16007 16008 
2 16006 16007 
2 1589 1590 
2 11218 11219 
1 11218 16006 
2 11219 11220 
1 11220 18529 
1 1590 3739 
2 3739 3740 
2 18787 18788 
1 18787 21120 
2 18788 18789 
2 14810 14811 
1 3993 14299 
2 14299 14300 
2 3740 3741 
1 13386 14811 
2 13385 13386 
2 14300 14301 
2 13384 13385 
1 4731 13384 
1 3741 4764 
2 3314 3315 
2 3313 3314 
1 3313 18819 
2 18818 18819 
2 18817 18818 
1 3465 18817 
2 3464 3465 
1 4824 9769 
2 13613 13614 
2 2281 2282 
1 2281 13614 
2 4823 4824 
2 4822 4823 
1 4822 18610 
2 18610 18611 
3 14312 14313 
2 10567 10568 
1 6867 10567 
2 6866 6867 
2 10246 10247 
2 8746 8747 
1 8746 10246 
2 8747 8748 
1 8748 10510 
2 10510 10511 
2 10511 10512 
2 18638 18639 
2 6865 6866 
1 6865 21019 
1 18639 19275 
2 18892 18893 
1 13320 18892 
2 19274 19275 
2 19273 19274 
2 10939 10940 
1 10939 19273 
2 13319 13320 
2 21019 21020 
2 10940 10941 
2 554 555 
2 553 554 
1 553 13780 
2 13780 13781 
2 4763 4764 