ITEM: TIMESTEP
40000000
ITEM: NUMBER OF ATOMS
2601
ITEM: BOX BOUNDS pp pp pp
0.0000000000000000e+00 5.0000000000000000e+01
0.0000000000000000e+00 5.0000000000000000e+01
0.0000000000000000e+00 5.0000000000000000e+01
ITEM: ATOMS id type xs ys zs
21450 1 0.00624872 0.556736 0.587185
517 1 9.55114e-05 0.537133 0.614171
21449 3 0.0121789 0.557148 0.591404
21448 1 0.0179305 0.558451 0.597012
1881 1 0.0199544 0.558893 0.599343
3067 1 0.00178569 0.537513 0.616521
1880 3 0.0257133 0.560358 0.604786
17768 3 0.0178368 0.579916 0.613776
17769 1 0.0223999 0.584528 0.618631
17767 1 0.0124755 0.577576 0.607031
14131 1 0.0244518 0.586497 0.620133
1879 1 0.0316153 0.56202 0.610624
7737 1 0.0339169 0.562374 0.612655
7736 3 0.0388328 0.5622 0.6193
15543 1 0.0727553 0.571812 0.62082
4710 1 0.0490526 0.60183 0.600024
4709 3 0.0515168 0.603555 0.606568
4708 1 0.0536973 0.607314 0.611913
12106 1 0.0550118 0.608633 0.614865
12107 2 0.0579879 0.611638 0.621896
5418 1 0.0244068 0.49942 0.635248
11492 3 0.00859674 0.521616 0.653867
11493 1 0.00554501 0.515301 0.648772
5417 2 0.0316856 0.500484 0.638139
5416 1 0.0387171 0.501705 0.642913
20274 1 0.0412174 0.502023 0.644475
20273 3 0.0474433 0.502846 0.6486
20272 1 0.0541111 0.505616 0.650816
21055 1 0.0564254 0.506837 0.651995
21056 2 0.0632168 0.510157 0.655904
3068 3 0.00620328 0.538259 0.624375
3069 1 0.00974253 0.538698 0.630711
15684 1 0.0106311 0.539338 0.63362
15682 1 0.0162338 0.544586 0.646197
1699 1 0.0175983 0.546203 0.648342
15683 2 0.0117777 0.541429 0.640939
1700 2 0.0202445 0.551534 0.653928
1402 1 0.0293529 0.543279 0.625858
1403 3 0.0337075 0.545588 0.632317
1404 1 0.0379585 0.546679 0.63841
8416 1 0.039335 0.547402 0.640598
8417 2 0.0421958 0.549462 0.648043
8418 1 0.0464013 0.553083 0.653506
18339 1 0.0545394 0.528624 0.650008
19915 1 0.0480815 0.555053 0.655187
18338 2 0.0583597 0.533574 0.654827
5492 2 0.0823266 0.537362 0.649397
5493 1 0.0878322 0.540369 0.654129
865 1 0.0649941 0.550146 0.638103
866 2 0.0696651 0.553469 0.643328
867 1 0.0738074 0.556429 0.649536
1246 1 0.0753743 0.558449 0.651359
5491 1 0.0753801 0.536392 0.644292
2170 1 0.10728 0.530044 0.643684
2171 3 0.10451 0.534874 0.649062
2172 1 0.102027 0.541301 0.652963
9004 1 0.101034 0.543569 0.654443
15901 1 0.00902154 0.562273 0.627875
14132 3 0.0286972 0.592027 0.625708
15902 3 0.0162482 0.560888 0.631152
15903 1 0.0227513 0.562056 0.635859
17803 1 0.0254085 0.562755 0.637938
3492 1 0.00607853 0.568733 0.648809
11016 1 0.0190077 0.58626 0.64511
11015 2 0.0246173 0.590666 0.648134
13581 1 0.00884574 0.569476 0.650567
13580 2 0.014212 0.573449 0.656071
17804 2 0.0313962 0.565853 0.642577
7735 1 0.043964 0.563272 0.625846
2083 1 0.0459719 0.564065 0.627771
17805 1 0.0354911 0.571289 0.647866
2084 2 0.0506398 0.567092 0.634193
2085 1 0.0547583 0.569399 0.6404
5163 1 0.047334 0.590041 0.634031
13239 1 0.0368811 0.572358 0.649395
13238 2 0.0404194 0.576659 0.654775
193 1 0.056431 0.570665 0.642264
15542 2 0.0714265 0.576763 0.626494
194 2 0.0615136 0.575307 0.647499
15541 1 0.0727595 0.583364 0.632061
11232 1 0.0739203 0.585298 0.634092
333 1 0.0871461 0.57719 0.648701
195 1 0.0664821 0.578878 0.651851
11231 2 0.0767446 0.5912 0.638594
13882 1 0.06821 0.580781 0.653298
1247 2 0.0802038 0.563033 0.655851
332 2 0.0924373 0.582365 0.653032
331 1 0.0988167 0.586829 0.655652
4320 1 0.0158036 0.608808 0.644506
16749 1 0.0172446 0.610183 0.646647
16748 2 0.0208749 0.614722 0.652381
4319 2 0.0137016 0.604949 0.638894
4318 1 0.0086076 0.599949 0.633667
15816 1 0.00678502 0.598312 0.631866
15815 3 0.00101223 0.59413 0.626846
11014 1 0.0316945 0.593978 0.651465
10417 1 0.0337334 0.595162 0.652645
5162 2 0.0508439 0.592136 0.63978
14133 1 0.0323269 0.598536 0.629251
2061 1 0.0335276 0.601417 0.631033
5161 1 0.0545328 0.596161 0.64544
2060 2 0.0362505 0.606643 0.635745
2059 1 0.039599 0.611266 0.640092
17014 1 0.0408166 0.612914 0.642529
17015 2 0.0444117 0.616797 0.646937
17016 1 0.0472544 0.622476 0.651645
4657 1 0.0562374 0.597712 0.647699
4658 2 0.0597274 0.602131 0.652916
17212 1 0.0705596 0.623657 0.647664
11230 1 0.0794589 0.596752 0.642159
12108 1 0.0612643 0.615014 0.62889
19191 1 0.0623582 0.615867 0.631508
19190 2 0.0656956 0.61858 0.638915
19189 1 0.0691366 0.622232 0.645219
10789 1 0.0807295 0.598936 0.644216
10790 2 0.0843969 0.604542 0.649203
18134 2 0.0908732 0.618944 0.632689
18133 1 0.0874588 0.619795 0.640518
10791 1 0.0879218 0.609914 0.653183
19297 1 0.0890677 0.61215 0.654193
18135 1 0.0925433 0.617661 0.624157
13636 1 0.0540341 0.493386 0.687795
18246 1 0.0277494 0.525398 0.657367
11491 1 0.0113475 0.526301 0.658827
7237 1 0.0304377 0.505012 0.662859
836 2 0.00170799 0.518416 0.685613
5643 1 0.019699 0.51416 0.675368
5642 2 0.02393 0.519097 0.679725
5641 1 0.0294343 0.522966 0.684623
7238 2 0.0354894 0.511305 0.665101
7239 1 0.0405348 0.516564 0.66688
6460 1 0.0427799 0.518634 0.668151
6461 2 0.0482686 0.522714 0.672248
19720 1 0.0315823 0.524107 0.685981
10378 1 0.0494999 0.507066 0.687397
5616 1 0.0622419 0.499245 0.668976
5615 2 0.0654659 0.502414 0.675745
21057 1 0.0685505 0.514963 0.659862
21060 1 0.070012 0.516459 0.661329
21059 2 0.0742228 0.521557 0.665524
21058 1 0.0784555 0.525339 0.670107
5614 1 0.07007 0.506635 0.681467
15957 1 0.0714645 0.509085 0.683191
15956 2 0.0759261 0.513788 0.6874
1701 1 0.0230938 0.556478 0.65852
19875 1 0.0246084 0.558154 0.660347
10108 1 0.000535206 0.557002 0.665149
1755 1 0.0123792 0.528403 0.660878
1754 2 0.0149536 0.533604 0.666666
1753 1 0.0189462 0.537022 0.672637
6015 1 0.0197811 0.538519 0.674433
6014 2 0.0236284 0.543492 0.679232
6013 1 0.0282206 0.548192 0.684669
6631 1 0.0305659 0.549876 0.686819
6462 1 0.0537074 0.527136 0.676458
4512 1 0.0559076 0.528401 0.677892
18245 2 0.0330838 0.530785 0.659756
18244 1 0.038045 0.537737 0.663592
6507 1 0.0404118 0.539737 0.665062
6506 2 0.0450487 0.544 0.669931
6505 1 0.0489371 0.547451 0.67501
13003 1 0.0508287 0.548984 0.677094
13004 2 0.0561199 0.552792 0.682224
13005 1 0.060349 0.556959 0.687926
21169 1 0.0803321 0.527217 0.671909
4511 2 0.0614399 0.529934 0.682441
18337 1 0.0623343 0.538276 0.659029
16848 1 0.0638317 0.539718 0.660729
21170 2 0.0839897 0.531908 0.677227
16847 2 0.0686016 0.544726 0.665932
16846 1 0.0732293 0.550207 0.670556
2427 1 0.0746996 0.55216 0.672175
2426 2 0.0795622 0.556094 0.676819
21171 1 0.0892193 0.536867 0.682331
4377 1 0.0903671 0.538792 0.684041
4510 1 0.0673434 0.533047 0.685933
793 1 0.0691055 0.534649 0.687684
9005 2 0.0997836 0.550443 0.659806
20748 1 0.104802 0.548612 0.674591
20747 2 0.110922 0.552941 0.676994
20746 1 0.114788 0.559465 0.681152
9006 1 0.100652 0.557221 0.663554
4376 2 0.094434 0.543909 0.688759
10109 2 0.00505959 0.559863 0.670847
19874 2 0.0300789 0.561955 0.664576
10110 1 0.0103771 0.562843 0.676729
17250 1 0.0120879 0.563642 0.678992
14010 1 0.00754558 0.58518 0.682303
13579 1 0.0182522 0.577976 0.661145
2604 1 0.0198922 0.57981 0.662601
2603 2 0.0249969 0.585348 0.667227
6073 1 0.00956908 0.587278 0.683792
6074 2 0.013336 0.591411 0.688437
2602 1 0.0280758 0.590245 0.673408
14009 2 0.00127955 0.581089 0.678183
17249 2 0.0166616 0.566828 0.684702
5406 1 0.0290776 0.591319 0.675644
19916 2 0.0522195 0.560498 0.659108
19873 1 0.035022 0.564802 0.669843
19917 1 0.0572676 0.564791 0.663933
10572 1 0.0593313 0.566617 0.665575
3303 1 0.0362938 0.566291 0.671706
3302 2 0.0412836 0.570751 0.677974
13237 1 0.043952 0.580757 0.659281
9862 1 0.0449939 0.582628 0.661415
9863 2 0.0488692 0.586105 0.666941
9864 1 0.0533478 0.588129 0.673104
13641 1 0.0549924 0.589006 0.674528
3301 1 0.04566 0.573684 0.684178
12072 1 0.0477857 0.574723 0.686189
2425 1 0.0839328 0.560259 0.68175
5232 1 0.0855384 0.561998 0.683769
1248 1 0.085297 0.568626 0.658617
10571 2 0.0637076 0.571986 0.670521
10570 1 0.0686937 0.574909 0.675259
4969 1 0.0712172 0.576728 0.676894
13883 2 0.0718259 0.58486 0.657913
13884 1 0.0769838 0.588397 0.664094
4970 2 0.075777 0.580661 0.681156
14416 1 0.0785232 0.589837 0.665783
4971 1 0.0800524 0.584282 0.686087
21012 1 0.0816868 0.586008 0.688125
17920 1 0.10004 0.588942 0.657097
17772 1 0.115583 0.562294 0.682484
4890 1 0.100522 0.559842 0.664994
4889 3 0.0998661 0.567424 0.66851
4888 1 0.0984302 0.573972 0.673198
16225 1 0.0986968 0.577026 0.675159
16226 2 0.0998208 0.583636 0.678694
16227 1 0.101886 0.588253 0.683048
1359 1 0.103223 0.590636 0.684991
10401 1 0.114557 0.580956 0.671629
10400 2 0.118598 0.587058 0.673741
17771 2 0.119092 0.568003 0.685864
4253 2 0.14899 0.576739 0.688813
4252 1 0.146348 0.582574 0.68371
10903 1 0.00356374 0.59237 0.659385
16747 1 0.0248226 0.618433 0.658369
8200 1 0.00263764 0.61234 0.68789
5176 1 0.00564817 0.593708 0.660203
496 1 0.00168943 0.621095 0.669548
5177 2 0.0111739 0.5982 0.662771
5178 1 0.0157828 0.602233 0.668771
5587 1 0.0174047 0.603472 0.670563
5588 2 0.0210667 0.607626 0.675024
5589 1 0.0254974 0.610591 0.679511
2203 1 0.0267517 0.612157 0.681463
6510 1 0.0268231 0.620241 0.660203
497 2 0.00599655 0.623453 0.674336
3895 1 0.000389875 0.611418 0.685466
6509 3 0.0315636 0.624268 0.665039
10418 2 0.0377143 0.598874 0.656442
5405 2 0.0337935 0.594909 0.681294
10419 1 0.0424241 0.603645 0.661578
20623 1 0.0437176 0.605533 0.663518
20624 2 0.0470387 0.610167 0.668771
20625 1 0.0502048 0.615046 0.673429
20193 1 0.0516789 0.616646 0.675631
20192 2 0.0558234 0.620053 0.680318
13640 2 0.0599462 0.593942 0.679059
2204 2 0.0317601 0.615389 0.686596
5404 1 0.0397268 0.598413 0.685524
8803 1 0.0421064 0.599983 0.687312
8246 2 0.0788926 0.623073 0.676939
4659 1 0.0637671 0.605176 0.659096
6831 1 0.0659812 0.606901 0.661071
14417 2 0.08318 0.59459 0.669754
13639 1 0.0646446 0.598078 0.683022
14418 1 0.0876802 0.600348 0.673621
6830 2 0.0693838 0.611426 0.666411
6829 1 0.0735313 0.61629 0.670271
8247 1 0.0747814 0.618101 0.671801
2968 1 0.0891169 0.602304 0.675084
3894 1 0.0667613 0.600086 0.684552
3893 2 0.0715752 0.604403 0.688671
17921 2 0.103056 0.59542 0.661945
526 1 0.0999308 0.622665 0.665295
19298 2 0.0950357 0.61807 0.657828
2969 2 0.0919254 0.607159 0.680671
17922 1 0.107888 0.600646 0.666127
1434 1 0.108956 0.602324 0.667423
19299 1 0.0987553 0.621577 0.66359
1433 2 0.112861 0.608334 0.671515
1432 1 0.116994 0.613385 0.676638
14014 1 0.117927 0.615541 0.678554
14015 2 0.121931 0.620662 0.683429
2970 1 0.0949702 0.611344 0.68619
4654 1 0.096677 0.612814 0.687718
10399 1 0.123874 0.592197 0.67614
4189 1 0.125511 0.59395 0.677333
4190 2 0.130585 0.59879 0.68187
4191 1 0.13446 0.603011 0.686137
6324 1 0.135735 0.604574 0.687916
1176 1 0.0205277 0.459885 0.718341
13637 2 0.0482082 0.491027 0.691586
13638 1 0.0421633 0.489675 0.696301
21393 1 0.0543647 0.49415 0.715512
13210 1 0.0626605 0.494085 0.691095
835 1 0.00730176 0.522522 0.690155
8199 1 0.0254743 0.508962 0.70017
16756 1 0.00933666 0.523819 0.691489
8198 2 0.0306678 0.512607 0.705583
8197 1 0.0360877 0.515789 0.709462
11481 1 0.0383674 0.517837 0.711351
11480 3 0.0431678 0.523123 0.714833
10379 2 0.0535194 0.512026 0.692192
10380 1 0.0579585 0.516547 0.698021
15369 1 0.0592244 0.518902 0.70009
17149 1 0.0342805 0.495517 0.721345
21392 2 0.0587303 0.500591 0.718279
13211 2 0.0684916 0.497513 0.696192
13212 1 0.0742983 0.500512 0.701035
12063 1 0.0761154 0.501485 0.702745
15368 2 0.0625681 0.52314 0.705469
15955 1 0.0807565 0.51997 0.690877
5728 1 0.0823641 0.521742 0.69334
12062 2 0.0811243 0.505621 0.707505
12061 1 0.0855194 0.507287 0.713799
6886 1 0.0873159 0.508071 0.715468
5729 2 0.0858847 0.525443 0.699436
21391 1 0.0647258 0.506249 0.721218
2874 1 0.110123 0.502871 0.702682
2873 2 0.115234 0.508645 0.706427
2872 1 0.120701 0.514275 0.710977
2092 1 0.119347 0.524154 0.700534
6887 2 0.0924059 0.51278 0.719542
12790 1 0.122653 0.515651 0.712886
12791 2 0.127958 0.519269 0.717628
21559 1 0.00109215 0.543768 0.691546
2655 1 0.00303479 0.545861 0.693207
3776 2 0.00358377 0.537165 0.714704
16757 2 0.0145223 0.528312 0.695832
16758 1 0.0172422 0.533144 0.700855
6318 1 0.0187917 0.535334 0.703013
16278 1 0.0149197 0.555565 0.703813
2653 1 0.01313 0.553958 0.70242
2654 2 0.00804662 0.550785 0.697104
6317 2 0.0233488 0.539394 0.707899
3775 1 0.00794021 0.542757 0.718734
6316 1 0.0286012 0.542713 0.711838
7092 1 0.0100748 0.544908 0.719817
11479 1 0.0476644 0.527164 0.720338
18814 1 0.0489873 0.528499 0.721512
19721 2 0.0359435 0.528938 0.690629
19722 1 0.0409615 0.533051 0.695554
6632 2 0.0346926 0.553205 0.691585
915 1 0.0423437 0.534756 0.697212
8145 1 0.0309414 0.543623 0.713827
914 2 0.0471177 0.539313 0.701496
6633 1 0.0385039 0.556874 0.696388
5259 1 0.0404172 0.558381 0.698447
913 1 0.0519934 0.544081 0.705572
18528 1 0.0545806 0.545295 0.707001
8144 2 0.0367086 0.547288 0.719709
15367 1 0.0668112 0.527852 0.710672
17794 1 0.0683494 0.528789 0.712287
18527 2 0.0612439 0.548743 0.710938
4261 1 0.0620097 0.558397 0.690272
17795 2 0.0744831 0.532434 0.718015
18526 1 0.0675403 0.552447 0.714316
794 2 0.0716841 0.53943 0.693085
795 1 0.0774472 0.543808 0.698396
12273 1 0.079395 0.545219 0.700777
12272 2 0.0836504 0.548742 0.706788
11040 1 0.0690081 0.553697 0.71582
12271 1 0.0894968 0.553429 0.71191
19045 1 0.0906792 0.5556 0.713202
11039 2 0.0721496 0.556619 0.721895
5730 1 0.0919969 0.527848 0.705143
2093 2 0.122275 0.531598 0.700037
4375 1 0.0988372 0.546892 0.693367
4266 1 0.0938306 0.528995 0.70733
1867 1 0.100709 0.547962 0.694658
1868 2 0.105093 0.552281 0.699095
4265 2 0.0985748 0.53262 0.712035
4264 1 0.104116 0.537092 0.715205
13234 1 0.106136 0.538805 0.71681
1869 1 0.11067 0.556419 0.702848
1314 1 0.112913 0.557972 0.704287
13235 2 0.11122 0.543394 0.721459
8184 1 0.143492 0.540629 0.720718
8182 1 0.14603 0.556201 0.718892
8183 2 0.145315 0.548046 0.719548
2094 1 0.126128 0.537082 0.700368
11664 1 0.126957 0.53923 0.700517
11663 2 0.131103 0.54569 0.701299
11662 1 0.133773 0.553136 0.701678
12747 1 0.134841 0.55624 0.701441
2576 2 0.00321172 0.575682 0.700051
20093 2 0.0012933 0.565123 0.721863
17248 1 0.0223559 0.569297 0.689456
16277 2 0.0198038 0.559588 0.708716
16276 1 0.0251804 0.564763 0.712589
11424 1 0.0244039 0.570515 0.690944
11423 2 0.0288949 0.575106 0.694502
18178 1 0.010504 0.581581 0.707147
2575 1 0.00884437 0.580553 0.704991
18179 2 0.015809 0.584188 0.712872
4255 1 0.0270986 0.565971 0.714115
18180 1 0.0205602 0.58772 0.717844
13975 1 0.0222438 0.589261 0.71945
5258 2 0.0450535 0.562672 0.703286
12071 2 0.0536714 0.576818 0.69025
11422 1 0.0339936 0.578565 0.698891
9687 1 0.0358548 0.579963 0.700777
5257 1 0.0491514 0.56632 0.707921
15742 1 0.0511405 0.567908 0.710061
15743 2 0.0563729 0.571563 0.714626
9686 2 0.0403043 0.584789 0.706219
9685 1 0.044502 0.588463 0.711635
2370 1 0.0466413 0.590307 0.713421
12070 1 0.0581106 0.581553 0.695081
2572 1 0.060094 0.583197 0.697111
4256 2 0.0323276 0.569279 0.719786
5231 2 0.0896739 0.564931 0.689815
15744 1 0.0623071 0.575952 0.718712
4262 2 0.0681839 0.56227 0.695316
2573 2 0.0649739 0.587635 0.701919
4263 1 0.0734507 0.567417 0.700003
6408 1 0.0754242 0.569356 0.701672
6407 2 0.0795089 0.573275 0.706558
6406 1 0.0839182 0.576592 0.712502
21011 2 0.0864713 0.589888 0.693701
16608 1 0.0859265 0.578049 0.714131
16607 2 0.0911873 0.582248 0.719721
2574 1 0.0694741 0.590857 0.707246
10864 1 0.0643358 0.577615 0.720406
19046 2 0.0949983 0.560445 0.717668
1313 2 0.118979 0.562076 0.709158
5230 1 0.094602 0.567698 0.695806
4578 1 0.0961724 0.56896 0.697522
4577 2 0.100626 0.573762 0.701697
4576 1 0.106186 0.579221 0.705517
15546 1 0.108425 0.580737 0.707801
15545 2 0.112656 0.585622 0.712743
15544 1 0.116898 0.589539 0.716599
2358 1 0.1187 0.591067 0.718897
4254 1 0.152858 0.571913 0.693719
12746 2 0.137975 0.563033 0.700746
17770 1 0.122505 0.57481 0.690401
370 1 0.123584 0.576816 0.69224
371 2 0.126212 0.581492 0.698152
372 1 0.13072 0.58651 0.702177
20863 1 0.132945 0.587815 0.704082
1312 1 0.124578 0.564967 0.713505
16483 1 0.126455 0.566406 0.715586
16484 2 0.130848 0.571482 0.719862
20864 2 0.137453 0.591864 0.708005
12745 1 0.141417 0.570168 0.698909
21262 1 0.166792 0.590307 0.695276
1221 1 0.0253474 0.624038 0.711615
1220 2 0.0199798 0.62092 0.705829
8050 1 0.0063229 0.602615 0.711337
2896 1 0.00419131 0.601553 0.70945
6075 1 0.0172836 0.595638 0.692437
6022 1 0.0188993 0.597085 0.694007
6023 2 0.0221638 0.601347 0.698922
6024 1 0.0255722 0.605636 0.704517
1219 1 0.0154042 0.618199 0.700642
8201 2 0.00765242 0.615063 0.693509
8202 1 0.0132452 0.617224 0.698898
21097 1 0.0270153 0.606524 0.706391
8051 3 0.0121432 0.605255 0.716602
8052 1 0.0175103 0.607839 0.721994
9608 2 0.0418909 0.623167 0.699068
2369 2 0.0517681 0.595524 0.71774
21098 2 0.0337157 0.60836 0.711464
21099 1 0.0404295 0.611471 0.714239
8804 2 0.046645 0.602244 0.691865
2295 1 0.0424962 0.612613 0.716203
2205 1 0.0364014 0.61797 0.691496
8805 1 0.052311 0.606365 0.696799
3664 1 0.0543268 0.607598 0.698535
3665 2 0.0595874 0.611188 0.70222
9609 1 0.0380025 0.619622 0.693587
2294 2 0.0471291 0.615919 0.721427
15248 2 0.0697296 0.620759 0.715675
21010 1 0.0906502 0.594505 0.698552
3666 1 0.0637455 0.615385 0.707249
7224 1 0.0708152 0.592728 0.709439
15247 1 0.065341 0.617177 0.709046
7223 2 0.0744206 0.597114 0.7146
12705 1 0.0845387 0.620231 0.704147
3892 1 0.0752726 0.608572 0.693871
12703 1 0.0762631 0.610549 0.695237
12704 2 0.0801151 0.616042 0.698953
7222 1 0.0797112 0.600795 0.719499
6601 1 0.0816309 0.601939 0.721178
3205 1 0.0864354 0.62172 0.705741
17526 1 0.108619 0.623171 0.697368
4656 1 0.106584 0.620786 0.696142
1358 2 0.108505 0.595422 0.690181
14559 1 0.0922866 0.59596 0.700357
14558 2 0.0966412 0.599513 0.70504
1357 1 0.112456 0.598442 0.695609
4655 2 0.101094 0.616343 0.691974
14557 1 0.10192 0.603514 0.709906
18949 1 0.103393 0.605436 0.711271
18950 2 0.107783 0.610246 0.716675
9421 1 0.114316 0.600638 0.697615
9422 2 0.119914 0.6045 0.701037
18951 1 0.112118 0.614433 0.721253
9663 1 0.138038 0.619879 0.716449
6323 2 0.139903 0.608236 0.69342
20865 1 0.141663 0.597051 0.712878
3618 1 0.143636 0.598386 0.714874
9423 1 0.126051 0.609619 0.705308
9661 1 0.128072 0.611243 0.70706
9662 2 0.133016 0.615237 0.711574
6322 1 0.145473 0.61142 0.698687
20572 1 0.147531 0.613187 0.700436
3617 2 0.148368 0.601602 0.71932
10611 1 0.13937 0.621781 0.718343
20574 1 0.157351 0.622664 0.709813
20573 2 0.153102 0.616829 0.705157
21264 1 0.155801 0.600005 0.700503
21263 2 0.160625 0.594059 0.699255
1175 2 0.0260902 0.464914 0.722813
16626 1 0.0223849 0.48965 0.739596
1174 1 0.0313496 0.469631 0.726073
4740 1 0.0340671 0.47155 0.727602
4739 3 0.0400099 0.475902 0.730434
4738 1 0.0449606 0.481111 0.733561
12459 1 0.0470136 0.483555 0.734991
12458 2 0.0518532 0.490045 0.737642
12457 1 0.057882 0.494229 0.741939
21540 1 0.0844296 0.483178 0.751063
21539 2 0.0820554 0.477596 0.745817
21538 1 0.0801018 0.473015 0.740022
7756 1 0.0702746 0.482566 0.722779
7757 2 0.0741598 0.488314 0.728306
10381 1 0.0859818 0.485744 0.753062
10060 1 0.0134655 0.519551 0.724846
16625 2 0.0284524 0.494332 0.743786
10061 2 0.0178318 0.524278 0.73002
15042 1 0.0344762 0.51985 0.746796
15041 2 0.0359595 0.522715 0.753299
16624 1 0.034099 0.497282 0.74913
11494 1 0.03593 0.498541 0.751368
18499 1 0.0605734 0.496055 0.743188
17150 2 0.0370239 0.500443 0.726786
12208 1 0.0519449 0.515886 0.741675
6396 1 0.0542796 0.517792 0.741866
12209 2 0.0465943 0.511035 0.738602
17151 1 0.0392464 0.50493 0.73248
12210 1 0.0408286 0.506631 0.734305
6395 2 0.0598086 0.522531 0.744902
18501 1 0.071294 0.504911 0.751721
6877 1 0.0734087 0.506894 0.753736
18500 2 0.0658385 0.500461 0.747235
7758 1 0.078897 0.494729 0.732441
2716 1 0.066458 0.508118 0.722628
2717 2 0.0714414 0.512703 0.726537
14298 1 0.0761701 0.521049 0.734469
2718 1 0.0748157 0.51841 0.732201
14297 2 0.0803662 0.526637 0.739769
10080 1 0.0805893 0.496347 0.733581
10079 2 0.0867822 0.500143 0.737461
7707 1 0.104451 0.512893 0.754459
6888 1 0.0961455 0.51755 0.72457
20202 1 0.113414 0.509027 0.734303
7706 2 0.0997683 0.508744 0.750191
10078 1 0.0925511 0.503721 0.742395
7705 1 0.0945868 0.505233 0.744168
6892 1 0.0981489 0.519401 0.727038
6893 2 0.102664 0.524558 0.732458
20201 2 0.118933 0.513527 0.738115
12792 1 0.132948 0.523329 0.722869
1095 1 0.134379 0.524724 0.724666
20200 1 0.124514 0.517577 0.742665
3273 1 0.126641 0.518817 0.744342
3272 2 0.130882 0.522189 0.750532
16254 1 0.00125985 0.545582 0.741953
6713 2 0.00420731 0.556565 0.744435
6712 1 0.00235807 0.548339 0.742379
10062 1 0.0224241 0.528354 0.732773
15468 1 0.0247095 0.530242 0.733905
7091 2 0.0143871 0.549226 0.72393
7090 1 0.0202175 0.553013 0.729602
1690 1 0.0222781 0.554278 0.732304
1691 2 0.0267647 0.5575 0.737796
15467 2 0.0295388 0.535576 0.737202
18815 2 0.0527888 0.533704 0.726173
8879 2 0.0442857 0.543807 0.746262
15466 1 0.0356556 0.540254 0.73995
8878 1 0.0376951 0.541456 0.74125
8143 1 0.0421632 0.550038 0.723366
4705 1 0.044346 0.550975 0.724765
4706 2 0.0490137 0.554978 0.729061
8880 1 0.0496441 0.544991 0.751709
18816 1 0.0578158 0.538102 0.731816
15496 1 0.0596435 0.53961 0.73319
1833 1 0.0518949 0.546121 0.7539
1692 1 0.0319264 0.55911 0.74229
4707 1 0.0539721 0.559397 0.734079
6394 1 0.0645149 0.527317 0.748964
7762 1 0.0664574 0.529331 0.750591
17796 1 0.0804669 0.536536 0.72263
14296 1 0.0859316 0.530272 0.74454
2119 1 0.0824333 0.538204 0.724664
19438 1 0.0883722 0.531583 0.746104
12140 2 0.0769971 0.55227 0.750072
15497 2 0.064621 0.542422 0.73922
15498 1 0.0703503 0.547253 0.744632
12139 1 0.0721559 0.548266 0.746524
2120 2 0.0879583 0.542749 0.729241
12141 1 0.0824683 0.555651 0.754028
2121 1 0.0934234 0.546566 0.733641
19439 2 0.0938655 0.534485 0.751433
13236 1 0.115617 0.547479 0.726111
6894 1 0.106645 0.529287 0.736566
15275 2 0.113593 0.534347 0.741504
20251 1 0.0954504 0.547742 0.735779
15274 1 0.108586 0.530918 0.737896
20252 2 0.101153 0.551943 0.741284
20253 1 0.106305 0.556115 0.744468
6430 1 0.117855 0.54904 0.727998
15276 1 0.119251 0.538677 0.745515
20580 1 0.108148 0.558094 0.745863
3574 1 0.121668 0.540777 0.747522
6431 2 0.122001 0.553386 0.732994
3575 2 0.126004 0.546564 0.751625
1094 2 0.137715 0.528795 0.730514
1093 1 0.142158 0.535329 0.735717
14469 1 0.142753 0.537501 0.736852
14468 2 0.146482 0.543408 0.739509
14467 1 0.149747 0.549724 0.742527
6432 1 0.126518 0.558354 0.73627
9289 1 0.150854 0.552128 0.743152
20094 1 0.00815582 0.569055 0.725461
6714 1 0.0084513 0.560743 0.749312
7372 1 0.0105534 0.57065 0.727029
13355 2 0.000857015 0.583115 0.752842
5487 1 0.0100977 0.562264 0.751381
7373 2 0.0157096 0.574707 0.731159
7374 1 0.0211383 0.576493 0.736807
19059 1 0.0232441 0.577685 0.739042
19058 2 0.0275359 0.580947 0.7455
19057 1 0.0301949 0.583978 0.751903
11296 1 0.00372189 0.591501 0.732062
15378 1 0.0316464 0.585156 0.753406
583 1 0.0558006 0.56116 0.736413
18543 1 0.033967 0.559957 0.743985
4257 1 0.0382738 0.573579 0.723943
5359 1 0.0405488 0.574935 0.726039
5361 1 0.0505315 0.583223 0.736144
15415 1 0.0516674 0.584278 0.737789
5360 2 0.0458857 0.578011 0.731119
15416 2 0.0552112 0.587726 0.7438
18542 2 0.040564 0.563044 0.749691
584 2 0.0593716 0.565556 0.743082
15417 1 0.0610466 0.591817 0.750128
14366 2 0.0714478 0.575899 0.753203
11038 1 0.0764103 0.560744 0.72787
10865 2 0.067442 0.580671 0.725631
585 1 0.0638043 0.570309 0.74839
21477 1 0.0781933 0.562332 0.730191
21476 2 0.0832119 0.566194 0.736245
14365 1 0.0658518 0.571501 0.749769
10866 1 0.0723834 0.585582 0.73068
21475 1 0.087961 0.570381 0.740462
9271 1 0.0741827 0.5873 0.732525
9272 2 0.0789178 0.591758 0.737832
7879 1 0.0899679 0.572122 0.741738
19047 1 0.100667 0.563599 0.722442
20579 2 0.111421 0.562451 0.750285
16606 1 0.0952566 0.586818 0.724788
4959 1 0.10291 0.583728 0.750553
2041 1 0.103053 0.564729 0.724064
15550 1 0.0965607 0.588085 0.726872
7880 2 0.0955369 0.576467 0.74579
7881 1 0.101442 0.582131 0.749102
2042 2 0.108431 0.56936 0.728033
2043 1 0.112511 0.574459 0.731275
4378 1 0.114012 0.576044 0.732764
4379 2 0.118705 0.581826 0.736388
20578 1 0.116827 0.56675 0.754832
4380 1 0.123691 0.58597 0.741027
11228 2 0.145781 0.576536 0.751778
16485 1 0.13519 0.575632 0.725789
2721 1 0.137056 0.577293 0.727694
17538 1 0.125424 0.58811 0.743095
11227 1 0.140332 0.571956 0.747608
16813 1 0.13882 0.570123 0.745903
16815 1 0.128102 0.56015 0.737507
16814 2 0.13316 0.564967 0.742325
2720 2 0.142099 0.581984 0.731307
2719 1 0.145459 0.587319 0.735221
4675 1 0.146568 0.589635 0.736582
9290 2 0.153672 0.559911 0.7441
9291 1 0.15752 0.567055 0.742431
14439 1 0.15902 0.569579 0.741784
6280 1 0.17099 0.583457 0.736736
14437 1 0.168629 0.581249 0.73799
6281 2 0.17695 0.588598 0.73548
14438 2 0.163316 0.57532 0.740726
12170 3 0.207312 0.585827 0.724185
12169 1 0.211462 0.580075 0.722123
488 2 0.0255541 0.606138 0.749037
13976 2 0.0281175 0.59226 0.722901
2235 1 0.0303462 0.619598 0.737941
16062 1 0.0048234 0.619274 0.742508
487 1 0.0194915 0.602368 0.745012
9732 1 0.00608927 0.592774 0.73375
9731 2 0.0109568 0.596704 0.739252
9957 1 0.0282081 0.617686 0.735724
9730 1 0.0168554 0.600853 0.743274
9955 1 0.0190822 0.609072 0.724293
9956 2 0.0239285 0.61306 0.730759
9159 1 0.00666815 0.620715 0.743615
2293 1 0.0513787 0.621389 0.726092
8187 1 0.0529814 0.623239 0.728189
2234 2 0.0350352 0.623894 0.742324
13977 1 0.0340699 0.596289 0.727446
7029 1 0.0358169 0.597534 0.729217
17892 1 0.0558811 0.613998 0.752816
2368 1 0.0567108 0.599889 0.723939
4807 1 0.0588001 0.601578 0.72591
7028 2 0.0408904 0.600637 0.734853
7027 1 0.0453117 0.603739 0.739611
17890 1 0.0470201 0.605468 0.741864
17891 2 0.0512476 0.609656 0.74797
6602 2 0.0863481 0.607072 0.724392
8461 1 0.0798194 0.619857 0.747886
4808 2 0.06331 0.604517 0.730806
4809 1 0.0681144 0.608341 0.735971
9273 1 0.0837738 0.596405 0.742769
5691 1 0.0698211 0.61001 0.737603
14361 1 0.085666 0.598238 0.744426
5690 2 0.0748724 0.613599 0.741575
5689 1 0.0784945 0.617695 0.745896
6603 1 0.0909112 0.613113 0.727074
14360 2 0.0905505 0.601947 0.749426
10590 1 0.0624747 0.593685 0.752108
13426 1 0.100142 0.624163 0.740451
5591 2 0.117095 0.622136 0.727882
13427 2 0.0963769 0.619594 0.734206
14359 1 0.0966306 0.605938 0.754074
2357 2 0.122114 0.595797 0.723264
15552 1 0.106117 0.598323 0.735369
7700 2 0.112923 0.603841 0.741328
8236 1 0.11937 0.609301 0.747748
15551 2 0.101405 0.593102 0.731656
13428 1 0.0921896 0.614601 0.728613
5590 1 0.113678 0.616546 0.723485
7699 1 0.117521 0.607737 0.74566
7701 1 0.107619 0.599804 0.736703
2385 1 0.1387 0.616391 0.739106
1619 2 0.13302 0.609107 0.73331
17536 1 0.134074 0.597809 0.750243
1620 1 0.136908 0.614286 0.737722
13978 1 0.135791 0.599686 0.751851
2356 1 0.127015 0.60097 0.727829
2384 2 0.144644 0.621268 0.744159
4676 2 0.150216 0.595485 0.740611
8237 2 0.123267 0.614099 0.750814
1618 1 0.128894 0.603509 0.729129
17537 2 0.128914 0.592088 0.74663
3616 1 0.153353 0.606644 0.723903
47 2 0.162539 0.605294 0.751566
13569 1 0.164306 0.619442 0.735963
4540 1 0.163002 0.617956 0.734495
4677 1 0.154116 0.599351 0.745338
4541 2 0.159661 0.613453 0.729785
48 1 0.156673 0.601082 0.746716
4542 1 0.155374 0.608654 0.725271
4169 2 0.188815 0.609303 0.746668
13893 1 0.193209 0.603587 0.738598
12171 1 0.203135 0.592577 0.727716
13892 2 0.197593 0.599956 0.733361
4170 1 0.192118 0.604732 0.740384
13891 1 0.201975 0.594581 0.729098
4168 1 0.186395 0.613142 0.752868
6282 1 0.183813 0.593505 0.73568
10382 2 0.0893992 0.491435 0.757407
16896 1 0.0969139 0.497448 0.764547
10383 1 0.0946617 0.496429 0.762543
7776 1 0.0493915 0.505375 0.760823
7775 2 0.0565692 0.510032 0.763006
7774 1 0.0606575 0.515268 0.767095
5985 1 0.049058 0.526431 0.75867
11496 1 0.0471112 0.503535 0.759967
5984 2 0.0509534 0.528993 0.76609
11495 2 0.0414125 0.500539 0.756295
15040 1 0.0374185 0.525963 0.760313
11826 1 0.0653375 0.515968 0.770484
11825 2 0.0705555 0.520573 0.775147
6879 1 0.0850901 0.51394 0.761991
11824 1 0.0749004 0.524121 0.780725
5236 1 0.0770823 0.52555 0.782635
13585 1 0.087132 0.515277 0.763401
13586 2 0.0916639 0.520403 0.767738
6878 2 0.0794096 0.511474 0.758561
16945 1 0.0797667 0.51304 0.782438
16946 2 0.0856871 0.507057 0.783949
16895 2 0.101947 0.500242 0.770863
13587 1 0.0947498 0.525495 0.771552
9880 1 0.0969076 0.527318 0.773117
14428 1 0.115868 0.525035 0.76349
15148 1 0.118414 0.527165 0.764812
14429 2 0.110721 0.51959 0.760186
16894 1 0.105223 0.502116 0.778706
14430 1 0.106055 0.514773 0.75587
15990 1 0.125166 0.511881 0.778998
15989 2 0.124969 0.516949 0.785377
10404 1 0.139959 0.527773 0.756715
3271 1 0.13749 0.52616 0.755236
4687 1 0.0171688 0.536901 0.756867
5381 2 0.0177024 0.557666 0.782959
5382 1 0.0238035 0.55295 0.779749
4688 2 0.0230647 0.542062 0.759615
4689 1 0.0292291 0.545633 0.764127
20021 2 0.0362812 0.550064 0.769548
20020 1 0.0411571 0.554598 0.774036
5983 1 0.0547221 0.533029 0.772459
17682 1 0.0427587 0.556347 0.775463
17681 2 0.0481336 0.559971 0.779519
14998 1 0.0562934 0.534585 0.774268
14999 2 0.0603723 0.538176 0.77876
20022 1 0.0312679 0.546613 0.765234
1832 2 0.0567547 0.550129 0.75879
16605 1 0.0639987 0.555225 0.765481
1831 1 0.0618759 0.553526 0.764066
7764 1 0.0753211 0.535898 0.762596
1717 1 0.0765799 0.537302 0.764713
1718 2 0.0812678 0.541668 0.76928
16604 2 0.0692296 0.55958 0.770806
1719 1 0.0862036 0.545487 0.773037
7763 2 0.0705131 0.531962 0.756137
13123 1 0.087931 0.546837 0.774436
15000 1 0.0661494 0.542508 0.783593
20490 1 0.068159 0.544515 0.785239
8674 1 0.0847008 0.557427 0.756107
9881 2 0.101231 0.530982 0.776546
9882 1 0.107333 0.535567 0.78031
9115 1 0.109607 0.548801 0.764689
16107 1 0.111732 0.550478 0.766538
13124 2 0.0934537 0.55086 0.778472
16106 2 0.117666 0.555803 0.770872
13125 1 0.098283 0.555623 0.783122
9116 2 0.104078 0.545595 0.760974
16105 1 0.121968 0.560736 0.774632
13249 1 0.109016 0.537041 0.782237
9117 1 0.0996475 0.541404 0.756518
21145 1 0.100235 0.55721 0.7847
19440 1 0.0977442 0.539077 0.755527
15149 2 0.123532 0.533036 0.767839
15150 1 0.127901 0.53808 0.771696
4626 1 0.129774 0.540155 0.77345
4625 2 0.13529 0.544166 0.77905
14793 1 0.151292 0.540788 0.762804