ITEM: TIMESTEP
40000000
ITEM: NUMBER OF ATOMS
6156
ITEM: BOX BOUNDS pp pp pp
0.0000000000000000e+00 5.0000000000000000e+01
0.0000000000000000e+00 5.0000000000000000e+01
0.0000000000000000e+00 5.0000000000000000e+01
ITEM: ATOMS id type xs ys zs
16478 2 0.517508 0.607318 0.0614867
14579 3 0.519871 0.671446 0.0564539
14580 1 0.513162 0.672974 0.0530804
16743 1 0.510069 0.673729 0.0517768
16741 1 0.496235 0.678739 0.0498191
16742 3 0.502947 0.676757 0.0500896
21190 1 0.518747 0.711858 0.046341
13850 2 0.494623 0.590371 0.0726784
13849 1 0.501024 0.587109 0.0771998
1555 1 0.50324 0.586569 0.0786263
1556 3 0.510891 0.584715 0.0826398
1557 1 0.517337 0.581632 0.0856034
10081 1 0.519882 0.580112 0.0865702
13851 1 0.487831 0.591927 0.0684078
16477 1 0.513526 0.607608 0.068601
7423 1 0.518385 0.632786 0.0639497
12699 1 0.512327 0.631935 0.0848438
16973 3 0.502639 0.649701 0.0835965
16972 1 0.500433 0.643282 0.078507
12698 2 0.517205 0.627559 0.086807
16974 1 0.506348 0.655449 0.0891659
17032 1 0.507686 0.657943 0.0912277
15179 2 0.51 0.700213 0.0660004
15180 1 0.502453 0.70219 0.0625518
3900 1 0.519995 0.699833 0.0718822
15178 1 0.516793 0.699643 0.0706236
11590 1 0.500339 0.441628 0.0935055
11591 2 0.506933 0.441546 0.098294
11592 1 0.512792 0.440665 0.103132
2275 1 0.514953 0.439827 0.105446
12097 1 0.506542 0.667458 0.121278
3281 2 0.516996 0.679628 0.103253
3282 1 0.516032 0.672527 0.0999801
17033 2 0.511486 0.663084 0.0957635
17034 1 0.514869 0.670044 0.0989375
12098 2 0.51449 0.664562 0.12083
3280 1 0.517965 0.687275 0.107573
15924 1 0.510493 0.430771 0.181249
3307 1 0.519739 0.465452 0.180656
1821 1 0.511312 0.487132 0.183345
14869 1 0.501959 0.500995 0.181049
14870 2 0.502469 0.507661 0.176897
14871 1 0.504476 0.515019 0.173479
10984 1 0.519245 0.504239 0.174509
15923 3 0.514847 0.432151 0.187902
9061 1 0.501754 0.413492 0.204023
9062 3 0.505683 0.417416 0.209916
9063 1 0.50974 0.422017 0.215787
6918 1 0.504699 0.430489 0.20445
6917 2 0.499007 0.43618 0.205453
9773 2 0.516283 0.448453 0.20555
9772 1 0.518219 0.443219 0.201438
9774 1 0.513674 0.453603 0.210787
16266 1 0.512688 0.455178 0.213073
6916 1 0.493165 0.440711 0.205987
7152 1 0.479396 0.497054 0.210074
1819 1 0.514604 0.487022 0.198545
5695 1 0.515745 0.487908 0.201398
1820 2 0.512477 0.486057 0.19156
5696 2 0.518221 0.491681 0.208847
7151 2 0.487762 0.499422 0.210883
13287 1 0.507311 0.510335 0.190214
13285 1 0.515404 0.508675 0.203421
7150 1 0.494351 0.502369 0.212939
298 1 0.497236 0.503936 0.21357
4023 1 0.518162 0.525344 0.209135
299 3 0.50349 0.507927 0.216098
13286 2 0.51066 0.508952 0.196522
7833 1 0.511145 0.424011 0.21735
7832 2 0.514548 0.430835 0.220809
17629 1 0.516966 0.41928 0.237415
15241 1 0.485956 0.445051 0.22831
15243 1 0.500507 0.439605 0.226481
15242 2 0.493036 0.442056 0.228274
16265 2 0.510522 0.459575 0.219021
900 1 0.516666 0.439781 0.228506
7831 1 0.516329 0.437567 0.226655
16264 1 0.508984 0.463788 0.226305
1281 1 0.508765 0.465322 0.228797
3262 1 0.516321 0.448648 0.245106
898 1 0.516632 0.447935 0.241815
899 2 0.517204 0.444744 0.234841
1280 2 0.509188 0.469125 0.236216
1279 1 0.512347 0.471577 0.243314
4210 1 0.51153 0.489153 0.232147
4211 2 0.50969 0.491453 0.239494
10426 1 0.513305 0.472369 0.24683
300 1 0.509113 0.512396 0.220388
11509 1 0.510739 0.51384 0.222024
11510 2 0.515417 0.518706 0.227441
11511 1 0.519312 0.523803 0.231991
9242 2 0.51871 0.457516 0.26971
9241 1 0.519007 0.459333 0.276773
21511 1 0.495862 0.460895 0.267011
21512 2 0.499504 0.453394 0.266759
21513 1 0.500713 0.446021 0.263529
3264 1 0.517416 0.453354 0.259418
3263 2 0.517027 0.451381 0.252168
13756 1 0.520182 0.435674 0.270372
4803 1 0.520198 0.436968 0.273497
9243 1 0.517835 0.454551 0.26255
4212 1 0.509872 0.493594 0.247702
11874 1 0.510126 0.494642 0.250295
10428 1 0.515046 0.476835 0.261439
10427 2 0.513737 0.474383 0.254417
19657 1 0.515069 0.477728 0.263893
19658 2 0.516427 0.479709 0.269882
19659 1 0.517643 0.482429 0.276801
11873 2 0.511205 0.498085 0.257623
11872 1 0.512994 0.502295 0.265011
6052 1 0.513632 0.503612 0.267696
4159 1 0.5143 0.514556 0.247512
4160 2 0.513308 0.51931 0.253754
6053 2 0.515126 0.506305 0.27492
20337 1 0.512578 0.524912 0.264058
4161 1 0.512723 0.523129 0.261128
20336 2 0.513328 0.528669 0.271896
7663 1 0.49618 0.432535 0.286123
20866 1 0.520076 0.464995 0.295971
19018 1 0.520062 0.465573 0.298277
20867 2 0.519978 0.462068 0.287083
7665 1 0.508423 0.440754 0.293358
7664 2 0.502432 0.436653 0.289918
20868 1 0.519505 0.460021 0.279073
9099 1 0.519982 0.487062 0.298897
13800 1 0.517872 0.482951 0.279758
13799 2 0.51858 0.48508 0.288114
13798 1 0.520204 0.486516 0.296265
8176 1 0.516151 0.515901 0.302766
12951 1 0.51609 0.514883 0.299857
12949 1 0.514635 0.508547 0.285897
6054 1 0.515025 0.507862 0.282935
12950 2 0.514684 0.511412 0.293151
20335 1 0.513529 0.533011 0.278259
2761 1 0.5194 0.521166 0.320696
8178 1 0.518931 0.520013 0.317436
8177 2 0.517176 0.517896 0.310452
3379 1 0.517906 0.42552 0.366339
9059 3 0.50879 0.424403 0.369963
9058 1 0.515847 0.425102 0.36782
3880 1 0.514757 0.490776 0.353791
1356 1 0.516442 0.489583 0.356298
3881 2 0.509886 0.492697 0.348052
3882 1 0.505201 0.496292 0.34336
9060 1 0.502382 0.423081 0.374152
501 1 0.50379 0.542553 0.38413
12376 1 0.505974 0.542785 0.381913
500 3 0.497584 0.54266 0.388826
12377 2 0.512653 0.542239 0.377283
499 1 0.491663 0.544773 0.393105
12378 1 0.518825 0.540753 0.373903
10868 3 0.518989 0.729804 0.0244149
10869 1 0.514989 0.732553 0.0180006
8404 1 0.499109 0.738445 0.0397756
3247 1 0.496542 0.740748 0.0385666
3248 2 0.491296 0.745594 0.035676
8405 2 0.503643 0.733017 0.041689
8406 1 0.507783 0.725974 0.0426486
21192 1 0.509291 0.723123 0.0429622
21191 2 0.514066 0.717127 0.0437435
3249 1 0.488557 0.751637 0.0321716
17465 3 0.657567 0.496803 0.0463908
17464 1 0.655647 0.491019 0.0520385
16291 1 0.790455 0.4941 0.0562272
17919 1 0.793342 0.492477 0.056192
17918 2 0.800525 0.489569 0.057943
16292 3 0.78456 0.498017 0.0560311
9913 1 0.827835 0.480815 0.0555925
14049 1 0.830744 0.480202 0.0559613
14048 3 0.838368 0.478974 0.0568179
9914 2 0.819329 0.482879 0.0563187
9915 1 0.811438 0.485931 0.0572166
17917 1 0.808286 0.486936 0.0571015
14047 1 0.846454 0.477135 0.0563333
15667 1 0.648014 0.49397 0.0782031
15668 3 0.650291 0.489288 0.0730012
15669 1 0.652619 0.483075 0.0683922
11893 1 0.703287 0.493056 0.0764952
11894 3 0.711119 0.487836 0.073542
12840 1 0.700681 0.494508 0.0771133
12839 3 0.694453 0.498011 0.078684
11895 1 0.717511 0.482865 0.0734814
16890 1 0.736628 0.489325 0.0639583
16889 3 0.742131 0.490429 0.0700106
7971 1 0.760139 0.488836 0.0861809
16888 1 0.748382 0.491061 0.0763044
7970 3 0.759083 0.496632 0.0832135
8657 2 0.83069 0.494941 0.0944889
8656 1 0.837153 0.490679 0.0928669
8658 1 0.824267 0.500518 0.0933925
15312 1 0.52578 0.437038 0.122069
2277 1 0.525151 0.437046 0.119662
17828 2 0.577614 0.429381 0.12152
17827 1 0.577831 0.430287 0.113601
6313 1 0.564068 0.411098 0.112266
6314 2 0.563543 0.411378 0.119482
14703 1 0.602399 0.423542 0.119804
2276 2 0.521045 0.438854 0.112118
12277 1 0.564265 0.445361 0.11829
12278 2 0.559312 0.445744 0.124174
13829 3 0.741079 0.453164 0.108877
13828 1 0.733089 0.456345 0.111935
8539 1 0.730382 0.457479 0.113283
8540 2 0.722945 0.461835 0.115078
8541 1 0.717472 0.467465 0.115767
2253 1 0.761515 0.440752 0.0953695
13830 1 0.746987 0.449723 0.105518
2251 1 0.749876 0.448411 0.104032
2252 3 0.756017 0.444567 0.100482
451 1 0.77363 0.465003 0.122317
3605 2 0.796562 0.446558 0.125742
5073 1 0.788518 0.45301 0.121254
3604 1 0.79069 0.451369 0.122319
5071 1 0.776237 0.462373 0.121738
5072 3 0.78327 0.457628 0.120461
6237 1 0.59824 0.471888 0.124874
6236 2 0.605522 0.473311 0.119991
6235 1 0.612468 0.475865 0.116849
16480 1 0.61489 0.476523 0.115126
18475 1 0.592127 0.492148 0.119186
18476 2 0.597107 0.495302 0.125149
7906 1 0.634391 0.497434 0.115695
16482 1 0.63019 0.480916 0.108387
16481 3 0.623362 0.478791 0.11171
7908 1 0.63724 0.500674 0.100254
15189 1 0.633493 0.497086 0.118392
7907 3 0.636756 0.498829 0.108237
12494 3 0.652283 0.493543 0.121055
13035 1 0.662488 0.480798 0.101808
13034 3 0.657934 0.485473 0.105828
13033 1 0.654382 0.489324 0.111861
12495 1 0.653833 0.490612 0.114156
1579 1 0.674476 0.473929 0.125023
17371 1 0.678222 0.498016 0.120065
6580 1 0.673804 0.500346 0.0976937
6581 3 0.679054 0.495069 0.0993049
1728 1 0.67624 0.499842 0.119223
6582 1 0.68493 0.490524 0.102023
17372 3 0.683671 0.492986 0.122445
8709 1 0.7109 0.497004 0.119911
11152 1 0.687355 0.488805 0.103239
11153 3 0.692948 0.485031 0.105776
11154 1 0.699342 0.479634 0.108673
19175 3 0.708582 0.473967 0.112703
19174 1 0.702192 0.477735 0.109453
17373 1 0.688651 0.48699 0.124413
13441 1 0.69116 0.485012 0.125336
7914 1 0.713283 0.494914 0.120289
19176 1 0.715001 0.469523 0.115531
7913 3 0.719807 0.490182 0.122029
1669 1 0.736204 0.481953 0.097955
5235 1 0.739061 0.479974 0.0990327
1670 2 0.730585 0.486702 0.0967489
1671 1 0.723657 0.491286 0.0960571
10675 1 0.721533 0.492566 0.0961283
5234 3 0.744073 0.47578 0.101246
7912 1 0.725529 0.484725 0.123244
5532 1 0.728116 0.482993 0.124101
10676 3 0.715005 0.496501 0.0956711
5233 1 0.751135 0.471954 0.100966
20301 1 0.754318 0.489244 0.103686
20300 3 0.749679 0.49606 0.10178
452 3 0.769563 0.47211 0.124511
20869 1 0.800418 0.494941 0.0965823
15807 1 0.802573 0.492805 0.0959703
15805 1 0.811589 0.479162 0.0952263
15806 2 0.808905 0.486262 0.0952832
6425 2 0.810599 0.495441 0.123014
12046 1 0.569447 0.370077 0.144814
12047 2 0.568301 0.375436 0.150289
12048 1 0.5681 0.380937 0.155788
15310 1 0.529354 0.437054 0.138178
15311 3 0.527915 0.437855 0.129983
4401 1 0.529818 0.437509 0.140898
19763 3 0.546269 0.425363 0.152992
19764 1 0.545323 0.42667 0.145313
17829 1 0.578546 0.430073 0.129346
6315 1 0.56309 0.41391 0.127536
9925 1 0.562524 0.414508 0.130645
9926 3 0.562454 0.416273 0.138076
9927 1 0.564029 0.416425 0.14609
18235 1 0.565003 0.416697 0.149185
12318 1 0.578511 0.430864 0.132533
12317 3 0.578636 0.433089 0.140446
12316 1 0.578461 0.435554 0.147309
17349 1 0.578387 0.436196 0.150698
18236 3 0.566253 0.416936 0.157384
14702 2 0.598867 0.422795 0.127206
14701 1 0.598201 0.421679 0.135018
4045 1 0.598075 0.421904 0.138345
4046 3 0.598293 0.422153 0.147652
4047 1 0.596962 0.420962 0.156122
15471 1 0.815588 0.428007 0.132967
15470 3 0.809977 0.432942 0.129047
4399 1 0.53125 0.440452 0.155654
4400 2 0.530551 0.439404 0.148227
9030 1 0.545968 0.456622 0.140549
9029 3 0.546532 0.458906 0.14752
9028 1 0.546808 0.461643 0.154924
12279 1 0.556032 0.445009 0.131879
17809 1 0.555287 0.444132 0.134669
17811 1 0.555912 0.439785 0.15122
17810 3 0.554423 0.441694 0.142992
10576 1 0.564665 0.46227 0.146966
10577 3 0.568796 0.461015 0.154136
8428 1 0.556257 0.439433 0.154322
9739 1 0.592853 0.441101 0.141798
9740 3 0.594511 0.445934 0.14778
9741 1 0.594198 0.451418 0.154828
4126 1 0.619074 0.468016 0.128123
5953 1 0.61954 0.465391 0.147188
4128 1 0.619136 0.466114 0.144353
4127 2 0.618997 0.466774 0.136942
5954 3 0.619671 0.463509 0.155231
20681 3 0.664287 0.460881 0.146586
20680 1 0.661987 0.456889 0.153873
12466 1 0.660793 0.455408 0.156317
9292 1 0.655488 0.441589 0.137015
9293 2 0.659115 0.440241 0.143459
17734 1 0.666456 0.439361 0.150893
9294 1 0.664519 0.439295 0.148652
1581 1 0.666463 0.466779 0.136785
20682 1 0.665787 0.465327 0.13955
17735 3 0.671586 0.438758 0.156813
11891 3 0.694107 0.462599 0.154978
11890 1 0.689658 0.468484 0.150497
5158 1 0.7213 0.451696 0.14138
5159 3 0.727543 0.455678 0.13842
5160 1 0.733162 0.457447 0.133867
1457 3 0.748037 0.466288 0.127869
1458 1 0.754374 0.461921 0.128559
4617 1 0.768094 0.448916 0.133933
4616 3 0.761667 0.454186 0.131333
4615 1 0.755989 0.460379 0.129006
3606 1 0.802346 0.440712 0.126612
15469 1 0.804701 0.43837 0.127341
18275 3 0.815712 0.464249 0.142918
18274 1 0.817383 0.458813 0.148139
9211 1 0.817344 0.456238 0.150166
9212 2 0.817947 0.4503 0.155127
14854 1 0.551592 0.489207 0.153707
8551 1 0.560473 0.497275 0.140163
13860 1 0.58092 0.473411 0.133195
21312 1 0.575454 0.478943 0.156591
8552 3 0.563016 0.499877 0.147145
13858 1 0.595494 0.471709 0.126579
13859 2 0.588139 0.471984 0.130805
10284 1 0.593214 0.480922 0.142954
3562 1 0.60235 0.49802 0.134583
10283 2 0.594851 0.481047 0.150025
18477 1 0.60127 0.49771 0.132132
18040 1 0.605974 0.499519 0.153163
3564 1 0.605368 0.499952 0.15049
3563 3 0.604488 0.498912 0.14223
2292 1 0.631304 0.495026 0.137195
15187 1 0.631419 0.495449 0.134168
19260 1 0.646956 0.474134 0.153109
13785 1 0.647342 0.474516 0.150056
13784 3 0.647676 0.475242 0.142485
2291 3 0.631429 0.493874 0.145637
2290 1 0.630677 0.490891 0.152245
10885 1 0.630301 0.489717 0.1543
15188 3 0.631437 0.4963 0.126288
19761 1 0.664294 0.49585 0.140996
12493 1 0.651602 0.497475 0.128818
13783 1 0.649123 0.479382 0.134995
442 1 0.656394 0.492633 0.156705
443 3 0.65165 0.498179 0.156457
1580 3 0.669532 0.471187 0.12989
19760 3 0.669575 0.489275 0.143399
19759 1 0.675171 0.482606 0.144785
2265 1 0.677086 0.479819 0.145149
12604 1 0.662939 0.497969 0.139993
13442 3 0.696278 0.48093 0.128924
15028 1 0.705006 0.474878 0.134546
13443 1 0.702371 0.476463 0.133094
15029 3 0.711955 0.472463 0.137469
2263 1 0.687831 0.470453 0.149139
2264 3 0.681777 0.475079 0.146556
5574 1 0.710291 0.480739 0.157475
8601 1 0.699296 0.493328 0.148124
5572 1 0.701021 0.491269 0.149319
5573 3 0.706097 0.484862 0.15309
8600 3 0.694211 0.498177 0.144403
15030 1 0.718973 0.470461 0.141633
1456 1 0.743499 0.472011 0.127916
5530 1 0.74136 0.474478 0.127714
5531 2 0.734975 0.479186 0.126495
4123 1 0.730385 0.491005 0.148344
4124 2 0.725983 0.497293 0.145752
17176 1 0.731698 0.487885 0.149614
17177 3 0.733083 0.480875 0.152271
17178 1 0.736801 0.476367 0.154891
18286 1 0.73861 0.474601 0.156458
4028 2 0.742848 0.499878 0.127145
4027 1 0.749583 0.494706 0.129026
10623 1 0.751852 0.492579 0.129151
10622 2 0.757699 0.48691 0.128655
2429 2 0.76117 0.492968 0.152094
453 1 0.765219 0.478639 0.127097
10621 1 0.763667 0.480709 0.127749
2428 1 0.765926 0.488006 0.152455
19113 1 0.768854 0.485884 0.152913
19112 2 0.77431 0.480153 0.153573
2430 1 0.755356 0.497994 0.151462
3636 1 0.753865 0.500207 0.150896
19111 1 0.779848 0.475955 0.15448
18276 1 0.814047 0.470517 0.138298
11995 1 0.813307 0.473321 0.136244
11996 3 0.810177 0.47909 0.132214
11997 1 0.809626 0.485807 0.128985
6426 1 0.809972 0.488342 0.12732
11209 1 0.545445 0.396173 0.168897
11211 1 0.529958 0.390488 0.170858
11210 3 0.53756 0.393824 0.170101
20545 1 0.568448 0.382544 0.158672
15512 2 0.562604 0.394931 0.184274
15513 1 0.565153 0.39057 0.177086
20547 1 0.566124 0.389431 0.174046
20546 3 0.568544 0.386474 0.165692
5504 3 0.592185 0.395902 0.176739
5505 1 0.591029 0.397308 0.183643
1771 1 0.590717 0.398009 0.186528
5503 1 0.594067 0.393439 0.168938
16507 1 0.634147 0.40672 0.17035
14118 1 0.652021 0.401537 0.180872
14117 3 0.648572 0.401021 0.187003
19762 1 0.547501 0.425232 0.16042
13378 1 0.548189 0.412025 0.162278
13379 3 0.549188 0.413709 0.170336
8332 1 0.550754 0.417327 0.180517
13380 1 0.550184 0.416443 0.177612
17348 3 0.579282 0.437821 0.158863
5655 1 0.574579 0.420252 0.185362
18237 1 0.56811 0.417875 0.16436
7728 1 0.573082 0.420026 0.182576
7727 2 0.570342 0.419707 0.175021
7726 1 0.568744 0.417832 0.167431
8333 2 0.553065 0.418626 0.188292
966 1 0.596478 0.420779 0.159233
965 3 0.595599 0.423215 0.166195
964 1 0.594626 0.425586 0.174127
7038 1 0.594738 0.426394 0.176781
7037 3 0.595689 0.42877 0.184745
16509 1 0.623685 0.410542 0.18125
5497 1 0.621716 0.410872 0.183422
16508 2 0.629905 0.410085 0.175798
16201 1 0.641247 0.43347 0.182229
16202 2 0.638142 0.430689 0.188912
8615 2 0.825855 0.436492 0.163835
8616 1 0.829853 0.430684 0.167345
3308 2 0.523105 0.466865 0.18812
3417 1 0.531408 0.440805 0.158045
3416 3 0.532843 0.441387 0.165325
3415 1 0.534556 0.443686 0.171491
8035 1 0.546893 0.462122 0.157827
14723 2 0.537434 0.44797 0.181173
8037 1 0.545927 0.464939 0.174962
8036 2 0.545576 0.463028 0.166121
7530 1 0.546349 0.465727 0.178554
14724 1 0.535164 0.444578 0.174243
7529 2 0.546776 0.466705 0.186391
8429 3 0.556679 0.439732 0.163116
8430 1 0.556858 0.440096 0.17141
15182 2 0.557513 0.439536 0.182789
15183 1 0.557239 0.439664 0.174442
17347 1 0.580069 0.438204 0.166834
3057 1 0.579819 0.438357 0.169628
3056 2 0.57926 0.439527 0.17728
3055 1 0.57798 0.441481 0.183831
7510 1 0.577403 0.441711 0.186812
10578 1 0.56992 0.460731 0.161086
7191 1 0.569973 0.460654 0.164112
7190 2 0.570438 0.460214 0.172006
7189 1 0.571748 0.461881 0.179841
17574 1 0.572028 0.462715 0.182831
4865 2 0.612944 0.442938 0.175727
4864 1 0.612664 0.440924 0.183207
11310 1 0.612787 0.440456 0.186514
4866 1 0.611953 0.445234 0.168392
6972 1 0.593833 0.453582 0.157809
6971 2 0.591363 0.457384 0.164841
6970 1 0.589968 0.458012 0.172328
4116 1 0.589982 0.458232 0.17515
4115 2 0.590886 0.459056 0.182886
9536 2 0.61422 0.464414 0.17293
9535 1 0.612347 0.463832 0.180147
15811 1 0.612011 0.462937 0.183688
9537 1 0.617352 0.465474 0.165938
5955 1 0.617989 0.464967 0.162852
21499 1 0.630003 0.459125 0.175489
21500 2 0.632633 0.456218 0.182958
12467 2 0.658068 0.451171 0.1634
18516 1 0.655007 0.442388 0.187823
18515 3 0.6558 0.444972 0.1811
12468 1 0.657862 0.447503 0.170355
18514 1 0.657156 0.44678 0.173015
13940 2 0.670381 0.457947 0.186793
13941 1 0.671974 0.461029 0.179615
3478 1 0.672582 0.46187 0.175652
3479 3 0.674337 0.463179 0.168369
12442 1 0.676731 0.440369 0.165381
17736 1 0.674982 0.439942 0.163287
3480 1 0.676308 0.463251 0.161202
9839 2 0.698181 0.44628 0.163417
11892 1 0.6956 0.455886 0.157823
9840 1 0.69606 0.453486 0.159013
9838 1 0.701471 0.438594 0.164958
12443 2 0.680419 0.440683 0.172318
18425 3 0.707096 0.469104 0.16978
18426 1 0.701256 0.465441 0.173407
10343 2 0.694847 0.460327 0.180855
10342 1 0.699271 0.463979 0.175218
12444 1 0.684595 0.441518 0.179819
10344 1 0.691751 0.458358 0.186764
8498 2 0.737901 0.451958 0.187213
18321 1 0.759414 0.459926 0.180786
18288 1 0.749411 0.467503 0.165918
18319 1 0.750908 0.466347 0.168109
18320 2 0.754991 0.462479 0.174397
8497 1 0.745612 0.453719 0.186486
8614 1 0.820975 0.441467 0.161286
9213 1 0.819533 0.443496 0.160008
83 2 0.534794 0.482039 0.175133
82 1 0.537835 0.483547 0.182751
14271 1 0.538725 0.484122 0.185137
84 1 0.533082 0.483229 0.16703
3594 1 0.549072 0.500452 0.187693
14855 2 0.552759 0.486302 0.160583
14856 1 0.555787 0.484226 0.167198
17881 1 0.556686 0.482782 0.170155
17882 2 0.558782 0.481481 0.177332
21311 2 0.577584 0.477881 0.164023
21310 1 0.579563 0.478838 0.17178
20918 2 0.581983 0.480035 0.182289
17883 1 0.559916 0.482003 0.185524
20919 1 0.580717 0.479171 0.174649
939 1 0.560331 0.48233 0.188532
19867 1 0.58721 0.500434 0.161913
16141 1 0.587958 0.499902 0.164977
16143 1 0.590417 0.498553 0.180493
5278 1 0.609857 0.496917 0.171935
10282 1 0.597617 0.481787 0.158353
1872 1 0.598126 0.481362 0.161577
1871 2 0.599333 0.480604 0.168632
1870 1 0.601163 0.480043 0.176788
5279 2 0.610859 0.495963 0.18003
4117 1 0.601979 0.479619 0.179973
18042 1 0.608866 0.49759 0.168797
1611 1 0.590917 0.498321 0.183463
5280 1 0.613022 0.494252 0.18742
4118 2 0.603492 0.478026 0.186502
18041 2 0.60785 0.498759 0.161349
16142 2 0.588753 0.499737 0.172835
830 3 0.645085 0.499523 0.176715
19259 3 0.645339 0.471929 0.160512
4789 1 0.646821 0.471989 0.171809
19258 1 0.646269 0.471516 0.168419
7019 2 0.626117 0.482462 0.180753
7018 1 0.62704 0.483263 0.172604
10887 1 0.627009 0.483945 0.169442
10886 3 0.628879 0.485683 0.162004
5862 1 0.643638 0.494565 0.185916
831 1 0.643907 0.496094 0.183401
7020 1 0.626698 0.480036 0.188571
17551 1 0.673649 0.489138 0.162604
4790 2 0.649058 0.472244 0.179823
4791 1 0.648492 0.470121 0.188557
17552 3 0.670916 0.487573 0.170195
17553 1 0.668218 0.485997 0.176201
6384 1 0.66691 0.484934 0.179247
6383 2 0.665464 0.483222 0.186635
3686 3 0.679866 0.496818 0.186491
8156 3 0.709035 0.499906 0.188223
10461 1 0.689489 0.497594 0.167167
1505 2 0.702665 0.47771 0.188316
9511 1 0.691339 0.494771 0.168954
9512 3 0.695051 0.488827 0.174162
9513 1 0.698805 0.483985 0.180074
1506 1 0.700364 0.482266 0.182338
15454 1 0.682828 0.47692 0.186363
3685 1 0.68117 0.498585 0.178185
18287 3 0.743882 0.471065 0.160014
18424 1 0.712799 0.472322 0.165709
3131 3 0.714653 0.497559 0.167105
3948 1 0.720123 0.490424 0.172922
3947 2 0.72291 0.485355 0.177487
3946 1 0.723608 0.479451 0.183583
3132 1 0.718386 0.492447 0.171327
13146 1 0.724085 0.477267 0.185639
2889 1 0.775382 0.479159 0.167678
5291 2 0.751037 0.49395 0.172844
5290 1 0.757139 0.490196 0.176227
5292 1 0.744663 0.499145 0.170325
2888 2 0.777417 0.480726 0.17581
20496 1 0.798275 0.492245 0.166298
18279 1 0.800971 0.490672 0.166372
20495 2 0.791112 0.495822 0.167252
2887 1 0.780819 0.482383 0.182429
10678 1 0.806007 0.484513 0.187627
10679 2 0.799144 0.489715 0.18831
10680 1 0.792921 0.495991 0.186402
20494 1 0.783466 0.49867 0.167695
2886 1 0.791143 0.498224 0.186157
13716 1 0.780953 0.500067 0.167389
17584 1 0.829044 0.470066 0.171032
18278 3 0.808525 0.486229 0.165279
17585 3 0.822421 0.474355 0.16771
17586 1 0.816462 0.478871 0.164964
18277 1 0.814347 0.480849 0.16504
8725 1 0.821826 0.47433 0.187926
8727 1 0.808354 0.482642 0.188021
8726 3 0.814596 0.478024 0.188916
15769 1 0.54345 0.399356 0.212466
15770 3 0.542964 0.402877 0.219997
15511 1 0.563076 0.398398 0.190791
5838 1 0.563053 0.399687 0.193716
5837 2 0.563126 0.402768 0.201837
5836 1 0.5633 0.405989 0.209603
1772 2 0.589356 0.400378 0.19482
1773 1 0.587736 0.402304 0.202606
16348 1 0.587406 0.402992 0.204928
16349 2 0.584874 0.405049 0.212021
15060 1 0.609518 0.390426 0.207201
15059 2 0.6081 0.390813 0.215413
14116 1 0.642313 0.399724 0.193281
14949 1 0.639448 0.400359 0.195207
14947 1 0.628807 0.406089 0.205442
14948 2 0.63303 0.402698 0.199924
2434 1 0.626897 0.406398 0.208032
2435 2 0.624354 0.406484 0.215188
11395 1 0.523141 0.431125 0.194817
15922 1 0.520444 0.431647 0.192949
11396 2 0.529172 0.430308 0.199038
11397 1 0.534872 0.431959 0.20405
16674 1 0.535953 0.433046 0.206152
16673 2 0.53645 0.435465 0.214101
4644 1 0.563354 0.407352 0.212938
4643 2 0.564414 0.408871 0.22011
19353 1 0.557995 0.426921 0.213888
8334 1 0.554825 0.419795 0.197024
19351 1 0.555639 0.420367 0.19979
19352 2 0.55763 0.423406 0.207338
21507 1 0.558244 0.428781 0.216291
269 2 0.579223 0.424883 0.210006
5654 2 0.576529 0.42096 0.193312
5653 1 0.578029 0.422888 0.200736
270 1 0.578215 0.423318 0.203444
268 1 0.580718 0.424878 0.217817
5498 2 0.616224 0.412943 0.189109
7036 1 0.594921 0.430972 0.191503
3916 1 0.594803 0.43195 0.194227
5499 1 0.61127 0.414893 0.195453
6228 1 0.609701 0.415856 0.19779
6227 2 0.606044 0.418125 0.204612
6226 1 0.604015 0.418058 0.211759
2833 1 0.602924 0.418475 0.214754
3917 2 0.594848 0.435207 0.201076
21152 2 0.616203 0.434754 0.211863
21153 1 0.615265 0.435501 0.203732
11308 1 0.61502 0.436433 0.201375
21151 1 0.615331 0.43338 0.219519
7203 1 0.636075 0.426716 0.19719
7202 2 0.636588 0.425721 0.205375
7201 1 0.63673 0.425191 0.213986
7966 1 0.63685 0.424703 0.217222
16203 1 0.636374 0.427358 0.19463
16708 1 0.65269 0.41385 0.209405
21384 1 0.673624 0.431361 0.212363
21383 2 0.672043 0.432485 0.204248
21382 1 0.670539 0.43169 0.196165
8566 1 0.673634 0.430619 0.215405
16709 2 0.653525 0.413177 0.217256
6087 1 0.652679 0.437018 0.204539
19250 2 0.652549 0.435596 0.215862
19249 1 0.652317 0.436596 0.207618
14722 1 0.53841 0.449618 0.189157
20082 1 0.538716 0.450322 0.192483
20081 2 0.537898 0.451619 0.199892
20080 1 0.535269 0.453899 0.207492
9752 2 0.534383 0.456135 0.217712
9751 1 0.534942 0.454792 0.210272
7528 1 0.548291 0.466873 0.194044
14533 1 0.548531 0.467515 0.196635
3309 1 0.525756 0.467758 0.19552
243 1 0.526384 0.468139 0.198107
14534 2 0.548759 0.468781 0.204184
771 1 0.555004 0.446509 0.208476
13555 1 0.554817 0.448018 0.211366
15181 1 0.557152 0.440706 0.190452
7511 2 0.576286 0.443117 0.194454
770 2 0.556277 0.442745 0.201635
769 1 0.557023 0.441032 0.193518
7512 1 0.575848 0.444565 0.20175
10830 1 0.575709 0.445392 0.20469
10829 2 0.575547 0.446232 0.212018
17573 2 0.571375 0.46429 0.190484
17572 1 0.570424 0.46599 0.199021
9465 1 0.570182 0.466121 0.201942
9464 2 0.570033 0.465951 0.209387
10828 1 0.574877 0.445961 0.220395
9463 1 0.569764 0.468181 0.217025
13556 2 0.554026 0.451107 0.218755
16638 1 0.569748 0.468846 0.220084
11309 2 0.613674 0.438917 0.193476
15812 2 0.612108 0.461189 0.191935
3918 1 0.595129 0.438652 0.208342
2314 1 0.59464 0.439825 0.21149
4114 1 0.590717 0.460081 0.190441
932 2 0.589637 0.459473 0.201837
931 1 0.590294 0.460491 0.19379
15813 1 0.612034 0.458539 0.199048
15615 1 0.612016 0.457646 0.201064
15614 2 0.611431 0.454658 0.208357
933 1 0.588227 0.461086 0.209459
8434 1 0.587473 0.461649 0.212434
2315 2 0.594465 0.441913 0.218884
8435 2 0.58735 0.463156 0.220289
15613 1 0.611254 0.45339 0.216146
4620 1 0.611854 0.453137 0.219196
17436 1 0.648142 0.469347 0.191171
21501 1 0.632524 0.453412 0.1906
20508 1 0.632868 0.452532 0.193966
20507 2 0.631473 0.450848 0.202372
20506 1 0.631624 0.448788 0.210455
9804 1 0.6316 0.448066 0.214131
3347 2 0.647049 0.460942 0.21537
3346 1 0.646562 0.463226 0.208318
4197 1 0.627649 0.469408 0.209759
17435 2 0.647978 0.466766 0.198341
17434 1 0.64707 0.464252 0.205751
4196 2 0.627224 0.466888 0.217878
6085 1 0.654383 0.440958 0.190205
13939 1 0.668701 0.455996 0.194963
6086 2 0.654623 0.438693 0.197022
17113 1 0.668459 0.456115 0.197802
17114 2 0.667779 0.455328 0.20546
17115 1 0.667321 0.45445 0.213701
10303 1 0.667157 0.454101 0.216916
16582 1 0.690952 0.457384 0.189073
16583 2 0.690769 0.453951 0.196851
16584 1 0.689489 0.451562 0.204138
13728 1 0.689208 0.450878 0.206704
8174 2 0.711344 0.450861 0.209301
12226 1 0.708895 0.468455 0.216159
13727 2 0.689011 0.448949 0.214969
8175 1 0.705455 0.455909 0.208283
20668 1 0.681852 0.468441 0.219682
10315 1 0.714295 0.445206 0.194847
10316 2 0.721157 0.446649 0.192235
8173 1 0.716377 0.445803 0.210694
10317 1 0.72842 0.449031 0.189986
8499 1 0.730881 0.450052 0.18942
6656 2 0.728885 0.463187 0.208108
6657 1 0.727763 0.46229 0.215701
6655 1 0.728079 0.46661 0.201384
13144 1 0.727548 0.468576 0.198883
4470 1 0.757383 0.456565 0.194068
4469 2 0.75518 0.464036 0.19551
17398 1 0.773736 0.466264 0.21821
11716 1 0.788809 0.466484 0.207991
9553 1 0.787344 0.469405 0.20732
11718 1 0.793349 0.452182 0.213358
11717 2 0.792439 0.460166 0.211129
15891 1 0.521549 0.496322 0.218125
14535 1 0.549614 0.469941 0.211558
14270 2 0.539159 0.485963 0.193076
241 1 0.527625 0.471308 0.213758
14269 1 0.539702 0.486764 0.200507
19810 1 0.527291 0.472153 0.216496
17063 2 0.541964 0.488814 0.211619
17062 1 0.54056 0.487121 0.203977
17064 1 0.54424 0.492887 0.218869
242 2 0.527393 0.469602 0.205639
2278 1 0.54984 0.470212 0.21487
6568 1 0.55152 0.497866 0.195203
5697 1 0.520381 0.495381 0.215305
20917 1 0.581672 0.481875 0.189839
938 2 0.561332 0.483626 0.197306
937 1 0.562872 0.484494 0.204364
11023 1 0.563169 0.485128 0.207242
11024 2 0.563817 0.487056 0.215098
3631 1 0.582066 0.481772 0.192807
3632 2 0.583772 0.480005 0.199721
3633 1 0.584063 0.481798 0.209026
14101 1 0.583849 0.482467 0.211943
19400 2 0.597049 0.497367 0.20913
19399 1 0.595146 0.497445 0.202213
6591 1 0.60071 0.497512 0.219317
4119 1 0.605159 0.477208 0.194739
10056 1 0.605529 0.476713 0.197627
10055 2 0.605742 0.476415 0.206698
10054 1 0.605795 0.476446 0.214848
19401 1 0.599668 0.497031 0.21645
21394 1 0.613566 0.493988 0.190047
21395 2 0.615054 0.493215 0.198106
14102 2 0.584283 0.483153 0.220445
19210 1 0.60554 0.476554 0.21811
1609 1 0.594121 0.497114 0.199758
1610 2 0.591697 0.497069 0.191418
5861 2 0.641979 0.491093 0.192768
19929 1 0.628348 0.470788 0.206894
19928 2 0.627912 0.47414 0.199031
21396 1 0.617908 0.491216 0.205807
19927 1 0.627002 0.478732 0.191633
2445 1 0.618941 0.490822 0.208458
5860 1 0.641642 0.487423 0.200601
11289 1 0.641575 0.486482 0.203967
11288 2 0.641613 0.48462 0.211418
11287 1 0.642287 0.482357 0.219638
2444 2 0.619644 0.490729 0.215558
2567 2 0.656461 0.498238 0.215317
2568 1 0.658192 0.49984 0.207227
6382 1 0.6635 0.483 0.19362
13018 1 0.66268 0.483088 0.197114
13019 2 0.662081 0.480801 0.20408
13020 1 0.662866 0.478328 0.21161
5851 1 0.663409 0.477436 0.214157
7851 1 0.678656 0.493633 0.216303
2284 1 0.678475 0.494103 0.213804
2285 2 0.6785 0.494549 0.206518
2286 1 0.679033 0.495608 0.197666
3687 1 0.679276 0.496055 0.194598
8331 1 0.658594 0.500647 0.204632
18732 1 0.708391 0.469664 0.213705
20669 2 0.682095 0.469723 0.212516
18730 1 0.70415 0.474322 0.198518
1504 1 0.703768 0.475021 0.195485
18731 2 0.70567 0.472644 0.206349
20670 1 0.681074 0.472523 0.204852
15456 1 0.68136 0.474 0.201749
15455 2 0.682161 0.47613 0.194749
15534 1 0.715419 0.49403 0.194738
13145 2 0.724919 0.47243 0.192647
15533 2 0.71937 0.489264 0.20021
15532 1 0.724684 0.483575 0.204251
8546 2 0.737095 0.495577 0.194239
8547 1 0.742485 0.489312 0.195698
8155 1 0.713777 0.495439 0.19304
20260 1 0.744402 0.486994 0.196164
402 1 0.765423 0.49757 0.196086
401 2 0.771145 0.491969 0.19813
20261 2 0.749543 0.481224 0.198192
20262 1 0.751953 0.473621 0.197001
4468 1 0.75266 0.471354 0.196565
4498 1 0.763038 0.499403 0.194929
400 1 0.776459 0.485562 0.200374
9555 1 0.778531 0.483412 0.201581
9554 3 0.783397 0.476749 0.204851
19246 1 0.83863 0.472062 0.218435
19248 1 0.826424 0.481551 0.211749
6906 1 0.824556 0.483363 0.211343
19247 3 0.832936 0.47714 0.213663
6905 2 0.819786 0.488618 0.210413
15100 1 0.811094 0.495968 0.208623
6904 1 0.813588 0.493574 0.209006
21407 2 0.578541 0.402301 0.249342
18267 1 0.580622 0.403105 0.239009
16350 1 0.583663 0.405281 0.220663
18265 1 0.582988 0.405356 0.223672
18266 2 0.581104 0.404008 0.231419
21406 1 0.580006 0.402692 0.241943
15058 1 0.606624 0.391362 0.223159
7903 1 0.603509 0.391557 0.243905
18722 2 0.605492 0.391392 0.233232
18721 1 0.606186 0.391523 0.226158
18723 1 0.604278 0.391634 0.241336
7904 3 0.599492 0.391298 0.251455