ITEM: TIMESTEP
40000000
ITEM: NUMBER OF ATOMS
6156
ITEM: BOX BOUNDS pp pp pp
0.0000000000000000e+00 5.0000000000000000e+01
0.0000000000000000e+00 5.0000000000000000e+01
0.0000000000000000e+00 5.0000000000000000e+01
ITEM: ATOMS id type vx vy vz 
16478 2 2.94233 -2.73885 0.374448 
14579 3 2.17434 -3.79568 -1.44965 
14580 1 -0.103795 4.46665 -2.11871 
16743 1 3.70659 -1.48228 0.678769 
16741 1 -4.88715 1.83557 3.77435 
16742 3 3.10111 -0.433773 3.06428 
21190 1 4.68161 0.0613429 -5.41091 
13850 2 -2.08527 -0.290702 1.35892 
13849 1 1.58749 -6.79917 -3.24159 
1555 1 -1.79452 1.0744 -2.99022 
1556 3 0.02546 0.970773 -0.774854 
1557 1 1.21622 2.18299 -3.05907 
10081 1 6.41901 -0.429603 2.76818 
13851 1 3.23109 5.94016 -0.719724 
16477 1 -3.38392 -0.628439 4.29593 
7423 1 0.345842 -6.3181 -0.0678011 
12699 1 1.0731 -0.231908 4.99631 
16973 3 2.05852 1.547 -0.411402 
16972 1 0.372364 3.03544 0.703731 
12698 2 0.968009 2.14385 -1.26632 
16974 1 -0.111381 3.0035 1.94926 
17032 1 0.271069 1.73695 -1.24063 
15179 2 1.30153 2.22318 2.90099 
15180 1 -3.57938 -0.183894 -3.39687 
3900 1 -1.64024 -1.52694 -8.49552 
15178 1 -2.27481 -3.70399 0.397692 
11590 1 -1.54291 -4.36435 -0.855414 
11591 2 -0.330432 -0.235036 -0.716052 
11592 1 -4.67464 6.01863 -0.419354 
2275 1 -1.57147 -2.61449 6.42231 
12097 1 1.75922 -1.24758 -2.90932 
3281 2 -2.42425 0.145626 4.18175 
3282 1 -2.54419 2.30134 -1.00617 
17033 2 -2.43315 4.49015 -1.17877 
17034 1 3.68314 0.00778172 -4.09303 
12098 2 -0.25208 1.27068 4.86166 
3280 1 -2.10678 -2.80143 2.19842 
15924 1 -2.05766 -2.27167 5.20792 
3307 1 -2.37929 -4.33129 4.34065 
1821 1 -1.37063 9.06158 -1.90225 
14869 1 1.45944 -4.73826 -5.07221 
14870 2 0.289762 -1.34069 -2.13391 
14871 1 -2.08989 0.281395 3.69598 
10984 1 0.881658 -5.54359 0.916571 
15923 3 0.511904 3.70225 2.90658 
9061 1 -1.23185 -3.04652 -1.38281 
9062 3 -2.25084 0.0885015 -2.00929 
9063 1 4.36145 -3.08637 -0.598644 
6918 1 1.94947 -2.14432 5.98026 
6917 2 1.4284 -3.85518 -0.12203 
9773 2 1.28082 -2.66217 -1.78467 
9772 1 1.04491 -2.29005 -1.32264 
9774 1 -3.23537 2.34531 -6.36799 
16266 1 4.31053 -2.29975 4.88647 
6916 1 -0.176213 0.625259 -1.65587 
7152 1 -3.32079 3.42684 0.933647 
1819 1 2.03226 1.24569 4.82544 
5695 1 1.65274 -2.69202 -2.40359 
1820 2 -1.22989 0.441263 1.26491 
5696 2 -5.84845 -1.49228 -6.15203 
7151 2 2.61481 -2.71629 -0.0174246 
13287 1 4.98846 -5.46281 -2.23443 
13285 1 -1.04846 8.47531 2.50849 
7150 1 2.90746 2.08389 -3.33298 
298 1 4.19435 -6.64466 -2.06183 
4023 1 -3.57753 3.51951 -1.15796 
299 3 -1.21661 4.27635 -1.83493 
13286 2 2.56007 -7.55747 -3.47946 
7833 1 -0.375013 -4.69524 1.08762 
7832 2 0.618974 1.64552 3.50664 
17629 1 2.4016 -6.18602 3.00483 
15241 1 -1.31159 -3.76455 6.50664 
15243 1 3.55142 2.1751 -3.13423 
15242 2 1.51498 0.125232 -2.53029 
16265 2 -1.7027 -0.554824 -1.1844 
900 1 -4.14714 -1.31349 -4.41556 
7831 1 0.335657 -1.25669 3.52438 
16264 1 -4.18096 1.63073 -5.77233 
1281 1 -3.4608 4.51486 -4.33039 
3262 1 1.02812 -2.28543 4.52527 
898 1 4.54462 2.74051 -1.28838 
899 2 -2.44049 6.79486 -0.730827 
1280 2 1.83401 -0.861291 -2.57912 
1279 1 -0.223707 0.777964 2.26616 
4210 1 0.833805 -0.149806 -1.66486 
4211 2 -1.09681 0.761174 2.76115 
10426 1 -0.741564 -3.37642 4.01896 
300 1 -0.867104 0.618171 4.70052 
11509 1 -1.28464 -2.89073 6.65319 
11510 2 -0.115271 -2.88978 -2.14651 
11511 1 -1.70921 -2.5545 -1.20188 
9242 2 3.08937 -2.89005 -3.31938 
9241 1 -4.27931 -0.982354 -0.967603 
21511 1 -3.33231 -0.623461 1.22422 
21512 2 -2.9226 -4.10154 -0.695914 
21513 1 -0.150051 0.133732 -0.949342 
3264 1 4.14223 5.20129 -0.330185 
3263 2 -0.88979 0.409277 -5.60334 
13756 1 0.32042 0.89451 -4.06391 
4803 1 2.47895 1.25742 2.27158 
9243 1 -2.68958 -7.93642 3.23518 
4212 1 -3.71919 6.79458 -1.97416 
11874 1 -2.04475 0.106931 0.0586878 
10428 1 -0.802378 -0.731215 -1.31714 
10427 2 0.955037 -2.53527 -0.157521 
19657 1 0.907268 3.30617 -2.80172 
19658 2 2.67213 -1.5023 -0.0530064 
19659 1 4.89185 -2.00741 -4.22251 
11873 2 0.270881 -3.50754 0.64946 
11872 1 0.277769 2.02502 2.82534 
6052 1 1.78018 -2.37066 2.43554 
4159 1 -1.4639 -2.07269 -5.06086 
4160 2 0.357618 -0.0208515 0.920918 
6053 2 1.22647 -0.111091 -0.130194 
20337 1 -3.74357 -2.27626 -3.4927 
4161 1 2.96215 6.0276 2.25381 
20336 2 -0.512208 -1.55436 -2.86643 
7663 1 -2.14938 5.5349 -0.462738 
20866 1 2.05795 -1.75145 -0.932049 
19018 1 -5.05489 -0.0337326 1.12784 
20867 2 -2.179 -1.16164 -1.42594 
7665 1 -2.20378 -0.240251 1.79949 
7664 2 -0.753685 -2.67568 0.137461 
20868 1 -1.7652 1.05652 3.90244 
9099 1 -1.95228 -1.92429 -3.84565 
13800 1 5.85701 -6.74598 7.8 
13799 2 0.299493 -3.58942 -3.29443 
13798 1 0.660319 -2.79728 -0.195594 
8176 1 -0.821421 -1.25389 0.924819 
12951 1 0.666158 -4.27845 3.12192 
12949 1 5.33458 -1.17648 -4.42691 
6054 1 1.18755 2.00633 -4.67049 
12950 2 -1.19414 -1.35449 -3.13127 
20335 1 -3.96032 2.56206 0.106616 
2761 1 -0.358777 -2.99245 -4.39695 
8178 1 -1.9072 -1.24883 0.239035 
8177 2 -1.19709 0.428949 4.0799 
3379 1 -0.916466 0.648099 -2.90769 
9059 3 0.5417 3.00206 5.27605 
9058 1 3.85486 3.35373 1.38974 
3880 1 -1.93686 -7.29178 -2.40769 
1356 1 -10.7562 2.81056 -0.442171 
3881 2 -0.911341 1.46603 -2.01669 
3882 1 -1.72852 6.52035 -8.19894 
9060 1 -2.92599 5.06098 2.46652 
501 1 2.99048 -11.4875 4.86518 
12376 1 -0.0621818 3.06939 -0.850561 
500 3 -1.23779 -1.08571 -3.06556 
12377 2 -0.42378 -0.851786 2.14735 
499 1 -6.27188 -2.89584 -0.895395 
12378 1 -0.313131 -1.94318 -2.34091 
10868 3 2.12271 1.90998 1.29926 
10869 1 4.2216 -3.71999 3.88996 
8404 1 -4.37663 -0.791692 0.937254 
3247 1 0.261341 2.61802 -0.441767 
3248 2 -2.13622 1.05359 3.55907 
8405 2 0.105065 -2.21091 -0.668363 
8406 1 2.06459 -3.04913 -0.128913 
21192 1 0.767156 0.468398 -0.214916 
21191 2 0.503784 3.66187 -1.81087 
3249 1 -1.16291 -1.39358 1.31828 
17465 3 -0.913681 4.50169 1.12862 
17464 1 -2.47769 2.29801 -4.08116 
16291 1 0.264774 -1.72979 -0.733509 
17919 1 -8.43047 2.32013 1.68139 
17918 2 0.0786859 0.271788 -3.24139 
16292 3 -2.14157 1.72856 3.15984 
9913 1 -0.0741067 3.03347 2.9527 
14049 1 3.40272 0.680183 5.49042 
14048 3 -4.64146 -2.19618 0.467363 
9914 2 1.90299 3.80768 0.603724 
9915 1 -3.65089 6.60797 3.26574 
17917 1 1.67406 0.705768 -5.36607 
14047 1 1.02097 3.56273 -0.510086 
15667 1 3.27728 -1.33467 -3.75657 
15668 3 -2.87371 -1.02184 1.67477 
15669 1 -3.85613 1.25162 1.94476 
11893 1 -5.66993 -1.82292 2.47878 
11894 3 -0.904769 -1.59457 6.18921 
12840 1 1.83417 -0.971573 -1.38375 
12839 3 -0.230536 3.99637 0.399427 
11895 1 -1.50521 0.235689 -1.93017 
16890 1 -0.934308 -1.21024 -4.56372 
16889 3 -7.33123 -3.56137 2.84701 
7971 1 -1.30628 0.592121 5.60182 
16888 1 -1.91505 -3.09067 -2.56193 
7970 3 4.23071 -6.60412 1.27396 
8657 2 1.00179 -2.49248 0.103197 
8656 1 1.08346 -3.76112 -1.18733 
8658 1 1.58591 -5.02142 1.90684 
15312 1 -2.49046 -3.09997 -3.22295 
2277 1 0.961934 1.6316 -8.18717 
17828 2 1.72036 0.450754 -0.00815169 
17827 1 5.46017 -1.95664 -3.28748 
6313 1 -6.33807 -4.04512 1.86932 
6314 2 1.29381 1.37836 -4.172 
14703 1 1.55668 -0.0941776 6.02568 
2276 2 1.40479 -1.45947 -0.573642 
12277 1 -0.830651 -2.55712 0.78173 
12278 2 -6.78588 0.227105 4.11454 
13829 3 0.505098 -1.697 0.941536 
13828 1 -4.75993 -1.38016 -0.496678 
8539 1 -0.0554252 -4.71711 3.36521 
8540 2 -0.34509 -2.82308 -0.529253 
8541 1 -2.1482 0.00900466 5.21023 
2253 1 -9.3663 0.296094 9.25125 
13830 1 2.06551 -0.863399 -4.55211 
2251 1 7.08771 -5.20427 -7.49191 
2252 3 1.1968 -0.828228 1.3888 
451 1 -3.20962 0.0662031 0.575664 
3605 2 0.867932 2.23452 -3.6422 
5073 1 -2.58928 2.15477 -0.702455 
3604 1 -7.42102 -1.98539 3.81336 
5071 1 3.49205 -3.80234 0.832625 
5072 3 5.18937 -3.08292 -0.544703 
6237 1 1.35289 -5.73517 -1.03457 
6236 2 -2.08565 -5.28647 -3.33091 
6235 1 1.85413 3.36235 -4.43231 
16480 1 2.49374 -1.40131 2.46344 
18475 1 -3.51709 -1.32474 0.408112 
18476 2 -5.44161 1.95118 -0.155902 
7906 1 1.39998 4.03942 4.87673 
16482 1 -1.36823 -0.377605 -7.73946 
16481 3 -0.391985 1.45654 3.11444 
7908 1 11.4136 2.54438 -1.86269 
15189 1 -4.74149 2.28722 -5.82675 
7907 3 -0.389061 -0.514768 3.87036 
12494 3 -4.08389 -2.29417 -1.12146 
13035 1 1.20241 -0.62254 -0.0574681 
13034 3 -3.15993 -0.872679 1.03453 
13033 1 -2.02277 2.40066 -1.50587 
12495 1 -0.898684 -1.78372 -0.968636 
1579 1 -2.12152 -5.01179 1.049 
17371 1 5.57302 9.30866 1.85173 
6580 1 -0.372135 5.08032 -6.34841 
6581 3 2.08555 -1.77198 -0.261247 
1728 1 -7.51474 1.94954 4.80462 
6582 1 -0.900542 5.28554 -2.03402 
17372 3 -2.85595 3.78147 -1.61961 
8709 1 0.385001 5.19213 -1.15675 
11152 1 -5.77761 -0.374633 -0.121481 
11153 3 1.6194 2.80869 -1.37634 
11154 1 -2.74455 3.49267 0.944407 
19175 3 2.59509 -0.289189 -2.47165 
19174 1 -0.0803011 4.37456 -7.83278 
17373 1 4.96003 -4.55122 -0.423475 
13441 1 0.907424 7.42563 -3.76988 
7914 1 -1.34661 2.29505 2.10901 
19176 1 0.887363 1.06998 0.208819 
7913 3 -0.759929 -0.039799 -3.11214 
1669 1 -3.19915 -8.00445 4.75439 
5235 1 2.4491 -8.25634 3.32231 
1670 2 -6.3554 -2.22371 1.72929 
1671 1 1.84574 -2.08651 3.48754 
10675 1 -9.17561 -0.896709 -5.11931 
5234 3 3.54042 1.80039 0.140348 
7912 1 4.82424 -4.55586 -2.40026 
5532 1 -5.21185 -3.23673 -0.251573 
10676 3 0.590881 -1.16248 2.65633 
5233 1 -3.43371 -0.402908 1.99301 
20301 1 -0.0855324 0.847761 -6.73189 
20300 3 0.208169 -4.35015 0.462749 
452 3 -2.38635 0.585224 -3.47785 
20869 1 -5.44699 -6.92593 7.01572 
15807 1 -0.193816 -0.877828 1.98736 
15805 1 2.26206 -0.185146 -2.71276 
15806 2 -2.29893 4.11602 -1.51694 
6425 2 3.94997 1.8617 -5.65328 
12046 1 -0.730653 4.5482 2.01102 
12047 2 1.04744 0.790728 -3.3097 
12048 1 -1.28736 -4.28192 -3.10699 
15310 1 1.13134 -0.496883 5.27526 
15311 3 0.458727 -0.833029 2.86939 
4401 1 -1.9417 0.0081921 0.170332 
19763 3 -0.703763 2.13238 3.07817 
19764 1 3.07036 2.91531 -0.767726 
17829 1 4.42952 -1.69364 6.07106 
6315 1 -1.05187 -4.74208 -2.63265 
9925 1 4.57005 -10.4914 -2.127 
9926 3 2.37008 -1.82707 0.849592 
9927 1 0.692253 3.37458 0.874452 
18235 1 -0.461796 -0.377567 4.35579 
12318 1 1.25978 1.80638 3.87209 
12317 3 -2.53211 1.8761 1.2435 
12316 1 -3.27023 3.45914 -0.880956 
17349 1 0.392048 0.775039 -0.67116 
18236 3 0.976552 -1.51115 1.05161 
14702 2 -0.199491 6.01338 -1.86223 
14701 1 -1.84755 1.90818 2.94563 
4045 1 1.95068 -2.67668 -3.13899 
4046 3 -0.741684 3.82986 -1.74466 
4047 1 0.173717 -2.37642 -2.63923 
15471 1 -4.50878 3.45604 -1.64546 
15470 3 -0.243849 2.55292 -2.0993 
4399 1 -2.27781 2.55092 6.95567 
4400 2 0.553021 0.0468359 -2.98149 
9030 1 -3.12261 5.0431 0.35021 
9029 3 0.588282 -0.652436 0.0809254 
9028 1 -1.41202 -0.457721 -3.01014 
12279 1 -5.28499 2.18661 2.8978 
17809 1 0.189765 -0.239005 -0.139215 
17811 1 2.30325 3.05329 10.2794 
17810 3 -2.69935 1.16426 -1.59292 
10576 1 0.645025 5.54119 -0.361779 
10577 3 0.532966 -2.20547 0.520496 
8428 1 4.24109 5.41167 2.58639 
9739 1 0.241778 -2.66179 -3.00318 
9740 3 -6.57343 -1.23264 1.37548 
9741 1 -4.15655 5.20819 6.29715 
4126 1 2.18327 1.65356 2.84166 
5953 1 -0.240749 0.628731 2.78995 
4128 1 -4.29369 4.45222 -1.40031 
4127 2 -0.178441 -2.60008 0.631578 
5954 3 1.35866 -4.19007 -0.42997 
20681 3 2.6211 -1.23041 1.99636 
20680 1 1.38297 -0.328494 -5.15637 
12466 1 3.7125 -5.41072 -3.78592 
9292 1 0.900722 -5.21283 0.482594 
9293 2 0.260912 -0.0487356 2.00773 
17734 1 2.37754 -1.19176 6.16769 
9294 1 -3.60271 2.37744 1.18244 
1581 1 -5.46804 1.52559 0.508455 
20682 1 1.73682 -1.63244 3.91212 
17735 3 2.00826 -3.10603 -5.33483 
11891 3 0.378623 2.95639 -0.679944 
11890 1 -0.312906 5.05621 6.01792 
5158 1 -1.49593 5.79828 2.30536 
5159 3 -2.6677 -0.129325 4.55143 
5160 1 4.83158 -3.29745 1.10456 
1457 3 3.61071 0.881704 4.36033 
1458 1 5.08044 -1.54875 3.1073 
4617 1 2.72834 3.61309 -3.25078 
4616 3 3.40735 -1.8866 -2.53916 
4615 1 -0.236493 0.168282 -1.54799 
3606 1 3.12875 -2.52891 1.35912 
15469 1 -6.35554 1.44577 -0.145843 
18275 3 2.60901 -0.388741 -0.686759 
18274 1 7.11572 4.69061 -2.32216 
9211 1 -0.323797 0.169756 1.5263 
9212 2 2.44079 0.305502 0.673414 
14854 1 -2.70875 -0.263221 -0.413157 
8551 1 -6.07024 -0.366963 4.51314 
13860 1 -3.58188 -1.42491 -2.33802 
21312 1 -3.09334 -1.57114 -7.36909 
8552 3 0.331902 0.043673 -1.75946 
13858 1 5.92898 -2.80002 -9.46229 
13859 2 2.8752 -1.2808 -1.1409 
10284 1 -4.8889 0.913759 2.83128 
3562 1 -3.93995 0.711575 -5.83013 
10283 2 -0.204134 1.06589 0.165902 
18477 1 -0.987037 0.25519 -6.48526 
18040 1 -0.0275468 0.0217305 1.89055 
3564 1 2.44659 -3.84636 -3.89037 
3563 3 -1.01124 -1.36519 -0.768964 
2292 1 2.53785 -7.9665 -0.102721 
15187 1 -3.1726 0.775009 -1.26785 
19260 1 -4.18084 -1.20815 -4.60857 
13785 1 -0.825839 -0.643137 -5.38435 
13784 3 -0.433113 -0.810734 4.92673 
2291 3 -4.27711 1.65218 -3.14291 
2290 1 7.47227 3.63778 -2.65486 
10885 1 -0.693118 4.1478 -1.6154 
15188 3 -1.83081 -2.26748 4.13577 
19761 1 4.74087 -6.28349 3.78766 
12493 1 -0.584462 -7.02316 1.73894 
13783 1 -3.22258 1.93153 6.69978 
442 1 2.51887 1.04829 -3.16322 
443 3 3.68696 4.11136 1.76306 
1580 3 1.99273 -4.19539 -1.53221 
19760 3 -3.85111 5.67971 1.26935 
19759 1 -3.41616 3.87595 2.65109 
2265 1 4.03911 -5.15558 -2.61552 
12604 1 3.02212 3.31295 0.978265 
13442 3 1.5898 -2.20087 -1.01852 
15028 1 -2.21257 1.02811 -0.896747 
13443 1 4.79484 2.95085 -4.38759 
15029 3 -0.42524 4.7655 -1.48428 
2263 1 -0.318126 5.10707 0.9819 
2264 3 0.0638874 0.937477 -0.677743 
5574 1 4.85948 0.990095 -3.68566 
8601 1 -0.918188 -2.06276 6.16391 
5572 1 -5.74166 1.35888 -0.698968 
5573 3 -0.10175 1.15327 -2.60071 
8600 3 -5.98183 -2.96566 -1.50902 
15030 1 -2.14587 0.0404458 4.59255 
1456 1 2.54643 -1.60756 1.11309 
5530 1 -0.90313 10.5417 4.05641 
5531 2 2.14081 -1.06778 0.645137 
4123 1 1.68754 -2.68365 -2.33662 
4124 2 -3.13666 2.39616 -0.737251 
17176 1 -4.14539 -0.958784 2.2675 
17177 3 -2.44122 -0.906949 2.57584 
17178 1 -0.664934 -6.73713 9.1392 
18286 1 1.66406 -2.44465 -3.21594 
4028 2 2.22882 -3.17043 5.0089 
4027 1 -9.35689 -6.20283 -7.65643 
10623 1 2.11683 -0.306839 -1.48704 
10622 2 1.49048 0.437116 -0.943675 
2429 2 -0.25348 -0.391672 1.13844 
453 1 0.564655 -4.22024 -0.17536 
10621 1 -2.77491 -0.678694 -0.181741 
2428 1 -2.23902 1.73235 -2.77516 
19113 1 -2.37943 -3.00527 -2.56273 
19112 2 0.297842 5.98344 -3.20897 
2430 1 0.697472 0.0117583 1.68039 
3636 1 4.34111 1.7147 -0.810403 
19111 1 -3.35836 1.05847 -6.44652 
18276 1 1.76834 -3.02785 -1.05203 
11995 1 -3.04942 -1.43976 -4.42738 
11996 3 0.981315 -4.05368 0.656765 
11997 1 -0.498527 -1.00316 -3.02336 
6426 1 -0.405394 0.75694 -6.5944 
11209 1 7.48988 4.71721 -1.13793 
11211 1 2.60985 -4.14974 1.87325 
11210 3 -0.82175 -2.90905 -1.17436 
20545 1 -5.10478 2.51026 1.69087 
15512 2 2.54147 -0.451709 -2.2635 
15513 1 1.62543 11.202 -4.19385 
20547 1 -1.1468 -4.80213 -1.45564 
20546 3 -4.68684 0.648726 -1.67524 
5504 3 3.66206 0.554439 4.06432 
5505 1 1.84538 -2.19869 1.50801 
1771 1 -2.3462 -0.259884 7.31426 
5503 1 0.120537 1.64301 5.24709 
16507 1 -2.9345 0.0611441 -5.22238 
14118 1 1.74809 -3.71392 -5.64369 
14117 3 1.81953 4.62381 -0.244943 
19762 1 5.57698 0.144096 -2.40529 
13378 1 2.45344 -0.750862 -0.111884 
13379 3 -2.62943 -1.4544 1.82454 
8332 1 4.47425 -2.00633 -0.984656 
13380 1 0.558777 -0.290533 -1.4713 
17348 3 -1.09483 -1.1776 -1.85737 
5655 1 -1.04727 -1.00586 -5.09734 
18237 1 -2.59654 0.832144 -2.65137 
7728 1 -2.20135 3.85159 1.3144 
7727 2 -1.37548 1.26314 3.84285 
7726 1 -0.119173 1.35968 -4.86068 
8333 2 0.361764 1.90052 -0.730674 
966 1 -0.689313 0.44902 -3.05017 
965 3 -2.31682 -1.33823 2.04461 
964 1 0.796335 -2.50487 -1.45185 
7038 1 -4.3979 -4.18147 0.797776 
7037 3 -0.313573 1.68846 -3.24972 
16509 1 -2.39303 1.74541 -2.34577 
5497 1 3.85674 2.89063 -1.51529 
16508 2 -1.10965 3.98719 -0.790673 
16201 1 -3.90801 1.20315 -0.173434 
16202 2 -0.51539 -2.19922 0.575014 
8615 2 1.40057 -2.62306 0.549481 
8616 1 -1.37146 3.7495 2.27112 
3308 2 -2.84825 -2.32865 0.402799 
3417 1 -4.61706 4.46435 1.81229 
3416 3 0.426827 1.52768 0.198306 
3415 1 1.71327 -2.97884 4.9853 
8035 1 -3.58187 3.09129 -2.43609 
14723 2 -2.47996 -2.96302 -0.057657 
8037 1 -4.60596 -0.679385 -5.184 
8036 2 0.140396 0.423491 -3.07878 
7530 1 2.93872 0.325488 1.47583 
14724 1 0.342104 1.46084 1.86272 
7529 2 -0.819984 3.51643 2.83646 
8429 3 0.551187 1.45467 1.17024 
8430 1 9.67145 -2.5547 -1.75174 
15182 2 1.43836 -3.92715 -1.65613 
15183 1 -5.30658 -0.066727 1.20782 
17347 1 1.76015 1.71759 -8.96461 
3057 1 2.49972 -0.441852 -0.268863 
3056 2 0.44572 -2.0574 8.95618 
3055 1 4.03263 6.33889 -2.05047 
7510 1 -7.24371 2.67551 -4.81222 
10578 1 3.18587 -0.247483 -2.19095 
7191 1 -4.34281 -4.48319 2.21618 
7190 2 -2.34498 0.734724 5.08513 
7189 1 4.62575 1.39351 7.5876 
17574 1 -3.13285 3.94765 4.77861 
4865 2 0.0493681 1.12371 0.470603 
4864 1 -1.89231 -2.23603 2.19553 
11310 1 -4.26327 -0.691923 -1.04362 
4866 1 -2.07098 6.56558 -0.836274 
6972 1 0.238113 1.63739 -0.43393 
6971 2 1.32075 -0.459056 4.06849 
6970 1 3.47471 -0.345105 -4.30652 
4116 1 -0.656137 4.07819 -4.35875 
4115 2 -1.24558 0.572344 -1.23452 
9536 2 1.59579 0.30835 -0.511929 
9535 1 2.3374 0.134647 1.60197 
15811 1 2.47319 2.43928 -2.18206 
9537 1 -1.14297 -2.37608 -2.70827 
5955 1 5.77691 -5.7541 -0.444091 
21499 1 7.1372 3.40568 4.05699 
21500 2 0.739095 2.01046 0.345843 
12467 2 2.14041 -1.9337 -0.767777 
18516 1 -5.81301 1.453 -0.911662 
18515 3 0.57062 -1.30395 -4.62844 
12468 1 -7.57371 -0.770298 1.22202 
18514 1 2.22894 -2.21621 -2.76829 
13940 2 0.972882 -0.670692 -1.47529 
13941 1 1.2457 0.400428 -2.93048 
3478 1 3.19322 1.31241 4.74386 
3479 3 2.66115 -4.43602 -0.101824 
12442 1 -7.26825 4.46597 2.31839 
17736 1 2.02417 1.61406 1.28698 
3480 1 7.11129 1.89301 5.20945 
9839 2 1.88296 -1.01969 -1.69053 
11892 1 -0.700843 2.1185 -2.24775 
9840 1 -0.825541 -1.43607 -3.51554 
9838 1 5.14595 4.2191 2.91917 
12443 2 3.90826 -0.184001 2.41431 
18425 3 0.214022 -0.476281 -1.2041 
18426 1 -10.6221 4.76535 -5.92954 
10343 2 2.46039 -1.37641 1.80166 
10342 1 -1.51909 1.39409 -0.736841 
12444 1 -3.11944 8.48397 0.167345 
10344 1 -0.734424 0.247041 0.693581 
8498 2 0.5283 1.58768 2.16797 
18321 1 -0.193152 -5.52471 2.11778 
18288 1 -3.30929 -1.32937 -4.51464 
18319 1 -3.70793 -0.974914 -2.15696 
18320 2 3.55003 -1.40486 -4.33261 
8497 1 -3.07729 -0.203117 3.32623 
8614 1 2.42654 1.25474 2.33314 
9213 1 -4.32282 0.942201 -2.30349 
83 2 1.68145 1.52091 -1.12619 
82 1 -2.99116 -8.14284 -5.60944 
14271 1 -1.40755 -1.35671 4.27935 
84 1 3.06266 5.16087 -0.715057 
3594 1 2.58626 6.07238 -5.41786 
14855 2 0.147481 -1.65819 0.378695 
14856 1 -5.87764 4.51982 0.684952 
17881 1 -2.1267 -1.2125 -1.00285 
17882 2 2.86618 -3.16615 0.824349 
21311 2 -0.29741 0.673579 6.97219 
21310 1 0.96041 -3.96678 5.7698 
20918 2 3.79002 -0.00901708 -2.60743 
17883 1 -0.199288 -0.943838 2.41336 
20919 1 5.15048 4.1349 -3.16643 
939 1 3.67531 0.478333 4.71647 
19867 1 1.83693 -0.206242 7.54459 
16141 1 -4.74293 -1.31243 -1.72133 
16143 1 1.48126 -0.55034 -2.78007 
5278 1 -0.489987 -1.5502 1.36503 
10282 1 -3.94888 4.02635 10.7726 
1872 1 0.845462 -2.82438 -1.39438 
1871 2 3.41933 -1.51893 -2.64464 
1870 1 -0.495897 -2.19652 -3.51053 
5279 2 -0.540914 -2.67674 1.70984 
4117 1 5.72798 3.99238 -2.38425 
18042 1 1.04198 -4.40717 6.76087 
1611 1 -2.3506 -5.61655 5.65352 
5280 1 2.79995 1.74263 -1.79506 
4118 2 -1.25399 -0.417984 -0.947154 
18041 2 0.906335 -2.975 0.297466 
16142 2 3.66681 2.83534 -0.88548 
830 3 0.382724 1.79973 -2.3076 
19259 3 -0.802553 3.49016 -0.957053 
4789 1 5.05354 1.74162 2.27796 
19258 1 -0.407427 -1.36232 0.976119 
7019 2 3.23393 -1.28217 -3.09648 
7018 1 -3.44775 -1.46653 -0.368673 
10887 1 -6.63266 3.82392 -4.13135 
10886 3 0.835653 1.19415 -1.33755 
5862 1 4.56857 1.09726 4.03697 
831 1 -4.54429 -2.15316 -0.894123 
7020 1 0.420709 0.322271 -2.88937 
17551 1 -8.2383 2.13911 -2.79464 
4790 2 0.753056 1.66792 2.1438 
4791 1 -2.20645 -4.19061 -5.2624 
17552 3 -2.73507 1.10039 0.671985 
17553 1 2.6973 2.21387 2.32042 
6384 1 1.12752 3.29193 1.14045 
6383 2 2.37169 0.338337 -2.50921 
3686 3 -2.82197 -0.0346733 1.87338 
8156 3 -1.87989 2.11169 -1.50407 
10461 1 7.80557 -0.146513 7.08208 
1505 2 -0.162381 -3.15742 2.39415 
9511 1 -1.66943 6.27634 0.732046 
9512 3 -0.952201 1.40309 -0.649551 
9513 1 0.0963048 -5.02053 2.61416 
1506 1 -1.60087 2.05234 4.03041 
15454 1 4.51129 -1.07393 -7.8165 
3685 1 0.612282 0.799804 -2.20632 
18287 3 6.68223 -2.34055 0.356659 
18424 1 2.61077 4.94736 3.03084 
3131 3 -1.06691 -0.546285 3.51986 
3948 1 6.09146 5.886 -2.48829 
3947 2 -3.82464 1.35348 0.135468 
3946 1 -1.22686 -2.36608 -3.3229 
3132 1 5.42236 0.971931 -1.66609 
13146 1 1.5281 3.29929 -1.09217 
2889 1 -7.177 -0.769832 0.215894 
5291 2 0.665904 -3.13605 -0.351412 
5290 1 -1.80388 -0.00833311 -4.71607 
5292 1 0.231911 -5.61611 0.0328481 
2888 2 1.80089 -2.48063 2.21207 
20496 1 -1.60333 -3.51756 -1.32996 
18279 1 2.3745 -6.44958 1.53414 
20495 2 -0.592012 -2.82766 -6.32262 
2887 1 -1.2482 1.13045 -1.04288 
10678 1 -1.75343 -1.89315 -7.29044 
10679 2 3.01181 -1.08716 1.8486 
10680 1 1.932 -4.27736 -0.138637 
20494 1 5.0295 -3.91321 2.58172 
2886 1 7.89374 1.08876 5.50963 
13716 1 -3.20185 -1.50664 -0.251226 
17584 1 -5.39338 0.785922 -3.72281 
18278 3 0.669039 0.0512037 1.50586 
17585 3 0.214809 2.43826 -1.17614 
17586 1 -5.16895 -4.28259 -5.62976 
18277 1 2.19437 5.34454 -0.753955 
8725 1 2.1693 0.44356 1.05645 
8727 1 -3.06095 2.92483 1.81368 
8726 3 -0.0204244 2.16064 -4.41255 
15769 1 -6.61814 10.1017 0.384093 
15770 3 2.05217 3.866 -0.775869 
15511 1 1.17654 0.592871 4.97444 
5838 1 3.39695 0.541326 -0.793157 
5837 2 -0.752528 -3.78454 3.1986 
5836 1 10.1592 -2.73158 -2.53624 
1772 2 6.19122 -0.390867 0.904116 
1773 1 5.59749 -0.827892 5.73649 
16348 1 -1.16807 7.30754 -0.330198 
16349 2 -4.57887 -0.634535 -3.4428 
15060 1 -0.341301 -2.3627 3.37762 
15059 2 -2.97533 -1.65958 -2.09739 
14116 1 -0.834747 -1.46836 -8.90367 
14949 1 -3.05846 6.62994 1.12059 
14947 1 -2.93871 0.411829 -1.27146 
14948 2 -2.9959 2.49325 -1.27715 
2434 1 -3.18296 -0.0161838 1.02615 
2435 2 0.650702 -3.53273 -3.03736 
11395 1 -2.44205 -1.53414 2.77356 
15922 1 -3.65062 -2.10668 1.76647 
11396 2 5.03364 0.874968 5.83435 
11397 1 1.41051 -4.46459 3.06939 
16674 1 -2.46816 -2.20037 -0.0882518 
16673 2 0.208004 1.03349 -0.614948 
4644 1 4.51761 -0.3787 -1.31199 
4643 2 -0.34702 0.720063 7.10133 
19353 1 -0.3641 -0.0340833 -3.6176 
8334 1 3.32162 -3.65266 -1.80551 
19351 1 -1.25724 0.820399 3.88412 
19352 2 2.33874 1.49403 -0.217909 
21507 1 -0.591511 -4.41184 -3.27155 
269 2 -1.18561 3.85351 0.837499 
5654 2 1.93162 -1.60825 -1.84981 
5653 1 -3.51141 2.93771 3.97719 
270 1 -2.91281 6.31074 6.36767 
268 1 1.71383 1.22252 -1.64302 
5498 2 3.34198 0.895322 -6.92039 
7036 1 -0.865511 2.9847 0.951288 
3916 1 -0.616011 -0.0851835 4.42265 
5499 1 0.929655 2.31764 -1.66358 
6228 1 -1.17031 -3.65087 2.84438 
6227 2 -1.15943 3.69419 0.00921698 
6226 1 1.73251 3.56995 1.8092 
2833 1 1.4688 3.34408 6.12359 
3917 2 2.75744 7.3681 1.79663 
21152 2 -2.15274 -0.759781 -0.48246 
21153 1 -0.930884 2.46429 1.8313 
11308 1 -2.63302 -2.15029 2.21302 
21151 1 1.56231 -3.6242 -4.83226 
7203 1 1.46717 -5.74786 -6.85428 
7202 2 -3.45047 0.864974 0.0902909 
7201 1 -0.781938 2.94658 1.00248 
7966 1 -1.0704 3.46492 5.3578 
16203 1 -2.50388 -6.17815 9.35812 
16708 1 1.73844 1.44351 -7.68157 
21384 1 -0.982335 -6.95466 1.16534 
21383 2 -0.14559 -3.39907 -1.2761 
21382 1 -3.88029 3.07329 1.46681 
8566 1 -2.9674 -5.33828 -5.09546 
16709 2 -0.193162 2.66314 1.07831 
6087 1 9.4275 4.13328 1.56254 
19250 2 1.40989 2.39072 -3.37259 
19249 1 9.71105 3.92038 -4.10931 
14722 1 -0.343733 5.2679 -1.43427 
20082 1 -4.60828 6.90313 -0.542463 
20081 2 -3.98404 1.80322 -0.238294 
20080 1 6.05389 1.08625 -7.76673 
9752 2 -1.16512 -2.1125 -2.1518 
9751 1 -3.09608 -3.74126 -0.965967 
7528 1 -0.0143061 -1.13828 -4.90042 
14533 1 -2.23504 -2.37302 4.27937 
3309 1 2.07772 -3.6781 -0.0674402 
243 1 -0.207806 -2.60301 -0.32061 
14534 2 0.265205 -0.957444 -4.65349 
771 1 -1.18153 -1.16911 1.84786 
13555 1 -2.26732 2.8296 0.519839 
15181 1 0.39549 2.18756 -1.82792 
7511 2 0.907649 1.61986 2.3191 
770 2 2.63015 -0.729685 4.82942 
769 1 -3.79533 -2.90903 6.38576 
7512 1 7.12602 3.91599 -0.686977 
10830 1 -1.97227 0.202533 -0.868482 
10829 2 -1.70575 -1.60472 -0.782415 
17573 2 0.463935 0.993645 -2.21893 
17572 1 -1.45201 -0.226702 1.31794 
9465 1 -0.341849 -0.2554 1.0582 
9464 2 0.405852 2.21575 5.13792 
10828 1 7.62247 -6.6209 0.412274 
9463 1 0.83228 2.4551 -2.66246 
13556 2 -1.30947 3.81009 1.1616 
16638 1 -6.11884 2.98603 -1.77764 
11309 2 1.28649 -4.76972 1.69408 
15812 2 -0.442906 2.56842 -2.46166 
3918 1 -2.50371 -4.37869 -4.4498 
2314 1 5.03406 -0.938546 -1.47153 
4114 1 -5.78711 -0.0326755 1.66521 
932 2 0.508501 1.21498 2.31364 
931 1 1.55916 -3.74442 1.18003 
15813 1 6.42141 -2.33227 6.00605 
15615 1 1.71302 0.229764 -3.87267 
15614 2 -1.31388 1.07805 -2.42308 
933 1 -0.266784 -0.0562537 -4.99745 
8434 1 1.63053 -5.22405 -5.79487 
2315 2 1.4892 -3.76749 -0.777609 
8435 2 -4.40386 -3.24947 -0.382968 
15613 1 7.66363 1.91949 -1.01091 
4620 1 -0.855846 -1.00199 -1.67718 
17436 1 4.58711 5.23367 -2.93852 
21501 1 3.41657 5.17408 -1.7697 
20508 1 -3.29192 0.585686 -0.474874 
20507 2 -2.82061 -1.97729 1.47967 
20506 1 1.77778 -2.41611 4.0967 
9804 1 3.02111 3.41741 4.53461 
3347 2 1.58907 1.88933 -1.82729 
3346 1 -1.41507 -3.71351 9.18625 
4197 1 -1.59222 -0.862726 -5.60746 
17435 2 1.65813 -3.03024 4.44808 
17434 1 -4.0716 1.38926 8.6487 
4196 2 3.72654 0.660499 2.58252 
6085 1 3.38834 2.92794 -3.51445 
13939 1 -2.10366 -1.77941 3.29385 
6086 2 -3.40298 -4.93096 -1.54806 
17113 1 -5.94009 0.259474 3.29584 
17114 2 -0.794416 -3.93441 -0.43402 
17115 1 -2.52856 4.90776 1.13285 
10303 1 -4.31825 -3.65149 -1.86024 
16582 1 4.10519 -6.771 -0.495617 
16583 2 -6.87427 -0.170276 5.44284 
16584 1 -1.21499 5.21282 -1.2372 
13728 1 0.620352 -0.794569 6.09224 
8174 2 0.361788 2.15757 -0.159254 
12226 1 6.36381 6.31542 -4.20376 
13727 2 0.129195 1.65039 2.98397 
8175 1 5.66569 -1.72692 -2.24304 
20668 1 -4.31395 -0.191035 3.36448 
10315 1 4.1027 0.438474 2.35179 
10316 2 -0.867878 -3.42076 0.409813 
8173 1 -1.81575 1.81855 0.651624 
10317 1 -2.34713 5.63875 1.62418 
8499 1 6.42359 2.39558 1.20074 
6656 2 2.7158 -2.07859 -1.18785 
6657 1 1.23899 -3.9336 -1.68523 
6655 1 -0.843107 -0.4832 2.33882 
13144 1 1.44788 8.46063 1.24776 
4470 1 -6.02209 8.01664 -2.68339 
4469 2 -1.05886 1.59854 2.18903 
17398 1 8.48481 -7.19354 1.71873 
11716 1 -0.108648 -3.02672 3.96038 
9553 1 -0.186256 -4.92495 2.18959 
11718 1 2.04914 -4.2623 -2.98683 
11717 2 -2.72073 -0.972049 -4.60274 
15891 1 -4.14601 4.05698 -1.83681 
14535 1 -1.75539 0.817517 5.35565 
14270 2 1.25806 -2.83533 -3.89286 
241 1 -1.88909 -0.245137 1.16684 
14269 1 2.44634 -1.32897 4.94723 
19810 1 3.33615 1.72334 0.612733 
17063 2 0.034837 3.24046 -1.82365 
17062 1 -3.45483 0.2394 -1.95068 
17064 1 -0.731678 -2.51974 -2.05942 
242 2 0.241806 -4.1013 2.07072 
2278 1 2.03565 2.37515 4.39539 
6568 1 0.000822221 -1.18422 -1.43334 
5697 1 -1.96624 -4.09302 -3.23908 
20917 1 0.896069 -5.62322 1.63853 
938 2 -3.06583 -0.458045 1.48051 
937 1 0.406371 0.641404 8.06338 
11023 1 -4.05398 -3.1966 4.39891 
11024 2 2.96557 2.58307 -5.7934 
3631 1 -1.71046 0.13519 3.28855 
3632 2 2.20348 0.405994 0.698043 
3633 1 3.23389 3.70109 -2.38353 
14101 1 1.84493 -2.19649 2.39709 
19400 2 0.553176 1.08439 4.86282 
19399 1 -0.0806613 -1.61032 -1.22183 
6591 1 3.19069 -1.3013 2.54976 
4119 1 2.65481 0.0910873 -0.868433 
10056 1 -0.706428 -3.86907 1.13483 
10055 2 2.81004 2.6436 2.31268 
10054 1 -0.259649 -1.1377 5.346 
19401 1 -0.024533 -3.72628 -0.678021 
21394 1 -3.57219 1.52689 -4.64701 
21395 2 0.350709 0.455347 -0.438935 
14102 2 -0.650035 -0.147893 0.073672 
19210 1 7.88579 4.43892 -0.0972461 
1609 1 -1.79507 -4.13327 -3.0718 
1610 2 1.03489 2.23775 -0.0405772 
5861 2 -2.44518 -3.49715 -0.117014 
19929 1 -5.94874 -2.16131 2.92244 
19928 2 1.48688 0.290078 4.11164 
21396 1 4.89203 4.03791 4.82774 
19927 1 4.03072 1.03588 0.321179 
2445 1 -3.31617 -6.00742 -0.236097 
5860 1 -1.34793 2.31474 -1.24059 
11289 1 3.6539 0.118374 0.524453 
11288 2 -2.66469 -2.30042 5.36456 
11287 1 -1.40698 3.24465 1.74142 
2444 2 -3.03849 3.35747 0.232019 
2567 2 -0.215215 2.95345 3.4005 
2568 1 -3.25221 -2.80984 0.172156 
6382 1 1.48566 -1.72964 -2.00205 
13018 1 0.19693 5.41698 2.5717 
13019 2 -1.23805 -1.77086 0.512488 
13020 1 8.60117 1.80961 -1.08972 
5851 1 -0.0709002 -1.73376 -5.26348 
7851 1 -0.733796 4.75729 -4.06535 
2284 1 3.96688 -3.4887 -1.01481 
2285 2 -0.329095 -2.15546 1.52102 
2286 1 -0.0613689 1.44194 4.3915 
3687 1 0.333748 3.60752 4.08171 
8331 1 2.15344 5.63331 0.270748 
18732 1 6.38418 -1.90884 5.14304 
20669 2 0.0502403 -2.42911 -2.31195 
18730 1 -2.70552 0.950296 -6.1803 
1504 1 -0.240539 4.63379 1.18532 
18731 2 2.97472 -2.78167 3.84396 
20670 1 -3.18698 2.0366 -4.80344 
15456 1 -0.917484 -2.3903 -0.317769 
15455 2 1.61734 2.81086 -0.684094 
15534 1 3.56135 -4.87518 -1.06257 
13145 2 -1.00298 -1.407 -1.30325 
15533 2 -4.06265 -0.481693 4.03634 
15532 1 -1.14358 -0.199552 -0.488636 
8546 2 3.08684 0.577968 -3.16175 
8547 1 0.97079 1.96582 -3.42084 
8155 1 0.844568 -0.173448 -4.98063 
20260 1 3.1488 2.29587 -6.34925 
402 1 -0.613111 0.0913198 -4.94797 
401 2 -2.27179 -0.536943 -0.0986145 
20261 2 3.44073 1.78168 -0.403133 
20262 1 4.64157 -0.259455 2.49433 
4468 1 0.857069 1.70091 -1.24352 
4498 1 3.32859 3.89425 0.685093 
400 1 -1.95919 -5.65523 5.8312 
9555 1 -3.69581 7.54909 3.68556 
9554 3 -0.0439071 -2.01682 4.66284 
19246 1 1.05349 -2.83009 -0.343594 
19248 1 -4.43951 -1.41376 -3.06855 
6906 1 0.575461 0.0528511 -7.73691 
19247 3 -0.827961 2.07523 -1.84096 
6905 2 0.794963 -2.73604 0.942278 
15100 1 6.075 0.431897 2.13267 
6904 1 -4.20265 3.3491 0.168445 
21407 2 1.40923 -7.81933 1.64304 
18267 1 -2.64967 5.62256 -2.51293 
16350 1 0.615628 -0.980622 2.80817 
18265 1 -3.51127 0.551933 5.00016 