ITEM: TIMESTEP
40000000
ITEM: NUMBER OF ATOMS
5472
ITEM: BOX BOUNDS pp pp pp
0.0000000000000000e+00 5.0000000000000000e+01
0.0000000000000000e+00 5.0000000000000000e+01
0.0000000000000000e+00 5.0000000000000000e+01
ITEM: ATOMS id type vx vy vz 
308 2 3.67237 0.428937 2.48482 
309 1 -0.860921 4.28461 -3.21819 
307 1 -1.03069 -4.71286 -3.1951 
19804 1 4.33843 6.41167 0.47012 
19805 3 0.168057 -0.123834 2.51948 
19806 1 1.03981 -0.815507 4.60254 
20419 1 -0.40722 3.67001 1.86844 
1661 2 -3.17283 2.81507 0.100607 
1660 1 2.20375 3.17102 3.07368 
1662 1 -3.00296 1.54444 2.83222 
17777 3 1.94118 -0.310586 3.40428 
17778 1 -0.462264 -1.5408 -0.0670646 
17776 1 -1.79702 -4.61171 1.5015 
18749 3 3.00861 3.13099 2.70638 
18748 1 0.442514 0.301007 -6.66756 
16146 1 1.2519 5.10922 -7.72292 
16145 3 -2.06275 -0.59202 1.82946 
16144 1 1.89125 -1.15235 -3.64184 
9023 2 2.07506 -0.230961 0.588057 
9022 1 -3.41906 3.23419 5.51623 
20514 1 2.6541 4.95905 0.78994 
20513 2 -0.661294 -1.24315 0.0608448 
9024 1 3.04122 3.63967 -3.3152 
20186 2 0.779846 -4.7913 1.17088 
20187 1 -5.29504 3.86728 3.05495 
12836 3 -0.227036 1.31815 1.27959 
12837 1 -2.57083 4.71422 4.35486 
12835 1 2.55789 -1.81341 3.93419 
6739 1 -1.81891 -4.96073 -2.18564 
6740 2 -1.95399 0.575077 6.79672 
6741 1 0.518557 5.69269 2.0565 
12870 1 -3.89559 3.70024 12.4223 
12869 2 -2.13736 0.434622 -4.49124 
2492 2 -6.49889 -1.17192 0.548576 
2491 1 3.69844 -3.45301 0.915117 
16320 1 -1.96907 -0.57366 -10.1274 
16319 2 -0.322145 -2.82025 -0.435644 
5924 3 1.17902 1.26887 0.313174 
5923 1 -3.49818 6.40622 -1.64043 
18823 1 0.198914 -3.50988 0.221787 
18824 3 -4.47332 -2.67553 2.41528 
5925 1 -1.06429 -3.58726 -1.40374 
18825 1 3.8841 -0.0572374 2.88935 
18773 2 -1.84139 2.17526 0.80599 
18774 1 -3.59871 3.57803 -11.2288 
18772 1 -2.67864 -4.26679 3.52016 
10161 1 -5.84271 -0.730874 2.45392 
5605 1 -3.85691 -0.963988 1.53485 
20706 1 1.29619 -0.786401 7.22221 
20704 1 -3.72107 -1.48575 -1.28948 
20705 3 3.05293 -3.22596 -1.00425 
7392 1 -3.70478 0.0633584 -6.54579 
18604 1 1.59847 -3.73106 -0.0407889 
18606 1 0.984071 -3.41004 -1.19956 
18605 3 4.72613 -1.41545 1.63347 
13945 1 -2.50202 -3.46726 0.579229 
13946 3 1.16273 1.56036 1.53854 
13947 1 -2.74733 5.55397 5.15581 
20421 1 0.327758 3.53807 3.68319 
20420 3 -1.3505 -3.39574 0.625399 
4722 1 2.41797 -3.22952 6.99938 
4721 2 4.41723 -0.686584 0.327792 
4720 1 -1.29142 -0.954427 1.30812 
7393 1 4.15874 -1.01849 -5.15443 
7394 2 -0.675098 0.10763 -0.336196 
7395 1 -1.02006 1.21507 3.38616 
6150 1 -2.23855 -0.662844 0.018811 
6149 3 -2.46653 1.96948 8.42248 
6148 1 -0.107462 -4.29115 -0.60689 
18750 1 -4.632 1.15868 1.75489 
2915 2 1.59696 -0.854293 4.75368 
2914 1 3.43327 -0.447286 2.58712 
2916 1 -1.05026 3.66139 1.28078 
5801 2 2.18275 1.99665 -0.297143 
5802 1 -4.92086 -1.11786 1.10127 
20512 1 0.936905 -4.56595 1.72458 
8250 1 -1.697 -1.3755 -2.29078 
8249 3 -1.80186 -1.13816 -3.23246 
8248 1 -2.69272 -3.67316 1.6975 
19003 1 -5.64794 -3.58532 1.79839 
19005 1 -4.44503 2.46237 -5.04754 
19004 2 3.62797 1.49532 3.0307 
12160 1 2.86519 1.35743 -1.69259 
12161 3 -2.61323 -4.42888 0.735847 
12162 1 3.47827 -5.78719 -7.07311 
8410 1 0.506734 -2.84086 -1.99873 
8411 3 0.316878 -3.78965 5.22571 
8412 1 4.02046 -3.30272 -3.75756 
14279 3 -0.340947 -2.7038 2.27915 
14278 1 1.18885 -2.66771 -1.75034 
14280 1 4.51956 2.99314 -2.86026 
2493 1 6.04733 -0.21077 -2.09005 
10390 1 -3.45499 4.4728 -0.955178 
10391 3 3.1047 0.216726 -6.27654 
10392 1 1.45074 5.70282 0.791771 
18308 2 -1.24371 2.55782 1.75225 
18309 1 -3.8447 2.84925 4.77552 
1266 1 6.35902 -4.58581 -5.04263 
18307 1 -3.39142 1.22634 3.58679 
8224 1 -2.66812 -0.336525 0.132942 
8225 3 1.20399 0.644757 -1.36407 
8226 1 -1.88947 3.07483 -2.99374 
8686 1 -0.139119 2.82115 1.76777 
1081 1 2.6285 1.01354 -1.44628 
1082 3 2.12324 -1.15172 0.570066 
1083 1 5.60073 -2.48789 -1.68659 
10160 3 3.24554 -2.02275 -1.83838 
10159 1 5.05913 2.41012 1.68012 
5607 1 6.42434 1.76463 -2.32991 
5606 2 -1.56028 2.39302 -1.52252 
20153 2 2.42025 1.51226 -2.44738 
20152 1 -3.83362 0.932717 2.37596 
14883 1 -5.09999 3.41218 -3.5574 
7390 1 -0.43668 1.9177 2.86286 
7391 2 -0.435509 -2.25936 0.700906 
7982 3 -0.799584 -1.95895 1.77798 
7983 1 -0.13621 -0.906113 0.742597 
3587 3 -0.426997 2.25521 -0.175136 
3588 1 -1.29947 0.326996 4.86154 
17719 1 0.347084 -2.51297 -3.38212 
3586 1 -0.161336 7.79757 -0.781505 
17720 2 1.32461 2.20341 -2.70868 
17721 1 3.3113 -7.38449 0.439889 
4490 3 1.3743 1.2106 2.22489 
4491 1 0.0972276 -3.37437 -0.481618 
14892 1 1.51802 -1.10037 0.640076 
4489 1 3.24718 0.764564 -2.26369 
14891 2 1.51164 -1.96808 2.62744 
5800 1 5.57149 2.01828 -2.1762 
20406 1 -3.7806 0.0420738 0.519273 
20405 2 -0.75241 2.51782 0.0830903 
12501 1 -0.165532 -4.18658 -0.48588 
12500 2 4.69816 0.0512645 -0.864535 
12499 1 4.15857 -1.26176 -0.494368 
9458 2 -3.07904 -2.57019 -2.24855 
9459 1 1.7357 5.39019 2.61589 
9457 1 0.491817 2.03074 -4.98772 
19086 1 -0.43232 5.48349 -5.98315 
1839 1 -1.07867 -0.515614 1.22373 
1838 2 -2.99757 2.44173 -2.1105 
1837 1 6.27299 -3.34589 1.06441 
2475 1 0.174923 -3.09769 -0.542866 
2474 2 -0.896387 2.07855 -2.03813 
19084 1 -2.15035 -0.42975 1.80504 
19085 2 -2.0332 -3.32932 0.551922 
1264 1 -2.26204 1.13232 -4.52856 
7619 3 0.969642 0.553016 5.08996 
1265 3 -1.59551 -2.40873 -0.946984 
7618 1 -1.24137 -4.47921 3.8102 
4581 1 -0.83697 0.212005 -0.601366 
4580 2 3.44374 1.5068 -1.38811 
4579 1 5.0924 4.06478 -6.70057 
8688 1 -2.68847 3.44957 -1.29074 
8687 3 0.286918 -1.85852 0.194896 
17081 3 3.43606 -1.85573 -0.945199 
17082 1 -2.6832 4.208 -3.84999 
17080 1 -0.0267813 -2.88082 3.79884 
18798 1 -2.71261 -3.22385 3.02674 
18797 2 -1.07236 3.76813 0.55324 
18796 1 -3.73228 0.592037 2.68258 
7981 1 2.55164 0.31929 -4.89327 
14340 1 0.211843 0.544443 -1.83262 
14339 2 3.93683 -2.44948 0.191852 
14338 1 -3.02785 5.07567 6.03358 
5096 3 1.26093 0.736548 1.57075 
5095 1 0.210357 -2.74842 -6.44189 
5097 1 7.27021 -1.20831 2.19436 
13075 1 0.897308 3.92486 -0.921195 
13076 3 -3.07603 -0.512621 4.73254 
14890 1 -2.54536 -4.06999 -6.31371 
11346 1 -5.60884 0.511471 -1.5347 
11345 2 -2.5946 1.72957 4.34392 
11344 1 4.24906 6.43078 1.47225 
11735 3 -1.76927 -0.928487 1.17784 
11734 1 -0.599252 7.97777 -1.48329 
11736 1 -2.5933 0.458214 0.928309 
20404 1 0.0899615 -0.029204 4.82736 
13481 3 2.27758 2.65953 1.61655 
13482 1 -1.99555 2.00743 2.69265 
13480 1 -2.95639 -6.81049 1.4726 
16449 1 8.98642 1.65201 -0.126636 
7721 3 4.13922 -0.700435 2.36957 
7720 1 3.38244 -3.36809 -0.759686 
2473 1 5.36742 0.177951 2.36088 
7722 1 1.45989 -2.52468 0.616311 
16447 1 2.20021 -1.50061 1.47997 
16448 2 -3.69171 0.124983 0.245227 
9549 1 0.434073 1.86233 -2.26557 
10683 1 0.265902 -4.33513 0.803861 
10682 3 -0.0590268 -0.308302 5.75396 
17223 1 -0.135269 5.32304 2.5267 
17222 3 0.830903 3.39337 3.59946 
17221 1 3.72399 -5.45717 1.75408 
7620 1 2.1414 2.77632 7.12264 
12364 1 -0.426672 1.7277 8.82932 
12365 3 -0.296149 2.59353 1.77391 
10681 1 1.61991 1.50987 -6.74685 
1847 3 1.28584 -4.00324 -1.69215 
8893 1 -2.56671 0.753199 -0.477584 
1846 1 -4.96062 -3.00327 2.90843 
1848 1 4.24492 5.47534 -0.00164682 
15721 1 4.97244 1.95298 -1.28382 
11766 1 -4.32361 1.79954 -3.10511 
15722 2 1.78382 2.88524 -2.10114 
15723 1 -6.78475 -1.76213 -0.356409 
11765 2 -3.42642 0.651585 0.329071 
11764 1 -7.4471 6.31659 -1.20425 
4895 3 -0.261223 -2.25641 2.86856 
4896 1 1.78443 -2.08363 -1.92122 
8876 2 -0.0128727 3.23952 3.08639 
8877 1 0.386712 -0.470684 4.39719 
8875 1 -2.95183 -5.11127 2.72499 
6114 1 -1.19186 1.61646 4.27324 
6113 2 -2.98076 4.80915 4.24599 
3341 2 1.18103 -1.14538 0.458821 
15485 2 -4.25187 -1.56559 0.906363 
3340 1 5.55537 0.0267118 0.277522 
3342 1 -2.34043 2.48332 -2.15807 
15484 1 2.10703 -1.07632 -3.43272 
15929 2 2.31165 -0.955948 2.05581 
15930 1 0.266074 -0.966952 2.07297 
16864 1 -1.87024 -0.966384 -0.230445 
15928 1 -2.34889 4.11734 2.43682 
4553 3 1.90131 -2.27872 3.61605 
4552 1 2.1643 0.212111 -6.06758 
11761 1 3.98857 0.0778189 0.369612 
11763 1 0.691696 0.514405 -4.19915 
11762 2 2.15233 -0.0997412 -2.72734 
21471 1 -5.82716 -1.53658 -6.67997 
4554 1 -1.73131 -4.07598 1.58129 
13077 1 -6.43858 -4.59087 1.37455 
17623 1 -2.35474 -3.33082 -1.31826 
17624 2 3.02617 -1.76866 1.316 
17625 1 4.07114 0.631207 -2.89404 
14755 1 4.96898 -4.71658 -3.04042 
14757 1 -4.86192 3.15781 -4.28359 
14756 2 -1.64972 -1.4423 -3.36368 
20965 1 -4.27164 8.25205 1.98357 
20966 3 -0.269896 -4.52916 6.50454 
20967 1 5.42881 -0.912295 1.0887 
1866 1 2.86149 -1.66068 -1.17143 
1865 2 0.889985 0.924672 8.4951 
18872 3 -2.14703 -1.7098 -0.688647 
18871 1 -3.01794 4.70281 3.08774 
17481 1 -3.23767 -5.81407 3.39169 
17479 1 0.287626 1.85406 5.33843 
17480 2 0.410504 -0.15783 -4.08579 
20819 3 0.258308 -0.0884406 -3.96404 
20779 1 -0.777868 5.52612 6.57614 
20820 1 1.14082 1.13192 0.380772 
20818 1 -2.81855 6.14004 -4.8221 
20781 1 3.07794 0.486633 -0.711798 
20780 3 -2.78105 -0.990832 0.125317 
5324 3 3.99659 -2.35509 0.134822 
5325 1 3.04544 -0.966139 4.26175 
5323 1 3.06706 -5.87624 1.48133 
9747 1 0.915822 -1.82187 0.338708 
9746 2 0.621033 1.05746 -1.58301 
9745 1 -2.44211 3.99386 3.83126 
15033 1 -3.68258 -3.64461 2.17576 
15032 2 2.15823 0.433281 -3.8242 
9547 1 -2.71362 0.0822576 -2.88777 
15031 1 -2.14643 3.02871 2.25118 
9548 3 0.806178 -2.49414 -0.398289 
20915 2 -1.93113 5.21294 2.02382 
20916 1 2.44011 -0.58753 -2.83142 
20914 1 -2.22922 2.37633 0.387441 
8942 3 -0.394602 -5.18512 -0.906893 
12366 1 -2.15946 2.40517 -2.61027 
11187 1 -4.35215 -7.13931 -5.42855 
8943 1 0.204715 -10.5797 -0.403467 
11185 1 1.53672 2.22634 3.19423 
11186 2 0.517376 -2.1013 3.46946 
4894 1 2.11639 -7.67032 0.139499 
6520 1 0.0671365 -2.81248 -5.40003 
6112 1 2.35691 6.05266 0.42448 
11757 1 0.0552471 0.191459 -3.43864 
11756 2 6.96718 0.580753 3.29281 
11755 1 -1.64148 -0.537846 -2.15106 
6521 2 1.03514 -1.96494 1.69747 
6522 1 -1.92214 -4.04259 3.48681 
16865 3 -0.72051 -1.40635 0.625501 
16866 1 -1.02457 -2.39993 1.90633 
21470 3 -0.727434 0.131864 0.625934 
21469 1 1.84441 -0.980544 6.68546 
18615 1 -1.58295 4.63144 -1.58371 
18614 3 5.06183 -0.152486 2.55824 
18613 1 0.326854 1.92 -9.91257 
20643 1 -0.987411 4.71696 1.67104 
1864 1 8.15833 -2.58042 5.43197 
16935 1 -4.12692 1.43165 2.39085 
18873 1 0.602939 4.08193 -1.80363 
16934 2 -2.05402 1.80287 -2.67428 
16933 1 -4.11259 3.7185 -3.89382 
21163 1 -12.0843 3.98638 1.08931 
21164 3 0.258074 -4.80727 -0.912313 
21165 1 0.0944788 0.71422 2.24659 
9487 1 -2.29262 3.68965 0.956222 
9488 3 -2.03178 -0.515233 -3.70334 
9489 1 0.127019 0.636654 -2.74579 
19604 2 -2.76151 0.46807 0.51625 
19605 1 -1.43588 2.94163 4.30719 
19603 1 -2.65968 1.57175 -0.548491 
8941 1 0.456547 -1.32441 -8.30671 
4014 1 -0.460337 -1.44323 0.619432 
4012 1 1.9803 -0.911051 1.18581 
4013 3 -0.882324 0.517115 -0.0767121 
4820 3 1.99706 -2.55126 -3.02614 
4819 1 -0.702645 1.60322 1.1408 
2227 1 3.97004 0.483455 1.7648 
2228 2 -2.87956 -4.63301 3.0859 
2229 1 1.57214 -1.89611 -3.04195 
17323 1 -1.63182 -3.89295 -2.95766 
20642 2 -1.23131 1.69104 -2.46778 
20641 1 -2.36652 -4.92961 -5.51979 
3372 1 -0.795395 0.781553 -0.763691 
3370 1 -2.02014 0.663842 3.40182 
3371 3 1.25937 1.24237 3.44597 
19860 1 -2.76145 2.92275 0.89775 
1326 1 2.09759 -0.65949 -6.03225 
20958 1 2.51948 5.3034 -1.5265 
20956 1 4.9166 4.93258 2.85194 
20957 2 -2.96488 -1.98701 -2.48023 
7077 1 3.43647 -2.5855 0.894169 
7076 3 1.125 -2.23368 0.328046 
4061 2 -4.99476 2.88379 -1.58705 
4060 1 -3.85425 -0.369005 -4.96027 
4062 1 -0.997215 -8.73399 -3.41867 
19131 1 -4.93759 -1.30841 1.96173 
19130 3 -0.289751 -0.130373 1.99244 
19129 1 5.90149 1.63358 -3.4388 
4821 1 0.745543 0.313641 -0.37225 
4954 1 -1.13737 -0.269961 -2.4047 
17325 1 2.00848 -9.79476 -1.52466 
17324 3 0.270387 1.70758 1.01767 
4955 3 -4.40836 -0.597267 1.10964 
16517 3 2.57518 1.96225 -1.90164 
16518 1 4.56467 -6.76622 0.564179 
19165 1 -7.41963 3.15511 -2.32557 
19166 3 0.620492 -2.79564 -4.48124 
19167 1 3.37142 -8.05436 -5.5994 
2197 1 -1.10628 -6.7346 -8.63616 
2198 2 -5.10667 1.47004 -2.88313 
2199 1 4.4165 -1.46123 -4.8911 
8618 3 -0.820873 0.99226 2.02413 
8617 1 2.89552 4.00585 -4.94694 
907 1 -6.0968 -5.10421 -5.84168 
908 3 4.17717 -2.21971 -1.9458 
909 1 -7.65349 5.41593 5.45571 
19858 1 -3.87785 0.0226303 0.24487 
19859 2 2.82088 2.11993 -3.79306 
1325 2 -1.96392 -2.52076 -3.71179 
1324 1 -2.06677 -2.64443 0.154292 
8026 1 3.82811 6.20494 -3.19601 
8027 3 1.73047 0.995975 -0.886739 
8028 1 -2.78082 -1.83417 6.9466 
9625 1 4.77213 5.23432 2.72546 
9626 2 -0.289163 -1.08208 -1.00728 
9627 1 2.25216 -1.22019 -0.471687 
18918 1 2.0043 5.07975 -1.45055 
4237 1 -4.7299 -3.7949 -4.28179 
4238 2 2.22809 0.618947 -2.22294 
4239 1 -7.37905 -2.56941 2.86988 
5374 1 3.2744 -1.16211 5.04372 
4956 1 4.60558 -0.566541 3.70501 
5376 1 -1.47444 -3.27241 -7.65288 
5375 2 2.04731 -2.62333 -1.1284 
11981 3 -3.12723 1.76195 0.991424 
7537 1 2.08318 6.38283 4.41872 
11982 1 -9.58021 -0.0351251 -4.39285 
7539 1 -3.02397 -1.16906 2.08097 
7538 2 0.0407412 -0.535381 1.80064 
14487 1 -4.1288 3.6392 5.07593 
14486 2 4.42027 -4.66326 -1.03569 
16516 1 -3.01368 4.39322 5.09525 
14485 1 5.92121 -3.3952 0.587884 
14667 1 4.85537 0.187803 -3.71904 
14665 1 -4.02195 -3.83733 -3.03191 
14666 3 3.30652 -1.8986 3.98216 
11802 1 -1.92718 -3.66175 -0.324278 
20944 1 1.08457 1.03583 -1.65841 
11801 3 2.23219 -3.38361 1.54113 
20945 3 -1.60753 2.31999 -2.2551 
11800 1 4.851 0.866478 -3.36438 
20946 1 -1.88998 5.11383 3.5653 
12080 2 -0.0413152 -1.37175 -2.80412 
12081 1 4.75169 -3.43519 -0.242384 
7991 3 -0.0525056 1.02246 -0.557423 
7992 1 2.70069 3.0576 2.61677 
2787 1 1.11784 3.73635 0.602611 
8619 1 -0.00984998 2.56514 -0.698059 
21219 1 -3.73105 -0.955816 5.55404 
18247 1 -6.4246 2.33409 -1.14088 
18248 3 2.43569 -3.70392 -2.37232 
6343 1 1.19379 0.45813 6.52768 
18249 1 -2.88342 1.07225 -1.47295 
8282 3 -0.446351 1.09068 -1.47833 
8283 1 -2.63457 1.04233 -5.42794 
3134 2 2.08482 -2.72248 -2.35454 
3133 1 -0.357315 5.83002 -1.30478 
3135 1 6.43892 -3.0131 -1.05593 
12931 1 1.83533 -3.53592 0.435019 
7553 3 -0.998729 4.4518 -0.536971 
8281 1 5.99585 -0.274714 0.547413 
7554 1 0.439977 6.70367 -5.88536 
7885 1 3.94246 -2.77738 0.492731 
20741 3 -0.0624033 0.700838 0.397996 
20742 1 -2.80119 0.620018 -4.93205 
4325 3 2.49072 -0.652052 1.75386 
4324 1 2.73724 1.07732 2.1423 
4259 2 -1.63393 1.85442 2.711 
4258 1 -2.61966 -1.03905 -5.47693 
4260 1 -1.62883 -1.66429 1.35386 
723 1 9.20452 1.86747 1.89086 
722 2 -5.3645 0.719702 -0.497544 
721 1 0.485861 5.09054 1.22188 
4840 1 3.45418 2.04528 -0.201216 
4842 1 -2.36105 0.90881 6.02805 
4841 3 -3.01706 1.68415 -1.11386 
15834 1 -3.79883 0.0572838 1.18996 
15833 2 2.17437 -2.52715 -1.18481 
10147 1 -1.94046 6.79635 -2.65015 
15832 1 1.77906 0.998141 -1.0736 
10148 3 -5.7129 0.0436344 2.2147 
2138 3 0.496945 -1.98508 -0.743621 
2139 1 -6.98119 2.14923 0.600415 
2137 1 3.44498 -5.07079 1.11042 
10149 1 -3.73233 0.14586 -0.898348 
18686 3 1.68365 -2.27982 2.60446 
18685 1 2.15998 -1.11165 -3.00543 
18687 1 -6.33319 0.903941 1.79585 
18917 3 -4.34747 1.9851 -2.29113 
19326 1 -1.63235 -0.644845 1.20623 
19325 3 0.193156 2.96194 -2.28192 
19324 1 4.03742 -1.0096 3.04368 
3790 1 2.63599 3.63649 1.40347 
5083 1 -4.60318 3.12167 7.11785 
5085 1 0.726351 -0.370318 -0.618461 
3792 1 6.53495 4.53532 7.37037 
5084 2 -3.44004 -0.670682 -1.33644 
10276 1 -2.24372 3.36086 -0.981593 
3791 2 -5.28031 -0.652055 -0.379823 
5190 1 -4.18638 -1.97913 0.0151435 
10277 3 1.70994 -1.01923 1.61929 
10278 1 1.9216 0.379365 0.059855 
18820 1 -2.88297 -0.437742 2.37051 
11980 1 3.27157 1.58466 6.515 
18821 2 1.9794 -1.28214 2.81853 
9846 1 0.0147113 -1.40185 1.60579 
9657 1 -0.477231 4.68699 -6.52701 
9655 1 0.524626 2.12556 -1.45436 
9656 3 2.76177 -3.59204 -0.291572 
9845 2 1.68014 -0.0821553 4.06045 
9844 1 -0.762299 0.865824 0.681793 
18822 1 4.3727 -5.20314 -0.667733 
1338 1 -2.52736 -0.859504 8.7485 
19360 1 1.83074 -2.35867 -1.26099 
19361 2 -0.604054 -0.801827 -3.02975 
1337 2 0.529231 -0.345918 6.54643 
1336 1 -3.84984 1.62422 -4.84649 
18646 1 1.79501 -3.13649 -1.30997 
18647 3 -0.331621 -2.64639 -1.4544 
18648 1 4.46682 1.74549 -0.138945 
7990 1 -2.25658 2.46128 -1.97467 
21218 3 1.12 0.852553 -2.86538 
21217 1 -1.37392 3.8927 2.63869 
15931 1 -0.555407 -1.8863 -4.71323 
15932 2 0.348288 1.79462 -0.096053 
15933 1 -5.04132 -1.49946 1.19547 
20119 1 -0.290218 -2.23818 -3.70568 
20121 1 2.14369 0.235558 4.3325 
20120 3 0.905038 -0.931863 0.0111921 
18645 1 2.68857 -7.20401 1.08951 
11769 1 -2.47346 -3.17684 0.674184 
9717 1 1.7911 -0.699464 1.75631 
9715 1 1.21227 4.00485 -1.77919 
9716 3 0.171363 -0.532387 0.131164 
9476 3 -1.9261 -3.04471 1.01689 
9477 1 2.49479 2.69812 0.994613 
15658 1 -0.212225 0.982377 0.971849 
15659 2 -1.38243 -6.71573 2.95654 
15660 1 -5.55861 3.30074 -4.13102 
12932 2 -2.41651 -1.26362 0.278761 
12933 1 -0.901206 4.93748 -2.21244 
11767 1 -3.86825 -2.20327 -3.64057 
11768 2 0.00850577 -5.33244 3.19472 
7552 1 4.21963 4.75301 3.40705 
7887 1 -0.730691 -3.30163 -0.9126 
7886 3 -3.23115 0.0494396 -0.823938 
5041 1 -2.16715 1.81482 -5.68551 
5043 1 -2.49317 -1.02699 1.71303 
5042 3 1.83268 1.45311 -5.46365 
17814 1 -7.1341 0.775949 0.36829 
17813 2 -1.01253 -2.00149 1.42522 
15176 2 -3.27889 -0.925499 -2.17396 
15177 1 3.86157 4.81982 0.866587 
17812 1 4.99616 2.76583 3.30971 
15175 1 -6.25024 -0.448258 1.67947 
15714 1 -0.728551 1.14734 2.85166 
15712 1 1.41233 2.88045 -0.650693 
15713 2 -1.25394 0.0206095 -4.16107 
20740 1 -4.81449 -3.60026 5.76107 
4326 1 -4.17136 -1.61396 3.44435 
19964 2 1.26169 -0.609824 -0.324371 
19963 1 1.93494 8.51534 6.42367 
19965 1 -1.81059 3.35381 5.43856 
11377 1 -0.945307 -3.9968 0.252071 
11378 3 -1.19532 -0.12023 -2.36551 
11379 1 -0.0108825 -7.53863 1.59001 
11473 1 7.55881 -1.19903 -1.09512 
8377 1 -0.47006 -3.01706 1.98672 
6367 1 -2.29876 3.12606 -1.18733 
6368 3 2.96262 -4.92984 -1.62959 
8379 1 3.01591 -3.36325 3.4808 
6369 1 3.86351 -0.579463 4.23628 
8378 2 -2.79676 0.432067 4.8094 
6535 1 -4.42838 0.38423 1.37808 
6536 2 1.5087 -2.52792 -3.7747 
6537 1 -2.42698 1.65587 1.25718 
19362 1 1.22411 3.1228 4.69907 
9763 1 0.494097 1.88092 -2.12053 
9765 1 -6.49453 -5.00629 -1.38242 
9764 3 -0.191717 1.38087 -2.75475 
14899 1 -2.11375 6.29235 0.0559017 
14901 1 -3.64755 2.16834 4.24801 
14900 2 4.3307 0.0423165 3.22851 
403 1 -1.18801 -1.7674 0.464442 
405 1 -0.378133 -0.292153 -2.58618 
404 3 -4.99719 2.86328 3.86632 
2148 1 0.915587 1.83852 6.01422 
2147 2 -2.90029 2.3416 3.08357 
9475 1 -2.42033 -5.32704 4.67989 
10499 3 -4.38813 1.822 2.02321 
10498 1 3.83687 0.793031 -0.860729 
10500 1 1.13384 -0.0464781 3.97311 
13725 1 -1.62199 0.448248 0.830742 
11286 1 1.96795 4.21064 4.287 
11285 3 -2.36062 -0.467585 -1.92726 
11475 1 -3.58102 -1.00219 1.46066 
11474 3 0.952532 0.561356 1.08369 
19807 1 -1.38782 4.71384 0.166317 
19808 3 0.740519 1.0746 -1.38889 
19809 1 -3.07991 -6.5889 5.61668 
14967 1 1.5902 -5.44809 1.4203 
14965 1 -5.44351 -1.32037 4.75477 
14966 2 -1.4754 -3.71313 0.799783 
14444 3 2.96056 0.736639 0.948547 
14443 1 -0.304621 -3.10847 -2.47994 
14445 1 2.10333 2.20933 3.02335 
15069 1 1.90136 -3.27009 -5.27701 
15068 2 -2.5779 -1.54422 -0.118184 
15067 1 -2.97305 3.79876 -5.74213 
5426 3 1.39657 -3.01941 -0.994111 
5427 1 3.77924 -4.66306 -1.27759 
9960 1 10.536 -1.52179 -2.79794 
9959 3 0.592198 -4.00062 0.54186 
8827 1 -2.98587 1.64986 -2.53244 
8828 2 0.198658 1.28527 1.63685 
8829 1 -3.59644 -0.357376 4.15166 
13183 1 3.09315 0.224608 -0.952301 
13184 2 -0.584448 5.07694 -2.31613 
13185 1 0.503225 -2.12161 -0.251721 
2146 1 -1.77876 1.09757 2.24025 
6107 2 -4.42975 -1.75667 0.583482 
6106 1 -0.0334267 2.39647 -7.35191 
6108 1 4.26045 2.76238 2.93014 
1945 1 -1.21384 -2.42372 -2.16954 
13724 3 0.769379 -0.632072 1.96184 
13723 1 0.425815 -1.32139 0.299706 
20079 1 -2.24618 0.225011 3.89255 
20078 3 1.96358 -0.455291 -1.43138 
20077 1 3.2057 -1.4653 -5.21218 
11284 1 -2.7151 2.3035 3.02396 
5425 1 -0.412463 -1.97584 1.57957 
10125 1 -2.29728 5.21108 -1.45225 
10124 3 1.13004 -0.277057 -2.02854 
10123 1 -1.69778 -5.53759 1.38809 
11547 1 -4.05083 0.981527 -6.01441 
11546 3 3.49846 3.78716 2.64268 
11545 1 2.95148 -0.0535976 0.967683 
11940 1 0.518517 -2.85222 -0.126576 
11939 3 1.39152 0.635349 -1.5622 
11938 1 -1.8044 3.59732 -4.6221 
12159 1 1.90601 0.587822 0.421451 
12158 3 2.16061 0.119109 -1.69696 
12157 1 6.15804 -0.890181 3.66413 
9958 1 2.73097 -3.02388 -4.88605 
10204 1 -0.443905 -2.69146 -2.79246 
10205 2 -0.47016 1.04065 -1.68724 
10206 1 4.33185 1.90817 3.14123 
17793 1 7.29972 -5.61949 5.31423 
8632 1 -2.86647 -3.46278 3.57978 
1946 3 -2.34058 2.77509 -4.37164 
1947 1 2.6693 5.96377 -2.97544 
12238 1 3.29325 -0.454008 -2.73394 
6689 3 2.06992 -2.76951 -0.132057 
6688 1 -0.754204 1.2417 1.84704 
6690 1 -2.20576 -0.884407 -0.448871 
16330 1 3.58025 2.35866 6.5003 
18289 1 5.65029 -2.06918 2.81836 
18290 3 -0.799318 -0.5689 -0.477015 
18291 1 0.901597 3.76259 -1.82046 
13997 2 -1.88786 -6.22287 -0.423278 
13996 1 2.47681 2.25809 1.05103 
8956 1 0.448944 1.32029 -3.25785 
8957 2 -2.17576 -2.22808 1.58517 
8958 1 1.89723 4.83522 -0.603949 
13523 2 2.37975 -1.40152 1.04841 
13522 1 -4.94654 -1.49872 4.92572 
21285 1 1.61076 2.44529 6.41579 
21283 1 7.43748 1.7715 -0.436655 
21284 3 1.0902 -2.48312 3.11716 
14685 1 0.398647 -0.460891 -2.43836 
14684 2 -0.435579 0.571494 -0.536496 
16150 1 1.95734 0.313781 -2.58987 
16151 2 2.60755 -0.348917 -3.10118 
16152 1 6.93246 1.96265 4.91888 
14683 1 -0.298518 5.71336 0.492277 
5444 2 4.47363 1.17669 -2.13113 
5443 1 -1.21405 3.40288 -1.67507 
5445 1 -2.64333 9.93069 -0.970928 
7451 2 -0.583505 1.6328 2.88896 
7450 1 -4.73574 2.70638 0.703303 
7452 1 -3.88786 6.22986 -1.05956 
5843 3 1.05452 1.1727 -2.3872 
5842 1 0.968511 1.29655 10.501 
15570 1 -2.61081 -10.1271 4.8841 
15569 3 4.53809 0.398226 1.65858 
15568 1 0.957461 -3.18946 1.25966 
5844 1 -5.02219 0.427064 -0.486534 
20377 1 -2.57921 -0.195634 -0.320035 
20378 3 0.0537896 -1.30862 -0.130803 
8634 1 -0.321837 -2.94633 0.190797 
20379 1 -1.2177 -3.38034 -4.13618 
8633 3 2.99389 2.88061 -2.0566 
14055 1 1.2886 -1.37704 -6.43663 
14054 2 0.416605 -0.356005 -0.182289 
14053 1 1.22824 -5.82613 -0.410123 
19946 3 0.649807 1.67978 -3.52868 
19945 1 1.91081 -1.23637 1.69682 
16332 1 0.849811 -1.04269 -6.13579 
16331 2 -1.09029 1.61566 -0.997561 
1212 1 -0.227003 -3.51674 0.852281 
13998 1 1.34376 2.01814 1.18253 
18683 3 -1.9183 0.800848 -0.178875 
18682 1 1.34245 -2.59423 1.37452 
434 2 0.302162 1.54344 -1.10218 
435 1 3.51001 -1.28581 0.971974 
18684 1 6.23462 -0.766082 -1.67706 
6230 2 -3.02082 0.906233 1.14465 
6229 1 1.76125 -5.73423 3.49568 
6231 1 -5.45977 1.57848 -4.32998 
13524 1 -2.88746 -0.180536 1.49942 
9139 1 -2.92494 -0.756841 -1.45369 
9140 2 -1.19734 -2.56309 0.168699 
19947 1 3.84595 -0.642131 0.351906 
12383 3 3.50497 1.56993 1.23004 
12384 1 -2.18511 -0.639514 -2.74298 
983 3 -0.293496 3.95411 5.00391 
982 1 -2.14377 5.37233 8.74644 
1210 1 0.293267 0.999016 -5.20285 
1211 3 5.41587 2.46237 -4.64481 
9141 1 3.66841 5.57182 4.70459 
1283 3 3.30795 3.58278 3.21628 
1284 1 -3.08311 -2.07648 0.616498 
1282 1 0.868295 -1.24498 7.01665 
4569 1 0.348585 0.00993001 0.142902 
12382 1 -7.18131 0.175791 0.827286 
21460 1 1.2953 2.44484 0.549956 
1158 1 1.78557 0.924736 4.71827 
1156 1 -2.68511 3.55291 8.20331 
1157 2 2.71352 1.28246 1.05809 
4744 1 -5.27175 -0.917974 0.376043 
4745 3 0.748796 -0.103809 6.10905 
4746 1 3.01573 -0.172797 2.63733 
17355 1 2.21664 -0.336628 4.59167 
17353 1 -1.58845 -6.95027 -0.843843 
17354 3 0.979719 -2.12916 -1.24159 
552 1 -0.268396 -3.59057 0.530649 
2866 1 -1.24217 -0.146694 2.92606 
2867 3 2.37638 1.30328 -0.226094 
2868 1 -2.43796 7.47352 -1.21592 
7524 1 4.57831 -12.5722 -0.0125665 
7523 3 0.581686 0.142802 2.17103 
7522 1 4.98771 9.60665 -3.59578 
12433 1 1.67074 -6.69409 3.49411 
12435 1 0.688652 -2.49515 4.40698 
12434 3 -0.33416 2.36008 2.69627 
4568 2 1.56098 -1.63475 -1.77429 
4567 1 7.72153 -0.799958 -4.02953 
7945 1 -3.47027 7.07331 0.0461791 
7947 1 -2.03006 3.17316 -0.698633 
7946 2 0.217721 -0.597371 4.28369 
6730 1 -6.13304 2.76512 -6.60426 
6732 1 -0.68973 -1.76266 -0.889986 
6731 3 -1.46379 -0.626774 -0.986129 
11141 2 -5.70355 -2.04421 1.61226 
11140 1 -1.37917 1.28171 1.64502 
21462 1 5.15144 -8.10518 2.30214 
21461 2 -0.856406 -0.682716 -1.14636 
7053 1 -1.50462 -1.3416 -0.0345841 
8631 1 2.68006 3.84747 5.39095 
17166 1 4.08644 5.84002 6.93289 
1858 1 6.77725 -5.89054 -1.3866 
1859 3 -2.82962 -1.714 1.00436 
10408 1 1.97972 -6.17117 4.90031 
4930 1 -8.15133 -2.42286 3.54223 
10409 3 -4.93992 -0.902635 1.23563 
10410 1 0.921488 -5.05742 -2.92709 
1065 1 6.31699 2.38609 6.06053 
1064 2 2.82456 -1.79496 3.02891 
20154 1 1.08428 1.06754 -3.53775 
14882 3 -1.18886 -0.729855 0.113845 
8054 3 0.375229 2.47836 2.21326 
1860 1 4.07198 2.61457 1.88587 
3198 1 2.14294 -2.3479 -3.83687 
3197 2 1.34494 0.524977 -0.230512 
9199 1 -0.171531 7.44321 -2.322 
8053 1 -6.58649 -0.324284 -0.396346 
3196 1 -8.12079 1.03514 0.471295 
9201 1 -3.91442 3.04105 1.00028 
9200 2 1.196 0.374676 0.302099 
1063 1 5.40433 -10.1657 5.15232 
15486 1 3.47938 -4.26598 1.87472 
8580 1 3.95601 2.86394 2.87384 
14881 1 -5.5142 2.77249 -1.35278 
8579 2 -2.97253 3.51893 -2.3902 
8578 1 -3.25351 -2.24001 4.21549 
6258 1 -2.72123 3.14863 2.54928 
6257 2 -0.852077 -2.57627 0.725703 
6256 1 -5.79011 3.60742 5.33495 
18512 2 -2.6374 0.231182 -1.80222 
18513 1 -3.21499 -0.46639 5.22885 
18511 1 0.23343 0.266066 1.14476 
11614 1 -1.30044 2.21082 -1.23252 
11615 3 -3.99791 -0.803306 0.556838 
11616 1 -1.61811 1.06657 4.32914 
7083 1 0.787182 -2.61344 0.921373 
7082 3 0.461489 3.33965 -1.82204 
7081 1 -4.16984 3.06166 -6.40698 
3637 1 -2.67636 -1.90085 -0.740704 
15465 1 -0.331274 -3.51419 0.610942 
15464 2 -2.77703 -0.242738 -2.2584 
15463 1 1.29381 -4.20779 -1.41196 
3119 3 0.0244227 0.188403 0.661587 
3118 1 2.49182 -6.14709 -1.12837 
3120 1 -1.06528 0.962843 -1.56458 
21088 1 2.51845 -0.342679 -3.14362 
21089 3 4.21153 -4.55142 -3.11148 
21090 1 -4.11034 0.987526 -1.33298 
6514 1 3.35264 3.22086 3.92771 
6515 2 2.50261 -3.27493 -1.7367 
6516 1 -7.05438 0.564 6.49649 
3639 1 3.41468 -3.28745 0.441635 
3638 2 0.835391 -2.23052 2.8217 
13327 1 2.67939 -6.24148 3.7023 
13328 2 -1.02899 -0.73459 -2.49034 
13329 1 -4.69936 -0.393522 -2.10604 
17916 1 -0.11589 7.46892 -2.19982 
6977 3 3.37925 -1.92303 -1.00291 
6978 1 1.14498 -3.55421 -2.39795 
6976 1 3.03111 -2.68283 -4.09606 
21323 2 -6.27875 -2.34531 1.47697 
21322 1 -1.36524 2.20586 5.33987 
21324 1 3.86494 -7.17048 0.058468 
1497 1 -0.635894 2.12127 -4.95928 
1496 2 -0.686691 -0.84626 -0.357891 
1495 1 2.8132 2.25486 1.98478 
17915 2 -0.716602 0.615388 -0.355203 
17914 1 -7.29551 -1.13994 0.242023 
4138 1 -5.51859 4.73985 -0.800216 
4139 3 -2.87098 1.82068 1.39521 
4140 1 1.93468 1.39842 0.379263 
4090 1 -4.04019 -0.720671 -1.16736 
4091 3 0.250186 -0.689237 -3.526 
3760 1 5.71836 -2.55834 1.55331 
3761 3 -2.18832 -0.395365 -2.44655 
3579 1 2.15522 2.56367 -3.92689 
3578 3 -2.9967 0.115492 -0.896864 
3577 1 2.3157 -4.2933 -6.99863 
6211 1 -0.1712 -6.96773 0.960705 
6213 1 -3.91043 3.23917 0.0304243 
6212 2 -0.282662 -1.16414 -5.38617 
5343 1 -3.5282 3.86746 1.04368 
5341 1 0.127051 -4.29792 -0.937875 
5342 3 -3.07448 0.750961 -0.219458 
4092 1 -2.00303 5.85697 1.86476 
7097 2 1.52422 4.7767 -1.44769 
7096 1 2.6279 -2.0825 -0.186097 
7322 3 0.79914 4.48592 -0.746566 
7323 1 -0.726549 3.70848 0.652939 
7098 1 3.25896 -6.06034 0.84685 
3762 1 -1.85958 2.47394 -4.91217 
18916 1 4.4848 2.4213 -0.163402 
9907 1 1.23585 -1.57386 -1.79254 
7321 1 6.764 -8.49594 2.25763 
9908 3 6.62055 -2.38863 1.48309 
9909 1 3.82489 2.79166 -3.67465 
5189 2 -3.11933 -3.03394 3.51642 
5188 1 1.29656 -3.91164 0.60341 
14944 1 -2.40137 0.840139 -5.56104 
14945 3 -3.58794 0.654878 -0.591011 
14946 1 1.54973 -1.16045 -1.68509 
4695 1 0.904613 -2.47147 0.774131 
4694 3 0.637933 -0.907592 -4.33809 
20690 3 -3.0452 0.657308 -1.85827 
20689 1 -0.604823 2.90717 -2.10881 
14114 3 -0.378124 -3.0894 0.702684 
14113 1 -3.52447 -1.45979 -0.984364 
14115 1 3.09194 -3.25588 6.10278 
4693 1 0.000768069 0.341143 0.278726 
13819 1 4.5892 -5.31975 -4.55502 
13820 3 -5.47122 2.75084 -3.03261 
18988 1 2.8819 -3.53438 -3.5163 
433 1 7.63051 1.39895 0.956677 
4111 1 2.01237 3.72422 2.05053 
6378 1 -0.593042 -5.20686 1.61664 
6377 2 1.52408 -1.11021 0.445098 
4113 1 0.388144 -0.682296 3.25667 
4112 2 -0.445804 5.38276 -1.8596 
6376 1 8.619 5.52004 -6.97159 
2499 1 -4.23426 -0.926854 5.90417 
2498 3 -1.57616 0.355299 -0.290572 
2497 1 2.28037 -1.30759 -0.246012 
13821 1 3.86125 -0.881852 -3.14851 
18989 2 -1.93661 -3.43808 3.81201 
18990 1 -0.46047 -0.0817112 -7.08269 
17381 2 0.0169376 2.15472 -0.371129 
17380 1 3.54479 0.0138587 -1.16657 
17382 1 8.31528 3.8269 2.49734 
12727 1 4.48057 0.751194 -1.90547 
12729 1 -4.6134 -9.38497 3.67488 
12728 3 0.767843 1.90134 -1.16758 
6349 1 -0.041473 -1.13754 -0.621723 
6350 3 -3.94868 1.69902 -2.93987 
6351 1 1.42367 -1.25055 -6.28639 
20749 1 -7.00973 0.59491 4.32229 
20750 3 -0.703322 -4.53424 0.976403 
8819 3 -3.74746 -2.18039 3.2465 
8818 1 -3.1455 -0.00780618 -1.49081 
8820 1 -7.43555 1.08161 -6.5248 
19515 1 -1.89483 -4.04826 7.61047 
19514 2 2.19391 -2.23507 0.492071 
13483 1 -3.13737 0.403377 -1.75624 
13484 3 -0.341183 0.750981 1.59084 
13485 1 -2.97791 -1.63984 -0.718247 
16746 1 1.41256 -4.09745 -2.52162 
11451 1 -1.23317 2.6904 -0.103227 
384 1 1.42121 5.00776 5.78432 
382 1 -5.66833 -2.3116 0.833542 
383 2 -2.82194 -1.5885 1.32573 
2239 1 0.722821 -0.13845 -7.14659 
13289 2 2.6986 -1.14501 2.14525 
13290 1 -5.91805 -2.2589 -3.79071 
13288 1 1.58908 1.52775 2.44952 
17979 1 2.76094 1.72064 0.914266 
17978 3 0.588976 -0.268404 2.00328 
17977 1 1.37994 0.614117 -4.92421 
9178 1 5.77058 -0.378487 3.1222 
7148 3 -4.01902 1.30566 0.373722 
7149 1 0.0876833 -5.41027 4.97281 
7147 1 -0.81224 -2.28502 -1.1823 