ITEM: TIMESTEP
0
ITEM: NUMBER OF ATOMS
5472
ITEM: BOX BOUNDS pp pp pp
0.0000000000000000e+00 5.0000000000000000e+01
0.0000000000000000e+00 5.0000000000000000e+01
0.0000000000000000e+00 5.0000000000000000e+01
ITEM: ATOMS id type 
1 1 
2 3 
3 1 
130 1 
131 2 
132 1 
244 1 
245 2 
246 1 
250 1 
251 3 
252 1 
301 1 
302 3 
303 1 
307 1 
308 2 
309 1 
367 1 
368 2 
369 1 
430 1 
431 2 
432 1 
481 1 
482 3 
483 1 
1201 1 
1202 3 
1203 1 
1210 1 
1211 3 
1212 1 
1264 1 
1265 3 
1266 1 
1324 1 
1325 2 
1326 1 
1384 1 
1385 3 
1386 1 
1561 1 
1562 2 
1563 1 
1567 1 
1568 2 
1569 1 
1570 1 
1571 2 
1572 1 
2227 1 
2228 2 
2229 1 
2287 1 
2288 2 
2289 1 
2344 1 
2345 2 
2346 1 
2350 1 
2351 2 
2352 1 
2401 1 
2402 3 
2403 1 
2581 1 
2582 2 
2583 1 
2584 1 
2585 3 
2586 1 
3190 1 
3191 2 
3192 1 
3241 1 
3242 2 
3243 1 
3310 1 
3311 2 
3312 1 
3370 1 
3371 3 
3372 1 
3481 1 
3482 2 
3483 1 
3484 1 
3485 2 
3486 1 
3610 1 
3611 2 
3612 1 
3721 1 
3722 2 
3723 1 
3724 1 
3725 2 
3726 1 
3727 1 
3728 2 
3729 1 
3730 1 
3731 2 
3732 1 
4324 1 
4325 3 
4326 1 
4330 1 
4331 2 
4332 1 
4381 1 
4382 3 
4383 1 
4567 1 
4568 2 
4569 1 
4627 1 
4628 2 
4629 1 
4681 1 
4682 2 
4683 1 
4744 1 
4745 3 
4746 1 
4804 1 
4805 3 
4806 1 
4810 1 
4811 3 
4812 1 
5524 1 
5525 3 
5526 1 
5650 1 
5651 3 
5652 1 
5830 1 
5831 3 
5832 1 
5887 1 
5888 3 
5889 1 
5941 1 
5942 3 
5943 1 
6004 1 
6005 2 
6006 1 
6010 1 
6011 3 
6012 1 
6667 1 
6668 3 
6669 1 
6670 1 
6671 2 
6672 1 
6724 1 
6725 3 
6726 1 
6730 1 
6731 3 
6732 1 
6781 1 
6782 2 
6783 1 
6787 1 
6788 2 
6789 1 
6907 1 
6908 2 
6909 1 
6961 1 
6962 3 
6963 1 
7021 1 
7022 2 
7023 1 
7024 1 
7025 2 
7026 1 
7030 1 
7031 2 
7032 1 
7081 1 
7082 3 
7083 1 
7147 1 
7148 3 
7149 1 
7744 1 
7745 2 
7746 1 
7981 1 
7982 3 
7983 1 
7990 1 
7991 3 
7992 1 
8101 1 
8102 3 
8103 1 
8170 1 
8171 2 
8172 1 
8221 1 
8222 3 
8223 1 
8224 1 
8225 3 
8226 1 
8281 1 
8282 3 
8283 1 
8284 1 
8285 2 
8286 1 
8884 1 
8885 3 
8886 1 
8941 1 
8942 3 
8943 1 
9181 1 
9182 2 
9183 1 
9250 1 
9251 2 
9252 1 
9301 1 
9302 3 
9303 1 
9304 1 
9305 2 
9306 1 
9967 1 
9968 2 
9969 1 
9970 1 
9971 2 
9972 1 
10024 1 
10025 3 
10026 1 
10084 1 
10085 2 
10086 1 
10087 1 
10088 3 
10089 1 
10090 1 
10091 3 
10092 1 
10141 1 
10142 3 
10143 1 
10147 1 
10148 3 
10149 1 
10204 1 
10205 2 
10206 1 
10330 1 
10331 2 
10332 1 
10390 1 
10391 3 
10392 1 
10441 1 
10442 2 
10443 1 
10450 1 
10451 2 
10452 1 
10504 1 
10505 3 
10506 1 
22 1 
23 3 
24 1 
76 1 
77 3 
78 1 
79 1 
80 3 
81 1 
196 1 
197 2 
198 1 
256 1 
257 2 
258 1 
313 1 
314 3 
315 1 
376 1 
377 2 
378 1 
382 1 
383 2 
384 1 
433 1 
434 2 
435 1 
1156 1 
1157 2 
1158 1 
1273 1 
1274 3 
1275 1 
1282 1 
1283 3 
1284 1 
1333 1 
1334 3 
1335 1 
1336 1 
1337 2 
1338 1 
1339 1 
1340 2 
1341 1 
1396 1 
1397 2 
1398 1 
1459 1 
1460 2 
1461 1 
1462 1 
1463 2 
1464 1 
2239 1 
2240 3 
2241 1 
2473 1 
2474 2 
2475 1 
3193 1 
3194 2 
3195 1 
3196 1 
3197 2 
3198 1 
3199 1 
3200 3 
3201 1 
3259 1 
3260 2 
3261 1 
3322 1 
3323 3 
3324 1 
3556 1 
3557 3 
3558 1 
3613 1 
3614 2 
3615 1 
3619 1 
3620 2 
3621 1 
3622 1 
3623 2 
3624 1 
3682 1 
3683 3 
3684 1 
4453 1 
4454 2 
4455 1 
4456 1 
4457 2 
4458 1 
4522 1 
4523 3 
4524 1 
4579 1 
4580 2 
4581 1 
4693 1 
4694 3 
4695 1 
4696 1 
4697 3 
4698 1 
4699 1 
4700 3 
4701 1 
4756 1 
4757 2 
4758 1 
4813 1 
4814 3 
4815 1 
4819 1 
4820 3 
4821 1 
4876 1 
4877 2 
4878 1 
4879 1 
4880 3 
4881 1 
5536 1 
5537 2 
5538 1 
5542 1 
5543 3 
5544 1 
5662 1 
5663 3 
5664 1 
5716 1 
5717 2 
5718 1 
5782 1 
5783 2 
5784 1 
5842 1 
5843 3 
5844 1 
6016 1 
6017 3 
6018 1 
6739 1 
6740 2 
6741 1 
6742 1 
6743 3 
6744 1 
6793 1 
6794 2 
6795 1 
6859 1 
6860 3 
6861 1 
6913 1 
6914 2 
6915 1 
6976 1 
6977 3 
6978 1 
6982 1 
6983 2 
6984 1 
7042 1 
7043 3 
7044 1 
7096 1 
7097 2 
7098 1 
7213 1 
7214 3 
7215 1 
7216 1 
7217 2 
7218 1 
7759 1 
7760 2 
7761 1 
7822 1 
7823 3 
7824 1 
7873 1 
7874 2 
7875 1 
8053 1 
8054 3 
8055 1 
8062 1 
8063 2 
8064 1 
8239 1 
8240 2 
8241 1 
8293 1 
8294 2 
8295 1 
8893 1 
8894 2 
8895 1 
8896 1 
8897 2 
8898 1 
8956 1 
8957 2 
8958 1 
9022 1 
9023 2 
9024 1 
9073 1 
9074 2 
9075 1 
9133 1 
9134 3 
9135 1 
9139 1 
9140 2 
9141 1 
9199 1 
9200 2 
9201 1 
9979 1 
9980 2 
9981 1 
10036 1 
10037 2 
10038 1 
10096 1 
10097 2 
10098 1 
10159 1 
10160 3 
10161 1 
10162 1 
10163 3 
10164 1 
10219 1 
10220 2 
10221 1 
10273 1 
10274 2 
10275 1 
10276 1 
10277 3 
10278 1 
10462 1 
10463 2 
10464 1 
10516 1 
10517 2 
10518 1 
10522 1 
10523 3 
10524 1 
34 1 
35 3 
36 1 
214 1 
215 3 
216 1 
325 1 
326 2 
327 1 
385 1 
386 3 
387 1 
391 1 
392 3 
393 1 
505 1 
506 3 
507 1 
508 1 
509 2 
510 1 
511 1 
512 2 
513 1 
514 1 
515 3 
516 1 
1171 1 
1172 3 
1173 1 
1288 1 
1289 2 
1290 1 
1348 1 
1349 2 
1350 1 
1411 1 
1412 2 
1413 1 
1531 1 
1532 2 
1533 1 
1585 1 
1586 3 
1587 1 
1591 1 
1592 2 
1593 1 
1594 1 
1595 2 
1596 1 
1654 1 
1655 3 
1656 1 
2305 1 
2306 3 
2307 1 
2374 1 
2375 2 
2376 1 
2431 1 
2432 3 
2433 1 
2488 1 
2489 2 
2490 1 
2491 1 
2492 2 
2493 1 
2494 1 
2495 3 
2496 1 
2605 1 
2606 2 
2607 1 
3328 1 
3329 3 
3330 1 
3334 1 
3335 3 
3336 1 
3391 1 
3392 2 
3393 1 
3394 1 
3395 3 
3396 1 
3445 1 
3446 2 
3447 1 
3451 1 
3452 3 
3453 1 
3505 1 
3506 3 
3507 1 
3511 1 
3512 2 
3513 1 
3565 1 
3566 2 
3567 1 
3568 1 
3569 2 
3570 1 
3571 1 
3572 3 
3573 1 
3745 1 
3746 3 
3747 1 
4351 1 
4352 3 
4353 1 
4354 1 
4355 2 
4356 1 
4408 1 
4409 2 
4410 1 
4528 1 
4529 2 
4530 1 
4645 1 
4646 2 
4647 1 
4648 1 
4649 2 
4650 1 
4651 1 
4652 3 
4653 1 
4828 1 
4829 3 
4830 1 
4894 1 
4895 3 
4896 1 
5605 1 
5606 2 
5607 1 
5665 1 
5666 3 
5667 1 
5911 1 
5912 3 
5913 1 
5965 1 
5966 3 
5967 1 
5968 1 
5969 3 
5970 1 
5971 1 
5972 3 
5973 1 
6025 1 
6026 3 
6027 1 
6031 1 
6032 2 
6033 1 
6685 1 
6686 2 
6687 1 
6688 1 
6689 3 
6690 1 
6691 1 
6692 2 
6693 1 
6745 1 
6746 2 
6747 1 
6748 1 
6749 2 
6750 1 
6754 1 
6755 3 
6756 1 
6871 1 
6872 2 
6873 1 
6925 1 
6926 3 
6927 1 
6988 1 
6989 2 
6990 1 
7045 1 
7046 3 
7047 1 
7051 1 
7052 2 
7053 1 
7108 1 
7109 3 
7110 1 
7111 1 
7112 2 
7113 1 
7114 1 
7115 2 
7116 1 
7168 1 
7169 3 
7170 1 
7765 1 
7766 3 
7767 1 
7828 1 
7829 2 
7830 1 
7885 1 
7886 3 
7887 1 
7888 1 
7889 2 
7890 1 
7891 1 
7892 2 
7893 1 
7945 1 
7946 2 
7947 1 
8005 1 
8006 2 
8007 1 
8011 1 
8012 3 
8013 1 
8065 1 
8066 2 
8067 1 
8068 1 
8069 3 
8070 1 
8071 1 
8072 2 
8073 1 
8128 1 
8129 2 
8130 1 
8194 1 
8195 3 
8196 1 
8248 1 
8249 3 
8250 1 
8251 1 
8252 3 
8253 1 
8308 1 
8309 2 
8310 1 
8314 1 
8315 2 
8316 1 
8908 1 
8909 3 
8910 1 
9025 1 
9026 2 
9027 1 
9031 1 
9032 2 
9033 1 
9034 1 
9035 3 
9036 1 
9085 1 
9086 3 
9087 1 
9088 1 
9089 2 
9090 1 
9091 1 
9092 2 
9093 1 
9094 1 
9095 2 
9096 1 
9145 1 
9146 3 
9147 1 
9148 1 
9149 3 
9150 1 
9265 1 
9266 3 
9267 1 
9325 1 
9326 2 
9327 1 
9331 1 
9332 2 
9333 1 
9985 1 
9986 3 
9987 1 
10165 1 
10166 2 
10167 1 
10225 1 
10226 3 
10227 1 
10234 1 
10235 3 
10236 1 
10294 1 
10295 3 
10296 1 
10348 1 
10349 3 
10350 1 
10405 1 
10406 3 
10407 1 
10408 1 
10409 3 
10410 1 
10411 1 
10412 2 
10413 1 
10465 1 
10466 2 
10467 1 
10531 1 
10532 2 
10533 1 
37 1 
38 2 
39 1 
43 1 
44 2 
45 1 
103 1 
104 3 
105 1 
160 1 
161 3 
162 1 
217 1 
218 3 
219 1 
226 1 
227 2 
228 1 
280 1 
281 2 
282 1 
286 1 
287 3 
288 1 
403 1 
404 3 
405 1 
460 1 
461 2 
462 1 
1177 1 
1178 3 
1179 1 
1306 1 
1307 2 
1308 1 
1363 1 
1364 2 
1365 1 
1417 1 
1418 3 
1419 1 
1483 1 
1484 3 
1485 1 
1537 1 
1538 3 
1539 1 
1543 1 
1544 2 
1545 1 
1597 1 
1598 3 
1599 1 
1660 1 
1661 2 
1662 1 
2320 1 
2321 3 
2322 1 
2323 1 
2324 3 
2325 1 
2437 1 
2438 2 
2439 1 
2497 1 
2498 3 
2499 1 
2506 1 
2507 3 
2508 1 
2560 1 
2561 2 
2562 1 
2563 1 
2564 2 
2565 1 
3220 1 
3221 3 
3222 1 
3223 1 
3224 3 
3225 1 
3277 1 
3278 2 
3279 1 
3340 1 
3341 2 
3342 1 
3343 1 
3344 2 
3345 1 
3397 1 
3398 3 
3399 1 
3577 1 
3578 3 
3579 1 
3580 1 
3581 2 
3582 1 
3586 1 
3587 3 
3588 1 
3637 1 
3638 2 
3639 1 
3697 1 
3698 2 
3699 1 
3760 1 
3761 3 
3762 1 
4357 1 
4358 3 
4359 1 
4483 1 
4484 2 
4485 1 
4537 1 
4538 2 
4539 1 
4606 1 
4607 2 
4608 1 
4660 1 
4661 2 
4662 1 
4720 1 
4721 2 
4722 1 
4840 1 
4841 3 
4842 1 
4900 1 
4901 3 
4902 1 
5560 1 
5561 3 
5562 1 
5740 1 
5741 2 
5742 1 
5746 1 
5747 2 
5748 1 
5797 1 
5798 2 
5799 1 
5800 1 
5801 2 
5802 1 
5863 1 
5864 2 
5865 1 
5923 1 
5924 3 
5925 1 
5926 1 
5927 3 
5928 1 
5986 1 
5987 3 
5988 1 
6703 1 
6704 3 
6705 1 
6760 1 
6761 2 
6762 1 
6763 1 
6764 3 
6765 1 
6823 1 
6824 3 
6825 1 
6883 1 
6884 3 
6885 1 
6940 1 
6941 2 
6942 1 
6943 1 
6944 3 
6945 1 
7003 1 
7004 2 
7005 1 
7183 1 
7184 3 
7185 1 
7780 1 
7781 3 
7782 1 
7843 1 
7844 3 
7845 1 
8017 1 
8018 2 
8019 1 
8026 1 
8027 3 
8028 1 
8077 1 
8078 3 
8079 1 
8083 1 
8084 2 
8085 1 
8206 1 
8207 3 
8208 1 
8986 1 
8987 3 
8988 1 
9046 1 
9047 3 
9048 1 
9163 1 
9164 3 
9165 1 
9217 1 
9218 2 
9219 1 
9277 1 
9278 2 
9279 1 
9340 1 
9341 3 
9342 1 
10066 1 
10067 3 
10068 1 
10120 1 
10121 3 
10122 1 
10123 1 
10124 3 
10125 1 
10237 1 
10238 2 
10239 1 
10477 1 
10478 2 
10479 1 
10540 1 
10541 3 
10542 1 
58 1 
59 3 
60 1 
109 1 
110 3 
111 1 
289 1 
290 3 
291 1 
409 1 
410 2 
411 1 
415 1 
416 3 
417 1 
469 1 
470 2 
471 1 
472 1 
473 3 
474 1 
532 1 
533 3 
534 1 
535 1 
536 3 
537 1 
1189 1 
1190 3 
1191 1 
1255 1 
1256 2 
1257 1 
1258 1 
1259 2 
1260 1 
1309 1 
1310 3 
1311 1 
1435 1 
1436 3 
1437 1 
1489 1 
1490 2 
1491 1 
1495 1 
1496 2 
1497 1 
2332 1 
2333 2 
2334 1 
2569 1 
2570 3 
2571 1 
2578 1 
2579 3 
2580 1 
2629 1 
2630 2 
2631 1 
3292 1 
3293 3 
3294 1 
3349 1 
3350 2 
3351 1 
3409 1 
3410 2 
3411 1 
3412 1 
3413 2 
3414 1 
3472 1 
3473 3 
3474 1 
3475 1 
3476 2 
3477 1 
3589 1 
3590 2 
3591 1 
3649 1 
3650 2 
3651 1 
3655 1 
3656 2 
3657 1 
3709 1 
3710 2 
3711 1 
3715 1 
3716 2 
3717 1 
3718 1 
3719 2 
3720 1 
4435 1 
4436 3 
4437 1 
4489 1 
4490 3 
4491 1 
4492 1 
4493 2 
4494 1 
4552 1 
4553 3 
4554 1 
4612 1 
4613 3 
4614 1 
4732 1 
4733 3 
4734 1 
5515 1 
5516 2 
5517 1 
5632 1 
5633 3 
5634 1 
5758 1 
5759 3 
5760 1 
5872 1 
5873 2 
5874 1 
5932 1 
5933 3 
5934 1 
6718 1 
6719 3 
6720 1 
6772 1 
6773 2 
6774 1 
6775 1 
6776 2 
6777 1 
6832 1 
6833 3 
6834 1 
6889 1 
6890 3 
6891 1 
6955 1 
6956 3 
6957 1 
7012 1 
7013 3 
7014 1 
7072 1 
7073 2 
7074 1 
7075 1 
7076 3 
7077 1 
7078 1 
7079 2 
7080 1 
7135 1 
7136 2 
7137 1 
7255 1 
7256 2 
7257 1 
7789 1 
7790 2 
7791 1 
7792 1 
7793 2 
7794 1 
7798 1 
7799 2 
7800 1 
7855 1 
7856 3 
7857 1 
7909 1 
7910 3 
7911 1 
7972 1 
7973 2 
7974 1 
7975 1 
7976 2 
7977 1 
8032 1 
8033 3 
8034 1 
8098 1 
8099 3 
8100 1 
8938 1 
8939 2 
8940 1 
9055 1 
9056 2 
9057 1 
9109 1 
9110 3 
9111 1 
9112 1 
9113 3 
9114 1 
9169 1 
9170 3 
9171 1 
9172 1 
9173 3 
9174 1 
9178 1 
9179 2 
9180 1 
9238 1 
9239 2 
9240 1 
9295 1 
9296 2 
9297 1 
9349 1 
9350 2 
9351 1 
10012 1 
10013 3 
10014 1 
10015 1 
10016 3 
10017 1 
10072 1 
10073 2 
10074 1 
10249 1 
10250 2 
10251 1 
10309 1 
10310 2 
10311 1 
10312 1 
10313 3 
10314 1 
10369 1 
10370 2 
10371 1 
10372 1 
10373 2 
10374 1 
10375 1 
10376 2 
10377 1 
10429 1 
10430 3 
10431 1 
10489 1 
10490 3 
10491 1 
10492 1 
10493 3 
10494 1 
10498 1 
10499 3 
10500 1 
10549 1 
10550 3 
10551 1 
550 1 
551 2 
552 1 
721 1 
722 2 
723 1 
781 1 
782 2 
783 1 
784 1 
785 3 
786 1 
790 1 
791 3 
792 1 
850 1 
851 2 
852 1 
907 1 
908 3 
909 1 
967 1 
968 2 
969 1 
1024 1 
1025 2 
1026 1 
1030 1 
1031 3 
1032 1 
1081 1 
1082 3 
1083 1 
1084 1 
1085 3 
1086 1 
1681 1 
1682 3 
1683 1 
1684 1 
1685 2 
1686 1 
1744 1 
1745 3 
1746 1 
1747 1 
1748 3 
1749 1 
1804 1 
1805 3 
1806 1 
1861 1 
1862 3 
1863 1 
1864 1 
1865 2 
1866 1 
1921 1 
1922 3 
1923 1 
1927 1 
1928 2 
1929 1 
1930 1 
1931 3 
1932 1 
2167 1 
2168 2 
2169 1 
2644 1 
2645 2 
2646 1 
2647 1 
2648 3 
2649 1 
2710 1 
2711 3 
2712 1 
2821 1 
2822 3 
2823 1 
2947 1 
2948 2 
2949 1 
3061 1 
3062 3 
3063 1 
3127 1 
3128 3 
3129 1 
3787 1 
3788 2 
3789 1 
3790 1 
3791 2 
3792 1 
3844 1 
3845 2 
3846 1 
3847 1 
3848 2 
3849 1 
3961 1 
3962 3 
3963 1 
4024 1 
4025 3 
4026 1 
4030 1 
4031 3 
4032 1 
4090 1 
4091 3 
4092 1 
4150 1 
4151 3 
4152 1 
4207 1 
4208 3 
4209 1 
4921 1 
4922 3 
4923 1 
4924 1 
4925 2 
4926 1 
4930 1 
4931 2 
4932 1 
5041 1 
5042 3 
5043 1 
5281 1 
5282 2 
5283 1 
5341 1 
5342 3 
5343 1 
6307 1 
6308 3 
6309 1 
6361 1 
6362 2 
6363 1 
6367 1 
6368 3 
6369 1 
6421 1 
6422 2 
6423 1 
7270 1 
7271 2 
7272 1 
7321 1 
7322 3 
7323 1 
7327 1 
7328 2 
7329 1 
7390 1 
7391 2 
7392 1 
7450 1 
7451 2 
7452 1 
7561 1 
7562 2 
7563 1 
7564 1 
7565 2 
7566 1 
7570 1 
7571 3 
7572 1 
7690 1 
7691 3 
7692 1 
8344 1 
8345 3 
8346 1 
8410 1 
8411 3 
8412 1 
8470 1 
8471 3 
8472 1 
8524 1 
8525 2 
8526 1 
8581 1 
8582 2 
8583 1 
8641 1 
8642 2 
8643 1 
8767 1 
8768 2 
8769 1 
8827 1 
8828 2 
8829 1 
9361 1 
9362 3 
9363 1 
9370 1 
9371 3 
9372 1 
9481 1 
9482 3 
9483 1 
9487 1 
9488 3 
9489 1 
9541 1 
9542 2 
9543 1 
9544 1 
9545 2 
9546 1 
9547 1 
9548 3 
9549 1 
9604 1 
9605 2 
9606 1 
9721 1 
9722 3 
9723 1 
9727 1 
9728 3 
9729 1 
9781 1 
9782 2 
9783 1 
9790 1 
9791 3 
9792 1 
9844 1 
9845 2 
9846 1 
9901 1 
9902 2 
9903 1 
9907 1 
9908 3 
9909 1 
10627 1 
10628 3 
10629 1 
10681 1 
10682 3 
10683 1 
10741 1 
10742 3 
10743 1 
10807 1 
10808 2 
10809 1 
10861 1 
10862 2 
10863 1 
10870 1 
10871 3 
10872 1 
10927 1 
10928 3 
10929 1 
10987 1 
10988 2 
10989 1 
10990 1 
10991 3 
10992 1 
616 1 
617 3 
618 1 
682 1 
683 2 
684 1 
733 1 
734 2 
735 1 
736 1 
737 2 
738 1 
796 1 
797 3 
798 1 
859 1 
860 2 
861 1 
982 1 
983 3 
984 1 
1033 1 
1034 2 
1035 1 
1036 1 
1037 2 
1038 1 
1042 1 
1043 3 
1044 1 
1096 1 
1097 2 
1098 1 
1759 1 
1760 3 
1761 1 
1762 1 
1763 2 
1764 1 
1993 1 
1994 3 
1995 1 
1996 1 
1997 3 
1998 1 
2002 1 
2003 2 
2004 1 
2053 1 
2054 3 
2055 1 
2062 1 
2063 2 
2064 1 
2176 1 
2177 3 
2178 1 
2773 1 
2774 3 
2775 1 
2782 1 
2783 3 
2784 1 
2959 1 
2960 3 
2961 1 
3133 1 
3134 2 
3135 1 
3136 1 
3137 3 
3138 1 
3793 1 
3794 2 
3795 1 
3799 1 
3800 3 
3801 1 
3853 1 
3854 2 
3855 1 
3862 1 
3863 3 
3864 1 
3913 1 
3914 3 
3915 1 
3919 1 
3920 3 
3921 1 
4096 1 
4097 2 
4098 1 
4102 1 
4103 2 
4104 1 
4153 1 
4154 3 
4155 1 
4162 1 
4163 2 
4164 1 
4222 1 
4223 2 
4224 1 
4276 1 
4277 3 
4278 1 
4282 1 
4283 3 
4284 1 
4936 1 
4937 2 
4938 1 
4939 1 
4940 2 
4941 1 
4993 1 
4994 3 
4995 1 
5056 1 
5057 3 
5058 1 
5113 1 
5114 3 
5115 1 
5119 1 
5120 2 
5121 1 
5182 1 
5183 3 
5184 1 
5239 1 
5240 3 
5241 1 
5302 1 
5303 3 
5304 1 
5362 1 
5363 2 
5364 1 
5413 1 
5414 3 
5415 1 
5422 1 
5423 2 
5424 1 
6079 1 
6080 3 
6081 1 
6193 1 
6194 2 
6195 1 
6199 1 
6200 3 
6201 1 
6202 1 
6203 2 
6204 1 
6256 1 
6257 2 
6258 1 
6259 1 
6260 2 
6261 1 
6376 1 
6377 2 
6378 1 
6379 1 
6380 3 
6381 1 
6442 1 
6443 2 
6444 1 
6496 1 
6497 2 
6498 1 
6616 1 
6617 2 
6618 1 
7282 1 
7283 2 
7284 1 
7336 1 
7337 3 
7338 1 
7393 1 
7394 2 
7395 1 
7453 1 
7454 3 
7455 1 
7513 1 
7514 2 
7515 1 
7522 1 
7523 3 
7524 1 
7573 1 
7574 2 
7575 1 
7576 1 
7577 3 
7578 1 
7642 1 
7643 2 
7644 1 
8362 1 
8363 2 
8364 1 
8593 1 
8594 2 
8595 1 
8773 1 
8774 3 
8775 1 
9373 1 
9374 3 
9375 1 
9382 1 
9383 2 
9384 1 
9433 1 
9434 2 
9435 1 
9442 1 
9443 3 
9444 1 
9499 1 
9500 2 
9501 1 
9502 1 
9503 2 
9504 1 
9619 1 
9620 2 
9621 1 
9673 1 
9674 3 
9675 1 
9679 1 
9680 3 
9681 1 
9733 1 
9734 2 
9735 1 
9742 1 
9743 3 
9744 1 
10696 1 
10697 3 
10698 1 
10699 1 
10700 3 
10701 1 
10753 1 
10754 2 
10755 1 
10816 1 
10817 2 
10818 1 
10822 1 
10823 3 
10824 1 
10879 1 
10880 2 
10881 1 
10882 1 
10883 2 
10884 1 
10942 1 
10943 2 
10944 1 
11002 1 
11003 3 
11004 1 
628 1 
629 3 
630 1 
691 1 
692 3 
693 1 
871 1 
872 2 
873 1 
988 1 
989 2 
990 1 
994 1 
995 3 
996 1 
1105 1 
1106 3 
1107 1 
1711 1 
1712 3 
1713 1 
1714 1 
1715 3 
1716 1 
1828 1 
1829 2 
1830 1 
1834 1 
1835 3 
1836 1 
1945 1 
1946 3 
1947 1 
2128 1 
2129 3 
2130 1 
2134 1 
2135 3 
2136 1 
2785 1 
2786 2 
2787 1 
2848 1 
2849 3 
2850 1 
2851 1 
2852 3 
2853 1 
2905 1 
2906 3 
2907 1 
2908 1 
2909 2 
2910 1 
2914 1 
2915 2 
2916 1 
3145 1 
3146 3 
3147 1 
3151 1 
3152 2 
3153 1 
3814 1 
3815 2 
3816 1 
3994 1 
3995 3 
3996 1 
4048 1 
4049 2 
4050 1 
4105 1 
4106 3 
4107 1 
4111 1 
4112 2 
4113 1 
4174 1 
4175 2 
4176 1 
4285 1 
4286 3 
4287 1 
4948 1 
4949 3 
4950 1 
4954 1 
4955 3 
4956 1 
5008 1 
5009 3 
5010 1 
5014 1 
5015 3 
5016 1 
5125 1 
5126 3 
5127 1 
5185 1 
5186 3 
5187 1 
5188 1 
5189 2 
5190 1 
5365 1 
5366 3 
5367 1 
5374 1 
5375 2 
5376 1 
5425 1 
5426 3 
5427 1 
6148 1 
6149 3 
6150 1 
6151 1 
6152 3 
6153 1 
6205 1 
6206 2 
6207 1 
6211 1 
6212 2 
6213 1 
6325 1 
6326 3 
6327 1 
6391 1 
6392 3 
6393 1 
6451 1 
6452 3 
6453 1 
6514 1 
6515 2 
6516 1 
6625 1 
6626 2 
6627 1 
6634 1 
6635 2 
6636 1 
7348 1 
7349 3 
7350 1 
7405 1 
7406 2 
7407 1 
7411 1 
7412 2 
7413 1 
7471 1 
7472 2 
7473 1 
7531 1 
7532 3 
7533 1 
7534 1 
7535 2 
7536 1 
7645 1 
7646 3 
7647 1 
7654 1 
7655 2 
7656 1 
7708 1 
7709 2 
7710 1 
7714 1 
7715 3 
7716 1 
8365 1 
8366 2 
8367 1 
8425 1 
8426 2 
8427 1 
8431 1 
8432 3 
8433 1 
8608 1 
8609 2 
8610 1 
8668 1 
8669 3 
8670 1 
8671 1 
8672 3 
8673 1 
8791 1 
8792 3 
8793 1 
8794 1 
8795 2 
8796 1 
8848 1 
8849 2 
8850 1 
9385 1 
9386 2 
9387 1 
9388 1 
9389 2 
9390 1 
9445 1 
9446 3 
9447 1 
9451 1 
9452 3 
9453 1 
9505 1 
9506 2 
9507 1 
9571 1 
9572 2 
9573 1 
9625 1 
9626 2 
9627 1 
9631 1 
9632 3 
9633 1 
9745 1 
9746 2 
9747 1 
9814 1 
9815 3 
9816 1 
9871 1 
9872 3 
9873 1 
10594 1 
10595 2 
10596 1 
10654 1 
10655 3 
10656 1 
10705 1 
10706 2 
10707 1 
10711 1 
10712 3 
10713 1 
10714 1 
10715 3 
10716 1 
10888 1 
10889 3 
10890 1 
10951 1 
10952 2 
10953 1 
11008 1 
11009 2 
11010 1 
11068 1 
11069 3 
11070 1 
580 1 
581 2 
582 1 
586 1 
587 2 
588 1 
757 1 
758 2 
759 1 
763 1 
764 3 
765 1 
766 1 
767 2 
768 1 
823 1 
824 2 
825 1 
877 1 
878 2 
879 1 
1060 1 
1061 2 
1062 1 
1063 1 
1064 2 
1065 1 
1066 1 
1067 3 
1068 1 
1837 1 
1838 2 
1839 1 
1846 1 
1847 3 
1848 1 
1960 1 
1961 3 
1962 1 
2017 1 
2018 2 
2019 1 
2137 1 
2138 3 
2139 1 
2146 1 
2147 2 
2148 1 
2197 1 
2198 2 
2199 1 
2800 1 
2801 3 
2802 1 
2866 1 
2867 3 
2868 1 
2923 1 
2924 2 
2925 1 
2977 1 
2978 2 
2979 1 
3040 1 
3041 3 
3042 1 
3160 1 
3161 2 
3162 1 
3877 1 
3878 3 
3879 1 
4006 1 
4007 2 
4008 1 
4060 1 
4061 2 
4062 1 
4066 1 
4067 2 
4068 1 
4177 1 
4178 2 
4179 1 
4183 1 
4184 3 
4185 1 
4237 1 
4238 2 
4239 1 
4300 1 
4301 2 
4302 1 
4303 1 
4304 3 
4305 1 
4960 1 
4961 2 
4962 1 
5083 1 
5084 2 
5085 1 
5140 1 
5141 2 
5142 1 
5323 1 
5324 3 
5325 1 
5377 1 
5378 2 
5379 1 
5443 1 
5444 2 
5445 1 
6097 1 
6098 3 
6099 1 
6106 1 
6107 2 
6108 1 
6157 1 
6158 3 
6159 1 
6217 1 
6218 3 
6219 1 
6220 1 
6221 3 
6222 1 
6277 1 
6278 2 
6279 1 
6283 1 
6284 3 
6285 1 
6340 1 
6341 2 
6342 1 
6343 1 
6344 3 
6345 1 
6346 1 
6347 3 
6348 1 
6403 1 
6404 2 
6405 1 
6520 1 
6521 2 
6522 1 
6523 1 
6524 3 
6525 1 
6526 1 
6527 3 
6528 1 
6640 1 
6641 2 
6642 1 
7303 1 
7304 3 
7305 1 
7306 1 
7307 2 
7308 1 
7486 1 
7487 3 
7488 1 
7537 1 
7538 2 
7539 1 
7717 1 
7718 3 
7719 1 
7720 1 
7721 3 
7722 1 
7723 1 
7724 2 
7725 1 
8377 1 
8378 2 
8379 1 
8380 1 
8381 3 
8382 1 
8386 1 
8387 2 
8388 1 
8503 1 
8504 2 
8505 1 
8563 1 
8564 2 
8565 1 
8617 1 
8618 3 
8619 1 
8686 1 
8687 3 
8688 1 
8743 1 
8744 2 
8745 1 
8857 1 
8858 2 
8859 1 
9457 1 
9458 2 
9459 1 
9460 1 
9461 3 
9462 1 
9517 1 
9518 3 
9519 1 
9583 1 
9584 3 
9585 1 
9586 1 
9587 2 
9588 1 
9697 1 
9698 2 
9699 1 
9703 1 
9704 3 
9705 1 
9757 1 
9758 3 
9759 1 
9763 1 
9764 3 
9765 1 
9826 1 
9827 2 
9828 1 
9886 1 
9887 3 
9888 1 
9940 1 
9941 2 
9942 1 
10666 1 
10667 2 
10668 1 
10723 1 
10724 3 
10725 1 
10846 1 
10847 2 
10848 1 
10957 1 
10958 2 
10959 1 
10960 1 
10961 3 
10962 1 
10963 1 
10964 3 
10965 1 
11083 1 
11084 3 
11085 1 
598 1 
599 3 
600 1 
649 1 
650 3 
651 1 
652 1 
653 2 
654 1 
718 1 
719 2 
720 1 
889 1 
890 2 
891 1 
1009 1 
1010 2 
1011 1 
1015 1 
1016 2 
1017 1 
1072 1 
1073 2 
1074 1 
1078 1 
1079 3 
1080 1 
1735 1 
1736 3 
1737 1 
1798 1 
1799 3 
1800 1 
1849 1 
1850 3 
1851 1 
1858 1 
1859 3 
1860 1 
1909 1 
1910 3 
1911 1 
1969 1 
1970 3 
1971 1 
2032 1 
2033 2 
2034 1 
2095 1 
2096 3 
2097 1 
2098 1 
2099 2 
2100 1 
2155 1 
2156 3 
2157 1 
2755 1 
2756 3 
2757 1 
2758 1 
2759 3 
2760 1 
2818 1 
2819 2 
2820 1 
2869 1 
2870 2 
2871 1 
2938 1 
2939 2 
2940 1 
2992 1 
2993 3 
2994 1 
2995 1 
2996 2 
2997 1 
3109 1 
3110 3 
3111 1 
3118 1 
3119 3 
3120 1 
3178 1 
3179 2 
3180 1 
3958 1 
3959 2 
3960 1 
4012 1 
4013 3 
4014 1 
4129 1 
4130 2 
4131 1 
4138 1 
4139 3 
4140 1 
4258 1 
4259 2 
4260 1 
5095 1 
5096 3 
5097 1 
5209 1 
5210 2 
5211 1 
6112 1 
6113 2 
6114 1 
6229 1 
6230 2 
6231 1 
6289 1 
6290 2 
6291 1 
6292 1 
6293 2 
6294 1 
6349 1 
6350 3 
6351 1 
6358 1 
6359 2 
6360 1 
6469 1 
6470 2 
6471 1 
6535 1 
6536 2 
6537 1 
6595 1 
6596 2 
6597 1 
6658 1 
6659 3 
6660 1 
7318 1 
7319 3 
7320 1 
7369 1 
7370 3 
7371 1 
7378 1 
7379 2 
7380 1 
7429 1 
7430 3 
7431 1 
7435 1 
7436 3 
7437 1 
7438 1 
7439 2 
7440 1 
7489 1 
7490 3 
7491 1 
7495 1 
7496 3 
7497 1 
7498 1 
7499 2 
7500 1 
7552 1 
7553 3 
7554 1 
7618 1 
7619 3 
7620 1 
8395 1 
8396 2 
8397 1 
8398 1 
8399 2 
8400 1 
8452 1 
8453 2 
8454 1 
8458 1 
8459 3 
8460 1 
8512 1 
8513 3 
8514 1 
8518 1 
8519 2 
8520 1 
8578 1 
8579 2 
8580 1 
8629 1 
8630 3 
8631 1 
8632 1 
8633 3 
8634 1 
8689 1 
8690 2 
8691 1 
8749 1 
8750 3 
8751 1 
8758 1 
8759 2 
8760 1 
8815 1 
8816 2 
8817 1 
8818 1 
8819 3 
8820 1 
8869 1 
8870 2 
8871 1 
8875 1 
8876 2 
8877 1 
9412 1 
9413 3 
9414 1 
9475 1 
9476 3 
9477 1 
9538 1 
9539 2 
9540 1 
9655 1 
9656 3 
9657 1 
9715 1 
9716 3 
9717 1 
9829 1 
9830 3 
9831 1 
9892 1 
9893 2 
9894 1 
9958 1 
9959 3 
9960 1 
10618 1 
10619 2 
10620 1 
10735 1 
10736 2 
10737 1 
10855 1 
10856 3 
10857 1 
10978 1 
10979 2 
10980 1 
11098 1 
11099 3 
11100 1 
11164 1 
11165 3 
11166 1 
11224 1 
11225 2 
11226 1 
11281 1 
11282 2 
11283 1 
11284 1 
11285 3 
11286 1 
11290 1 
11291 2 
11292 1 
11341 1 
11342 3 
11343 1 
11344 1 
11345 2 
11346 1 
11347 1 
11348 3 
11349 1 
11404 1 
11405 3 
11406 1 
11407 1 
11408 3 
11409 1 
11464 1 
11465 2 
11466 1 
12064 1 
12065 2 
12066 1 
12127 1 
12128 3 
12129 1 
12184 1 
12185 2 
12186 1 
12241 1 
12242 2 
12243 1 
12244 1 
12245 2 
12246 1 
12307 1 
12308 2 
12309 1 
12364 1 
12365 3 
12366 1 
12370 1 
12371 3 
12372 1 
12427 1 
12428 3 
12429 1 
12481 1 
12482 3 
12483 1 
12541 1 
12542 3 
12543 1 
12547 1 
12548 3 
12549 1 
12601 1 
12602 2 
12603 1 
13204 1 
13205 3 
13206 1 
13270 1 
13271 2 
13272 1 
13327 1 
13328 2 
13329 1 
13390 1 
13391 2 
13392 1 
13447 1 
13448 2 
13449 1 
13561 1 
13562 3 
13563 1 
14224 1 
14225 3 
14226 1 
14287 1 
14288 3 
14289 1 
14404 1 
14405 3 
14406 1 
14521 1 
14522 2 
14523 1 
14527 1 
14528 3 
14529 1 
14587 1 
14588 2 
14589 1 
14647 1 
14648 2 
14649 1 
14650 1 
14651 2 
14652 1 
15301 1 
15302 3 
15303 1 
15421 1 
15422 3 
15423 1 
15424 1 
15425 2 
15426 1 
15484 1 
15485 2 
15486 1 
15490 1 
15491 3 
15492 1 
15664 1 
15665 2 
15666 1 
15721 1 
15722 2 
15723 1 
15724 1 
15725 3 
15726 1 
16321 1 
16322 3 
16323 1 
16330 1 
16331 2 
16332 1 
16447 1 
16448 2 
16449 1 
16450 1 
16451 2 
16452 1 
16501 1 
16502 3 
16503 1 
16504 1 
16505 2 
16506 1 
16681 1 
16682 3 
16683 1 
16684 1 
16685 2 
16686 1 
17281 1 
17282 2 
17283 1 
17287 1 
17288 3 
17289 1 
17290 1 
17291 2 
17292 1 
17350 1 
17351 2 
17352 1 
17404 1 
17405 2 
17406 1 
17461 1 
17462 2 
17463 1 
17587 1 
17588 3 
17589 1 
17644 1 
17645 3 
17646 1 
17647 1 
17648 2 
17649 1 
18544 1 
18545 3 
18546 1 
18601 1 
18602 3 
18603 1 
18604 1 
18605 3 
18606 1 
18661 1 
18662 2 
18663 1 
18664 1 
18665 3 
18666 1 
18667 1 
18668 3 
18669 1 
18781 1 
18782 2 
18783 1 
18844 1 
18845 2 
18846 1 
18847 1 
18848 2 
18849 1 
19501 1 
19502 3 
19503 1 
19507 1 
19508 3 
19509 1 
19564 1 
19565 2 
19566 1 
19570 1 
19571 2 
19572 1 
19681 1 
19682 3 
19683 1 
19744 1 
19745 2 
19746 1 
19747 1 
19748 3 
19749 1 
19804 1 
19805 3 
19806 1 
19807 1 
19808 3 
19809 1 
19870 1 
19871 3 
19872 1 
20641 1 
20642 2 
20643 1 
20647 1 
20648 2 
20649 1 
20704 1 
20705 3 
20706 1 
20707 1 
20708 3 
20709 1 
20770 1 
20771 3 
20772 1 
20827 1 
20828 2 
20829 1 
20887 1 
20888 2 
20889 1 
20944 1 
20945 3 
20946 1 
20950 1 
20951 3 
20952 1 
21001 1 
21002 2 
21003 1 
11173 1 
11174 2 
11175 1 
11176 1 
11177 2 
11178 1 
11293 1 
11294 2 
11295 1 
11299 1 
11300 3 
11301 1 
11302 1 
11303 2 
11304 1 
11362 1 
11363 3 
11364 1 
11473 1 
11474 3 
11475 1 
11482 1 
11483 3 
11484 1 
12079 1 
12080 2 
12081 1 
12082 1 
12083 2 
12084 1 
12256 1 
12257 2 
12258 1 
12322 1 
12323 2 
12324 1 
12373 1 
12374 3 
12375 1 
12379 1 
12380 2 
12381 1 
12382 1 
12383 3 
12384 1 
12433 1 
12434 3 
12435 1 
12436 1 
12437 2 
12438 1 
12496 1 
12497 3 
12498 1 
12499 1 
12500 2 
12501 1 
12613 1 
12614 3 
12615 1 
12616 1 
12617 3 
12618 1 
12619 1 
12620 2 
12621 1 
13216 1 
13217 3 
13218 1 
13276 1 
13277 3 
13278 1 
13279 1 
13280 2 
13281 1 
13336 1 
13337 2 
13338 1 
13402 1 
13403 3 
13404 1 
13516 1 
13517 3 
13518 1 
13522 1 
13523 2 
13524 1 
13582 1 
13583 2 
13584 1 
14233 1 
14234 2 
14235 1 
14476 1 
14477 3 
14478 1 
14596 1 
14597 2 
14598 1 
15433 1 
15434 3 
15435 1 
15436 1 
15437 3 
15438 1 
15439 1 
15440 3 
15441 1 
15556 1 
15557 3 
15558 1 
15736 1 
15737 3 
15738 1 
16336 1 
16337 2 
16338 1 
16396 1 
16397 2 
16398 1 
16402 1 
16403 3 
16404 1 
16456 1 
16457 3 
16458 1 
16516 1 
16517 3 
16518 1 
16522 1 
16523 2 
16524 1 
16633 1 
16634 3 
16635 1 
16639 1 
16640 2 
16641 1 
16702 1 
16703 3 
16704 1 
17353 1 
17354 3 
17355 1 
17356 1 
17357 3 
17358 1 
17413 1 
17414 2 
17415 1 
17416 1 
17417 2 
17418 1 
17419 1 
17420 2 
17421 1 
17422 1 
17423 3 
17424 1 
17473 1 
17474 2 
17475 1 
17476 1 
17477 3 
17478 1 
17479 1 
17480 2 
17481 1 
17482 1 
17483 2 
17484 1 
17659 1 
17660 2 
17661 1 
17713 1 
17714 3 
17715 1 
17719 1 
17720 2 
17721 1 
17776 1 
17777 3 
17778 1 
18373 1 
18374 3 
18375 1 
18553 1 
18554 3 
18555 1 
18613 1 
18614 3 
18615 1 
18616 1 
18617 3 
18618 1 
18682 1 
18683 3 
18684 1 
18796 1 
18797 2 
18798 1 
18802 1 
18803 3 
18804 1 
18856 1 
18857 2 
18858 1 
19453 1 
19454 3 
19455 1 
19459 1 
19460 3 
19461 1 
19513 1 
19514 2 
19515 1 
19519 1 
19520 3 
19521 1 
19573 1 
19574 2 
19575 1 
19633 1 
19634 3 
19635 1 
19813 1 
19814 2 
19815 1 
19822 1 
19823 2 
19824 1 
19882 1 
19883 2 
19884 1 
20539 1 
20540 2 
20541 1 
20593 1 
20594 2 
20595 1 
20596 1 
20597 3 
20598 1 
20662 1 
20663 3 
20664 1 
20722 1 
20723 2 
20724 1 
20773 1 
20774 2 
20775 1 
20776 1 
20777 2 
20778 1 
20779 1 
20780 3 
20781 1 
20839 1 
20840 2 
20841 1 
20899 1 
20900 3 
20901 1 
20902 1 
20903 3 
20904 1 
20956 1 
20957 2 
20958 1 
20959 1 
20960 3 
20961 1 
21016 1 
21017 3 
21018 1 
11185 1 
11186 2 
11187 1 
11188 1 
11189 3 
11190 1 
11245 1 
11246 2 
11247 1 
11368 1 
11369 3 
11370 1 
11431 1 
11432 2 
11433 1 
12085 1 
12086 2 
12087 1 
12088 1 
12089 2 
12090 1 
12094 1 
12095 2 
12096 1 
12145 1 
12146 2 
12147 1 
12154 1 
12155 3 
12156 1 
12211 1 
12212 2 
12213 1 
12265 1 
12266 2 
12267 1 
12274 1 
12275 3 
12276 1 
12328 1 
12329 3 
12330 1 
12331 1 
12332 3 
12333 1 
12445 1 
12446 3 
12447 1 
12571 1 
12572 2 
12573 1 
13288 1 
13289 2 
13290 1 
14251 1 
14252 3 
14253 1 
14314 1 
14315 2 
14316 1 
14371 1 
14372 3 
14373 1 
14425 1 
14426 3 
14427 1 
14485 1 
14486 2 
14487 1 
14551 1 
14552 2 
14553 1 
14611 1 
14612 3 
14613 1 
14614 1 
14615 2 
14616 1 
14665 1 
14666 3 
14667 1 
14671 1 
14672 2 
14673 1 
15328 1 
15329 3 
15330 1 
15388 1 
15389 2 
15390 1 
15448 1 
15449 3 
15450 1 
15514 1 
15515 3 
15516 1 
15568 1 
15569 3 
15570 1 
15571 1 
15572 2 
15573 1 
15694 1 
15695 2 
15696 1 
16354 1 
16355 2 
16356 1 
16411 1 
16412 2 
16413 1 
16471 1 
16472 2 
16473 1 
16714 1 
16715 2 
16716 1 
17308 1 
17309 3 
17310 1 
17428 1 
17429 3 
17430 1 
17485 1 
17486 3 
17487 1 
17554 1 
17555 2 
17556 1 
17665 1 
17666 3 
17667 1 
17668 1 
17669 2 
17670 1 
17671 1 
17672 2 
17673 1 
17674 1 
17675 3 
17676 1 
17731 1 
17732 2 
17733 1 
17785 1 
17786 3 
17787 1 
17791 1 
17792 2 
17793 1 
18394 1 
18395 3 
18396 1 
18454 1 
18455 3 
18456 1 
18505 1 
18506 3 
18507 1 
18511 1 
18512 2 
18513 1 
18568 1 
18569 3 
18570 1 
18571 1 
18572 3 
18573 1 
18628 1 
18629 2 
18630 1 
18685 1 
18686 3 
18687 1 
18688 1 
18689 3 
18690 1 
18748 1 
18749 3 
18750 1 
18808 1 
18809 2 
18810 1 
18871 1 
18872 3 
18873 1 
19471 1 
19472 2 
19473 1 
19528 1 
19529 3 
19530 1 
19531 1 
19532 2 
19533 1 
19645 1 
19646 3 
19647 1 
19651 1 
19652 3 
19653 1 
19705 1 
19706 3 
19707 1 
19714 1 
19715 2 
19716 1 
19765 1 
19766 3 
19767 1 
19888 1 
19889 3 
19890 1 
19891 1 
19892 3 
19893 1 
20548 1 
20549 3 
20550 1 
20554 1 
20555 2 
20556 1 
20608 1 
20609 2 
20610 1 
20611 1 
20612 2 
20613 1 
20734 1 
20735 3 
20736 1 
20785 1 
20786 3 
20787 1 
20794 1 
20795 3 
20796 1 
20845 1 
20846 3 
20847 1 
20905 1 
20906 2 
20907 1 
20914 1 
20915 2 
20916 1 
20965 1 
20966 3 
20967 1 
20971 1 
20972 2 
20973 1 
20974 1 
20975 3 
20976 1 
21034 1 
21035 2 
21036 1 
11140 1 
11141 2 
11142 1 
11197 1 
11198 3 
11199 1 
11206 1 
11207 3 
11208 1 
11257 1 
11258 3 
11259 1 
11266 1 
11267 2 
11268 1 
11317 1 
11318 2 
11319 1 
11377 1 
11378 3 
11379 1 
11383 1 
11384 3 
11385 1 
11446 1 
11447 3 
11448 1 
11500 1 
11501 2 
11502 1 
12157 1 
12158 3 
12159 1 
12160 1 
12161 3 
12162 1 
12217 1 
12218 3 
12219 1 
12283 1 
12284 3 
12285 1 
12346 1 
12347 3 
12348 1 
12406 1 
12407 2 
12408 1 
12463 1 
12464 3 
12465 1 
12577 1 
12578 3 
12579 1 
12586 1 
12587 2 
12588 1 
12637 1 
12638 2 
12639 1 
13177 1 
13178 3 
13179 1 
13183 1 
13184 2 
13185 1 
13243 1 
13244 2 
13245 1 
13300 1 
13301 2 
13302 1 
13366 1 
13367 2 
13368 1 
13477 1 
13478 2 
13479 1 
13480 1 
13481 3 
13482 1 
13483 1 
13484 3 
13485 1 
13600 1 