ITEM: TIMESTEP
40000000
ITEM: NUMBER OF ATOMS
3219
ITEM: BOX BOUNDS pp pp pp
0.0000000000000000e+00 5.0000000000000000e+01
0.0000000000000000e+00 5.0000000000000000e+01
0.0000000000000000e+00 5.0000000000000000e+01
ITEM: ATOMS id type vx vy vz 
10575 1 -5.09433 -6.44993 3.02467 
10574 2 -1.34714 -0.969212 4.86325 
10573 1 4.23852 3.65694 -4.32325 
15337 1 2.00924 -0.326349 -4.2794 
5595 1 -6.82605 4.31073 -0.949434 
5594 3 4.27179 3.86985 -4.01573 
17837 3 -3.88062 0.763355 2.46772 
17836 1 -2.68435 -1.00067 -2.03932 
17838 1 2.17408 4.43359 -1.2448 
6436 1 0.306989 2.62652 -3.13813 
15339 1 2.03043 1.31688 -0.471758 
18036 1 -2.53361 4.50308 0.767167 
18035 3 -0.651255 -0.14672 -0.174022 
15338 3 1.81774 3.09859 2.54804 
11962 1 2.62418 -7.21898 7.96041 
10922 3 -2.3432 2.1781 2.52935 
10923 1 0.711219 1.23684 -0.676092 
18034 1 -0.971744 0.364516 -3.37715 
10921 1 -4.62036 3.77875 11.5518 
3786 1 2.03852 -6.78765 6.08696 
11963 2 0.0622897 -1.55774 -0.217299 
11964 1 9.02544 -2.88691 -4.93518 
3785 3 -5.56834 -2.9919 -1.89008 
3784 1 1.80703 -0.713431 -0.340137 
9726 1 -5.52656 -7.68763 4.39798 
18963 1 4.1488 -2.22159 1.35575 
18962 3 -0.874068 -3.41416 2.1912 
18961 1 0.391112 2.46743 -2.94615 
15283 1 -4.94018 1.12699 0.0917589 
16927 1 2.87687 0.166927 3.98494 
16928 3 4.83033 -1.75274 -0.385273 
16929 1 -2.26627 -0.441231 1.67571 
3124 1 1.94625 -0.700385 3.0903 
3125 3 -2.55794 1.48356 3.22482 
3126 1 5.60723 5.30047 -2.36079 
3690 1 4.63454 -3.72829 3.61806 
18406 1 1.15435 1.83278 2.22265 
20897 3 0.799458 1.81493 -2.44745 
12695 3 1.55069 -1.77971 -4.15901 
12694 1 0.513328 -1.8909 7.23387 
12696 1 0.619434 -4.59668 2.24893 
10552 1 -3.50233 2.95345 -1.56851 
10553 2 2.03302 -0.0379029 4.59372 
12856 1 0.690098 -1.83411 -2.62147 
20992 1 -1.09111 -9.5278 -4.79531 
20993 3 0.872815 -3.58247 0.424971 
10554 1 -1.12832 2.86106 8.50558 
4293 1 -0.559611 3.80034 2.66374 
12857 2 -1.02533 -5.34265 -0.482234 
20994 1 0.454123 -0.662445 0.129224 
17938 1 -3.17967 1.76925 -0.275301 
4858 1 3.2647 3.46185 -2.72598 
9946 1 0.704298 5.99677 -0.111711 
4859 3 0.454741 0.767871 0.993107 
4860 1 -1.44227 3.72234 -5.847 
8712 1 -2.38133 2.21452 -0.169007 
8711 3 -2.3964 -5.02411 -1.62424 
2980 1 1.5079 -1.05525 -1.85574 
13080 1 -6.91205 -1.5995 -1.50141 
13079 3 2.16274 2.26114 -1.49623 
9947 2 1.48072 4.24696 -2.79249 
9948 1 1.67987 5.24797 5.85866 
6954 1 8.93111 0.701221 2.62411 
12858 1 -1.29246 -1.68909 -1.38511 
2981 2 2.49172 0.758871 0.823079 
2982 1 3.43312 -2.89405 0.894106 
19708 1 7.9965 4.15857 2.70075 
19709 3 0.977544 -2.95098 0.176807 
19710 1 0.621306 0.505559 4.62227 
16091 3 0.674528 0.575366 1.95969 
15166 1 1.67906 -2.19373 2.78582 
16090 1 -4.62711 -2.25015 -2.26485 
1948 1 2.92506 0.554333 2.03107 
20055 1 -3.42563 -0.0352164 3.19936 
20054 3 -0.151217 1.00133 -0.887573 
9202 1 -1.12681 2.2611 -3.85482 
20053 1 2.90293 -3.41863 -1.15096 
5593 1 -1.62288 -5.20027 -0.88627 
16459 1 4.76768 -3.14249 0.900577 
10906 1 -1.91654 7.08297 -1.14766 
10907 3 -2.85431 -1.80554 0.0856887 
10908 1 -4.81712 4.82576 4.92913 
9222 1 1.30209 -2.97105 0.058407 
9221 3 4.43133 7.84931 -2.46986 
20925 1 -0.823842 -7.97978 -4.74483 
16460 3 -1.01408 -1.70782 -4.18469 
9204 1 -4.13172 -1.71389 4.81986 
9203 3 2.04039 -1.29353 -4.33589 
9220 1 0.579477 -0.950739 5.81194 
5509 1 -3.38595 1.00441 11.0046 
5510 3 2.66678 -1.4645 -2.79084 
5215 1 1.76053 -4.87291 -3.78036 
5511 1 -0.115905 5.52112 -3.69751 
6437 3 -0.29009 -3.34356 -4.11114 
6267 1 0.705267 -2.59652 -4.69305 
12392 3 -2.22948 -1.7067 -0.944911 
12393 1 8.18614 0.827878 4.84177 
5196 1 1.11066 1.06581 5.36899 
5195 3 3.1127 1.00134 -2.33922 
5672 3 -3.73592 -2.66955 2.02229 
5673 1 3.66903 -0.942995 -3.0182 
6266 3 -1.25957 -0.663701 -0.636619 
6265 1 1.8841 -8.30118 0.128825 
5194 1 0.313688 0.748188 3.52004 
5671 1 -0.339906 2.36782 -1.25756 
20923 1 -0.356122 -3.7221 -0.196753 
20924 3 -1.20753 1.34563 -3.96753 
3669 1 -3.55912 6.55011 -1.32983 
3668 3 -1.0056 -0.460904 0.00217991 
3667 1 -2.05456 4.23625 -0.121617 
19286 3 6.73862 -0.835885 -0.635828 
15510 1 -2.26705 -2.66905 0.310847 
19285 1 -6.18119 5.96481 2.39504 
19287 1 0.00585046 4.29928 1.82385 
15509 3 -3.63404 5.20462 -0.0679365 
113 3 1.86223 -1.09228 0.0853437 
112 1 -5.32789 -2.15066 -4.58147 
11215 1 1.40156 -0.997633 -2.98693 
14864 3 3.41617 1.21899 -1.11926 
14865 1 1.08073 5.98306 -4.45374 
15508 1 3.58758 -1.44284 -2.99556 
21136 1 -3.99146 -7.53486 2.64544 
21137 3 -2.60605 -2.8644 2.50215 
21138 1 -2.93574 -2.39292 4.50306 
18013 1 0.340941 2.13741 1.15334 
14863 1 -2.47455 3.78337 5.13101 
9725 3 3.20935 -3.84041 1.61321 
18014 3 0.633208 2.21612 0.455089 
32 3 1.7833 -3.11428 -4.46926 
33 1 2.5201 -1.35718 7.05181 
12391 1 3.7619 4.0782 6.07547 
10197 1 -0.715626 -2.41411 -0.713073 
8569 1 2.22009 0.809257 -0.942516 
8570 2 -1.63204 2.43328 1.78858 
8571 1 -1.65278 -0.237278 1.05919 
4832 3 -0.805757 1.68139 -1.69835 
10196 3 -0.0675587 2.63416 -3.18504 
15284 3 -0.929446 -1.25178 -2.20139 
10195 1 7.60075 0.494997 3.00012 
13701 1 -1.25974 3.86547 -2.99807 
13700 3 0.492287 1.35631 0.0574627 
13699 1 -0.485538 -0.46923 2.50556 
15285 1 4.18904 1.47193 -1.71742 
4831 1 -0.974443 -3.94877 2.17715 
18826 1 -2.39988 0.445483 -0.162644 
15622 1 6.90205 3.57165 0.490663 
20815 1 -4.38426 -3.15575 -6.75896 
114 1 -3.54839 0.523738 3.70898 
15624 1 -1.72679 -2.14362 -4.40567 
15623 3 2.14101 -1.24159 -2.68136 
18827 3 -1.62697 1.81736 1.971 
18828 1 7.77766 1.57518 -2.4135 
20241 1 -4.71202 2.98032 2.75993 
20240 3 0.958633 -4.30732 3.19449 
20816 3 1.23507 -1.03732 1.61311 
20239 1 2.81573 1.02388 3.03195 
6312 1 2.29747 4.21345 -0.895894 
20817 1 4.18954 5.99873 4.62462 
9358 1 1.42555 -1.88997 -5.56018 
4292 3 -0.0926753 -2.94477 -4.77158 
3689 3 2.65392 -2.53804 0.737219 
6311 3 -0.181041 3.57602 4.82749 
6310 1 -9.89761 2.44406 4.74024 
6919 1 -4.89934 0.340421 3.91691 
6920 3 -1.07522 -0.97678 -3.8446 
3688 1 3.77053 0.581822 0.780282 
4291 1 -3.8996 -3.14173 -1.27525 
21160 1 -1.96231 -0.0833225 -3.82327 
16186 1 -0.0820502 4.51958 -1.84201 
6921 1 -0.606525 -5.3702 -2.47338 
10795 1 3.98885 -2.73088 -1.68024 
10796 3 4.7335 3.01424 -0.916859 
10797 1 -3.15565 -0.520364 3.73252 
21027 1 0.487565 -2.07616 3.29259 
21026 2 -1.5201 -1.25826 0.900107 
4833 1 1.1652 2.89699 -5.56014 
20898 1 -3.50691 5.81202 1.34784 
19731 1 4.3094 -3.6758 2.93009 
19730 3 -0.249407 -0.639442 -4.94254 
19729 1 6.21 3.16917 -6.52562 
4450 1 2.16748 -0.293713 -5.54153 
21025 1 -1.992 -0.252412 -4.64354 
20896 1 2.01898 0.0412027 7.4328 
10326 1 4.84005 -4.74323 -4.46459 
18061 1 6.17851 -2.52275 -0.466526 
350 3 2.05839 0.924567 3.55518 
4452 1 -0.25982 -1.82668 3.93454 
18062 3 0.0704504 3.36927 3.47693 
4451 3 1.74787 -2.43267 -3.25127 
14293 1 -8.27503 -5.3236 0.267572 
14294 3 -1.03571 -0.607472 1.81183 
18063 1 2.61964 -1.03257 -3.25313 
349 1 -1.15666 -2.52864 -0.948165 
14295 1 0.232605 3.78944 1.38345 
7872 1 3.8827 0.639023 -0.817479 
2419 1 2.27528 6.07925 0.767461 
2420 3 -3.47803 1.00914 -2.14187 
16549 1 -2.00247 -1.84636 0.608364 
7871 3 -0.176465 -3.48249 -0.905578 
15044 3 -0.859171 2.5012 -4.44627 
7870 1 -2.71644 3.36334 -2.71135 
15043 1 5.76857 -3.43424 -2.15087 
15045 1 4.33067 -0.785996 -1.39081 
1498 1 -0.352894 1.94609 3.93667 
1499 3 1.29128 1.81529 -0.576852 
1500 1 -0.756451 -3.79617 -1.07234 
10128 1 0.661865 1.49246 -2.25438 
9064 1 1.47403 -2.4528 -2.56826 
19908 1 -0.711109 4.01365 2.39898 
19907 3 2.20943 0.0642472 5.54101 
19906 1 -6.58075 0.178584 1.35005 
3930 1 -2.56699 0.499545 -1.68336 
10648 1 6.00875 4.57999 2.91638 
362 3 1.17693 -2.2249 -0.352309 
363 1 3.68826 1.74042 -3.69756 
2421 1 4.84505 -0.978707 -1.59342 
361 1 -0.535964 0.590059 -4.16421 
6578 3 3.5337 -1.67624 -0.78798 
6577 1 4.93834 -5.99229 4.53611 
3333 1 4.91885 1.20405 -0.376556 
6579 1 -1.39152 -2.29476 -1.97174 
10339 1 -1.35045 1.80633 -0.0799969 
18090 1 -2.34219 0.390098 -1.2754 
18124 1 -7.60531 2.6721 -0.0329195 
21349 1 -1.81795 2.16146 1.99293 
13078 1 -1.18573 5.14861 1.92663 
10649 3 -2.85168 -0.0653341 -3.15626 
8710 1 -7.29809 0.634265 6.15337 
10650 1 -0.76973 1.789 -0.796803 
15756 1 -2.66867 4.65145 2.46906 
15755 3 0.139543 -0.891243 -3.16846 
15754 1 -8.40724 -1.30417 0.615302 
10126 1 4.21156 1.45752 5.45246 
8782 1 6.76468 -5.77242 -0.40764 
2020 1 2.91195 -0.205529 4.36222 
21350 3 2.49239 2.75387 1.02453 
10127 3 -0.00176459 -1.86511 3.00244 
20244 1 -1.86703 -3.63134 -4.16934 
20243 3 3.89223 -0.768199 0.572128 
20242 1 0.0254638 -1.08795 -3.47931 
21351 1 0.524951 4.75738 -1.07794 
8783 3 -0.201425 -0.885256 1.34133 
14140 1 0.773399 -0.87662 -3.21504 
594 1 4.83969 2.39317 2.22504 
593 2 -0.330648 1.37515 -0.513605 
592 1 -3.07247 -3.78372 0.352824 
14634 1 -7.89782 3.69816 6.3773 
15692 3 -0.185617 0.29754 -3.31591 
20024 3 0.648532 0.543825 5.8227 
15693 1 3.7246 -3.07229 0.00782526 
20023 1 -4.61762 5.05533 -0.246949 
20025 1 3.77751 -0.98021 6.20479 
1949 3 4.12373 -0.685216 -0.545775 
1950 1 -2.83333 -1.67423 0.80175 
15691 1 -6.53064 -3.49647 -1.57409 
16918 1 -5.13485 1.14053 1.61084 
16919 3 -2.96355 -0.194942 1.41868 
19567 1 3.45979 5.4316 -3.83949 
19568 2 -3.7857 -1.44047 -0.531443 
19569 1 -10.8836 0.507615 1.91701 
19803 1 4.27076 3.8038 -0.0464404 
6336 1 1.51973 -6.20037 -4.92674 
13444 1 6.88313 4.07435 -4.54668 
19802 2 1.96688 -1.09078 1.6343 
19801 1 4.62107 -4.51508 -4.35461 
15481 1 0.187764 -0.0022384 3.78193 
15483 1 -2.04486 -0.784288 -8.78958 
15482 3 3.44984 1.17166 -0.166994 
17472 1 0.555399 -0.386987 4.65233 
6335 2 -3.6726 5.09276 -5.25586 
18329 3 -3.55325 4.77311 -3.39332 
16461 1 -2.21503 -0.382258 -1.0475 
16863 1 -7.3995 0.0177152 -1.42581 
16862 3 -3.59497 2.46767 -0.92582 
17471 3 -0.181992 -4.33706 -1.27727 
17470 1 -4.20406 0.375255 1.99773 
18328 1 -1.41776 2.98239 -0.0384915 
5465 3 -2.07386 -1.52148 -3.22417 
16861 1 3.96116 -1.37903 -0.315339 
5466 1 7.80678 3.70768 -2.69481 
2701 1 -1.21659 0.156361 6.83978 
16816 1 2.63744 1.91041 -3.22347 
5464 1 -0.40566 -2.96059 0.857778 
17880 1 -1.8144 -0.494679 -4.22435 
17879 2 2.39223 -2.48967 -1.74645 
17878 1 0.820578 -0.287294 -2.68706 
5995 1 0.321774 -2.21031 -5.08665 
5996 3 2.79133 0.187761 -2.49117 
5997 1 -2.79983 -1.8188 2.17155 
14602 1 4.50373 -3.03311 -3.70497 
15226 1 1.84746 -5.10936 0.420949 
2703 1 2.33107 -4.89676 1.78817 
16410 1 3.45945 4.33726 5.09484 
15227 3 1.88795 -1.87045 2.54546 
14603 3 -0.660909 0.263224 1.05645 
14604 1 -5.50931 4.05238 -2.27997 
16408 1 -0.313006 -1.12945 3.09241 
16409 3 -3.96985 0.452278 1.47536 
10044 1 9.34205 -9.77133 -3.88496 
21495 1 2.72727 4.4968 -1.4698 
10043 3 0.57435 -1.13625 1.44644 
21494 3 2.95927 -1.56911 0.865231 
2702 3 3.64105 -1.37578 1.55388 
15228 1 -2.1782 -2.42314 2.00298 
3052 1 -0.0492139 1.7068 0.0640142 
12091 1 0.64626 -0.656201 -1.82624 
3053 3 -4.68773 2.09774 -4.1424 
21493 1 4.85406 1.88619 2.52639 
12093 1 0.907536 -0.191555 -0.411136 
12092 3 -1.51727 -3.24909 -0.277219 
3054 1 -2.9125 -5.15597 3.69861 
3493 1 2.72058 4.37556 -3.3889 
12871 1 -5.41755 -1.60193 -0.271043 
17511 1 -0.943656 -0.917366 -6.02175 
18129 1 0.763579 5.14845 -2.52591 
17510 3 1.33738 1.59294 0.330424 
31 1 -0.0307754 -2.90194 1.16642 
5433 1 -1.6761 0.299544 2.18079 
5432 2 -1.19406 1.29439 2.02956 
5431 1 5.1982 -1.96901 -5.80858 
5821 1 -1.12426 6.58812 -4.45561 
5822 3 0.51369 -6.767 2.26587 
667 1 1.88194 1.10274 -2.45231 
668 3 -2.21002 -1.95391 0.819411 
5823 1 0.0286328 -4.50437 -2.13138 
3829 1 -1.60805 3.06994 1.97377 
3830 3 -1.45158 -1.36499 0.850928 
3831 1 -2.34509 -0.450133 -1.28789 
7950 1 -2.19413 -2.32252 -3.92728 
669 1 -2.5653 -1.75243 2.31864 
12955 1 2.3402 6.82782 2.31501 
18494 3 -2.37909 -0.32806 -3.16701 
7949 3 -1.68677 2.83083 2.07053 
12956 3 0.0517408 1.58082 -1.16129 
12957 1 3.6997 -0.834287 -2.68748 
18493 1 0.703248 0.0916258 0.99841 
10324 1 2.03268 2.55166 -1.01017 
18264 1 0.612548 1.92702 -1.08114 
351 1 1.39343 -3.1606 2.01328 
9359 3 0.0863356 -3.28463 -5.10508 
10042 1 0.971529 -0.916233 0.927722 
7948 1 -1.41175 1.91091 3.79996 
18495 1 2.68822 5.03643 -3.9195 
1120 1 2.84353 -1.23178 0.481403 
1121 3 -1.72939 2.46872 -2.18756 
1122 1 1.63054 7.18882 6.36938 
14830 1 -2.09897 1.22275 -1.54306 
18263 3 0.140599 1.86861 0.726741 
14831 3 2.57147 0.391719 0.908378 
9360 1 1.35875 -0.339505 -4.68792 
12872 3 -2.20758 -1.50034 -1.87993 
12873 1 -2.47364 -2.73829 5.82124 
14832 1 0.27686 3.41764 2.91882 
4088 3 -1.82834 0.162682 -2.09072 
4089 1 -1.32919 0.932333 4.71189 
20127 1 3.00764 0.289274 2.23696 
12520 1 -0.839099 -0.566021 -0.955339 
12521 3 1.90391 3.25892 2.60687 
12522 1 0.767356 -4.09342 -2.97755 
20126 3 0.285496 0.805426 -0.657789 
4087 1 6.61165 -0.162906 -5.91427 
12420 1 -3.04594 -0.635258 6.50858 
6001 1 -0.190015 1.61834 -0.353735 
15418 1 -0.813907 2.0026 -0.259812 
8999 2 3.02736 3.67663 0.987223 
8998 1 -10.4035 -0.74147 1.70285 
10947 1 -1.45037 0.260429 -2.03632 
16531 1 -0.712419 -1.07005 7.63709 
3332 3 2.06618 5.6697 -2.03361 
3331 1 0.0642454 7.1031 10.7389 
10325 3 0.32633 -4.22648 0.564644 
10946 3 -1.79903 -0.801666 1.20113 
8637 1 0.759078 -1.83314 0.552591 
10945 1 -1.3316 -2.47241 -2.05631 
20325 1 1.03936 0.315521 0.014334 
20324 3 0.189346 2.06844 -1.72041 
8636 3 -3.6543 2.19579 1.88319 
20323 1 2.37368 -5.39069 3.7934 
18691 1 -8.74749 2.44398 4.7537 
14842 1 2.86476 4.52975 0.992976 
8635 1 -4.96061 3.58424 3.8039 
14843 3 1.35902 -0.227284 -0.169222 
20286 1 -3.31318 -2.42496 -2.74658 
20285 3 0.606885 1.86774 -1.17831 
20284 1 -6.30247 4.22357 -0.821988 
14794 1 0.616549 8.62956 -4.46835 
14795 3 0.935779 -0.00425185 0.674229 
14844 1 4.22786 5.38811 7.21954 
10175 3 1.47994 0.0691613 -5.03711 
14260 1 -0.177061 -5.0613 -4.49853 
16550 3 2.37812 -1.32018 0.739022 
12641 3 4.13779 -2.40744 -2.79389 
14796 1 -8.44933 2.93721 6.74241 
15420 1 2.91229 -0.202794 -3.14627 
16551 1 -0.627639 2.02882 -2.34337 
12642 1 4.08574 -0.760514 -1.30532 
20447 3 0.928449 3.37788 -1.42173 
15419 3 -5.76305 -2.25677 -1.62726 
20448 1 -2.0065 -1.30305 4.88488 
15162 1 -2.6265 -2.46354 0.771637 
10176 1 -5.78719 -2.39348 -2.98893 
20446 1 -5.57217 2.62626 -2.11239 
15161 3 1.73154 -1.54849 1.10369 
12640 1 -3.09877 -0.986583 -3.56281 
5403 1 -5.30756 -3.95752 -3.56313 
5402 2 1.7011 -1.98012 1.14315 
5401 1 4.09551 -0.558075 1.58139 
9000 1 -4.67502 -4.58215 2.12722 
3928 1 -4.5612 2.93458 -7.4755 
3929 2 -1.86566 -2.05301 -5.05703 
13692 1 5.70457 1.42807 2.30253 
7997 3 1.14142 5.53714 0.391997 
10340 3 2.61576 -0.774192 0.0948703 
13691 3 -2.25569 -4.24158 0.38844 
1159 1 -0.40668 -3.69902 3.8866 
1160 3 1.6189 5.1174 -1.45775 
1161 1 0.874147 -3.56604 -5.45212 
13690 1 -2.66968 -3.38481 3.51023 
18358 1 3.44783 -2.68394 -0.607441 
18359 3 1.77714 -2.62402 -0.961225 
19518 1 -0.554988 0.0903688 -3.51341 
7998 1 7.29428 -4.92241 3.85564 
13592 3 -0.255377 0.270347 -1.85999 
10341 1 -3.77914 2.29166 8.35984 
12262 1 -4.87785 -5.78926 3.47574 
10174 1 -7.25793 -4.30628 9.44997 
12264 1 0.358457 0.865033 1.5608 
12263 3 -0.757459 -0.684276 -5.49039 
18360 1 -1.94295 -1.05523 0.164233 
5368 1 0.404373 1.07209 -4.88589 
5369 3 -0.488247 3.44293 0.433726 
13591 1 2.10323 1.97052 5.80834 
5982 1 -7.27631 3.98537 3.99008 
13593 1 0.848798 -1.09616 0.308348 
741 1 -1.40921 7.87098 1.32036 
8784 1 4.17513 0.350966 -1.13658 
10557 1 -2.10782 -2.39565 0.714821 
740 3 2.87822 3.19754 -3.0953 
10556 3 -4.00094 -3.10336 -3.99313 
739 1 -2.61408 -7.41803 1.13734 
276 1 1.92095 0.504677 3.95054 
275 3 0.90478 -0.739909 1.25633 
10555 1 4.27954 -0.413184 1.75729 
1635 1 3.62076 6.07223 -0.441242 
18238 1 0.0870315 1.64737 -2.51843 
3031 1 -4.90394 -5.28589 2.94336 
4825 1 1.23558 -0.40215 6.29454 
4826 3 -0.318233 -0.168315 2.96792 
4827 1 -1.06352 -3.67737 1.76775 
20701 1 -5.46413 4.83407 0.72722 
20702 3 2.06038 1.37261 -0.558962 
345 1 -1.99298 -4.5485 2.6917 
344 3 -4.9512 0.0340644 -2.16687 
9079 1 -4.46179 1.88906 -2.85871 
9080 3 -3.16769 2.88895 -0.285112 
11549 3 5.91635 -6.28287 -0.674438 
16920 1 -2.28734 -1.61528 2.96087 
17245 1 2.51491 -2.90755 2.30435 
20703 1 -1.52983 2.49767 1.12757 
11430 1 -0.120394 -5.52061 4.37518 
19537 1 0.757963 7.37835 -3.48354 
19538 3 -0.281438 2.67025 -0.121596 
11550 1 -2.66299 -7.76148 6.62041 
343 1 -4.43633 -4.81876 4.704 
19539 1 -0.262974 -3.89258 -1.47153 
11548 1 -1.38192 -8.56525 -1.41997 
17246 3 3.73362 -0.00927461 2.73995 
11429 3 -0.785344 1.81848 1.3284 
20788 1 -3.72085 0.727837 1.31109 
20789 2 -0.394236 3.8735 3.73104 
20329 1 9.33719 6.82749 -9.79264 
20330 2 -2.07221 -1.31741 4.7569 
16381 1 3.3807 0.15193 -3.50654 
14548 1 -3.49776 6.19119 4.0848 
20331 1 -0.382088 1.19289 3.14798 
9081 1 1.68326 2.87962 -5.81863 
13445 3 1.51877 2.62565 1.43595 
20790 1 -4.14796 1.96825 2.92833 
16383 1 0.644532 -1.23601 -0.973543 
16382 2 1.81733 5.67324 3.73734 
6334 1 2.76172 0.0799331 3.0202 
2697 1 -0.834706 4.1045 1.89903 
2696 3 -1.9183 -3.28112 2.98303 
18923 3 -3.13633 -1.44762 0.953059 
18924 1 -3.71678 -0.664567 2.11603 
14550 1 2.31583 -2.18208 -0.981432 
14549 3 -4.5851 -0.287043 4.63679 
2695 1 -7.88128 2.89755 -2.36618 
18922 1 -0.351619 -2.14785 4.58675 
13105 1 -0.689996 -1.8651 0.882555 
13106 3 -4.88053 3.60541 2.78379 
10593 1 3.37567 6.69632 6.4539 
10592 3 1.85088 -1.59779 -1.28927 
7117 1 -0.556613 0.417766 -2.11021 
13107 1 -1.73992 -3.52298 -0.21922 
11332 1 2.97842 -11.9379 3.11983 
10591 1 0.061253 2.99006 -3.64004 
1352 3 3.30086 1.42222 -0.508037 
10291 1 3.34305 0.628226 -4.95 
1351 1 1.48242 3.16761 -0.272781 
7118 3 0.686521 -0.0562202 0.315823 
7858 1 1.38619 -1.5763 5.28661 
7408 1 -4.34583 0.633571 5.50928 
7410 1 1.12781 3.65576 -0.745442 
7409 3 0.03289 1.57687 -3.10381 
7860 1 0.27986 1.44816 2.25604 
7859 3 -2.52364 3.92283 2.94064 
13446 1 -4.38078 -0.191264 -5.41544 
16197 1 -4.79503 2.30582 1.93806 
21480 1 -6.27077 -6.55391 4.10416 
927 1 -6.28497 -0.759097 5.408 
926 3 -0.115423 0.385952 0.789447 
925 1 -4.40628 -0.834894 0.76354 
15768 1 -3.84057 -0.624537 -1.67614 
15767 3 0.901214 3.67505 -0.0530544 
13256 3 -4.03529 0.0599912 3.31344 
16195 1 4.75001 -0.0229077 2.06928 
13257 1 -1.37795 -0.286348 -0.624397 
13255 1 -3.07711 0.180476 -0.316851 
3217 1 -4.76274 4.92054 4.39538 
16196 3 -3.04346 -0.288205 0.969842 
15766 1 3.24619 -0.425493 4.27543 
10293 1 -3.19579 7.06328 0.202508 
10292 3 3.06524 -1.49177 -3.30607 
7628 3 -2.1467 -0.914652 1.91696 
7629 1 1.86693 2.3518 -3.6576 
13743 1 -1.04961 -3.98401 1.85674 
3218 3 1.89064 3.44576 1.44738 
13742 3 -2.73341 -2.67072 0.339383 
7627 1 -1.23391 6.5675 4.01309 
21479 3 -0.504928 -1.82933 1.85191 
21478 1 3.60258 1.13422 4.81697 
3025 1 -2.00108 -3.54034 -2.38036 
10875 1 -7.20797 5.33115 0.114945 
10874 3 -0.298441 -5.0941 -0.0865823 
6643 1 4.50552 -1.92769 3.10809 
3026 3 -1.05089 1.68045 -1.22681 
3027 1 -0.253323 3.16416 8.21084 
10470 1 1.93193 -2.31788 -4.02591 
4799 3 -3.44961 -0.939631 -0.6646 
4800 1 2.97101 -1.11827 -3.30477 
18262 1 -5.59581 -3.30113 4.84223 
10468 1 0.658373 -3.42136 0.541373 
12690 1 0.45492 8.1327 -4.34534 
10469 3 -1.97938 0.33008 1.63531 
2766 1 1.44545 2.22059 -5.96548 
4798 1 -0.890582 -0.0754929 -6.92497 
2694 1 -5.11294 5.44748 1.26405 
2765 3 -0.743954 -1.46062 -3.35393 
13741 1 -1.65893 6.54858 -8.39492 
18693 1 6.61934 -1.01766 5.54301 
2764 1 2.05165 2.60465 5.68017 
1508 3 -0.938821 0.255461 -2.29147 
6002 3 -2.87654 0.8092 1.0866 
4333 1 -2.79455 -2.80578 -1.08966 
12689 3 0.708165 0.578247 -5.02526 
2693 3 -2.61775 4.75084 2.03518 
18489 1 2.75693 5.30735 -2.39607 
2692 1 2.73621 -3.57751 -0.0682191 
18488 3 0.885161 -0.998799 2.55062 
18487 1 1.67129 3.1042 2.57145 
13773 1 6.47461 2.13292 -1.27851 
13772 2 0.655395 -4.47296 -1.25124 
13771 1 8.33539 -4.92677 6.20236 
16532 2 -1.46475 1.99951 -1.6937 
3421 1 4.63893 0.569285 6.56663 
16533 1 -1.20139 -3.23396 5.27939 
3422 2 2.85971 1.57253 -0.659207 
14860 1 -0.354414 -2.41695 4.81464 
14861 2 -1.73185 1.06065 1.57191 
14799 1 6.29412 1.57868 -0.485678 
19366 1 5.64829 0.671779 -4.1069 
19367 2 -1.37906 -0.120982 3.73355 
14508 1 2.70687 -0.125475 0.484678 
19368 1 -6.12067 1.46605 -3.69368 
15662 2 -0.534601 5.57908 -1.2958 
14862 1 -0.24259 -3.49519 1.48179 
3423 1 -1.18529 -0.0609389 -5.44144 
10873 1 -1.52409 -1.66304 1.87937 
10997 3 1.73224 2.25811 2.67053 
10998 1 -2.48299 -6.32296 5.66846 
12454 1 1.8019 6.30464 4.25148 
12455 3 -1.66522 -0.460921 2.19434 
11878 1 -5.62526 -3.16627 2.3993 
11879 3 -2.37402 -0.135577 -3.39736 
10996 1 2.55052 -0.945086 3.36114 
15663 1 2.34751 4.79337 -1.64028 
11880 1 -1.14512 1.98636 -3.65408 
18692 3 -0.568338 -1.16235 -1.35324 
14261 3 -2.20918 -2.53757 -1.1189 
12456 1 5.13956 -3.21097 -3.33165 
855 1 1.08858 4.89479 5.42506 
854 3 2.50415 0.391277 -3.39637 
1507 1 -5.40311 2.25774 1.00192 
853 1 -0.841471 -3.25379 -4.48516 
14262 1 -2.5888 2.23014 3.43371 
10000 1 -5.15597 -2.77704 2.04287 
6815 3 0.233191 2.17601 -2.00027 
6816 1 1.28753 2.77631 -2.70355 
6814 1 -5.82301 0.511188 5.23214 
18502 1 -6.89366 -0.22448 -2.29961 
13156 1 -2.2077 0.514961 -5.14856 
10001 3 -0.922786 3.23116 2.73532 
18503 3 3.58161 -2.06461 -1.00016 
10002 1 -2.33446 -6.24379 1.92078 
18504 1 2.98226 -3.51903 0.459573 
9850 1 -4.14934 6.21457 0.53051 
12067 1 -1.74413 5.7065 1.28431 
15130 1 -6.00566 -3.04278 1.15411 
6813 1 -2.44883 -7.29308 -2.36801 
6812 3 -3.6228 -2.2107 1.2339 
14797 1 -1.99226 3.61678 -3.32811 
5373 1 -0.74209 3.3221 2.00147 
5372 2 -2.94104 -0.0724887 -2.99127 
15661 1 3.98647 2.41332 -1.34018 
5371 1 5.53099 -0.687994 -2.7217 
12311 2 2.60004 0.709106 2.03193 
14798 2 0.663405 1.54884 0.480076 
12310 1 4.62034 2.38749 3.66183 
12312 1 -1.95486 -3.56575 1.97022 
19517 3 -0.967983 -0.828869 -1.36327 
9300 1 3.44143 2.27594 3.35048 
9299 2 -1.89874 5.19337 0.737781 
9298 1 -3.48961 0.729803 2.40739 
9860 3 -2.86424 0.46664 -0.872324 
9861 1 2.79628 -3.45962 -5.23339 
19516 1 -4.87239 2.3013 -6.55571 
4719 1 -2.84456 -0.437823 -0.529171 
9859 1 -0.70984 1.57437 -3.60715 
1050 1 -0.366788 -4.22529 1.908 
8040 1 -3.32186 0.0405607 -0.224076 
8038 1 3.04511 -0.0995249 -2.7033 
5370 1 -3.44546 -1.29125 1.95189 
8039 3 -4.31402 6.07909 -2.89043 
1049 3 -0.638825 3.52875 -2.51376 
3024 1 -1.87587 3.8368 -3.83131 
1048 1 1.09538 1.41543 -6.4216 
3023 3 4.38192 0.194282 3.04246 
9176 3 -0.0560752 0.829707 -0.603737 
9177 1 -2.19515 3.49131 -2.75194 
19034 3 -1.24314 -0.744145 -0.51276 
13625 3 0.318473 1.24811 -4.25218 
19035 1 2.76271 -1.80165 -4.72549 
274 1 1.50798 -3.10229 2.607 
20622 1 2.63044 2.8734 -6.28431 
13624 1 -0.222999 0.2949 2.093 
5 3 0.47373 -1.76422 -0.860881 
15131 3 -0.65335 -5.90201 1.03212 
15132 1 0.913973 5.4597 2.76096 
3022 1 -1.81091 6.7147 -6.47701 
4 1 -1.69659 0.658134 1.93247 
6 1 1.28613 -1.24364 -0.58458 
15355 1 1.01404 4.61459 6.75189 
15356 3 0.492821 7.0022 2.43077 
19771 1 8.70584 1.1706 1.91731 
568 1 -5.06788 3.29379 -1.66737 
569 3 1.46611 -1.32579 -3.97708 
570 1 -1.16551 -2.67384 -2.32248 
6100 1 -6.22044 0.171372 -1.28341 
6101 3 -2.20891 -1.18509 0.912173 
18874 1 -5.98813 -0.390013 1.45934 
19444 1 -0.469454 -0.23768 0.887695 
19772 2 1.26312 -2.73174 5.62577 
19773 1 0.472072 -2.73308 1.58459 
1215 1 1.6328 -1.52191 -2.93019 
1214 2 -1.30219 2.80425 1.11222 
14248 1 2.85533 -1.59602 -0.693091 
1213 1 4.92209 2.51735 0.66368 
6637 1 0.344404 3.36022 -6.28947 
6638 3 -3.07167 1.39653 -3.01434 
11333 3 -3.74902 -1.02909 -3.94589 
14249 3 3.14407 2.47439 3.9345 
18875 3 -1.28331 1.74417 -0.0119523 
4621 1 -7.94024 1.9462 2.27806 
18927 1 -3.88299 -4.7249 0.496438 
18876 1 -0.079446 -6.30042 0.065577 
14250 1 -2.04177 -1.90348 -0.814645 
18926 2 0.849339 -3.46918 -3.66805 
18925 1 2.15081 3.76891 -3.78361 
2700 1 1.63711 -4.58131 0.62517 
2699 3 0.901819 5.31725 -2.89518 
8151 1 2.67884 4.50291 -1.87168 
2181 1 -1.72227 3.12882 0.554918 
8150 3 -2.58397 4.43435 2.54092 
8149 1 -4.51079 -2.22099 2.45443 
6096 1 3.28626 -0.784687 -0.851333 
6095 3 2.2683 3.09091 -1.44428 
16032 1 1.55388 5.3543 -0.220092 
16031 3 -1.62303 -2.71562 -1.0741 
3529 1 -10.0228 0.867644 -4.51535 
6094 1 0.679098 0.481808 -4.91591 
2698 1 3.09916 4.73257 1.47582 
8485 1 8.03148 6.67599 -3.87216 
3531 1 2.79313 -4.28572 -1.91167 
8487 1 3.97696 1.44077 5.11291 
8486 3 0.424811 -3.5138 -3.17033 
3530 3 -0.508744 -0.0541325 0.66481 
19637 3 -1.43506 -2.71128 -2.45609 
19636 1 1.32388 -0.37424 1.92596 
12490 1 -1.23574 -1.83787 6.80675 
14284 1 0.439448 5.83417 1.53934 
10614 1 0.828065 -1.91659 4.56499 
3219 1 -2.48414 -2.2001 5.13313 
9406 1 1.02874 -6.61787 -1.81966 
14866 1 9.77095 0.549815 -3.65997 
12491 3 0.358122 -0.791333 3.18996 
9407 3 -1.41721 5.69129 -1.67797 
12492 1 -2.9837 3.2899 -0.604743 
2115 1 7.02708 -0.51175 -0.801613 
2114 3 -3.47307 -2.85438 -1.10088 
2379 1 -1.02371 -2.52258 -1.692 
2113 1 -2.71958 -1.83575 -0.0704719 
9408 1 0.975133 0.607107 -1.06348 
2180 3 1.17022 0.261531 0.867656 
2179 1 -3.56323 -3.48101 0.97462 
6082 1 1.53483 -2.28617 3.67033 
6644 3 0.264543 -2.33517 2.33582 
6645 1 -3.01632 -2.02091 -3.19799 
633 1 2.11833 0.349686 1.65204 
16030 1 3.66889 -0.790516 3.68918 
6084 1 1.41906 1.47377 -3.16992 
6083 3 0.249722 2.3894 0.8316 
632 3 2.02244 -4.58894 0.210885 
14073 1 -2.62931 -2.09786 -6.9492 
14072 3 3.13092 -1.71359 -1.48816 
16011 1 -2.83725 -7.37019 1.03704 
14071 1 -0.450193 4.20266 0.143285 
20842 1 5.04033 -3.27704 -2.2403 
631 1 -2.63439 -1.52478 1.39807 
14286 1 -4.04506 0.112645 3.20445 
14285 3 -3.87058 1.13451 4.87963 
16068 1 -1.9921 -0.755054 1.69363 
18649 1 -0.342878 -0.026326 -4.20013 
18650 3 -3.13745 1.42586 -1.05435 
16067 3 1.28154 1.98937 2.19944 
20843 3 0.460867 -3.02752 2.69359 
20844 1 0.76994 -2.04733 1.95802 
16066 1 -2.35721 5.84263 -3.10817 
12688 1 3.3042 0.987799 3.42734 
9923 2 1.09042 -0.0164575 -2.65318 
1509 1 -4.55397 0.616813 -1.09556 
9472 1 -8.67986 2.85164 5.5911 
9473 3 3.20138 -7.57965 0.943213 
14868 1 4.65006 0.642224 1.3144 
14867 3 1.58064 3.78463 -3.37751 
18651 1 -2.88348 -1.20246 -4.44589 
8719 1 -3.49611 3.67587 5.15275 
17706 1 -2.37614 -1.61997 0.744891 
8721 1 -0.711033 6.41138 -2.0179 
8720 3 3.03163 -3.85147 1.32233 
9924 1 1.28359 -2.6404 0.515556 
9474 1 -2.5362 4.82587 -0.466529 
17025 1 -4.32641 -0.395964 5.41946 
14507 3 0.0415248 -2.40582 2.03959 
14506 1 0.652704 4.7169 3.5479 
16009 1 2.02948 0.244273 0.405868 
1786 1 -0.809523 -3.0496 4.08529 
20838 1 -6.74324 0.496374 1.08942 
16010 3 2.24846 0.329829 -2.86673 
20836 1 5.62305 0.38173 -0.602818 
9688 1 0.164352 1.53614 5.13597 
16454 3 2.67567 -1.15964 2.64103 
16455 1 1.32116 -5.76667 -4.53937 
9689 3 -0.297978 2.30502 1.44815 
16453 1 -0.974813 2.37383 1.46272 
612 1 -5.6566 2.93602 -0.881021 
10240 1 4.24514 2.65469 0.906685 
20837 3 -0.392558 -2.02384 -4.91414 
9690 1 3.70526 -2.85783 -2.02175 
10770 1 -5.75464 4.72019 3.26872 
611 3 -3.79116 1.30997 -0.517999 
10241 3 -1.60856 -0.196813 4.04479 
10242 1 -0.381259 -4.97018 -7.83185 
4898 3 -0.0744242 3.45706 1.53989 
4899 1 2.88268 7.97638 6.11723 
610 1 -2.40668 -2.07323 -4.47814 
10769 3 2.25412 0.0881502 -1.46764 
17265 1 0.864063 -3.71496 5.96498 
14547 1 -5.31237 -0.962842 -3.36896 
4897 1 -1.48485 -2.1134 -1.62475 
17024 3 -0.43518 0.29892 -0.156278 
17067 1 5.17292 -2.40776 -4.7372 
2225 3 0.171209 -3.41113 4.49346 
13157 3 3.13009 -0.864483 5.17875 
17066 3 -1.38333 -0.997089 -1.8359 
13158 1 8.60311 3.40256 -2.06761 
17023 1 2.27182 1.25742 -0.0585821 
17065 1 4.91393 4.51808 0.182495 
2226 1 2.84485 5.53001 -1.20423 
5630 3 3.47608 0.0637407 2.01647 
5629 1 -4.68245 -5.28742 -5.23794 
18019 1 2.40156 -3.36742 3.81586 
18020 3 1.18524 2.50501 2.21124 
6811 1 1.41459 2.09962 -1.48576 
547 1 2.91693 2.09639 -5.95485 
548 2 1.50629 -2.49878 3.70369 
549 1 2.21558 -0.976915 -2.30961 
1788 1 1.64102 5.62151 6.48107 
1787 2 -0.0265556 -2.98547 0.60562 
4718 3 0.0843837 2.78751 -1.50252 
5408 2 2.34839 -0.610578 2.0317 
5407 1 -4.83888 -2.86698 -7.64789 
21253 1 -2.80298 0.786871 -0.274386 
21254 3 2.19096 -2.21179 -6.23593 
21255 1 3.57005 -2.57219 -3.86436 
14545 1 -3.59598 2.33926 0.682311 
4717 1 -6.67885 0.693173 1.13555 
14546 3 -1.94482 1.51413 -1.242 
3781 1 -2.26199 -2.89148 3.93099 
19827 1 7.36424 -4.90101 1.37788 
19826 3 3.06862 0.895608 -0.915816 
11784 1 7.0498 3.53795 -1.78852 
11783 3 2.07025 0.827886 -3.05279 
19825 1 0.248369 4.33583 3.92422 
11782 1 3.5628 1.02609 1.4995 
18429 1 -4.95902 0.933786 1.59488 
346 1 2.81662 2.70038 -0.574806 
6190 1 -2.38601 -0.362113 0.342587 
20621 3 -2.0565 -0.776196 2.34185 
20620 1 -2.43604 2.11873 4.73962 
14351 3 1.3928 2.26026 2.45847 
12014 3 0.913843 3.06263 1.28496 
18021 1 1.32026 -3.47059 1.45155 
12015 1 -5.91068 -0.412366 -2.34103 
18427 1 1.74545 3.99979 2.76155 
14350 1 -2.27892 1.28324 1.97355 
18428 3 5.48543 -1.909 -0.0283552 
1704 1 -2.19532 -6.17539 5.05902 
8352 1 -3.37043 3.3776 -0.993417 
6639 1 4.33332 -1.15251 2.35323 
4597 1 4.38555 -0.690175 -3.91876 
13750 1 -2.68499 1.79047 -2.22467 
13751 2 -6.89942 -2.90025 0.880979 
12179 2 -1.42105 -3.12875 5.42742 
12180 1 0.275887 -1.29867 3.82785 
21525 1 -6.94239 -0.0853528 0.0883071 
7958 3 -0.0825844 0.616398 0.215901 
7957 1 -0.358573 -3.01219 1.10659 
4684 1 -2.58154 0.796865 -2.42403 
11578 1 -4.72626 -2.76678 4.78774 
4686 1 -3.96633 2.21977 1.59801 
4685 3 -2.60597 3.87553 -4.20258 
7959 1 1.06752 -0.50965 -3.88461 
73 1 3.92442 -4.63726 -0.859804 
75 1 -2.5486 -1.42446 -1.7296 
7755 1 7.62124 0.593492 2.36914 
74 3 -1.59969 0.453982 -0.860921 
1566 1 0.450726 -3.02766 1.63965 
19638 1 5.74631 3.29952 -1.47427 
7754 3 6.50794 0.936022 1.97479 
21523 1 -4.00117 -0.21003 4.04275 
13752 1 0.929543 5.30995 -3.28834 
21524 3 4.24496 3.09013 6.63954 
1565 2 -1.07132 0.839444 3.58313 
1564 1 -0.67253 -0.0480419 1.92468 
12031 1 5.62447 -3.69627 -2.88665 
12032 3 -1.39307 -2.88761 -2.21476 
7753 1 0.613162 1.84635 4.51378 
11580 1 3.20797 2.68822 -0.177232 
11579 2 2.24743 -2.75401 1.98576 
6118 1 -4.66797 4.53414 -4.93631 
6119 3 1.36027 -1.42479 -0.172752 