ITEM: TIMESTEP
40000000
ITEM: NUMBER OF ATOMS
4152
ITEM: BOX BOUNDS pp pp pp
0.0000000000000000e+00 5.0000000000000000e+01
0.0000000000000000e+00 5.0000000000000000e+01
0.0000000000000000e+00 5.0000000000000000e+01
ITEM: ATOMS id type vx vy vz 
895 1 -0.221631 0.132059 1.39492 
1133 3 -0.651001 -2.42486 -2.74419 
1134 1 -7.39824 -2.38539 -2.46032 
2727 1 2.63724 1.42791 -0.200207 
2725 1 -3.85732 1.28357 2.21681 
19887 1 1.01908 -3.21828 3.20775 
19886 3 -3.42723 -5.70232 4.65263 
20601 1 2.07203 -2.27829 3.44999 
5457 1 8.08865 3.83 -3.69013 
5456 3 -3.95896 3.0205 -2.54448 
2726 3 -1.03209 -3.60273 -1.50274 
3299 3 -1.66533 2.8306 -1.42522 
3300 1 4.54588 0.865053 -2.47338 
20599 1 4.72759 0.417937 2.72087 
20600 3 -0.78773 -0.32719 -1.49278 
6163 1 -0.497223 -4.28182 5.51728 
6564 1 6.52853 -1.26849 -2.07359 
1285 1 -0.908278 0.896071 1.52307 
6562 1 -1.33254 2.61368 -4.23225 
6563 3 -2.38727 0.985855 -2.27567 
896 3 -1.74562 -5.30296 2.26633 
897 1 -0.88744 3.21297 -2.59059 
6487 1 -3.72288 -3.90303 -7.76208 
6488 3 -0.496127 0.314495 3.75401 
2922 1 8.93952 -6.0572 0.15018 
1132 1 -1.29821 -1.52386 2.72066 
3691 1 4.2609 1.66012 -4.77788 
3692 3 3.20793 1.26473 1.38536 
11325 1 -1.83098 0.423765 -5.86646 
11324 2 -0.438758 1.35897 -0.489142 
11323 1 -0.85938 0.262858 0.16364 
12425 3 1.12805 0.840235 -0.53139 
12424 1 -5.04911 1.42088 3.24174 
19343 3 -5.92402 0.326091 2.58006 
19885 1 3.32715 -5.04432 3.99782 
3693 1 1.49257 -2.95321 2.92562 
17994 1 -3.01894 0.293328 -3.79119 
21238 1 0.13104 -1.77024 0.637699 
21239 3 -0.934939 -1.19438 0.169217 
21240 1 -3.82658 -0.806289 -3.83711 
3043 1 -6.72067 2.94214 -2.48175 
3044 2 0.986047 3.80952 -2.99212 
19342 1 0.57885 -0.936636 1.92643 
13969 1 4.76036 -0.108191 -2.83004 
3298 1 -2.85904 0.619431 -2.09097 
19344 1 -1.3164 4.52566 -8.09852 
17664 1 1.76412 1.43875 0.834568 
5455 1 -0.119599 -3.97814 -0.0670575 
17663 2 -2.08422 -1.62411 -0.244569 
17662 1 1.25158 -4.4958 -2.77726 
2829 1 -2.24148 -2.14864 0.959997 
20941 1 -0.00118837 -1.63234 -0.970486 
15984 1 1.1374 -0.756178 4.85426 
15983 2 -0.630176 1.28578 5.74281 
11037 1 4.78231 -2.95752 3.42222 
11036 3 -0.90557 -0.450692 0.426322 
6164 2 -3.3035 -2.4988 -1.66975 
21271 1 -6.13389 -2.72054 3.91601 
21272 2 2.48323 -1.33845 -0.981348 
6165 1 6.33779 -0.8297 -5.62526 
20017 1 3.33679 2.86387 2.1417 
21273 1 1.83788 0.0626732 -8.30744 
9666 1 5.77492 -1.96388 -3.05604 
20019 1 0.268855 0.801805 4.50687 
4638 1 -5.8833 6.80446 -1.51438 
20018 2 3.224 -0.358876 0.728137 
1287 1 0.653638 7.40373 -6.71739 
12686 2 -2.55179 0.495015 -0.860441 
12687 1 -2.10935 1.65131 -0.591066 
19255 1 2.06914 -1.84432 -0.342592 
1286 2 -4.40088 1.45566 -2.83226 
12685 1 2.73669 -1.09099 -3.87637 
6489 1 4.77798 4.51747 -1.31676 
1440 1 1.02906 0.0442598 6.0012 
1439 2 -0.405539 0.310356 1.43209 
1438 1 -3.13957 1.5039 -4.34167 
5022 1 1.39448 -0.336628 5.24465 
15939 1 -3.75446 -1.03179 0.0162748 
9569 2 -0.911889 0.0905191 -1.0007 
9568 1 5.98646 -0.0914525 -0.688506 
2921 2 0.513606 1.10151 0.970526 
19256 2 -2.24406 6.55133 -3.57747 
19257 1 2.59764 -1.68612 0.496043 
9570 1 -3.66525 0.381315 -5.08914 
18440 2 -0.0151159 3.63963 -3.98837 
2920 1 2.29527 -1.87261 0.269773 
18439 1 2.81498 1.8342 -1.40171 
18441 1 4.06338 5.70735 1.87801 
8304 1 3.41658 -1.42408 -0.768224 
15938 2 0.881605 -1.03789 2.29221 
12834 1 4.03407 6.06826 4.17043 
2304 1 0.872501 1.48888 -3.26348 
16960 1 -2.38794 1.77693 -1.05037 
16961 2 2.365 1.11977 -0.816252 
2302 1 -2.62258 1.10255 -3.05838 
2303 2 -0.722102 3.15215 0.562336 
19526 2 3.53874 5.02165 -3.41954 
16962 1 3.82051 2.9407 -7.15957 
19525 1 7.47501 -3.17855 -2.1719 
12426 1 -1.01037 1.19166 -2.96115 
14919 1 -1.11257 -2.57736 -0.287762 
16255 1 -1.74946 4.95632 -1.28914 
16257 1 3.32931 -0.254927 0.385804 
20878 1 -3.69144 -4.63684 7.20089 
20879 2 -0.391604 1.02524 1.9974 
16256 2 2.68124 2.61711 4.53996 
14918 2 3.32297 -1.18727 3.14856 
14917 1 1.83929 -3.39997 0.290615 
8319 1 3.65448 -1.19914 0.191785 
17993 2 1.92285 0.788678 0.996744 
17992 1 4.89361 0.834065 -6.1207 
1902 1 -5.07456 -1.53152 6.39267 
1901 2 2.06029 -0.0723015 -1.14881 
3045 1 -2.37299 -4.05661 -0.588049 
1900 1 2.03343 7.01591 -0.65643 
10191 1 -2.07465 2.30004 -3.49277 
13970 2 2.24173 -2.0142 1.77049 
13971 1 1.31198 -4.68374 -0.831676 
2983 1 -0.471132 -0.269562 -2.94829 
5171 2 -2.56998 0.359045 0.904553 
5170 1 3.49451 -5.55732 -0.38679 
8318 2 2.35174 4.34329 6.71406 
12677 2 -5.41301 4.88623 -1.63158 
12676 1 -2.2365 -2.55806 -1.46984 
19743 1 -3.73869 4.49203 4.38548 
17650 1 -1.02442 1.9758 -1.80536 
19742 2 0.876446 -4.19306 -1.06286 
2828 2 7.32753 -3.52622 0.856714 
12678 1 2.29947 1.07785 -1.45517 
2984 2 1.6982 -0.406189 2.52975 
2827 1 6.66538 -1.14501 2.65113 
15142 1 2.98149 -3.88263 -0.557276 
15143 2 -1.03777 -5.79649 1.73784 
15144 1 4.27297 -1.9382 -0.684639 
2985 1 -0.458309 0.411034 2.16209 
17651 2 -1.23384 -1.96132 -2.52211 
17652 1 -4.28597 -7.96019 -3.64156 
16737 1 0.218075 0.174799 -0.598353 
9785 2 0.713837 0.856287 -0.605453 
9786 1 -1.60348 5.87366 0.530115 
9784 1 1.22738 -0.984321 -5.58067 
18793 1 9.31512 -2.72618 -5.75875 
15982 1 -1.61838 2.16908 1.05753 
9919 1 -3.1874 3.6618 -3.34815 
9920 2 -1.90723 -2.48473 -0.936994 
138 1 3.20534 2.44496 -4.42621 
11035 1 -3.38689 7.32773 3.84262 
9921 1 -8.48355 8.93843 1.10416 
20535 1 -4.2348 0.370975 -1.28551 
20534 2 0.630831 1.47925 6.50456 
577 1 -2.087 0.720951 0.827905 
20533 1 -6.71031 -4.15998 2.38882 
19900 1 -0.111499 -1.79755 -3.26554 
136 1 -0.489446 -2.26301 -1.04994 
137 2 2.20281 -0.397943 0.271291 
6051 1 1.7885 -4.67296 -2.30568 
6050 2 3.71427 4.12942 -1.27417 
19901 2 -1.3494 -2.17356 2.98284 
4637 2 -2.56826 2.08594 3.85133 
17596 1 3.28429 0.073969 -4.50929 
10831 1 0.41041 7.17394 -2.50503 
16313 2 1.64869 3.29829 -5.46214 
21074 2 3.41767 -3.3692 -1.12839 
21073 1 -1.24568 -4.20525 -1.89163 
17598 1 -1.77468 0.996056 -1.95594 
17597 2 -6.98655 -0.523944 -0.762583 
10832 2 -0.718945 -5.4509 -2.67552 
16312 1 -3.32904 2.43659 0.593848 
13914 1 0.902263 -1.91694 -1.29945 
13913 2 -2.19064 0.324876 -2.58713 
8926 1 -4.85493 -5.94068 -4.36248 
9916 1 -1.92667 2.91311 0.689185 
18459 1 -2.34499 8.42833 0.606577 
9917 2 0.483583 2.23523 -0.629556 
19621 1 1.63237 -2.53462 -0.77324 
9918 1 -2.754 3.45669 0.456264 
9665 2 -5.9736 1.64147 0.105101 
9664 1 -2.42726 1.53693 2.4879 
4636 1 1.63691 -6.97865 1.31985 
1054 1 2.91998 2.10051 -3.67295 
1055 2 1.41873 -1.46878 -0.395929 
1056 1 -0.530645 2.39848 -1.23117 
16126 1 1.16739 1.93962 -1.65036 
5021 2 -3.0989 4.47506 0.518023 
5020 1 2.4328 2.38385 4.81786 
2160 1 5.14446 3.19977 -0.214718 
8302 1 -5.23206 -1.69339 0.949841 
12833 2 -6.77064 1.66559 3.20901 
12832 1 -7.72565 -4.07728 -5.34036 
19713 1 0.312902 -0.52673 -0.927567 
19712 2 -1.66218 -0.170998 -1.94408 
8303 2 0.119793 1.46488 -1.29658 
17439 1 5.27731 2.29291 3.35169 
3838 1 4.19562 -0.472208 0.872519 
17438 2 -2.33574 3.01814 1.59475 
3804 1 -1.87692 0.573194 0.91486 
8927 2 -1.67465 4.02126 -2.12324 
8928 1 5.29175 1.5922 -6.08445 
7386 1 -3.15118 -0.598104 0.469025 
7385 2 -0.118357 -0.342213 -1.07179 
4071 1 3.62409 1.35701 -4.93673 
19527 1 -5.05732 0.443671 -1.57646 
7384 1 3.66338 5.31505 -5.52266 
20880 1 0.784373 2.34253 -1.6988 
1936 1 4.16333 -1.38216 1.43171 
2159 2 2.42793 0.577238 -1.19292 
1937 2 0.176396 -2.90717 0.535902 
1938 1 -4.59465 3.5218 -5.07196 
3840 1 5.6061 -2.71948 -1.2471 
15678 1 -2.97794 -2.24145 -2.12109 
2158 1 4.47012 2.10864 -1.18818 
3839 2 -5.05649 -2.40383 -1.18275 
9106 1 0.310728 -2.43757 -2.46555 
14013 1 -2.49962 -2.50761 -3.75041 
20105 2 -2.2059 3.55107 -1.32342 
20104 1 -7.25783 6.78439 0.471469 
17437 1 0.424814 -1.42488 2.50815 
11650 1 1.18139 -0.984136 0.132536 
11651 2 2.75251 -1.72764 -0.379546 
10190 2 2.36137 -0.671865 -1.76981 
10189 1 0.104423 1.18148 0.431646 
10185 1 -0.871353 4.6555 -4.36955 
10184 2 -2.20922 -0.270293 -1.85264 
10183 1 2.0216 5.83116 -1.0359 
17043 1 -4.82036 1.41254 4.42997 
4070 2 -1.12823 -0.329277 -2.61307 
4069 1 -4.1509 -0.815636 2.69047 
9237 1 2.61022 -7.91573 -6.04507 
9236 2 4.58291 -1.41243 2.72957 
2752 1 1.71177 1.24122 -0.294918 
5172 1 -2.09737 -0.0812554 -4.04614 
7768 1 -2.65924 -1.33605 -8.58515 
7769 2 -0.333151 -4.41041 1.47606 
7770 1 -1.55886 0.554432 -4.4084 
1198 1 -7.76999 -4.36064 -5.11369 
2753 2 -2.42934 2.5062 0.449153 
1199 2 2.68711 -2.31798 1.89857 
8317 1 6.10706 -4.27819 3.57594 
6651 1 0.719261 -3.8034 5.51379 
6650 2 0.217773 3.86344 -1.11441 
6649 1 2.67752 2.64204 1.25826 
14764 1 -3.47158 -5.8624 3.27218 
18861 1 3.61966 -2.06201 4.38326 
18261 1 -1.52164 7.32489 -3.23745 
14765 2 -1.54209 2.5788 2.48539 
18860 2 1.65822 -1.11752 0.105508 
18859 1 0.161595 -1.288 3.14792 
19741 1 -5.45142 -4.91107 -0.0105172 
16560 1 1.52617 1.53219 1.18408 
20065 1 3.44331 0.955042 -5.14158 
20066 2 -0.797353 2.09002 4.31031 
20067 1 -0.117436 0.468336 1.84014 
6271 1 -2.84443 -5.72636 -6.56679 
6272 2 2.53807 2.67874 -1.88954 
2127 1 -2.43768 6.29249 1.19467 
16735 1 2.55832 1.91855 2.96904 
13761 1 4.74374 -3.68471 -5.18975 
13760 3 2.48521 -1.04709 -0.0950575 
16736 2 -0.903271 0.732668 0.0470252 
1450 1 -1.25412 0.793542 -3.61251 
15840 1 -2.61795 -3.61253 -0.820501 
16559 2 1.27378 -0.406373 -1.72889 
16558 1 4.79289 0.333673 0.718309 
18794 2 2.25609 3.00693 -1.06432 
18795 1 3.02765 1.57261 -3.68171 
2122 1 0.457438 -1.72621 -3.55127 
11508 1 4.35239 0.881157 1.04578 
8577 1 -7.21043 8.12809 -4.50797 
8576 2 -1.54213 -2.01663 1.66448 
2124 1 -5.18511 -4.62619 4.41058 
2123 2 -2.4694 3.98957 1.3286 
8575 1 -3.58043 1.37019 -1.79666 
3768 1 2.16157 -3.53288 -0.149844 
3766 1 -0.289612 6.98371 -6.39017 
3767 2 -5.97684 -0.284497 -3.03586 
6049 1 3.55081 -3.08811 -1.21855 
7852 1 -1.30548 -1.29071 0.250273 
19902 1 -5.26504 8.22475 2.14543 
17440 1 1.05353 3.20546 0.739879 
17441 2 1.64117 1.87896 2.2068 
17442 1 3.79412 4.60897 1.3268 
5896 1 3.5013 -3.15518 0.522882 
5897 2 1.13116 -0.744601 -2.08926 
14646 1 6.82692 7.39726 -5.16732 
12077 3 1.82978 -3.43519 -0.492813 
21075 1 -3.09703 -3.34627 -2.08584 
7281 1 -1.48917 3.73265 1.99898 
8305 1 6.78097 2.54049 3.7583 
16314 1 2.57582 0.344106 -4.91138 
2187 1 2.7202 -1.4111 4.32373 
16376 2 -1.90386 0.0226324 -2.15365 
10833 1 2.70986 -3.32512 -2.94814 
16375 1 1.77548 4.79877 -2.49208 
16377 1 -3.02913 -0.432147 -1.46965 
12076 1 -3.15285 0.861696 4.86672 
19623 1 0.477616 -5.4116 2.85456 
19622 3 3.96494 1.00859 -2.56128 
18458 2 0.943068 -1.83327 -1.21238 
18457 1 1.92479 -1.98935 4.15313 
2141 2 2.03494 -0.128131 -3.48117 
2140 1 4.85295 1.70833 -1.25052 
2142 1 -2.37843 -2.95047 1.02098 
450 1 2.74297 5.31918 -3.93238 
14645 2 2.2143 -0.784756 -4.26271 
7853 3 1.44337 -0.106653 0.470861 
7854 1 -3.55483 0.288733 1.399 
16127 2 1.32641 -3.81372 1.97507 
19241 2 -4.37847 2.27201 1.04342 
14644 1 -7.69774 -0.407947 -4.72824 
19242 1 -0.14216 -0.0508567 -6.62455 
16128 1 -2.50707 -2.93092 -0.353978 
21583 1 -2.34804 -3.44041 -2.7365 
8765 2 1.19558 -1.07563 -1.26737 
19240 1 -3.90603 0.0511931 -7.17269 
1959 1 2.33736 -2.45448 -3.11429 
1958 2 0.523414 -1.009 1.15161 
19711 1 -0.20035 -7.25984 2.03699 
6778 1 2.26878 -4.00286 -1.71925 
2186 2 2.65716 1.81357 -3.7057 
2185 1 2.44022 1.02624 -1.27205 
1957 1 2.40779 -2.4697 -2.1903 
13713 1 4.25691 3.22383 3.59558 
13712 2 -2.34939 2.17673 -1.48127 
6779 2 1.32251 1.26699 -0.840132 
6780 1 -1.67371 -3.22881 5.5075 
8764 1 -1.71753 -1.05024 -4.36677 
19122 1 2.8002 0.814846 3.72689 
19121 2 6.00395 0.349837 3.47252 
13836 1 -4.7394 0.753567 -6.38056 
13835 2 2.30307 1.9435 -1.80054 
359 3 -0.931362 1.57149 -4.4343 
358 1 2.323 -2.27916 -6.70618 
13834 1 1.38554 -3.24132 1.97193 
21105 1 4.65786 2.84083 0.402393 
21104 2 -3.76161 -2.48116 -0.458342 
8779 1 -2.92499 5.45162 2.40116 
21103 1 0.127658 -1.99727 -1.88404 
8780 2 0.767195 -1.16988 0.475433 
8781 1 -0.0156327 -0.138311 -8.88417 
14915 2 3.04159 -1.98855 -4.33712 
4575 1 -4.58045 -1.77373 -3.24549 
108 1 4.44674 -2.31269 -2.21186 
107 2 -3.6295 1.70165 -1.96183 
21584 2 2.67331 1.28166 -1.37222 
14914 1 1.49852 -1.11143 0.333072 
9108 1 7.06426 -2.12078 3.96953 
9107 2 2.85933 3.31147 -0.758838 
14011 1 -3.73354 1.42323 3.81565 
16140 1 -1.48006 -3.05506 -0.477872 
14012 2 1.24786 -1.42881 -1.00755 
16139 2 0.361478 -2.54294 0.621252 
21585 1 -2.33009 -4.28893 -2.51048 
16138 1 -4.87182 5.23011 -5.34139 
13119 1 -3.81302 5.9022 0.286029 
5674 1 3.10763 1.74976 1.61459 
4915 1 2.99482 -2.22667 5.40138 
17042 2 2.43512 0.772387 1.40405 
11652 1 -2.18189 -2.91762 1.2109 
13744 1 5.13581 1.32663 4.71776 
13745 2 0.829976 -3.17406 0.680945 
13746 1 1.66885 -7.04064 -6.0789 
17317 1 2.74538 1.06742 -0.398593 
17318 2 -0.123428 0.159956 -1.2596 
502 1 -5.25435 -7.75261 -3.39498 
4573 1 -1.55076 -1.50619 -7.16702 
16868 2 -1.74499 -3.70615 -0.414949 
16867 1 4.57497 -2.84305 -0.176435 
16869 1 1.11404 2.05114 6.72395 
1162 1 -2.46169 3.00441 -5.38299 
4574 2 -0.59083 -2.17969 4.02351 
9235 1 -1.45264 -1.01593 1.08038 
14916 1 1.80868 5.76241 -4.15024 
2754 1 -0.884442 5.7828 0.227849 
285 1 -1.62257 0.341177 1.23681 
284 2 -1.64235 -4.37843 -0.342504 
283 1 -2.81165 3.7404 -1.8115 
3673 1 2.08708 1.08302 4.7875 
6676 1 1.32641 2.64178 -2.41466 
3674 2 0.412883 -1.65075 3.1253 
15677 2 1.72311 -0.742288 -0.282965 
15676 1 3.01239 0.977377 4.2404 
19363 1 -2.85613 7.0538 0.947632 
18260 2 5.96493 3.0569 -0.476423 
19364 2 -0.31505 -0.532991 -1.14788 
19365 1 2.74638 -3.43813 -0.149973 
14043 1 -6.45447 -4.42044 0.940072 
18259 1 -0.210873 1.64491 -7.14242 
11019 1 -5.03741 -0.422283 -5.26059 
19217 2 0.204968 0.227514 -2.58378 
19216 1 -8.69969 -5.02348 2.12009 
16280 2 -1.01993 3.56914 -1.92481 
19218 1 0.411705 3.01368 0.0774502 
2125 1 2.66382 4.36864 -2.02887 
17041 1 -4.2337 -0.23245 -1.82828 
6273 1 -0.00526571 -0.565207 0.918307 
1743 1 2.41271 3.68762 -2.97737 
2126 2 -2.05227 0.0543905 2.51788 
1742 2 -0.282436 -0.29289 3.11036 
1741 1 -5.72445 -0.0845772 -2.3978 
5772 1 -0.628868 -2.22471 -0.428653 
6177 1 1.70902 4.35639 -0.656076 
6176 2 -2.54565 -2.66738 -5.62126 
6175 1 0.060657 -2.38471 -0.592984 
16279 1 -2.68497 -4.73971 1.88126 
2484 1 3.06141 -0.324291 -6.07845 
2483 2 1.09277 3.91652 0.145686 
21582 1 0.709272 2.04849 -0.178396 
21581 2 1.85123 2.09515 1.87825 
10916 2 -0.469267 -5.12922 3.14233 
10917 1 0.0216758 -7.43581 -8.89777 
1200 1 -2.62946 0.0740224 1.57897 
16791 1 -2.33675 -0.186464 2.24437 
16789 1 -5.66838 -1.82981 -0.502228 
16790 2 0.729622 -0.126893 -3.13301 
19484 2 2.30785 1.55152 -0.583117 
19485 1 -2.95591 0.421279 2.07007 
6981 1 -3.11225 -1.55991 3.83786 
6980 2 -1.18443 -3.05487 -1.33065 
7311 1 -2.59205 -0.310468 1.71384 
12150 1 -2.29722 -0.802188 -2.96843 
14766 1 1.76898 2.33479 -2.82691 
11018 2 0.00525927 1.98105 0.155733 
13759 1 1.42924 -2.69225 2.14618 
6979 1 0.515509 -5.35923 2.66316 
12148 1 7.95326 0.507619 -4.59036 
12149 2 3.98089 1.34046 0.221964 
11017 1 1.82666 1.08643 5.58188 
3680 2 -1.13665 1.31148 0.84006 
11251 1 -1.91026 0.992688 -2.21316 
11507 2 1.6539 2.26926 -0.838088 
16878 1 -4.96194 1.12545 -0.678344 
16877 2 3.14362 -1.38726 -1.26517 
3681 1 6.53734 4.3447 4.85736 
13573 1 0.108085 0.826899 4.32548 
13575 1 -3.58681 -2.81485 -5.89678 
11506 1 -0.466627 4.19062 1.14201 
12 1 0.972298 0.421577 -1.74975 
13574 2 2.83383 -0.658482 0.857588 
11 2 -0.353062 0.562126 -0.367045 
10 1 2.11494 -0.267675 1.3714 
5898 1 -3.4394 1.11248 2.32326 
4487 2 0.616149 1.83628 0.880953 
5808 1 5.55892 -4.66328 -5.53303 
4486 1 1.62094 -1.34413 3.56813 
12078 1 -0.448584 5.09154 -1.04332 
7280 2 -0.703383 -3.43081 5.14867 
7279 1 -1.66761 -3.62963 -1.93183 
5871 1 1.75404 -0.870653 -1.99505 
5870 2 0.0640543 -6.29006 -0.606163 
7517 2 -0.834657 4.123 3.1506 
7518 1 2.988 1.75607 -2.29152 
7058 2 -0.182964 1.61563 -5.3008 
3549 1 -3.54671 -4.27805 0.3674 
5807 2 0.661084 -2.68922 -0.90786 
7059 1 -0.283158 -0.779613 -2.57307 
5806 1 5.63417 -9.11309 -0.17017 
3547 1 -6.25952 -1.42248 3.13359 
448 1 3.71379 -3.43011 6.68806 
449 2 3.6222 -0.80141 1.22162 
3548 2 1.52078 0.879661 1.60963 
21149 2 8.03951 1.71823 -7.09829 
12935 2 4.42487 7.34159 0.169266 
4488 1 -0.527385 1.28434 1.40974 
12934 1 -2.04115 -3.18539 2.84964 
7816 1 -0.603185 -1.74292 -6.53866 
7818 1 0.15097 1.4861 -1.10271 
7817 2 -0.461611 -0.833665 -2.48277 
2449 1 -5.27032 1.85159 -5.31236 
2450 2 0.809762 1.45106 7.05757 
21148 1 1.53414 5.57706 -0.475473 
14836 1 -0.613291 7.56279 -0.798263 
21593 2 -0.553258 -0.591075 7.97933 
21594 1 4.24228 -1.68398 -1.94098 
5869 1 9.0905 2.7415 -5.53213 
20309 2 1.84354 -6.19612 -1.14373 
13711 1 0.954694 -4.89687 1.48909 
14838 1 -2.24027 -0.674938 1.22493 
20310 1 -0.40332 3.59571 -0.117195 
15054 1 6.17319 -0.531826 -3.40186 
14837 2 -2.61282 0.874578 -4.43102 
20308 1 2.4459 2.10123 -0.549789 
11212 1 2.74237 -5.488 2.34183 
360 1 -4.41441 -5.09313 2.00398 
12882 1 -0.728005 5.82864 5.73121 
17521 1 1.60705 1.86936 3.03617 
2451 1 -2.26292 -1.51954 -1.29742 
11722 1 0.724783 0.255407 0.364899 
10543 1 0.402179 -0.612397 -1.48129 
17522 2 -2.73327 2.58943 -0.778873 
17523 1 -2.52067 -1.15062 2.68576 
106 1 0.721382 4.70563 -3.2474 
5850 1 -5.77602 -0.581026 -0.244222 
5849 2 -3.1209 0.104328 2.52413 
5848 1 5.87655 -5.25857 -1.13858 
13117 1 -1.96277 -2.69389 5.86834 
10544 2 -4.41252 -2.25162 -3.28245 
8766 1 -0.24108 4.45378 -0.744063 
16992 1 -2.95209 -0.42656 -2.54673 
4837 1 6.24129 0.0872695 6.57944 
16990 1 5.37703 3.05931 3.21315 
13118 2 -1.73434 -0.0902003 -1.3789 
16991 2 0.662685 -1.61775 -2.80617 
4838 2 -2.27457 0.10529 1.62348 
323 2 -2.48803 3.96948 1.69246 
3935 2 2.09328 -3.23531 -1.21727 
19120 1 3.80001 3.53397 -1.8117 
17073 1 -2.88673 3.62441 8.39482 
17319 1 4.79939 -3.58888 -3.06893 
190 1 0.188583 -0.565648 -0.776248 
503 2 -0.950688 -2.55943 0.620741 
504 1 -3.58517 6.04562 2.78777 
17072 2 0.464507 0.92267 0.0934876 
322 1 3.61864 -3.88215 3.9417 
17071 1 2.00846 -1.00997 4.21507 
12532 1 -0.398868 -1.24945 -5.40242 
20333 3 0.3084 -2.85346 3.87254 
5791 1 -4.99568 -2.60861 0.390763 
20334 1 -5.52336 -5.41595 0.928232 
9767 3 5.98482 -1.13969 -3.46497 
15926 3 3.29143 3.38822 1.79675 
11598 1 6.10345 2.37639 -6.86244 
9768 1 -0.688112 -1.28294 -0.0337332 
1163 2 0.449548 3.16643 -3.17587 
10653 1 -5.44031 -0.598692 1.05541 
10652 3 0.679957 3.62443 2.49261 
10651 1 4.10428 -0.641358 3.86981 
1164 1 -2.95919 -5.10425 4.12088 
15925 1 1.17128 -0.243607 -0.265183 
6677 2 -3.33918 3.11993 -1.14564 
7267 1 0.357752 -0.296389 2.41199 
3675 1 -3.17608 2.13717 1.18118 
5881 1 -2.04938 5.44981 -0.266462 
7268 2 -0.206728 -2.75404 -1.96064 
6678 1 10.4215 -1.2251 -1.09664 
7269 1 -3.54987 0.593875 1.35282 
14204 2 -0.0279442 -0.433429 3.57701 
14203 1 -2.53786 1.03548 -0.183451 
10935 1 4.59279 0.667891 0.538874 
19699 1 3.91814 2.83254 2.76341 
5675 2 0.158074 1.2196 4.95885 
14205 1 0.0715359 2.32862 -3.7806 
6365 2 -3.57595 0.817342 -3.06558 
15790 1 -1.44692 7.56973 1.7684 
14042 2 -0.444341 -0.407115 2.84062 
14041 1 1.80508 -1.08916 4.44514 
4132 1 3.69622 -1.52024 -5.8973 
19700 2 3.52787 0.532811 3.19255 
19701 1 -3.9821 2.19345 0.317108 
15791 2 1.72992 -1.07767 3.32074 
4134 1 0.0526019 2.84847 -3.38212 
5676 1 0.331848 -1.39235 -1.08785 
15792 1 -1.85392 1.13189 -1.43201 
4133 2 3.49728 -2.50216 5.75572 
6364 1 2.4934 -1.42087 0.158275 
7941 1 -0.645934 0.53042 4.8582 
191 2 -1.12955 0.278875 4.30502 
12533 2 -2.02873 1.34771 -1.76927 
5895 1 2.33486 -3.13097 -5.60219 
5771 2 2.08774 1.75334 -0.369258 
192 1 -4.80885 3.17865 0.420169 
5893 1 5.86908 -3.35628 -4.83541 
5894 2 3.19745 -5.83553 2.02857 
5770 1 4.56665 0.000932597 0.482116 
4074 1 -2.71188 -0.0255358 2.54263 
7245 1 4.29576 -5.01106 0.0840568 
12534 1 -0.352236 -2.90338 3.02393 
5419 1 1.7026 -4.4775 -0.124108 
5420 3 2.73135 -1.77956 2.48488 
5421 1 3.01215 -1.52149 -2.86039 
5793 1 5.60542 -3.22178 -0.819946 
5792 3 0.484918 -2.91613 -1.18795 
20583 1 -1.08297 -1.60405 -2.6909 
11855 3 3.38744 4.11036 -5.59939 
2482 1 1.18297 4.19874 -3.33161 
11854 1 -0.144493 0.0614406 2.31755 
20376 1 -3.45462 -2.28171 -6.49814 
20375 3 -3.41432 -3.12927 0.0264721 
11856 1 4.26525 2.90822 9.56109 
892 1 -4.60989 -4.84162 -0.751936 
5882 2 0.859338 -0.0149716 -4.24564 
6459 1 -2.92047 3.81242 4.15369 
10915 1 1.83334 -3.69634 -0.355814 
19483 1 -5.92306 0.690781 -0.340881 
5883 1 5.22185 4.1291 -2.77067 
10806 1 0.821473 -2.17951 3.85532 
10804 1 0.69549 5.80196 -5.19167 
18759 1 0.974353 -3.24839 -2.24218 
18758 3 1.37439 1.25796 1.33915 
10805 2 0.848757 1.25761 0.472867 
5054 2 3.37268 -0.34295 -2.82873 
5055 1 -0.790872 2.53848 -2.13645 
1168 1 1.97454 -1.63626 -3.03868 
3679 1 1.63129 6.01494 4.78868 
18294 1 1.61094 -6.73249 -3.16967 
18293 2 -1.74841 0.40414 -2.22436 
11253 1 -2.45481 -2.8631 -2.50449 
18292 1 -4.01005 -0.0935098 -5.70395 
11252 2 -0.151303 -2.57921 5.67187 
5053 1 -3.97288 -0.420928 1.70902 
8573 2 -0.99903 -0.226532 0.423771 
21386 2 1.10598 -1.23648 -0.726228 
11926 1 2.90699 -4.56369 0.352653 
8572 1 -5.14128 -3.28986 -0.244477 
21387 1 -1.13349 2.65479 1.02421 
5774 2 -1.25963 0.254534 3.96406 
16876 1 -0.973664 -3.25311 3.20996 
11928 1 1.33862 7.89915 -0.404949 
13706 2 -1.73741 -2.99748 1.40679 
5773 1 0.545492 4.29927 -2.7143 
13705 1 -2.19226 0.699158 -1.58589 
13707 1 -0.0258621 -1.90734 3.58533 
14784 1 2.66007 -0.0398613 1.06294 
11927 2 3.75851 -4.46305 -3.6307 
8574 1 -3.22189 -0.931975 -3.11688 
3076 1 -6.85062 -6.65891 6.8251 
3077 2 0.468367 -1.32998 -1.50996 
3078 1 0.689886 0.463879 2.80948 
8562 1 4.89253 2.62898 1.95679 
8561 3 0.950268 1.4126 2.34422 
16893 1 0.318965 -1.5313 0.764095 
16892 2 -0.161037 0.0048849 -1.01595 
422 3 -0.0226737 -2.5937 -0.663967 
13974 1 -1.74501 3.68024 3.8317 
13973 2 2.37818 0.794129 2.83142 
17933 2 1.0288 0.0478254 -2.88237 
17932 1 0.18225 2.1058 3.25485 
7984 1 4.15842 2.426 0.978677 
17934 1 2.17557 5.7987 -1.44626 
7985 2 2.03916 -0.243343 -2.83422 
7334 2 0.15812 2.89025 0.130383 
7335 1 -0.51209 0.0311071 -3.34886 
17244 1 0.688329 0.725639 3.01414 
7057 1 3.19806 -6.17718 -3.75341 
17243 2 1.47301 -0.30403 -1.69141 
17242 1 0.12833 0.0707246 1.52308 
3999 1 0.926347 3.0598 7.25413 
14320 1 -0.626607 0.479725 -0.267233 
3998 2 3.24718 0.598905 0.295111 
12936 1 4.44592 0.18483 -2.25716 
14321 2 0.708393 -0.0526019 -4.31362 
14322 1 1.20283 2.08325 -1.92107 
21592 1 -0.386697 -2.93773 5.35227 
2219 2 -2.04152 -1.1284 -2.71577 
2220 1 -4.58641 3.69027 0.0835612 
15053 2 1.09779 0.290268 3.73284 
14689 1 -4.30323 -6.28083 2.18135 
14690 3 -1.57562 1.29479 1.46979 
2676 1 -2.66357 6.84165 -3.7847 
115 1 -3.87208 -4.23196 2.74778 
15052 1 2.33979 0.585795 1.55501 
423 1 -4.76923 0.837686 4.62875 
14691 1 -0.912481 3.73107 5.50107 
9630 1 -0.753714 4.72298 -1.5151 
9629 2 5.75141 4.2137 1.56083 
9628 1 -5.1632 -8.23021 3.64954 
5074 1 -0.0404104 0.2421 -0.420977 
12880 1 -2.60421 10.4555 -3.51132 
14001 1 3.25984 1.10431 -0.445327 
7516 1 2.94969 -1.38651 4.33062 
18561 1 -5.19038 1.11271 -1.90124 
12881 2 -0.64054 -0.722827 3.44713 
18560 2 -1.02898 4.48456 -0.543185 
12670 1 -1.60178 -5.43921 -1.32777 
18559 1 0.546168 5.15677 -3.86073 
12672 1 1.10088 -4.2056 1.68188 
19030 1 1.81153 0.199026 -4.79148 
12671 2 2.0294 -2.90659 -2.06445 
19031 2 1.31279 0.109783 -0.708857 
6541 1 0.354924 5.4581 4.35007 
19032 1 -6.12531 -2.76535 2.77489 
11724 1 -5.86529 -1.53076 -0.590271 
11723 2 0.996245 2.00124 0.906838 
7333 1 -1.65982 1.07647 -1.24054 
11073 1 1.30454 4.46254 4.26287 
21150 1 7.61154 2.03352 -1.87598 
11072 2 -0.633105 -2.4277 1.59799 
11071 1 -0.474472 1.49982 1.98389 
11659 1 -3.35681 5.70026 -2.27589 
11660 2 -1.96196 2.95887 -2.57924 
18047 2 0.776612 1.46658 2.4488 
9119 2 -6.21051 0.264005 -3.85979 
18046 1 -3.80117 2.74469 3.96244 
9120 1 0.127831 -0.677448 0.816922 
5859 1 4.4023 2.06927 -2.91077 
4839 1 1.92451 0.487782 2.36998 
18048 1 0.369854 -1.48829 1.1972 
116 2 -2.03869 0.618031 2.8459 
117 1 1.91836 0.848231 1.28817 
3550 1 4.27459 -4.53915 -0.308081 
3551 2 -1.80238 -0.975524 -2.93716 
5858 2 -0.0643226 0.896903 -0.900852 
9944 2 -3.3087 3.50098 -0.511055 
9943 1 0.747177 -1.641 4.30128 
5329 1 2.64364 1.30177 -0.651777 
5330 2 -0.327669 -0.518684 6.66597 
5331 1 -0.682159 1.82572 5.88395 
5857 1 0.153559 6.45583 -1.24051 
324 1 -3.19796 -4.66605 3.19412 
3934 1 3.59646 -2.72461 0.940061 
4424 3 0.486279 -3.15491 -1.33594 
4423 1 -1.21209 3.4971 2.71973 
4507 1 5.7663 -7.81456 1.24872 
21508 1 0.746615 1.17506 1.68035 
21509 3 -2.01524 3.43848 1.10216 
7901 3 3.15893 -2.36187 -1.8201 
4508 3 -0.241558 -2.32285 1.69913 
7902 1 4.83242 0.728505 0.623504 
7900 1 1.76544 -2.99392 -3.80441 
9766 1 4.74865 1.00995 6.2294 
10116 1 3.48655 -0.178517 0.815998 
849 1 2.05808 6.11993 2.5152 
4509 1 0.380025 1.47301 -0.885291 
11596 1 3.98037 -4.52302 -0.738937 
3984 1 -6.72395 -0.0538045 4.55117 
3982 1 -3.0833 -0.944817 -1.04395 
3983 3 2.26929 2.4599 -5.16418 
15927 1 -0.494267 -4.08554 -0.27862 
2661 1 0.374267 -0.334155 -7.13272 
14000 3 1.52676 5.15377 -1.59736 
13999 1 3.57289 4.29499 0.83173 
2660 3 4.06637 3.45249 -2.98112 
21201 1 3.90425 -1.40012 2.36875 
2659 1 1.31672 -3.5518 -2.59263 
12100 1 -3.37824 -3.07469 2.09864 
11597 3 -3.24376 -5.2689 0.423214 
6542 2 1.91805 -0.846776 -2.54336 
19028 2 1.87738 0.0876762 -1.79929 
19027 1 -5.65032 -0.199806 -4.43713 
2641 1 0.513784 -6.73591 4.6244 
2642 3 4.06426 -0.228843 2.26172 
21320 2 -1.58133 -1.17338 -1.67608 
19029 1 -0.161465 -1.42263 -1.23957 
2643 1 -3.87867 0.225822 2.99444 
21319 1 4.78068 6.47562 2.53735 
10545 1 -1.24881 2.34144 -5.12164 
21321 1 4.50226 2.07317 0.625853 
21139 1 2.04706 3.49268 -1.98443 
708 1 2.44317 0.0552212 -0.651153 
21140 2 2.39117 -0.265493 -1.31772 
4816 1 5.5325 -5.24136 -2.71897 
2448 1 3.28066 -2.90358 4.99963 
2447 2 -2.00292 0.871783 2.34306 
4817 2 4.03988 -0.105476 -5.01402 
2446 1 1.69262 -2.36562 -0.228177 
707 2 -4.51164 0.886375 -2.62749 
6366 1 -3.28801 0.0287702 -2.82066 
706 1 5.21529 -9.81266 -3.66035 
12003 1 -2.63013 1.79996 -11.2816 
7940 2 1.87736 -4.23234 0.238108 
12002 2 -2.26363 2.20923 0.621295 
12001 1 -2.34675 -4.08803 2.5008 
12117 1 -5.63224 2.32571 2.65278 
12116 2 -1.29799 1.40112 2.47604 
4073 2 -3.50641 2.11167 -0.430142 
8096 2 -1.58733 -1.1242 -5.27082 
4072 1 -2.15065 -1.22058 1.05595 
8095 1 -2.02039 2.49655 2.03892 
8097 1 0.127045 -0.260961 -4.59192 
7939 1 4.04255 0.0782849 1.05717 
4425 1 -3.11446 -2.45381 -0.780509 
7896 1 0.071979 -4.87856 2.12995 
20332 1 3.25825 -1.23677 -3.08786 
2780 3 -2.54732 -1.08491 -0.250184 
8339 3 -1.82947 -1.10374 -1.82244 
8338 1 -0.230703 0.503892 0.725848 
2779 1 -1.12218 1.99987 1.18221 
7810 1 -6.42055 -3.50203 -2.72035 
8340 1 -7.03172 3.22592 0.749642 
7811 3 -1.85413 -5.79981 0.996348 
10115 3 0.42528 -2.07001 -5.55175 
20235 1 -1.78251 0.56323 -4.41605 
7812 1 -6.21502 -4.22087 7.36884 
3189 1 -3.24111 -2.97045 -0.00819804 
8220 1 1.96684 -1.46815 1.8605 
20233 1 6.96398 3.13331 -1.1739 
20234 3 2.74574 -1.99922 0.918484 
10107 1 3.52751 1.34708 3.47157 
10106 3 2.03198 1.17098 -3.54211 
10105 1 -4.35387 3.59636 -0.0399875 
6895 1 -0.772754 2.73745 5.12444 
894 1 -0.0794577 1.20277 -3.60368 
12101 3 0.572825 -1.20887 -0.676218 
6896 3 4.08136 5.36411 0.469496 
20374 1 3.09587 -7.71099 1.76709 
893 3 2.342 -0.468683 -2.03841 
777 1 1.39535 1.78693 0.6242 
10933 1 0.845729 -7.41054 -3.83325 
2715 1 -5.99437 0.566713 0.0990375 
2714 3 0.109436 4.91528 0.221135 
2713 1 7.37279 -1.68553 -1.44984 
3210 1 -7.09904 1.63664 -7.66768 
14143 1 3.42253 0.68932 -3.55151 
3209 3 -1.54286 -0.470386 -2.73081 
14470 1 0.116091 3.81693 6.76446 
18757 1 0.994253 0.47228 -3.84649 
20110 1 2.55389 -3.64168 2.08788 
18878 3 0.0417371 2.90234 -1.47663 
10934 2 0.605234 -1.64594 0.660414 
20890 1 -2.03179 0.849902 1.26113 
4582 1 -2.11506 -3.33995 5.60761 
18877 1 3.44715 3.96563 -5.90833 
14590 1 3.59137 -1.33986 1.7273 
4583 2 0.109431 -1.69116 -0.340662 
14591 2 -3.24667 -2.40321 2.59301 
4584 1 2.98434 6.97258 -3.8299 
6093 1 -6.71788 -4.63732 0.349109 
6092 3 -4.70697 2.45992 0.838226 
16135 1 1.14482 -2.11014 3.78795 
14782 1 -2.72777 -4.00043 -1.17899 
16136 3 -2.79224 -4.37542 1.52251 
16137 1 -0.528278 0.211408 0.874374 
14592 1 2.74438 -0.0443051 4.35055 
14783 2 3.0937 -1.54534 -7.5875 
13470 1 -1.71147 1.50412 -1.67908 
16628 2 -0.612489 2.90077 2.41693 
16476 1 0.695711 3.40657 1.13233 
13468 1 -5.92468 -2.16611 -1.00021 
7204 1 -2.41857 0.0840439 -2.37118 
13469 2 -1.27209 -0.86285 -0.762086 
16475 2 6.22151 0.405635 4.45363 
16474 1 2.1237 1.33599 -2.58349 
16627 1 -2.70219 -0.0722331 3.36573 
5775 1 -1.24763 -1.11258 3.81142 
17175 1 2.16396 1.22868 3.35267 
17174 3 -2.57197 -0.988074 2.0071 
16891 1 -7.29029 -2.03936 1.6379 
10039 1 -2.28362 -4.4307 6.21321 
15859 1 -3.40768 2.07745 -1.08408 
10547 2 -2.25337 1.75073 2.13119 
7986 1 -1.883 1.07974 3.74853 
10546 1 -0.29315 -5.22097 -1.23789 
4544 2 1.77681 -5.02266 1.51383 
4543 1 -0.389262 -4.72747 -3.78703 
16224 1 -9.29769 3.0666 1.64474 
16223 3 -1.72843 -4.49488 3.33587 
16222 1 4.64482 -0.8448 3.87946 
4545 1 -0.31723 1.09944 1.28278 
2218 1 1.88649 3.01968 -2.27493 
17173 1 -1.42562 2.47491 -1.07834 
16341 1 3.52703 2.19057 0.158139 
16340 2 -2.11649 -0.183793 3.17633 
3997 1 -1.47119 -8.10904 -0.904532 
20011 1 -2.36329 -3.06882 -1.29935 
20012 2 1.04125 -3.19268 1.99123 
16339 1 1.73501 0.369855 3.21692 
8596 1 -1.27166 -7.02215 -1.48032 
20013 1 0.0491251 -7.21703 2.21667 
2675 2 -0.7064 1.99694 -0.560107 
3003 1 -1.77801 -2.14274 1.68421 
1018 1 -1.76301 8.36614 -2.56583 
2674 1 -0.927637 -9.57903 -2.22249 
1020 1 -0.73763 4.3858 -1.63343 
1019 2 -0.0448924 2.89662 -0.15956 
15860 2 -4.40698 -1.79112 1.24905 
15861 1 -5.03708 1.13807 -1.25832 
4309 1 2.28479 2.16121 0.91497 
13149 1 -3.20735 1.56594 -1.36089 
19999 1 -3.91742 -2.62287 -4.1007 
8357 2 2.68423 1.90347 -3.51365 
8356 1 1.17954 -3.45447 -2.03803 
13972 1 2.75009 -4.48547 10.7477 
8358 1 4.27566 0.698739 -3.51355 