ITEM: TIMESTEP
25000000
ITEM: NUMBER OF ATOMS
1221
ITEM: BOX BOUNDS pp pp pp
0.0000000000000000e+00 5.0000000000000000e+01
0.0000000000000000e+00 5.0000000000000000e+01
0.0000000000000000e+00 5.0000000000000000e+01
ITEM: ATOMS id type vx vy vz 
750 1 -3.46579 -0.935586 1.00037 
17697 1 -1.14153 -2.99883 1.54635 
17696 2 -0.55762 0.0717819 0.342182 
1855 1 -4.70484 3.10817 -0.793657 
1856 2 1.85849 2.15732 -5.18765 
17695 1 -5.39701 5.4997 -1.13382 
5931 1 -4.15134 6.04503 0.639347 
20080 1 0.484511 3.6295 0.380562 
20081 2 6.14452 3.04499 -3.42167 
5929 1 5.12746 3.32856 0.499697 
5930 2 1.14152 1.61868 1.80657 
10289 3 3.11919 -0.76303 -2.62631 
10290 1 0.1117 3.15791 1.09359 
21305 3 1.88444 -1.37355 3.89671 
21306 1 2.34934 3.61469 -0.782166 
3186 1 2.42161 -1.1264 1.9037 
14126 2 0.523972 -1.18594 -0.985072 
7265 3 0.352449 -0.679464 1.66807 
11385 1 -5.5058 -5.45165 0.878912 
7264 1 -1.22207 5.94637 1.66454 
11383 1 1.68883 -2.36087 0.292751 
345 1 4.32382 -4.86828 -0.147285 
21304 1 -2.56164 -3.57395 0.0303407 
7266 1 -2.45215 -0.0832596 -2.77187 
11384 3 1.12595 -0.406473 -0.515986 
21221 2 -0.171436 1.10842 1.56563 
21222 1 0.0115833 0.872636 1.58507 
21220 1 1.49484 -0.0423458 2.82474 
14127 1 1.9857 4.42256 1.1672 
8031 1 -4.06149 1.03664 -2.79976 
8030 3 -0.494939 -0.236247 -1.77269 
8029 1 -3.16488 -4.19108 0.0482354 
12318 1 0.899733 2.21538 4.98135 
12317 3 0.725673 -0.459771 -0.454838 
1128 1 -2.83166 -1.35136 -0.974245 
1127 2 2.27867 -0.88955 2.03001 
3654 1 -1.9571 -7.2613 0.329562 
3652 1 -0.690148 -1.96051 1.99664 
622 1 2.33911 -1.00957 4.96132 
3653 3 0.440067 -2.06613 0.914883 
749 2 1.77803 0.46318 -3.17327 
748 1 3.48983 0.250171 -3.42709 
5836 1 2.52541 -3.04422 1.63061 
5837 2 -2.70362 1.58449 2.62849 
5838 1 0.564468 1.30789 -0.275858 
1126 1 -1.12586 -7.66529 -4.87725 
1857 1 -3.78766 1.06882 -9.58028 
11695 1 -1.30634 1.23372 -7.76959 
11696 2 -1.04746 -1.17415 -0.757861 
14890 1 0.338141 -2.58585 -6.13789 
14935 1 0.829313 1.48546 -2.07409 
4330 1 2.51347 -4.21414 1.75494 
7437 1 -0.762395 1.35628 1.04532 
14070 1 3.13695 -1.22613 2.02542 
11697 1 0.0160461 3.23773 -0.542057 
9321 1 -2.14015 -1.84093 -0.260276 
7436 3 0.256545 -1.85037 1.98142 
5123 2 -0.398081 4.46008 -4.62052 
2886 1 1.52151 -4.91445 4.1387 
5124 1 -1.71916 -0.27797 4.56234 
2885 2 -0.295407 -4.55098 1.4755 
5122 1 1.13366 0.826773 -0.134473 
11375 3 3.28323 2.27468 -1.17983 
4332 1 -3.62953 -2.28002 0.689003 
4331 2 1.07011 2.57572 -3.17151 
1491 1 -2.58271 0.724321 2.9342 
7435 1 2.20435 -1.94087 -0.627001 
1490 2 -2.84383 0.98133 3.6238 
2427 1 -1.65629 0.261699 -0.695135 
1489 1 1.9785 0.976683 0.576323 
18172 1 3.55588 2.74103 0.79354 
2884 1 4.84407 -1.26841 1.47207 
18173 2 -0.323323 -0.485576 2.06074 
6990 1 -2.3399 0.847112 2.36077 
6989 2 2.16091 -0.454998 3.00939 
6988 1 -8.99424 -1.55577 1.3421 
12674 3 0.347897 1.06659 0.389066 
12675 1 -3.99118 2.8356 3.5988 
12673 1 -2.3524 2.44352 -0.60172 
17598 1 -4.34567 -3.99669 -0.801176 
5775 1 1.79878 -2.39706 -3.2373 
5774 2 4.17477 4.44497 -0.618787 
16353 1 -8.10589 -0.91447 1.41505 
16352 2 4.03542 2.6845 2.30211 
5773 1 1.52652 1.01648 2.10122 
9678 1 -4.16433 -4.99398 -0.165471 
20082 1 -4.21586 -2.3323 -1.48877 
1203 1 2.49351 -0.163602 0.670125 
1202 3 0.378329 0.601871 -0.305855 
1201 1 -5.47597 3.015 3.36459 
10166 2 -0.119154 -1.64262 -0.124742 
10167 1 2.54144 1.89824 -1.70392 
10288 1 -5.25175 2.62706 4.66364 
17161 1 0.652444 4.27851 1.07336 
18174 1 5.95985 9.64185 3.6381 
17162 3 -2.45486 3.79999 4.48186 
570 1 0.5653 6.57256 -1.37621 
17163 1 1.605 -2.34249 -1.84356 
569 3 -0.755154 2.40458 -1.02838 
568 1 -0.623135 0.375428 2.32245 
3184 1 -0.236807 -3.83005 0.505954 
9712 1 -4.19432 0.450125 3.37551 
3185 3 3.93623 -3.98122 -4.21378 
9713 3 2.50235 1.75755 -3.53429 
9714 1 2.6531 -5.15244 1.48982 
10957 1 0.884877 -6.83129 -0.370126 
10958 2 -4.29221 -1.6001 -2.038 
21167 2 -2.43561 -2.01602 3.07477 
21166 1 -3.86488 1.23119 3.41341 
21168 1 -0.307147 -0.228442 3.0188 
15456 1 1.4212 4.70543 1.92947 
15455 2 1.51779 3.33771 0.481773 
14125 1 -0.845237 -0.0137136 4.83839 
15454 1 3.95814 2.62442 -1.0059 
10959 1 6.83473 5.28228 6.33989 
15803 2 -1.23776 1.52125 1.03473 
9677 2 -2.25117 -0.0386227 -2.32177 
15802 1 -1.37163 -4.73092 3.38202 
14977 1 0.124022 -0.381583 -3.9279 
14978 2 -2.26951 -0.139732 0.219109 
14979 1 5.31914 -6.76279 -3.84023 
21055 1 2.75933 -4.79097 -0.276229 
21056 2 -3.94614 -3.35231 4.2998 
343 1 0.652654 3.03044 -2.54944 
344 3 -2.35797 1.42507 -0.685144 
11568 1 -1.70372 -3.92522 3.25967 
12316 1 7.16061 -2.30188 0.804736 
16666 1 -1.96686 -0.532804 -0.816528 
16667 3 0.135703 2.44904 1.54895 
16668 1 2.94488 -2.17839 -5.23776 
7062 1 -0.507278 -0.838962 -3.66055 
7061 3 2.00547 -0.907658 2.73047 
11567 3 -0.863543 -1.3027 1.55761 
9808 1 -2.43153 2.22356 -3.21629 
5274 1 -3.97174 2.05109 2.52728 
1501 1 0.188329 -2.94076 -1.07764 
1502 3 2.16716 -0.553247 1.06791 
5745 1 -7.29821 -0.00560991 -0.481433 
16412 2 -6.2435 0.163938 1.09951 
16413 1 4.15682 0.537224 -0.0991506 
623 2 0.328444 0.755568 1.44022 
8154 1 3.70512 4.12311 0.545637 
8064 1 0.701404 -0.193256 -3.57579 
8063 2 1.66834 -3.39603 -5.38282 
624 1 -3.93591 0.133483 6.77773 
8062 1 -2.79194 -2.29327 3.70227 
8153 2 1.65381 2.01167 -2.28955 
3411 1 -3.85609 -0.377304 1.40818 
3410 2 -6.51301 1.2439 5.10833 
3409 1 -2.48121 -3.11815 -2.91217 
18045 1 -3.53147 0.886662 -4.26908 
14891 2 -1.00278 2.40014 -0.545616 
14892 1 1.84817 -0.631515 5.99651 
6972 1 2.33774 -1.11044 0.643342 
6971 2 -3.20642 -1.609 -0.547796 
14937 1 1.88629 6.83523 3.27773 
14936 2 -2.60406 4.2339 -1.7776 
6970 1 -0.572712 2.02006 -1.65545 
21394 1 0.294482 6.51494 0.499444 
5744 3 -3.30103 -2.96623 0.380242 
6104 2 -0.577383 3.64941 2.6057 
4102 1 0.363397 0.96089 5.61365 
6103 1 0.37658 3.30275 0.538458 
6105 1 2.9869 0.442123 6.65046 
5743 1 -0.676442 2.7928 -4.7301 
6077 2 3.54022 0.138566 1.08672 
14758 1 1.8025 -8.03139 1.57429 
14760 1 -9.52095 -1.58555 6.91932 
14759 2 -2.05104 1.05318 -1.1462 
14069 2 -1.59694 0.189071 0.646757 
6589 1 0.594487 3.07709 -4.58527 
14068 1 -1.80784 -1.85431 1.6962 
17917 1 -0.933797 0.905805 -1.37998 
17918 2 -0.88173 0.0147961 -1.26847 
6590 2 -2.70679 -1.16244 0.721537 
13352 2 1.33873 2.1258 -0.0830149 
13351 1 0.873961 -1.21206 7.74597 
1308 1 2.76733 0.0769697 3.81775 
13353 1 -2.08871 2.01359 0.497312 
9319 1 -3.41838 -5.34196 0.749598 
9320 2 -3.19486 0.00829005 1.79886 
7024 1 -1.5994 1.21583 0.88365 
7025 2 1.30218 0.185767 -0.172841 
7026 1 -7.00813 2.85775 -0.208575 
1307 2 2.23538 3.24852 -1.47603 
1306 1 0.242538 1.92213 1.71644 
4103 2 3.94131 -0.959123 -5.79016 
6076 1 11.9072 3.10985 -6.09438 
4104 1 -3.18411 -4.88364 -2.74054 
3854 2 -0.0129695 -1.90874 0.876334 
3853 1 -7.25945 -2.85671 0.227675 
20149 1 -7.25692 2.80295 -2.86772 
4081 1 2.93137 -0.468057 -2.02152 
3855 1 -6.9287 -3.65824 -1.56288 
11376 1 -7.33455 -2.29982 -3.50616 
11374 1 0.0436921 0.311436 2.14137 
995 3 -0.169374 -5.34577 -1.70196 
994 1 -1.22165 1.82794 -4.38242 
19091 3 -4.35554 5.28336 1.2063 
19092 1 2.22924 0.295209 -3.36082 
18040 1 2.78946 2.55865 -0.15681 
19090 1 -2.61225 2.01463 0.378237 
18041 2 -2.00278 -2.03178 -0.0426479 
13912 1 -6.6632 8.10335 -1.32226 
3414 1 -4.18477 1.1442 2.01344 
13913 2 1.41231 3.67395 -1.42157 
3413 2 1.03077 0.885456 2.66623 
3412 1 4.13032 4.66802 5.83585 
16905 1 -0.139932 -0.141283 -3.22904 
6190 1 -1.2022 0.394482 -3.53024 
6191 2 0.957609 0.0942218 0.427845 
17919 1 -0.424285 0.0598726 1.49322 
6192 1 2.85839 -1.92908 3.68324 
783 1 3.38167 6.30329 1.9862 
782 2 -2.84777 2.16997 1.34689 
781 1 -1.42304 -1.81026 3.03017 
2426 2 -1.1174 -1.70379 -1.30616 
11967 1 -5.66529 -0.287942 1.94902 
2425 1 -2.19039 -1.16209 3.01106 
17311 1 1.18109 6.29049 -0.483254 
11966 2 -0.790592 1.10161 1.2973 
17312 2 0.103308 -2.3157 0.585194 
17313 1 -0.830559 2.79611 -3.25039 
16718 2 0.765237 0.991287 -2.15676 
16717 1 3.26037 -0.00632835 1.57951 
19566 1 -2.36329 2.43983 -2.05201 
20150 2 -0.125906 -4.81134 -2.63168 
20151 1 -4.04108 -1.48557 -5.00345 
4584 1 1.9659 -7.61403 -1.89709 
19565 2 -0.577037 -0.0687459 1.94237 
19564 1 2.7519 -6.58747 -0.852118 
12990 1 2.37962 2.91143 -3.93952 
12989 2 3.31097 -1.3763 -3.6736 
18423 1 3.23326 0.460849 3.20952 
20247 1 -2.50222 -0.722887 8.794 
2346 1 -1.14087 -3.00755 -3.21511 
2344 1 -2.72695 3.51503 -0.435534 
20246 2 2.84817 3.21932 -4.76907 
18421 1 4.1051 -3.34503 -0.911934 
18422 2 3.0084 -2.70533 6.22103 
20245 1 0.836608 2.75545 0.434505 
2345 2 2.28471 -0.473321 -1.5773 
8095 1 -1.07354 -2.79061 2.53491 
8096 2 -2.84398 2.01231 -4.12353 
12223 1 -1.63587 0.369428 2.71421 
52 1 -4.18461 -1.57453 -1.57555 
53 2 -0.0715322 -0.594738 -0.364145 
54 1 4.35229 -1.13504 2.51578 
12224 3 2.28727 1.36214 1.87819 
12225 1 3.73169 4.78449 -2.02202 
16776 1 0.118886 3.18707 2.59943 
16775 3 3.46862 -2.10377 -3.74679 
16774 1 -2.55816 1.40489 3.61152 
987 1 -5.47616 1.94279 0.319017 
986 2 1.15957 -1.59269 -0.691238 
9157 1 -3.81642 -7.22974 -3.46496 
985 1 0.734228 1.86288 -4.58912 
9159 1 -2.78166 -4.73428 3.28317 
9158 2 -0.430561 0.797341 0.177744 
16351 1 1.88182 6.28228 -1.4014 
10369 1 -0.681189 4.196 -3.51829 
10370 2 0.508086 0.909994 -2.38705 
10371 1 -5.63682 -1.3959 3.86244 
13293 1 -2.33446 6.78967 2.81042 
6865 1 -0.999765 -3.47568 -2.80203 
12760 1 -2.61582 -2.80519 -4.32968 
6866 2 -3.17297 -0.590707 -0.831464 
17597 2 0.893638 -5.05596 1.412 
16904 2 1.24489 1.93163 -0.773449 
17596 1 -2.47109 -2.61011 9.49496 
17628 1 -5.56396 -3.13691 5.38815 
17627 2 -0.0596636 -1.81085 -0.351023 
17626 1 -4.12563 -0.152247 -2.71572 
16350 1 -1.20233 1.88131 4.98157 
16903 1 -2.26627 -2.56125 1.05709 
11711 2 -0.0966442 1.34191 0.536328 
11710 1 -3.66135 -0.907222 2.14045 
6867 1 0.463316 2.77689 1.44504 
8305 1 -3.18291 -5.01375 4.31639 
8306 2 9.10255 0.292852 -0.861472 
852 1 -2.26212 2.53564 -1.00351 
18346 1 3.60168 -2.48241 3.6496 
18347 2 0.840857 0.0262023 2.34504 
18348 1 -1.45779 -0.488831 -3.42997 
851 2 -0.0627843 -2.96 -3.63011 
850 1 -3.06136 -1.60818 3.78366 
5779 1 5.23403 -0.521851 5.35776 
5780 2 -0.145359 -2.06019 -0.308696 
5781 1 4.29516 4.09947 6.52502 
10165 1 2.47706 -1.54772 -0.577252 
18631 1 -2.19692 -3.30674 -1.97962 
14566 1 4.17257 -9.78263 -3.47266 
14567 2 -3.13492 1.82242 0.773828 
18632 2 2.31408 0.355576 0.0382187 
18633 1 0.00589715 -0.784139 5.05337 
4541 2 -0.766094 0.995181 0.610324 
4542 1 -4.06762 4.52821 -1.11518 
11109 1 2.42166 -6.73727 1.15872 
17182 1 -0.586558 4.88232 3.76062 
7395 1 -2.41084 -3.47958 -0.213544 
5380 1 1.18037 3.31374 -7.34588 
8097 1 -0.557104 -7.50852 0.614977 
17184 1 2.28245 0.267501 -3.08566 
17183 2 0.450472 1.62547 -5.22317 
5382 1 9.25248 5.00788 2.68247 
5381 2 3.93663 -0.61579 -0.0244807 
6730 1 -4.4547 2.38387 5.56633 
5895 1 3.77965 -8.06255 9.24063 
5894 2 -2.39404 -2.78644 3.8409 
12762 1 6.97996 -5.70572 1.76786 
2926 1 0.869075 -3.91953 4.33576 
2927 2 2.30408 1.86311 -2.75773 
5893 1 -1.44032 -1.27548 0.296446 
20565 1 -4.08148 -1.48039 -5.34135 
12761 2 1.57242 3.16041 -0.4812 
11712 1 -3.59857 0.564799 1.14357 
20563 1 1.86532 -0.160095 3.31733 
6555 1 1.10456 -7.29433 1.96344 
10108 1 1.76758 0.2736 -1.08754 
10109 2 -3.62336 1.02547 -1.31348 
10110 1 0.922014 -1.41509 5.31525 
20564 2 0.645203 1.46715 1.44159 
15804 1 1.17631 1.11178 0.223213 
9676 1 -3.27851 -2.23132 0.280588 
8178 1 -1.54464 -1.97276 3.45623 
14568 1 -0.337722 3.17495 5.75827 
8185 1 -2.63438 -6.26627 0.391162 
8186 2 -1.46229 4.8531 -2.01792 
8187 1 -2.82537 6.05548 6.21249 
9409 1 1.48816 -0.163308 1.91729 
1326 1 7.86492 -1.57874 -5.71936 
9410 2 -2.44682 -0.229288 -0.574723 
9411 1 -4.85342 3.24261 2.37274 
21057 1 -1.59988 0.612034 -1.75967 
12237 1 2.08445 1.60547 4.37917 
11108 2 1.0875 -0.428329 2.67088 
11107 1 -0.433096 -1.09868 0.620887 
7394 2 -2.00247 0.990784 -2.92405 
12235 1 6.13473 -1.04961 5.06512 
12236 2 -5.34431 -3.8104 -7.00209 
2928 1 -3.2352 2.08724 -0.030372 
6554 3 -0.878738 2.39632 -1.62198 
6553 1 -0.322307 -4.19886 5.88983 
10666 1 0.760059 2.3188 -0.496658 
7060 1 -1.8269 1.41523 -5.29342 
18037 1 1.74578 -2.28676 1.25077 
11566 1 2.47566 1.79469 1.01854 
1572 1 -3.82045 3.29642 0.0924941 
1571 2 1.08559 2.67318 0.0258235 
1570 1 4.91622 2.72364 -1.19554 
9843 1 0.928473 -2.28735 -0.423162 
18039 1 -3.62752 -4.13152 1.9455 
18038 3 2.96655 1.08095 6.47346 
9842 3 -0.313624 -1.41582 1.221 
9809 3 1.41515 0.384107 -2.9235 
9810 1 2.49882 -3.87468 3.89221 
8032 1 2.62353 -6.86514 0.97585 
8033 3 -3.29406 -1.62811 1.07687 
5272 1 0.478429 -4.96233 2.34057 
8034 1 1.29055 -2.97763 4.73993 
5273 3 -0.630997 0.321732 3.39077 
9841 1 7.57804 1.68507 6.18024 
1503 1 2.26555 0.445938 -4.60373 
1384 1 3.55962 -0.388817 -3.52352 
1385 3 -2.98079 0.858211 0.337486 
1386 1 -1.30084 -5.23723 -0.343652 
18522 1 -3.02641 0.527122 -1.52733 
18521 3 -3.76706 -3.05637 -3.1569 
16411 1 6.85334 4.01924 1.65119 
21033 1 5.10762 0.496758 -5.6291 
8923 1 0.990153 2.51106 -2.14379 
8924 2 -0.0718625 0.836118 2.45544 
8925 1 5.56292 2.31542 -3.19628 
7051 1 2.59771 -2.87911 -2.79904 
8152 1 5.34768 1.93765 1.9825 
7053 1 0.557278 5.81531 -0.145352 
7052 2 3.24257 -1.41996 2.63003 
21396 1 1.28218 4.47532 -1.69656 
16828 1 0.997131 -2.83398 -2.5479 
21395 2 -1.10162 1.05198 0.852128 
18044 2 -0.574083 -4.40423 0.834439 
6078 1 -6.35643 1.00695 0.412945 
6984 1 1.6852 -2.41214 0.511485 
15005 2 -5.12215 -0.652065 2.06725 
15006 1 -3.03358 0.15281 -3.81285 
13422 1 6.02625 -1.9242 -4.72781 
13421 2 0.633726 2.00857 -1.82492 
13420 1 -3.6195 -4.40978 -3.01281 
17878 1 -3.7 6.83105 -2.46632 
7205 2 1.44421 -3.83022 -1.21185 
5492 2 -1.22616 2.02525 -2.04901 
5493 1 3.17593 0.195809 0.43048 
7204 1 3.9003 4.80212 -2.78464 
7206 1 -2.63713 0.480596 -0.882291 
17879 2 -2.19678 2.88619 -0.659355 
17121 1 -3.69021 0.704788 4.00645 
17120 2 0.176113 3.01893 -6.67859 
17119 1 -1.48595 1.9928 0.804311 
21032 2 -0.328004 -0.502285 -0.363398 
21031 1 0.665743 -1.4832 0.0479464 
11683 1 -3.9991 1.7073 4.37539 
7112 2 1.87521 1.70645 0.730704 
976 1 -0.0678803 4.63249 0.200561 
7113 1 -2.12692 6.36099 -3.79894 
977 2 -3.20238 0.101089 0.0960366 
978 1 4.64216 6.09582 6.49691 
6591 1 2.6701 -1.18514 -1.07546 
17021 2 0.93076 -0.998625 7.31746 
17022 1 -3.86855 -2.64861 -5.49519 
5170 1 0.552487 5.11946 6.15322 
6408 1 -1.35938 7.36116 2.67791 
5890 1 -0.40905 0.640506 3.9564 
16829 2 -2.69928 -0.994896 -0.927198 
16830 1 -2.13564 4.9771 1.53957 
5171 2 -2.71771 -4.19859 1.34515 
13746 1 -2.11958 -4.77775 -3.08996 
11685 1 -1.28188 1.34716 1.06071 
4083 1 0.160734 4.11745 -3.07897 
13744 1 3.60882 4.75809 5.65524 
5172 1 -0.0200451 -3.57446 -0.343842 
18043 1 -0.327051 -0.914772 9.67745 
13745 2 -3.67128 0.422066 -5.82949 
16868 2 -1.84105 1.10504 -1.76233 
17839 1 -5.57675 -1.68289 4.54553 
16867 1 0.38685 1.85936 -3.6787 
21121 1 -0.378308 0.454904 -3.51908 
11684 2 2.1965 1.58615 -1.17958 
4082 2 0.600814 -1.22342 -2.46578 
4392 1 0.812419 -1.01597 0.193376 
6982 1 1.90468 -2.85189 1.36806 
6983 2 -1.34886 -1.31274 -0.251877 
4391 2 -0.042357 -1.80604 -3.59896 
4390 1 -1.84785 -2.83065 0.613468 
6289 1 0.510954 -7.00378 -1.25513 
11718 1 -2.31129 -6.79857 -3.11668 
4485 1 -2.74493 0.645615 0.648471 
4484 2 -1.54011 -3.88313 -0.11126 
11717 2 2.61072 -5.22351 -4.86801 
6857 3 -0.518782 -1.88584 3.53561 
6856 1 2.23567 -0.440124 1.71718 
996 1 2.24397 -6.01728 -0.606818 
4483 1 -5.80663 -0.918723 -0.075943 
6858 1 -1.02432 -2.9285 -4.44824 
9620 2 -0.788876 0.658429 -3.78644 
9619 1 -0.886101 -4.42556 1.63922 
3848 2 -0.659222 0.384615 -3.59831 
326 2 -0.717587 -2.36768 -1.75668 
17880 1 0.776265 -4.54766 -6.61529 
18042 1 0.560668 6.45458 5.31354 
15004 1 2.01311 2.12103 -5.37037 
11177 2 0.0930779 -0.0776703 -2.99972 
11178 1 4.26172 4.72188 1.31197 
3847 1 6.15241 3.32377 -1.1125 
11176 1 6.65563 0.568376 2.46622 
327 1 -0.931494 -3.81088 -1.93836 
325 1 -4.38244 0.422947 4.77173 
1065 1 -3.66772 2.09203 -2.50675 
10792 1 -0.0672411 -1.83844 -1.45622 
1063 1 0.101838 -2.91905 0.911923 
16845 1 -1.39041 -0.812789 0.0532058 
1064 2 0.577563 0.132961 3.29911 
10793 2 5.83697 -5.28354 0.783436 
13914 1 0.445412 -0.734111 -7.08045 
17020 1 0.207067 7.71067 -1.32016 
16844 2 -3.66547 -1.46101 -1.34849 
6407 2 -0.602079 -0.744375 -4.52307 
16843 1 -4.10065 -5.97462 1.48448 
5892 1 1.96128 4.99208 2.27227 
5891 2 2.17476 -5.97426 -0.0961652 
7575 1 0.637904 -1.82882 5.97033 
7574 2 2.25812 -4.49984 -1.37303 
7573 1 -4.1877 2.79865 2.57612 
4356 1 4.99623 0.252298 -0.481628 
15545 2 0.592042 -0.301198 -1.75393 
15544 1 5.73427 -3.24313 3.78481 
11965 1 -2.61408 4.88232 -1.14391 
16719 1 -3.32502 -5.05101 -2.29743 
17841 1 -2.04127 4.4702 0.578436 
6406 1 1.73093 -2.01116 8.29617 
15961 1 0.785803 1.04951 3.49004 
15546 1 1.22089 -1.89074 -3.01625 
17840 2 -2.9597 -0.76709 -0.362324 
15962 2 -3.49622 0.0622265 -5.915 
15963 1 1.09942 -0.650708 -2.25029 
16710 1 -1.38704 5.30229 -1.95547 
14708 2 -1.10922 -3.66034 0.260353 
16708 1 1.44445 -3.97338 -3.69539 
12988 1 6.03321 0.648663 -3.62084 
14707 1 1.39003 -0.306718 -1.94616 
4583 2 -2.70635 0.473235 1.94035 
4582 1 1.43915 6.75405 -4.74746 
17071 1 0.730372 -1.18419 1.72028 
17072 2 0.244557 2.5968 -2.15038 
17073 1 -1.44327 -1.94433 1.21576 
9099 1 -5.66243 2.27038 5.8563 
17833 1 2.11848 4.8843 4.65099 
6291 1 -0.460581 -4.79759 2.37453 
6290 2 4.31378 3.69624 3.32926 
17834 2 2.03175 0.669352 3.26413 
17835 1 0.953568 -7.06527 4.38111 
4255 1 -1.60988 -3.8882 1.84407 
4256 2 2.05204 4.5678 -2.49627 
6846 1 -1.22253 -3.04595 2.88991 
21159 1 -0.963544 1.1747 -0.130603 
21158 3 1.0364 1.13833 -1.48284 
21157 1 2.5995 -4.24068 -3.59258 
4930 1 3.04154 2.06582 1.71996 
4931 2 1.60103 -0.616865 1.74755 
4932 1 -7.03482 3.70536 2.28692 
13146 1 -2.68395 1.17101 -3.93797 
13145 2 4.6029 1.20555 -3.06248 
21250 1 7.22168 1.9549 -4.40908 
13144 1 -0.699345 -1.17136 -0.814265 
13291 1 -5.63119 -3.50452 2.27351 
13292 2 -1.15567 1.40219 0.668829 
11090 2 0.268883 2.18712 -0.275266 
11089 1 -0.257961 -0.367427 5.00113 
2901 1 3.5648 -2.62664 -1.88374 
2900 2 1.85519 -1.40352 -4.44846 
2899 1 3.15498 -4.34933 0.971893 
12900 1 5.34291 -4.46271 -3.34331 
16349 2 0.843851 4.71497 -0.879516 
16348 1 2.15057 -4.07456 4.95885 
13525 1 0.0707913 -5.56512 -1.43947 
12899 2 3.9704 1.6082 -2.87469 
12898 1 0.702063 5.05581 -6.48075 
13526 2 -1.98138 1.2201 -1.79362 
13527 1 1.46344 3.76634 -0.450827 
13138 1 2.42183 -1.47162 2.64975 
8307 1 4.76003 -2.06839 -5.67795 
16324 1 1.88987 -1.59321 1.39008 
8176 1 -0.422675 -5.50314 1.0043 
2338 1 1.41791 -6.72816 1.56775 
19926 1 -6.78593 -4.62608 -6.93672 
13139 2 4.45685 -0.308401 1.28896 
2339 2 0.557468 -1.02071 -1.01564 
2340 1 1.73212 8.10707 -2.08736 
13140 1 1.70237 2.7861 5.60714 
2479 1 -4.81949 -1.36721 2.81593 
14709 1 -2.43418 2.49973 0.0849582 
2127 1 4.99776 0.445635 2.92375 
2126 2 0.82131 1.38192 1.77799 
2125 1 0.846934 -3.3089 -0.810012 
3675 1 6.47436 3.63779 -2.00058 
14462 2 1.19332 0.146656 1.42087 
14461 1 3.34708 -1.09467 1.36746 
3766 1 -3.07285 -5.40347 7.56184 
14463 1 2.41613 -0.336716 2.59996 
14439 1 -0.0161831 -1.90243 -4.12322 
14438 2 -0.964686 -1.65509 0.650247 
4540 1 -2.60613 0.299665 2.83433 
14437 1 3.38062 0.288937 -0.242078 
2019 1 1.97295 0.326894 7.26802 
20867 2 -3.0367 2.64203 3.19503 
20868 1 -4.57038 2.71304 -6.22679 
20866 1 3.95149 -4.33635 -5.27088 
2018 2 -1.9301 4.6724 0.507563 
3385 1 6.16024 2.85798 4.01811 
4329 1 5.09456 -2.04641 -0.993326 
3386 2 0.848712 1.55076 -0.551012 
2017 1 -0.245025 1.18399 0.10106 
4328 2 0.497862 -0.594033 1.31541 
6845 3 -0.168264 1.48423 -2.30533 
6731 3 0.655526 -0.562052 -1.43083 
6732 1 0.0336538 -4.4678 4.9091 
4327 1 -3.22068 -2.71016 1.95663 
6844 1 0.278459 8.70135 -5.4089 
21251 2 1.02831 1.52847 -0.0631262 
19232 2 1.3587 1.97368 -1.28368 
19233 1 0.335054 3.21574 -4.80777 
19231 1 0.742889 1.4577 -2.22837 
4219 1 -1.1847 1.4773 -0.18989 
4220 2 -2.22629 1.61511 -0.413575 
4221 1 -4.2013 3.34086 1.61097 
9543 1 4.3159 -0.361263 0.297301 
4892 2 0.903381 -3.9625 1.53782 
21252 1 -0.173744 2.63997 3.7439 
4891 1 -3.00594 -3.41645 2.41181 
4893 1 0.510541 -0.0108001 4.82914 
17095 1 4.55836 3.04399 -0.148392 
17096 2 1.37625 0.897623 -2.70287 
21477 1 2.27545 2.63273 -0.536253 
3837 1 1.08062 -4.66294 7.61022 
3836 3 1.74852 0.496687 0.885775 
3835 1 -0.0788784 -2.83836 0.719558 
12504 1 3.63232 1.5276 -2.31346 
12503 2 1.05164 5.15962 -2.21987 
9542 2 -1.51363 2.30075 0.303748 
8177 2 3.35602 -0.351298 -3.16161 
16325 2 -2.95267 -3.06789 1.86844 
16326 1 -3.31279 0.890633 -0.924741 
3065 2 0.512723 0.919388 -1.10244 
2482 1 0.961481 1.79646 -6.35892 
3064 1 -2.14112 2.06999 3.69717 
2480 2 -4.11026 0.38643 -1.30103 
3066 1 2.47525 -5.72005 -5.47245 
3768 1 3.79743 0.295229 -3.78137 
12502 1 1.76351 -1.83579 0.4504 
11497 1 0.564242 1.97207 -6.68466 
1324 1 1.0702 3.68199 -4.67728 
1325 2 0.456657 -2.18331 -3.13597 
11498 2 -0.0319625 2.94869 -1.48953 
3767 2 4.26361 -1.98735 -1.81514 
11499 1 1.25245 -5.77399 0.494419 
3673 1 1.65226 4.07689 2.26231 
3674 2 5.28996 4.67146 2.8044 
7393 1 -1.2062 -2.85342 2.6958 
4308 1 0.0226947 -2.06446 8.21438 
3387 1 -1.24629 2.17397 -0.357602 
4307 3 5.82166 0.263441 1.25199 
4306 1 2.7532 0.249696 -1.17701 
2483 2 1.86658 -1.88351 -0.934133 
2484 1 2.07478 6.62176 -2.00385 
14357 3 -1.97689 -2.22083 0.425333 
14358 1 -0.841755 -1.03158 -8.41166 
8447 3 -3.71341 3.45283 -3.04358 
8448 1 -0.746166 2.36204 0.230666 
8446 1 3.92238 -1.258 1.95584 
14665 1 -0.803655 -1.0891 -0.610304 
10667 2 2.1408 1.26721 -0.902495 
10668 1 4.66678 2.65132 2.06568 
14667 1 -1.76669 -3.85342 -1.40281 
14666 3 0.189267 -0.962172 -0.356515 
19695 1 -1.84762 1.89224 -2.17672 
4156 1 4.98198 8.09863 -2.16047 
18520 1 -4.24539 -2.26663 3.01734 
11974 1 -7.88297 -5.09962 -0.514516 
11976 1 5.07254 6.94297 0.0268187 
5283 1 2.95938 3.82258 -7.20914 
11975 3 0.145474 -3.93857 1.75344 
9740 3 -0.98661 0.183514 -1.78264 
9739 1 -2.00164 -5.84236 0.0358126 
9741 1 1.09639 -4.49055 1.03814 
9880 1 -0.0705531 -1.77474 5.83207 
9118 1 -4.30004 4.10063 3.99574 
7111 1 0.441775 5.56599 -4.09367 
13168 1 -2.26893 -3.01996 4.11343 
13169 2 -2.57672 1.4645 -2.23506 
21241 1 -5.76824 4.76203 1.22865 
21242 3 -2.36931 -2.59116 4.51964 
21243 1 -3.31873 -0.537943 2.81363 
522 1 1.77093 1.04169 4.6746 
521 2 -1.90328 -2.60777 0.805024 
13170 1 1.97862 3.37018 0.34281 
14469 1 -0.468718 -0.370215 -0.828046 
14468 2 -6.22745 0.209059 -0.99698 
14467 1 2.12433 3.25515 0.231719 
891 1 -3.02112 0.357395 3.50581 
890 2 2.43904 1.4683 -1.95672 
889 1 -1.56513 -2.15196 -1.47561 
17118 1 -2.56138 0.289533 -1.31244 
14764 1 4.37195 2.50518 -3.88851 
14765 2 -0.997795 1.1044 -3.11649 
10204 1 1.9276 -1.98167 -0.0747 
10518 1 -0.50303 -0.574673 -0.919047 
5281 1 -0.464216 1.07939 4.38424 
18576 1 -1.29125 1.0232 8.05859 
5282 2 -0.328879 -3.81525 2.79436 
5491 1 4.34588 -3.26129 -3.67765 
3231 1 1.35829 -3.54142 1.38563 
18574 1 0.835707 -4.96257 2.47724 
18575 2 -0.0465918 -0.689076 -3.44329 
10799 2 1.91874 6.97691 -5.71553 
10800 1 1.57743 0.370351 4.21136 
3230 2 0.471863 2.31963 2.06898 
3229 1 5.60399 1.45629 -2.0326 
13809 1 -7.30526 3.37776 -1.05645 
3393 1 2.76316 -4.51082 -1.73351 
11907 1 -5.78753 -7.64132 2.17928 
3392 2 -4.85448 -4.92877 -0.121291 
3391 1 4.27266 0.510278 1.79719 
10798 1 -0.0110323 2.91003 3.53296 
2568 1 -2.98142 10.6298 -2.34758 
2567 2 -2.47975 2.7606 2.6342 
2566 1 -5.34497 3.69008 1.37884 
9120 1 1.08081 -5.67197 -1.79286 
9119 2 -0.683897 0.150826 1.99981 
11906 2 1.91896 2.18912 -1.36908 
11905 1 0.0544795 -4.83864 -9.25955 
520 1 0.0420778 -2.75072 0.854778 
14134 1 -1.50137 7.21945 4.04106 
14135 2 1.86007 -3.36735 -3.31239 
5140 1 3.80258 0.0343182 -3.41238 
14136 1 4.9293 -2.68502 0.569597 
6864 1 -1.97559 1.47717 3.70014 
21123 1 -5.00025 1.52765 2.58684 
6862 1 -2.68148 -2.87226 -6.74484 
21122 2 1.35311 -2.45173 -0.155107 
6863 2 1.33428 -1.67903 -5.14405 
16869 1 1.34097 -10.1735 1.19838 
16113 1 -2.39412 -0.209329 4.51697 
16112 2 -3.04194 2.1352 -0.448596 
3814 1 -0.760493 1.70222 -2.96654 
3815 2 -1.26958 -4.22161 2.20212 
14766 1 -5.64341 -8.91866 -3.57824 
3816 1 -3.75918 1.74087 1.14911 
16111 1 0.0888495 -8.69934 4.46832 
16600 1 4.96642 -6.26577 3.75332 
16601 2 -0.383402 -3.18723 -0.141585 
10517 2 -3.7432 -0.821682 -1.58633 
10516 1 -0.0512364 -8.45791 4.41613 
11716 1 0.432134 2.91653 -0.556435 
15098 2 -0.250165 -2.09993 0.20355 
9621 1 -6.67763 -1.89924 -6.10594 
15097 1 0.869421 -3.14352 0.994968 
8503 1 2.50372 8.42434 2.16548 
8504 2 -2.43383 -3.00458 0.481469 
11594 2 -0.797616 -2.12029 0.020715 
11595 1 -1.17848 -6.07423 -0.156182 
3849 1 -1.56504 -4.14203 -0.973364 
11593 1 -1.91411 -2.24539 -3.11094 
15099 1 -5.13366 -2.11241 2.85526 
4715 2 4.17843 -3.50989 -0.419115 
21456 1 -1.04825 -2.05694 2.55227 
21455 2 0.874569 -1.17952 -1.01594 
4716 1 -3.32058 0.256515 -0.940789 
21454 1 -0.931692 3.43785 1.00771 
5501 2 0.190015 -3.19349 -3.32878 
5500 1 -0.378939 -0.224836 -0.934143 
5502 1 -2.88946 1.58192 -1.47072 
11842 1 6.70965 1.21915 0.703746 
4714 1 -0.580871 -2.51417 -0.0609837 
10794 1 1.2729 -2.20801 0.529725 
9306 1 -0.123784 1.1519 -0.303289 
9305 2 -0.0077874 -1.18363 1.08837 
9304 1 1.53524 5.89804 1.90047 
4262 2 -1.79857 0.622354 0.777966 
4263 1 2.66584 1.38171 0.0817716 
11079 1 -4.31317 -1.04612 7.51829 
10038 1 -3.76173 0.884053 4.70519 
5141 2 1.54316 -1.67287 1.54782 
5142 1 1.34253 -5.09623 0.0442031 
12766 1 -2.91803 3.35261 1.73179 
12767 2 0.749295 -1.99096 -5.5201 
12768 1 6.10542 -3.86796 -0.550474 
3960 1 1.44158 4.417 -0.345522 
16709 2 -1.61307 1.60791 -2.53546 
9041 2 1.04451 -3.06377 -4.40837 
12595 1 -2.30392 2.52721 -0.323925 
9040 1 3.52739 -5.97034 1.50303 
12596 2 2.02519 2.54005 -0.389844 
12597 1 -7.02004 -2.21322 -7.29167 
639 1 -0.128747 -1.27678 2.33302 
2737 1 6.62528 -1.76325 2.53816 
2738 2 -3.02061 -1.78925 -1.17053 
2739 1 3.14545 5.41875 0.35975 
21025 1 4.48347 -1.19007 1.61054 
21026 2 -1.42838 -4.33523 2.12391 
16602 1 5.28017 -2.36183 3.32742 
9098 2 0.780403 1.79694 0.623315 
13381 1 -2.39633 4.1223 3.09612 
17292 1 -5.31987 -1.24921 -3.21152 
21027 1 -1.31156 0.248636 -4.12733 
760 1 1.65025 -0.819494 -1.1462 
4257 1 -2.12738 -3.25346 -5.33811 
13383 1 -5.15145 -1.30188 0.379588 
13382 2 -4.44717 0.827933 -1.2967 
15021 1 2.78364 1.78644 -9.14615 
15811 1 -1.60753 -1.10477 0.657004 
11091 1 -1.55816 -1.9714 2.9155 
15812 2 -0.940272 -3.52847 0.331704 
15813 1 -4.69194 3.15701 1.85468 
6471 1 -1.14385 -0.438988 0.938201 
6470 2 -1.22301 0.290967 -1.69252 
3936 1 -6.42009 -1.04745 -5.67075 
6469 1 0.68738 -4.27711 -4.15679 
3935 2 -4.72746 -3.0837 1.60932 
5864 2 0.725065 -1.80504 -1.42558 
5865 1 -9.59751 2.12696 5.59943 
4355 2 -2.01646 -0.266866 -0.319115 
11078 2 1.73602 1.78547 0.922164 
19143 1 -2.20852 -4.69061 4.28999 
4354 1 -4.51284 -4.42426 -2.64008 
19142 2 0.530657 -0.893411 -1.73778 
19141 1 -0.301223 7.32478 0.557988 
3934 1 2.47121 0.0236653 -4.73131 
11077 1 -1.62861 -6.83945 1.48844 
16851 1 2.15873 5.9801 2.93602 
16850 2 -2.78202 2.73049 -3.44058 
16849 1 -0.911254 -2.31446 -1.32378 
17945 2 0.245789 3.33778 0.86878 
17944 1 2.48926 -6.63696 -0.912642 
19925 2 -1.51968 1.18444 3.20988 
3959 2 -2.24589 -3.10244 0.249069 
3958 1 -5.82588 2.46682 0.0998331 
6195 1 2.09895 1.48356 -0.160625 
6193 1 5.76277 1.03167 -2.41546 
8857 1 2.41082 5.00401 -0.83615 
6194 2 -1.8685 1.58225 -2.10414 
8858 2 6.19755 3.323 -0.132526 
19924 1 -4.28346 0.872302 -1.88517 
637 1 3.19913 -0.442718 -0.0534752 
638 2 -1.75275 -1.40106 -1.84298 
21264 1 -6.08286 2.48551 -3.02486 
11040 1 6.99086 -3.67351 2.72531 
11039 2 3.36051 -6.37252 0.680737 
17946 1 0.202117 6.43926 -5.71309 
11038 1 2.2881 -2.5277 -1.33 
4051 1 -1.79651 3.48951 -2.03284 
15428 2 -0.269374 0.0946095 0.981225 
4052 2 2.98892 2.83682 1.7656 
15427 1 -1.74799 -7.34071 6.8897 
18102 1 -0.656576 2.37109 1.60944 
4053 1 -2.76999 -1.66103 4.52568 
9097 1 -0.78048 -0.903066 0.904336 
17155 1 -3.49038 -8.92037 7.57953 
17156 2 2.18776 -0.696093 -3.19987 
17157 1 -2.3618 -2.80987 -2.05613 
5379 1 -0.024031 -2.36311 -2.43605 
17290 1 -0.240906 0.702796 -2.39547 
8454 1 -0.109845 1.22882 4.44165 
17291 2 0.0743197 2.9578 4.95341 
8452 1 5.04689 -5.39771 -2.10295 
6774 1 0.678602 -3.31561 -2.75839 
15429 1 -0.819766 0.711439 -0.846873 
8453 2 1.92113 -1.19009 -1.10017 
15020 2 -0.546278 0.866904 1.80766 
6773 2 -0.547612 3.40248 -1.72021 
180 1 -2.19335 7.30729 4.49383 
15019 1 -2.67328 -4.92518 0.602918 
179 2 0.552434 2.57868 2.30918 
178 1 -3.00031 -0.566934 2.03068 
18376 1 0.429405 0.884773 6.18769 
10679 2 0.367734 0.367884 -1.17405 
10680 1 3.01058 -1.65066 1.53268 
10678 1 3.34209 1.04117 3.57953 
1872 1 -2.03303 6.83785 -1.0187 
17097 1 1.00189 -0.844869 -0.914711 
12407 2 -0.0382436 -0.117826 1.0744 
12406 1 -2.12012 -0.818576 -3.02792 
18378 1 -0.469536 3.2412 -4.13355 
18377 2 4.71669 -0.562395 2.76621 
21476 2 -0.455941 -0.164353 -3.71225 
21475 1 -1.02772 -3.74931 -4.76039 
8859 1 4.50502 -4.35648 -0.432951 
1871 2 1.64174 -2.03155 -2.27666 
9541 1 0.287914 -1.12773 -5.18011 
14571 1 -0.102076 4.40796 -0.814195 
14570 2 -0.875786 -2.37615 4.07119 
14569 1 -1.87709 1.334 -0.723537 
1870 1 0.80956 0.301931 -0.185401 
10519 1 -2.3398 1.42945 3.17245 
10520 2 2.8736 -1.82724 -2.42385 
12499 1 0.606936 -2.17856 4.70496 
12500 2 1.35686 0.126774 0.124957 
5019 1 3.26334 5.43115 0.705166 
18640 1 2.96288 -0.587392 -0.381751 
2481 1 0.287074 -0.739777 -6.62821 
18641 2 -5.20355 0.471744 -0.319768 
18642 1 -0.427198 5.16723 2.92076 
20190 1 -2.44669 2.05084 1.50754 
20189 2 1.32975 1.26354 -2.14158 
14856 1 0.0724029 1.22975 -6.27281 
5377 1 -3.23476 -5.26195 3.70591 
14855 2 2.49398 -2.47144 0.819611 
8066 2 -0.0458685 -2.05296 -0.418383 
14854 1 -5.16572 4.80985 -2.81526 
8065 1 3.29796 1.30847 -4.81071 
1041 1 -1.39451 7.35359 2.88675 
1040 2 -1.54095 1.01616 0.489744 
5378 2 -0.644021 1.77736 5.4566 