ITEM: TIMESTEP
25000000
ITEM: NUMBER OF ATOMS
111
ITEM: BOX BOUNDS pp pp pp
0.0000000000000000e+00 5.0000000000000000e+01
0.0000000000000000e+00 5.0000000000000000e+01
0.0000000000000000e+00 5.0000000000000000e+01
ITEM: ATOMS id type xs ys zs
2196 1 0.419384 0.624899 0.852726
4135 1 0.427466 0.617439 0.873205
2195 3 0.414659 0.62724 0.858867
2194 1 0.414533 0.632372 0.866019
477 1 0.414476 0.634478 0.86876
9302 3 0.434211 0.632085 0.86796
9301 1 0.439036 0.632587 0.861142
21487 1 0.367954 0.556303 0.905585
21488 3 0.375998 0.559256 0.903723
21489 1 0.380543 0.566838 0.905246
13036 1 0.409799 0.580171 0.900096
13037 3 0.411095 0.578854 0.892572
13038 1 0.411642 0.58207 0.88498
2961 1 0.42179 0.59296 0.904546
6579 1 0.427104 0.592934 0.893714
8722 1 0.429608 0.590514 0.894191
8723 3 0.436673 0.58442 0.892941
8724 1 0.442686 0.578172 0.893575
13483 1 0.391626 0.620592 0.876151
6578 3 0.422369 0.599615 0.892096
13484 3 0.397269 0.621011 0.881847
7106 3 0.411669 0.619658 0.894712
7105 1 0.405657 0.620008 0.888488
13485 1 0.403619 0.619772 0.88655
7107 1 0.418047 0.62304 0.898497
4136 2 0.428847 0.612209 0.880054
4137 1 0.42621 0.607199 0.885591
6577 1 0.4255 0.605307 0.887693
476 3 0.414673 0.638101 0.875256
475 1 0.418145 0.641409 0.882214
8596 1 0.419378 0.642938 0.884693
8597 2 0.423617 0.646179 0.890492
9303 1 0.435484 0.634003 0.876471
8598 1 0.427942 0.648704 0.896549
20049 1 0.307268 0.523082 0.936948
13635 1 0.309456 0.523329 0.935909
212 3 0.33014 0.519932 0.919581
213 1 0.331036 0.51396 0.914047
211 1 0.324112 0.522387 0.92509
13633 1 0.322366 0.522743 0.927253
13634 3 0.318148 0.523095 0.932879
5720 3 0.353864 0.52402 0.923969
5719 1 0.356433 0.527976 0.917751
5425 1 0.357683 0.529508 0.915474
5721 1 0.353536 0.523611 0.933227
5901 1 0.328892 0.536542 0.936997
17390 3 0.358485 0.551959 0.909686
5426 3 0.360984 0.534097 0.90973
5427 1 0.357902 0.54132 0.910152
17391 1 0.357532 0.544225 0.909973
17389 1 0.365416 0.55547 0.906476
20845 1 0.423367 0.552239 0.932577
20846 3 0.423306 0.551975 0.924805
20847 1 0.421924 0.558675 0.919964
5227 1 0.421309 0.560955 0.918263
17154 1 0.360166 0.588238 0.930615
17153 3 0.357938 0.582181 0.933666
17152 1 0.355402 0.575186 0.931355
19680 1 0.382349 0.569157 0.906431
19679 3 0.386519 0.574275 0.910233
19678 1 0.390097 0.572032 0.916158
17217 1 0.391472 0.571096 0.918463
17215 1 0.404055 0.567825 0.929314
17216 2 0.396263 0.569323 0.925367
16920 1 0.395587 0.592238 0.928449
16919 3 0.397471 0.588885 0.935644
2959 1 0.418855 0.579376 0.911792
5229 1 0.41898 0.576197 0.912272
20838 1 0.395154 0.593239 0.926536
2960 3 0.417593 0.587216 0.909537
5228 3 0.420121 0.567942 0.913926
9481 1 0.385512 0.620129 0.911354
20836 1 0.392621 0.603126 0.915467
9483 1 0.393152 0.606419 0.914169
9482 3 0.391331 0.614904 0.911988
20837 3 0.392339 0.595975 0.918846
16929 1 0.419064 0.62395 0.909007
16928 3 0.424175 0.618228 0.910568
10592 3 0.421416 0.621204 0.933753
20445 1 0.413228 0.614768 0.929402
10591 1 0.415485 0.616504 0.930529
20443 1 0.401312 0.605716 0.924034
20444 3 0.407027 0.609942 0.926778
16927 1 0.43119 0.614283 0.910866
5959 1 0.43392 0.612835 0.911639
5960 3 0.440456 0.608815 0.911818
5961 1 0.448093 0.605702 0.913596
10116 1 0.416598 0.626374 0.909204
10114 1 0.407056 0.639874 0.911511
10115 3 0.411455 0.632563 0.911453
10593 1 0.427878 0.626382 0.936762
20048 3 0.299753 0.523285 0.93949
20047 1 0.292468 0.523259 0.940278
5899 1 0.33835 0.540583 0.942872
14908 1 0.340104 0.542578 0.942781
5900 3 0.333456 0.535501 0.942684
14909 2 0.345781 0.547443 0.942103
9774 1 0.350267 0.556222 0.941887
14910 1 0.348911 0.553854 0.942027
9773 2 0.35476 0.563038 0.941743
9973 1 0.358892 0.570961 0.948733
9772 1 0.35786 0.568872 0.947138
9974 3 0.361836 0.576738 0.954101
17200 1 0.365612 0.585435 0.960021
9975 1 0.364661 0.582983 0.958342
17201 3 0.368909 0.591514 0.964385
16918 1 0.400478 0.591875 0.943072
7219 1 0.401929 0.593116 0.945866
7221 1 0.40975 0.597252 0.959167
7220 3 0.404529 0.594114 0.954024
17202 1 0.368015 0.596644 0.971155
