ITEM: TIMESTEP
25000000
ITEM: NUMBER OF ATOMS
906
ITEM: BOX BOUNDS pp pp pp
0.0000000000000000e+00 5.0000000000000000e+01
0.0000000000000000e+00 5.0000000000000000e+01
0.0000000000000000e+00 5.0000000000000000e+01
ITEM: ATOMS id type xs ys zs
16696 1 0.999257 0.159789 0.249777
19337 2 0.9606 0.242581 0.246551
19336 1 0.967929 0.238786 0.247186
19338 1 0.957177 0.248966 0.242105
9138 1 0.970402 0.2378 0.247951
11501 2 0.978405 0.150001 0.273791
11500 1 0.974057 0.14953 0.279572
11502 1 0.982373 0.152156 0.267584
9685 1 0.0295705 0.185153 0.275452
7404 1 0.0277204 0.186458 0.273501
16767 1 0.927609 0.171147 0.255295
16765 1 0.938505 0.172689 0.264753
16766 2 0.933121 0.169715 0.261465
18285 1 0.940702 0.173548 0.26619
9184 1 0.958318 0.174681 0.269442
18283 1 0.954929 0.175152 0.269202
18284 2 0.946587 0.176219 0.270432
9185 2 0.965269 0.174187 0.269388
1575 1 0.988343 0.168043 0.262684
16697 3 0.996953 0.162827 0.257127
16698 1 0.990518 0.166786 0.260914
1574 2 0.983064 0.172216 0.267754
9186 1 0.972244 0.174203 0.269169
1573 1 0.975115 0.173636 0.268575
2940 1 0.970844 0.161945 0.279058
14900 2 0.00529729 0.195412 0.266597
14899 1 0.0121161 0.192323 0.267266
7402 1 0.0152168 0.191356 0.267248
7403 2 0.023266 0.190135 0.267766
14901 1 0.00208287 0.202203 0.267932
1158 1 0.000805795 0.204738 0.2691
15010 1 0.907643 0.194226 0.253539
1021 1 0.8906 0.20269 0.280582
1022 2 0.895247 0.206347 0.275575
1023 1 0.893696 0.213915 0.274337
14008 1 0.892978 0.216946 0.274102
15012 1 0.919491 0.195806 0.262115
15011 2 0.910252 0.197292 0.260568
3711 1 0.922423 0.195045 0.262603
3710 2 0.929098 0.193825 0.264438
3709 1 0.936574 0.194603 0.267067
3278 2 0.920956 0.217047 0.264545
3279 1 0.929194 0.215281 0.264672
11295 1 0.932484 0.214491 0.264289
13640 2 0.969468 0.216863 0.250156
8735 2 0.957763 0.206378 0.260316
11294 2 0.939744 0.212389 0.262579
11293 1 0.948366 0.210823 0.261107
8736 1 0.951274 0.209678 0.260896
13641 1 0.964986 0.212001 0.25386
8734 1 0.963168 0.210383 0.255509
6619 1 0.953131 0.203179 0.281134
6620 2 0.948179 0.1971 0.280647
20700 1 0.974717 0.193677 0.268868
20699 2 0.975848 0.201708 0.269547
20698 1 0.975456 0.209037 0.271507
1157 2 0.996895 0.211462 0.272353
1156 1 0.992435 0.217173 0.275354
155 2 0.876354 0.236719 0.28065
14010 1 0.883527 0.229506 0.276519
156 1 0.881631 0.231181 0.27792
14009 2 0.889953 0.225111 0.273374
17668 1 0.915369 0.21958 0.273745
3277 1 0.917121 0.219208 0.271567
19996 1 0.924051 0.231526 0.265908
19998 1 0.929717 0.236749 0.280019
19997 2 0.929275 0.234103 0.27228
17669 2 0.909591 0.221874 0.280666
11511 1 0.944581 0.232536 0.271846
11510 2 0.949001 0.231756 0.265634
11509 1 0.956561 0.231533 0.266999
13174 1 0.959507 0.231628 0.267589
13175 2 0.967822 0.229588 0.271175
13302 1 0.959944 0.247471 0.275022
13639 1 0.972204 0.224947 0.251205
9137 2 0.976788 0.235092 0.251529
9136 1 0.973167 0.227709 0.25144
13176 1 0.975209 0.230369 0.270315
261 1 0.99056 0.219255 0.276723
6657 1 0.89683 0.25481 0.27917
371 2 0.935481 0.260652 0.277031
20181 1 0.948784 0.267163 0.256412
370 1 0.940155 0.264524 0.271669
20179 1 0.941485 0.265441 0.269489
20180 2 0.945328 0.267737 0.264251
13301 2 0.962572 0.25184 0.281136
18367 1 0.930317 0.123233 0.309163
3928 1 0.922818 0.139432 0.286253
3929 2 0.930159 0.139066 0.290526
3930 1 0.937052 0.140865 0.28982
18368 2 0.937085 0.127325 0.309856
18369 1 0.945125 0.128784 0.311978
3262 1 0.948143 0.12885 0.312378
30 1 0.940252 0.140955 0.290011
29 2 0.948486 0.141363 0.289876
28 1 0.950452 0.145423 0.294824
10303 1 0.951027 0.147205 0.297026
3264 1 0.964148 0.130476 0.311013
3263 2 0.956701 0.129285 0.310434
10304 2 0.953251 0.151001 0.303654
10305 1 0.958518 0.151777 0.310162
9252 1 0.960466 0.15238 0.312088
8463 1 0.970104 0.139769 0.294276
8462 2 0.973311 0.144946 0.299434
8461 1 0.979824 0.148128 0.302348
19812 1 0.981789 0.149086 0.303419
19811 2 0.988395 0.151514 0.307584
1096 1 0.0222726 0.16864 0.306212
1098 1 0.0137491 0.182466 0.300484
1097 2 0.0191803 0.175092 0.302663
9686 2 0.0332811 0.180263 0.281252
17482 1 0.0404702 0.174261 0.287629
9687 1 0.0386588 0.17563 0.28544
17484 1 0.0432248 0.175175 0.301422
17483 2 0.0443678 0.170981 0.294186
1594 1 0.0494418 0.180309 0.305478
1595 2 0.0439424 0.186116 0.30895
21467 2 0.854138 0.180404 0.306183
21466 1 0.852726 0.181383 0.298587
9180 1 0.852139 0.181777 0.295762
9179 2 0.850238 0.182221 0.287468
9178 1 0.857142 0.18698 0.286824
20623 1 0.931742 0.168611 0.287362
14 2 0.929431 0.17562 0.304148
13 1 0.928483 0.175115 0.31163
5121 1 0.911838 0.185691 0.30925
15 1 0.930153 0.180722 0.297582
14557 1 0.930612 0.182143 0.29539
14558 2 0.932281 0.185149 0.288103
20624 2 0.939965 0.165156 0.28883
7063 1 0.948518 0.17227 0.291959
20625 1 0.946221 0.17057 0.291305
7064 2 0.953313 0.177314 0.295368
7065 1 0.957083 0.183867 0.295315
2939 2 0.969334 0.161493 0.28689
486 1 0.958662 0.187177 0.296283
15785 2 0.974487 0.170981 0.303102
15784 1 0.972217 0.167056 0.296328
2938 1 0.971559 0.165625 0.293484
7941 1 0.981288 0.177302 0.306821
15786 1 0.979352 0.175051 0.305428
7940 2 0.986627 0.181616 0.309528
7939 1 0.994486 0.184534 0.311095
4234 1 0.998102 0.185177 0.311943
16627 1 0.00688742 0.193901 0.290027
3348 1 0.00980101 0.194677 0.289612
3347 2 0.0160436 0.200346 0.288149
14090 2 0.0262034 0.211256 0.305786
3346 1 0.02386 0.202014 0.289039
4536 1 0.0265339 0.202336 0.288991
14091 1 0.0242259 0.217808 0.301933
6066 1 0.0245329 0.202215 0.309868
14089 1 0.0251958 0.205144 0.309185
6065 2 0.0214106 0.195237 0.310492
4534 1 0.0390212 0.201923 0.284658
4535 2 0.0345247 0.203897 0.289717
1596 1 0.0412336 0.190966 0.304779
17277 1 0.859952 0.18872 0.28665
17276 2 0.866955 0.194269 0.285776
11247 1 0.870734 0.200057 0.294259
17275 1 0.869766 0.198074 0.292129
11246 2 0.872332 0.205878 0.298226
11245 1 0.876884 0.211245 0.296527
20766 1 0.888534 0.193583 0.302536
20765 2 0.896226 0.195255 0.299962
20764 1 0.900874 0.201731 0.301249
21273 1 0.902448 0.204232 0.302147
21272 2 0.905794 0.211022 0.304239
1118 2 0.882862 0.218492 0.294068
1119 1 0.878842 0.213144 0.295956
5983 1 0.913338 0.187522 0.307214
5985 1 0.912717 0.19782 0.299472
15553 1 0.918597 0.193566 0.283713
15554 2 0.917392 0.202236 0.283521
15555 1 0.924619 0.206831 0.284408
3859 1 0.927107 0.208922 0.284221
5984 2 0.916718 0.192307 0.302754
21271 1 0.912575 0.215431 0.304476
21036 1 0.915231 0.216696 0.304542
21034 1 0.928676 0.214477 0.301518
7515 1 0.930911 0.212847 0.301045
7514 2 0.937686 0.208361 0.302031
14559 1 0.939237 0.190296 0.284724
3860 2 0.932777 0.214701 0.282954
3516 1 0.954702 0.205161 0.281413
6621 1 0.941391 0.192163 0.283275
13512 1 0.963478 0.217685 0.304804
485 2 0.960299 0.194993 0.299403
7513 1 0.94265 0.20203 0.301226
484 1 0.960807 0.203344 0.297672
3515 2 0.960853 0.210702 0.281715
3514 1 0.968663 0.209285 0.286166
17442 1 0.960989 0.218482 0.305987
2443 1 0.944898 0.196796 0.309028
4636 1 0.980757 0.187613 0.281586
16629 1 0.993794 0.190325 0.29724
16628 2 0.999757 0.191901 0.292368
9499 1 0.99524 0.217077 0.307082
4637 2 0.978749 0.191314 0.287832
13510 1 0.977232 0.211722 0.299327
2100 1 0.979668 0.209917 0.299158
2099 2 0.984966 0.204638 0.298579
4638 1 0.981392 0.196241 0.292409
2098 1 0.98242 0.198892 0.294137
13511 2 0.970581 0.215299 0.301317
12080 2 0.00664541 0.231372 0.288314
16619 2 0.0225506 0.225745 0.294652
16620 1 0.0154211 0.227324 0.292123
12081 1 0.0131707 0.228608 0.290961
16618 1 0.0238379 0.22013 0.300338
11794 1 0.0205359 0.246302 0.307697
10533 1 0.0222635 0.244458 0.308406
10532 2 0.0285838 0.238633 0.310218
10531 1 0.0356413 0.238358 0.304915
8335 1 0.0496299 0.229954 0.298269
8336 2 0.0451486 0.236591 0.300245
8337 1 0.0377737 0.238336 0.303869
154 1 0.871185 0.239428 0.284303
4803 1 0.854356 0.235011 0.298133
4802 2 0.858438 0.241176 0.300236
4801 1 0.863235 0.24669 0.304721
4575 1 0.864334 0.249051 0.306166
6656 2 0.891993 0.249967 0.283301
1117 1 0.883601 0.226178 0.295823
948 1 0.88364 0.228937 0.296461
12210 1 0.886797 0.24675 0.303532
946 1 0.884893 0.244108 0.302159
947 2 0.881831 0.237663 0.299281
8384 2 0.902109 0.232637 0.291426
17670 1 0.90621 0.227145 0.284073
8383 1 0.904539 0.228613 0.285901
8385 1 0.901885 0.236143 0.298389
12620 2 0.903011 0.229336 0.311931
12619 1 0.908282 0.232935 0.309318
21035 2 0.922509 0.219216 0.303132
3490 1 0.929952 0.238084 0.282684
15649 1 0.938208 0.238949 0.298829
3492 1 0.936567 0.23941 0.296107
3491 2 0.93209 0.241249 0.289268
3861 1 0.938962 0.218962 0.286382
2236 1 0.910728 0.234614 0.308489
2237 2 0.917768 0.238542 0.307902
2238 1 0.920975 0.244637 0.311717
15650 2 0.942845 0.238518 0.307067
15651 1 0.948613 0.241077 0.311557
17440 1 0.95073 0.226325 0.305362
17441 2 0.955536 0.221756 0.30983
2448 1 0.941224 0.220454 0.28794
2447 2 0.947572 0.225293 0.288763
2446 1 0.954058 0.229799 0.291544
19677 1 0.95605 0.231602 0.292717
19676 2 0.962977 0.235589 0.295018
19611 1 0.962506 0.2485 0.312305
12079 1 0.999283 0.231287 0.286508
260 2 0.987162 0.224331 0.28241
11799 1 0.998393 0.244887 0.309863
19675 1 0.97105 0.237271 0.293338
259 1 0.983176 0.230324 0.284941
5776 1 0.9822 0.233265 0.286456
949 1 0.996521 0.246311 0.308497
5778 1 0.973302 0.23788 0.292618
5777 2 0.979819 0.240365 0.28892
9500 2 0.98946 0.223463 0.305608
1152 1 0.981365 0.228719 0.310294
9501 1 0.983297 0.227436 0.309147
951 1 0.986606 0.244342 0.301262
11796 1 0.0117296 0.258764 0.308429
17662 1 0.00939214 0.261272 0.309029
17663 2 0.00228018 0.266125 0.309274
11795 2 0.0165393 0.252211 0.306268
4574 2 0.86821 0.255168 0.309777
6655 1 0.890675 0.25396 0.289697
12209 2 0.891552 0.252084 0.308211
12208 1 0.897022 0.255696 0.304847
17151 1 0.899382 0.256956 0.303446
17150 2 0.904753 0.258951 0.299046
8716 1 0.913389 0.260753 0.29172
8717 2 0.918995 0.263344 0.28677
372 1 0.92929 0.261521 0.281341
8718 1 0.926206 0.261931 0.282541
17149 1 0.911416 0.260651 0.293711
11435 2 0.929384 0.278221 0.308766
11436 1 0.927516 0.270875 0.307234
21357 1 0.961446 0.262236 0.283387
21356 2 0.958562 0.268304 0.286053
21355 1 0.9557 0.271599 0.292851
9000 1 0.955293 0.272929 0.295624
8999 2 0.952788 0.277355 0.301932
13300 1 0.962266 0.259336 0.282614
4093 1 0.96424 0.2505 0.310941
4094 2 0.96896 0.254272 0.306624
950 2 0.991254 0.250351 0.304842
13971 1 0.977289 0.266825 0.288704
17664 1 0.997686 0.272666 0.309292
1174 1 0.995828 0.275206 0.308873
4095 1 0.977369 0.256731 0.3067
13970 2 0.980506 0.271084 0.294392
7758 1 0.975098 0.280231 0.293288
13969 1 0.976422 0.277587 0.293627
21363 1 0.929893 0.287805 0.305222
11434 1 0.929577 0.285487 0.306107
21362 2 0.930643 0.295737 0.302707
21361 1 0.927038 0.29643 0.309362
10140 1 0.925579 0.296604 0.311643
8998 1 0.954697 0.282548 0.307038
8680 1 0.955156 0.284384 0.309267
1175 2 0.992665 0.282166 0.307569
7756 1 0.973414 0.293579 0.298713
7757 2 0.971604 0.287439 0.293455
1176 1 0.988947 0.289474 0.305676
11508 1 0.98798 0.293465 0.305015
11507 2 0.986329 0.301441 0.305354
11506 1 0.984996 0.30915 0.307389
18483 1 0.942927 0.121884 0.330894
2583 1 0.942376 0.119638 0.329349
2582 2 0.940121 0.112426 0.324974
2581 1 0.945741 0.105902 0.320448
4925 2 0.969584 0.121953 0.340021
4924 1 0.968744 0.121807 0.331309
19616 2 0.00138379 0.152025 0.322661
16993 1 0.937634 0.140858 0.318142
16994 2 0.938725 0.148136 0.319869
10669 1 0.92942 0.151792 0.322599
16995 1 0.931711 0.150249 0.322235
18482 2 0.946784 0.128237 0.334459
18481 1 0.951022 0.134128 0.336233
9251 2 0.966011 0.155452 0.316852
19617 1 0.997381 0.150855 0.315607
19810 1 0.995188 0.150815 0.313198
43 1 0.991164 0.14159 0.331994
44 2 0.984217 0.142982 0.33755
45 1 0.97873 0.1486 0.337705
9273 1 0.976738 0.150502 0.338653
9272 2 0.96982 0.154587 0.340381
12921 1 0.00797791 0.159421 0.325689
12920 2 0.0140051 0.163367 0.32922
19615 1 0.00590267 0.157284 0.324582
12919 1 0.0177033 0.170054 0.328175
14533 1 0.0190395 0.172678 0.328123
14534 2 0.022491 0.179203 0.328442
14535 1 0.0264556 0.18702 0.328686
4235 2 0.00499765 0.187127 0.314569
12259 1 0.0595665 0.17409 0.3213
12260 3 0.0588734 0.172761 0.329036
10569 1 0.0602395 0.177699 0.338249
12261 1 0.0600269 0.176312 0.335958
21468 1 0.853624 0.179168 0.313949
5120 2 0.908024 0.181061 0.314604
5119 1 0.907209 0.176071 0.320159
17076 1 0.880522 0.181885 0.336856
17536 1 0.928557 0.175383 0.313779
17469 1 0.918076 0.163763 0.330258
10671 1 0.919698 0.16207 0.328354
10670 2 0.922516 0.156857 0.323687
17537 2 0.928859 0.177276 0.321023
17538 1 0.926996 0.181155 0.328245
6405 1 0.926429 0.181885 0.330641
6404 2 0.925074 0.185039 0.338122
137 2 0.93601 0.166252 0.339054
138 1 0.937779 0.173933 0.337962
17468 2 0.913647 0.166639 0.335121
17467 1 0.91137 0.16713 0.342699
17855 2 0.954415 0.168799 0.331298
17854 1 0.960403 0.166332 0.336725
17856 1 0.954276 0.170464 0.323918
3793 1 0.952784 0.171428 0.32114
3794 2 0.949809 0.173338 0.314124
3795 1 0.946938 0.180788 0.313534
2445 1 0.945802 0.183632 0.313822
7295 2 0.965981 0.184525 0.318736
4455 1 0.969267 0.185856 0.338028
7294 1 0.963306 0.17778 0.3172
9250 1 0.972625 0.159064 0.320323
16381 1 0.974746 0.160455 0.321596
16382 2 0.980416 0.1648 0.325761
16383 1 0.986334 0.170785 0.326295
14314 1 0.988965 0.17285 0.326886
14316 1 0.999829 0.182961 0.326505
14315 2 0.995139 0.177848 0.329402
4454 2 0.971444 0.17881 0.34218
20793 1 0.0118911 0.192477 0.33515
6273 1 0.0280658 0.188908 0.328998
20792 2 0.00713003 0.199308 0.337669
4236 1 0.0117157 0.190536 0.313379
6064 1 0.0147183 0.191569 0.312569
20791 1 0.00421292 0.205765 0.339539
4035 1 0.00292312 0.208393 0.339642
4034 2 0.000211626 0.216557 0.339935
18435 1 0.00460373 0.213017 0.315344
18434 2 0.000413143 0.208289 0.319094
21100 1 0.0124433 0.21728 0.319715
6272 2 0.0337965 0.195369 0.331252
6271 1 0.0391971 0.199736 0.327473
8817 1 0.0416422 0.201058 0.326369
8816 2 0.0480364 0.204357 0.32246
8815 1 0.0553171 0.205388 0.322806
14939 2 0.0402838 0.214668 0.3431
14940 1 0.039436 0.216928 0.336294
20484 1 0.0385836 0.218572 0.332892
11668 1 0.871217 0.215003 0.331063
5752 1 0.903552 0.206848 0.323712
5753 2 0.896799 0.211018 0.323505
5754 1 0.893039 0.210914 0.316355
7977 1 0.905748 0.205276 0.323675
17075 2 0.884438 0.188605 0.340062
17074 1 0.889181 0.194715 0.341135
11970 1 0.891592 0.196081 0.341841
11969 2 0.897451 0.201034 0.343596
11968 1 0.904876 0.204213 0.343625
13507 1 0.907502 0.205051 0.343544
13509 1 0.913773 0.204525 0.337085
13508 2 0.914831 0.207766 0.343364
3629 2 0.936855 0.201108 0.33492
3628 1 0.933347 0.208452 0.33474
12466 1 0.932748 0.211145 0.33398
7975 1 0.918454 0.198212 0.32837
7976 2 0.91314 0.201479 0.323321
12467 2 0.930919 0.218352 0.332174
2444 2 0.942734 0.190979 0.31496
7296 1 0.964388 0.187628 0.325698
8494 1 0.94433 0.193531 0.339263
3630 1 0.942431 0.195536 0.338373
8495 2 0.950745 0.189499 0.342036
19190 2 0.954395 0.21454 0.333608
19191 1 0.959324 0.210193 0.328792
6385 1 0.960754 0.209276 0.327689
6386 2 0.966546 0.207632 0.323183
19189 1 0.956595 0.217886 0.340292
9441 1 0.976663 0.202863 0.323155
6387 1 0.973519 0.20415 0.323433
18433 1 0.993001 0.205436 0.318799
9439 1 0.990008 0.204019 0.319072
9440 2 0.982688 0.200672 0.319344
4033 1 0.993542 0.21859 0.335881
2981 2 0.97133 0.200997 0.342299
13614 1 0.980957 0.197207 0.343671
2980 1 0.978268 0.198165 0.342999
11798 2 0.00356693 0.239925 0.313358
21101 2 0.0149092 0.221578 0.327087
9193 1 0.0295865 0.245294 0.334416
11797 1 0.00435418 0.235534 0.319444
21102 1 0.0124486 0.227802 0.331229
14827 1 0.0116936 0.230151 0.332702
14828 2 0.00905845 0.236821 0.335863
14829 1 0.0119317 0.235996 0.342672
20482 1 0.0344681 0.229694 0.328515
9195 1 0.0335547 0.23232 0.328988
9194 2 0.031894 0.238559 0.331789
20483 2 0.0372092 0.221848 0.326552
11669 2 0.87545 0.219416 0.33716
8427 1 0.882098 0.225799 0.324166
11670 1 0.880539 0.220397 0.342698
8425 1 0.893169 0.228978 0.314813
12621 1 0.895406 0.2289 0.31391
8426 2 0.886386 0.229034 0.317754
12172 1 0.901875 0.223008 0.336794
12174 1 0.906868 0.235305 0.331198
12173 2 0.902254 0.231089 0.33572
12468 1 0.929499 0.223067 0.324868
6878 2 0.936418 0.240125 0.328734
6879 1 0.933719 0.244895 0.323962
3295 1 0.931718 0.247146 0.322268
3297 1 0.922111 0.246424 0.313057
19609 1 0.951443 0.241692 0.313277
19610 2 0.957953 0.243681 0.316033
6877 1 0.939527 0.238156 0.335013
5847 1 0.940579 0.237352 0.337637
15402 1 0.961951 0.241092 0.340449
9189 1 0.962226 0.239769 0.338156
9188 2 0.964264 0.234707 0.331954
9187 1 0.968806 0.232568 0.324589
1151 2 0.975045 0.231644 0.314298
18027 1 0.991189 0.219422 0.333981
1150 1 0.970508 0.231753 0.321456
18026 2 0.986248 0.22027 0.329994
18025 1 0.986342 0.227744 0.331507
5815 1 0.986162 0.230489 0.331958
5816 2 0.98715 0.23858 0.333948
5817 1 0.986293 0.246031 0.329989
8416 1 0.986325 0.248816 0.328763
3206 2 0.0135262 0.257133 0.327403
3205 1 0.0136121 0.260679 0.320705
3207 1 0.0153849 0.255788 0.33455
12009 1 0.00242684 0.279805 0.333039
1350 1 0.000538731 0.252071 0.34036
10378 1 0.0162419 0.255821 0.337461
4573 1 0.865569 0.254336 0.317386
3296 2 0.925945 0.251837 0.317257
9688 1 0.930989 0.279626 0.336373
13963 1 0.961598 0.264602 0.319827
13964 2 0.954877 0.266952 0.324056
13965 1 0.950093 0.268951 0.33022
3116 2 0.966985 0.267534 0.341515
21384 1 0.948007 0.255579 0.34026
12008 2 0.997723 0.273126 0.330602
12007 1 0.99807 0.26833 0.337139
3117 1 0.973673 0.269631 0.340194
8417 2 0.986277 0.255995 0.324443
16978 1 0.982017 0.264648 0.322046
8418 1 0.982939 0.262278 0.322639
16979 2 0.979306 0.271455 0.320774
16980 1 0.980506 0.278544 0.323129
19380 1 0.85813 0.308126 0.338644
20673 1 0.855735 0.307879 0.33986
19379 2 0.8657 0.310468 0.336153
10139 2 0.921919 0.295205 0.318672
9690 1 0.924197 0.287939 0.326907
10138 1 0.92348 0.289847 0.32472
9689 3 0.925999 0.282258 0.330985
8681 2 0.95603 0.289192 0.315375
8682 1 0.957289 0.291551 0.32331
4905 1 0.963997 0.307776 0.324324
4904 2 0.961683 0.311784 0.3165
309 1 0.957707 0.292791 0.3265
308 2 0.958688 0.295724 0.333007
307 1 0.964016 0.301012 0.335034
20476 1 0.965938 0.303061 0.335667
7516 1 0.980537 0.281529 0.324808
7518 1 0.982703 0.29225 0.335434
7517 2 0.981282 0.288428 0.328878
12321 1 0.983848 0.294082 0.337298
12320 2 0.988262 0.299897 0.342777
20477 2 0.970971 0.310477 0.336107
10234 1 0.87526 0.314901 0.332757
19378 1 0.872604 0.313606 0.333882
15737 3 0.881849 0.331725 0.314932
15738 1 0.881421 0.339354 0.313271
10235 3 0.882169 0.319206 0.330736
10236 1 0.882239 0.324377 0.324132
15736 1 0.881781 0.325738 0.321486
4903 1 0.961004 0.319495 0.314889
20478 1 0.971787 0.317998 0.338964
690 1 0.972133 0.320721 0.340226
688 1 0.973806 0.33628 0.34374
689 3 0.971574 0.328348 0.343502
14179 1 0.97483 0.339228 0.343409
14180 3 0.977285 0.346369 0.342083
16744 1 0.931432 0.0739225 0.361917
16745 2 0.933315 0.081395 0.364596
11086 1 0.934732 0.0924511 0.364374
16746 1 0.934247 0.0893494 0.364444
11087 2 0.93641 0.10083 0.364437
15346 1 0.942918 0.110401 0.36068
11088 1 0.941135 0.107927 0.36193
15347 2 0.946126 0.115544 0.356114
15348 1 0.94469 0.121628 0.351128
16737 1 0.919415 0.142895 0.362571
16736 2 0.919998 0.150761 0.361079
16735 1 0.919116 0.155682 0.355217
16754 2 0.951976 0.143571 0.368382
16753 1 0.958101 0.143051 0.363902
2033 2 0.966557 0.140313 0.356498
2034 1 0.960397 0.142702 0.362258
4926 1 0.971278 0.126422 0.347147
2032 1 0.969756 0.134891 0.351871
5870 2 0.0015594 0.177963 0.348655
6321 1 0.0150627 0.160764 0.369133
6320 2 0.0170666 0.167213 0.364238
1753 1 0.01872 0.170927 0.354658
1754 2 0.0186916 0.174185 0.34692
6319 1 0.0185762 0.169972 0.357807
1755 1 0.0112012 0.174391 0.346469
5869 1 0.00784798 0.175735 0.346855
10568 2 0.0589829 0.182379 0.346243
10567 1 0.0520237 0.183224 0.352141
15990 1 0.0498711 0.183774 0.354201
15989 2 0.0437836 0.185244 0.358925
15744 1 0.906113 0.186541 0.368476
15743 2 0.907914 0.18582 0.360804
14726 2 0.908268 0.169685 0.352329
14727 1 0.907813 0.175544 0.355861
15742 1 0.907507 0.178074 0.357087
9274 1 0.906128 0.18667 0.371547
21154 1 0.933871 0.158994 0.361703
21155 2 0.937684 0.158884 0.354941
136 1 0.936448 0.163073 0.346109
21156 1 0.936822 0.162306 0.348785
14725 1 0.91036 0.167684 0.345648
2616 1 0.923767 0.17663 0.371553
2615 2 0.930649 0.179278 0.368804
2614 1 0.938024 0.182505 0.371399
4940 2 0.914767 0.170674 0.372406
4941 1 0.920956 0.17519 0.372147
9213 1 0.959409 0.165375 0.363994
4164 1 0.957874 0.165742 0.366186
9212 2 0.963111 0.163671 0.356399
9211 1 0.965296 0.160799 0.349159
9271 1 0.967016 0.159237 0.346742
1699 1 0.940625 0.183974 0.371638
1700 2 0.948666 0.18743 0.372308
4654 1 0.966397 0.186872 0.354036
4163 2 0.953908 0.166825 0.373018
4453 1 0.975039 0.174118 0.346733
9054 1 0.990004 0.159112 0.358757
9053 2 0.990538 0.166403 0.357939
5871 1 0.998349 0.173804 0.353698
9052 1 0.996473 0.172217 0.354561
17090 2 0.974985 0.173168 0.372199
17091 1 0.979024 0.16677 0.374699
2790 1 0.00504532 0.191687 0.364176
3657 1 0.00781421 0.191216 0.362769
3655 1 0.0192917 0.19621 0.355859
3656 2 0.0142217 0.190896 0.359072
13862 2 0.0274196 0.203371 0.352812
13861 1 0.0210111 0.198133 0.354683
7022 2 0.00882564 0.212828 0.360571
7023 1 0.0146149 0.216931 0.363707
11230 1 0.0170386 0.218358 0.364541
7021 1 0.000736891 0.211514 0.359354
15988 1 0.0395611 0.191021 0.362664
13863 1 0.0330541 0.208608 0.35032
14938 1 0.0353822 0.210531 0.348522
900 1 0.906573 0.216384 0.364873
14026 1 0.895702 0.199045 0.369626
14027 2 0.898576 0.207047 0.369992
14028 1 0.901463 0.21278 0.374942
6403 1 0.927794 0.189001 0.343973
18439 1 0.929248 0.190751 0.34634
18440 2 0.932473 0.195076 0.352962
2042 2 0.931215 0.202073 0.370809
18441 1 0.932085 0.197994 0.360342
2043 1 0.931534 0.199633 0.3639
8496 1 0.955482 0.190146 0.348521
1701 1 0.954212 0.187913 0.367617
4656 1 0.956696 0.188102 0.365872
4655 2 0.963411 0.188213 0.361159
11234 2 0.940441 0.217509 0.354053
11112 1 0.962731 0.208418 0.36146
5462 2 0.952347 0.204409 0.358986
5461 1 0.959468 0.207699 0.360194
5463 1 0.947656 0.209804 0.356689
11233 1 0.945055 0.211976 0.35603
13612 1 0.993072 0.189175 0.347249
11111 2 0.970584 0.210056 0.365475
2789 2 0.999862 0.194723 0.368304
2982 1 0.970973 0.207588 0.344226
13613 2 0.988317 0.195321 0.345274
11110 1 0.976073 0.212886 0.370445
21397 1 0.978029 0.213693 0.37212
14368 1 0.970534 0.210723 0.345207
11231 2 0.0238733 0.22175 0.366582
11232 1 0.0274987 0.222604 0.374065
7115 2 0.0211545 0.245486 0.373823
9922 1 0.012953 0.23527 0.345651
9923 2 0.0156787 0.234771 0.353423
9924 1 0.0198884 0.234737 0.361058
4776 1 0.00131295 0.233514 0.374932
8274 1 0.882605 0.220838 0.345119
8273 2 0.887856 0.220318 0.351842
5362 1 0.890797 0.229973 0.353736
8272 1 0.890096 0.227636 0.353263
5363 2 0.893029 0.238509 0.355537
5364 1 0.895448 0.246789 0.35676
899 2 0.911809 0.219271 0.359325
898 1 0.915691 0.225414 0.357068
8520 1 0.917113 0.227691 0.356113
8518 1 0.922792 0.242422 0.351436
8519 2 0.92048 0.234152 0.352775
2652 1 0.935126 0.243988 0.368171
11664 1 0.936242 0.246355 0.366484
2651 2 0.931758 0.238676 0.372784
2650 1 0.927965 0.232485 0.374443
5846 2 0.942906 0.234009 0.344878
15401 2 0.961523 0.245959 0.34644
11235 1 0.942368 0.224367 0.349894
13014 1 0.951234 0.222905 0.371069
16462 1 0.952511 0.224561 0.36856
5845 1 0.942827 0.227003 0.348759
16463 2 0.957066 0.228388 0.363317
16464 1 0.961613 0.234778 0.362343
14369 2 0.968846 0.218773 0.346889
6277 1 0.979087 0.241292 0.356135
6278 2 0.979112 0.233542 0.354026
14370 1 0.974621 0.225683 0.348307
6279 1 0.976177 0.228066 0.349558
2210 2 0.990411 0.235875 0.371554
4557 1 0.979138 0.243945 0.357325
2209 1 0.998076 0.233505 0.373848
1506 1 0.978915 0.237025 0.37439
2211 1 0.981846 0.23717 0.373823
7116 1 0.0246138 0.251224 0.370841
5706 1 0.0261198 0.253614 0.370081
5705 2 0.0301595 0.260495 0.368529
10379 2 0.0200998 0.256715 0.344546
10380 1 0.0272222 0.252053 0.343918
6107 2 0.00397153 0.250253 0.363719
1348 1 0.000208204 0.25127 0.354739
6108 1 0.00155295 0.251299 0.357333
6106 1 0.00290497 0.255688 0.369955
2637 1 0.00198097 0.257437 0.372045
5704 1 0.0386854 0.262482 0.368102
11663 2 0.94058 0.252566 0.365124
15400 1 0.961968 0.253599 0.348854
11662 1 0.945185 0.257973 0.367518
15907 1 0.946839 0.260292 0.368437
15908 2 0.950974 0.265339 0.369981
15909 1 0.952182 0.273395 0.373746
3115 1 0.959481 0.264699 0.344361
21382 1 0.956726 0.263593 0.344846
21383 2 0.949092 0.261198 0.34536
4555 1 0.987174 0.254365 0.364063
1349 2 0.997777 0.251616 0.347177
9981 1 0.988525 0.279839 0.35109
4556 2 0.979592 0.250627 0.360312
21460 1 0.840239 0.298816 0.361421
21461 2 0.846565 0.30313 0.360619
21462 1 0.846837 0.305626 0.353467
20671 1 0.846919 0.306867 0.350711
20672 3 0.849766 0.308703 0.343954
15613 1 0.965795 0.287432 0.372618
15614 2 0.968468 0.285363 0.365003
9980 2 0.981936 0.283967 0.353093
9979 1 0.975916 0.284878 0.35727
15615 1 0.973612 0.285078 0.359435
6751 1 0.990557 0.307223 0.349364
12319 1 0.989883 0.305396 0.34776
6752 2 0.992855 0.311915 0.355054
6753 1 0.995986 0.318552 0.359632
14181 1 0.973044 0.35247 0.344077
650 3 0.907106 0.137927 0.388104
651 1 0.900522 0.132437 0.391536
649 1 0.908805 0.146453 0.38727
8022 1 0.909238 0.148893 0.38695
16755 1 0.948804 0.142299 0.375226
2075 2 0.993094 0.143414 0.385465
2076 1 0.999183 0.141379 0.389393
10375 1 0.989042 0.151602 0.37981
2074 1 0.99014 0.149882 0.380786
1003 1 0.0168541 0.170865 0.395521
13410 1 0.0147648 0.17098 0.3934
13409 2 0.00964307 0.171968 0.386579
13408 1 0.00385314 0.17418 0.385782
241 1 0.00119635 0.175051 0.3857
1004 3 0.0225378 0.17155 0.403078
8021 2 0.911637 0.156988 0.385237
4939 1 0.913874 0.165485 0.378021
8020 1 0.913467 0.163298 0.379693
18416 2 0.931847 0.185321 0.392055
18417 1 0.930039 0.176509 0.392308
4162 1 0.946331 0.166449 0.376854
19580 2 0.969331 0.163929 0.392218
17546 2 0.959439 0.175073 0.403245
17545 1 0.963207 0.169924 0.398879
19581 1 0.964554 0.168181 0.397021
10377 1 0.980737 0.164164 0.375491
10376 2 0.984348 0.158287 0.377369
19579 1 0.977868 0.163604 0.390978
6716 2 0.972355 0.185666 0.38721
6715 1 0.973383 0.180289 0.380338
17089 1 0.973573 0.178376 0.377933
242 2 0.992398 0.177995 0.386156
243 1 0.988826 0.176477 0.393765
13885 1 0.987579 0.176128 0.396456
13886 2 0.983802 0.175696 0.403253
11882 2 0.0293226 0.201991 0.380486
11883 1 0.0235832 0.207418 0.376801
11881 1 0.0340518 0.201988 0.38788
18780 1 0.902502 0.214914 0.377055
9275 2 0.905094 0.189055 0.37925
8879 2 0.890668 0.212595 0.397444
17212 1 0.882052 0.216136 0.389785
8880 1 0.884163 0.214777 0.391762
8878 1 0.891281 0.20822 0.403708
2041 1 0.935498 0.208145 0.375133
13800 1 0.935399 0.217325 0.380363
13012 1 0.938665 0.217481 0.379612
9276 1 0.909191 0.1958 0.383396
14058 1 0.910851 0.197965 0.384387
14057 2 0.914944 0.203248 0.387448
14056 1 0.919658 0.209946 0.385727
13798 1 0.921355 0.212115 0.385145
18415 1 0.934333 0.192188 0.393736
12915 1 0.936005 0.194509 0.394572
13799 2 0.927375 0.217022 0.382801
12914 2 0.940541 0.199814 0.39775
13013 2 0.946415 0.218351 0.375518
3106 1 0.962537 0.199529 0.381696
3107 2 0.961048 0.205325 0.387658
3108 1 0.962334 0.212594 0.386282
1618 1 0.963074 0.215079 0.385879
12913 1 0.947135 0.20289 0.401398
19917 1 0.948878 0.203782 0.402347
6717 1 0.975216 0.190338 0.39222
20196 1 0.976171 0.192336 0.394136
20195 2 0.978877 0.198077 0.399046
2788 1 0.99733 0.196108 0.37533
8298 1 0.996576 0.196975 0.378355
8297 2 0.9945 0.198955 0.385787
20194 1 0.978557 0.205888 0.399908
19401 1 0.978699 0.209258 0.400407
4121 2 0.998797 0.194528 0.403794
8296 1 0.996381 0.197562 0.393245
4120 1 0.996982 0.196842 0.395726
21398 2 0.984756 0.216019 0.376634
4816 1 0.992345 0.218439 0.384706
21399 1 0.990218 0.217808 0.382915
19400 2 0.978777 0.21665 0.400424
6342 1 0.0284267 0.223322 0.376353
7114 1 0.0162453 0.240504 0.37625
4774 1 0.0142477 0.237914 0.376913
6340 1 0.0278785 0.233283 0.384879
4775 2 0.00939455 0.231527 0.377482
4818 1 0.00482114 0.223291 0.391888
6341 2 0.0306347 0.226714 0.384668
17214 1 0.873427 0.225774 0.379661
17213 2 0.876762 0.219306 0.384141
18779 2 0.905537 0.220367 0.381775
18778 1 0.909225 0.225767 0.387272
462 1 0.910826 0.227762 0.388966
461 2 0.914752 0.232394 0.392824
460 1 0.920721 0.236427 0.396363
1366 1 0.922947 0.237795 0.397513
1367 2 0.93 0.24146 0.400741
1368 1 0.933115 0.246986 0.397721
19864 1 0.934377 0.249703 0.396695
7200 1 0.932525 0.221592 0.402433
21421 1 0.93521 0.221687 0.401011
7199 2 0.925974 0.220585 0.405775
2532 1 0.959295 0.235142 0.387187
1619 2 0.965376 0.222151 0.384944
21422 2 0.941625 0.222929 0.396787
1620 1 0.96706 0.228965 0.381844
1504 1 0.968124 0.231255 0.380235
21423 1 0.945353 0.228606 0.39193
2531 2 0.951214 0.237519 0.386254
2530 1 0.947015 0.230747 0.389771
4817 2 0.998365 0.21901 0.389079
1505 2 0.971318 0.237561 0.376304
19399 1 0.980308 0.224363 0.396688
601 1 0.980686 0.227152 0.395798
13663 1 0.986508 0.24451 0.390568
603 1 0.985701 0.241407 0.391422
602 2 0.983586 0.234718 0.393621
2636 2 0.000126181 0.261688 0.377625
19865 2 0.93785 0.257178 0.393556
17463 1 0.912811 0.254158 0.399306
17462 2 0.916643 0.260205 0.396931
17461 1 0.923878 0.262994 0.393797
19866 1 0.939248 0.264518 0.392709
20856 1 0.939793 0.267251 0.391442
20855 3 0.940611 0.2742 0.388448
20854 1 0.939645 0.280954 0.386299
13665 1 0.994053 0.255103 0.384748
13664 2 0.989794 0.251545 0.389155
2635 1 0.995947 0.257244 0.382941
6891 1 0.964943 0.288238 0.375787
6890 3 0.962706 0.288234 0.383399
6889 1 0.960529 0.284278 0.38919
17460 1 0.937552 0.155153 0.407164
1005 1 0.0243642 0.173199 0.410544
17458 1 0.937869 0.161503 0.421823
17459 2 0.939371 0.156431 0.415606
17547 1 0.956136 0.18057 0.408779
7711 1 0.95532 0.18223 0.41029
2278 1 0.961917 0.185387 0.434074
17534 2 0.99707 0.183513 0.419955
17535 1 0.994294 0.179221 0.42703
17533 1 0.997343 0.187486 0.414108
13887 1 0.979751 0.180037 0.408225
9025 1 0.978334 0.18117 0.410037
9026 2 0.973744 0.184462 0.416009
16397 2 0.93929 0.192301 0.427131
14903 3 0.921244 0.192671 0.419618
14902 1 0.92895 0.193114 0.423312
16398 1 0.931679 0.193054 0.424715