ITEM: TIMESTEP
25000000
ITEM: NUMBER OF ENTRIES
828
ITEM: BOX BOUNDS pp pp pp
0 50
0 50
0 50
ITEM: ENTRIES c_binfo[1] c_binfo[2] c_binfo[3] 
3 16696 16697 
2 19337 19338 
2 19336 19337 
1 9138 19336 
2 11501 11502 
2 11500 11501 
2 9685 9686 
1 7404 9685 
2 16765 16766 
1 16765 18285 
2 16766 16767 
2 9184 9185 
1 9184 18283 
2 18283 18284 
2 18284 18285 
2 9185 9186 
1 1575 16698 
3 16697 16698 
2 1574 1575 
2 1573 1574 
1 1573 9186 
2 14900 14901 
2 14899 14900 
2 7402 7403 
1 7402 14899 
2 7403 7404 
1 1158 14901 
2 15010 15011 
2 1021 1022 
2 1022 1023 
1 1023 14008 
2 14008 14009 
2 15011 15012 
1 3711 15012 
2 3710 3711 
2 3709 3710 
2 3278 3279 
1 3279 11295 
2 13640 13641 
2 8735 8736 
2 11294 11295 
2 11293 11294 
1 8736 11293 
2 8734 8735 
1 8734 13641 
2 6619 6620 
2 6620 6621 
2 20699 20700 
2 20698 20699 
2 1157 1158 
2 1156 1157 
2 155 156 
1 156 14010 
2 14009 14010 
2 17668 17669 
2 3277 3278 
1 3277 17668 
2 19996 19997 
2 19997 19998 
2 17669 17670 
2 11510 11511 
2 11509 11510 
1 11509 13174 
2 13174 13175 
2 13175 13176 
2 13639 13640 
2 9137 9138 
2 9136 9137 
1 9136 13639 
1 261 1156 
2 371 372 
2 370 371 
1 370 20179 
2 20179 20180 
2 20180 20181 
2 13301 13302 
2 18367 18368 
2 3928 3929 
2 3929 3930 
2 18368 18369 
2 3262 3263 
1 3262 18369 
1 30 3930 
2 29 30 
2 28 29 
1 28 10303 
2 10303 10304 
2 3263 3264 
2 10304 10305 
1 9252 10305 
2 8462 8463 
2 8461 8462 
1 8461 19812 
2 19811 19812 
2 1096 1097 
2 1097 1098 
2 9686 9687 
2 17482 17483 
1 9687 17482 
2 17483 17484 
2 1594 1595 
2 1595 1596 
2 21467 21468 
2 21466 21467 
1 9180 21466 
2 9179 9180 
2 9178 9179 
1 9178 17277 
2 20623 20624 
2 14 15 
2 13 14 
1 13 17536 
1 5121 5983 
1 15 14557 
2 14557 14558 
2 14558 14559 
2 20624 20625 
2 7063 7064 
1 7063 20625 
2 7064 7065 
2 2939 2940 
1 486 7065 
2 15785 15786 
2 15784 15785 
2 2938 2939 
1 2938 15784 
1 7941 15786 
2 7940 7941 
2 7939 7940 
2 4234 4235 
1 4234 7939 
2 16627 16628 
1 3348 16627 
2 3347 3348 
2 14090 14091 
2 3346 3347 
1 3346 4536 
1 14091 16618 
1 6066 14089 
2 14089 14090 
2 6065 6066 
2 4534 4535 
2 4535 4536 
2 17276 17277 
1 11247 17275 
2 17275 17276 
2 11246 11247 
2 11245 11246 
2 20765 20766 
2 20764 20765 
1 20764 21273 
2 21272 21273 
2 1118 1119 
1 1119 11245 
2 5983 5984 
2 15553 15554 
2 15554 15555 
2 3859 3860 
1 3859 15555 
2 5984 5985 
2 21271 21272 
1 21036 21271 
2 21034 21035 
1 7515 21034 
2 7514 7515 
2 3860 3861 
1 3516 6619 
1 6621 14559 
1 13512 17442 
2 485 486 
2 7513 7514 
2 484 485 
2 3515 3516 
2 3514 3515 
2 2443 2444 
2 4636 4637 
2 16628 16629 
2 9499 9500 
2 4637 4638 
2 13510 13511 
1 2100 13510 
2 2099 2100 
2 2098 2099 
1 2098 4638 
2 13511 13512 
2 12080 12081 
2 16619 16620 
1 12081 16620 
2 16618 16619 
2 11794 11795 
1 10533 11794 
2 10532 10533 
2 10531 10532 
2 8335 8336 
2 8336 8337 
1 8337 10531 
2 154 155 
2 4802 4803 
2 4801 4802 
1 4575 4801 
2 6656 6657 
2 1117 1118 
1 948 1117 
2 946 947 
1 946 12210 
2 947 948 
2 8384 8385 
2 8383 8384 
1 8383 17670 
2 12620 12621 
2 12619 12620 
2 21035 21036 
2 3490 3491 
1 3490 19998 
2 15649 15650 
1 3492 15649 
2 3491 3492 
2 2236 2237 
1 2236 12619 
2 2237 2238 
1 2238 3297 
2 15650 15651 
1 15651 19609 
2 17440 17441 
2 17441 17442 
1 2448 3861 
2 2447 2448 
2 2446 2447 
1 2446 19677 
2 19676 19677 
2 12079 12080 
2 260 261 
2 19675 19676 
2 259 260 
1 259 5776 
2 5776 5777 
2 949 950 
1 949 11799 
1 5778 19675 
2 5777 5778 
2 9500 9501 
1 1152 9501 
1 11796 17662 
2 17662 17663 
2 17663 17664 
2 11795 11796 
2 4574 4575 
2 6655 6656 
2 12209 12210 
2 12208 12209 
1 12208 17151 
2 17150 17151 
2 8716 8717 
1 8716 17149 
2 8717 8718 
1 372 8718 
2 17149 17150 
2 11435 11436 
2 21356 21357 
2 21355 21356 
1 9000 21355 
2 8999 9000 
2 13300 13301 
1 13300 21357 
2 4093 4094 
1 4093 19611 
2 4094 4095 
2 950 951 
2 1174 1175 
1 1174 17664 
2 13970 13971 
1 7758 13969 
2 13969 13970 
2 11434 11435 
1 11434 21363 
2 21362 21363 
2 21361 21362 
1 10140 21361 
2 8998 8999 
2 8680 8681 
1 8680 8998 
2 1175 1176 
2 7756 7757 
2 7757 7758 
1 1176 11508 
2 11507 11508 
2 11506 11507 
1 2583 18483 
2 2582 2583 
2 2581 2582 
2 4925 4926 
2 4924 4925 
2 19616 19617 
2 16993 16994 
2 16994 16995 
2 10669 10670 
1 10669 16995 
2 18482 18483 
2 18481 18482 
2 9251 9252 
1 19617 19810 
2 19810 19811 
2 43 44 
2 44 45 
1 45 9273 
2 9272 9273 
1 12921 19615 
2 12920 12921 
2 19615 19616 
2 12919 12920 
1 12919 14533 
2 14533 14534 
2 14534 14535 
2 4235 4236 
3 12259 12260 
3 12260 12261 
1 10569 12261 
2 5120 5121 
2 5119 5120 
2 17536 17537 
1 10671 17469 
2 10670 10671 
2 17537 17538 
1 6405 17538 
2 6404 6405 
2 137 138 
2 17468 17469 
2 17467 17468 
2 17855 17856 
2 17854 17855 
2 3793 3794 
1 3793 17856 
2 3794 3795 
1 2445 3795 
2 7295 7296 
2 7294 7295 
2 9250 9251 
1 9250 16381 
2 16381 16382 
2 16382 16383 
2 14314 14315 
1 14314 16383 
2 14315 14316 
2 4454 4455 
1 6273 14535 
2 20792 20793 
1 4236 6064 
2 6064 6065 
2 20791 20792 
1 4035 20791 
2 4034 4035 
2 18434 18435 
2 21100 21101 
2 6272 6273 
2 6271 6272 
1 6271 8817 
2 8816 8817 
2 8815 8816 
2 14939 14940 
1 14940 20484 
2 11668 11669 
2 5752 5753 
1 5752 7977 
2 5753 5754 
2 17075 17076 
2 17074 17075 
1 11970 17074 
2 11969 11970 
2 11968 11969 
1 11968 13507 
2 13507 13508 
2 13508 13509 
2 3629 3630 
2 3628 3629 
1 3628 12466 
2 12466 12467 
2 7975 7976 
2 7976 7977 
2 12467 12468 
2 2444 2445 
2 8494 8495 
1 3630 8494 
2 8495 8496 
2 19190 19191 
2 6385 6386 
1 6385 19191 
2 6386 6387 
2 19189 19190 
1 6387 9441 
2 18433 18434 
2 9439 9440 
1 9439 18433 
2 9440 9441 
2 4033 4034 
1 4033 18027 
2 2981 2982 
2 2980 2981 
1 2980 13614 
2 11798 11799 
2 21101 21102 
2 9193 9194 
2 11797 11798 
2 14827 14828 
1 14827 21102 
2 14828 14829 
2 20482 20483 
1 9195 20482 
2 9194 9195 
2 20483 20484 
2 11669 11670 
2 8425 8426 
1 8425 12621 
2 8426 8427 
2 12172 12173 
2 12173 12174 
2 6878 6879 
2 3295 3296 
1 3295 6879 
2 19609 19610 
2 19610 19611 
2 6877 6878 
1 5847 6877 
1 9189 15402 
2 9188 9189 
2 9187 9188 
2 1151 1152 
2 1150 1151 
1 1150 9187 
2 18026 18027 
2 18025 18026 
2 5815 5816 
1 5815 18025 
2 5816 5817 
1 5817 8416 
2 8416 8417 
2 3206 3207 
2 3205 3206 
1 3207 10378 
2 10378 10379 
2 4573 4574 
2 3296 3297 
3 9688 9689 
2 13963 13964 
2 13964 13965 
2 3116 3117 
2 12008 12009 
2 12007 12008 
2 8417 8418 
2 16978 16979 
1 8418 16978 
2 16979 16980 
1 19380 20673 
2 19379 19380 
2 10139 10140 
1 9690 10138 
2 10138 10139 
3 9689 9690 
2 8681 8682 
2 4904 4905 
1 309 8682 
2 308 309 
2 307 308 
1 307 20476 
2 20476 20477 
2 7516 7517 
1 7516 16980 
1 7518 12321 
2 7517 7518 
2 12320 12321 
2 20477 20478 
3 10234 10235 
1 10234 19378 
2 19378 19379 
3 15737 15738 
3 10235 10236 
1 10236 15736 
3 15736 15737 
2 4903 4904 
1 690 20478 
3 688 689 
1 688 14179 
3 689 690 
3 14179 14180 
3 14180 14181 
2 16744 16745 
2 16745 16746 
2 11086 11087 
1 11086 16746 
2 11087 11088 
2 15346 15347 
1 11088 15346 
2 15347 15348 
2 16736 16737 
2 16735 16736 
2 16754 16755 
2 16753 16754 
2 2033 2034 
1 2034 16753 
2 2032 2033 
2 5870 5871 
2 6320 6321 
2 1753 1754 
1 1753 6319 
2 1754 1755 
2 6319 6320 
1 1755 5869 
2 5869 5870 
2 10568 10569 
2 10567 10568 
1 10567 15990 
2 15989 15990 
2 15743 15744 
2 14726 14727 
1 14727 15742 
2 15742 15743 
2 9274 9275 
1 9274 15744 
2 21154 21155 
2 21155 21156 
2 136 137 
1 136 21156 
2 14725 14726 
1 14725 17467 
1 2616 4941 
2 2615 2616 
2 2614 2615 
2 4940 4941 
1 4164 9213 
2 9212 9213 
2 9211 9212 
1 9211 9271 
2 9271 9272 
2 1699 1700 
1 1699 2614 
2 1700 1701 
2 4654 4655 
2 4163 4164 
2 4453 4454 
2 9053 9054 
1 5871 9052 
2 9052 9053 
2 17090 17091 
1 2790 3657 
2 3655 3656 
1 3655 13861 
2 3656 3657 
2 13862 13863 
2 13861 13862 
2 7022 7023 
1 7023 11230 
2 11230 11231 
2 7021 7022 
2 15988 15989 
1 13863 14938 
2 14938 14939 
2 14026 14027 
2 14027 14028 
1 14028 18780 
2 6403 6404 
1 6403 18439 
2 18439 18440 
2 18440 18441 
2 2042 2043 
1 2043 18441 
1 1701 4656 
2 4655 4656 
2 11234 11235 
2 5462 5463 
2 5461 5462 
1 5461 11112 
1 5463 11233 
2 11233 11234 
2 13612 13613 
2 11111 11112 
2 2789 2790 
1 2982 14368 
2 13613 13614 
2 11110 11111 
1 11110 21397 
2 21397 21398 
2 14368 14369 
2 11231 11232 
2 7115 7116 
2 9922 9923 
1 9922 14829 
2 9923 9924 
1 8274 11670 
2 8273 8274 
2 5362 5363 
1 5362 8272 
2 8272 8273 
2 5363 5364 
2 899 900 
2 898 899 
1 898 8520 
2 8518 8519 
2 8519 8520 
1 2652 11664 
2 2651 2652 
2 2650 2651 
2 5846 5847 
2 15401 15402 
1 13014 16462 
2 16462 16463 
2 5845 5846 
1 5845 11235 
2 16463 16464 
2 14369 14370 
2 6277 6278 
2 6278 6279 
1 6279 14370 
2 2210 2211 
1 4557 6277 
2 2209 2210 
1 2209 4776 
1 1506 2211 
1 5706 7116 
2 5705 5706 
2 10379 10380 
2 6107 6108 
2 1348 1349 
1 1348 6108 
2 6106 6107 
1 2637 6106 
2 5704 5705 
2 11663 11664 
2 15400 15401 
2 11662 11663 
1 11662 15907 
2 15907 15908 
2 15908 15909 
2 3115 3116 
1 3115 21382 
2 21382 21383 
2 21383 21384 
2 4555 4556 
2 1349 1350 
2 4556 4557 
2 21460 21461 
2 21461 21462 
3 20671 20672 
1 20671 21462 
3 20672 20673 
2 15613 15614 
2 15614 15615 
2 9980 9981 
2 9979 9980 
1 9979 15615 
2 6751 6752 
1 6751 12319 
2 12319 12320 
2 6752 6753 
3 650 651 
3 649 650 
1 649 8022 
2 2075 2076 
2 10375 10376 
2 2074 2075 
1 2074 10375 
3 1003 1004 
1 1003 13410 
2 13409 13410 
2 13408 13409 
2 241 242 
1 241 13408 
3 1004 1005 
2 8021 8022 
2 4939 4940 
1 4939 8020 
2 8020 8021 
2 18416 18417 
2 4162 4163 
2 19580 19581 
2 17546 17547 
2 17545 17546 
1 17545 19581 
1 10377 17091 
2 10376 10377 
2 19579 19580 
2 6716 6717 
2 6715 6716 
1 6715 17089 
2 17089 17090 
2 242 243 
1 243 13885 
2 13885 13886 
2 13886 13887 
2 11882 11883 
2 11881 11882 
2 9275 9276 
2 8879 8880 
2 17212 17213 
1 8880 17212 
2 8878 8879 
2 2041 2042 
2 13012 13013 
1 13012 13800 
1 9276 14058 
2 14057 14058 
2 14056 14057 
2 13798 13799 
1 13798 14056 
2 18415 18416 
1 12915 18415 
2 13799 13800 
2 12914 12915 
2 13013 13014 
2 3106 3107 
2 3107 3108 
2 1618 1619 
1 1618 3108 
2 12913 12914 
1 12913 19917 
1 6717 20196 
2 20195 20196 
2 2788 2789 
1 2788 8298 
2 8297 8298 
2 20194 20195 
1 19401 20194 
2 4121 4122 
2 8296 8297 
2 4120 4121 
1 4120 8296 
2 21398 21399 
2 4816 4817 
1 4816 21399 
2 19400 19401 
1 6342 11232 
2 7114 7115 
2 4774 4775 
1 4774 7114 
2 6340 6341 
2 4775 4776 
2 6341 6342 
2 17213 17214 
2 18779 18780 
2 18778 18779 
1 462 18778 
2 461 462 
2 460 461 
1 460 1366 
2 1366 1367 
2 1367 1368 
1 1368 19864 
2 19864 19865 
1 7200 21421 
2 21421 21422 
2 7199 7200 
2 1619 1620 
2 21422 21423 
2 1504 1505 
1 1504 1620 
2 2531 2532 
2 2530 2531 
1 2530 21423 
2 4817 4818 
2 1505 1506 
2 19399 19400 
2 601 602 
1 601 19399 
2 13663 13664 
1 603 13663 
2 602 603 
2 2636 2637 
2 19865 19866 
2 17462 17463 
2 17461 17462 
1 19866 20856 
3 20855 20856 
3 20854 20855 
2 13664 13665 
2 2635 2636 
1 2635 13665 
1 6891 15613 
3 6890 6891 
3 6889 6890 
2 17458 17459 
2 17459 17460 
2 7711 7712 
1 7711 17547 
2 2278 2279 
2 17534 17535 
2 17533 17534 
2 9025 9026 
1 9025 13887 
2 9026 9027 
2 16397 16398 
3 14903 14904 
3 14902 14903 
1 14902 16398 
2 7198 7199 
2 7712 7713 
1 7713 16396 
2 16396 16397 
2 19916 19917 
2 19915 19916 
2 17444 17445 
3 1129 1130 
1 1129 17443 
2 17443 17444 
3 1130 1131 
1 9027 17445 
2 3832 3833 
1 3832 4122 
2 3833 3834 
1 3834 6448 
3 6448 6449 
3 6449 6450 
1 6450 14122 
2 14122 14123 
2 14123 14124 
2 9941 9942 
2 9940 9941 
1 9940 21507 
2 21506 21507 
2 21505 21506 
2 15376 15377 
1 15376 21505 
2 15377 15378 
1 7854 15486 
3 7853 7854 
3 7852 7853 
1 7852 15378 
2 2279 2280 
1 2280 15484 
2 15484 15485 
2 15485 15486 
