ITEM: TIMESTEP
25000000
ITEM: NUMBER OF ATOMS
1206
ITEM: BOX BOUNDS pp pp pp
0.0000000000000000e+00 5.0000000000000000e+01
0.0000000000000000e+00 5.0000000000000000e+01
0.0000000000000000e+00 5.0000000000000000e+01
ITEM: ATOMS id type vx vy vz 
20566 1 4.25746 -5.68628 -4.02439 
14959 1 3.88052 4.26878 -1.30616 
7729 1 2.64734 -1.89701 6.94063 
21147 1 -2.95689 5.45195 -8.50491 
7730 2 4.72009 2.48792 -7.39806 
7731 1 0.768389 -5.64073 -2.37137 
21146 2 -2.12726 -0.850379 5.68901 
13230 1 4.56854 3.3545 -0.641446 
13228 1 -8.07555 3.26989 -0.554142 
13229 2 3.02517 1.56388 3.84893 
4596 1 -2.37576 2.84094 -1.62602 
4594 1 1.21536 -1.9259 3.4086 
4595 2 3.85464 0.259368 0.785053 
5398 1 4.95974 3.90376 8.33349 
17983 1 -5.46592 -8.47503 8.80143 
3191 2 -2.09782 1.80803 1.27772 
3190 1 -2.39379 4.99619 6.59047 
3192 1 5.50686 -0.514989 -4.35487 
20567 2 -1.48882 1.87163 2.13797 
20568 1 -1.20712 -4.81583 0.930961 
2204 2 3.22938 -3.86495 3.28951 
2205 1 0.324733 0.53029 6.58905 
2203 1 0.812094 -0.443683 5.47761 
21145 1 5.6063 2.37184 8.79656 
8524 1 -2.38027 -3.7241 -4.38906 
8525 2 -3.97892 -2.89499 1.23471 
14960 3 -3.2208 -3.67453 4.81782 
585 1 -2.0242 -1.91452 3.57462 
584 2 1.37167 -3.0427 3.04042 
19660 1 0.0246702 -1.68872 -1.86011 
583 1 -0.950223 -4.16647 0.177422 
16402 1 1.70218 1.96181 0.0293861 
14961 1 -0.0782409 0.606982 0.478899 
19662 1 -2.91186 2.65909 3.07847 
19661 2 1.7034 1.84172 -0.662522 
1363 1 -7.2337 7.46936 3.78342 
12537 1 4.03999 4.91352 1.70023 
1364 2 0.0695605 -3.4249 -1.40785 
16294 1 -3.71715 1.5138 0.254606 
16295 2 -0.37704 -0.0733114 0.440411 
16296 1 1.00801 4.01419 -0.102713 
17984 2 0.649962 0.811028 -1.68253 
14898 1 1.66111 0.0710398 -0.430511 
19483 1 1.36164 -1.28248 -6.67357 
20519 2 -0.390318 -4.07016 -4.32425 
20520 1 3.43346 -4.50362 -1.6197 
20518 1 3.17922 -2.37661 0.484104 
15247 1 -2.69775 -1.95543 -0.0762534 
15248 2 3.51983 4.52387 -1.42399 
14896 1 4.98842 2.13624 3.16053 
14897 2 0.68204 1.56649 1.19374 
15249 1 -1.52273 0.673977 -5.50784 
21539 2 1.47067 1.44716 -5.21907 
21540 1 2.70181 -3.30489 -4.46439 
13348 1 5.30955 -1.34908 -0.890552 
13349 2 0.822627 0.508442 -1.51038 
13350 1 4.93031 -0.168962 -5.86832 
6274 1 -1.1239 -0.128423 1.75435 
6275 2 -4.99329 -1.90723 0.831748 
7249 1 0.295647 3.2121 7.24624 
7251 1 -4.66337 -3.29572 -2.93423 
7250 2 -0.633238 0.301107 -4.46281 
6276 1 4.21947 -2.43497 4.54107 
1365 1 0.276133 0.0141997 0.208564 
3723 1 -2.84956 3.46786 -3.20582 
5399 2 -0.393957 -0.937287 -0.231988 
5400 1 -0.270294 -2.03449 2.71769 
17985 1 -0.567708 -5.32345 0.682277 
16813 1 -1.38682 -1.60043 -2.92769 
3722 2 1.32391 -0.82702 0.951817 
3721 1 3.18557 -4.74318 -1.32355 
16814 2 -4.4856 -1.2314 1.21038 
16815 1 3.10514 -5.17753 6.92309 
4399 1 -0.993333 -2.21219 1.68015 
4605 1 -1.86809 2.71055 -0.937097 
20318 2 -0.876818 -2.5855 3.84898 
19386 1 -2.72823 9.98339 -2.7769 
19485 1 0.869721 4.93608 -1.19718 
20317 1 2.71141 2.90245 2.10784 
20319 1 2.0016 1.49379 -1.0773 
19484 2 -0.949573 -1.21479 1.54926 
18782 2 -2.68463 2.25167 -2.23141 
15267 1 0.0470538 3.29356 3.3585 
15266 2 2.31962 0.206876 2.43399 
15265 1 0.578113 0.569085 -8.16342 
20508 1 -0.958404 -5.28558 -1.6655 
19385 2 -4.73425 2.37285 -5.17126 
18781 1 -0.906595 2.13028 -2.24012 
13320 1 4.3037 0.0586738 -2.00449 
13319 2 -1.62962 3.05462 1.54958 
20507 2 1.6195 -1.30329 -0.461522 
20506 1 4.83935 0.396506 1.96737 
5874 1 -5.71935 -6.53368 -4.76874 
5873 2 1.00824 -0.637394 -0.323168 
5872 1 -5.58824 6.66922 1.37832 
14338 1 1.85752 -2.66478 0.600242 
7174 1 -7.62095 -2.10114 -2.12091 
14339 2 -1.09124 0.558305 0.346528 
9269 2 -0.489488 2.22758 -3.29692 
10939 1 -2.53096 2.89965 -1.72547 
9270 1 -6.24523 3.05095 -1.36564 
10940 2 2.93083 -0.918218 2.22984 
9268 1 -0.0459896 -2.71419 2.98308 
10941 1 -3.71683 4.75232 -5.07552 
16404 1 -0.249714 -2.70404 0.547766 
16403 3 -2.03166 -0.00998723 -1.49049 
1494 1 2.12858 -1.26211 0.167885 
7354 1 -3.03227 3.76093 -0.0124027 
8140 1 0.265445 -0.291317 -1.486 
7355 2 1.6869 -2.58535 -3.85168 
7356 1 -0.299867 -0.935512 -4.25773 
8142 1 -2.90831 4.64709 1.39956 
8141 3 -0.901518 -7.52791 7.07879 
3001 1 0.0206213 1.79782 -3.67827 
9642 1 0.766355 -1.25358 1.0315 
9641 2 -0.134368 1.45567 1.50052 
9640 1 -1.545 -1.41483 0.731941 
5631 1 1.48602 0.703434 -0.254575 
5630 3 0.475365 2.15477 0.966288 
5629 1 0.413648 0.0271782 -2.13586 
19704 1 -0.534752 4.51572 4.56819 
19703 3 -0.129502 2.13448 0.2381 
19702 1 -0.386164 -4.89409 4.12115 
10284 1 9.08018 -3.67436 -3.00971 
10283 2 -1.70708 0.17369 -3.77192 
8373 1 4.54871 3.08334 -1.66189 
11162 3 -3.8355 1.8436 -1.24878 
11163 1 -3.77767 0.200836 -3.88924 
11161 1 5.78001 -6.77558 -0.835082 
12536 3 1.34047 -1.19508 -5.80488 
6440 2 2.78255 -3.44819 1.42374 
14564 2 -2.28032 -0.794411 4.16704 
14563 1 -1.62117 3.97478 -2.42352 
6439 1 0.29355 -4.45996 1.76906 
14565 1 -2.61786 -5.18426 -1.28114 
15085 1 -3.62085 -2.70172 -6.27442 
15086 2 2.06104 0.687895 3.70174 
15087 1 -2.52285 3.66323 -2.63038 
12256 1 -2.9505 2.76007 -4.5116 
12257 2 4.73788 -2.10965 0.101882 
7630 1 0.935886 4.35877 -1.60367 
1544 2 0.668367 -0.214103 2.20108 
7631 2 -1.27466 -2.28704 -3.62419 
1493 2 -2.23039 1.51496 -1.93318 
1492 1 4.59037 -1.80861 0.69429 
5623 1 2.85917 -2.28307 1.60734 
18177 1 2.32093 -2.9381 -5.27568 
20869 1 2.71357 -1.15121 -6.97662 
5624 2 1.90786 1.52925 1.63475 
5625 1 -1.98146 3.47249 3.69899 
1545 1 2.52081 -0.0447079 2.19826 
18176 2 1.2711 -0.996587 3.64255 
20870 2 0.991187 1.00077 2.52554 
18175 1 0.199789 5.64943 -1.56013 
1411 1 0.297842 -0.103083 -0.0276536 
10282 1 -4.20706 2.10832 -2.81692 
20871 1 -0.246208 -6.29273 1.04898 
17737 1 2.0471 -0.264097 2.67761 
21538 1 -4.5338 3.9575 -1.51601 
17738 2 -2.64654 0.754875 1.71895 
17739 1 0.190136 1.24301 -2.01695 
15957 1 -2.60787 -5.42417 1.15187 
9672 1 1.04365 6.84838 4.53912 
9671 2 4.07151 4.85847 1.10517 
9670 1 -0.135851 1.10014 2.9246 
4689 1 0.765109 -3.83995 -0.746096 
4688 2 2.17075 -1.33558 3.87291 
8244 1 -0.735123 2.59123 0.396012 
16369 1 7.37877 -7.78227 -3.49675 
12535 1 -5.61552 -2.44244 0.409252 
16370 2 -1.57505 -4.69438 -6.52997 
6855 1 -3.62713 -4.44018 2.50736 
6854 2 4.00649 1.10214 -0.48905 
9343 1 1.13503 -1.59735 -4.29451 
14167 1 -1.63829 -1.05215 0.81855 
6853 1 -2.77632 1.06814 0.435884 
18869 2 0.120752 -1.23978 -0.783524 
1543 1 -2.85765 4.3591 -0.421966 
8145 1 1.18105 -2.47866 -1.27214 
9344 2 0.808418 -3.51678 2.41159 
9345 1 -3.35674 -3.0166 -1.3656 
7632 1 -4.70783 4.97037 -2.88914 
8143 1 -2.54396 -0.6136 0.5675 
18868 1 -7.59836 0.124465 -2.30988 
8144 2 -1.51379 2.62012 -2.59435 
3789 1 3.29701 1.63282 -2.6354 
4400 2 -6.35949 -2.99172 4.51559 
18852 1 2.26873 5.37844 -6.6098 
4401 1 7.98571 1.87161 -0.693215 
10904 2 -4.58824 -1.12294 -4.5952 
10905 1 -2.17581 3.13057 -1.21888 
18851 2 2.06154 -1.34553 2.44755 
18850 1 2.33671 -4.96868 2.23127 
16941 1 -1.38029 -0.332527 -4.5234 
10903 1 -4.08504 -2.54534 2.93479 
13318 1 2.14353 -2.22824 -4.22043 
16940 2 -1.2589 3.52973 3.52577 
16939 1 4.26342 0.442307 -1.99676 
5335 1 -5.06181 3.36699 3.17678 
2257 1 3.45054 3.32481 -4.97411 
12750 1 5.46246 -2.29059 -0.318775 
7269 1 -8.15346 -5.09369 1.35929 
5336 2 -2.97095 -0.383912 -0.914865 
7945 1 -0.232438 0.34679 -3.07744 
14340 1 10.6547 1.14549 -4.91454 
12749 2 -0.637158 0.560586 1.55535 
7993 1 -2.43133 3.70131 4.03855 
12748 1 1.21904 3.13761 -2.53191 
15340 1 -2.54389 -1.88408 5.26497 
7994 2 2.18889 -1.95628 -3.71488 
7946 2 2.73342 -2.14679 -2.70223 
7947 1 -1.155 1.32395 -1.26147 
9612 1 0.75125 0.646502 -0.344721 
15341 2 0.559703 -3.67273 3.69548 
8242 1 -5.37387 3.81428 3.97528 
15342 1 3.14527 -1.74746 -2.62697 
7995 1 4.68361 4.05214 -2.32046 
8243 2 -1.24209 -1.39669 3.99243 
12296 2 -3.83137 0.973897 -0.0586786 
12297 1 -9.02733 -2.12291 -0.285441 
12295 1 -3.40047 2.00635 -4.33275 
3002 2 1.01717 0.705023 0.281205 
19732 1 -0.774425 -6.69814 -1.37295 
19733 2 4.54452 2.92218 3.64116 
1663 1 -0.705507 -0.0443688 -5.50788 
19734 1 0.912639 -1.11699 -1.47145 
8371 1 5.78158 -1.19329 -2.03352 
8372 3 -3.14652 3.29413 -4.55564 
3163 1 2.74083 0.481023 1.17216 
3687 1 1.45899 -1.0817 -4.54552 
3686 3 -1.28218 -1.22698 -2.15543 
3685 1 -3.21894 -1.77694 1.73917 
11857 1 -5.3387 -1.92043 -1.73073 
3164 2 -3.99888 1.12517 1.66223 
6441 1 -8.08648 -0.4196 3.31321 
9327 1 2.27885 3.35925 6.72702 
15112 1 -6.19584 -2.38119 -2.36114 
9326 2 -0.886719 -0.497317 1.18915 
12258 1 3.1566 -3.29339 -7.68762 
15118 1 1.11784 2.53045 -0.536732 
15119 2 -1.41604 1.42753 -1.25021 
15120 1 4.9558 -2.58577 3.30545 
11707 1 0.60341 1.14524 -2.27509 
10605 1 -2.33788 -4.94091 -1.42271 
11708 2 3.78542 -0.0955948 -3.42252 
11709 1 0.682252 -1.72729 -0.66369 
4510 1 2.67033 2.53465 1.06421 
4511 2 3.20452 -1.63001 2.58847 
3003 1 -0.734255 1.53708 -5.25948 
11520 1 1.32693 5.56091 -0.594704 
11519 2 1.04159 -5.63966 4.49433 
9890 2 -1.60407 -4.25407 -1.99194 
9891 1 -2.94297 0.727269 -0.387517 
11518 1 6.04766 2.91731 9.79056 
1413 1 0.300116 -0.324242 4.09157 
2931 1 4.3186 -1.02076 -2.7002 
1412 2 3.47821 2.91539 0.579582 
5356 1 0.537764 0.877279 2.72276 
5357 2 -2.74159 -1.00106 -2.86162 
1664 2 -3.27943 -2.41071 0.256203 
1665 1 1.9358 -1.4453 6.327 
9837 1 1.70683 2.55639 -5.18134 
9835 1 -5.9536 -2.18695 -4.29939 
9836 2 1.91451 0.257692 -3.68964 
2914 1 -0.24407 -3.30201 -1.67519 
15956 2 1.10359 5.55096 -3.3586 
15955 1 -2.01044 -0.65829 8.74515 
6216 1 -4.66306 1.32932 -2.37735 
6215 2 -0.201138 -0.722393 -0.758582 
5358 1 2.10257 7.62198 -7.35012 
6214 1 -1.46267 -1.61655 0.526115 
21401 2 -3.304 -3.61182 -0.637698 
21402 1 -2.22029 -1.88055 0.779761 
4687 1 3.66752 -1.39298 7.42609 
9730 1 0.074929 6.84601 3.48976 
9731 2 -0.141409 -0.661562 -1.00544 
9732 1 2.17139 -2.51291 -1.25821 
9183 1 1.61422 3.57801 -5.96762 
12324 1 -0.700252 -0.296143 -2.93591 
6573 1 -0.591291 -5.64147 -3.03397 
6572 3 -1.64872 0.0861577 -3.62306 
14917 1 2.93624 1.90387 1.27704 
3844 1 0.64469 4.00345 9.16104 
12322 1 -1.46646 -1.20305 -0.349415 
3165 1 -3.5338 4.38035 -0.2255 
12323 2 1.96775 0.220327 -0.331507 
9900 1 -2.71851 -0.307444 -0.964781 
9898 1 2.42891 2.95746 -3.80291 
9899 2 1.36025 2.13289 -2.4123 
3845 2 -1.26841 1.82292 3.50602 
1904 3 0.39151 -2.35861 1.96571 
1903 1 -3.20589 -4.88972 -1.96401 
1905 1 4.60013 0.630547 -1.04889 
3846 1 0.964371 -5.28751 -1.16758 
16371 1 -4.25355 1.97602 -4.25919 
2997 1 -3.24614 0.930051 -3.43014 
15399 1 -0.714725 -3.10469 2.62117 
17381 2 -2.548 -5.01898 2.3491 
15113 2 -6.48732 -3.2803 3.09323 
15114 1 -1.07152 0.541296 1.99597 
2996 2 -0.420138 0.506918 -3.31936 
11092 1 -4.30828 -0.113097 -1.82957 
2995 1 -3.86041 -10.5476 0.202735 
15398 2 -1.99131 -0.0670509 -0.457073 
11093 2 -1.09264 -0.967699 3.95891 
6396 1 -0.0885001 -8.12975 6.46526 
17382 1 -3.26366 7.90069 2.17676 
2930 2 3.31822 1.45072 -2.06577 
10604 2 -0.750916 0.470622 1.83525 
10603 1 -0.137724 -5.9257 -2.15193 
15397 1 -5.90312 -4.64811 1.27744 
2929 1 0.0544077 1.17415 2.13367 
3922 1 0.0242452 4.37059 -4.04061 
3923 2 -1.76935 2.5237 -1.91927 
3924 1 -0.245459 3.61082 -5.58764 
6235 1 -2.54798 -3.61099 1.91741 
9043 1 -6.06635 -0.368473 2.55132 
15238 1 -1.10929 -2.00568 0.428188 
15239 2 1.85617 2.0876 -1.57527 
11973 1 0.461128 4.22212 -5.00046 
15240 1 -1.31613 0.648666 1.02586 
16339 1 6.16399 -1.13741 -3.3897 
16341 1 3.85579 0.708247 -0.457499 
16340 2 -0.35145 -2.32363 0.375367 
2916 1 3.44933 -5.44807 -7.23384 
2915 2 0.794392 1.91831 -1.35971 
14032 1 -1.44753 4.40732 2.4241 
2258 2 -3.63413 -0.142819 1.45394 
11972 2 1.67894 -1.23095 7.5855 
7267 1 -2.23829 1.56862 0.590265 
7268 2 1.13052 -3.01602 -0.157206 
20879 2 0.487282 2.13857 -1.34525 
20878 1 3.28371 -2.134 -1.71464 
12381 1 1.89133 3.45687 0.189454 
12380 2 1.66706 -2.58388 0.0809219 
20880 1 3.14448 7.70956 1.21952 
2259 1 6.46018 6.98539 -2.06823 
11971 1 -1.28744 -2.88888 -6.76343 
16924 1 2.453 4.79548 4.0025 
16925 2 -0.87459 3.65793 -3.57603 
17225 2 -4.8327 1.6044 2.96238 
17226 1 -2.38003 -0.589648 -3.5045 
873 1 -0.0465742 -0.746859 -1.67484 
872 2 -0.0336236 2.53075 -2.3364 
871 1 -8.44004 -1.65643 -3.8982 
17224 1 -3.27292 -0.24875 4.03811 
1072 1 2.12878 2.91482 -1.87125 
21444 1 -6.3324 3.36864 -4.96752 
21443 2 -0.51177 1.12677 -0.523505 
1074 1 3.43004 1.51877 0.579573 
1073 2 -0.72392 -3.36007 1.56993 
6571 1 -3.15749 -0.0499155 2.07352 
9611 2 0.562903 -2.80556 1.47958 
6576 1 0.45146 -1.85714 4.50875 
9610 1 2.56985 -2.57852 -7.51375 
20949 1 -4.39717 0.599346 8.38013 
6574 1 4.92408 1.69539 -1.45893 
368 2 0.167328 1.04845 -0.790897 
369 1 -0.94025 -2.02202 -4.62282 
6575 2 -1.23431 -1.53542 -0.664189 
367 1 -2.67966 -1.47406 3.07474 
15495 1 0.654556 5.49858 4.13457 
18814 1 8.35877 0.91795 -2.04766 
18815 2 -3.45846 -2.97646 0.535893 
18816 1 4.44655 -3.89987 4.1715 
3645 1 -0.513917 1.86159 -4.29323 
3644 2 2.766 -4.45261 1.26234 
11464 1 -3.48527 0.451947 5.92711 
11465 2 0.486645 -0.999538 0.984487 
13587 1 -2.26025 -1.18473 -2.90958 
13586 2 0.501875 -0.614239 -0.909963 
13585 1 -8.37104 -1.9206 1.30479 
1443 1 0.79462 4.21666 -5.76821 
5857 1 -1.54378 1.11143 -1.49449 
1441 1 -5.88942 -0.105661 1.99511 
1442 2 1.04435 0.18344 3.07405 
12368 2 0.359779 -2.32883 -3.28562 
12367 1 5.02434 -2.10192 -0.260489 
12369 1 -0.379309 -1.27533 2.31513 
16604 2 0.286073 -2.09734 1.03914 
16603 1 -4.76104 5.28573 3.18416 
2025 1 2.30609 -3.13687 5.08379 
16605 1 -1.49703 0.593726 0.0398629 
17401 1 1.23531 -1.44638 -0.701727 
953 2 2.77528 0.455037 4.41448 
952 1 1.98938 3.79015 -1.84841 
19182 1 5.57963 3.00025 4.12628 
8310 1 0.743535 -0.190442 -5.68212 
8309 2 1.12726 2.52768 -1.90506 
19181 2 1.18131 2.0723 -6.15564 
11466 1 -4.39419 -0.148308 -0.101628 
21045 1 0.0306405 -7.24993 -0.591089 
5858 2 1.20882 -0.0529616 -0.583932 
20649 1 -3.24349 1.10975 -2.69453 
20648 2 -1.62285 -4.14808 4.30097 
20647 1 -1.10744 -4.55982 3.12793 
5859 1 -1.38169 7.04335 -1.33527 
21044 2 1.66534 1.15521 1.00371 
2875 1 -0.65214 -3.40989 -1.81822 
21043 1 0.435001 -0.468258 -0.446096 
2876 2 -3.85938 1.6654 -0.22344 
21288 1 0.324092 -7.84949 -2.20324 
21287 2 -3.84068 -2.9424 -1.8268 
19180 1 1.88958 -1.15344 -5.26271 
10347 1 1.29185 -0.394127 -0.344199 
10346 2 0.385811 -1.15944 5.5423 
10345 1 0.69833 2.98307 -2.55305 
15684 1 -3.29629 3.13962 -0.0703503 
15683 2 0.127809 0.785502 3.26075 
21400 1 -4.84031 2.26563 0.362842 
21286 1 1.96953 -3.83208 0.276093 
5089 1 -3.77681 3.72623 4.86821 
15682 1 -0.0603706 1.9311 2.23093 
11858 2 0.190671 0.56713 1.75666 
3496 1 -0.691161 -1.62947 -0.139716 
3497 2 1.8678 0.791309 4.17408 
3178 1 -0.70002 2.69584 1.04972 
3498 1 -1.35889 0.419312 1.67513 
3179 2 3.33226 -3.35862 1.2473 
3180 1 2.99681 0.415305 -3.80777 
21289 1 -4.63454 2.74215 0.268838 
21290 2 -4.38053 0.436463 2.45706 
2024 2 1.41692 -2.23488 3.0271 
2023 1 -3.19215 1.56801 -0.751121 
10060 1 4.85306 -1.50467 2.23883 
10061 2 0.971437 -5.38151 1.90558 
10062 1 0.741083 5.48693 -4.57098 
14919 1 -0.726158 -1.63338 -0.52566 
14918 2 -0.981231 -3.86186 2.81516 
4170 1 3.08547 -4.62016 3.1698 
16132 1 1.94631 -5.80257 4.65742 
16133 3 -0.879505 3.73216 -1.19225 
133 1 -4.38011 -0.126939 -0.802137 
134 3 2.12106 -1.58472 0.45211 
135 1 -1.79639 -3.5368 8.10924 
16134 1 -3.21261 3.1073 2.30661 
17823 1 3.36478 -2.62649 5.53351 
17821 1 -2.78541 -5.6714 0.786661 
17822 2 0.172109 1.47889 -2.51055 
18295 1 -0.246751 -0.333432 6.86119 
18296 2 2.67913 2.56294 -5.87296 
17243 2 -5.05682 3.95978 0.022416 
9325 1 -2.62781 1.78205 -0.211261 
17244 1 -2.29125 2.67826 -0.685067 
17403 1 -1.63023 6.352 1.86028 
17242 1 -6.56595 -1.88412 0.553296 
18297 1 0.152681 -1.61426 2.85165 
17402 3 4.98277 -0.0140926 3.50739 
4512 1 -6.12036 -2.24474 2.80696 
954 1 -1.72572 5.27679 -2.46601 
5133 1 2.74539 3.37364 -5.23326 
9889 1 0.109401 0.939588 0.462572 
6181 1 2.30849 0.346731 0.404729 
17659 1 -1.92639 6.77986 2.19512 
17660 2 2.18527 2.24201 -2.18718 
17661 1 -6.64313 1.58748 -4.04662 
11219 2 -0.767437 1.11432 -4.54423 
11220 1 0.902288 1.44598 9.17666 
2877 1 4.25455 -0.769224 5.17694 
11218 1 2.56252 0.916661 1.75292 
12580 1 2.68293 -6.29644 -1.84486 
1516 1 3.05298 5.63149 -2.51841 
12844 1 -3.2073 2.09939 -0.456246 
1517 2 -0.400356 2.69181 1.14218 
1518 1 -1.7524 -4.13237 3.21805 
12397 1 -2.93474 2.63443 2.07525 
12398 2 0.636792 1.57799 0.0183396 
12399 1 -3.79068 2.58892 -2.69956 
11859 1 5.43264 -3.77974 4.17618 
9182 2 0.808862 -0.282717 -1.74631 
9181 1 -3.42479 0.855518 5.216 
4128 1 2.23715 1.27994 1.2362 
4127 2 -2.79015 -2.1477 1.82634 
21132 1 -11.6512 0.595345 -0.211081 
14851 1 -1.43591 -0.143269 6.54408 
14852 2 -2.85256 -3.93894 -1.05065 
14853 1 3.03841 2.15397 -3.96054 
7360 1 1.62201 -2.29245 -0.80032 
7362 1 -1.45453 -4.49356 0.562631 
7361 2 -0.598729 -2.53121 -0.196751 
11094 1 1.18206 -1.08401 -1.3338 
13713 1 2.37723 6.26669 2.65554 
13712 2 3.75429 -1.07554 -0.855292 
13711 1 2.57738 1.67803 -1.26124 
6183 1 -0.114942 0.823457 2.25523 
5006 2 -1.1397 0.577452 4.52867 
12510 1 -2.81023 -2.23064 1.16255 
5007 1 -0.213559 0.5806 0.680678 
12509 2 1.18527 0.486723 -3.18019 
20198 2 5.4442 -1.12233 3.3661 
12508 1 0.139908 -0.888266 -3.72932 
5132 2 -0.934726 2.21176 0.537152 
5131 1 -3.03605 1.12953 1.39629 
6182 2 -0.405118 -2.89552 4.62381 
8849 2 -3.70827 -0.914719 0.60089 
4067 2 -1.29083 0.259912 -0.114 
8850 1 -0.45971 4.85206 -2.14993 
4066 1 -0.703134 -5.11166 -3.73786 
4068 1 -1.31919 0.107554 -0.988697 
20197 1 0.0733422 2.45845 2.3579 
11298 1 -4.92149 -7.04809 -0.868152 
8848 1 -1.5168 3.9045 0.682547 
8565 1 4.80644 6.09141 -1.66272 
20199 1 -5.17342 -5.53513 2.46114 
14033 2 5.51342 -6.31754 -2.09055 
10448 2 1.07565 -3.51009 -4.57581 
10449 1 -2.1096 -1.34863 0.825982 
12581 2 0.470645 3.03424 0.915434 
20811 1 -0.109134 -4.40521 7.51535 
11296 1 -1.1418 -1.26173 -5.16462 
12582 1 -1.40269 -4.25095 2.31631 
20810 2 1.07325 -2.83668 -3.0181 
11297 2 -1.82143 3.17883 2.81233 
13673 2 0.816363 -1.3726 -3.54071 
5616 1 -3.45981 -5.9672 -1.46306 
16715 2 -0.637648 -1.11397 -0.972014 
10447 1 1.36235 -1.1732 -1.73591 
16714 1 -3.56038 -4.2414 -4.64693 
16716 1 -1.47667 -2.45525 0.147774 
115 1 2.12208 -2.95104 1.9911 
116 2 1.89821 -1.00378 0.495315 
13674 1 -3.19217 -1.12802 -1.55261 
13295 2 -0.774514 4.96829 -0.0693307 
20809 1 -0.283143 5.23392 -1.0395 
13296 1 -2.35544 -3.79661 -8.54719 
13672 1 -6.47707 -3.07544 -2.04369 
3101 2 -1.27476 -1.4034 1.55161 
117 1 -0.281709 -0.170012 1.49489 
20655 1 -0.0278018 -2.3858 4.1259 
20947 1 -2.64715 2.02869 4.23842 
20654 2 1.30534 1.59098 -0.627108 
20653 1 -0.317218 -3.25861 0.440481 
4126 1 3.36802 -3.79127 -0.631916 
9745 1 0.479668 0.389693 -1.27923 
3102 1 -1.94419 -2.59352 -8.36783 
9746 2 -3.00943 -3.22565 2.01657 
15494 2 0.0349992 1.30706 -3.6941 
17970 1 0.789207 0.553934 -8.02777 
17969 2 1.19687 0.461898 -2.01549 
6175 1 -0.998837 0.472349 -12.7391 
17968 1 -2.48122 -5.51855 -3.22528 
6176 2 -0.571667 3.23601 -2.15357 
20948 2 -0.242067 0.144752 -0.9482 
15493 1 1.06692 -0.963432 -0.861914 
9747 1 5.27439 -4.61521 1.67064 
16756 1 -3.95937 -2.25899 1.37685 
16757 2 -1.45566 -0.889414 0.979254 
16758 1 -3.10189 0.173504 -0.385577 
3643 1 -1.29327 1.21041 -0.945495 
382 1 0.405499 5.26587 -0.604253 
13955 2 -3.82472 -1.33018 -1.29825 
13956 1 3.94576 2.12754 9.25961 
13954 1 -1.81526 -1.62018 3.48811 
21406 1 -1.20473 4.26915 -5.87905 
21407 2 2.35733 -1.84321 -1.28315 
13430 2 0.840291 2.48384 -4.17639 
383 2 1.94171 0.919291 0.0457868 
8308 1 1.16804 2.5074 -1.82086 
384 1 -1.58268 -3.79528 -1.63673 
9217 1 4.46549 -4.03361 2.29056 
21381 1 -1.92629 -3.66825 3.32011 
21380 2 2.06426 -3.20415 -1.71584 
21379 1 -3.04054 -2.31399 -0.0017738 
9219 1 -1.56839 -2.02719 1.7307 
19122 1 -1.35953 -0.189596 0.335588 
9218 2 -1.78899 0.467537 -4.66843 
12021 1 -2.75055 -3.54041 0.526135 
20201 2 3.22609 -1.5998 -1.56016 
20202 1 4.83779 3.11718 -2.77016 
20200 1 9.04102 2.50329 -6.02895 
5090 2 1.79693 1.83914 1.69238 
13884 1 -0.974464 2.75208 0.795885 
11289 1 -6.09868 0.217718 -3.19407 
10203 1 -2.98541 2.47041 -1.43367 
11288 2 -0.0795936 -0.204511 -1.09171 
13883 2 -3.99027 0.70595 -1.84702 
13882 1 2.51559 1.10661 -3.71729 
21291 1 -2.34405 -0.485259 -2.50742 
11287 1 0.783693 -6.75611 -0.427407 
4169 2 -2.21275 -2.92993 4.20693 
4168 1 0.986954 8.04974 4.59344 
10677 1 2.02473 -1.12313 1.65627 
10675 1 1.5117 1.0531 -2.74655 
10676 3 -1.22697 -1.6344 0.785352 
13429 1 -0.56016 -1.66496 5.00479 
13431 1 -3.71214 5.18939 1.73149 
3639 1 4.97652 -1.56212 1.91015 
8564 2 -5.29264 -0.527677 -5.88132 
3638 2 2.78941 -0.673981 3.71172 
3284 2 0.245107 -3.22072 -0.649027 
3637 1 -3.86699 -6.92964 3.98393 
13596 1 -0.400762 -3.33782 -0.0304047 
19121 2 3.95925 1.13501 -3.86812 
12019 1 -2.3084 -2.81693 -4.31726 
12020 2 1.88543 -0.837753 -0.626045 
15206 2 -0.370651 -2.21116 -0.74544 
12846 1 -4.00219 3.83226 1.50198 
15207 1 2.21607 -1.61544 1.54052 
12845 2 2.92415 0.566614 -1.50622 
1782 1 -4.02883 -1.45836 5.94848 
19120 1 -1.15346 -7.08951 9.44142 
13294 1 -3.82053 4.74996 -0.619656 
5091 1 4.58863 5.03264 -0.569465 
11884 1 -3.87756 -9.06511 -2.5337 
10202 2 -4.60464 1.73169 1.14262 
1780 1 3.2874 -0.76476 -3.71815 
1781 2 -5.14262 0.46344 -2.95801 
15727 1 -4.22001 2.29989 2.53551 
15728 2 -1.09065 -3.27101 -0.0126939 
11885 2 1.39886 -2.72301 0.769578 
11886 1 -4.73222 -1.01521 -6.10962 
15729 1 -2.49271 -7.28021 5.62828 
21130 1 1.59282 -1.52549 1.1152 
6314 2 -0.564336 4.51258 -4.0125 
20380 1 1.78659 5.1118 -0.710161 
20381 2 -2.23309 -5.63478 0.592844 
20382 1 1.39551 1.2559 9.85308 
6313 1 1.24613 1.7643 5.306 
21131 2 2.13475 -3.77681 2.99903 
9011 2 -1.13207 2.78354 2.90039 
20501 2 1.14869 1.9102 -1.69892 
19183 1 -1.53993 -2.86303 -2.45132 
19184 2 0.25025 1.3722 2.32937 
19185 1 -2.00544 0.00862102 -1.45394 
5005 1 2.46539 2.97129 1.36803 
19790 2 2.68074 3.40568 1.841 
19789 1 -2.52944 -0.119902 -1.66493 
20500 1 -7.03768 -0.651873 2.8448 
19791 1 0.632623 -0.0374355 0.00142402 
20502 1 -0.956697 0.549503 -5.86703 
8314 1 0.247052 0.389033 -3.03548 
8563 1 -0.433556 -0.520369 -5.93192 
8315 2 0.229512 2.83515 -1.15824 
8316 1 1.96194 2.80373 -3.72165 
3285 1 -2.15194 7.38894 -2.60214 
3770 2 -1.86 -1.7903 -0.523137 
15837 1 4.7961 -0.660138 -3.48612 
15205 1 -6.62094 -4.5308 0.302279 
3771 1 5.53402 4.25591 1.12899 
15835 1 5.87351 2.59859 3.2365 
15836 2 -2.15341 0.477568 4.52478 
2638 1 -1.57392 4.12863 -1.06081 
8239 1 -1.43747 2.86547 -0.672339 
8240 2 -1.16372 -0.840749 -1.26015 
2639 2 1.41956 2.13593 1.26702 
2640 1 3.0074 0.0982845 3.99426 
8241 1 -1.38758 3.14372 3.41302 
20617 1 1.23456 -0.792503 -0.658212 
4320 1 -0.484614 4.88351 0.160786 
10048 1 -0.351142 -7.11243 0.108056 
20618 2 0.280085 2.64141 -0.322311 
6315 1 -5.72953 -3.50067 1.97366 
10049 2 -1.31101 3.16904 -0.901277 
10050 1 2.25389 -0.917993 -3.47896 
6177 1 3.44541 3.33481 2.63635 
9012 1 -4.43241 4.72879 2.968 
9010 1 -0.800054 -2.87388 1.43952 
20094 1 2.92889 -2.70718 1.18944 
9454 1 -1.33407 3.33062 5.32918 
9455 2 -1.34063 1.18155 -1.5618 
9456 1 -2.5368 1.34609 -3.27458 
21408 1 1.86923 3.77682 -1.58618 
20093 2 1.93328 1.77086 0.855033 
20092 1 3.85303 5.18263 -2.11103 
13595 2 -2.08182 0.702264 -1.2097 
2913 1 -6.30448 -7.29832 -4.1699 
13594 1 4.03774 1.86998 -2.57055 
3283 1 2.61634 1.41755 -2.3463 
16493 2 -1.66553 -0.79317 -1.08894 
16494 1 -0.23945 -1.44388 -9.44349 
5280 1 5.5587 -3.34658 1.23021 
7820 2 0.42764 0.755125 0.0439805 
7821 1 4.72761 -0.602345 3.20172 
5279 2 0.841194 0.882939 1.38314 
5278 1 1.36511 2.16208 -4.11094 
16492 1 5.62192 2.07427 3.07887 
2911 1 0.217344 -1.46551 -1.40152 
2912 2 -3.54914 1.43835 -0.227777 
7702 1 3.38441 4.6735 -1.81859 
10201 1 2.10339 1.77066 0.885414 
7703 2 2.13098 -0.383011 1.15042 
7704 1 0.935853 -2.77336 0.942312 
16693 1 1.97638 -6.68284 1.11665 
3769 1 2.24363 -8.29879 0.856025 
16694 2 -2.90197 -0.403439 3.52466 
16695 1 2.54366 1.33271 3.31064 
9420 1 -6.71102 -4.47603 0.885623 
8361 1 0.267269 -2.67603 -2.98323 
9418 1 2.04663 -4.2363 -1.35603 
914 2 -2.54331 0.727117 -2.28319 
9419 2 -0.481882 1.37244 -1.54297 
1790 2 2.48243 -1.43039 -0.534364 
915 1 -2.01362 -1.98337 2.47228 
1789 1 -3.37053 -0.742927 6.92297 
13787 2 -0.00390151 2.94904 0.175883 
13786 1 0.930315 1.95087 -0.732796 
13788 1 -2.43347 2.6169 0.595519 
4319 2 -1.12837 1.14365 2.36877 
8359 1 2.76124 -0.151391 1.92171 
21151 1 5.42877 -2.56545 -4.44333 
21152 2 0.858632 1.12629 1.19144 
21153 1 5.42639 3.38708 5.19627 
4318 1 -3.42017 7.19707 -0.398872 
21502 1 4.81225 0.483268 2.04151 
1791 1 4.5132 4.81377 -1.04604 
21504 1 -5.15945 3.82891 -4.03036 
21503 2 -3.938 4.76286 4.21852 
7819 1 -3.92285 -4.85097 4.30593 
8360 2 0.197686 3.58998 -0.770877 
17466 1 -3.44187 -4.15011 -3.01154 
17465 3 2.67041 -1.15759 -3.47128 
10408 1 -8.78072 3.0617 -3.43183 
17464 1 4.2517 -4.37506 0.635217 
10409 3 2.27555 3.34667 -3.43684 
10410 1 -1.21354 -5.26443 -2.71081 
4397 3 -1.712 1.19608 -5.14275 
4398 1 1.68975 -2.5643 -1.21259 
4396 1 0.551342 -1.02741 -3.27811 
11899 1 -0.148642 -5.87825 5.50296 
5340 1 -5.49909 2.47481 -4.04302 
4133 2 -1.64843 2.88677 5.74232 
4132 1 7.0074 0.969302 -3.15722 
860 2 7.03972 -0.301959 -2.06823 
5339 2 1.58241 5.75993 -2.31092 
5338 1 -0.926958 5.624 -3.03888 
861 1 -3.98632 -2.38532 1.45181 
8526 1 -2.1405 3.6878 1.01013 
20100 1 4.78452 4.94279 -2.89804 
12653 3 -2.75743 -1.99775 -4.78686 
12652 1 0.11348 3.94573 -2.22704 
3717 1 2.7409 -5.71915 -1.3052 
3716 2 -0.611601 0.149395 -2.93289 
3715 1 2.49944 2.59632 -3.65968 
4603 1 3.54832 -3.31806 -4.16859 
20016 1 4.17672 2.8979 7.00419 
20015 2 5.41809 0.0506213 -0.342389 
20014 1 -2.64673 -1.03265 7.07773 
13024 1 3.37 2.79413 1.89338 
11900 2 -1.88675 -1.06308 -2.35054 
8559 1 -3.43387 -3.24815 3.94758 
18786 1 3.8749 3.41636 0.294293 
8558 2 -0.777816 -1.84874 1.95632 
11901 1 3.00958 -2.91884 5.75074 
8557 1 -4.56186 -1.33043 -2.83 
4604 2 -2.96354 -4.87162 -1.5434 
19384 1 4.31732 2.06883 -7.24852 
4134 1 1.0942 0.199203 -2.25845 
4958 2 2.2388 -4.43819 -1.13045 
4959 1 2.4111 4.35845 -0.934874 
4957 1 -1.77389 -0.750501 1.13663 
15150 1 -1.77347 -3.34875 5.7378 
18783 1 3.22028 4.13656 4.54703 
7175 2 -0.848461 -1.60282 -1.37833 
7176 1 0.0656799 -3.35917 -1.79801 
20099 2 -0.422394 1.53832 -4.06572 
8163 1 -5.14653 0.50914 6.02786 
8161 1 1.67732 0.92886 1.05594 
13740 1 1.55855 1.62066 2.31532 
8162 2 0.00254697 -0.781442 0.796817 
20098 1 -1.97071 2.54887 -0.894953 
859 1 0.761561 0.947956 4.0976 
1198 1 -0.301171 2.17136 3.26818 
5150 2 2.8509 0.360881 3.6443 
5149 1 -0.589555 0.480087 -2.84309 
5151 1 -3.87539 -6.9596 -2.2567 
17040 1 -3.80223 -1.39458 8.99136 
17039 2 3.34085 -4.54261 2.64564 
4701 1 1.87672 -0.139107 3.60906 
4700 3 -0.39886 1.6364 -0.76633 
4699 1 0.62151 -1.82621 -1.69526 
16281 1 -1.61485 4.02057 -1.59278 
16280 2 3.87243 5.63326 1.40535 
16279 1 2.11746 -2.92924 -1.73838 
2743 1 6.4415 6.97945 1.2471 
2744 2 -3.37748 -2.30938 2.63941 
15149 2 -0.48824 -0.593532 -5.01679 
13739 2 -1.49432 0.351062 1.78978 
13738 1 -5.75703 -0.873375 1.81129 
12654 1 6.3727 -0.37706 -0.373783 
6652 1 0.247005 -0.134846 2.12868 
9967 1 -0.0543074 -3.36165 2.82828 
14869 1 0.00913923 -1.07786 1.34843 
9969 1 -1.21751 -5.29977 1.20349 
9968 2 2.16047 2.97711 -2.45173 
14169 1 -5.24435 7.08825 -1.36822 
14168 2 -1.14613 -0.620228 -0.74989 
3787 1 0.549261 8.10005 -2.92406 
3788 2 3.06479 -0.873669 3.89268 
13025 2 1.76915 3.89729 2.34861 
13026 1 -2.56178 -5.53346 -0.903146 
7239 1 -0.266427 7.54487 0.580106 
14614 1 -1.13938 -5.72593 -0.696665 
7238 2 0.317868 2.62558 2.14515 
16450 1 -4.66442 -1.93232 1.05329 
16452 1 0.723836 2.33635 1.42306 
9045 1 -6.48608 6.30044 5.00958 
18785 2 -0.0693725 -5.84728 0.311482 
16451 2 -0.449309 -0.540647 0.19098 
18784 1 2.10358 -3.58292 -3.94354 
10595 2 5.2695 -1.08225 0.526364 
10596 1 -1.72456 7.07537 4.06718 
10594 1 1.64088 -4.36374 -2.10997 
2167 1 -0.155621 -4.0848 -1.65473 
9044 2 0.769328 2.98344 0.33655 
16366 1 -0.870488 -1.02805 0.65441 
16926 1 -0.15745 4.46267 -0.13323 
16367 2 -0.414656 -0.149066 0.393813 
5940 1 3.51796 4.00378 4.61901 
11327 2 3.69062 1.02223 1.61104 
11326 1 0.22249 -1.28665 -0.752991 
5939 2 2.5792 -0.326874 0.513422 
5337 1 -3.86344 -9.10246 0.554335 
5938 1 -3.46309 1.92245 4.26604 
13479 1 -0.192726 3.16451 1.62585 
13478 2 -2.01288 -3.06633 3.54123 
16368 1 -0.00861971 -4.95606 5.96346 
991 1 5.82747 4.3201 6.16501 
11328 1 0.684574 -1.46487 -5.82646 
992 2 3.60103 -3.41204 -3.52735 
1200 1 0.53861 -0.0240765 4.62546 
1199 2 -0.261994 -0.345796 4.68609 
5809 1 1.35239 -1.44566 -5.04187 
5810 2 1.88101 2.07469 4.86552 
5811 1 -1.47535 -0.0461957 -6.29809 
6648 1 -0.903023 4.75105 -5.67543 
14491 1 -0.897041 4.93251 -1.47944 
17038 1 -5.07666 -0.437239 1.17418 
17616 1 2.79142 0.779441 1.82738 
16804 1 -1.30368 6.18252 1.01794 
14493 1 -8.31314 -1.46914 8.88991 
16805 2 5.6961 -0.706299 -3.06972 
16806 1 5.09506 2.97531 7.58809 
18018 1 6.24132 1.65516 -3.75117 
14492 2 -4.97152 -1.50791 -1.01967 
2805 1 -1.2521 4.4821 -1.51232 
2803 1 -1.84626 3.91146 7.26524 
17614 1 2.25085 -3.18843 0.967446 
17615 2 -0.0351254 -2.65881 -0.344679 
2804 2 1.42558 -2.87453 1.28986 
14615 2 3.60888 -2.06454 0.403546 
14616 1 4.00104 -0.696515 5.5448 
7237 1 -2.8373 -1.11415 -0.820635 
2745 1 3.17929 -4.56846 0.983702 
12136 1 -4.16427 6.32765 -2.22081 
16720 1 4.7863 -0.899304 -0.973534 
16721 2 0.1005 1.63903 2.96441 
16722 1 -1.13945 3.24357 1.35444 
18721 1 -0.646596 -3.18313 6.7673 
18722 2 -1.75068 -0.737896 -1.73007 
2168 2 4.97558 1.38061 -3.25391 
12138 1 6.28998 3.86159 0.862911 
7102 1 -0.130939 0.637846 -2.09688 
12137 2 -4.49177 1.73649 2.43516 
7103 2 -1.3676 -1.47531 -2.04335 
2169 1 -0.169498 3.00139 -3.19603 
7104 1 -0.955017 3.53351 -1.15858 
15148 1 3.93882 4.30576 0.499522 
3610 1 5.17802 -4.07304 1.78759 
3611 2 3.0354 -1.71146 -2.96358 
13477 1 -3.36036 0.120045 0.716833 
993 1 2.34009 0.663186 3.57157 
19046 2 1.57105 -3.63297 4.79981 