ITEM: TIMESTEP
25000000
ITEM: NUMBER OF ATOMS
13173
ITEM: BOX BOUNDS pp pp pp
0.0000000000000000e+00 5.0000000000000000e+01
0.0000000000000000e+00 5.0000000000000000e+01
0.0000000000000000e+00 5.0000000000000000e+01
ITEM: ATOMS id type vx vy vz 
8606 2 2.21242 1.10647 1.03754 
8607 1 -3.44203 -2.10457 -5.47763 
8964 1 0.407721 -3.61578 6.53729 
17997 1 5.0366 -1.39964 1.56817 
17996 3 1.78539 -2.12731 -5.19625 
152 2 -0.526405 -4.14603 4.63724 
151 1 4.4759 -2.50743 -3.04885 
94 1 1.50748 4.41594 -2.34746 
95 3 -0.223735 2.52292 1.24172 
96 1 8.44321 3.24681 -6.36608 
21104 2 1.25945 -1.17677 -0.229001 
17618 3 2.71893 4.15838 0.968439 
17617 1 5.54822 -2.6776 -0.737001 
17619 1 -1.24218 1.82462 4.01263 
9190 1 -0.351649 5.71225 6.23428 
144 1 -2.14345 -0.459788 7.70251 
13765 1 3.10813 -7.48504 1.16949 
143 3 3.3831 -2.00824 2.37105 
1238 2 -7.21737 4.91698 -1.42249 
12342 1 1.70775 -0.134028 -6.43512 
1237 1 3.07104 -1.06119 1.86576 
12341 2 -5.14765 -3.22451 1.3495 
12340 1 0.442144 -3.64285 -0.504086 
8302 1 5.82854 5.78406 3.23801 
7797 1 0.032575 -4.30527 -0.214576 
7796 2 -1.13727 2.379 -0.571063 
7795 1 0.589758 -3.42398 0.458209 
20146 1 -1.91519 -0.0582809 5.28303 
19651 1 3.0535 3.12197 -4.00894 
19652 3 0.839783 1.57472 1.03225 
10871 3 2.2432 -5.45417 2.70672 
10872 1 -5.50471 -3.42787 -3.59568 
10950 1 2.29814 3.09343 6.5338 
10948 1 -0.307045 6.66385 1.18771 
10949 2 -0.0450208 1.91827 -2.58996 
598 1 0.398646 0.400627 -0.437648 
599 3 7.36317 0.624625 1.58683 
18666 1 7.47154 0.355666 2.94071 
18665 3 -3.65527 0.0132319 2.78905 
18664 1 0.21256 -0.248377 6.61569 
10983 1 -5.54722 1.24752 1.17517 
600 1 -3.22467 4.95908 2.35452 
20257 1 2.00552 1.85068 0.345746 
10766 3 -3.78247 -2.14545 -1.31394 
10765 1 -2.02308 0.336537 4.15978 
2472 1 3.54226 -0.120055 0.0235111 
2471 3 -2.68785 0.0952712 0.706684 
21103 1 0.0287364 -3.03599 -6.83529 
21105 1 0.480282 -2.84841 2.66497 
13767 1 3.87164 -0.657353 1.17566 
13766 3 2.6489 -3.87398 1.57895 
1239 1 -0.173908 -1.05847 0.738787 
14836 1 5.09624 -4.00979 0.120553 
3427 1 -1.43225 4.18308 -2.47208 
2935 1 1.38224 -1.5035 -3.56362 
3428 2 0.663944 -2.14883 0.698546 
19653 1 -3.3958 -3.48261 0.323745 
3429 1 -0.655687 0.841692 -1.73773 
7531 1 -1.53886 1.09585 -1.57567 
7533 1 -0.34847 -3.41315 -1.98059 
7532 3 -2.0954 -0.110162 -0.444964 
21582 1 2.00174 1.57863 7.78937 
20258 2 3.65438 1.05949 -5.07899 
20259 1 4.83124 4.7927 8.7384 
20450 3 0.658816 2.07642 1.94574 
20449 1 -6.91027 -3.12249 9.03398 
6558 1 -3.46709 -1.09662 -4.1425 
6557 2 -0.880022 -2.30311 -1.74427 
20451 1 0.377316 -7.0178 -1.61569 
6556 1 2.21949 1.46822 -1.89253 
10767 1 0.718501 -2.78262 2.0511 
2470 1 1.75226 2.80915 -3.84553 
19032 1 -2.69036 -1.71142 1.54407 
6894 1 -6.23762 1.10124 5.30095 
6893 2 0.395691 1.74412 0.923471 
19031 2 -4.79308 5.76045 3.28681 
19030 1 0.526482 -1.19844 7.03485 
6892 1 -1.83175 6.01184 0.617681 
9962 3 -2.35408 4.28268 1.45346 
9961 1 -2.09843 -5.30372 3.47442 
15175 1 1.74284 5.86723 8.80549 
9963 1 1.32453 -5.18112 0.57041 
14838 1 -2.51795 -3.48498 4.74272 
14837 2 -0.292882 2.7104 -4.2259 
2937 1 2.51241 1.74307 1.63566 
2936 2 1.22868 0.230728 1.13717 
17333 2 4.51462 4.37727 3.50652 
16944 1 5.28506 -2.93588 0.883915 
16943 2 -0.831985 4.15903 0.373993 
16942 1 1.88553 0.539619 0.779216 
17334 1 3.75103 -3.63261 -6.49733 
10326 1 2.36064 -3.11724 -2.07174 
11959 1 2.90889 -5.15973 4.02657 
12269 3 -2.33423 -0.634492 -3.97131 
19728 1 -1.63999 -1.40968 -1.19924 
12270 1 2.92925 2.99128 -0.266381 
19727 2 2.76956 -2.20365 -1.8163 
7589 2 -0.282237 -5.93379 2.14168 
7590 1 0.38073 -1.61755 -0.488842 
20595 1 -4.77132 -4.4916 6.10671 
20593 1 -5.26931 0.232449 -0.399206 
14192 2 -1.33093 6.16275 -0.316905 
14193 1 2.89736 0.406633 -1.10718 
20594 2 -1.49143 0.738054 -1.37647 
14191 1 -0.278576 -1.73746 3.38236 
11960 3 0.54398 3.52654 -0.783496 
11961 1 2.53123 1.33686 -1.37248 
12268 1 0.23591 4.61849 0.987643 
7588 1 2.20525 0.354662 -1.40198 
19204 1 3.26493 -3.97005 4.49379 
19205 3 -2.45749 -0.359184 -1.88309 
2219 2 -3.80048 2.9106 0.838708 
2218 1 -2.83708 1.30106 3.52117 
2220 1 -1.44534 -1.082 -1.77731 
17896 1 -6.86315 -1.41069 -6.22809 
9877 1 -4.39683 -7.43268 1.39349 
14632 1 3.42211 -3.62284 -0.897779 
14633 3 1.19202 -0.671708 -2.60113 
8415 1 0.904145 -0.719351 -1.29671 
8414 2 1.54658 -1.22495 1.00261 
8413 1 4.66376 -1.61691 0.927565 
19206 1 3.161 0.73319 2.76921 
10321 1 -7.00729 -2.39557 -5.48436 
10322 3 -2.26663 -3.02226 -0.315744 
6336 1 -1.90898 -1.57716 -3.51659 
6335 2 -3.13494 -1.50832 -2.59063 
5550 1 2.5521 2.77771 1.50092 
5548 1 4.2249 -6.82088 -2.05484 
5549 3 -0.186823 -1.18237 -1.62145 
5979 1 -0.573453 2.14085 1.6614 
11704 1 -2.3004 0.0051863 -0.987889 
5977 1 -5.46747 4.05135 1.15146 
5978 3 -4.51789 -0.237663 0.469311 
17907 1 -0.681438 -1.87606 1.48008 
9675 1 -0.0494898 -1.55202 0.381606 
9674 3 2.28725 6.18673 1.18984 
15600 1 -1.42847 2.37347 1.9773 
19770 1 -4.11043 4.26218 -1.92976 
19769 3 1.13506 2.45277 2.41337 
19768 1 -1.17512 5.47612 4.90076 
18606 1 -1.06864 5.10077 2.73859 
6548 3 6.93466 2.84947 0.398347 
6547 1 4.69549 -1.55353 1.55773 
18604 1 -3.23654 4.22565 6.99006 
1844 3 -0.591896 -1.15579 3.6263 
18605 3 -1.15673 4.50147 2.21601 
1845 1 -3.61207 1.56656 2.46555 
20960 3 -0.706753 2.59927 6.72667 
20961 1 -1.96622 -1.63666 4.42593 
12925 1 0.0792427 0.475855 -5.78407 
12926 3 0.540948 0.198594 -2.52189 
5319 1 -4.03835 0.485423 -0.667888 
5317 1 -1.39758 -1.53815 2.9211 
5318 3 1.1168 -3.5907 -1.66901 
1843 1 -2.51138 -0.691572 0.286599 
9571 1 -0.281513 1.8607 1.00862 
12927 1 -0.87381 -2.14278 1.05927 
12139 1 0.862627 0.0927721 -1.98098 
10923 1 1.57722 3.44754 0.399664 
10922 3 -1.2868 0.45021 -1.77238 
10921 1 -3.38075 2.5389 2.75562 
3535 1 -1.82437 -0.326991 3.44908 
3536 3 2.48335 1.09826 -3.59271 
3537 1 -1.49637 -1.76736 2.9553 
13126 1 -3.7719 0.813002 2.5607 
16543 1 0.0793253 -1.45187 3.52759 
6134 3 -0.318076 -1.39322 -2.59828 
6135 1 -2.27343 6.42529 1.8413 
16544 3 -3.11999 2.87498 -5.39313 
6133 1 1.50221 -0.20262 3.04422 
18883 1 3.43497 0.515198 -1.64284 
18884 3 -2.10989 -3.45366 -1.64037 
18885 1 -3.12229 1.85364 -1.66457 
8865 1 -3.16741 1.48435 -1.6417 
16563 1 -0.382336 -4.39138 -0.848884 
16561 1 1.76215 1.3594 -2.06486 
9997 1 3.32021 1.76562 -3.52537 
16562 2 3.54901 -3.57192 4.35525 
6063 1 -0.485031 -3.65225 0.906901 
7445 3 -0.494611 3.26077 0.639633 
7444 1 -0.558499 -2.48684 -4.62621 
7446 1 2.87343 -4.34154 3.93694 
11486 2 -0.289771 1.10573 -2.88371 
11485 1 -2.70499 -4.70761 5.85905 
8547 1 -5.88467 1.54309 -1.9989 
11487 1 5.80392 6.06194 1.70194 
8545 1 0.275278 -4.45091 4.50193 
18930 1 -2.05002 -2.01563 -2.08289 
8546 2 -3.80365 0.323769 -0.0723729 
18929 2 -1.78971 -0.372216 -1.27522 
13127 2 -0.802262 -2.3551 0.64883 
13128 1 -1.93812 -8.4949 3.90222 
18928 1 1.92544 1.18592 0.438362 
21060 1 5.46687 -2.10643 4.84504 
16545 1 -6.08629 7.40775 2.92889 
16795 1 -2.05038 8.30244 0.910841 
10059 1 2.11772 -2.36617 -4.47718 
10058 2 -3.70853 -0.650134 -1.52965 
10057 1 -0.311112 -4.37316 -2.06474 
16796 3 -0.952365 0.205047 -1.99394 
16797 1 1.00286 -2.26565 -4.89569 
8863 1 -1.17642 -1.07558 4.01119 
8864 3 0.882791 1.74152 0.591211 
14306 2 -5.0431 -3.72192 0.825356 
14307 1 -4.26354 0.873986 -0.0358818 
13290 1 -1.24131 2.55366 3.43168 
13289 2 -1.76892 0.699035 -0.374076 
13288 1 -0.709406 -1.66949 0.37156 
5008 1 6.81057 -4.88918 1.0273 
8605 1 2.56597 4.25824 0.385452 
18714 1 -0.571745 4.42229 0.913752 
16285 1 3.61068 3.29822 2.18614 
16286 2 2.54986 2.07754 1.06544 
942 1 0.311593 -0.0284213 -3.95915 
941 2 -0.322489 -3.16992 -0.044601 
8963 3 1.98607 -0.338815 0.170748 
6239 3 -0.90389 -2.23727 2.04443 
8482 1 -3.20481 -1.15973 -0.178662 
6240 1 -5.2112 3.78782 -0.0461137 
8483 3 2.9204 -2.66632 0.827851 
8484 1 -1.16707 -2.10604 -4.25185 
8962 1 5.46474 2.35346 0.510873 
17995 1 -0.731564 -1.32443 3.97132 
1710 1 1.13952 4.6981 -4.70699 
6754 1 -1.00948 -0.730936 0.670219 
6755 3 0.149689 0.207763 -3.32827 
6756 1 5.86054 3.09185 -0.0993675 
7528 1 -5.53136 3.05474 -2.84385 
2311 1 -1.99301 -2.4569 -3.86989 
2312 3 -4.75146 3.02008 3.49473 
15586 1 -2.32628 -2.30455 2.74395 
15587 3 -2.12279 -1.38013 -0.246017 
2313 1 -0.772729 -5.70003 -2.85461 
7530 1 3.22338 -2.97339 7.37149 
11344 1 4.49427 -1.75356 -1.41778 
11346 1 5.24039 4.25277 -0.0893001 
11345 2 -2.28975 4.45601 -1.55173 
8694 1 -4.98778 4.63436 -1.58593 
8692 1 -0.761459 5.8 -3.27704 
13416 1 1.55266 8.99715 1.57647 
8693 2 -2.8549 -2.76547 -3.35274 
13415 3 -0.183084 0.0851918 3.09319 
13414 1 -3.11052 -3.30964 0.840552 
9191 3 1.23873 1.05847 -0.316025 
9192 1 -1.42255 -1.80367 1.39489 
8303 2 1.83435 -2.07435 2.362 
8304 1 1.94586 2.18298 0.357072 
153 1 -4.76494 -5.59125 1.8082 
529 1 -0.825877 3.23506 -7.89757 
7529 2 -2.20102 0.937772 1.28359 
16359 1 0.223946 2.63746 3.60625 
142 1 -3.58976 -1.08504 -2.65232 
16357 1 1.82559 -1.5545 1.23874 
16358 3 -2.01714 1.98903 0.810978 
13330 1 1.326 -0.605721 -0.557853 
11304 1 -1.82235 -0.678649 1.5386 
13331 2 -0.898345 -1.23563 -0.52391 
13332 1 -5.09294 1.4616 -0.154067 
11303 2 3.14437 -1.51182 -3.82416 
5716 1 -1.69598 -2.49886 1.79145 
5717 2 1.62725 0.852921 4.64935 
5718 1 6.84168 -3.01442 -4.10046 
17415 1 3.01223 5.63014 2.98678 
10870 1 0.642108 -1.47713 -0.0295715 
17414 2 -0.194626 -4.20095 2.60935 
19618 1 0.503897 -2.64238 -4.08854 
11302 1 -3.04285 -1.64142 -4.74512 
15177 1 -4.69664 -0.0198227 -3.50334 
13246 1 4.86001 -1.92103 -1.88395 
13247 3 1.54413 -0.771682 1.20786 
13248 1 1.99051 -6.05184 -2.74787 
17413 1 4.63035 4.66968 4.93757 
21580 1 -1.14964 -0.793211 1.06006 
21581 2 0.753926 -0.942851 -1.30502 
19619 2 3.66656 1.39676 0.509762 
19620 1 -2.73782 -0.526308 1.93856 
1524 1 2.75182 -1.26982 -3.64386 
1523 2 1.5961 0.548602 0.064584 
15176 2 -1.5934 -4.60608 -0.156995 
9645 1 1.47595 -2.75049 -4.72949 
717 1 -0.683389 3.09289 1.65384 
3154 1 0.421555 -1.24641 -1.30397 
715 1 -0.0196601 1.70683 -2.46423 
716 3 -2.00697 2.2522 1.32376 
736 1 -0.555613 -2.04637 -0.340971 
4190 2 3.89359 2.30726 0.757292 
4189 1 3.04579 3.57217 -2.13445 
4191 1 -2.47821 -7.29689 1.17636 
9644 3 0.750613 0.289065 -0.72697 
17332 1 1.41071 -3.05452 0.884059 
9643 1 0.611117 7.2147 2.00044 
13780 1 -2.81243 -4.81949 -1.3752 
13781 2 0.483155 -1.30914 -3.28302 
20690 3 1.07915 -0.510912 2.27303 
20689 1 -0.936813 2.11127 4.62465 
18942 1 -1.69925 1.96579 3.86207 
20691 1 1.69314 0.760923 2.09224 
13782 1 -5.75153 -5.63971 2.24319 
15374 3 0.443139 0.798508 -3.73009 
15373 1 -5.92873 1.59513 4.82054 
15375 1 0.539065 -1.08745 -3.91667 
12874 1 1.7756 -1.21507 -4.77946 
12876 1 -5.25222 6.41672 -0.594859 
12875 2 1.01357 -0.605113 1.59613 
5657 3 -4.60285 -3.71183 0.186109 
5658 1 3.89617 -1.66461 3.69083 
770 2 2.82007 -3.92276 1.39933 
769 1 2.08365 5.84847 2.56448 
20530 1 2.91343 0.601269 2.38941 
19710 1 -3.72936 3.00845 -6.16723 
20531 3 -1.37074 5.8849 -2.92608 
20532 1 4.70403 1.87542 1.25737 
19446 1 -1.52689 6.74562 1.11467 
14634 1 2.05493 -0.339819 2.45174 
19445 3 -0.363275 0.18784 0.532311 
5268 1 6.54954 -0.0609683 -2.40328 
5266 1 8.26686 2.37336 4.68705 
5267 2 -1.35446 -2.49556 1.3321 
9867 1 6.25197 -1.18126 0.232293 
9865 1 -0.987982 0.133007 0.888018 
9866 3 1.12198 -2.45154 1.38211 
14421 1 -3.46295 3.41387 -0.145525 
14420 2 1.02826 1.19299 -3.18328 
14419 1 2.57454 -0.210775 -2.9882 
6670 1 -4.5538 -1.55812 0.198697 
6671 2 -0.300697 -4.69183 -0.291828 
17905 1 -1.74647 -6.39587 -5.30207 
17906 2 -1.36396 -1.65968 0.77389 
19444 1 0.244103 1.99593 5.3427 
19681 1 -5.9062 2.64183 -0.514581 
19683 1 3.52096 2.00696 3.29982 
19682 3 -3.11189 -0.839103 -0.457087 
6549 1 5.16599 0.780808 1.55255 
20959 1 2.85868 1.94697 1.62876 
14597 2 -0.0832279 -2.92266 -2.92533 
14598 1 3.42829 1.30074 -3.03738 
4078 1 -2.57199 -2.38122 -1.45863 
4079 3 0.366139 0.256284 -1.51624 
16278 1 6.88231 1.57402 -4.04452 
12141 1 -1.21974 1.07431 1.3741 
12140 2 3.3854 3.10717 -3.61049 
14004 1 3.03872 -2.92504 -1.3344 
14037 1 2.56832 2.0857 -4.95606 
14003 2 1.73925 0.830802 3.14603 
14002 1 -0.349055 2.5801 -3.50137 
5525 3 -1.13238 -1.21068 -0.879509 
5526 1 3.08425 0.420569 5.07928 
5524 1 -0.975938 -5.78542 -0.526833 
4080 1 -1.95954 -1.61012 6.3545 
10890 1 -3.0884 0.0893271 0.328451 
10889 3 -0.909761 4.28071 -1.75597 
10888 1 -0.794076 -3.85585 -1.70988 
13317 1 -6.80266 1.23088 -3.96046 
14035 1 -2.46531 3.33138 3.94514 
14036 3 1.91815 3.33349 -1.77709 
19306 1 -0.27464 2.29896 0.288531 
19308 1 6.15749 2.98251 -0.708484 
19307 3 1.82961 -0.344613 -1.20015 
7183 1 -5.53385 -0.934782 -2.85105 
7184 3 -2.53435 2.32973 2.47365 
1245 1 2.8723 -3.971 -2.64022 
6062 3 -1.373 -1.74624 -2.07284 
3556 1 -1.15332 -2.63445 -2.51372 
3557 3 -0.122601 -0.789685 1.14813 
3558 1 0.310529 2.00941 6.24936 
14543 3 -2.76329 -0.932495 -3.30067 
14544 1 -4.05991 -1.7346 2.35027 
21058 1 -8.05285 -0.780331 7.5979 
1243 1 2.47786 -6.0535 0.354161 
1244 2 -0.0933109 -0.67981 -2.43135 
21059 2 4.78184 1.84941 0.468193 
20375 3 -0.0947837 4.87054 4.97876 
20376 1 -0.838735 0.790283 2.07169 
6061 1 -0.0299288 3.96837 -6.01962 
16909 1 -7.68941 -4.4587 -0.785712 
16241 2 0.513683 -0.0549769 -1.47893 
16242 1 -1.26912 -0.839211 4.14246 
6618 1 3.68999 -6.97177 3.36323 
16240 1 -4.98877 -5.41476 9.73996 
6617 2 3.53399 2.65214 0.45741 
6616 1 -1.87763 -0.810324 0.436377 
20205 1 0.87297 -5.92194 5.5676 
13874 2 -0.542157 -0.423391 1.83483 
13873 1 3.9128 8.63287 -1.42742 
13875 1 0.85933 0.760028 -2.37584 
5474 2 1.78 -2.76604 2.73698 
5475 1 3.19852 0.460927 3.58911 
5473 1 -6.27655 5.51095 -0.713308 
17167 1 4.86635 0.727767 -3.65798 
17168 3 -1.82425 2.74269 2.58962 
17169 1 -1.64556 0.0817602 -0.947337 
18670 1 1.31847 -3.78375 -2.23815 
17563 1 1.79485 0.448897 0.540848 
17565 1 0.825533 -2.40957 -1.21611 
17564 2 -4.54733 -2.82012 0.546918 
14449 1 -1.36116 -2.97224 -2.77637 
7781 3 2.92401 -0.480686 -4.43421 
7782 1 5.26534 -3.0528 2.41549 
7780 1 2.26693 -2.29223 -1.62075 
11049 1 -6.99848 8.1902 1.62342 
11048 3 1.8644 -4.38357 -0.109866 
21410 3 -1.27653 -4.53094 1.6993 
21409 1 -3.06672 0.206797 7.45169 
530 3 1.88905 -1.94328 -1.04182 
21411 1 -1.10562 3.66968 3.25038 
531 1 4.37652 -2.84326 -1.73699 
6642 1 -2.87743 -0.696483 0.0719639 
6640 1 0.907086 -4.4645 3.52383 
6641 2 -0.0929874 -1.84452 2.43179 
5726 2 -0.250198 -1.23305 -2.82521 
20903 3 -4.08232 0.528209 2.0296 
20904 1 -5.27115 -4.19038 0.887102 
20902 1 0.665411 -2.40139 1.84529 
18672 1 0.933048 -0.352062 6.23144 
18671 3 0.916215 3.87323 5.24978 
14451 1 -1.25785 0.359771 -0.328706 
14450 3 -0.163945 -4.47927 1.31583 
5917 1 2.54596 1.00387 -2.00428 
5918 2 -0.065218 2.75692 4.29246 
8784 1 -4.19925 0.685087 4.67698 
1992 1 -7.55484 2.51476 -0.463195 
5727 1 -2.39012 -3.44612 4.17365 
5725 1 6.2558 -0.624089 5.17796 
18944 3 -1.04939 3.55902 -1.59488 
18945 1 -3.67248 5.10849 -6.28692 
8782 1 0.874637 0.67655 -8.33557 
8783 3 -2.50759 -0.683363 -3.56566 
1991 3 0.0816146 2.35824 4.55022 
17556 1 -5.07366 1.37754 -0.796465 
1990 1 -0.610644 2.2183 4.00455 
3233 2 5.1555 0.343758 3.21833 
3232 1 5.16921 -2.01558 3.65616 
1522 1 -0.475339 -2.08889 4.71903 
18943 1 3.43297 -3.17418 -2.20602 
11874 1 0.836506 -3.56598 0.609611 
11873 2 -3.36019 -1.41238 -1.36232 
1405 1 2.26777 -2.29793 -0.765162 
1406 2 1.31967 2.69189 0.311278 
1407 1 -1.32516 -9.83279 -1.12091 
3156 1 -1.51354 3.03448 7.19063 
3155 3 0.777311 2.84678 -0.639519 
8122 1 -1.74306 -0.148538 1.65146 
20569 1 3.58435 4.14436 5.06 
20571 1 -2.58853 -0.00310056 -0.667275 
20570 2 -1.68245 0.591948 4.68622 
8124 1 -3.54059 2.24727 0.861477 
8123 2 -0.140716 5.94551 -1.40703 
737 2 -4.61661 -2.55725 -2.4063 
13630 1 -1.66868 -2.76251 -1.67129 
738 1 -3.16155 -4.67297 -2.84551 
8295 1 1.61233 -4.1488 -0.0616827 
8294 2 1.9341 1.55642 -1.59669 
8293 1 -0.300627 -2.37307 -4.80992 
10990 1 -3.49383 3.22351 -1.5666 
11872 1 4.25542 -0.95923 0.916064 
13631 3 -3.12719 0.691931 -5.6817 
13632 1 -1.61947 1.6027 2.0742 
4417 1 -2.91766 5.11501 2.9691 
4418 3 -0.0637981 2.02405 -0.439336 
18941 3 1.76452 -1.3773 2.68803 
18940 1 -3.36243 -1.81878 1.58838 
13617 1 -0.850207 -6.21671 -1.77181 
13616 2 1.54138 0.90001 -4.76756 
4519 1 -1.91455 -2.6595 -0.0771238 
4520 3 2.36669 -0.463616 3.13247 
16611 1 -1.70535 3.13584 0.619237 
16740 1 -1.79556 2.57443 2.83803 
16738 1 0.919194 -7.8481 -0.291788 
16739 3 2.08585 -0.0279633 -2.33035 
16610 2 -0.372264 2.77249 -1.01149 
16609 1 2.57903 4.3253 -4.66659 
470 2 -1.13545 3.09852 1.89121 
16330 1 -0.377385 1.77917 0.665078 
469 1 -2.22086 6.64913 1.19291 
471 1 -2.02121 -2.0642 0.938264 
16331 2 -0.46015 1.37115 0.523032 
16332 1 5.06156 0.965783 0.388014 
20750 3 3.86499 -0.854089 2.15881 
5086 1 -6.04974 -8.06443 1.49899 
20751 1 -4.31331 1.98835 -3.95574 
20749 1 -1.60603 0.286444 -0.0145333 
5087 3 3.16793 -0.469061 -0.236475 
20261 2 -0.38307 -5.4506 0.84605 
20262 1 -1.72055 2.09602 -1.3686 
20260 1 3.70192 5.1899 -0.393024 
11536 1 1.73931 -3.74131 2.21676 
11537 3 -0.864569 0.330615 -3.16543 
11538 1 -1.36976 -0.0657508 -1.5131 
1938 1 0.408335 -0.527984 1.51504 
1936 1 -4.87818 2.8972 4.02679 
1937 2 -0.219497 2.22814 0.777407 
14862 1 -4.11814 -0.696702 2.81254 
14861 2 2.1849 2.30258 -2.02128 
16048 1 2.46854 -3.07547 -0.68078 
4161 1 5.06026 -1.13054 2.18275 
16050 1 5.13384 -4.62415 0.824136 
5656 1 -1.89031 -1.19819 -2.5639 
16049 2 -0.423753 -1.69048 -0.694432 
4160 2 -0.458135 -1.48609 6.8287 
771 1 -2.196 0.762513 5.2478 
3739 1 -4.70299 3.39423 5.82145 
3740 2 -0.178855 2.36886 2.46546 
3741 1 0.405774 1.62149 11.9916 
2464 1 7.44986 -4.82347 -6.49448 
2465 2 -3.76523 1.32413 0.0405909 
2466 1 -0.353896 -5.67163 1.75435 
2145 1 3.92564 4.01441 -0.224692 
2143 1 1.14683 -5.72108 -4.27582 
2144 3 2.27164 5.37176 0.481997 
20989 1 2.90703 2.99175 5.14763 
19708 1 2.25763 0.390374 -0.633589 
19709 3 2.28064 -2.88697 -1.54357 
5088 1 5.21434 -4.86963 -4.90353 
20990 2 -2.4356 1.0993 -2.30536 
20991 1 -0.180203 -3.54609 -0.733287 
3372 1 3.43423 0.955822 6.74492 
3371 3 -1.33312 2.76024 1.52429 
16421 2 -1.69903 0.750107 -0.440889 
16420 1 0.456933 -1.44477 -1.38207 
19026 1 2.67137 -2.70861 1.01975 
19025 2 0.595578 1.25739 1.04122 
17805 1 8.51332 0.228271 -4.12593 
7073 2 2.35184 -0.700958 0.369276 
7072 1 4.2595 -2.73873 -5.48293 
7074 1 -5.43217 0.675773 -0.622511 
13735 1 1.20724 1.63308 -1.47721 
13736 2 2.14511 -0.149555 -1.41128 
13472 2 -1.06907 -1.78601 2.82542 
13471 1 5.01436 1.63768 -0.855482 
6672 1 -3.22929 -0.59245 0.0712425 
17644 1 -1.08137 -5.51574 4.87751 
17645 3 1.67593 -1.67568 -1.47617 
17646 1 -2.32846 -0.197609 1.91897 
1486 1 1.55516 1.68235 -1.70975 
2430 1 0.941246 -4.30381 0.943826 
1487 2 0.795681 -4.35797 4.48712 
2428 1 -3.20552 -4.51365 1.26613 
2429 2 -0.236159 -0.456641 1.44656 
1488 1 -0.569947 -4.05289 -1.82452 
5543 3 -0.886611 -0.266527 2.219 
5544 1 -1.25568 1.32002 1.95016 
5542 1 -0.310251 0.179641 0.893664 
5191 1 1.99715 -11.8553 -0.696746 
3370 1 0.394183 0.0123041 1.23117 
5192 2 3.01385 2.79031 -0.419657 
18245 2 1.85668 -4.13833 -1.67523 
5193 1 -0.83178 1.39486 -0.145901 
18244 1 -1.59471 -2.60404 -1.44038 
19024 1 -2.81841 -3.04982 1.82059 
17804 2 2.13532 -0.940201 -0.363208 
17803 1 -3.1148 5.33614 1.04044 
5053 1 -2.29345 -1.13339 -2.90956 
15259 1 -0.656062 0.0747774 1.60886 
19719 1 0.66438 -2.01988 4.48956 
19718 3 -0.864452 3.45485 -0.702495 
7137 1 -2.87675 -1.61215 -0.712673 
14596 1 2.92839 -0.00408168 -0.677013 
7136 2 2.67549 -0.671831 1.40664 
7135 1 2.81231 1.94653 -4.43785 
413 2 0.222669 3.94461 2.79133 
412 1 -5.69979 -4.5079 0.00973225 
18246 1 -0.226214 3.2198 2.78664 
414 1 -5.57269 6.45708 -0.522694 
5055 1 -1.10905 -4.52853 -4.0249 
5054 2 -0.256251 6.63787 1.43303 
11693 3 -1.82576 -3.23063 -1.7372 
11694 1 -0.643222 -2.37804 1.74609 
11692 1 -5.2863 -0.955962 -3.39361 
3590 2 -1.4309 -0.652239 1.0104 
3591 1 3.81718 -3.34568 4.33322 
3589 1 -4.39745 -2.01971 -8.5066 
19717 1 -0.764372 -3.90032 -1.52735 
18288 1 0.0292846 -2.9021 -2.46207 
16277 2 -3.51947 1.92614 0.248222 
16276 1 4.77423 -2.14653 1.86384 
16954 1 -1.65219 -6.79994 1.18458 
16955 3 0.265912 6.5763 -2.13058 
16956 1 -1.20832 4.85647 -0.900016 
13316 3 -0.332489 -4.46792 -1.2706 
13723 1 2.94364 -3.51952 -0.934383 
13315 1 -0.623029 -0.952675 2.9171 
18286 1 -3.18981 0.117309 3.98005 
18619 1 1.11357 -4.40023 -2.89482 
18620 3 0.299252 -4.39521 -0.154344 
13725 1 3.01554 1.79319 3.72009 
2497 1 4.59642 3.62 0.0790678 
2498 3 -3.48607 -0.64632 -3.52879 
13724 3 -4.23214 -2.68654 -3.63602 
18287 3 -3.0455 1.72546 3.21765 
18621 1 -2.88534 3.65449 -4.68344 
20499 1 4.99506 -2.14043 6.25694 
20498 3 -0.980426 1.44009 3.43464 
4231 1 -4.2292 -0.406126 0.382156 
20497 1 -1.79509 3.37474 4.72915 
4232 3 1.12455 -1.58032 -4.79136 
4233 1 1.64849 2.54299 0.353076 
7185 1 -0.48368 1.82455 4.38598 
12636 1 6.14188 -6.24232 1.79135 
2710 1 -6.48855 -1.85223 5.14675 
14626 1 5.63441 0.81243 5.51419 
14627 3 2.3365 -1.44486 1.16026 
14628 1 -1.95908 6.66588 0.444975 
10398 1 1.83463 -3.02526 0.658138 
2499 1 6.29591 5.21486 5.08727 
10397 3 -2.77999 -1.23273 -0.702003 
10396 1 4.18461 6.47646 1.79748 
18447 1 0.207326 -5.27468 -6.14313 
18446 2 -1.04496 -1.70516 0.785452 
18445 1 3.68987 -2.15578 2.84713 
10281 1 0.557808 -6.33778 -4.08815 
14542 1 2.86275 2.67209 2.9976 
19138 1 -0.761747 -2.266 3.45797 
19140 1 4.65137 3.92735 -5.60569 
19139 3 -1.9779 0.0230388 -6.24485 
20374 1 -1.25792 -4.08751 -4.26175 
9523 1 -1.91398 3.84647 1.92785 
9524 3 3.96171 2.30637 -2.05121 
9525 1 -3.82156 0.0296005 -4.94986 
2711 3 0.238044 -0.485572 -0.994034 
10279 1 2.72156 8.16684 4.3165 
10280 3 1.33235 -5.26537 0.610872 
7133 3 1.51981 1.30775 0.770677 
7134 1 3.53052 -3.21736 -3.63292 
9115 1 0.0508459 -0.265064 -3.36112 
17455 1 0.278027 -0.481713 1.6177 
7132 1 9.11343 4.62907 -1.18247 
9116 2 1.37116 -5.02348 5.1485 
9117 1 0.596434 4.64644 4.61329 
20203 1 4.59599 -3.10659 -2.50565 
20204 3 -2.06099 1.44515 6.4911 
3176 3 -0.586854 -0.797079 -2.87159 
2932 1 3.5203 0.806138 0.488413 
3175 1 -2.23801 3.57553 -0.283396 
14647 1 -6.01796 2.36238 5.65716 
11323 1 2.88488 -2.01296 1.62188 
14648 2 -2.10498 -1.13102 4.38805 
11324 2 0.0798405 1.52785 2.11371 
14649 1 0.449334 1.75462 0.874825 
10487 3 1.46426 0.508352 -2.02941 
10488 1 -7.5099 -3.83842 -0.738531 
14780 2 -1.54226 1.99319 -6.16523 
14781 1 4.59813 -0.892778 2.10963 
10089 1 -1.94037 2.46469 -0.291707 
10087 1 -0.692052 4.89932 -6.22778 
10088 3 1.00582 -0.151405 0.384832 
2934 1 4.22447 1.4578 3.00914 
2933 2 3.99942 0.682968 3.1223 
11325 1 3.0994 -1.01024 4.66489 
11478 1 -2.82291 3.12029 0.642189 
11476 1 0.0604747 1.36143 -0.80312 
11477 3 1.39591 0.0104567 -4.06796 
18498 1 3.03933 2.87296 -6.12705 
18497 3 -4.26859 3.05153 1.3621 
18496 1 -3.11394 -0.0127714 2.73515 
7944 1 5.65403 -5.19008 3.38433 
7943 2 -0.770815 -0.16843 -2.90327 
7942 1 -2.75866 -1.01602 -3.76877 
3841 1 2.30208 -4.66175 -2.07155 
3843 1 2.44295 -5.69517 -1.02784 
3842 2 3.74302 -1.01638 3.02302 
11047 1 6.57863 -3.01683 -0.621806 
6083 3 2.0632 1.90297 2.17194 
6082 1 -3.33014 -2.58379 2.30439 
6084 1 2.32272 -5.46376 4.87545 
9799 1 4.49519 4.61877 0.161661 
5669 2 -0.465052 3.652 0.570069 
19591 1 8.37967 2.36872 -2.23555 
5670 1 2.18842 -2.76336 -2.70486 
20441 2 -0.121677 2.50584 0.415574 
20440 1 -3.88935 -1.29863 -1.86404 
5668 1 1.92384 3.03307 -2.03746 
5796 1 -0.934623 -3.27339 0.41206 
5795 3 -1.08538 1.97167 -6.12373 
5794 1 -5.2019 4.23142 2.85183 
12633 1 1.75848 3.66688 4.65416 
12632 2 -2.78631 2.00742 3.46144 
12631 1 -2.83895 0.913092 -5.37247 
9926 3 0.164925 5.19769 -3.07091 
9927 1 3.54576 2.80441 -4.4089 
3658 1 -2.09055 0.930614 1.7933 
3660 1 0.454126 4.53398 -3.35392 
5919 1 -2.93002 3.52529 3.25466 
3659 3 -2.20395 -1.71306 1.34469 
16198 1 3.31413 2.46529 1.56289 
16200 1 3.1154 0.277173 -0.953425 
16199 3 2.33594 -1.75958 -2.18397 
10841 2 2.7036 5.76498 -4.96454 
10840 1 0.770571 0.0636961 -3.43095 
10842 1 -2.07184 2.14575 -2.91718 
16953 1 0.581062 0.336761 -4.26468 
19592 2 0.777453 -1.78219 0.686168 
19593 1 0.223574 2.82409 4.08107 
19531 1 0.173737 4.84939 1.41998 
19532 2 -2.27524 -1.45864 -2.66159 
16489 1 -2.25256 -2.63106 2.40232 
16490 2 -2.91489 1.11025 -1.63659 
16491 1 1.4304 1.84093 1.33169 
9925 1 0.540835 0.542341 2.1645 
16092 1 2.74546 4.74957 -5.38734 
6482 3 -1.79078 -0.578003 -2.55623 
6483 1 -1.64812 1.01851 5.73412 
16091 3 -2.35344 -5.68736 1.91229 
16090 1 -0.373823 7.83064 -1.92891 
6481 1 5.12005 3.10757 4.04541 
16951 1 4.13056 -1.73697 9.23562 
9022 1 2.02549 -3.9452 4.46266 
9023 2 3.97166 -1.97987 -2.19796 
9024 1 -2.7267 -1.51176 -0.390688 
19533 1 -0.0753227 0.627539 -4.48749 
20283 1 -1.4378 -4.23794 -1.25134 
20282 3 -2.62 4.64155 -0.919871 
20281 1 0.0818896 0.319571 -3.95302 
14974 1 -2.08109 1.12108 -0.727288 
14975 3 0.4844 0.864419 1.44613 
17555 2 0.492229 -3.1706 0.599459 
17554 1 -1.1693 -1.34336 0.317462 
3234 1 -1.48286 -5.75657 0.0907235 
19658 2 -0.170819 3.2303 -0.124568 
19657 1 -2.68952 5.2381 6.60645 
8056 1 4.93185 3.49709 -0.279538 
8057 3 -1.35915 3.10383 1.02109 
8058 1 5.92718 2.09374 5.56131 
8340 1 4.93697 -2.11006 -2.80449 
8339 3 -0.412718 0.791103 -2.97243 
6419 3 -3.77461 2.46788 6.41347 
6418 1 4.10608 0.984933 2.16995 
6420 1 6.04342 -2.40831 -1.68017 
13795 1 -7.23178 -4.15279 0.679439 
13796 3 0.345234 1.57011 0.382051 
17639 2 -1.79457 6.01019 -2.87286 
17640 1 0.829669 1.67034 -4.13296 
13797 1 -2.40987 -5.2113 -5.28942 
17638 1 -7.25834 -4.00341 2.26295 
17068 1 2.39858 5.13324 2.80158 
17069 2 0.406008 -4.30911 1.1157 
17070 1 8.82831 -3.21604 1.78974 
20130 1 4.57489 3.4843 -1.96938 
20128 1 -5.43714 5.07037 -4.39278 
20129 3 0.0800506 0.345198 -0.372178 
19659 1 -2.87683 -2.67775 -3.39254 
13515 1 -3.76937 -5.10502 -1.44612 
2754 1 -1.51948 3.46984 4.47677 
10991 3 -0.300537 2.66559 0.156121 
10992 1 -1.82229 0.719126 -1.23976 
15654 1 0.818734 1.77245 -1.72863 
15653 3 1.24276 3.76353 -0.867283 
6861 1 -0.95993 -4.74479 4.34477 
15652 1 1.68579 0.418818 -5.81928 
6860 3 -2.05151 1.40692 -0.488864 
6859 1 0.698275 1.25709 -4.22382 
1732 1 -1.46022 -4.73919 3.46153 
1002 1 1.24485 -6.57859 -2.13191 
1734 1 0.217977 2.65841 2.81358 
1733 3 -1.50764 0.746878 -2.64485 
4419 1 -1.48255 1.75065 5.17396 
7849 1 0.20932 0.639272 6.42188 
7850 2 -1.2124 6.00442 1.57897 
7851 1 -1.80184 4.86346 0.474459 
2551 1 -1.34313 -3.08434 -0.769182 
2552 3 1.1759 -0.571006 -1.08078 
19152 1 -2.59659 1.54235 8.02381 
2553 1 3.00344 1.68356 -4.12249 
13615 1 -0.575639 0.861399 3.24375 
4521 1 0.768519 -5.98635 -1.64069 
3247 1 1.0507 -5.12033 1.75853 
74 3 -3.03439 2.234 0.988062 
73 1 5.42968 1.15451 -2.31454 
75 1 -6.34016 2.55697 0.592805 
1750 1 0.752818 0.743357 4.12281 
19150 1 2.93128 3.97669 4.30423 
19151 3 6.76817 1.90974 -4.36521 
2968 1 1.95366 -0.789447 -1.63429 
2969 2 0.879246 -1.38646 4.3194 
14860 1 0.400158 3.9357 0.74064 
4159 1 -3.74121 -0.504137 -4.53188 
16422 1 1.65435 0.0570944 3.60686 
9825 1 -0.394348 7.44576 1.31033 
2575 1 1.69213 0.951773 -1.39394 
9824 3 0.805248 1.3095 -0.684536 
9823 1 -3.21466 6.47149 -1.94367 
13737 1 -1.35675 -1.2484 -1.06604 
1284 1 1.21824 -3.67032 6.61075 
1283 3 -0.562344 -4.34381 0.173234 
1282 1 -1.36126 -2.2133 2.53627 
17496 1 -4.38869 -4.09025 2.00215 
17495 2 2.32435 -2.72444 -3.27243 
2970 1 0.920197 4.82929 5.02996 
13473 1 9.7991 2.15636 0.590915 
15260 2 2.62834 -2.0504 2.07948 
10552 1 2.44955 -0.696595 0.596247 
10553 2 -0.0295032 -2.18659 -0.524529 
7010 3 -4.72972 3.57472 4.08985 
11249 2 -4.68424 1.43218 -1.36012 
11248 1 -2.05506 0.0351111 1.26599 
11250 1 0.319379 1.52301 -4.26689 
6021 1 3.46598 2.23881 3.86255 
6020 2 1.02377 2.81828 1.39755 
15261 1 2.9075 3.75334 1.15625 
18352 1 -7.06577 -8.94242 -1.12356 
10554 1 -2.38703 4.28309 1.14669 
18354 1 -0.0330783 -5.80356 4.38774 
18353 3 3.5278 4.65915 3.95772 
6213 1 -5.49291 3.06416 -4.366 
21493 1 2.46581 -2.45809 6.76705 
21494 3 4.02379 -1.55753 2.08056 
21495 1 4.14036 0.387558 2.55065 
21109 1 -5.52035 -5.94892 -0.129239 
21110 3 3.37351 1.88509 -0.606448 
6699 1 -1.32152 -1.92605 3.14545 
21111 1 -1.29476 3.66322 -1.7696 
9626 2 4.25106 -0.822532 -1.09987 
17939 3 -1.71863 -3.01627 -2.59345 
9625 1 6.89264 -4.28088 -4.03194 
17938 1 -6.28195 -3.92354 6.77947 
18947 2 0.0542926 -0.538827 3.4498 
18946 1 9.33455 0.749843 1.60465 
20861 3 -2.14587 -0.941582 -4.09862 
20860 1 0.805365 1.92341 -4.19152 
7159 1 1.28345 -3.61053 2.54784 
7161 1 4.16825 1.08978 5.43628 
7160 3 -1.02823 3.46348 -2.21181 
6698 2 -0.293747 3.4925 1.60567 
6697 1 1.12099 -2.69409 4.75003 
16518 1 0.265445 4.54836 -2.51684 
16517 3 -0.0160739 0.345156 -2.03302 
16516 1 0.975043 -2.63648 2.86245 
17940 1 -0.644095 2.64757 -3.37021 
12634 1 -5.68606 -2.19295 -0.171129 
12635 3 -7.15027 -0.0327779 -0.555452 
18948 1 -1.98338 -2.37706 -5.97952 
7692 1 1.01821 5.20755 -2.06616 
7691 3 -2.09883 -0.704297 -0.540543 
18777 1 -1.89808 2.39334 -2.8284 
20398 1 1.60877 -2.98518 4.38555 
18776 3 -0.905769 -0.0221887 -3.221 
20399 3 -8.40555 3.98705 -1.07773 
20400 1 4.44046 -0.198583 4.60742 
7324 1 3.20024 0.11211 8.74038 
21079 1 3.70646 1.87601 2.39088 
21080 3 6.94174 -0.153597 4.03775 
2712 1 6.06015 -2.17718 -5.27223 
21081 1 4.84481 -5.46169 5.38049 
14210 3 -1.88738 -0.836061 1.77576 
14209 1 2.23084 5.91894 0.286377 
7784 2 3.51018 2.971 2.69783 
7783 1 3.74456 -4.212 -3.13235 
7785 1 -3.02073 -3.45663 3.32683 
19526 2 0.943488 -2.59848 -1.06518 
19525 1 1.21978 -2.78884 5.97891 
19527 1 0.119897 3.87216 -3.58179 
9324 1 -5.32494 7.53896 4.48465 
14371 1 -4.49561 -0.0667613 0.821134 
18775 1 -0.847283 -3.0531 2.19623 
17782 1 0.421002 -0.352175 -2.12692 
18603 1 -9.08057 -3.67572 -4.99247 
18602 3 1.37516 -2.53943 0.680185 
5370 1 5.57998 0.790468 -1.37336 
5369 3 2.23758 0.791619 -1.00028 
3177 1 -0.262728 -0.0110655 4.80973 
10162 1 3.26692 7.1413 4.50469 
10163 3 1.37765 0.0667338 -1.48651 
10164 1 5.59338 4.67488 -3.69618 