ITEM: TIMESTEP
25000000
ITEM: NUMBER OF ENTRIES
815
ITEM: BOX BOUNDS pp pp pp
0 50
0 50
0 50
ITEM: ENTRIES c_binfo[1] c_binfo[2] c_binfo[3] 
2 15722 15723 
1 15675 15723 
2 15674 15675 
2 6085 6086 
2 15673 15674 
1 15673 15801 
2 6086 6087 
2 19424 19425 
2 19423 19424 
3 2372 2373 
2 14455 14456 
1 14455 19423 
2 14456 14457 
1 2373 14457 
3 15824 15825 
3 15823 15824 
3 10886 10887 
2 15721 15722 
2 11350 11351 
1 11350 21120 
2 11351 11352 
2 8584 8585 
1 8584 11352 
2 21119 21120 
1 10359 12573 
2 15800 15801 
2 10357 10358 
1 7869 10357 
2 15799 15800 
1 15799 18088 
2 18088 18089 
2 18089 18090 
2 10358 10359 
2 7868 7869 
2 13162 13163 
1 13164 19425 
2 1831 1832 
1 1831 21282 
2 1832 1833 
2 12572 12573 
2 21281 21282 
2 21280 21281 
1 1623 18066 
2 18065 18066 
2 1622 1623 
2 1621 1622 
1 1621 11565 
3 10885 10886 
2 5728 5729 
1 5728 10885 
2 5729 5730 
2 5675 5676 
2 14965 14966 
2 14966 14967 
2 12599 12600 
2 12598 12599 
1 12598 14965 
2 4250 4251 
1 12600 15511 
2 4657 4658 
1 4657 5674 
2 5674 5675 
2 4658 4659 
2 7867 7868 
2 4249 4250 
1 4249 7867 
1 8217 9318 
2 9316 9317 
2 9317 9318 
2 8216 8217 
2 8215 8216 
2 6872 6873 
2 6871 6872 
2 757 758 
1 757 6871 
2 21178 21179 
1 1833 8215 
2 758 759 
1 759 16792 
1 13806 21178 
2 4910 4911 
2 4909 4910 
2 1624 1625 
1 1624 4909 
2 1625 1626 
2 16792 16793 
1 1626 3943 
2 3943 3944 
3 18146 18147 
3 18145 18146 
1 16449 18147 
2 11563 11564 
1 11563 19290 
2 11564 11565 
1 4176 19288 
2 19288 19289 
2 19289 19290 
2 5135 5136 
2 15058 15059 
2 15059 15060 
2 5134 5135 
1 5134 10056 
2 19000 19001 
2 2728 2729 
1 2728 19000 
2 3080 3081 
2 19001 19002 
1 11010 19002 
2 18931 18932 
1 18931 19858 
2 19858 19859 
2 19859 19860 
1 6588 19860 
2 21179 21180 
1 4497 21180 
2 6362 6363 
2 10967 10968 
1 6363 10968 
2 10966 10967 
1 10966 16527 
1 2385 6361 
2 4496 4497 
2 6361 6362 
1 2631 16794 
2 16793 16794 
2 3944 3945 
2 13249 13250 
2 13250 13251 
2 11185 11186 
2 11186 11187 
3 21317 21318 
2 877 878 
1 877 15058 
2 5653 5654 
2 878 879 
2 5654 5655 
2 15542 15543 
2 3079 3080 
1 3079 13141 
2 13141 13142 
2 13142 13143 
1 7932 16749 
2 1693 1694 
2 9578 9579 
2 7931 7932 
2 7930 7931 
1 7930 9579 
2 12923 12924 
1 12924 15102 
2 19370 19371 
2 15100 15101 
1 15100 19371 
2 15101 15102 
2 20135 20136 
2 13528 13529 
2 20575 20576 
2 20576 20577 
2 9733 9734 
1 9733 20577 
1 11544 20575 
2 9734 9735 
1 1695 13530 
2 1694 1695 
2 13529 13530 
2 1012 1013 
1 1012 17625 
2 12922 12923 
1 1017 12922 
2 1016 1017 
2 1015 1016 
2 17362 17363 
2 11920 11921 
1 11920 20136 
2 11921 11922 
2 11543 11544 
2 11542 11543 
2 1013 1014 
2 16945 16946 
2 7763 7764 
2 15793 15794 
2 16946 16947 
2 7762 7763 
1 7762 15795 
2 15794 15795 
2 12854 12855 
2 14755 14756 
2 12853 12854 
1 12853 14755 
2 5485 5486 
2 5486 5487 
1 5487 16531 
2 14756 14757 
2 16531 16532 
2 5168 5169 
2 5167 5168 
3 6446 6447 
1 5169 7890 
2 7889 7890 
3 6445 6446 
1 6445 8961 
3 8959 8960 
3 8960 8961 
2 18064 18065 
2 4310 4311 
2 4309 4310 
1 4309 18064 
1 8586 12903 
2 12902 12903 
2 12901 12902 
1 9537 12901 
2 8585 8586 
2 12562 12563 
2 1267 1268 
2 1268 1269 
2 12563 12564 
1 5496 12564 
2 13163 13164 
1 14757 15976 
2 15976 15977 
2 15977 15978 
2 7888 7889 
2 7738 7739 
1 7738 7888 
2 7739 7740 
1 6447 19006 
1 7740 13911 
2 19007 19008 
2 19006 19007 
2 9466 9467 
1 9466 16581 
2 9467 9468 
2 9382 9383 
2 9383 9384 
2 10381 10382 
1 9384 10381 
2 19721 19722 
2 7817 7818 
2 10054 10055 
2 7816 7817 
1 7816 10054 
2 15511 15512 
1 15513 19722 
2 15512 15513 
2 10466 10467 
2 2434 2435 
1 2434 10467 
2 2435 2436 
1 2436 4251 
2 10465 10466 
1 10465 14296 
2 14296 14297 
2 19720 19721 
1 8571 11008 
2 11008 11009 
2 8570 8571 
2 8569 8570 
2 5495 5496 
2 5494 5495 
2 21359 21360 
2 21358 21359 
1 6873 17148 
2 17147 17148 
2 17146 17147 
1 17146 21358 
2 20251 20252 
2 20252 20253 
1 20253 20917 
2 20917 20918 
2 16579 16580 
2 1337 1338 
1 1338 13909 
2 13910 13911 
2 13909 13910 
2 1336 1337 
1 1336 18822 
2 16580 16581 
3 467 468 
2 16448 16449 
1 5223 10383 
2 5222 5223 
2 5221 5222 
1 5221 13251 
2 16447 16448 
2 10382 10383 
2 5083 5084 
2 5084 5085 
2 10055 10056 
2 14297 14298 
2 20104 20105 
1 6714 20104 
2 20105 20106 
1 14298 20106 
2 11009 11010 
1 3081 6712 
2 6712 6713 
2 18932 18933 
2 6713 6714 
2 15331 15332 
2 13834 13835 
1 13834 15331 
2 13835 13836 
1 588 18933 
1 12858 17421 
2 587 588 
2 17419 17420 
2 17420 17421 
1 13836 17419 
2 586 587 
2 15332 15333 
2 12857 12858 
2 4495 4496 
1 4495 12856 
2 12856 12857 
2 20918 20919 
2 17299 17300 
2 16834 16835 
1 16834 17299 
2 16835 16836 
2 17300 17301 
2 16526 16527 
2 16525 16526 
1 16525 20919 
2 13522 13523 
2 13523 13524 
2 2060 2061 
2 2059 2060 
3 466 467 
1 466 6201 
3 6199 6200 
1 6199 13524 
3 6200 6201 
2 10343 10344 
2 10342 10343 
1 7644 10342 
2 7643 7644 
2 7642 7643 
1 7642 21316 
3 21316 21317 
1 879 5916 
2 15541 15542 
2 11053 11054 
2 5915 5916 
2 5914 5915 
1 5914 15333 
2 15464 15465 
1 14502 15465 
2 15463 15464 
1 3318 15463 
2 14501 14502 
2 3245 3246 
2 16747 16748 
2 16748 16749 
2 3244 3245 
1 3244 16747 
2 14500 14501 
2 1717 1718 
1 1717 3204 
1 6051 17301 
2 6050 6051 
2 1718 1719 
2 6049 6050 
1 6049 6760 
1 2061 18178 
2 6760 6761 
2 18178 18179 
2 20134 20135 
2 19369 19370 
1 6762 20134 
2 5329 5330 
1 5329 19369 
2 6761 6762 
2 5330 5331 
2 7594 7595 
1 7594 10096 
2 10096 10097 
2 7595 7596 
2 10097 10098 
2 11054 11055 
2 17624 17625 
2 3203 3204 
2 3202 3203 
2 17623 17624 
1 17623 20865 
2 20863 20864 
2 20864 20865 
2 12227 12228 
2 12226 12227 
2 5383 5384 
2 5384 5385 
2 5690 5691 
2 9536 9537 
2 5689 5690 
1 5689 9535 
2 9535 9536 
1 1269 4642 
2 4642 4643 
1 4644 15726 
3 15725 15726 
2 4643 4644 
2 16532 16533 
1 16533 19179 
2 19178 19179 
2 19177 19178 
2 1223 1224 
2 6053 6054 
1 6054 21204 
2 6052 6053 
1 6052 19008 
2 15616 15617 
2 15617 15618 
2 11354 11355 
2 4409 4410 
2 4408 4409 
1 4408 5494 
1 4410 11779 
2 11779 11780 
2 11780 11781 
2 3310 3311 
1 3310 3349 
2 3350 3351 
2 3349 3350 
2 1222 1223 
1 1222 3351 
2 3311 3312 
2 21203 21204 
2 21202 21203 
2 13114 13115 
1 13114 21202 
2 13115 13116 
2 18821 18822 
2 18820 18821 
2 13133 13134 
2 13132 13133 
1 13132 18312 
2 11353 11354 
1 11353 12472 
1 5085 12808 
2 12808 12809 
2 12809 12810 
2 12472 12473 
2 12473 12474 
1 12474 12810 
2 20152 20153 
2 20153 20154 
2 4607 4608 
1 4608 11781 
2 4606 4607 
1 4606 9910 
2 9910 9911 
2 9911 9912 
2 16691 16692 
2 16690 16691 
1 17877 18820 
2 17876 17877 
2 17875 17876 
2 18311 18312 
2 3316 3317 
1 3316 18310 
2 18310 18311 
2 3317 3318 
2 8980 8981 
2 8981 8982 
1 9912 18180 
2 18179 18180 
3 15724 15725 
1 15724 19488 
3 19487 19488 
3 19486 19487 
2 8890 8891 
1 8890 19486 
2 5659 5660 
2 5660 5661 
2 8891 8892 
1 5661 8892 
1 9198 17187 
2 17186 17187 
2 17185 17186 
2 9196 9197 
2 9197 9198 
3 5071 5072 
1 5071 7056 
3 5072 5073 
3 7054 7055 
1 7054 15111 
3 7055 7056 
3 15110 15111 
3 15109 15110 
3 4217 4218 
3 4216 4217 
1 4216 16236 
3 16235 16236 
3 16234 16235 
1 3126 20439 
3 3124 3125 
1 3124 16234 
3 3125 3126 
2 20438 20439 
2 20437 20438 
3 1525 1526 
3 1526 1527 
3 7577 7578 
3 7576 7577 
1 7576 18564 
1 7578 12462 
1 1527 12460 
3 12461 12462 
3 12460 12461 
2 16780 16781 
2 16781 16782 
2 17203 17204 
2 18212 18213 
2 8767 8768 
1 8767 18213 
2 17204 17205 
1 17205 18211 
2 18211 18212 
2 6664 6665 
3 8726 8727 
3 8725 8726 
1 8725 8769 
2 971 972 
2 970 971 
1 970 6666 
2 8768 8769 
2 6665 6666 
3 5033 5034 
2 2186 2187 
2 2185 2186 
1 2185 20392 
2 20392 20393 
3 5032 5033 
1 2187 5032 
2 20393 20394 
1 12816 20394 
2 14932 14933 
3 9814 9815 
1 9814 13824 
3 13823 13824 
3 13822 13823 
1 13822 14052 
2 14051 14052 
1 2094 14916 
2 14914 14915 
1 13119 14914 
2 13118 13119 
2 13117 13118 
2 4546 4547 
1 4546 13117 
2 14915 14916 
1 4548 14925 
2 4547 4548 
2 18562 18563 
2 18563 18564 
2 2198 2199 
2 16313 16314 
3 9815 9816 
1 9816 20727 
2 20726 20727 
2 20725 20726 
2 2140 2141 
1 2140 20725 
2 2141 2142 
2 18382 18383 
2 18383 18384 
2 1094 1095 
1 2142 14809 
1 10659 20490 
2 10658 10659 
2 10657 10658 
2 2197 2198 
1 2197 10657 
2 20488 20489 
2 20489 20490 
2 8872 8873 
1 8872 18418 
2 18418 18419 
1 5424 16312 
2 16312 16313 
2 5423 5424 
2 5422 5423 
1 5422 19390 
3 19391 19392 
3 19390 19391 
2 10273 10274 
2 10274 10275 
3 14789 14790 
3 14788 14789 
1 5034 14788 
2 14809 14810 
2 14810 14811 
1 7203 14811 
2 7202 7203 
2 13189 13190 
2 13190 13191 
1 10755 13191 
1 2007 13189 
2 2006 2007 
2 18419 18420 
2 9904 9905 
1 9904 18420 
2 8873 8874 
2 8284 8285 
1 8284 21312 
2 8285 8286 
2 9905 9906 
2 2005 2006 
2 8510 8511 
2 11749 11750 
1 8511 11749 
2 8929 8930 
2 19691 19692 
1 8931 19692 
2 8930 8931 
2 2770 2771 
1 2770 8286 
2 14344 14345 
2 12815 12816 
2 20612 20613 
1 11985 20613 
2 14345 14346 
2 8509 8510 
1 8509 20611 
2 20611 20612 
2 12814 12815 
1 3486 12814 
2 3485 3486 
2 3484 3485 
1 3484 4212 
2 4210 4211 
1 4210 9651 
2 4211 4212 
2 15088 15089 
2 15089 15090 
2 9650 9651 
2 14933 14934 
3 10216 10217 
3 10217 10218 
2 431 432 
1 432 9783 
2 430 431 
1 430 10218 
2 16637 16638 
2 9782 9783 
2 16636 16637 
2 14050 14051 
2 2092 2093 
1 2092 14050 
2 2093 2094 
2 14923 14924 
1 14923 18384 
2 14924 14925 
3 18889 18890 
3 2371 2372 
1 2371 18889 
3 12802 12803 
1 12802 18891 
3 18890 18891 
3 10693 10694 
3 10694 10695 
1 10695 10887 
2 6023 6024 
2 21118 21119 
2 1093 1094 
1 1093 1515 
1 1095 6022 
2 1514 1515 
2 6022 6023 
2 12571 12572 
2 1513 1514 
2 1373 1374 
2 1372 1373 
1 1372 1513 
2 4837 4838 
1 4837 12571 
2 4838 4839 
2 8954 8955 
2 8953 8954 
2 21310 21311 
3 12803 12804 
2 1255 1256 
1 1255 21171 
1 1257 12804 
2 1256 1257 
2 3436 3437 
1 3436 13305 
1 6024 20371 
2 20371 20372 
2 20372 20373 
2 13304 13305 
2 13303 13304 
1 13303 20373 
2 7201 7202 
1 7201 9838 
2 9838 9839 
2 10754 10755 
2 19070 19071 
2 19069 19070 
1 5676 19071 
2 10753 10754 
1 10753 19069 
2 9839 9840 
1 627 4839 
2 626 627 
2 11719 11720 
1 11719 14889 
2 625 626 
1 625 11721 
2 11720 11721 
1 10560 15982 
2 15983 15984 
2 15982 15983 
2 13804 13805 
2 13805 13806 
2 20782 20783 
2 20783 20784 
2 21311 21312 
2 10558 10559 
1 10558 20784 
2 10559 10560 
2 21169 21170 
2 21170 21171 
2 3437 3438 
2 4175 4176 
2 2729 2730 
2 16592 16593 
2 16591 16592 
2 931 932 
1 931 16591 
2 932 933 
1 933 7405 
2 7405 7406 
2 6587 6588 
1 2730 9840 
2 11750 11751 
1 11751 14887 
2 14887 14888 
2 14888 14889 
2 6586 6587 
2 16250 16251 
2 19690 19691 
2 14590 14591 
1 14590 19690 
2 14591 14592 
2 12742 12743 
1 12742 14592 
2 2630 2631 
2 2771 2772 
2 2629 2630 
1 2629 15984 
2 16162 16163 
3 12724 12725 
1 12724 16164 
3 12725 12726 
2 16163 16164 
1 4515 12726 
3 4514 4515 
3 4513 4514 
2 4174 4175 
1 4174 6811 
3 6812 6813 
3 6811 6812 
1 5856 9735 
2 1609 1610 
2 11984 11985 
2 5855 5856 
2 5854 5855 
1 14346 14782 
2 14782 14783 
2 14783 14784 
2 11983 11984 
1 11983 14731 
2 14731 14732 
1 5655 14784 
2 14173 14174 
1 14173 14385 
2 14384 14385 
1 1611 7407 
2 1610 1611 
2 14383 14384 
1 14383 16249 
2 16249 16250 
2 7406 7407 
2 2384 2385 
2 4117 4118 
1 4117 9649 
2 9649 9650 
2 4118 4119 
2 13966 13967 
2 12743 12744 
1 13968 19086 
2 13967 13968 
2 13327 13328 
1 4119 13327 
2 9577 9578 
1 9577 13966 
2 13328 13329 
2 2383 2384 
1 2383 13329 
2 14732 14733 
2 14174 14175 
2 5590 5591 
1 5590 11773 
2 5591 5592 
1 5592 14175 
2 17363 17364 
1 16638 19549 
2 19549 19550 
1 17364 19551 
2 19550 19551 
2 19084 19085 
2 19085 19086 
2 9781 9782 
1 9781 19084 
3 11773 11774 
3 11774 11775 
