ITEM: TIMESTEP
0
ITEM: NUMBER OF ATOMS
816
ITEM: BOX BOUNDS pp pp pp
0.0000000000000000e+00 5.0000000000000000e+01
0.0000000000000000e+00 5.0000000000000000e+01
0.0000000000000000e+00 5.0000000000000000e+01
ITEM: ATOMS id type 
25 1 
26 2 
27 1 
64 1 
65 3 
66 1 
208 1 
209 3 
210 1 
304 1 
305 3 
306 1 
1204 1 
1205 3 
1206 1 
1456 1 
1457 3 
1458 1 
1633 1 
1634 3 
1635 1 
3502 1 
3503 3 
3504 1 
3508 1 
3509 3 
3510 1 
3682 1 
3683 3 
3684 1 
4348 1 
4349 3 
4350 1 
4525 1 
4526 3 
4527 1 
4876 1 
4877 2 
4878 1 
5545 1 
5546 3 
5547 1 
5662 1 
5663 3 
5664 1 
5941 1 
5942 3 
5943 1 
5968 1 
5969 3 
5970 1 
7810 1 
7811 3 
7812 1 
7987 1 
7988 3 
7989 1 
7996 1 
7997 3 
7998 1 
9019 1 
9020 3 
9021 1 
10339 1 
10340 3 
10341 1 
10405 1 
10406 3 
10407 1 
11122 1 
11123 3 
11124 1 
11125 1 
11126 3 
11127 1 
11242 1 
11243 3 
11244 1 
12127 1 
12128 3 
12129 1 
12199 1 
12200 3 
12201 1 
12250 1 
12251 3 
12252 1 
12541 1 
12542 3 
12543 1 
12613 1 
12614 3 
12615 1 
12622 1 
12623 3 
12624 1 
12628 1 
12629 3 
12630 1 
13339 1 
13340 3 
13341 1 
14290 1 
14291 3 
14292 1 
14539 1 
14540 3 
14541 1 
15481 1 
15482 3 
15483 1 
15508 1 
15509 3 
15510 1 
16459 1 
16460 3 
16461 1 
16468 1 
16469 3 
16470 1 
16642 1 
16643 3 
16644 1 
16684 1 
16685 2 
16686 1 
17470 1 
17471 3 
17472 1 
17587 1 
17588 3 
17589 1 
17719 1 
17720 2 
17721 1 
18373 1 
18374 3 
18375 1 
18688 1 
18689 3 
18690 1 
18841 1 
18842 3 
18843 1 
19510 1 
19511 3 
19512 1 
19696 1 
19697 3 
19698 1 
20590 1 
20591 3 
20592 1 
20599 1 
20600 3 
20601 1 
20842 1 
20843 3 
20844 1 
21022 1 
21023 3 
21024 1 
21028 1 
21029 3 
21030 1 
169 1 
170 3 
171 1 
274 1 
275 3 
276 1 
391 1 
392 3 
393 1 
1192 1 
1193 3 
1194 1 
1195 1 
1196 3 
1197 1 
1294 1 
1295 3 
1296 1 
2617 1 
2618 3 
2619 1 
2632 1 
2633 3 
2634 1 
3217 1 
3218 3 
3219 1 
3334 1 
3335 3 
3336 1 
4615 1 
4616 3 
4617 1 
4852 1 
4853 2 
4854 1 
4855 1 
4856 3 
4857 1 
5512 1 
5513 3 
5514 1 
5572 1 
5573 3 
5574 1 
5737 1 
5738 3 
5739 1 
5803 1 
5804 3 
5805 1 
5974 1 
5975 3 
5976 1 
5992 1 
5993 2 
5994 1 
6046 1 
6047 3 
6048 1 
6832 1 
6833 3 
6834 1 
6874 1 
6875 3 
6876 1 
6883 1 
6884 3 
6885 1 
6946 1 
6947 3 
6948 1 
7777 1 
7778 3 
7779 1 
7858 1 
7859 3 
7860 1 
7918 1 
7919 3 
7920 1 
8014 1 
8015 3 
8016 1 
8074 1 
8075 3 
8076 1 
8914 1 
8915 3 
8916 1 
9109 1 
9110 3 
9111 1 
9112 1 
9113 3 
9114 1 
9352 1 
9353 3 
9354 1 
10051 1 
10052 3 
10053 1 
10075 1 
10076 3 
10077 1 
10171 1 
10172 3 
10173 1 
10180 1 
10181 3 
10182 1 
10291 1 
10292 3 
10293 1 
10435 1 
10436 3 
10437 1 
10489 1 
10490 3 
10491 1 
10534 1 
10535 3 
10536 1 
11263 1 
11264 2 
11265 1 
11272 1 
11273 3 
11274 1 
11512 1 
11513 3 
11514 1 
12391 1 
12392 3 
12393 1 
13534 1 
13535 3 
13536 1 
14503 1 
14504 3 
14505 1 
14578 1 
14579 3 
14580 1 
15574 1 
15575 3 
15576 1 
16615 1 
16616 3 
16617 1 
17323 1 
17324 3 
17325 1 
17674 1 
17675 3 
17676 1 
17734 1 
17735 3 
17736 1 
17797 1 
17798 3 
17799 1 
17809 1 
17810 3 
17811 1 
18583 1 
18584 3 
18585 1 
18586 1 
18587 3 
18588 1 
18598 1 
18599 3 
18600 1 
18826 1 
18827 3 
18828 1 
18886 1 
18887 3 
18888 1 
19534 1 
19535 3 
19536 1 
19894 1 
19895 3 
19896 1 
20632 1 
20633 3 
20634 1 
20995 1 
20996 3 
20997 1 
628 1 
629 3 
630 1 
679 1 
680 3 
681 1 
982 1 
983 3 
984 1 
1681 1 
1682 3 
1683 1 
1930 1 
1931 3 
1932 1 
1945 1 
1946 3 
1947 1 
2101 1 
2102 3 
2103 1 
2161 1 
2162 3 
2163 1 
2641 1 
2642 3 
2643 1 
2656 1 
2657 3 
2658 1 
2713 1 
2714 3 
2715 1 
2881 1 
2882 3 
2883 1 
3025 1 
3026 3 
3027 1 
3082 1 
3083 3 
3084 1 
3988 1 
3989 3 
3990 1 
4042 1 
4043 3 
4044 1 
4087 1 
4088 3 
4089 1 
4090 1 
4091 3 
4092 1 
4147 1 
4148 3 
4149 1 
4150 1 
4151 3 
4152 1 
4213 1 
4214 3 
4215 1 
4984 1 
4985 3 
4986 1 
4996 1 
4997 3 
4998 1 
5002 1 
5003 3 
5004 1 
5161 1 
5162 2 
5163 1 
5284 1 
5285 3 
5286 1 
5344 1 
5345 2 
5346 1 
6196 1 
6197 3 
6198 1 
6328 1 
6329 3 
6330 1 
6367 1 
6368 3 
6369 1 
7447 1 
7448 3 
7449 1 
7459 1 
7460 3 
7461 1 
7501 1 
7502 3 
7503 1 
7693 1 
7694 3 
7695 1 
8521 1 
8522 3 
8523 1 
8536 1 
8537 3 
8538 1 
8701 1 
8702 3 
8703 1 
8845 1 
8846 3 
8847 1 
9361 1 
9362 3 
9363 1 
9376 1 
9377 3 
9378 1 
9436 1 
9437 3 
9438 1 
9856 1 
9857 3 
9858 1 
9859 1 
9860 3 
9861 1 
10699 1 
10700 3 
10701 1 
10744 1 
10745 3 
10746 1 
10819 1 
10820 3 
10821 1 
10999 1 
11000 3 
11001 1 
11056 1 
11057 3 
11058 1 
11596 1 
11597 3 
11598 1 
11827 1 
11828 3 
11829 1 
11830 1 
11831 3 
11832 1 
11902 1 
11903 3 
11904 1 
12967 1 
12968 3 
12969 1 
13828 1 
13829 3 
13830 1 
13930 1 
13931 2 
13932 1 
14164 1 
14165 3 
14166 1 
14710 1 
14711 3 
14712 1 
14845 1 
14846 3 
14847 1 
15007 1 
15008 3 
15009 1 
15070 1 
15071 3 
15072 1 
15910 1 
15911 3 
15912 1 
16036 1 
16037 3 
16038 1 
16762 1 
16763 3 
16764 1 
16930 1 
16931 3 
16932 1 
17065 1 
17066 3 
17067 1 
17176 1 
17177 3 
17178 1 
17245 1 
17246 3 
17247 1 
17887 1 
17888 3 
17889 1 
17956 1 
17957 3 
17958 1 
18208 1 
18209 3 
18210 1 
18268 1 
18269 3 
18270 1 
18967 1 
18968 3 
18969 1 
19048 1 
19049 3 
19050 1 
19165 1 
19166 3 
19167 1 
19393 1 
19394 3 
19395 1 
19942 1 
19943 2 
19944 1 
20125 1 
20126 3 
20127 1 
21208 1 
21209 3 
21210 1 
21319 1 
21320 2 
21321 1 
21541 1 
21542 3 
21543 1 
21547 1 
21548 3 
21549 1 
21550 1 
21551 3 
21552 1 
574 1 
575 3 
576 1 
934 1 
935 3 
936 1 
1066 1 
1067 3 
1068 1 
1078 1 
1079 3 
1080 1 
1849 1 
1850 3 
1851 1 
1906 1 
1907 3 
1908 1 
1951 1 
1952 3 
1953 1 
1978 1 
1979 3 
1980 1 
2026 1 
2027 2 
2028 1 
2077 1 
2078 2 
2079 1 
2974 1 
2975 3 
2976 1 
3058 1 
3059 3 
3060 1 
3955 1 
3956 3 
3957 1 
4177 1 
4178 2 
4179 1 
5023 1 
5024 3 
5025 1 
5215 1 
5216 3 
5217 1 
5218 1 
5219 3 
5220 1 
5332 1 
5333 3 
5334 1 
6451 1 
6452 3 
6453 1 
6580 1 
6581 3 
6582 1 
7375 1 
7376 3 
7377 1 
7486 1 
7487 3 
7488 1 
7543 1 
7544 3 
7545 1 
8551 1 
8552 3 
8553 1 
8617 1 
8618 3 
8619 1 
8635 1 
8636 3 
8637 1 
8818 1 
8819 3 
8820 1 
8866 1 
8867 3 
8868 1 
9397 1 
9398 3 
9399 1 
9475 1 
9476 3 
9477 1 
9637 1 
9638 3 
9639 1 
10606 1 
10607 3 
10608 1 
10912 1 
10913 3 
10914 1 
11074 1 
11075 3 
11076 1 
11803 1 
11804 3 
11805 1 
11929 1 
11930 3 
11931 1 
11995 1 
11996 3 
11997 1 
12763 1 
12764 3 
12765 1 
12955 1 
12956 3 
12957 1 
13000 1 
13001 3 
13002 1 
13789 1 
13790 3 
13791 1 
13840 1 
13841 3 
13842 1 
13843 1 
13844 3 
13845 1 
13915 1 
13916 3 
13917 1 
14194 1 
14195 3 
14196 1 
14740 1 
14741 3 
14742 1 
14746 1 
14747 3 
14748 1 
14857 1 
14858 3 
14859 1 
14995 1 
14996 3 
14997 1 
15154 1 
15155 3 
15156 1 
15217 1 
15218 3 
15219 1 
15286 1 
15287 3 
15288 1 
16018 1 
16019 3 
16020 1 
16120 1 
16121 3 
16122 1 
16246 1 
16247 3 
16248 1 
16783 1 
16784 2 
16785 1 
16972 1 
16973 3 
16974 1 
17023 1 
17024 3 
17025 1 
18349 1 
18350 3 
18351 1 
19117 1 
19118 3 
19119 1 
19129 1 
19130 3 
19131 1 
19300 1 
19301 3 
19302 1 
19432 1 
19433 3 
19434 1 
19978 1 
19979 3 
19980 1 
20140 1 
20141 3 
20142 1 
20155 1 
20156 3 
20157 1 
20323 1 
20324 3 
20325 1 
21217 1 
21218 3 
21219 1 
21223 1 
21224 3 
21225 1 
21352 1 
21353 3 
21354 1 
21403 1 
21404 3 
21405 1 
