ITEM: TIMESTEP
25000000
ITEM: NUMBER OF ATOMS
906
ITEM: BOX BOUNDS pp pp pp
0.0000000000000000e+00 5.0000000000000000e+01
0.0000000000000000e+00 5.0000000000000000e+01
0.0000000000000000e+00 5.0000000000000000e+01
ITEM: ATOMS id type vx vy vz 
16696 1 -5.57985 8.46038 -3.64275 
19337 2 0.298934 0.988661 -1.77218 
19336 1 2.44813 -3.18893 1.03675 
19338 1 -4.17222 1.73554 -3.11379 
9138 1 0.172568 -4.53965 -0.904257 
11501 2 -0.635288 -0.622551 -1.80953 
11500 1 -2.1976 -0.0127494 -0.426385 
11502 1 0.399812 -0.434844 -0.148961 
9685 1 -4.85075 -1.13364 2.2521 
7404 1 7.6346 -2.30525 2.06844 
16767 1 0.180738 2.13118 2.51492 
16765 1 2.50829 -3.27927 0.153924 
16766 2 -3.22298 -2.26904 2.2811 
18285 1 -0.163071 0.220752 3.18892 
9184 1 -0.896989 -1.91688 -3.01626 
18283 1 0.778143 3.67232 -2.3066 
18284 2 -0.294568 -3.88513 0.361599 
9185 2 -2.77585 -0.234157 3.78797 
1575 1 -3.36563 0.785726 -1.50176 
16697 3 0.480832 -0.00014113 0.219471 
16698 1 -0.539011 -2.60863 1.82711 
1574 2 1.19425 -2.03607 1.44234 
9186 1 6.12495 1.82102 5.23391 
1573 1 -0.901938 -9.21303 1.12199 
2940 1 2.09961 -1.72501 -1.4631 
14900 2 -1.76562 -1.79748 -2.28901 
14899 1 -2.53924 8.81855 2.9631 
7402 1 -1.52904 -0.720328 -1.7838 
7403 2 -1.52559 -0.0266429 -0.321007 
14901 1 3.00308 -0.707778 3.0491 
1158 1 4.12791 -4.8719 -0.286678 
15010 1 -1.17946 0.965215 0.74243 
1021 1 6.95129 1.20743 0.860313 
1022 2 2.9957 -1.77027 3.59594 
1023 1 4.29424 -4.19165 -0.786154 
14008 1 -1.28841 6.56843 -5.38923 
15012 1 3.67422 -2.47137 -0.224621 
15011 2 -4.37959 -0.801078 0.150928 
3711 1 1.80793 2.39487 5.7603 
3710 2 2.85255 -1.21083 1.79371 
3709 1 -1.26367 -1.30473 1.49715 
3278 2 -1.38167 3.90789 -5.11051 
3279 1 -0.0740339 -1.62161 1.45527 
11295 1 2.80018 -0.567881 -3.01926 
13640 2 1.25631 -0.12823 -0.628882 
8735 2 0.488436 1.66831 7.11439 
11294 2 3.42398 -4.98349 6.028 
11293 1 2.07341 2.41611 3.58021 
8736 1 4.07526 3.61398 2.47888 
13641 1 -2.58767 1.50884 -3.67284 
8734 1 -1.70158 -2.04188 -3.21142 
6619 1 -9.01546 2.14231 -1.58308 
6620 2 -2.64849 0.294903 4.1495 
20700 1 1.37247 -1.87701 -4.55981 
20699 2 0.828736 -4.26273 -0.153371 
20698 1 -2.63215 2.69956 -1.43023 
1157 2 0.511459 1.4525 0.648234 
1156 1 -3.70886 0.188083 5.03467 
155 2 -3.23843 2.38652 -0.127857 
14010 1 0.739151 -0.665525 6.47326 
156 1 6.7395 2.06319 -0.772273 
14009 2 -3.82237 -2.01129 -1.44068 
17668 1 0.710421 0.100115 3.35287 
3277 1 -0.323307 -1.9567 -1.88896 
19996 1 -9.23902 0.409745 0.0164414 
19998 1 -2.17769 -1.63993 3.49007 
19997 2 -0.945799 -1.75013 0.582406 
17669 2 -0.0137516 2.58222 -0.0903476 
11511 1 -2.73305 -4.83513 1.8684 
11510 2 4.02489 -1.69161 -0.237012 
11509 1 -2.81026 0.920156 0.338301 
13174 1 3.43529 -1.07793 -0.600943 
13175 2 1.7307 -0.319661 0.318882 
13302 1 -2.32165 -0.255228 -0.51737 
13639 1 1.75963 -4.84668 -2.81264 
9137 2 1.84864 1.02383 2.23787 
9136 1 3.01287 -1.44028 8.55902 
13176 1 -1.91116 -1.68863 -5.13436 
261 1 -2.20934 -0.610517 1.31414 
6657 1 0.107395 5.54143 4.16783 
371 2 -3.48347 -2.13084 -1.67417 
20181 1 -1.64602 3.43506 -5.65985 
370 1 -0.891093 -1.65994 -0.382439 
20179 1 5.44705 1.65542 -0.664607 
20180 2 2.79868 -1.69495 1.04297 
13301 2 -1.18275 2.2742 -0.28836 
18367 1 -2.56975 -4.56708 -1.05455 
3928 1 -0.838695 -3.61269 -0.230362 
3929 2 0.133368 0.282867 1.15044 
3930 1 -5.41528 2.31431 -0.125932 
18368 2 -1.29538 1.23192 4.95021 
18369 1 2.24901 -8.1284 7.58423 
3262 1 -3.43624 2.90303 3.075 
30 1 1.00024 -2.1696 6.42005 
29 2 2.56344 -0.47138 3.05774 
28 1 -2.77104 -0.593651 -3.44561 
10303 1 -2.36706 2.85632 -0.274629 
3264 1 3.10824 0.0863875 5.53649 
3263 2 5.40601 2.7002 -1.59897 
10304 2 -2.16417 4.97442 -2.05161 
10305 1 0.0654594 -3.43855 -0.56816 
9252 1 6.14873 6.52574 5.15955 
8463 1 0.168473 -4.37967 8.75349 
8462 2 -5.84704 0.347908 -6.6255 
8461 1 1.11622 -5.22309 -3.57378 
19812 1 -4.12508 6.29492 -1.00297 
19811 2 2.58519 1.23853 2.1318 
1096 1 -0.219425 2.21272 -6.26338 
1098 1 -3.46095 5.17616 -6.59854 
1097 2 0.955289 -0.754877 -2.36559 
9686 2 1.49581 0.169127 -1.09619 
17482 1 0.458951 3.06606 3.40894 
9687 1 -3.50144 -2.68536 1.67671 
17484 1 -5.19905 -3.80024 2.5682 
17483 2 -5.7051 -0.751901 2.57869 
1594 1 4.16016 1.77601 4.4591 
1595 2 1.43663 -1.94717 1.86941 
21467 2 3.99413 -0.397327 -1.89616 
21466 1 -0.654575 -1.32101 -1.62747 
9180 1 2.65118 0.94092 1.24875 
9179 2 1.75394 0.0760927 0.583417 
9178 1 -6.01137 1.1305 0.339421 
20623 1 -2.6396 -2.63119 -2.27061 
14 2 1.3697 -2.83083 -1.63675 
13 1 -0.763041 -3.50547 1.24053 
5121 1 -1.34586 0.117586 4.84248 
15 1 -1.32356 0.509448 -4.63947 
14557 1 0.730155 -0.976853 -2.60594 
14558 2 -1.90536 -1.05206 0.0603395 
20624 2 -1.44902 3.21958 0.373073 
7063 1 -2.42264 1.02653 -0.226874 
20625 1 -0.841473 0.427962 7.44594 
7064 2 -0.118219 -0.206574 3.4972 
7065 1 -4.14304 5.82462 -1.41004 
2939 2 -2.32543 -3.67387 -1.01788 
486 1 -2.08713 -2.96131 3.02717 
15785 2 0.0914741 -2.3059 1.91229 
15784 1 -1.24631 -0.240811 -4.98425 
2938 1 1.26868 -2.43153 4.01608 
7941 1 -0.323721 1.86315 -3.12263 
15786 1 4.77864 -3.1121 -3.28933 
7940 2 -2.04731 -1.3313 -3.17493 
7939 1 1.22782 1.68604 3.08679 
4234 1 0.864655 -5.09054 2.74914 
16627 1 -1.34995 0.54409 6.37747 
3348 1 -1.71661 -2.6638 0.265241 
3347 2 4.81434 -0.451982 1.72376 
14090 2 -1.68915 -1.68556 -1.49847 
3346 1 5.4678 -5.85094 1.6878 
4536 1 -0.487284 -2.90257 -1.79668 
14091 1 -0.438053 -4.63689 -4.80881 
6066 1 4.69676 4.85899 2.15023 
14089 1 -2.98477 0.0443989 -1.88853 
6065 2 1.54349 -3.13593 -3.99303 
4534 1 -4.59145 2.32926 -2.84319 
4535 2 -3.14375 -5.51989 -1.0908 
1596 1 2.10792 -1.60644 7.29921 
17277 1 -1.28084 2.37353 1.65308 
17276 2 -2.65805 -0.0716124 6.87125 
11247 1 2.49374 2.16966 -4.48968 
17275 1 -0.386874 4.67738 1.94443 
11246 2 0.0696358 -1.58755 -1.70244 
11245 1 -4.33383 1.01461 -2.69554 
20766 1 -1.59678 2.77312 -3.37291 
20765 2 -5.287 -2.35316 -2.95514 
20764 1 -0.35437 5.56535 5.00924 
21273 1 -5.02612 1.04237 1.48493 
21272 2 -2.55753 0.429347 -0.871188 
1118 2 1.32845 -3.33541 5.30789 
1119 1 5.41096 -1.97545 -0.318648 
5983 1 2.2331 -4.9283 1.70604 
5985 1 1.32205 -1.74779 -0.618064 
15553 1 -1.68773 3.27593 2.73546 
15554 2 -0.396563 -0.547675 2.57549 
15555 1 3.54808 -2.11052 1.57913 
3859 1 -6.01885 -1.62891 1.09835 
5984 2 3.24287 -2.31932 1.54252 
21271 1 -4.52256 -0.953631 4.74075 
21036 1 -5.80954 4.93412 -4.36289 
21034 1 1.82015 -7.20486 0.366193 
7515 1 -1.73283 -6.44594 2.48163 
7514 2 -5.10903 3.99928 0.18921 
14559 1 0.82247 3.72753 -1.80687 
3860 2 -0.461587 -2.03999 -2.68064 
3516 1 -1.75201 1.23457 -5.48224 
6621 1 3.83123 3.05414 0.282168 
13512 1 -2.75616 1.92542 -2.62726 
485 2 -1.06233 0.00523351 2.79678 
7513 1 -2.18926 2.73835 2.8209 
484 1 7.66694 4.97936 -3.1113 
3515 2 -0.653946 -2.55301 -2.71635 
3514 1 3.1095 -1.29118 -3.85866 
17442 1 0.591039 2.11848 -2.73003 
2443 1 -1.59627 2.54925 -1.82981 
4636 1 1.18094 2.13166 -1.83482 
16629 1 -1.0384 2.80053 -0.398484 
16628 2 1.59137 -5.00891 0.898846 
9499 1 -6.71749 -5.29952 -0.956527 
4637 2 -0.626438 -6.38735 -1.05396 
13510 1 5.88103 -8.50886 -9.87214 
2100 1 -0.0727094 2.83146 1.70115 
2099 2 -3.0778 -1.0241 -1.62634 
4638 1 4.84675 -1.82335 -0.84208 
2098 1 2.87069 -1.95268 -0.10493 
13511 2 2.74064 3.82314 -4.78198 
12080 2 -0.790216 -0.132138 2.33855 
16619 2 -0.452239 -0.180821 1.12246 
16620 1 -5.59023 3.12618 5.11235 
12081 1 -1.12591 1.04905 2.79713 
16618 1 5.17235 -1.06429 1.58329 
11794 1 -2.54619 3.72141 1.17692 
10533 1 1.02399 3.33981 1.05092 
10532 2 -0.704788 -0.190391 -3.27137 
10531 1 -5.61781 -4.97353 -0.569941 
8335 1 -2.96363 1.35784 0.153763 
8336 2 -2.34881 -2.29709 -0.423905 
8337 1 1.23286 -2.52902 1.75259 
154 1 2.21988 4.98415 4.17016 
4803 1 4.47534 -4.01714 -1.08254 
4802 2 0.782933 -3.43156 3.65708 
4801 1 -3.17777 -2.83923 2.7599 
4575 1 -1.16389 -0.295264 -0.280943 
6656 2 0.0410066 -1.11731 0.654459 
1117 1 6.0954 1.21464 -3.80288 
948 1 -6.57368 -1.26143 3.62383 
12210 1 1.38509 -0.181632 0.913427 
946 1 2.1963 0.219246 4.14502 
947 2 -3.1754 3.44161 -0.568554 
8384 2 -3.27543 0.383362 -4.252 
17670 1 -1.45714 -4.22049 -1.77702 
8383 1 0.428094 -3.32052 -2.04247 
8385 1 3.00676 0.427551 0.938019 
12620 2 -0.545014 0.567957 -1.64633 
12619 1 2.49132 0.967955 -1.5354 
21035 2 0.496849 0.571441 -1.27195 
3490 1 2.48168 8.6272 -4.62723 
15649 1 0.393256 3.49094 -3.50975 
3492 1 -0.0739703 -0.838282 0.676911 
3491 2 2.01686 -4.63029 -0.0797177 
3861 1 2.89301 -0.420814 -2.01696 
2236 1 -5.5286 -6.82692 -7.00652 
2237 2 4.62729 -4.1983 -1.7473 
2238 1 -2.53447 -2.81709 1.21625 
15650 2 -2.90206 2.04073 -1.58208 
15651 1 -2.41239 2.0335 -1.82182 
17440 1 -1.72371 2.71817 -4.58914 
17441 2 0.0639887 2.01832 -3.59829 
2448 1 2.61187 -2.69485 1.98519 
2447 2 -0.928726 0.264486 2.66835 
2446 1 2.11759 1.11971 -3.98933 
19677 1 -6.05825 -4.86706 5.03132 
19676 2 2.02746 0.543516 -0.260366 
19611 1 1.1441 -4.39836 1.04392 
12079 1 1.18322 8.76295 -1.5781 
260 2 1.06339 -0.706064 2.57661 
11799 1 -0.966682 0.303622 7.15018 
19675 1 2.03651 -2.67825 -1.78497 
259 1 2.89818 1.30995 1.66947 
5776 1 -0.0772944 -1.85672 0.960471 
949 1 -3.67067 3.03302 1.44623 
5778 1 -4.04424 1.63876 3.03608 
5777 2 1.85703 -1.47811 2.33263 
9500 2 -0.955193 3.12922 4.62681 
1152 1 2.1891 0.496097 -3.38859 
9501 1 0.338095 3.26422 1.19265 
951 1 4.22865 -8.38136 1.22707 
11796 1 -5.02672 -1.47022 0.274133 
17662 1 -0.504789 0.924346 -4.74307 
17663 2 0.952793 1.61774 0.126601 
11795 2 -0.134834 3.44027 -1.47162 
4574 2 0.177518 -2.15803 1.2868 
6655 1 3.22458 5.9368 0.841272 
12209 2 1.31026 -1.80374 2.72791 
12208 1 3.88186 4.10918 7.02888 
17151 1 -5.52133 1.24607 0.336275 
17150 2 -2.0463 1.64664 1.42186 
8716 1 4.01725 -1.49941 -0.903705 
8717 2 -1.46854 -2.66446 2.58937 
372 1 -2.076 -4.55085 -0.340425 
8718 1 -1.45062 -5.91663 1.214 
17149 1 -1.57234 -1.97012 -0.951409 
11435 2 -0.00171734 0.0443182 -1.80903 
11436 1 -0.471149 -1.50604 2.74962 
21357 1 0.929351 -5.76241 2.67538 
21356 2 -1.49872 -0.990714 -0.11646 
21355 1 3.54701 -0.911556 0.458718 
9000 1 1.74473 -5.13843 -3.22877 
8999 2 2.35855 1.03295 -3.10369 
13300 1 2.08506 1.59727 0.217324 
4093 1 2.01189 -0.977949 -2.47778 
4094 2 2.85804 -0.557408 1.39536 
950 2 0.810667 -1.04867 -0.159068 
13971 1 0.704126 1.90825 -0.259437 
17664 1 -2.37612 2.3561 4.76062 
1174 1 -2.84234 3.29679 -2.68388 
4095 1 1.34077 -0.0316187 -0.132386 
13970 2 -5.68608 -0.994289 -1.55257 
7758 1 1.08641 0.319452 4.63356 
13969 1 -1.56023 1.89363 3.63935 
21363 1 -1.82492 -0.921788 -0.796243 
11434 1 4.00918 -0.929518 2.13182 
21362 2 0.698077 4.64528 1.7858 
21361 1 5.37252 4.40829 -2.45192 
10140 1 6.70464 -5.0593 -3.57779 
8998 1 -1.63908 2.58577 1.68928 
8680 1 1.41199 5.07228 5.71918 
1175 2 0.376885 4.02311 0.947184 
7756 1 2.51867 -2.3685 4.7871 
7757 2 -3.20209 0.111789 2.06781 
1176 1 -0.651735 -4.71668 -2.66058 
11508 1 -2.05691 -3.06476 3.77327 
11507 2 2.13199 0.310908 -4.72623 
11506 1 4.10772 -3.81997 -4.06629 
18483 1 10.7343 -2.37186 2.30233 
2583 1 -2.87093 -4.06484 -0.765272 
2582 2 3.7657 1.17639 -1.77258 
2581 1 2.11098 8.79153 1.57124 
4925 2 3.63377 1.19088 -0.788467 
4924 1 0.165212 2.38283 -3.93226 
19616 2 -0.197381 -4.88733 0.23256 
16993 1 -2.36934 -0.728964 -0.19791 
16994 2 1.21893 1.78345 -2.00815 
10669 1 -4.11583 1.8392 0.0170138 
16995 1 -5.97741 -1.78443 0.648168 
18482 2 -3.00188 -1.00869 -0.771786 
18481 1 -0.905647 4.68162 -3.92831 
9251 2 1.36775 1.69675 0.573712 
19617 1 -4.06687 0.157096 6.04151 
19810 1 0.502648 1.61957 3.23285 
43 1 1.75544 -2.55535 1.09587 
44 2 1.90041 -3.2496 -0.207286 
45 1 0.312223 4.6026 2.06051 
9273 1 1.18018 7.74654 -1.77437 
9272 2 1.01647 1.51164 1.40173 
12921 1 0.382222 -5.0411 3.62824 
12920 2 3.08902 -1.52693 -1.35828 
19615 1 -0.706016 4.06449 4.5302 
12919 1 -4.47002 4.0128 3.40887 
14533 1 -0.547692 -0.782501 7.31151 
14534 2 -2.17055 -2.19536 -3.56409 
14535 1 -2.15285 -1.86359 -2.36798 
4235 2 -1.67271 -0.976672 0.411168 
12259 1 0.706765 1.97113 -1.46637 
12260 3 2.47945 -2.19195 3.05177 
10569 1 6.74516 -3.13879 0.954929 
12261 1 -3.12829 -2.44006 -0.630796 
21468 1 -4.16253 1.57732 -2.41982 
5120 2 -1.25189 -2.91664 -2.54804 
5119 1 5.14521 -2.32023 2.999 
17076 1 2.89076 1.03193 1.14843 
17536 1 -0.745167 0.328514 -2.91024 
17469 1 2.10886 -0.27373 1.75063 
10671 1 1.83289 -0.680922 -2.75334 
10670 2 3.55082 -2.19678 -0.75091 
17537 2 -1.70553 0.961993 2.80295 
17538 1 3.05456 3.2963 -1.78578 
6405 1 0.243479 -4.0489 3.83107 
6404 2 3.68653 2.3557 1.79652 
137 2 -1.25299 -3.26578 -0.266556 
138 1 0.60807 -0.5784 2.68116 
17468 2 4.86238 -0.344684 0.290204 
17467 1 -1.998 2.13711 -5.46063 
17855 2 -1.45518 0.0985645 -1.10634 
17854 1 -3.42409 2.1107 1.51838 
17856 1 -3.17856 0.0617545 -5.49638 
3793 1 -3.13299 1.36415 4.10581 
3794 2 -2.54382 4.80283 -2.01262 
3795 1 0.406316 0.00623836 0.803079 
2445 1 3.45912 -1.12597 6.21658 
7295 2 -0.419569 3.69658 3.3637 
4455 1 -0.0661221 1.99675 0.898325 
7294 1 -2.5855 -1.4074 1.04391 
9250 1 -3.32624 -1.33403 0.88907 
16381 1 0.245893 2.43188 5.47155 
16382 2 2.36975 -2.12177 0.037177 
16383 1 -2.34513 -1.24071 -5.51547 
14314 1 -0.96734 -1.07927 -0.86485 
14316 1 1.93408 1.23692 -2.59784 
14315 2 2.85597 0.133846 2.19954 
4454 2 -0.202807 -0.179332 -3.77872 
20793 1 -9.68038 0.801847 1.23138 
6273 1 -3.2334 -1.67992 -1.65922 
20792 2 -1.12487 -2.61822 5.07051 
4236 1 -2.00182 -0.24952 4.05256 
6064 1 -2.86539 -1.87979 1.92926 
20791 1 1.18471 -3.39653 -3.70646 
4035 1 -0.994649 -2.61529 2.18982 
4034 2 0.84908 -2.11812 5.86744 
18435 1 1.20586 5.85555 -2.05704 
18434 2 2.3415 -1.42428 3.20635 
21100 1 -0.808376 5.03504 2.72363 
6272 2 1.50413 2.14186 -1.2249 
6271 1 -8.60084 -7.32424 -0.637013 
8817 1 -6.16805 0.618908 4.26094 
8816 2 0.105175 -3.88574 3.75569 
8815 1 0.750393 0.781145 2.12166 
14939 2 -5.24297 -0.325327 -0.771565 
14940 1 0.630905 2.71095 3.68466 
20484 1 -2.47139 -1.69523 -3.63075 
11668 1 -2.1915 -0.433648 -3.8227 
5752 1 2.62616 -0.874499 -1.49654 
5753 2 -4.63209 -0.0817172 -1.43887 
5754 1 5.83976 3.93351 1.59693 
7977 1 3.03199 -1.48097 0.342889 
17075 2 -1.72818 2.40506 4.06237 
17074 1 -3.34617 4.0884 4.58504 
11970 1 -0.539543 2.95879 -2.73843 
11969 2 2.46939 -4.15807 3.57397 
11968 1 -1.87559 7.52783 -2.91986 
13507 1 -7.15447 -1.16583 -0.441057 
13509 1 3.28439 -3.0872 -4.77777 
13508 2 0.570297 1.29714 4.49974 
3629 2 3.4655 -6.2935 -0.802349 
3628 1 -4.13252 2.8611 -2.2417 
12466 1 -5.81277 0.468236 2.85974 
7975 1 4.71294 -5.35755 0.1204 
7976 2 1.07823 1.34267 2.09223 
12467 2 -0.740351 3.0795 -2.93012 
2444 2 -0.790513 -2.52614 -2.03605 
7296 1 -0.913287 -0.0937174 2.14928 
8494 1 2.03973 -0.824768 2.91524 
3630 1 0.553759 0.381919 1.25635 
8495 2 -0.817125 -4.5098 -6.76662 
19190 2 1.31971 0.0178934 -0.212546 
19191 1 -3.47762 -1.41471 0.327779 
6385 1 0.00593979 2.17331 0.714282 
6386 2 0.28969 0.68894 2.6639 
19189 1 2.97363 -3.24563 3.44585 
9441 1 0.632217 -2.82367 -3.8761 
6387 1 0.484326 -5.50933 -2.24581 
18433 1 -0.79323 -0.834197 3.38064 
9439 1 3.13216 6.29433 2.45175 
9440 2 -0.0668684 3.09024 1.56474 
4033 1 -0.709658 4.53835 3.64724 
2981 2 4.70896 -4.21883 -1.25345 
13614 1 -2.80616 -1.86678 -6.14286 
2980 1 3.64306 1.49619 -1.16832 
11798 2 0.746384 1.13699 -0.659986 
21101 2 0.860694 -3.13786 2.67824 
9193 1 -1.99944 -4.30216 5.03279 
11797 1 0.544642 4.75769 4.24916 
21102 1 3.92734 -0.655456 -2.14583 
14827 1 1.51976 0.543332 4.14882 
14828 2 -1.97025 1.58776 -2.5398 
14829 1 1.19999 1.5385 -0.507703 
20482 1 2.67918 1.76456 -2.14198 
9195 1 -0.0482186 -1.88927 -1.86773 
9194 2 -0.304997 3.43354 4.10644 
20483 2 -2.14411 2.56826 -5.19846 
11669 2 -2.16638 1.27711 0.901606 
8427 1 2.24691 -3.52586 -3.14324 
11670 1 0.935372 -1.74955 -3.01681 
8425 1 -5.63666 3.06648 -1.95378 
12621 1 -0.45965 -3.91365 -0.83604 
8426 2 -0.644041 0.413368 2.16471 
12172 1 2.60893 -3.12775 -2.52597 
12174 1 2.16911 -4.9423 -4.01765 
12173 2 4.70894 -1.16185 0.778275 
12468 1 7.61674 4.49676 -2.64233 
6878 2 -0.618462 -0.052735 0.982908 
6879 1 -3.88374 2.22127 0.479056 
3295 1 -0.275759 -0.0655985 5.37309 
3297 1 -7.79248 0.660192 0.933774 
19609 1 2.41262 -3.07215 -0.396591 
19610 2 -1.62386 2.06479 -1.55237 
6877 1 -1.71996 -0.315656 4.64171 
5847 1 2.20448 0.0948095 3.98309 
15402 1 1.8052 -1.76614 0.938098 
9189 1 -2.0208 6.12412 -0.494863 
9188 2 0.465433 -5.4257 -2.44276 
9187 1 -0.291429 6.72668 0.0179999 
1151 2 0.034005 -3.85664 5.38929 
18027 1 -6.37943 1.49303 1.85147 
1150 1 1.83735 0.104474 -0.181142 
18026 2 -0.779173 -1.40825 1.66011 
18025 1 4.17505 1.62171 -0.431565 
5815 1 -3.82382 -0.609473 -2.65405 
5816 2 0.197284 0.370294 0.195334 
5817 1 5.41403 -6.90484 -2.05889 
8416 1 5.32214 2.62143 4.18147 
3206 2 -1.32086 -4.82483 3.97382 
3205 1 0.0902309 0.387378 2.70887 
3207 1 1.71188 -3.47035 0.451607 
12009 1 -0.834612 -3.35256 3.52038 
1350 1 7.51938 -2.65877 -1.52553 
10378 1 -3.55432 -2.01034 -5.8778 
4573 1 -7.32185 -1.99247 -7.48937 
3296 2 -1.91154 3.61806 1.28394 
9688 1 0.283163 -0.319425 -2.33614 
13963 1 -2.03286 3.16779 3.24029 
13964 2 3.97508 1.21957 -0.590238 
13965 1 5.14005 0.871504 1.71199 
3116 2 0.182702 -1.3902 -0.188884 
21384 1 -6.54837 -0.924873 -1.33842 
12008 2 -2.22552 -1.2212 3.86607 
12007 1 1.66211 2.63652 0.401786 
3117 1 2.50817 3.93454 -2.85704 
8417 2 -2.31591 0.172861 -1.61342 
16978 1 -2.23054 -3.01568 -0.144203 
8418 1 -1.72743 1.29508 0.0506749 
16979 2 -1.78666 3.91195 2.84489 
16980 1 0.00202189 -4.14507 -4.84334 
19380 1 -1.14781 -2.37156 -0.222096 
20673 1 0.147141 5.77588 1.48554 
19379 2 -0.711654 3.72088 2.90569 
10139 2 2.22665 2.69055 0.571003 
9690 1 0.927776 -1.40582 -4.00093 
10138 1 0.137811 0.767157 0.0339063 
9689 3 -1.45391 -0.99079 -1.39192 
8681 2 1.73481 1.05636 -0.914483 
8682 1 3.51839 -5.65389 -2.36762 
4905 1 3.01635 1.13783 4.31354 
4904 2 3.71712 0.694314 -4.7139 
309 1 -7.53083 -2.8583 -3.7726 
308 2 1.85027 1.35405 -5.11813 
307 1 0.639979 -2.85591 1.2878 
20476 1 -3.69965 1.32012 -4.49722 
7516 1 3.11921 -1.32769 -0.709262 
7518 1 -5.50283 2.62257 5.91675 
7517 2 0.0272429 0.057819 1.41978 
12321 1 3.78419 1.68968 -1.52457 
12320 2 -0.518214 0.208714 -0.839786 
20477 2 1.88889 -1.05333 -0.29001 
10234 1 -0.0598626 0.294522 5.14216 
19378 1 -5.68054 -3.89322 -1.3252 
15737 3 -0.780184 -1.53122 4.34869 
15738 1 -0.882912 -2.76686 0.756011 
10235 3 -1.85942 3.47799 1.99172 
10236 1 1.60395 2.63788 1.19843 
15736 1 3.97748 5.85939 -1.69247 
4903 1 4.15281 6.65708 4.472 
20478 1 1.42412 1.67772 -0.527155 
690 1 3.0293 3.88598 3.49074 
688 1 -3.25951 1.73572 -2.99021 
689 3 -2.30946 3.48896 -0.250463 
14179 1 1.01662 -0.564121 -1.44944 
14180 3 2.2327 -5.68202 0.519542 
16744 1 3.45685 -1.38195 -0.646928 
16745 2 1.46806 0.800576 3.04338 
11086 1 -7.93918 -2.89427 -3.0844 
16746 1 4.51352 2.7905 2.21811 
11087 2 1.8696 -2.37095 -4.31266 
15346 1 -7.90644 1.1252 -4.35106 
11088 1 7.5246 3.48309 6.32714 
15347 2 -2.51065 0.440831 1.17647 
15348 1 0.182318 -7.54832 5.84449 
16737 1 5.49076 2.68731 -1.37061 
16736 2 -0.238951 1.19956 0.481472 
16735 1 0.664673 1.22912 -4.05174 
16754 2 -0.692605 1.21606 -3.41972 
16753 1 5.80488 0.533783 0.85742 
2033 2 -0.587613 -1.88483 3.77614 
2034 1 0.654567 -0.345603 -1.51618 
4926 1 -1.15976 2.7868 4.81044 
2032 1 4.02407 -1.34809 0.424847 
5870 2 -2.6536 -2.71743 0.52682 
6321 1 -0.515081 0.137884 2.76349 
6320 2 -1.32614 1.16748 -0.496633 
1753 1 -0.993727 4.86552 4.23538 
1754 2 0.742582 -1.00536 -3.45392 
6319 1 0.806703 -3.27996 -0.50701 
1755 1 2.16692 -1.7004 -2.8057 
5869 1 -3.39073 -5.49905 3.24962 
10568 2 -3.25573 -2.69103 1.37205 
10567 1 0.820477 1.97408 -1.95931 
15990 1 1.14357 -6.96974 2.12873 
15989 2 1.24698 -2.06223 1.15148 
15744 1 3.6246 3.62779 3.81802 
15743 2 1.67243 -0.348969 -0.264777 
14726 2 1.73587 2.93508 1.34115 
14727 1 -3.5827 -2.99988 1.23476 
15742 1 -2.39644 1.56206 -1.09931 
9274 1 3.77593 -0.294729 -1.75483 
21154 1 -3.5495 3.83277 -2.54142 
21155 2 -0.237557 1.0542 -0.908804 
136 1 -3.84641 2.571 -1.29312 
21156 1 -1.30869 0.168653 -4.17142 
14725 1 -1.19349 -0.602054 -1.82508 
2616 1 -2.88411 -3.04765 -0.265563 
2615 2 -3.19053 -0.838649 2.51932 
2614 1 -1.25436 -1.7345 -3.83469 
4940 2 -2.07189 1.08829 2.18475 
4941 1 -3.54615 5.82908 -1.70874 
9213 1 0.642548 1.64625 -4.03134 
4164 1 1.82744 -0.371713 3.47546 
9212 2 1.7061 2.06709 1.66003 
9211 1 -1.00636 4.17794 -7.64271 
9271 1 2.8942 -2.49444 3.47171 
1699 1 -1.11246 -4.29153 -3.12741 
1700 2 -1.19434 -2.44744 -5.13132 
4654 1 -1.19848 0.664578 -1.25318 
4163 2 0.749944 0.292292 -3.45568 
4453 1 -7.28501 0.0549319 -1.15395 
9054 1 -3.88554 2.66821 0.582065 
9053 2 -4.66909 0.0637444 -1.1757 
5871 1 2.14443 4.65441 3.30541 
9052 1 -0.274038 4.22175 0.968904 
17090 2 2.30827 -1.50875 3.88984 
17091 1 -2.88104 -1.98861 -4.21148 
2790 1 2.32811 7.36596 3.17583 
3657 1 1.48009 1.20331 -1.34419 
3655 1 3.44198 -3.94926 4.0866 
3656 2 2.23517 0.388416 0.222985 
13862 2 -0.677353 -4.96936 -0.794626 
13861 1 -0.543813 -6.26265 -2.83214 
7022 2 4.68272 -0.773129 2.43985 
7023 1 -0.429085 6.98594 -4.41243 
11230 1 -5.56422 1.62991 -4.22385 
7021 1 0.10386 1.53775 -2.7073 
15988 1 0.557812 -7.37131 -4.65964 
13863 1 -3.7102 -9.32238 -4.99589 
14938 1 3.70337 -0.983706 -3.68149 
900 1 -0.264657 0.522111 -1.87119 
14026 1 1.5381 0.471159 2.58926 
14027 2 0.715105 -2.78812 3.65918 
14028 1 0.710785 2.17838 1.58942 
6403 1 -7.68379 -1.59079 7.85458 
18439 1 0.850574 -6.03979 5.16461 
18440 2 -3.07669 3.76124 1.39855 
2042 2 0.964343 0.916176 5.05191 
18441 1 -0.88606 3.28996 -4.46444 
2043 1 -5.24611 -0.357356 3.59595 
8496 1 0.555696 6.00861 0.996466 
1701 1 -2.04442 0.920655 -1.28444 
4656 1 -0.771848 -1.4522 -5.56446 
4655 2 -0.886557 -0.428583 -0.636047 
11234 2 2.18337 -0.507746 -0.97896 
11112 1 1.45021 3.07156 0.104673 
5462 2 -0.0961853 7.54443 1.30353 
5461 1 5.92656 3.20167 -2.31383 
5463 1 0.767994 4.47964 -0.700647 
11233 1 2.79554 0.779798 -0.331765 
13612 1 -0.563773 4.67726 -6.08948 
11111 2 -0.862207 1.56769 -1.07582 
2789 2 -8.66117 -0.17441 0.570293 
2982 1 3.38158 1.84799 1.69272 
13613 2 -3.80604 -2.60494 -1.40688 
11110 1 -3.80685 4.57176 -6.20411 
21397 1 -2.43692 0.198045 3.39453 
14368 1 -1.04517 2.33128 3.30596 
11231 2 4.17357 -3.40044 3.43965 
11232 1 6.83342 -0.944981 6.54463 
7115 2 4.05823 -2.45286 3.02123 
9922 1 4.26513 -0.449807 -9.27908 
9923 2 -0.405841 1.43871 -2.08683 
9924 1 7.78421 0.318287 -4.80893 
4776 1 -1.98652 -0.934779 -0.0143475 
8274 1 -1.27971 4.62257 -1.9235 
8273 2 2.05402 -0.736934 -1.11421 
5362 1 -3.15619 1.56221 -3.31771 
8272 1 -0.059814 2.19115 -4.55814 
5363 2 -1.65078 1.02495 1.62394 
5364 1 -8.2531 2.4212 -2.34802 
899 2 -2.61753 -0.628442 2.33284 
898 1 1.37334 0.150737 1.55619 
8520 1 5.20628 -4.63295 2.49275 
8518 1 -6.58948 -3.60463 1.27596 
8519 2 -0.684128 2.29812 -2.02979 
2652 1 1.61671 -1.11147 3.18906 
11664 1 0.753982 1.33522 -1.59502 
2651 2 2.11057 -1.40601 -3.45274 
2650 1 -3.01168 -0.459073 3.45625 
5846 2 2.14202 -0.513446 -3.27519 
15401 2 0.523956 3.059 4.49536 
11235 1 4.11551 -6.38603 -0.806627 
13014 1 2.55672 0.919445 -1.56812 
16462 1 -0.405007 -0.508991 -5.41057 
5845 1 -3.5918 1.01742 -2.17015 
16463 2 1.05651 3.40797 -1.12848 
16464 1 3.32592 -0.416466 -3.83052 
14369 2 -0.803121 0.259948 -0.81319 
6277 1 -8.73791 3.51389 -0.641483 
6278 2 1.03439 0.044503 -1.11838 
14370 1 -2.93412 3.46161 -0.964147 
6279 1 -3.57574 0.923768 -3.63275 
2210 2 0.559833 -1.13806 -4.08605 
4557 1 -3.61082 -4.71399 -0.752782 
2209 1 3.42968 0.416144 -1.69154 
1506 1 -0.0859424 -5.73772 -0.30637 
2211 1 -1.27609 -4.81087 -0.269095 
7116 1 3.29609 -3.0109 4.19625 
5706 1 3.08953 0.0963002 -6.39243 
5705 2 -3.02225 0.5768 -0.633003 
10379 2 7.32588 0.241077 0.241185 
10380 1 -2.38001 2.09038 1.82942 
6107 2 -2.57757 2.57116 -0.138341 
1348 1 4.81232 1.2858 0.48694 
6108 1 8.21535 3.4769 0.532688 
6106 1 -1.05574 -1.86078 2.60189 
2637 1 1.47314 -0.881746 -3.08287 
5704 1 -1.54794 0.870751 2.50308 
11663 2 1.79196 1.10195 -2.83699 
15400 1 5.80811 1.11905 -1.32937 
11662 1 -6.6373 -0.126093 -4.11641 
15907 1 2.28475 -0.296193 -2.96575 
15908 2 1.13079 2.01734 -3.78069 
15909 1 1.45846 0.504527 0.358262 
3115 1 1.9504 -4.13634 1.29197 
21382 1 2.99228 -3.62332 -5.27935 
21383 2 2.63473 -0.597994 -4.00015 
4555 1 3.04789 -4.79137 -7.84543 
1349 2 -2.826 0.943881 2.84322 
9981 1 -3.46497 1.09396 3.67802 
4556 2 -0.651179 1.9846 -4.6646 
21460 1 -3.45056 0.0614717 -4.64446 
21461 2 -0.0694408 1.00903 -0.0524969 
21462 1 -0.408705 -2.3332 0.758931 
20671 1 -4.36108 4.27633 4.03579 
20672 3 0.749478 -1.5462 -1.05579 
15613 1 0.387795 4.60674 -3.29384 
15614 2 8.2021 -0.930694 -2.21975 
9980 2 -0.406193 0.563019 -1.84967 
9979 1 -2.57808 3.66789 -4.90083 
15615 1 2.38839 -4.66644 0.826488 
6751 1 2.50251 0.26789 -2.99946 
12319 1 -0.0735976 0.110537 -3.81671 
6752 2 1.81033 5.04275 1.86688 
6753 1 -2.30847 0.382454 -0.303597 
14181 1 -1.56488 -3.18191 -3.28016 
650 3 -0.477005 -2.6975 -0.0011151 
651 1 7.22781 -0.930747 -4.1433 
649 1 -4.13194 6.2528 2.40726 
8022 1 -0.259306 0.945608 5.0699 
16755 1 -0.939533 -0.318056 7.91483 
2075 2 -4.09496 1.03047 -2.55878 
2076 1 3.29268 4.14365 3.42547 
10375 1 2.67 -2.01835 1.37672 
2074 1 1.00187 3.5447 -1.53978 
1003 1 0.350373 6.65883 -4.06406 
13410 1 -2.13231 1.33437 0.511278 
13409 2 5.31505 1.31997 1.83428 
13408 1 -2.67831 4.46756 -8.05482 
241 1 -0.882677 -4.23759 -4.08876 
1004 3 3.69315 1.28854 2.48746 
8021 2 0.467769 -2.38301 1.65015 
4939 1 4.1565 -3.74233 2.13647 
8020 1 -5.24985 5.6281 5.51095 
18416 2 -0.966182 1.63949 -1.56693 
18417 1 -2.40151 -4.41233 4.58621 
4162 1 1.8716 1.3606 -3.01092 
19580 2 -0.122127 2.32464 -0.040046 
17546 2 0.960696 -2.71458 -2.96658 
17545 1 5.9589 1.36116 1.55057 
19581 1 -4.53066 -4.57918 -8.61043 
10377 1 5.30489 -5.13021 -1.25553 
10376 2 -1.21257 1.24076 -1.09203 
19579 1 -7.82157 0.156188 2.59949 
6716 2 -1.92858 -1.50047 -0.407342 
6715 1 -7.23653 -0.134659 0.689787 
17089 1 4.35869 -0.525261 5.50892 
242 2 -0.59681 7.64445 -3.64532 
243 1 -1.76243 -1.33534 1.06081 
13885 1 -2.06221 3.03043 1.3329 
13886 2 1.40627 -3.3847 1.9885 
11882 2 0.278963 -1.39641 -2.78546 
11883 1 -4.17062 -1.40388 2.57668 
11881 1 7.87981 0.664673 6.28602 
18780 1 7.58417 4.31447 0.580211 
9275 2 -2.29959 0.64352 1.1978 
8879 2 -2.29432 -0.230474 -1.22438 
17212 1 2.42591 -6.99337 4.88419 
8880 1 0.0501339 -5.78428 1.66349 
8878 1 0.471279 -1.1166 -0.526445 
2041 1 -2.28082 -1.05504 -1.0239 
13800 1 0.113451 0.0952268 -0.295639 
13012 1 0.702097 4.11272 -2.99608 
9276 1 0.933655 -0.710304 0.692634 
14058 1 2.53657 0.436429 0.239912 
14057 2 -1.22316 1.57433 -1.18422 
14056 1 2.26859 -1.20877 1.35575 
13798 1 -3.3434 -0.788098 6.49504 
18415 1 -2.63803 -6.52825 2.41338 
12915 1 -7.38779 -1.0144 2.31855 
13799 2 -3.55205 4.07879 2.45945 
12914 2 3.8211 -4.2552 -0.802698 
13013 2 -1.13071 3.65027 -5.06178 
3106 1 0.650334 -3.06338 -0.764017 
3107 2 0.889003 4.45974 2.65067 
3108 1 3.6592 -1.84698 2.5311 
1618 1 -3.40685 7.42175 0.209347 
12913 1 4.22019 -0.775067 -1.67354 
19917 1 -5.04663 3.83391 1.36721 
6717 1 -8.18116 0.039346 0.923036 
20196 1 -7.12456 -3.88152 -3.79898 
20195 2 -0.59015 0.0154172 2.74897 
2788 1 -0.110117 1.18334 9.1643 
8298 1 -0.361196 -1.55942 -0.471217 
8297 2 0.883061 0.80947 -2.27765 
20194 1 -6.57681 2.7919 -0.55764 
19401 1 0.466732 2.59351 4.06659 
4121 2 -0.317025 -2.24678 -2.56117 
8296 1 3.57012 4.05824 -6.26614 
4120 1 2.86984 2.36003 -1.24216 
21398 2 -3.48964 1.22679 -0.732961 
4816 1 -0.574698 -0.442446 5.13712 
21399 1 3.68969 1.44862 -7.24405 
19400 2 1.74566 3.86023 -1.03141 
6342 1 -1.2426 0.46454 -2.51292 
7114 1 0.90112 2.801 7.29555 
4774 1 -7.44334 -0.175834 5.51085 
6340 1 -5.00973 1.53031 5.15936 
4775 2 -0.0615295 -1.97047 1.01779 
4818 1 -1.72612 -4.14331 0.59502 
6341 2 1.47934 -1.80794 -2.64617 
17214 1 -0.803823 0.163697 -1.70705 
17213 2 0.886527 1.51111 -0.964283 
18779 2 -1.51825 -1.77572 -1.23554 
18778 1 1.39437 -2.74926 -0.10842 
462 1 -3.88026 -0.365801 0.817594 
461 2 0.587264 1.74223 -2.66337 
460 1 7.82951 5.37753 -0.171023 
1366 1 2.87739 0.901296 -2.95283 
1367 2 0.505977 0.697851 2.16945 
1368 1 0.914673 7.21048 1.13202 
19864 1 1.58482 -3.52843 2.61749 
7200 1 -1.67962 2.05734 -6.16208 
21421 1 -4.44861 5.85791 -4.1992 
7199 2 3.39787 -2.65108 1.98425 
2532 1 4.75265 1.60639 2.97453 
1619 2 1.1165 -0.0963247 -0.433585 
21422 2 -2.13522 1.09519 0.76185 
1620 1 -1.25631 -2.095 -1.77473 
1504 1 1.15591 -3.34161 3.74033 
21423 1 -0.465579 2.24493 -5.97978 
2531 2 -2.32562 2.17774 -4.9546 
2530 1 -0.571973 3.37897 -0.836228 
4817 2 -1.74954 -1.70555 0.294964 
1505 2 3.81167 0.548074 -0.0147577 
19399 1 -0.10033 -0.922352 1.29611 
601 1 4.08406 -3.10634 -3.16888 
13663 1 -5.42617 -5.55702 -1.68051 
603 1 1.90132 4.68054 5.29803 
602 2 2.58349 0.385706 1.78738 
2636 2 2.68736 -0.00390687 1.28628 
19865 2 -0.995385 -1.99984 -0.656456 
17463 1 -1.08472 -3.51206 1.01287 
17462 2 3.11243 1.58171 -0.412127 
17461 1 0.0614408 -3.28928 -1.52005 
19866 1 -6.21935 -1.95839 -4.40698 
20856 1 -4.66202 1.91251 -0.28801 
20855 3 -3.32558 0.304075 -1.27763 
20854 1 2.67555 0.718405 -0.156348 
13665 1 -9.36248 1.21626 -4.24048 
13664 2 1.94775 0.331229 -2.15895 
2635 1 -0.788675 0.857117 1.03182 
6891 1 0.299832 6.62576 3.01495 
6890 3 -0.25802 -1.26961 2.62192 
6889 1 1.73996 3.66586 1.4787 
17460 1 -5.60098 -1.04548 3.23163 
1005 1 3.90425 0.057209 -5.09186 
17458 1 -2.74077 0.686673 -1.83333 
17459 2 -0.356723 -2.38454 0.154705 
17547 1 0.837554 3.22008 -0.803581 
7711 1 0.609097 0.015412 -4.17348 
2278 1 -2.54937 -3.75228 -1.57968 
17534 2 0.786032 5.10312 -0.11088 
17535 1 0.883196 1.10682 -1.76505 
17533 1 -1.71988 6.29235 -0.478953 
13887 1 1.32296 -3.14384 -2.42085 
9025 1 -0.420738 2.79989 0.555155 
9026 2 3.61007 0.182964 3.47624 
16397 2 -5.13414 -0.264767 2.44848 