ITEM: TIMESTEP
0
ITEM: NUMBER OF ATOMS
1206
ITEM: BOX BOUNDS pp pp pp
0.0000000000000000e+00 5.0000000000000000e+01
0.0000000000000000e+00 5.0000000000000000e+01
0.0000000000000000e+00 5.0000000000000000e+01
ITEM: ATOMS id type 
133 1 
134 3 
135 1 
322 1 
323 2 
324 1 
367 1 
368 2 
369 1 
382 1 
383 2 
384 1 
1279 1 
1280 2 
1281 1 
1441 1 
1442 2 
1443 1 
1516 1 
1517 2 
1518 1 
2248 1 
2249 2 
2250 1 
2302 1 
2303 2 
2304 1 
3190 1 
3191 2 
3192 1 
3196 1 
3197 2 
3198 1 
3496 1 
3497 2 
3498 1 
3610 1 
3611 2 
3612 1 
3685 1 
3686 3 
3687 1 
3721 1 
3722 2 
3723 1 
3736 1 
3737 2 
3738 1 
4396 1 
4397 3 
4398 1 
4399 1 
4400 2 
4401 1 
4510 1 
4511 2 
4512 1 
4687 1 
4688 2 
4689 1 
4699 1 
4700 3 
4701 1 
5587 1 
5588 2 
5589 1 
5608 1 
5609 2 
5610 1 
6853 1 
6854 2 
6855 1 
7102 1 
7103 2 
7104 1 
7819 1 
7820 2 
7821 1 
7945 1 
7946 2 
7947 1 
7993 1 
7994 2 
7995 1 
8161 1 
8162 2 
8163 1 
8239 1 
8240 2 
8241 1 
8242 1 
8243 2 
8244 1 
8308 1 
8309 2 
8310 1 
9010 1 
9011 2 
9012 1 
9088 1 
9089 2 
9090 1 
9181 1 
9182 2 
9183 1 
9268 1 
9269 2 
9270 1 
9325 1 
9326 2 
9327 1 
9967 1 
9968 2 
9969 1 
10048 1 
10049 2 
10050 1 
10084 1 
10085 2 
10086 1 
10201 1 
10202 2 
10203 1 
10267 1 
10268 2 
10269 1 
10282 1 
10283 2 
10284 1 
10345 1 
10346 2 
10347 1 
10408 1 
10409 3 
10410 1 
10447 1 
10448 2 
10449 1 
11161 1 
11162 3 
11163 1 
11287 1 
11288 2 
11289 1 
11296 1 
11297 2 
11298 1 
11464 1 
11465 2 
11466 1 
12136 1 
12137 2 
12138 1 
12256 1 
12257 2 
12258 1 
12322 1 
12323 2 
12324 1 
12367 1 
12368 2 
12369 1 
12379 1 
12380 2 
12381 1 
12508 1 
12509 2 
12510 1 
13228 1 
13229 2 
13230 1 
13348 1 
13349 2 
13350 1 
13504 1 
13505 2 
13506 1 
13582 1 
13583 2 
13584 1 
13585 1 
13586 2 
13587 1 
14656 1 
14657 2 
14658 1 
15493 1 
15494 2 
15495 1 
15628 1 
15629 2 
15630 1 
15682 1 
15683 2 
15684 1 
15727 1 
15728 2 
15729 1 
16339 1 
16340 2 
16341 1 
16402 1 
16403 3 
16404 1 
16450 1 
16451 2 
16452 1 
16645 1 
16646 2 
16647 1 
16693 1 
16694 2 
16695 1 
17344 1 
17345 2 
17346 1 
17401 1 
17402 3 
17403 1 
17464 1 
17465 3 
17466 1 
17659 1 
17660 2 
17661 1 
18721 1 
18722 2 
18723 1 
18781 1 
18782 2 
18783 1 
18784 1 
18785 2 
18786 1 
18790 1 
18791 2 
18792 1 
18793 1 
18794 2 
18795 1 
18850 1 
18851 2 
18852 1 
18868 1 
18869 2 
18870 1 
19522 1 
19523 2 
19524 1 
19699 1 
19700 2 
19701 1 
19702 1 
19703 3 
19704 1 
20647 1 
20648 2 
20649 1 
20653 1 
20654 2 
20655 1 
20779 1 
20780 3 
20781 1 
20827 1 
20828 2 
20829 1 
20905 1 
20906 2 
20907 1 
20947 1 
20948 2 
20949 1 
115 1 
116 2 
117 1 
220 1 
221 2 
222 1 
1198 1 
1199 2 
1200 1 
1363 1 
1364 2 
1365 1 
1411 1 
1412 2 
1413 1 
1492 1 
1493 2 
1494 1 
1543 1 
1544 2 
1545 1 
1663 1 
1664 2 
1665 1 
2257 1 
2258 2 
2259 1 
2491 1 
2492 2 
2493 1 
2626 1 
2627 2 
2628 1 
2638 1 
2639 2 
2640 1 
3283 1 
3284 2 
3285 1 
3637 1 
3638 2 
3639 1 
3643 1 
3644 2 
3645 1 
3715 1 
3716 2 
3717 1 
3769 1 
3770 2 
3771 1 
4594 1 
4595 2 
4596 1 
4603 1 
4604 2 
4605 1 
4675 1 
4676 2 
4677 1 
4726 1 
4727 2 
4728 1 
5563 1 
5564 2 
5565 1 
5569 1 
5570 2 
5571 1 
5614 1 
5615 2 
5616 1 
5623 1 
5624 2 
5625 1 
5629 1 
5630 3 
5631 1 
5809 1 
5810 2 
5811 1 
5857 1 
5858 2 
5859 1 
5872 1 
5873 2 
5874 1 
5938 1 
5939 2 
5940 1 
6817 1 
6818 2 
6819 1 
7003 1 
7004 2 
7005 1 
7174 1 
7175 2 
7176 1 
7237 1 
7238 2 
7239 1 
7249 1 
7250 2 
7251 1 
7831 1 
7832 2 
7833 1 
7969 1 
7970 3 
7971 1 
8140 1 
8141 3 
8142 1 
8143 1 
8144 2 
8145 1 
8314 1 
8315 2 
8316 1 
9043 1 
9044 2 
9045 1 
9166 1 
9167 2 
9168 1 
9217 1 
9218 2 
9219 1 
9292 1 
9293 2 
9294 1 
9343 1 
9344 2 
9345 1 
9991 1 
9992 2 
9993 1 
10060 1 
10061 2 
10062 1 
11218 1 
11219 2 
11220 1 
11326 1 
11327 2 
11328 1 
11518 1 
11519 2 
11520 1 
12163 1 
12164 2 
12165 1 
12229 1 
12230 3 
12231 1 
12295 1 
12296 2 
12297 1 
12397 1 
12398 2 
12399 1 
12409 1 
12410 2 
12411 1 
12412 1 
12413 3 
12414 1 
12457 1 
12458 2 
12459 1 
12535 1 
12536 3 
12537 1 
12580 1 
12581 2 
12582 1 
12652 1 
12653 3 
12654 1 
13294 1 
13295 2 
13296 1 
13309 1 
13310 2 
13311 1 
13318 1 
13319 2 
13320 1 
13429 1 
13430 2 
13431 1 
13477 1 
13478 2 
13479 1 
13594 1 
13595 2 
13596 1 
14338 1 
14339 2 
14340 1 
14491 1 
14492 2 
14493 1 
14518 1 
14519 2 
14520 1 
14563 1 
14564 2 
14565 1 
14614 1 
14615 2 
14616 1 
15340 1 
15341 2 
15342 1 
15397 1 
15398 2 
15399 1 
16366 1 
16367 2 
16368 1 
16369 1 
16370 2 
16371 1 
16375 1 
16376 2 
16377 1 
16474 1 
16475 2 
16476 1 
16492 1 
16493 2 
16494 1 
16603 1 
16604 2 
16605 1 
16714 1 
16715 2 
16716 1 
16720 1 
16721 2 
16722 1 
17338 1 
17339 2 
17340 1 
17380 1 
17381 2 
17382 1 
17614 1 
17615 2 
17616 1 
17737 1 
17738 2 
17739 1 
18814 1 
18815 2 
18816 1 
19483 1 
19484 2 
19485 1 
19660 1 
19661 2 
19662 1 
19732 1 
19733 2 
19734 1 
19789 1 
19790 2 
19791 1 
20566 1 
20567 2 
20568 1 
20617 1 
20618 2 
20619 1 
20677 1 
20678 2 
20679 1 
20806 1 
20807 2 
20808 1 
20809 1 
20810 2 
20811 1 
20869 1 
20870 2 
20871 1 
20878 1 
20879 2 
20880 1 
20926 1 
20927 2 
20928 1 
21043 1 
21044 2 
21045 1 
859 1 
860 2 
861 1 
913 1 
914 2 
915 1 
2167 1 
2168 2 
2169 1 
3001 1 
3002 2 
3003 1 
3787 1 
3788 2 
3789 1 
3844 1 
3845 2 
3846 1 
3922 1 
3923 2 
3924 1 
4168 1 
4169 2 
4170 1 
4288 1 
4289 2 
4290 1 
5005 1 
5006 2 
5007 1 
5116 1 
5117 2 
5118 1 
5356 1 
5357 2 
5358 1 
6181 1 
6182 2 
6183 1 
6250 1 
6251 2 
6252 1 
6313 1 
6314 2 
6315 1 
6439 1 
6440 2 
6441 1 
6604 1 
6605 2 
6606 1 
7267 1 
7268 2 
7269 1 
7504 1 
7505 2 
7506 1 
7630 1 
7631 2 
7632 1 
7702 1 
7703 2 
7704 1 
8359 1 
8360 2 
8361 1 
8473 1 
8474 2 
8475 1 
8524 1 
8525 2 
8526 1 
8647 1 
8648 2 
8649 1 
8848 1 
8849 2 
8850 1 
9610 1 
9611 2 
9612 1 
9670 1 
9671 2 
9672 1 
9730 1 
9731 2 
9732 1 
9745 1 
9746 2 
9747 1 
9787 1 
9788 2 
9789 1 
10705 1 
10706 2 
10707 1 
10864 1 
10865 2 
10866 1 
10939 1 
10940 2 
10941 1 
10984 1 
10985 2 
10986 1 
11707 1 
11708 2 
11709 1 
11884 1 
11885 2 
11886 1 
11899 1 
11900 2 
11901 1 
12019 1 
12020 2 
12021 1 
12748 1 
12749 2 
12750 1 
12844 1 
12845 2 
12846 1 
12961 1 
12962 2 
12963 1 
13024 1 
13025 2 
13026 1 
13105 1 
13106 3 
13107 1 
13705 1 
13706 2 
13707 1 
13882 1 
13883 2 
13884 1 
13924 1 
13925 3 
13926 1 
14041 1 
14042 2 
14043 1 
14053 1 
14054 2 
14055 1 
14062 1 
14063 2 
14064 1 
14167 1 
14168 2 
14169 1 
14896 1 
14897 2 
14898 1 
14959 1 
14960 3 
14961 1 
15085 1 
15086 2 
15087 1 
15148 1 
15149 2 
15150 1 
15193 1 
15194 2 
15195 1 
15205 1 
15206 2 
15207 1 
15247 1 
15248 2 
15249 1 
15265 1 
15266 2 
15267 1 
16279 1 
16280 2 
16281 1 
16756 1 
16757 2 
16758 1 
16804 1 
16805 2 
16806 1 
16813 1 
16814 2 
16815 1 
16876 1 
16877 2 
16878 1 
16924 1 
16925 2 
16926 1 
16939 1 
16940 2 
16941 1 
17107 1 
17108 2 
17109 1 
17224 1 
17225 2 
17226 1 
17230 1 
17231 2 
17232 1 
17242 1 
17243 2 
17244 1 
17821 1 
17822 2 
17823 1 
17968 1 
17969 2 
17970 1 
18016 1 
18017 2 
18018 1 
18325 1 
18326 2 
18327 1 
19045 1 
19046 2 
19047 1 
19384 1 
19385 2 
19386 1 
19945 1 
19946 3 
19947 1 
20002 1 
20003 2 
20004 1 
20308 1 
20309 2 
20310 1 
20359 1 
20360 2 
20361 1 
21130 1 
21131 2 
21132 1 
21145 1 
21146 2 
21147 1 
21253 1 
21254 3 
21255 1 
21379 1 
21380 2 
21381 1 
21442 1 
21443 2 
21444 1 
21502 1 
21503 2 
21504 1 
583 1 
584 2 
585 1 
826 1 
827 2 
828 1 
871 1 
872 2 
873 1 
952 1 
953 2 
954 1 
991 1 
992 2 
993 1 
1072 1 
1073 2 
1074 1 
1780 1 
1781 2 
1782 1 
1789 1 
1790 2 
1791 1 
1903 1 
1904 3 
1905 1 
2023 1 
2024 2 
2025 1 
2203 1 
2204 2 
2205 1 
2743 1 
2744 2 
2745 1 
2749 1 
2750 3 
2751 1 
2803 1 
2804 2 
2805 1 
2875 1 
2876 2 
2877 1 
2911 1 
2912 2 
2913 1 
2914 1 
2915 2 
2916 1 
2917 1 
2918 2 
2919 1 
2929 1 
2930 2 
2931 1 
2977 1 
2978 2 
2979 1 
2995 1 
2996 2 
2997 1 
3100 1 
3101 2 
3102 1 
3157 1 
3158 2 
3159 1 
3163 1 
3164 2 
3165 1 
3178 1 
3179 2 
3180 1 
3892 1 
3893 2 
3894 1 
4060 1 
4061 2 
4062 1 
4063 1 
4064 2 
4065 1 
4066 1 
4067 2 
4068 1 
4126 1 
4127 2 
4128 1 
4132 1 
4133 2 
4134 1 
4252 1 
4253 2 
4254 1 
4318 1 
4319 2 
4320 1 
4957 1 
4958 2 
4959 1 
4975 1 
4976 2 
4977 1 
5089 1 
5090 2 
5091 1 
5131 1 
5132 2 
5133 1 
5149 1 
5150 2 
5151 1 
5278 1 
5279 2 
5280 1 
5335 1 
5336 2 
5337 1 
5338 1 
5339 2 
5340 1 
5398 1 
5399 2 
5400 1 
6175 1 
6176 2 
6177 1 
6214 1 
6215 2 
6216 1 
6235 1 
6236 2 
6237 1 
6274 1 
6275 2 
6276 1 
6394 1 
6395 2 
6396 1 
6571 1 
6572 3 
6573 1 
6574 1 
6575 2 
6576 1 
6646 1 
6647 2 
6648 1 
6652 1 
6653 3 
6654 1 
7354 1 
7355 2 
7356 1 
7360 1 
7361 2 
7362 1 
7549 1 
7550 2 
7551 1 
7678 1 
7679 2 
7680 1 
7729 1 
7730 2 
7731 1 
8371 1 
8372 3 
8373 1 
8557 1 
8558 2 
8559 1 
8563 1 
8564 2 
8565 1 
8677 1 
8678 2 
8679 1 
9418 1 
9419 2 
9420 1 
9454 1 
9455 2 
9456 1 
9640 1 
9641 2 
9642 1 
9811 1 
9812 2 
9813 1 
9835 1 
9836 2 
9837 1 
9889 1 
9890 2 
9891 1 
9898 1 
9899 2 
9900 1 
10594 1 
10595 2 
10596 1 
10603 1 
10604 2 
10605 1 
10675 1 
10676 3 
10677 1 
10903 1 
10904 2 
10905 1 
11092 1 
11093 2 
11094 1 
11857 1 
11858 2 
11859 1 
11971 1 
11972 2 
11973 1 
12040 1 
12041 2 
12042 1 
12883 1 
12884 2 
12885 1 
13672 1 
13673 2 
13674 1 
13711 1 
13712 2 
13713 1 
13738 1 
13739 2 
13740 1 
13786 1 
13787 2 
13788 1 
13903 1 
13904 2 
13905 1 
13954 1 
13955 2 
13956 1 
14032 1 
14033 2 
14034 1 
14851 1 
14852 2 
14853 1 
14869 1 
14870 2 
14871 1 
14917 1 
14918 2 
14919 1 
15112 1 
15113 2 
15114 1 
15118 1 
15119 2 
15120 1 
15238 1 
15239 2 
15240 1 
15835 1 
15836 2 
15837 1 
15955 1 
15956 2 
15957 1 
16132 1 
16133 3 
16134 1 
16294 1 
16295 2 
16296 1 
16786 1 
16787 2 
16788 1 
16846 1 
16847 2 
16848 1 
16957 1 
16958 2 
16959 1 
17038 1 
17039 2 
17040 1 
17860 1 
17861 2 
17862 1 
17983 1 
17984 2 
17985 1 
18049 1 
18050 2 
18051 1 
18157 1 
18158 2 
18159 1 
18175 1 
18176 2 
18177 1 
18295 1 
18296 2 
18297 1 
19057 1 
19058 2 
19059 1 
19120 1 
19121 2 
19122 1 
19180 1 
19181 2 
19182 1 
19183 1 
19184 2 
19185 1 
19360 1 
19361 2 
19362 1 
20014 1 
20015 2 
20016 1 
20092 1 
20093 2 
20094 1 
20098 1 
20099 2 
20100 1 
20197 1 
20198 2 
20199 1 
20200 1 
20201 2 
20202 1 
20317 1 
20318 2 
20319 1 
20380 1 
20381 2 
20382 1 
20500 1 
20501 2 
20502 1 
20506 1 
20507 2 
20508 1 
20518 1 
20519 2 
20520 1 
21097 1 
21098 2 
21099 1 
21151 1 
21152 2 
21153 1 
21286 1 
21287 2 
21288 1 
21289 1 
21290 2 
21291 1 
21400 1 
21401 2 
21402 1 
21406 1 
21407 2 
21408 1 
21457 1 
21458 2 
21459 1 
21538 1 
21539 2 
21540 1 
