ITEM: TIMESTEP
25000000
ITEM: NUMBER OF ENTRIES
733
ITEM: BOX BOUNDS pp pp pp
0 50
0 50
0 50
ITEM: ENTRIES c_binfo[1] c_binfo[2] c_binfo[3] 
3 17957 17958 
3 17956 17957 
1 11265 17958 
2 11264 11265 
3 15509 15510 
3 15508 15509 
3 19394 19395 
3 18268 18269 
3 19393 19394 
3 9109 9110 
3 8015 8016 
3 8014 8015 
1 8014 20844 
1 7488 8016 
3 7487 7488 
3 9110 9111 
3 18269 18270 
3 12127 12128 
1 12127 18270 
3 12128 12129 
3 12199 12200 
3 12200 12201 
2 26 27 
3 8914 8915 
3 5215 5216 
1 5215 8916 
3 8915 8916 
2 25 26 
3 8635 8636 
3 8617 8618 
1 8617 14746 
3 14746 14747 
3 9856 9857 
1 9856 17956 
3 9857 9858 
3 1907 1908 
3 12629 12630 
3 12628 12629 
1 1908 12628 
3 1906 1907 
1 1906 7860 
3 7859 7860 
1 1851 6046 
3 6046 6047 
3 6047 6048 
1 6048 11001 
3 14291 14292 
3 8701 8702 
1 8701 9111 
1 8703 17472 
3 8702 8703 
3 17471 17472 
3 17470 17471 
3 14290 14291 
1 1980 14290 
3 1979 1980 
3 1978 1979 
1 1978 11127 
3 14747 14748 
3 13789 13790 
1 13789 17470 
3 11126 11127 
3 1849 1850 
1 1849 10051 
3 10052 10053 
3 10051 10052 
3 7858 7859 
3 6580 6581 
1 6580 19978 
3 6581 6582 
1 6582 8076 
3 8075 8076 
3 1850 1851 
3 7810 7811 
3 1951 1952 
1 1951 7812 
3 19165 19166 
1 16470 19165 
3 7811 7812 
1 936 8074 
3 16469 16470 
3 8074 8075 
3 1456 1457 
3 20843 20844 
3 16468 16469 
3 20842 20843 
1 20842 21028 
3 21023 21024 
3 21022 21023 
3 1457 1458 
3 21028 21029 
3 21029 21030 
3 3503 3504 
3 3502 3503 
1 3502 21030 
1 3504 10171 
3 10171 10172 
3 11125 11126 
1 11125 18208 
1 12969 18210 
3 18209 18210 
3 18208 18209 
3 12968 12969 
3 12967 12968 
3 19978 19979 
3 3334 3335 
3 19979 19980 
1 5805 20157 
3 5803 5804 
3 5804 5805 
1 27 2641 
3 2641 2642 
3 2642 2643 
1 2643 8847 
3 8846 8847 
1 6876 7501 
3 7501 7502 
3 1952 1953 
1 1953 19129 
3 19129 19130 
3 19130 19131 
1 19131 19534 
3 19534 19535 
3 19535 19536 
3 5216 5217 
3 5332 5333 
3 5333 5334 
3 17246 17247 
3 8537 8538 
1 8538 10489 
3 10489 10490 
3 10490 10491 
3 8536 8537 
3 13841 13842 
3 13840 13841 
1 12201 13840 
3 15911 15912 
3 20156 20157 
3 20155 20156 
3 12764 12765 
1 12765 15912 
3 11995 11996 
3 65 66 
3 64 65 
1 7503 11995 
3 7502 7503 
3 11996 11997 
1 8553 11997 
3 11596 11597 
3 11597 11598 
3 8551 8552 
3 8552 8553 
3 15910 15911 
3 209 210 
3 8636 8637 
1 10182 15288 
3 10181 10182 
1 8637 10180 
3 10180 10181 
3 208 209 
3 15287 15288 
3 10534 10535 
1 10534 11596 
2 16684 16685 
2 16685 16686 
3 8618 8619 
3 4985 4986 
3 5737 5738 
3 4984 4985 
1 4984 5737 
2 4178 4179 
3 10699 10700 
3 10700 10701 
2 4177 4178 
1 4177 4998 
3 4997 4998 
3 11000 11001 
3 16973 16974 
3 16972 16973 
3 10999 11000 
3 18350 18351 
3 10292 10293 
3 10291 10292 
1 10291 18349 
3 18349 18350 
3 4213 4214 
3 4214 4215 
1 4215 18586 
3 18586 18587 
3 5662 5663 
3 13790 13791 
3 18587 18588 
3 2656 2657 
3 2657 2658 
1 2658 11272 
3 11272 11273 
3 11273 11274 
3 6832 6833 
1 6832 10173 
3 6833 6834 
3 5738 5739 
1 5739 6834 
3 12956 12957 
3 12955 12956 
3 4996 4997 
1 4996 12955 
3 17887 17888 
3 17888 17889 
3 19166 19167 
3 935 936 
1 4149 17889 
3 4148 4149 
3 4147 4148 
1 4147 12391 
3 12391 12392 
3 934 935 
1 934 15574 
3 15574 15575 
3 15575 15576 
3 12392 12393 
1 15576 18690 
3 5663 5664 
1 10407 21022 
3 18689 18690 
3 5002 5003 
1 5002 16617 
3 5003 5004 
3 10172 10173 
3 11242 11243 
1 11242 19896 
3 11243 11244 
3 9019 9020 
3 9361 9362 
3 9362 9363 
3 9020 9021 
3 19894 19895 
1 9363 21225 
1 1296 17809 
3 17809 17810 
3 1295 1296 
3 1294 1295 
1 1294 17245 
3 17810 17811 
3 12541 12542 
1 12541 17811 
3 7918 7919 
3 3335 3336 
3 6884 6885 
3 17066 17067 
3 17065 17066 
3 6874 6875 
1 6874 17065 
3 6883 6884 
1 6883 17067 
3 6875 6876 
3 10744 10745 
3 10745 10746 
3 8845 8846 
1 8845 17676 
3 17675 17676 
3 17674 17675 
3 15008 15009 
3 15007 15008 
1 15007 17674 
3 20996 20997 
3 20995 20996 
1 3219 20995 
3 3217 3218 
1 3217 10746 
3 3218 3219 
3 10406 10407 
3 9398 9399 
1 9399 20997 
3 10405 10406 
3 9397 9398 
1 9397 10405 
3 11513 11514 
3 16642 16643 
1 9021 16642 
3 5572 5573 
1 5572 19536 
3 16643 16644 
3 5573 5574 
1 5574 11244 
3 19049 19050 
3 19048 19049 
1 2976 19050 
3 2975 2976 
3 17245 17246 
3 11929 11930 
3 11930 11931 
3 5545 5546 
1 5545 11931 
3 5546 5547 
1 5547 14712 
1 8868 10491 
3 8867 8868 
3 8866 8867 
3 18842 18843 
3 18841 18842 
1 3027 18841 
3 12763 12764 
1 11058 12763 
3 21218 21219 
3 3026 3027 
3 3025 3026 
1 3025 9112 
3 15217 15218 
1 15217 21219 
3 11057 11058 
3 11056 11057 
1 3957 11056 
3 3956 3957 
3 9112 9113 
3 6329 6330 
3 17177 17178 
3 17176 17177 
3 16762 16763 
1 16762 17176 
3 9377 9378 
3 3955 3956 
3 16763 16764 
3 2974 2975 
1 2974 16764 
3 2713 2714 
3 2714 2715 
3 9859 9860 
3 9860 9861 
1 9477 9859 
3 9475 9476 
3 9476 9477 
3 21217 21218 
1 210 1078 
3 1078 1079 
3 10340 10341 
1 6453 21217 
3 6452 6453 
3 1079 1080 
3 15286 15287 
3 6451 6452 
1 6451 21552 
3 21551 21552 
3 21550 21551 
3 10535 10536 
3 7447 7448 
1 7447 9378 
3 7448 7449 
3 16930 16931 
3 16931 16932 
3 10339 10340 
1 10339 16932 
3 1066 1067 
3 1067 1068 
1 5220 16248 
3 16247 16248 
3 16246 16247 
3 5219 5220 
3 5218 5219 
3 13843 13844 
2 5992 5993 
1 5992 13843 
2 5993 5994 
3 13844 13845 
3 983 984 
3 982 983 
1 982 21543 
1 1068 11274 
3 20599 20600 
3 7997 7998 
3 8521 8522 
1 8521 20601 
3 20600 20601 
3 21404 21405 
3 21223 21224 
1 21223 21403 
3 21403 21404 
3 21224 21225 
3 14858 14859 
3 14857 14858 
3 3682 3683 
1 3682 14857 
3 3683 3684 
1 3684 11829 
3 17798 17799 
3 13000 13001 
3 18583 18584 
3 18584 18585 
1 13845 16036 
3 16036 16037 
3 16037 16038 
1 16038 18583 
3 11803 11804 
1 11803 12393 
3 11804 11805 
3 16615 16616 
1 16615 21541 
3 16616 16617 
3 18688 18689 
3 7543 7544 
1 7543 18688 
3 21541 21542 
3 21542 21543 
3 16460 16461 
3 16459 16460 
1 7545 16459 
3 7996 7997 
1 7996 14845 
3 14845 14846 
3 19895 19896 
1 6198 6946 
3 6946 6947 
1 6948 16461 
3 6947 6948 
3 14711 14712 
3 14710 14711 
3 6196 6197 
3 6197 6198 
3 12542 12543 
1 12543 13002 
3 13001 13002 
3 11828 11829 
3 11827 11828 
3 7919 7920 
1 10914 18585 
3 10913 10914 
3 10912 10913 
1 171 11805 
3 170 171 
3 13829 13830 
3 13828 13829 
1 13828 18373 
3 18373 18374 
3 169 170 
1 13830 13915 
3 13915 13916 
3 18374 18375 
3 2617 2618 
3 7544 7545 
3 2618 2619 
1 2619 14740 
3 14740 14741 
3 14741 14742 
3 19118 19119 
3 11512 11513 
1 11512 19119 
1 11514 12252 
3 14194 14195 
1 14194 19048 
3 14195 14196 
3 12250 12251 
3 12251 12252 
3 16121 16122 
1 7461 14742 
3 7460 7461 
3 12614 12615 
3 12613 12614 
1 12613 16120 
3 16120 16121 
1 12615 17736 
3 17735 17736 
3 17734 17735 
2 4877 4878 
3 12622 12623 
3 15218 15219 
3 12623 12624 
1 12624 15219 
3 9113 9114 
3 13916 13917 
3 1204 1205 
1 1204 13917 
3 1205 1206 
3 6328 6329 
1 6328 7377 
3 7376 7377 
3 9376 9377 
1 9376 14997 
3 19117 19118 
3 6367 6368 
1 6367 19117 
3 6368 6369 
1 6369 19434 
3 14996 14997 
3 7375 7376 
2 2026 2027 
1 2026 7375 
2 2027 2028 
3 14995 14996 
3 4855 4856 
1 4855 14995 
3 4856 4857 
3 15482 15483 
1 14196 14503 
3 14503 14504 
3 14504 14505 
1 10608 14505 
3 10607 10608 
3 10606 10607 
1 4854 10606 
3 14579 14580 
3 14578 14579 
1 14578 15072 
3 15071 15072 
3 15070 15071 
3 1196 1197 
3 1195 1196 
1 1195 11076 
3 7694 7695 
3 7777 7778 
1 7777 9114 
3 7778 7779 
1 5025 7779 
3 5024 5025 
3 5023 5024 
3 5975 5976 
3 5974 5975 
3 7693 7694 
2 16783 16784 
2 16784 16785 
3 1931 1932 
2 5162 5163 
2 5161 5162 
1 1932 5161 
3 9437 9438 
3 9436 9437 
3 275 276 
3 274 275 
3 8522 8523 
3 17797 17798 
1 4044 17797 
3 4043 4044 
3 13340 13341 
3 1930 1931 
1 1930 13341 
3 7988 7989 
3 7987 7988 
3 13339 13340 
1 1683 13339 
3 1682 1683 
3 9352 9353 
3 9353 9354 
1 9354 21549 
3 21547 21548 
3 21548 21549 
3 4087 4088 
1 4087 21547 
3 14846 14847 
3 14164 14165 
3 14165 14166 
3 2632 2633 
1 2632 14847 
3 2633 2634 
1 2634 5514 
3 5513 5514 
1 8523 16018 
3 16018 16019 
3 16019 16020 
1 2079 16020 
3 5512 5513 
1 5512 8818 
3 8818 8819 
1 8820 21319 
2 21319 21320 
3 8819 8820 
2 21320 21321 
3 4616 4617 
3 4615 4616 
1 4615 18826 
3 4042 4043 
1 4042 4617 
3 18826 18827 
3 18827 18828 
3 3082 3083 
3 3083 3084 
3 2101 2102 
1 2101 3084 
3 2102 2103 
3 391 392 
1 391 2617 
1 4527 10912 
3 1681 1682 
1 1681 17025 
3 4088 4089 
3 17024 17025 
1 393 4525 
3 392 393 
3 4526 4527 
3 4525 4526 
3 2161 2162 
1 2161 4089 
3 2162 2163 
1 2163 15156 
3 15155 15156 
3 15154 15155 
1 15154 18600 
3 18599 18600 
3 7459 7460 
3 574 575 
1 574 7459 
3 575 576 
3 20140 20141 
1 18969 20140 
3 18967 18968 
3 18968 18969 
3 20141 20142 
2 4876 4877 
1 4876 17589 
3 17588 17589 
3 3988 3989 
1 3988 21354 
1 3990 9639 
3 3989 3990 
3 21353 21354 
1 681 5970 
3 17323 17324 
3 21352 21353 
3 5968 5969 
3 9637 9638 
1 9637 17325 
3 17324 17325 
3 9638 9639 
3 5969 5970 
1 2103 11832 
3 4348 4349 
3 305 306 
3 304 305 
1 304 4348 
1 1206 18886 
3 18886 18887 
3 21209 21210 
3 4091 4092 
3 4090 4091 
3 19433 19434 
3 19432 19433 
3 13534 13535 
1 13534 19432 
3 13535 13536 
3 15481 15482 
3 14539 14540 
3 18598 18599 
3 11902 11903 
1 11902 20142 
3 11903 11904 
2 4852 4853 
1 4852 17587 
3 17587 17588 
2 4853 4854 
3 5285 5286 
1 5286 21208 
3 21208 21209 
3 5284 5285 
1 7695 11074 
3 11074 11075 
3 11075 11076 
3 19510 19511 
3 19511 19512 
3 18887 18888 
1 18888 19512 
3 4151 4152 
3 4150 4151 
1 4150 5344 
3 11122 11123 
1 11122 19510 
1 4092 19302 
3 19300 19301 
1 4152 19300 
3 19301 19302 
3 14540 14541 
1 2883 5974 
3 2882 2883 
3 11123 11124 
1 11124 16785 
2 5344 5345 
2 5345 5346 
1 5346 19944 
3 2881 2882 
1 2881 19942 
2 19942 19943 
2 19943 19944 
2 13931 13932 
2 13930 13931 
3 10820 10821 
1 10821 19698 
3 19696 19697 
3 19697 19698 
2 2077 2078 
2 2078 2079 
3 1945 1946 
3 1946 1947 
3 17023 17024 
3 1192 1193 
3 1193 1194 
3 20632 20633 
3 20323 20324 
1 20323 20632 
3 20324 20325 
3 20633 20634 
3 10819 10820 
1 10819 20634 
3 679 680 
1 679 17721 
2 17720 17721 
3 680 681 
2 17719 17720 
3 11831 11832 
3 11830 11831 
1 10437 11830 
3 10436 10437 
3 4349 4350 
3 1634 1635 
3 1633 1634 
1 1633 21210 
3 3508 3509 
3 3509 3510 
3 628 629 
1 628 3508 
1 13536 20125 
3 20125 20126 
3 20126 20127 
3 629 630 
3 10435 10436 
1 10435 20590 
3 20590 20591 
3 20591 20592 
3 10076 10077 
3 10075 10076 
3 3058 3059 
1 3058 10075 
3 3059 3060 
3 5941 5942 
1 5941 10077 
3 5942 5943 
2 11263 11264 
3 7486 7487 
