ITEM: TIMESTEP
25000000
ITEM: NUMBER OF ATOMS
273
ITEM: BOX BOUNDS pp pp pp
0.0000000000000000e+00 5.0000000000000000e+01
0.0000000000000000e+00 5.0000000000000000e+01
0.0000000000000000e+00 5.0000000000000000e+01
ITEM: ATOMS id type xs ys zs
13306 1 0.703069 0.290075 0.466848
19228 1 0.732257 0.342156 0.457133
4964 3 0.780643 0.336731 0.46547
4963 1 0.782591 0.333704 0.459354
19229 2 0.734312 0.349579 0.453878
19230 1 0.733999 0.358027 0.451938
13650 1 0.734228 0.361121 0.451395
13649 3 0.735318 0.368855 0.44982
13648 1 0.741679 0.373811 0.453006
4965 1 0.778468 0.345366 0.466858
14040 1 0.777801 0.34835 0.468131
14038 1 0.773647 0.362285 0.468577
697 1 0.729143 0.377903 0.467787
11154 1 0.743174 0.376092 0.453861
11153 3 0.747641 0.381578 0.456424
11152 1 0.746015 0.386581 0.463247
6847 1 0.745739 0.388525 0.465897
4653 1 0.751556 0.279563 0.479272
14554 1 0.725003 0.287897 0.497699
14556 1 0.710734 0.282949 0.49456
18427 1 0.707002 0.301452 0.48181
13308 1 0.705441 0.299438 0.479446
13307 3 0.703494 0.294066 0.47366
18428 3 0.711712 0.305706 0.487911
18429 1 0.71627 0.30576 0.49465
14555 3 0.718259 0.286197 0.494376
8350 1 0.717662 0.305508 0.497372
8457 1 0.727863 0.288162 0.499072
16028 3 0.756693 0.295623 0.498157
4652 3 0.756611 0.281673 0.486828
16029 1 0.755992 0.289424 0.494151
4651 1 0.756126 0.286942 0.491723
5595 1 0.745102 0.304803 0.47325
5594 3 0.751901 0.300909 0.475268
5593 1 0.759818 0.300499 0.47762
21160 1 0.763294 0.300771 0.478701
16025 3 0.780056 0.295863 0.496194
16024 1 0.77795 0.298921 0.488549
21162 1 0.776671 0.299615 0.485965
21161 3 0.771661 0.301595 0.479553
16551 1 0.691947 0.341272 0.491622
2031 1 0.691319 0.339612 0.494235
16300 1 0.719098 0.336046 0.468778
16301 3 0.72607 0.331678 0.469809
18924 1 0.727058 0.32325 0.486685
15535 1 0.704211 0.321099 0.498475
15536 3 0.708047 0.326265 0.492427
9174 1 0.713202 0.335306 0.489023
15537 1 0.712223 0.332759 0.489422
9173 3 0.716976 0.342401 0.488397
16302 1 0.731519 0.327004 0.472381
18923 3 0.731555 0.317792 0.490637
18922 1 0.737386 0.314331 0.495481
5790 1 0.739144 0.313525 0.497482
9208 1 0.754129 0.328243 0.474407
16875 1 0.753221 0.330486 0.474596
16874 3 0.749863 0.33856 0.474871
9210 1 0.755903 0.317661 0.481352
20549 3 0.786586 0.318165 0.495064
9209 3 0.757852 0.322341 0.474671
1273 1 0.768456 0.323972 0.499413
1275 1 0.767309 0.337052 0.497702
1274 3 0.769048 0.329589 0.49471
692 3 0.787771 0.343203 0.498153
660 1 0.810397 0.326783 0.499732
2963 3 0.816605 0.32591 0.491122
2964 1 0.812211 0.326915 0.497531
6489 1 0.812718 0.341377 0.472132
6488 3 0.809333 0.333717 0.470542
13057 1 0.799586 0.327612 0.473222
6487 1 0.802887 0.329253 0.471908
13058 3 0.793773 0.324043 0.478364
13059 1 0.791274 0.321956 0.484985
20550 1 0.790272 0.320635 0.487741
2962 1 0.821148 0.327099 0.484571
8131 1 0.694554 0.367557 0.499274
16549 1 0.694554 0.345939 0.47631
16550 3 0.693697 0.346201 0.484042
14482 1 0.725843 0.346789 0.494757
20109 1 0.715733 0.369468 0.492739
20108 3 0.719262 0.365302 0.486203
20107 1 0.724714 0.367046 0.480005
699 1 0.726678 0.368186 0.477907
9172 1 0.723616 0.345469 0.492857
16084 1 0.756064 0.343894 0.499711
698 3 0.731744 0.371154 0.472542
14483 3 0.731004 0.350188 0.498879
16873 1 0.74575 0.345076 0.477495
7047 1 0.739707 0.361298 0.483212
5927 3 0.750672 0.373768 0.484381
7046 3 0.740063 0.353771 0.48161
7045 1 0.744453 0.347252 0.478658
5928 1 0.752913 0.370269 0.478441
3294 1 0.754109 0.368707 0.476587
16086 1 0.768406 0.349725 0.496992
16085 3 0.760131 0.3492 0.495325
14039 3 0.775696 0.355196 0.471156
3293 3 0.758194 0.363417 0.471842
3292 1 0.764571 0.358403 0.470725
21429 1 0.777993 0.365536 0.485566
21428 3 0.777961 0.359792 0.491628
21427 1 0.781388 0.35437 0.496515
11674 1 0.813417 0.346907 0.496641
19474 1 0.815415 0.346857 0.494667
2906 3 0.793472 0.349337 0.479293
693 1 0.791259 0.345198 0.491344
2907 1 0.791978 0.346026 0.48791
2905 1 0.796364 0.35414 0.473764
19475 3 0.820356 0.346279 0.489522
19476 1 0.827591 0.346412 0.488119
6305 3 0.736755 0.377429 0.495196
6936 1 0.749483 0.399071 0.495577
5926 1 0.745697 0.375711 0.489705
6306 1 0.743109 0.376188 0.491335
6848 3 0.745364 0.393474 0.47215
2892 1 0.742375 0.39642 0.482656
6849 1 0.743019 0.395831 0.480326
2891 3 0.740631 0.398779 0.490321
2890 1 0.747249 0.398889 0.4939
4888 1 0.766919 0.375079 0.495918
14271 1 0.6878 0.279932 0.530609
14171 2 0.694331 0.304415 0.521535
14172 1 0.692112 0.297675 0.525523
14170 1 0.696502 0.308611 0.5149
14269 1 0.691102 0.294665 0.526345
14270 2 0.689212 0.287528 0.527122
15283 1 0.69709 0.310603 0.512093
8351 3 0.721771 0.303964 0.504768
8352 1 0.72626 0.307453 0.509409
8455 1 0.742958 0.283714 0.505065
16027 1 0.750689 0.301435 0.500241
8456 3 0.735775 0.286828 0.501779
5788 1 0.748975 0.303773 0.500775
5789 3 0.744295 0.310659 0.502354
16026 1 0.782046 0.298633 0.502908
2030 3 0.68912 0.335457 0.501166
2029 1 0.68651 0.332887 0.508089
7475 3 0.721181 0.325545 0.509998
7476 1 0.714868 0.326545 0.515485
2500 1 0.72195 0.339639 0.5287
20256 1 0.72428 0.340165 0.528142
2501 3 0.714073 0.339783 0.529757
15284 3 0.697376 0.314843 0.505212
15285 1 0.702641 0.319523 0.500221
7474 1 0.722466 0.317692 0.510009
9039 1 0.74474 0.326699 0.530626
9038 3 0.750305 0.32803 0.523974
9037 1 0.757371 0.331907 0.522685
20255 3 0.732775 0.341918 0.526043
17374 1 0.741495 0.336216 0.505157
17375 3 0.749463 0.33565 0.504456
17376 1 0.754364 0.341392 0.500804
15604 1 0.768063 0.321929 0.501168
7177 1 0.767272 0.321367 0.529525
7178 3 0.766483 0.315287 0.523139
3822 1 0.763465 0.341746 0.517129
3820 1 0.775785 0.332577 0.515899
18095 3 0.78373 0.326405 0.511963
18094 1 0.778228 0.330976 0.51505
3821 3 0.769226 0.336522 0.516754
18096 1 0.785504 0.320908 0.505467
20548 1 0.785613 0.319528 0.502487
15605 3 0.766923 0.315749 0.506546
7179 1 0.767269 0.315604 0.515952
15606 1 0.767651 0.316128 0.512884
658 1 0.798935 0.32157 0.508908
659 3 0.804827 0.325919 0.505889
8133 1 0.681283 0.374749 0.503417
8132 3 0.68922 0.374015 0.501155
8077 1 0.709492 0.372922 0.530134
14081 3 0.72597 0.369633 0.508175
7669 1 0.7381 0.355965 0.503543
20254 1 0.74052 0.344301 0.525668
6304 1 0.732229 0.374083 0.500914
14080 1 0.730355 0.373067 0.502888
14082 1 0.72795 0.367322 0.516014
3220 1 0.728753 0.366888 0.518461
7671 1 0.749036 0.36562 0.510714
15422 3 0.750128 0.349255 0.527853
15423 1 0.742846 0.34534 0.526101
7670 3 0.744466 0.360278 0.507109
17903 3 0.74983 0.370483 0.527566
14484 1 0.736279 0.354641 0.502295
3221 3 0.72949 0.366156 0.526706
4889 3 0.765838 0.373958 0.504688
4353 1 0.764769 0.364113 0.511079
4890 1 0.764689 0.367221 0.509439
4352 3 0.766199 0.357686 0.514732
4351 1 0.772315 0.354203 0.518961
691 1 0.788906 0.346041 0.504829
11675 3 0.807091 0.34693 0.501928
11676 1 0.805313 0.354145 0.506301
8079 1 0.715379 0.385329 0.521719
8078 3 0.712834 0.378903 0.525417
10613 3 0.718395 0.394703 0.518445
10614 1 0.716002 0.387847 0.520783
10612 1 0.722072 0.399768 0.522727
18426 1 0.723618 0.402122 0.524067
17904 1 0.744762 0.37702 0.524275
11787 1 0.742708 0.379333 0.52276
11786 3 0.738055 0.385225 0.518937
6934 1 0.757383 0.397102 0.508219
6935 3 0.754612 0.399203 0.502135
18424 1 0.729088 0.402877 0.530931
11785 1 0.735179 0.391363 0.514525
8604 1 0.75907 0.395625 0.510485
8602 1 0.765142 0.386832 0.523351
8603 3 0.761916 0.391722 0.51691
4761 1 0.766413 0.385138 0.525781
18425 3 0.725809 0.408556 0.527
6998 3 0.716025 0.337246 0.549325
2502 1 0.715379 0.339113 0.53792
6999 1 0.715791 0.338811 0.541306
11989 1 0.742975 0.326159 0.532795
11990 3 0.736757 0.326697 0.538424
11991 1 0.732227 0.332638 0.541157
18015 1 0.767698 0.323564 0.53176
18014 3 0.768133 0.329439 0.537392
18013 1 0.766021 0.335265 0.541487
19063 1 0.762956 0.340844 0.551165
7363 1 0.696147 0.366669 0.540933
7364 3 0.703485 0.366591 0.536292
7365 1 0.70814 0.37109 0.532016
6997 1 0.718071 0.34478 0.550608
11095 1 0.719248 0.348109 0.550898
11096 3 0.722182 0.354987 0.552608
15421 1 0.754473 0.35311 0.533192
17902 1 0.749616 0.36782 0.534136
11097 1 0.730112 0.352897 0.552052
18204 1 0.732959 0.351898 0.551576
18203 3 0.740369 0.349251 0.549396
18202 1 0.744454 0.3555 0.546793
10527 1 0.745918 0.3583 0.546391
3222 1 0.72965 0.369258 0.533797
10525 1 0.749661 0.366889 0.536301
10526 3 0.75032 0.364318 0.543932
7170 1 0.730008 0.370645 0.536235
19064 3 0.762104 0.348237 0.552165
19065 1 0.762227 0.355917 0.55364
1410 1 0.765492 0.356112 0.535275
1409 3 0.770185 0.362453 0.535822
4759 1 0.771197 0.371767 0.533904
1408 1 0.771347 0.369452 0.534789
832 1 0.776656 0.366944 0.557053
833 3 0.770229 0.37177 0.555436
834 1 0.765118 0.374937 0.559154
9722 3 0.73565 0.396701 0.537522
9723 1 0.730281 0.400888 0.532483
7169 3 0.731805 0.3763 0.541966
7168 1 0.73375 0.381188 0.547841
13755 1 0.734304 0.383004 0.550032
9721 1 0.74263 0.39185 0.539965
6978 1 0.745198 0.39006 0.540563
6977 3 0.75252 0.386119 0.541944
13754 3 0.737891 0.386201 0.557534
13753 1 0.742024 0.392326 0.557121
4760 3 0.770124 0.379594 0.531327
6976 1 0.758722 0.386032 0.537196
10615 1 0.763046 0.376629 0.560671
1159 1 0.717931 0.362517 0.579411
1160 3 0.726524 0.364161 0.57559
14734 1 0.752437 0.364115 0.571718
14735 3 0.745508 0.361714 0.575083
1161 1 0.734632 0.363534 0.575146
14736 1 0.737461 0.362655 0.575069
10616 3 0.756417 0.380787 0.563218
10617 1 0.754303 0.379523 0.570858
795 1 0.753597 0.379121 0.574223
793 1 0.748186 0.380973 0.589999
5355 1 0.746372 0.382506 0.592499
794 2 0.752896 0.37863 0.583136
5354 2 0.742825 0.386357 0.59959
5353 1 0.738995 0.392963 0.600924
