ITEM: TIMESTEP
0
ITEM: NUMBER OF ATOMS
1221
ITEM: BOX BOUNDS pp pp pp
0.0000000000000000e+00 5.0000000000000000e+01
0.0000000000000000e+00 5.0000000000000000e+01
0.0000000000000000e+00 5.0000000000000000e+01
ITEM: ATOMS id type 
82 1 
83 2 
84 1 
325 1 
326 2 
327 1 
1201 1 
1202 3 
1203 1 
1324 1 
1325 2 
1326 1 
1384 1 
1385 3 
1386 1 
1444 1 
1445 2 
1446 1 
1453 1 
1454 2 
1455 1 
1501 1 
1502 3 
1503 1 
1570 1 
1571 2 
1572 1 
2344 1 
2345 2 
2346 1 
2368 1 
2369 2 
2370 1 
2425 1 
2426 2 
2427 1 
2479 1 
2480 2 
2481 1 
2482 1 
2483 2 
2484 1 
3184 1 
3185 3 
3186 1 
3322 1 
3323 3 
3324 1 
3385 1 
3386 2 
3387 1 
3673 1 
3674 2 
3675 1 
4327 1 
4328 2 
4329 1 
4330 1 
4331 2 
4332 1 
4390 1 
4391 2 
4392 1 
4405 1 
4406 2 
4407 1 
4582 1 
4583 2 
4584 1 
5644 1 
5645 3 
5646 1 
5773 1 
5774 2 
5775 1 
5779 1 
5780 2 
5781 1 
5836 1 
5837 2 
5838 1 
5890 1 
5891 2 
5892 1 
5893 1 
5894 2 
5895 1 
6730 1 
6731 3 
6732 1 
6844 1 
6845 3 
6846 1 
6856 1 
6857 3 
6858 1 
6862 1 
6863 2 
6864 1 
6865 1 
6866 2 
6867 1 
6925 1 
6926 3 
6927 1 
6970 1 
6971 2 
6972 1 
6982 1 
6983 2 
6984 1 
6988 1 
6989 2 
6990 1 
7024 1 
7025 2 
7026 1 
7204 1 
7205 2 
7206 1 
7228 1 
7229 2 
7230 1 
7984 1 
7985 2 
7986 1 
8062 1 
8063 2 
8064 1 
8065 1 
8066 2 
8067 1 
8176 1 
8177 2 
8178 1 
8185 1 
8186 2 
8187 1 
8224 1 
8225 3 
8226 1 
8305 1 
8306 2 
8307 1 
8893 1 
8894 2 
8895 1 
8944 1 
8945 2 
8946 1 
9253 1 
9254 2 
9255 1 
9304 1 
9305 2 
9306 1 
9319 1 
9320 2 
9321 1 
10036 1 
10037 2 
10038 1 
10108 1 
10109 2 
10110 1 
10165 1 
10166 2 
10167 1 
10204 1 
10205 2 
10206 1 
10207 1 
10208 3 
10209 1 
10210 1 
10211 3 
10212 1 
10213 1 
10214 3 
10215 1 
10270 1 
10271 2 
10272 1 
10288 1 
10289 3 
10290 1 
10516 1 
10517 2 
10518 1 
10519 1 
10520 2 
10521 1 
11107 1 
11108 2 
11109 1 
11176 1 
11177 2 
11178 1 
11308 1 
11309 2 
11310 1 
11365 1 
11366 2 
11367 1 
12316 1 
12317 3 
12318 1 
12499 1 
12500 2 
12501 1 
12502 1 
12503 2 
12504 1 
13144 1 
13145 2 
13146 1 
13168 1 
13169 2 
13170 1 
13210 1 
13211 2 
13212 1 
13381 1 
13382 2 
13383 1 
13525 1 
13526 2 
13527 1 
14308 1 
14309 2 
14310 1 
14356 1 
14357 3 
14358 1 
14461 1 
14462 2 
14463 1 
14467 1 
14468 2 
14469 1 
14665 1 
14666 3 
14667 1 
15427 1 
15428 2 
15429 1 
15544 1 
15545 2 
15546 1 
16324 1 
16325 2 
16326 1 
16348 1 
16349 2 
16350 1 
16504 1 
16505 2 
16506 1 
16708 1 
16709 2 
16710 1 
17290 1 
17291 2 
17292 1 
17302 1 
17303 3 
17304 1 
17410 1 
17411 2 
17412 1 
17596 1 
17597 2 
17598 1 
18376 1 
18377 2 
18378 1 
18421 1 
18422 2 
18423 1 
19564 1 
19565 2 
19566 1 
19693 1 
19694 3 
19695 1 
20896 1 
20897 3 
20898 1 
21025 1 
21026 2 
21027 1 
40 1 
41 2 
42 1 
52 1 
53 2 
54 1 
178 1 
179 2 
180 1 
283 1 
284 2 
285 1 
343 1 
344 3 
345 1 
520 1 
521 2 
522 1 
1306 1 
1307 2 
1308 1 
1489 1 
1490 2 
1491 1 
1537 1 
1538 3 
1539 1 
1672 1 
1673 3 
1674 1 
2338 1 
2339 2 
2340 1 
2566 1 
2567 2 
2568 1 
3229 1 
3230 2 
3231 1 
3358 1 
3359 2 
3360 1 
3391 1 
3392 2 
3393 1 
3409 1 
3410 2 
3411 1 
3412 1 
3413 2 
3414 1 
3652 1 
3653 3 
3654 1 
3766 1 
3767 2 
3768 1 
4354 1 
4355 2 
4356 1 
4483 1 
4484 2 
4485 1 
4540 1 
4541 2 
4542 1 
4609 1 
4610 2 
4611 1 
4714 1 
4715 2 
4716 1 
4789 1 
4790 2 
4791 1 
4849 1 
4850 2 
4851 1 
4891 1 
4892 2 
4893 1 
5491 1 
5492 2 
5493 1 
5500 1 
5501 2 
5502 1 
5680 1 
5681 3 
5682 1 
5743 1 
5744 3 
5745 1 
5863 1 
5864 2 
5865 1 
5866 1 
5867 3 
5868 1 
5929 1 
5930 2 
5931 1 
6772 1 
6773 2 
6774 1 
6994 1 
6995 2 
6996 1 
7051 1 
7052 2 
7053 1 
7060 1 
7061 3 
7062 1 
7111 1 
7112 2 
7113 1 
8029 1 
8030 3 
8031 1 
8032 1 
8033 3 
8034 1 
8095 1 
8096 2 
8097 1 
8152 1 
8153 2 
8154 1 
8257 1 
8258 3 
8259 1 
8923 1 
8924 2 
8925 1 
9040 1 
9041 2 
9042 1 
9097 1 
9098 2 
9099 1 
9118 1 
9119 2 
9120 1 
9157 1 
9158 2 
9159 1 
9334 1 
9335 2 
9336 1 
10312 1 
10313 3 
10314 1 
10315 1 
10316 2 
10317 1 
10369 1 
10370 2 
10371 1 
10492 1 
10493 3 
10494 1 
11374 1 
11375 3 
11376 1 
11383 1 
11384 3 
11385 1 
11497 1 
11498 2 
11499 1 
12223 1 
12224 3 
12225 1 
12235 1 
12236 2 
12237 1 
12400 1 
12401 2 
12402 1 
12406 1 
12407 2 
12408 1 
12595 1 
12596 2 
12597 1 
13291 1 
13292 2 
13293 1 
13351 1 
13352 2 
13353 1 
13420 1 
13421 2 
13422 1 
13537 1 
13538 2 
13539 1 
14272 1 
14273 2 
14274 1 
14320 1 
14321 2 
14322 1 
14437 1 
14438 2 
14439 1 
14515 1 
14516 2 
14517 1 
14566 1 
14567 2 
14568 1 
14569 1 
14570 2 
14571 1 
15454 1 
15455 2 
15456 1 
15517 1 
15518 2 
15519 1 
15640 1 
15641 2 
15642 1 
16351 1 
16352 2 
16353 1 
16360 1 
16361 3 
16362 1 
16411 1 
16412 2 
16413 1 
16600 1 
16601 2 
16602 1 
16657 1 
16658 3 
16659 1 
16666 1 
16667 3 
16668 1 
16717 1 
16718 2 
16719 1 
17311 1 
17312 2 
17313 1 
17626 1 
17627 2 
17628 1 
17671 1 
17672 2 
17673 1 
17695 1 
17696 2 
17697 1 
18520 1 
18521 3 
18522 1 
18574 1 
18575 2 
18576 1 
18631 1 
18632 2 
18633 1 
18640 1 
18641 2 
18642 1 
18706 1 
18707 2 
18708 1 
19480 1 
19481 3 
19482 1 
19903 1 
19904 2 
19905 1 
19918 1 
19919 2 
19920 1 
20563 1 
20564 2 
20565 1 
20572 1 
20573 2 
20574 1 
20743 1 
20744 2 
20745 1 
20866 1 
20867 2 
20868 1 
20923 1 
20924 3 
20925 1 
21031 1 
21032 2 
21033 1 
21055 1 
21056 2 
21057 1 
568 1 
569 3 
570 1 
622 1 
623 2 
624 1 
748 1 
749 2 
750 1 
781 1 
782 2 
783 1 
844 1 
845 2 
846 1 
850 1 
851 2 
852 1 
976 1 
977 2 
978 1 
985 1 
986 2 
987 1 
1027 1 
1028 2 
1029 1 
1039 1 
1040 2 
1041 1 
1045 1 
1046 2 
1047 1 
1870 1 
1871 2 
1872 1 
2125 1 
2126 2 
2127 1 
2884 1 
2885 2 
2886 1 
2899 1 
2900 2 
2901 1 
3064 1 
3065 2 
3066 1 
3781 1 
3782 2 
3783 1 
3847 1 
3848 2 
3849 1 
3853 1 
3854 2 
3855 1 
3979 1 
3980 2 
3981 1 
4081 1 
4082 2 
4083 1 
4102 1 
4103 2 
4104 1 
4156 1 
4157 3 
4158 1 
4219 1 
4220 2 
4221 1 
4261 1 
4262 2 
4263 1 
4930 1 
4931 2 
4932 1 
5122 1 
5123 2 
5124 1 
5170 1 
5171 2 
5172 1 
5281 1 
5282 2 
5283 1 
5359 1 
5360 2 
5361 1 
5401 1 
5402 2 
5403 1 
6076 1 
6077 2 
6078 1 
6190 1 
6191 2 
6192 1 
6193 1 
6194 2 
6195 1 
6553 1 
6554 3 
6555 1 
7264 1 
7265 3 
7266 1 
7270 1 
7271 2 
7272 1 
7393 1 
7394 2 
7395 1 
7573 1 
7574 2 
7575 1 
9367 1 
9368 2 
9369 1 
9541 1 
9542 2 
9543 1 
9568 1 
9569 2 
9570 1 
9619 1 
9620 2 
9621 1 
9676 1 
9677 2 
9678 1 
9739 1 
9740 3 
9741 1 
9808 1 
9809 3 
9810 1 
9841 1 
9842 3 
9843 1 
10924 1 
10925 2 
10926 1 
10933 1 
10934 2 
10935 1 
10993 1 
10994 3 
10995 1 
11593 1 
11594 2 
11595 1 
11710 1 
11711 2 
11712 1 
11716 1 
11717 2 
11718 1 
11839 1 
11840 2 
11841 1 
11842 1 
11843 2 
11844 1 
11905 1 
11906 2 
11907 1 
11953 1 
11954 3 
11955 1 
11965 1 
11966 2 
11967 1 
12673 1 
12674 3 
12675 1 
12988 1 
12989 2 
12990 1 
13030 1 
13031 2 
13032 1 
13045 1 
13046 2 
13047 1 
13744 1 
13745 2 
13746 1 
13807 1 
13808 2 
13809 1 
14068 1 
14069 2 
14070 1 
14125 1 
14126 2 
14127 1 
14707 1 
14708 2 
14709 1 
14728 1 
14729 2 
14730 1 
14764 1 
14765 2 
14766 1 
14890 1 
14891 2 
14892 1 
15004 1 
15005 2 
15006 1 
15019 1 
15020 2 
15021 1 
15802 1 
15803 2 
15804 1 
15961 1 
15962 2 
15963 1 
16021 1 
16022 3 
16023 1 
16165 1 
16166 2 
16167 1 
16228 1 
16229 2 
16230 1 
16828 1 
16829 2 
16830 1 
16867 1 
16868 2 
16869 1 
17116 1 
17117 2 
17118 1 
17119 1 
17120 2 
17121 1 
17161 1 
17162 3 
17163 1 
17182 1 
17183 2 
17184 1 
17833 1 
17834 2 
17835 1 
17839 1 
17840 2 
17841 1 
17944 1 
17945 2 
17946 1 
18319 1 
18320 2 
18321 1 
18907 1 
18908 2 
18909 1 
19027 1 
19028 2 
19029 1 
19090 1 
19091 3 
19092 1 
19141 1 
19142 2 
19143 1 
19210 1 
19211 2 
19212 1 
19924 1 
19925 2 
19926 1 
20188 1 
20189 2 
20190 1 
20227 1 
20228 2 
20229 1 
20245 1 
20246 2 
20247 1 
21121 1 
21122 2 
21123 1 
21241 1 
21242 3 
21243 1 
21250 1 
21251 2 
21252 1 
21262 1 
21263 2 
21264 1 
21304 1 
21305 3 
21306 1 
580 1 
581 2 
582 1 
595 1 
596 2 
597 1 
637 1 
638 2 
639 1 
760 1 
761 2 
762 1 
889 1 
890 2 
891 1 
994 1 
995 3 
996 1 
1063 1 
1064 2 
1065 1 
1126 1 
1127 2 
1128 1 
1738 1 
1739 2 
1740 1 
1855 1 
1856 2 
1857 1 
2017 1 
2018 2 
2019 1 
2152 1 
2153 3 
2154 1 
2737 1 
2738 2 
2739 1 
2926 1 
2927 2 
2928 1 
3814 1 
3815 2 
3816 1 
3835 1 
3836 3 
3837 1 
3934 1 
3935 2 
3936 1 
3958 1 
3959 2 
3960 1 
4051 1 
4052 2 
4053 1 
4198 1 
4199 2 
4200 1 
4255 1 
4256 2 
4257 1 
4306 1 
4307 3 
4308 1 
5017 1 
5018 2 
5019 1 
5140 1 
5141 2 
5142 1 
5272 1 
5273 3 
5274 1 
5323 1 
5324 3 
5325 1 
5377 1 
5378 2 
5379 1 
5380 1 
5381 2 
5382 1 
6103 1 
6104 2 
6105 1 
6289 1 
6290 2 
6291 1 
6406 1 
6407 2 
6408 1 
6415 1 
6416 2 
6417 1 
6469 1 
6470 2 
6471 1 
6589 1 
6590 2 
6591 1 
7297 1 
7298 2 
7299 1 
7366 1 
7367 3 
7368 1 
7435 1 
7436 3 
7437 1 
8446 1 
8447 3 
8448 1 
8452 1 
8453 2 
8454 1 
8503 1 
8504 2 
8505 1 
8857 1 
8858 2 
8859 1 
9409 1 
9410 2 
9411 1 
9712 1 
9713 3 
9714 1 
9718 1 
9719 2 
9720 1 
9880 1 
9881 2 
9882 1 
10666 1 
10667 2 
10668 1 
10678 1 
10679 2 
10680 1 
10771 1 
10772 2 
10773 1 
10792 1 
10793 2 
10794 1 
10798 1 
10799 2 
10800 1 
10957 1 
10958 2 
10959 1 
11038 1 
11039 2 
11040 1 
11077 1 
11078 2 
11079 1 
11089 1 
11090 2 
11091 1 
11566 1 
11567 3 
11568 1 
11683 1 
11684 2 
11685 1 
11695 1 
11696 2 
11697 1 
11974 1 
11975 3 
11976 1 
12760 1 
12761 2 
12762 1 
12766 1 
12767 2 
12768 1 
12898 1 
12899 2 
12900 1 
13129 1 
13130 2 
13131 1 
13138 1 
13139 2 
13140 1 
13912 1 
13913 2 
13914 1 
13972 1 
13973 2 
13974 1 
14134 1 
14135 2 
14136 1 
14758 1 
14759 2 
14760 1 
14854 1 
14855 2 
14856 1 
14935 1 
14936 2 
14937 1 
14977 1 
14978 2 
14979 1 
15097 1 
15098 2 
15099 1 
15811 1 
15812 2 
15813 1 
16111 1 
16112 2 
16113 1 
16774 1 
16775 3 
16776 1 
16843 1 
16844 2 
16845 1 
16849 1 
16850 2 
16851 1 
16855 1 
16856 2 
16857 1 
16903 1 
16904 2 
16905 1 
16906 1 
16907 2 
16908 1 
17020 1 
17021 2 
17022 1 
17035 1 
17036 2 
17037 1 
17071 1 
17072 2 
17073 1 
17095 1 
17096 2 
17097 1 
17155 1 
17156 2 
17157 1 
17878 1 
17879 2 
17880 1 
17917 1 
17918 2 
17919 1 
18037 1 
18038 3 
18039 1 
18040 1 
18041 2 
18042 1 
18043 1 
18044 2 
18045 1 
18046 1 
18047 2 
18048 1 
18100 1 
18101 2 
18102 1 
18172 1 
18173 2 
18174 1 
18232 1 
18233 2 
18234 1 
18346 1 
18347 2 
18348 1 
19003 1 
19004 2 
19005 1 
19075 1 
19076 2 
19077 1 
19231 1 
19232 2 
19233 1 
20080 1 
20081 2 
20082 1 
20149 1 
20150 2 
20151 1 
20446 1 
20447 3 
20448 1 
21106 1 
21107 3 
21108 1 
21157 1 
21158 3 
21159 1 
21166 1 
21167 2 
21168 1 
21220 1 
21221 2 
21222 1 
21283 1 
21284 3 
21285 1 
21394 1 
21395 2 
21396 1 
21454 1 
21455 2 
21456 1 
21475 1 
21476 2 
21477 1 
