ITEM: TIMESTEP
25000000
ITEM: NUMBER OF ATOMS
816
ITEM: BOX BOUNDS pp pp pp
0.0000000000000000e+00 5.0000000000000000e+01
0.0000000000000000e+00 5.0000000000000000e+01
0.0000000000000000e+00 5.0000000000000000e+01
ITEM: ATOMS id type xs ys zs
17958 1 0.41844 0.23464 0.0145764
17957 3 0.420548 0.236459 0.0222041
17956 1 0.417926 0.238693 0.0295027
11265 1 0.417826 0.23313 0.0120437
11264 2 0.416385 0.229269 0.00473155
15510 1 0.476644 0.249092 0.0237538
15509 3 0.477783 0.244726 0.018037
15508 1 0.478495 0.242408 0.00992352
19394 3 0.512771 0.233017 0.0262569
19395 1 0.507362 0.237195 0.0218439
18268 1 0.496978 0.245 0.01118
19393 1 0.518199 0.229651 0.0195234
9109 1 0.453758 0.256857 0.0249169
8016 1 0.47581 0.268183 0.0134569
8015 3 0.472438 0.270631 0.0198474
8014 1 0.474761 0.275035 0.0253507
20844 1 0.475601 0.276955 0.027896
7488 1 0.477371 0.266994 0.0107362
7487 3 0.480249 0.263987 0.00456066
9110 3 0.459763 0.252385 0.0262758
18269 3 0.499548 0.25022 0.0164121
12127 1 0.509263 0.255616 0.0195811
18270 1 0.506667 0.254544 0.0183961
12128 3 0.515153 0.259004 0.0222567
12129 1 0.517695 0.264811 0.0262647
12199 1 0.410057 0.304401 0.0243792
12200 3 0.411371 0.311801 0.0271832
26 2 0.446509 0.30809 0.0278297
8914 1 0.464931 0.301867 0.0262627
5215 1 0.480931 0.299337 0.0299731
8916 1 0.478476 0.299077 0.0285257
8915 3 0.471588 0.298134 0.0234009
25 1 0.449404 0.314196 0.0223693
8635 1 0.423149 0.345455 0.0310384
12630 1 0.392601 0.211184 0.0567714
14292 1 0.473191 0.21873 0.0480061
8617 1 0.502118 0.214975 0.0617236
14746 1 0.504078 0.216964 0.0601015
9856 1 0.417123 0.239406 0.0325148
9858 1 0.410694 0.238176 0.0465846
9857 3 0.413972 0.239444 0.0393844
1907 3 0.403429 0.235549 0.0610242
12629 3 0.395974 0.218992 0.0563833
12628 1 0.399495 0.225962 0.0575264
1908 1 0.400701 0.228713 0.0585004
7860 1 0.411329 0.243651 0.0605344
1906 1 0.408964 0.241465 0.0605166
7859 3 0.418212 0.248904 0.0602005
1851 1 0.432164 0.248518 0.0447618
6046 1 0.433512 0.246715 0.0465563
6047 3 0.435854 0.240036 0.0507593
11001 1 0.436127 0.23321 0.0603344
6048 1 0.435817 0.235363 0.057576
14291 3 0.478587 0.223784 0.0476104
8701 1 0.466288 0.247427 0.0336339
9111 1 0.464709 0.248785 0.0313156
8703 1 0.472735 0.245883 0.0488155
8702 3 0.470516 0.244683 0.0405195
17472 1 0.473835 0.246521 0.0518465
17471 3 0.476792 0.247182 0.0594634
17470 1 0.483191 0.242938 0.0608059
14290 1 0.485558 0.228405 0.0459508
1980 1 0.487684 0.229859 0.0453439
1979 3 0.494732 0.234892 0.0431372
1978 1 0.499907 0.24056 0.0418012
14747 3 0.509277 0.220555 0.0568597
14748 1 0.512148 0.226697 0.0604945
13789 1 0.485647 0.241066 0.0621446
11127 1 0.501987 0.242961 0.0415426
11126 3 0.507487 0.248577 0.0400897
10053 1 0.409056 0.269084 0.044543
1849 1 0.421276 0.258103 0.0412866
10052 3 0.412183 0.261794 0.0430111
10051 1 0.41933 0.258942 0.0419212
7858 1 0.421319 0.254584 0.0558895
6580 1 0.394216 0.28119 0.047363
6581 3 0.399116 0.27734 0.0517115
6582 1 0.407042 0.277489 0.0548772
8076 1 0.410386 0.276987 0.0565552
8075 3 0.417619 0.274483 0.0592413
1850 3 0.428872 0.254538 0.0397887
7810 1 0.431946 0.269898 0.0377167
7812 1 0.446318 0.275482 0.03747
1951 1 0.449002 0.277507 0.03756
19165 1 0.449309 0.252463 0.056016
16470 1 0.450394 0.253323 0.0526266
7811 3 0.439682 0.270522 0.0379642
936 1 0.428992 0.270379 0.0608413
16469 3 0.452283 0.254394 0.0455445
8074 1 0.425869 0.27152 0.0603953
1456 1 0.479883 0.252998 0.0395934
20843 3 0.477729 0.280342 0.0346256
16468 1 0.454651 0.252758 0.038487
20842 1 0.483759 0.280383 0.0402932
21023 3 0.471885 0.266737 0.0568963
21024 1 0.475089 0.262545 0.0516941
21022 1 0.472203 0.273217 0.0623104
1457 3 0.487597 0.256346 0.0410922
21028 1 0.485357 0.280075 0.0427
21029 3 0.489861 0.279095 0.0493093
1458 1 0.491014 0.262263 0.0397525
3503 3 0.502505 0.266793 0.0567276
3502 1 0.496508 0.271311 0.0534437
3504 1 0.505122 0.259598 0.0605513
10171 1 0.505927 0.257546 0.0618189
21030 1 0.494254 0.273596 0.0523904
11125 1 0.513417 0.253734 0.0413201
18210 1 0.527838 0.264176 0.0480496
12969 1 0.530493 0.265812 0.0499336
18209 3 0.521928 0.260974 0.0440909
18208 1 0.515754 0.255262 0.0417201
12968 3 0.536536 0.268771 0.0538387
12967 1 0.541223 0.268887 0.0595707
19978 1 0.392166 0.282479 0.0453604
3334 1 0.383567 0.298682 0.0598518
19980 1 0.380265 0.286887 0.0352359
19979 3 0.386998 0.286038 0.0398622
20157 1 0.402068 0.306996 0.0558834
5805 1 0.401925 0.304415 0.0544336
5803 1 0.40789 0.291699 0.0507712
5804 3 0.402674 0.298942 0.0502096
27 1 0.445323 0.303605 0.0341822
2641 1 0.445194 0.302469 0.0371025
2642 3 0.444962 0.299461 0.0446642
2643 1 0.445126 0.29681 0.051868
8847 1 0.444881 0.296207 0.0541169
8846 3 0.442853 0.293354 0.0605543
6876 1 0.426849 0.304674 0.0620582
7501 1 0.427954 0.306414 0.0611902
1952 3 0.455741 0.28132 0.0371193
1953 1 0.459 0.284203 0.0438889
19129 1 0.460822 0.28568 0.0458596
19130 3 0.465452 0.291325 0.0492582
19131 1 0.472286 0.294955 0.052908
19534 1 0.475293 0.296105 0.0538823
19535 3 0.4825 0.299434 0.0553118
5217 1 0.494483 0.297038 0.0368803
5216 3 0.486924 0.300003 0.0349969
5332 1 0.497381 0.305889 0.0417062
5333 3 0.505055 0.305075 0.0457963
5334 1 0.508228 0.297894 0.0427616
17247 1 0.535102 0.294085 0.0540633
17246 3 0.534598 0.28947 0.0608945
16644 1 0.51597 0.294893 0.0608506
8537 3 0.382171 0.322562 0.0416133
8538 1 0.37946 0.32343 0.0471193
10489 1 0.377702 0.323756 0.0503461
10490 3 0.373948 0.325223 0.0572795
8536 1 0.388857 0.321612 0.0363765
13841 3 0.415946 0.318847 0.0433397
13840 1 0.412797 0.315937 0.0365498
12201 1 0.412161 0.31483 0.0338475
13842 1 0.422936 0.318533 0.0472512
15911 3 0.395467 0.340059 0.0584265
15912 1 0.402479 0.33735 0.0592215
20156 3 0.403426 0.314111 0.0595846
20155 1 0.406654 0.32089 0.0599106
12764 3 0.413157 0.333707 0.0603004
12765 1 0.405379 0.335954 0.0593019
11995 1 0.44166 0.315229 0.0566817
66 1 0.440107 0.335552 0.0500845
65 3 0.432736 0.334735 0.0500894
64 1 0.427217 0.329511 0.0517535
7503 1 0.438863 0.314866 0.0568632
7502 3 0.431357 0.313275 0.0584017
11996 3 0.448932 0.317175 0.0554003
11598 1 0.451506 0.331727 0.0497286
11997 1 0.456213 0.320704 0.053406
8553 1 0.459252 0.321489 0.0524643
11596 1 0.460606 0.342587 0.0573965
11597 3 0.454823 0.338522 0.0533881
8551 1 0.474312 0.327129 0.0465793
8552 3 0.467576 0.322736 0.0498767
15910 1 0.390185 0.34425 0.0581778
209 3 0.419749 0.366625 0.0606075
1080 1 0.395664 0.374657 0.0592924
8636 3 0.428255 0.350812 0.0325795
15288 1 0.436298 0.357096 0.0522996
10182 1 0.436076 0.358585 0.0497568
10181 3 0.435076 0.36393 0.0435871
8637 1 0.430745 0.35619 0.0372761
10180 1 0.431855 0.358176 0.0389738
208 1 0.427133 0.365066 0.0569433
15287 3 0.437029 0.352603 0.0592422
10536 1 0.475643 0.344706 0.0611029
10534 1 0.462817 0.344464 0.0589058
16684 1 0.484463 0.202522 0.0702267
16686 1 0.471005 0.193826 0.0715103
16685 2 0.476947 0.200171 0.0688292
8618 3 0.497566 0.210139 0.0644296
8619 1 0.496968 0.202607 0.0678399
4985 3 0.540068 0.209839 0.0779343
4986 1 0.541949 0.202036 0.0792375
5737 1 0.53498 0.218552 0.0745524
4984 1 0.536838 0.215875 0.0756584
4178 2 0.392277 0.239163 0.0927954
10699 1 0.418332 0.219464 0.0870097
10700 3 0.420815 0.227995 0.0854004
4177 1 0.398709 0.242452 0.0884008
4998 1 0.400846 0.244187 0.0866266
4997 3 0.404053 0.249699 0.0815241
10701 1 0.419075 0.235181 0.0860722
11000 3 0.436339 0.228724 0.0666749
19167 1 0.442212 0.247523 0.0706513
16974 1 0.440709 0.237582 0.0885067
16973 3 0.43889 0.243376 0.0834495
16972 1 0.43422 0.249632 0.0809735
10999 1 0.433693 0.221959 0.0713768
18351 1 0.461939 0.236476 0.0644106
18350 3 0.464145 0.232256 0.0705669
10292 3 0.458747 0.229054 0.0895023
10291 1 0.460634 0.230395 0.0821233
18349 1 0.461499 0.231231 0.0792822
4213 1 0.477345 0.244086 0.0837482
4214 3 0.478175 0.237957 0.087541
4215 1 0.480987 0.230808 0.0904933
18586 1 0.48199 0.227982 0.0909435
5662 1 0.467172 0.247959 0.0832322
13790 3 0.491525 0.236725 0.0653003
13791 1 0.497633 0.232426 0.067268
18587 3 0.485747 0.221404 0.0931387
2656 1 0.493542 0.233308 0.0924845
2657 3 0.498777 0.240417 0.0899476
2658 1 0.50658 0.235433 0.0889219
11272 1 0.508769 0.233492 0.0886887
11273 3 0.513795 0.228162 0.0885311
6832 1 0.51473 0.243188 0.0661113
10173 1 0.51262 0.245573 0.0669562
6833 3 0.520131 0.237404 0.0657317
5738 3 0.532326 0.225995 0.0720446
5739 1 0.52723 0.23115 0.0698116
6834 1 0.525306 0.232709 0.0691876
6885 1 0.392158 0.27739 0.0863861
12956 3 0.403627 0.262476 0.067532
12955 1 0.403992 0.257181 0.0734239
12957 1 0.399846 0.267198 0.062979
4996 1 0.404061 0.2557 0.0754712
17887 1 0.409757 0.270107 0.0786608
17888 3 0.417722 0.271853 0.0801819
17889 1 0.423795 0.267634 0.082754
19166 3 0.445999 0.250403 0.0644487
935 3 0.436228 0.267507 0.0627626
4149 1 0.426349 0.266915 0.0835152
4148 3 0.433069 0.26498 0.0842977
4147 1 0.439895 0.264091 0.0870859
12391 1 0.442566 0.263148 0.0883115
934 1 0.443692 0.268749 0.0666493
15574 1 0.445697 0.269177 0.0676379
15575 3 0.452739 0.269851 0.0714531
12392 3 0.448973 0.261075 0.0926236
15576 1 0.456307 0.274592 0.0774777
18690 1 0.457526 0.27547 0.0801075
5664 1 0.462848 0.256302 0.0707867
5663 3 0.464004 0.252691 0.0776569
10407 1 0.472507 0.27548 0.0639288
16617 1 0.47905 0.263396 0.0882339
18689 3 0.460645 0.278638 0.0873815
5002 1 0.480595 0.26373 0.0845924
5003 3 0.484787 0.262194 0.0764899
10172 3 0.508163 0.252207 0.0665782
5004 1 0.490605 0.25934 0.0711304
11242 1 0.4941 0.274537 0.0899914
19896 1 0.494767 0.272118 0.0915408
11243 3 0.491372 0.280238 0.0863298
9019 1 0.513636 0.274756 0.0841658
9361 1 0.508683 0.259731 0.0867274
9362 3 0.515063 0.25621 0.0891407
9020 3 0.510869 0.277809 0.0778893
19894 1 0.496023 0.256687 0.0926689
9363 1 0.521168 0.251377 0.0929295
1296 1 0.53863 0.267581 0.0787159
17809 1 0.539714 0.265395 0.0802683
1295 3 0.535817 0.274858 0.0748916
1294 1 0.534427 0.281033 0.0689436
17810 3 0.542483 0.260437 0.0847242
17811 1 0.544896 0.256993 0.0909743
12541 1 0.545921 0.256081 0.0935571
7918 1 0.574715 0.279904 0.0921619
3336 1 0.370478 0.300681 0.0654466
3335 3 0.378147 0.299773 0.064742
6884 3 0.393948 0.282521 0.0801346
17067 1 0.399802 0.288638 0.0735385
17066 3 0.403791 0.293074 0.0689232
17065 1 0.410567 0.296347 0.0685806
6874 1 0.4137 0.297051 0.0681006
6883 1 0.398009 0.286871 0.0755881
10746 1 0.423031 0.303092 0.0870785
6875 3 0.421844 0.298808 0.0664807
10744 1 0.409677 0.29668 0.0906426
10745 3 0.417532 0.299243 0.0907041
8845 1 0.442384 0.290189 0.0671472
17676 1 0.441995 0.289253 0.0700402
17675 3 0.442309 0.287064 0.0775064
17674 1 0.438014 0.285687 0.0848847
15008 3 0.431167 0.284 0.0929981
15007 1 0.43649 0.285151 0.0869918
20996 3 0.445972 0.307882 0.0763577
20995 1 0.438427 0.309503 0.0779217
3219 1 0.435854 0.309966 0.0791668
3217 1 0.42516 0.305252 0.0854014
20997 1 0.45196 0.3041 0.0736989
3218 3 0.429486 0.310072 0.0820301
10406 3 0.471512 0.282195 0.0679861
9398 3 0.46165 0.297766 0.0727413
9399 1 0.455053 0.302516 0.0734394
10405 1 0.467387 0.289134 0.0689666
9397 1 0.465901 0.291755 0.069471
11513 3 0.476033 0.299803 0.0899063
19536 1 0.48596 0.297241 0.0626032
16642 1 0.513717 0.285053 0.0718816
9021 1 0.513122 0.283399 0.0733211
5572 1 0.487216 0.296024 0.0652503
16643 3 0.512443 0.291193 0.0668608
11244 1 0.490074 0.284351 0.0805316
5573 3 0.49046 0.291096 0.0720646
5574 1 0.489903 0.286221 0.0783111
19049 3 0.502144 0.299399 0.0858919
19048 1 0.50655 0.302494 0.0925255
2976 1 0.5014 0.306249 0.0778972
19050 1 0.501406 0.304102 0.0801575
2975 3 0.499919 0.311004 0.07092
17245 1 0.53409 0.28354 0.0659828
11929 1 0.517084 0.308446 0.078662
11930 3 0.52196 0.30469 0.0824422
11931 1 0.527203 0.30022 0.0862619
5545 1 0.52938 0.298352 0.0872236
14712 1 0.53234 0.283808 0.0934559
5546 3 0.534354 0.294516 0.0904789
5547 1 0.532836 0.286968 0.0924382
10491 1 0.374655 0.327972 0.0644477
8868 1 0.37528 0.329145 0.0677777
8867 3 0.378392 0.333038 0.0759634
8866 1 0.374237 0.333786 0.0824778
18842 3 0.408971 0.31499 0.0790597
18843 1 0.40109 0.314285 0.0759022
18841 1 0.413908 0.320191 0.0830084
3027 1 0.415218 0.32299 0.084808
12763 1 0.421117 0.332258 0.0648334
11058 1 0.423422 0.331346 0.0670617
21218 3 0.403108 0.342492 0.082459
3026 3 0.417744 0.328768 0.0894996
3025 1 0.42255 0.334726 0.0912594
21219 1 0.401859 0.341222 0.0891489
15217 1 0.401587 0.340826 0.0914654
11057 3 0.429182 0.330769 0.0713869
11056 1 0.437438 0.331159 0.0712379
3957 1 0.4404 0.331461 0.0716536
3956 3 0.447618 0.332547 0.0735561
9112 1 0.424283 0.337336 0.0927776
6330 1 0.434184 0.318714 0.0928097
6329 3 0.43886 0.325454 0.0932556
17178 1 0.462817 0.333503 0.0756668
17177 3 0.468981 0.329173 0.0743236
17176 1 0.475961 0.326653 0.0741978
16762 1 0.478871 0.324997 0.0739634
9377 3 0.47199 0.342406 0.0903758
3955 1 0.454869 0.336632 0.0751918
16763 3 0.486555 0.322175 0.0737189
16764 1 0.493313 0.318433 0.0733947
2974 1 0.495094 0.316492 0.0726813
2713 1 0.500924 0.326982 0.0926066
2714 3 0.508649 0.327782 0.0921877
2715 1 0.513697 0.33196 0.0863157
9859 1 0.381516 0.367362 0.0833363
9861 1 0.370127 0.372044 0.0924724
9860 3 0.375667 0.371247 0.086638
9477 1 0.383251 0.365446 0.081783
9475 1 0.392829 0.360675 0.0733587
9476 3 0.38744 0.359455 0.0794802
21217 1 0.41121 0.345869 0.0818386
210 1 0.412906 0.367236 0.0626878
1078 1 0.409757 0.368076 0.0629657
10340 3 0.41068 0.374864 0.0854342
6453 1 0.414228 0.347009 0.0812669
6452 3 0.420519 0.350631 0.0781156
1079 3 0.401967 0.371907 0.062915
15286 1 0.441401 0.348862 0.0644565
6451 1 0.424753 0.358173 0.0775669
21551 3 0.429203 0.367333 0.078867
21552 1 0.426038 0.360512 0.0777683
21550 1 0.43663 0.367721 0.0767461
10535 3 0.469399 0.347789 0.0629262
7447 1 0.464235 0.347457 0.0834214
7448 3 0.458338 0.350138 0.0789814
9378 1 0.466445 0.345967 0.0857187
7449 1 0.456079 0.35316 0.072673
10341 1 0.418019 0.378709 0.0843704
16930 1 0.394871 0.394561 0.0835545
16931 3 0.39628 0.386159 0.082799
16932 1 0.403131 0.382152 0.0842778
10339 1 0.405516 0.380252 0.084617
18588 1 0.480974 0.216129 0.0951904
1066 1 0.512233 0.211945 0.108431
1067 3 0.508355 0.217913 0.103987
16248 1 0.539789 0.21268 0.0994368
5220 1 0.543115 0.212615 0.099385
16247 3 0.531957 0.212681 0.100428
16246 1 0.52495 0.215325 0.0977727
5219 3 0.551105 0.212007 0.0997982
5218 1 0.558691 0.212388 0.103739
4179 1 0.393014 0.237944 0.0997124
13843 1 0.432243 0.240703 0.107419
5992 1 0.432694 0.237886 0.107671
5993 2 0.433636 0.23106 0.109403
5994 1 0.430472 0.224433 0.111121
13844 3 0.430643 0.249038 0.106432
983 3 0.449537 0.247366 0.117072
10293 1 0.46339 0.23011 0.0966556
982 1 0.455749 0.249953 0.113542
1068 1 0.510253 0.222271 0.09776
11274 1 0.510975 0.223564 0.0957089
20599 1 0.50314 0.235585 0.10755
7998 1 0.499052 0.247181 0.109914
7997 3 0.492435 0.249446 0.112366
20601 1 0.509201 0.241837 0.119523
8521 1 0.509653 0.243644 0.121202
20600 3 0.507656 0.237547 0.113542
21225 1 0.523306 0.248806 0.0941459
21404 3 0.530294 0.2301 0.113247
21223 1 0.528431 0.236275 0.103707
21403 1 0.528451 0.234574 0.106666
21405 1 0.536501 0.228931 0.117437
21224 3 0.527293 0.242686 0.0976109
14858 3 0.554234 0.23543 0.105221
14859 1 0.547389 0.230943 0.103402
14857 1 0.56102 0.236624 0.103221
3682 1 0.5638 0.237375 0.10252
3683 3 0.571229 0.237713 0.100464
17799 1 0.571599 0.229474 0.117579
3684 1 0.574988 0.245554 0.102453
17798 3 0.566373 0.232878 0.122803
13000 1 0.56372 0.248667 0.119064
11829 1 0.576522 0.248555 0.102209
18583 1 0.42273 0.273986 0.112112
18584 3 0.417701 0.279705 0.11522
15009 1 0.428689 0.277468 0.0967996
984 1 0.444929 0.250136 0.121812
13845 1 0.430282 0.257041 0.106923
16036 1 0.430468 0.260043 0.107135
16037 3 0.431122 0.267134 0.108988
16038 1 0.424974 0.271934 0.11078
12393 1 0.451673 0.265573 0.0981738
11803 1 0.452608 0.267794 0.100477
11804 3 0.45339 0.273265 0.106239
11805 1 0.450407 0.280904 0.107971
16615 1 0.471729 0.260633 0.101714
16616 3 0.476153 0.263324 0.0952917
18688 1 0.464397 0.280449 0.095021
7543 1 0.46594 0.281135 0.0979156
21541 1 0.470118 0.25896 0.103387
21543 1 0.457992 0.250642 0.112332
21542 3 0.464893 0.254107 0.108207
16460 3 0.482667 0.274019 0.114132
16459 1 0.477034 0.278265 0.110499
7545 1 0.475071 0.279919 0.10886
7996 1 0.487091 0.250867 0.117659
14845 1 0.485449 0.251509 0.119448
19895 3 0.496312 0.265012 0.0949595
16461 1 0.489536 0.27246 0.114189
6198 1 0.51058 0.269195 0.113309
6946 1 0.50757 0.270006 0.113118
6948 1 0.492238 0.27192 0.114246
6947 3 0.499983 0.272506 0.114075
14711 3 0.53102 0.275852 0.0955718
14710 1 0.534027 0.269565 0.0994324
6196 1 0.524704 0.261288 0.113613
6197 3 0.518799 0.26689 0.115069
13002 1 0.557093 0.25405 0.108092
12542 3 0.54934 0.255241 0.100737
12543 1 0.554943 0.254375 0.106012
13001 3 0.560832 0.252436 0.114375
11828 3 0.58011 0.256277 0.102412
11827 1 0.583881 0.259467 0.0954427
7919 3 0.577984 0.275053 0.0960329
7920 1 0.582704 0.26963 0.099906
18585 1 0.418544 0.287358 0.115273
10914 1 0.419109 0.290479 0.11578
10913 3 0.420247 0.297979 0.117046
10912 1 0.423479 0.300382 0.123213
171 1 0.448735 0.283176 0.108836
170 3 0.442001 0.287672 0.111529
13829 3 0.443286 0.305796 0.103011
13828 1 0.449001 0.302595 0.0998246
18373 1 0.450454 0.301097 0.0984544
169 1 0.436332 0.287864 0.117047
13830 1 0.438844 0.310026 0.106633
18375 1 0.451378 0.288114 0.0950553
13915 1 0.437585 0.31154 0.107589
18374 3 0.455048 0.295668 0.0953006
2617 1 0.456947 0.301828 0.124196
7544 3 0.4702 0.283921 0.103723
2618 3 0.46305 0.298204 0.120798
2619 1 0.471157 0.300095 0.119791
19119 1 0.470892 0.305913 0.09764
14740 1 0.474359 0.30065 0.119997
14741 3 0.481642 0.301099 0.120858
19118 3 0.467874 0.310087 0.104331
11512 1 0.472068 0.304267 0.0953732
12252 1 0.483225 0.298339 0.0978724
11514 1 0.481562 0.299207 0.0954558
14194 1 0.508691 0.304389 0.0951094
14195 3 0.513448 0.307268 0.101089
12250 1 0.493093 0.290431 0.108013
14742 1 0.489535 0.300449 0.121814
12251 3 0.488132 0.294553 0.102822
16122 1 0.503341 0.286503 0.0941116
16121 3 0.509136 0.283743 0.099549
7461 1 0.49269 0.300084 0.121891
7460 3 0.501917 0.29818 0.122979
12614 3 0.525179 0.290564 0.109555
12613 1 0.519041 0.287129 0.104771
16120 1 0.516442 0.286221 0.102776
12615 1 0.529332 0.296334 0.109874
17736 1 0.530825 0.299306 0.110495
17735 3 0.533591 0.307018 0.111631
17734 1 0.538259 0.311293 0.116364
4877 2 0.571668 0.296434 0.124082
12622 1 0.40971 0.323209 0.115832
15218 3 0.398682 0.339872 0.0997204
12623 3 0.409617 0.33163 0.111721
15219 1 0.403279 0.336305 0.105578
12624 1 0.405071 0.335116 0.107339
9113 3 0.428029 0.343269 0.0972948
13916 3 0.431928 0.316892 0.110614
1204 1 0.43585 0.324164 0.117621
13917 1 0.435013 0.322131 0.115631
1205 3 0.434812 0.330783 0.122167
6328 1 0.443904 0.331927 0.0947476
7377 1 0.446186 0.333976 0.0955607
7376 3 0.453121 0.338862 0.0969084
1197 1 0.425289 0.342587 0.122785
9376 1 0.477632 0.337819 0.0954715
14997 1 0.479096 0.335721 0.0975019
19117 1 0.463281 0.315411 0.108876
6367 1 0.460852 0.317295 0.110489
6368 3 0.455385 0.32077 0.11456
6369 1 0.455014 0.323758 0.121636
14996 3 0.482165 0.330269 0.101406
2028 1 0.471491 0.337816 0.116141
7375 1 0.458184 0.340996 0.10389
2026 1 0.460079 0.341641 0.106588
2027 2 0.465734 0.34211 0.112405
19434 1 0.455144 0.325167 0.124256
14995 1 0.486159 0.324294 0.103075
4857 1 0.495663 0.319293 0.0973392
4855 1 0.48834 0.322121 0.103567
4856 3 0.493646 0.315894 0.103389
15483 1 0.485935 0.317167 0.118641
15482 3 0.490203 0.321374 0.123104
14196 1 0.514271 0.313117 0.10616
14503 1 0.514733 0.315064 0.108132
14504 3 0.516029 0.320538 0.113702
14505 1 0.52322 0.324619 0.114039
10608 1 0.525962 0.326536 0.114409
10607 3 0.532859 0.330276 0.115449
10606 1 0.539448 0.328692 0.119007
4854 1 0.542457 0.328177 0.120343
14579 3 0.390046 0.352229 0.118855
14578 1 0.390333 0.355838 0.111993
15071 3 0.390905 0.363512 0.103539
15072 1 0.390409 0.357639 0.109683
15070 1 0.396693 0.368558 0.102074
1196 3 0.420887 0.348722 0.119716
11076 1 0.412673 0.354412 0.123965
1195 1 0.414735 0.352568 0.122906
5976 1 0.421849 0.37076 0.108841
7694 3 0.397073 0.374689 0.120239
9114 1 0.431819 0.346432 0.103237
7777 1 0.43341 0.34798 0.105205
7778 3 0.43773 0.351442 0.11108
7779 1 0.439728 0.358734 0.111273
5025 1 0.439927 0.361912 0.110714
5024 3 0.441558 0.369359 0.109125
5023 1 0.447114 0.373655 0.108615
5975 3 0.422013 0.376001 0.115002
5974 1 0.422736 0.376892 0.123659
7693 1 0.399695 0.375379 0.112883
16783 1 0.43936 0.400968 0.118805
16784 2 0.44282 0.395405 0.12231
1931 3 0.410785 0.249557 0.133072
5162 2 0.399805 0.240774 0.145942
5161 1 0.40424 0.243692 0.139571
1932 1 0.405945 0.245509 0.137244
5163 1 0.397856 0.236935 0.152614
9438 1 0.448408 0.242152 0.138735
9437 3 0.445442 0.235068 0.135206
9436 1 0.438264 0.229338 0.135193
276 1 0.461144 0.239238 0.136928
275 3 0.465999 0.245154 0.138478
274 1 0.467046 0.249715 0.144899
8522 3 0.510854 0.249547 0.126156
17797 1 0.562016 0.236239 0.12921
4044 1 0.560189 0.237436 0.131434
4043 3 0.557138 0.24266 0.136538
13340 3 0.421926 0.263753 0.129086
1930 1 0.41566 0.255399 0.130882
13341 1 0.41745 0.257266 0.130433
7988 3 0.422495 0.269968 0.149343
7987 1 0.422162 0.264777 0.142861
13339 1 0.425356 0.270838 0.130655
1683 1 0.426057 0.274024 0.131448
1682 3 0.430422 0.280484 0.131978
7989 1 0.426207 0.274702 0.154468
9352 1 0.435623 0.265751 0.147732
9353 3 0.44142 0.263557 0.143518
9354 1 0.443894 0.264371 0.136276
21549 1 0.445313 0.265174 0.133536
21547 1 0.450566 0.27444 0.126443
21548 3 0.448297 0.267494 0.126558
4087 1 0.451247 0.277038 0.126889
14846 3 0.481527 0.253262 0.125223
14164 1 0.481357 0.258897 0.155385
14165 3 0.473401 0.25685 0.15615
14847 1 0.477507 0.258682 0.128393
2632 1 0.476476 0.260541 0.129733
2633 3 0.474166 0.267003 0.135303
2634 1 0.477997 0.272797 0.139119
5514 1 0.480036 0.275398 0.140516
5513 3 0.484828 0.280401 0.143046
8523 1 0.510035 0.253534 0.134099
16018 1 0.509742 0.254585 0.136483
16019 3 0.509656 0.255918 0.143974
16020 1 0.513076 0.25813 0.151261
2079 1 0.514533 0.258231 0.15411
5512 1 0.492559 0.280372 0.143179
8818 1 0.495619 0.279968 0.143216
8820 1 0.51037 0.27788 0.146951
21319 1 0.513572 0.278013 0.147262
8819 3 0.503286 0.278772 0.144659
18828 1 0.541876 0.272963 0.127105
21320 2 0.521846 0.279542 0.148709
21321 1 0.52981 0.278925 0.150514
4616 3 0.560406 0.260559 0.140964
4615 1 0.556512 0.26559 0.135207
4042 1 0.559664 0.250158 0.138455
4617 1 0.560133 0.25273 0.139999
18826 1 0.55481 0.267167 0.133013
18827 3 0.549669 0.271349 0.12718
3082 1 0.41832 0.285643 0.14491
3084 1 0.415049 0.299326 0.146256
3083 3 0.41697 0.29213 0.144239
2101 1 0.414779 0.302202 0.146417
2102 3 0.413333 0.309291 0.14712
391 1 0.45443 0.302741 0.12529
4527 1 0.425254 0.301453 0.126317
1681 1 0.433859 0.281841 0.139719
17025 1 0.435196 0.282212 0.142529
4088 3 0.452828 0.283541 0.128881
17024 3 0.438337 0.282681 0.150496
393 1 0.439814 0.304718 0.129571
392 3 0.447572 0.304557 0.127244
4526 3 0.429256 0.303787 0.132482
4525 1 0.437171 0.304878 0.130635
4089 1 0.455794 0.287507 0.134864
2161 1 0.457129 0.28925 0.137152
2162 3 0.461603 0.292605 0.142984
2163 1 0.466649 0.298421 0.147795
15156 1 0.468422 0.299987 0.149511
15155 3 0.474545 0.30379 0.152933
15154 1 0.480908 0.307024 0.149585
18600 1 0.483575 0.308591 0.148372
18599 3 0.490629 0.310625 0.146916
7459 1 0.506311 0.300701 0.128207
574 1 0.508484 0.301224 0.13008
575 3 0.513451 0.301065 0.135115
576 1 0.518408 0.296685 0.141265
20140 1 0.53803 0.302967 0.131042
18969 1 0.539124 0.301105 0.13049
18967 1 0.540763 0.290068 0.13541
18968 3 0.54281 0.293819 0.12876
20141 3 0.534857 0.309774 0.132803
4876 1 0.565857 0.302642 0.125799
17589 1 0.564332 0.30469 0.126303
17588 3 0.55894 0.310929 0.129009
4878 1 0.57607 0.289742 0.126191
21354 1 0.386922 0.327731 0.13033
3988 1 0.386095 0.330607 0.131041
3990 1 0.392424 0.339116 0.135005
3989 3 0.38472 0.338391 0.133758
21353 3 0.391055 0.321466 0.127949
681 1 0.387539 0.326726 0.15314
5970 1 0.389426 0.324974 0.151765
17323 1 0.415375 0.318054 0.129744
21352 1 0.3974 0.316631 0.127348
5968 1 0.396803 0.321331 0.141249
9637 1 0.407587 0.333795 0.133307
17325 1 0.409468 0.33163 0.132797
17324 3 0.414549 0.325498 0.131758
9638 3 0.402063 0.339993 0.136683
9639 1 0.394972 0.339719 0.135597
5969 3 0.394467 0.319636 0.148705
2103 1 0.415742 0.314862 0.153462
11832 1 0.416579 0.31669 0.15521
4348 1 0.442042 0.317337 0.153163
306 1 0.433022 0.321759 0.136421
305 3 0.437908 0.322504 0.143663
304 1 0.440856 0.318488 0.150303
1206 1 0.436904 0.336151 0.126333
18886 1 0.437513 0.338278 0.127729
21209 3 0.428509 0.342504 0.154789
4091 3 0.475532 0.33948 0.142727
4090 1 0.477403 0.33335 0.147404
19433 3 0.456685 0.327241 0.132336
19432 1 0.459727 0.326687 0.139578
13534 1 0.460352 0.326444 0.142679
13535 3 0.461799 0.325255 0.150434
15481 1 0.496114 0.325941 0.125389
14539 1 0.492299 0.341148 0.14018
18598 1 0.498034 0.312776 0.15129
20142 1 0.529298 0.315347 0.133606
11904 1 0.518169 0.328879 0.128363
11902 1 0.52722 0.317656 0.133768
11903 3 0.522072 0.324119 0.133483
4852 1 0.55344 0.320273 0.127079
17587 1 0.555222 0.317965 0.128079
4853 2 0.549224 0.326935 0.125105
14580 1 0.390912 0.351798 0.126711
5285 3 0.412089 0.355191 0.151676
5286 1 0.419118 0.348537 0.152075
21208 1 0.422059 0.347085 0.152386
5284 1 0.405757 0.359673 0.152562
7695 1 0.401773 0.368387 0.125196
11074 1 0.403953 0.36628 0.126148
11075 3 0.408034 0.359892 0.127941
19510 1 0.438531 0.368971 0.131839
19511 3 0.435893 0.362297 0.1342
18887 3 0.438804 0.344478 0.131107
18888 1 0.437529 0.35174 0.133379
19512 1 0.436654 0.354615 0.134233
4151 3 0.452727 0.366996 0.144368
4150 1 0.449879 0.373248 0.149032
11122 1 0.439882 0.371646 0.131272
4092 1 0.469112 0.345008 0.142175
19302 1 0.466818 0.346921 0.141894
19300 1 0.456479 0.357759 0.142826
4152 1 0.455449 0.3602 0.143559
19301 3 0.460574 0.351505 0.140913
14541 1 0.503778 0.349387 0.135288
14540 3 0.497942 0.347589 0.141079
2883 1 0.422508 0.3779 0.126311
2882 3 0.421846 0.380266 0.13403
11123 3 0.443682 0.379002 0.129472
11124 1 0.44361 0.386104 0.126674
16785 1 0.443618 0.388966 0.125404
5344 1 0.448958 0.375517 0.150447
5345 2 0.446006 0.381572 0.155185
5346 1 0.44043 0.385538 0.152403
2881 1 0.427286 0.384185 0.139008
19942 1 0.428751 0.385545 0.140513
19943 2 0.433713 0.389406 0.144891
19944 1 0.438516 0.386848 0.150231
13932 1 0.423383 0.261595 0.174444
13931 2 0.41751 0.266118 0.171971
13930 1 0.409831 0.265644 0.168816
14166 1 0.466312 0.252434 0.158925
10820 3 0.479007 0.279545 0.16525
19698 1 0.486848 0.27452 0.168467
10821 1 0.485006 0.275814 0.167676
19696 1 0.497144 0.264013 0.172665
19697 3 0.493077 0.269745 0.171081
2077 1 0.524403 0.256488 0.1676
2078 2 0.519831 0.256745 0.160488
1945 1 0.398074 0.310009 0.161323
1947 1 0.405916 0.298244 0.169958
1946 3 0.400826 0.304159 0.166196
17023 1 0.443372 0.282704 0.157554
1192 1 0.482647 0.301046 0.175545
1193 3 0.476795 0.294703 0.1787
20325 1 0.457409 0.300616 0.182963
20632 1 0.46109 0.290316 0.173551
20323 1 0.459821 0.290825 0.176591
20324 3 0.45703 0.293597 0.184014
20633 3 0.463097 0.28994 0.165319
10819 1 0.471836 0.284206 0.163984
20634 1 0.46937 0.285966 0.164091
20127 1 0.465174 0.307785 0.170764
1194 1 0.475647 0.28795 0.180955
17721 1 0.375882 0.331068 0.166357
679 1 0.37812 0.331475 0.164263
17720 2 0.370781 0.32932 0.170745
680 3 0.384286 0.331365 0.157815
17719 1 0.372533 0.328979 0.178574
11831 3 0.419541 0.322652 0.161181
11830 1 0.418958 0.328805 0.166072
10437 1 0.418899 0.330782 0.168142
10436 3 0.419127 0.337456 0.172853
4350 1 0.444512 0.317473 0.167209
4349 3 0.44494 0.314263 0.159766
1634 3 0.446751 0.339337 0.159611
1635 1 0.450102 0.335467 0.166367
1633 1 0.43959 0.341077 0.157114
21210 1 0.436845 0.34142 0.156444
3508 1 0.478904 0.337732 0.168226
3509 3 0.470632 0.340561 0.170554
628 1 0.482088 0.337503 0.167233
13536 1 0.462014 0.321957 0.158463
20125 1 0.462622 0.320083 0.161143
20126 3 0.463431 0.315663 0.168415
629 3 0.489686 0.338534 0.164502
630 1 0.496699 0.338562 0.160184
10435 1 0.41993 0.345373 0.172658
20590 1 0.419748 0.348401 0.172183
20591 3 0.420307 0.357333 0.171676
10076 3 0.446081 0.367619 0.171777
20592 1 0.424566 0.362311 0.176365
10075 1 0.453742 0.365014 0.17121
3510 1 0.468044 0.348475 0.170366
3060 1 0.468553 0.354095 0.166722
3058 1 0.457049 0.363895 0.170909
3059 3 0.46471 0.360344 0.169007
5941 1 0.443784 0.377358 0.176358
10077 1 0.444313 0.375061 0.175073
5942 3 0.441208 0.385788 0.179972
5943 1 0.444144 0.385806 0.186394
11263 1 0.419417 0.227289 0.997886
7486 1 0.484528 0.261744 0.998884
