ITEM: TIMESTEP
25000000
ITEM: NUMBER OF ATOMS
1206
ITEM: BOX BOUNDS pp pp pp
0.0000000000000000e+00 5.0000000000000000e+01
0.0000000000000000e+00 5.0000000000000000e+01
0.0000000000000000e+00 5.0000000000000000e+01
ITEM: ATOMS id type xs ys zs
20566 1 0.533492 0.479313 0.28072
14959 1 0.593073 0.367048 0.310347
7729 1 0.54393 0.456097 0.309146
21147 1 0.54519 0.458753 0.30818
7730 2 0.540753 0.448735 0.310709
7731 1 0.534619 0.442698 0.31186
21146 2 0.548587 0.465451 0.30677
13230 1 0.591933 0.448872 0.302436
13228 1 0.589039 0.4566 0.311992
13229 2 0.595327 0.453779 0.308597
4596 1 0.484812 0.479487 0.290446
4594 1 0.472444 0.471874 0.294599
4595 2 0.477271 0.478394 0.294159
5398 1 0.470258 0.480336 0.312123
17983 1 0.48671 0.472021 0.311305
3191 2 0.520272 0.493652 0.303747
3190 1 0.515542 0.49675 0.297749
3192 1 0.523765 0.491649 0.310917
20567 2 0.531359 0.479228 0.288855
20568 1 0.525421 0.480015 0.294911
2204 2 0.558969 0.477695 0.297673
2205 1 0.560003 0.485315 0.299499
2203 1 0.555145 0.472207 0.301863
21145 1 0.553716 0.470042 0.303337
8524 1 0.574682 0.48937 0.311812
8525 2 0.5794 0.49306 0.306572
14960 3 0.591383 0.372067 0.315749
585 1 0.555747 0.393395 0.339167
584 2 0.562629 0.39018 0.335043
19660 1 0.571444 0.38472 0.330242
583 1 0.569383 0.385747 0.331751
16402 1 0.55344 0.394504 0.340527
14961 1 0.58575 0.377068 0.319528
19662 1 0.583191 0.378886 0.321235
19661 2 0.578179 0.381365 0.325495
1363 1 0.445948 0.465929 0.34364
12537 1 0.429694 0.465459 0.341766
1364 2 0.449666 0.464164 0.337313
16294 1 0.477055 0.440255 0.331589
16295 2 0.472685 0.445313 0.32864
16296 1 0.466137 0.448488 0.327357
17984 2 0.483245 0.467306 0.316736
14898 1 0.514905 0.465523 0.335571
19483 1 0.51446 0.468367 0.335125
20519 2 0.497032 0.454705 0.32472
20520 1 0.49347 0.461434 0.325494
20518 1 0.499466 0.447355 0.3226
15247 1 0.518459 0.467069 0.313857
15248 2 0.523686 0.461892 0.317864
14896 1 0.516179 0.44901 0.33702
14897 2 0.516481 0.457019 0.337886
15249 1 0.519765 0.457004 0.322715
21539 2 0.536111 0.462233 0.343036
21540 1 0.543611 0.463637 0.339845
13348 1 0.54608 0.464143 0.338149
13349 2 0.553613 0.464939 0.334666
13350 1 0.560832 0.466106 0.333353
6274 1 0.563561 0.466517 0.332986
6275 2 0.570954 0.467698 0.332459
7249 1 0.587162 0.458328 0.313671
7251 1 0.579741 0.463631 0.326252
7250 2 0.583457 0.461125 0.319939
6276 1 0.577675 0.46501 0.328507
1365 1 0.446713 0.46971 0.332908
3723 1 0.453458 0.499742 0.328124
5399 2 0.472656 0.487247 0.31374
5400 1 0.467148 0.491572 0.317573
17985 1 0.479415 0.469321 0.323476
16813 1 0.477379 0.47 0.325952
3722 2 0.459463 0.498203 0.323366
3721 1 0.465074 0.4937 0.319393
16814 2 0.472431 0.470541 0.331858
16815 1 0.475848 0.475751 0.336876
4399 1 0.476953 0.477548 0.338903
4605 1 0.492096 0.498491 0.330023
20318 2 0.500138 0.492027 0.325441
19386 1 0.514917 0.487971 0.333587
19485 1 0.514353 0.485194 0.332723
20317 1 0.506136 0.488076 0.322858
20319 1 0.494122 0.496715 0.328863
19484 2 0.512908 0.476497 0.333631
18782 2 0.543661 0.499746 0.334001
15267 1 0.525172 0.49099 0.313198
15266 2 0.528731 0.490521 0.320015
15265 1 0.53355 0.484568 0.32269
20508 1 0.54524 0.484763 0.316304
19385 2 0.515946 0.495715 0.337341
18781 1 0.541997 0.492587 0.336373
13320 1 0.540946 0.489722 0.337561
13319 2 0.53809 0.48343 0.340246
20507 2 0.551425 0.484697 0.321027
20506 1 0.558132 0.485136 0.321073
5874 1 0.560617 0.485118 0.321047
5873 2 0.568227 0.485924 0.32039
5872 1 0.57275 0.488185 0.314224
14338 1 0.5591 0.49546 0.337193
7174 1 0.559853 0.497855 0.335499
14339 2 0.558051 0.488501 0.341733
9269 2 0.590461 0.480555 0.326142
10939 1 0.586439 0.488168 0.332308
9270 1 0.585189 0.481823 0.321327
10940 2 0.582948 0.495344 0.335943
9268 1 0.587372 0.485762 0.33045
10941 1 0.57908 0.499982 0.341551
16404 1 0.541083 0.404703 0.345836
16403 3 0.547276 0.398305 0.343751
1494 1 0.499128 0.43109 0.345726
7354 1 0.501294 0.420768 0.35853
8140 1 0.502515 0.419131 0.357003
7355 2 0.498218 0.425616 0.363308
7356 1 0.496048 0.430693 0.369213
8142 1 0.513512 0.415283 0.349043
8141 3 0.506085 0.413598 0.351784
3001 1 0.495046 0.431988 0.371047
9642 1 0.539859 0.406258 0.346541
9641 2 0.534149 0.412425 0.348601
9640 1 0.530326 0.419587 0.348205
5631 1 0.529319 0.422062 0.348142
5630 3 0.527244 0.42985 0.347288
5629 1 0.521641 0.436263 0.35174
19704 1 0.52446 0.411196 0.367819
19703 3 0.520071 0.418452 0.367628
19702 1 0.524749 0.425057 0.367788
10284 1 0.52586 0.427831 0.367996
10283 2 0.52867 0.435561 0.368803
8373 1 0.544515 0.420951 0.371919
11162 3 0.548589 0.4302 0.36889
11163 1 0.54609 0.423509 0.370662
11161 1 0.547466 0.43747 0.365597
12536 3 0.422178 0.466224 0.345362
6440 2 0.439484 0.459305 0.370327
14564 2 0.442221 0.468087 0.353818
14563 1 0.440238 0.464264 0.36132
6439 1 0.440064 0.46316 0.363852
14565 1 0.444786 0.466492 0.34632
15085 1 0.464439 0.451428 0.345902
15086 2 0.467949 0.45232 0.352173
15087 1 0.472426 0.450319 0.359303
12256 1 0.47424 0.449073 0.361875
12257 2 0.477801 0.446622 0.368146
7630 1 0.467823 0.467546 0.362881
1544 2 0.483433 0.465985 0.359599
7631 2 0.460051 0.467025 0.363854
1493 2 0.496886 0.439072 0.343993
1492 1 0.494382 0.446385 0.343946
5623 1 0.49348 0.449385 0.344155
18177 1 0.504824 0.44768 0.360087
20869 1 0.5075 0.446875 0.359165
5624 2 0.490409 0.45697 0.343957
5625 1 0.487074 0.461146 0.350546
1545 1 0.48574 0.46268 0.353253
18176 2 0.498241 0.449961 0.362903
20870 2 0.514793 0.444684 0.357032
18175 1 0.495261 0.453393 0.369631
1411 1 0.494847 0.454816 0.372369
10282 1 0.530586 0.441254 0.372654
20871 1 0.520036 0.438363 0.353261
17737 1 0.53087 0.46203 0.352534
21538 1 0.532143 0.461629 0.350293
17738 2 0.527246 0.462719 0.359744
17739 1 0.526061 0.461405 0.366818
15957 1 0.531274 0.443847 0.3743
9672 1 0.546981 0.440081 0.364773
9671 2 0.546262 0.449091 0.362635
9670 1 0.550628 0.453815 0.367202
4689 1 0.552156 0.455237 0.369354
4688 2 0.557039 0.459336 0.374478
8244 1 0.587748 0.464849 0.348824
16369 1 0.421138 0.495705 0.36535
12535 1 0.413724 0.469303 0.345898
16370 2 0.420761 0.488521 0.370064
6855 1 0.448089 0.490488 0.361051
6854 2 0.443259 0.496409 0.360966
9343 1 0.449873 0.488569 0.360841
14167 1 0.424282 0.499807 0.344976
6853 1 0.437831 0.499452 0.356699
18869 2 0.474686 0.498181 0.373637
1543 1 0.484241 0.472526 0.363883
8145 1 0.484115 0.475217 0.365389
9344 2 0.456096 0.483604 0.36118
9345 1 0.457994 0.477278 0.362963
7632 1 0.458676 0.474423 0.363471
8143 1 0.478932 0.488639 0.370782
18868 1 0.47759 0.490809 0.371662
8144 2 0.483343 0.481875 0.368214
3789 1 0.473592 0.497707 0.354697
4400 2 0.481327 0.481997 0.344061
18852 1 0.500786 0.474311 0.352813
4401 1 0.488771 0.484446 0.345913
10904 2 0.498682 0.487057 0.346322
10905 1 0.491755 0.485197 0.346166
18851 2 0.507109 0.471052 0.355742
18850 1 0.511894 0.476904 0.356461
16941 1 0.51429 0.479481 0.35644
10903 1 0.506317 0.485735 0.344581
13318 1 0.535632 0.476532 0.344442
16940 2 0.519985 0.485152 0.356541
16939 1 0.523926 0.491262 0.354553
5335 1 0.525528 0.493259 0.353681
2257 1 0.541009 0.472386 0.37017
12750 1 0.542585 0.471816 0.367631
7269 1 0.521052 0.482092 0.372559
5336 2 0.531611 0.498855 0.352882
7945 1 0.574281 0.496548 0.358175
14340 1 0.556808 0.491129 0.34843
12749 2 0.547208 0.470117 0.361116
7993 1 0.55612 0.492524 0.35118
12748 1 0.554587 0.473109 0.359134
15340 1 0.557453 0.473709 0.358919
7994 2 0.55392 0.495009 0.357253
7946 2 0.57288 0.492185 0.365448
7947 1 0.574306 0.485755 0.369046
9612 1 0.574948 0.48361 0.370984
15341 2 0.564248 0.474675 0.357329
8242 1 0.575238 0.47157 0.352973
15342 1 0.572798 0.472369 0.354466
7995 1 0.550585 0.499682 0.362353
8243 2 0.581582 0.469681 0.34918
12296 2 0.599572 0.491551 0.369292
12297 1 0.595616 0.497792 0.371955
12295 1 0.607473 0.49242 0.371818
3002 2 0.492333 0.436298 0.376586
19732 1 0.507596 0.41622 0.386893
19733 2 0.512451 0.422939 0.386944
1663 1 0.512582 0.433948 0.381476
19734 1 0.512791 0.431136 0.382325
8371 1 0.531376 0.412904 0.377359
8372 3 0.539316 0.416179 0.375682
3163 1 0.568749 0.433702 0.388227
3687 1 0.566067 0.432944 0.389066
3686 3 0.558678 0.431895 0.393575
3685 1 0.555852 0.433597 0.40058
11857 1 0.553932 0.434264 0.402632
3164 2 0.576647 0.434954 0.385674
6441 1 0.437229 0.454238 0.37613
9327 1 0.435528 0.46328 0.397376
15112 1 0.434957 0.466069 0.396094
9326 2 0.437731 0.456282 0.400702
12258 1 0.475668 0.445989 0.375964
15118 1 0.474996 0.445069 0.378707
15119 2 0.472992 0.444652 0.386228
15120 1 0.467173 0.441487 0.392007
11707 1 0.455587 0.460047 0.388717
10605 1 0.456182 0.46238 0.387316
11708 2 0.45543 0.454241 0.393114
11709 1 0.459247 0.450863 0.398608
4510 1 0.460765 0.449813 0.400672
4511 2 0.465833 0.446974 0.405154
3003 1 0.492438 0.438479 0.384604
11520 1 0.493436 0.439491 0.38743
11519 2 0.495543 0.443174 0.394892
9890 2 0.489281 0.458251 0.404094
9891 1 0.492351 0.45251 0.400532
11518 1 0.493272 0.450014 0.399465
1413 1 0.487796 0.462488 0.383948
2931 1 0.485944 0.463954 0.385283
1412 2 0.493455 0.458661 0.379443
5356 1 0.50997 0.460638 0.396871
5357 2 0.513365 0.453638 0.398782
1664 2 0.512545 0.441362 0.381197
1665 1 0.512173 0.448691 0.379074
9837 1 0.512444 0.451451 0.378087
9835 1 0.514977 0.465828 0.376184
9836 2 0.51331 0.45784 0.375016
2914 1 0.509361 0.463375 0.396289
15956 2 0.532754 0.450451 0.379431
15955 1 0.535392 0.454334 0.385339
6216 1 0.536466 0.456004 0.387607
6215 2 0.538655 0.459851 0.394871
5358 1 0.515774 0.446114 0.400803
6214 1 0.543879 0.462738 0.398464
21401 2 0.518662 0.437859 0.406054
21402 1 0.516741 0.443793 0.40217
4687 1 0.560643 0.457663 0.38172
9730 1 0.561685 0.457677 0.384221
9731 2 0.56366 0.456624 0.391577
9732 1 0.563575 0.456502 0.400226
9183 1 0.563526 0.456487 0.404182
12324 1 0.592167 0.455029 0.379836
6573 1 0.59402 0.457171 0.37997
6572 3 0.598228 0.464189 0.380951
14917 1 0.589375 0.442492 0.405451
3844 1 0.597038 0.452976 0.400819
12322 1 0.583493 0.442262 0.382702
3165 1 0.581394 0.439999 0.383632
12323 2 0.587434 0.448337 0.380351
9900 1 0.588362 0.445425 0.404893
9898 1 0.581324 0.459502 0.401382
9899 2 0.583678 0.452503 0.403673
3845 2 0.603593 0.452345 0.396227
1904 3 0.623017 0.454479 0.39218
1903 1 0.627842 0.455381 0.399338
1905 1 0.614699 0.454855 0.394348
3846 1 0.611681 0.454753 0.394968
16371 1 0.422681 0.488207 0.376986
2997 1 0.423656 0.488662 0.379955
15399 1 0.453699 0.495774 0.384999
17381 2 0.452592 0.497259 0.405259
15113 2 0.437225 0.472313 0.392008
15114 1 0.439014 0.477521 0.386982
2996 2 0.424711 0.491761 0.387836
11092 1 0.428397 0.491589 0.397332
2995 1 0.427829 0.491807 0.394231
15398 2 0.454321 0.488389 0.383193
11093 2 0.430351 0.49107 0.404754
6396 1 0.453666 0.498839 0.385738
17382 1 0.454737 0.499086 0.39892
2930 2 0.479575 0.469089 0.388716
10604 2 0.457749 0.46928 0.383036
10603 1 0.456355 0.476877 0.382929
15397 1 0.456051 0.480055 0.382555
2929 1 0.475256 0.47543 0.390824
3922 1 0.473929 0.478013 0.392091
3923 2 0.472744 0.484879 0.395413
3924 1 0.472122 0.492962 0.39603
6235 1 0.472228 0.495942 0.395636
9043 1 0.511908 0.494603 0.376578
15238 1 0.494376 0.483162 0.387155
15239 2 0.499611 0.489579 0.384522
11973 1 0.510242 0.493741 0.388225
15240 1 0.507284 0.492601 0.387302
16339 1 0.499448 0.477183 0.400719
16341 1 0.491193 0.486815 0.404754
16340 2 0.492451 0.478902 0.402848
2916 1 0.501718 0.476122 0.399606
2915 2 0.507856 0.471976 0.395582
14032 1 0.490419 0.48936 0.405452
2258 2 0.537323 0.473022 0.37674
11972 2 0.518038 0.495821 0.390275
7267 1 0.51601 0.468821 0.376321
7268 2 0.517503 0.475975 0.375885
20879 2 0.538278 0.48341 0.391398
20878 1 0.538337 0.488176 0.397645
12381 1 0.538405 0.489573 0.399787
12380 2 0.537725 0.495185 0.406211
20880 1 0.537425 0.479077 0.385808
2259 1 0.537008 0.477499 0.383859
11971 1 0.523454 0.498585 0.384886
16924 1 0.525116 0.499368 0.382416
16925 2 0.529459 0.499905 0.375257
17225 2 0.560747 0.48596 0.389879
17226 1 0.558286 0.480631 0.395667
873 1 0.557019 0.4785 0.397172
872 2 0.554602 0.47208 0.400441
871 1 0.549095 0.47349 0.406142
17224 1 0.567319 0.490798 0.387659
1072 1 0.569748 0.492244 0.386776
21444 1 0.597603 0.496893 0.400873
21443 2 0.594427 0.499738 0.395183
1074 1 0.581886 0.496992 0.37853
1073 2 0.576526 0.496934 0.386125
6571 1 0.601643 0.47157 0.383682
9611 2 0.5764 0.47804 0.37656
6576 1 0.578968 0.472891 0.385463
9610 1 0.578202 0.474258 0.382792
20949 1 0.580282 0.478712 0.401062
6574 1 0.580639 0.476735 0.399042
368 2 0.600464 0.478686 0.39427
369 1 0.60605 0.481934 0.390032
6575 2 0.580838 0.470559 0.393631
367 1 0.59975 0.479246 0.401586
15495 1 0.598664 0.495564 0.403772
18814 1 0.492472 0.35892 0.434908
18815 2 0.496595 0.365874 0.434564
18816 1 0.49625 0.373112 0.434052
3645 1 0.467409 0.38992 0.425006
3644 2 0.473131 0.387846 0.431207
11464 1 0.497209 0.402027 0.417105
11465 2 0.498741 0.404184 0.410012
13587 1 0.496627 0.376206 0.433887
13586 2 0.496121 0.383459 0.433192
13585 1 0.493757 0.38988 0.437256
1443 1 0.529582 0.390524 0.424408
5857 1 0.519496 0.403568 0.423622
1441 1 0.521642 0.401849 0.422585
1442 2 0.526489 0.396968 0.419997
12368 2 0.543735 0.392455 0.432859
12367 1 0.535673 0.39322 0.432306
12369 1 0.551614 0.39388 0.434804
16604 2 0.574535 0.39615 0.43143
16603 1 0.576969 0.403393 0.43344
2025 1 0.577987 0.406194 0.4339
16605 1 0.576887 0.389257 0.431573
17401 1 0.458779 0.430879 0.431881
953 2 0.474651 0.432799 0.415
952 1 0.478627 0.43235 0.422462
19182 1 0.480149 0.432546 0.425672
8310 1 0.460672 0.428252 0.433494
8309 2 0.465469 0.421465 0.436582
19181 2 0.483018 0.433789 0.432937
11466 1 0.500631 0.41082 0.409756
21045 1 0.501159 0.413729 0.409556
5858 2 0.513662 0.40828 0.425155
20649 1 0.487354 0.420081 0.426554
20648 2 0.494405 0.41699 0.429212
20647 1 0.502188 0.413348 0.427517
5859 1 0.505317 0.41231 0.426879
21044 2 0.502577 0.420238 0.408551
2875 1 0.498468 0.429771 0.410366
21043 1 0.499428 0.42667 0.40942
2876 2 0.49639 0.436555 0.413394
21288 1 0.508916 0.435105 0.420067
21287 2 0.513232 0.430077 0.425316
19180 1 0.487834 0.435477 0.437485
10347 1 0.525266 0.4303 0.410454
10346 2 0.529586 0.424924 0.412965
10345 1 0.532797 0.422856 0.420421
15684 1 0.534435 0.421544 0.423398
15683 2 0.539127 0.417557 0.429365
21400 1 0.523101 0.432459 0.409323
21286 1 0.519091 0.431199 0.431521
5089 1 0.520974 0.431813 0.433877
15682 1 0.542927 0.415214 0.435753
11858 2 0.548963 0.436708 0.407558
3496 1 0.572023 0.411116 0.411132
3497 2 0.565206 0.411164 0.412656
3178 1 0.561136 0.418992 0.419456
3498 1 0.561921 0.416682 0.417515
3179 2 0.559976 0.425006 0.424588
3180 1 0.556866 0.429205 0.429981
21289 1 0.555506 0.430861 0.431998
21290 2 0.552198 0.436084 0.437103
2024 2 0.579846 0.414674 0.434237
2023 1 0.581671 0.417584 0.426413
10060 1 0.582073 0.418687 0.423511
10061 2 0.583598 0.421106 0.416065
10062 1 0.587939 0.427182 0.412119
14919 1 0.589252 0.429378 0.410007
14918 2 0.591641 0.435087 0.406429
4170 1 0.576403 0.434297 0.433511
16132 1 0.382694 0.449543 0.421364
16133 3 0.38927 0.446404 0.420564
133 1 0.363944 0.456908 0.42298
134 3 0.371436 0.453832 0.422717
135 1 0.379681 0.450873 0.422011
16134 1 0.396561 0.447779 0.418217
17823 1 0.399435 0.448259 0.417901
17821 1 0.411928 0.456002 0.417842
17822 2 0.406484 0.449902 0.417372
18295 1 0.414084 0.458468 0.417866
18296 2 0.420935 0.463941 0.41879
17243 2 0.446209 0.448693 0.417104
9325 1 0.44032 0.452863 0.407892
17244 1 0.44181 0.451714 0.410562
17403 1 0.452702 0.44339 0.424133
17242 1 0.450634 0.445539 0.422529
18297 1 0.428158 0.46789 0.417004
17402 3 0.45657 0.438282 0.428528
4512 1 0.471062 0.4421 0.409048
954 1 0.472078 0.439988 0.410995
5133 1 0.482534 0.465356 0.408011
9889 1 0.484673 0.463672 0.406901
6181 1 0.464985 0.468477 0.41005
17659 1 0.472603 0.448361 0.430915
17660 2 0.474796 0.451944 0.423743
17661 1 0.472897 0.456425 0.417036
11219 2 0.496821 0.452322 0.42196
11220 1 0.498476 0.458714 0.422947
2877 1 0.495798 0.443 0.417463
11218 1 0.49637 0.445798 0.419026
12580 1 0.498991 0.461689 0.422766
1516 1 0.518374 0.455474 0.431423
12844 1 0.516441 0.456588 0.433897
1517 2 0.52352 0.453433 0.426333
1518 1 0.528386 0.447808 0.423163
12397 1 0.530863 0.446632 0.422444
12398 2 0.539073 0.444497 0.421924
12399 1 0.54301 0.442566 0.415462
11859 1 0.544539 0.441341 0.413704
9182 2 0.563283 0.455759 0.41211
9181 1 0.566279 0.462564 0.4155
4128 1 0.555698 0.455445 0.42886
4127 2 0.552364 0.462469 0.428788
21132 1 0.583422 0.454436 0.434806
14851 1 0.585071 0.45351 0.432525
14852 2 0.590198 0.451072 0.42693
14853 1 0.597192 0.451558 0.428298
7360 1 0.417816 0.499378 0.426438
7362 1 0.424012 0.494158 0.413004
7361 2 0.421788 0.49786 0.420241
11094 1 0.425482 0.49335 0.410766
13713 1 0.430853 0.469759 0.415985
13712 2 0.438302 0.473661 0.414146
13711 1 0.446105 0.472047 0.413995
6183 1 0.448906 0.471242 0.413041
5006 2 0.435689 0.493979 0.437036
12510 1 0.446176 0.49374 0.435362
5007 1 0.443408 0.49365 0.435872
12509 2 0.453733 0.495215 0.433768
20198 2 0.473773 0.494164 0.436498
12508 1 0.461891 0.49574 0.433616
5132 2 0.476503 0.470129 0.410431
5131 1 0.468366 0.469031 0.409425
6182 2 0.456729 0.469104 0.409593
8849 2 0.466069 0.476539 0.429206
4067 2 0.469298 0.488275 0.415301
8850 1 0.46765 0.480021 0.423238
4066 1 0.468082 0.481843 0.420832
4068 1 0.471903 0.495115 0.411967
20197 1 0.479053 0.489526 0.432314
11298 1 0.480892 0.487895 0.431027
8848 1 0.463254 0.471902 0.435394
8565 1 0.462464 0.470489 0.437154
20199 1 0.465163 0.49528 0.433849
14033 2 0.488152 0.496161 0.40732
10448 2 0.509016 0.491137 0.415305
10449 1 0.511123 0.488175 0.421586
12581 2 0.498996 0.46996 0.422933
20811 1 0.511705 0.486246 0.424792
11296 1 0.492401 0.478575 0.424641
12582 1 0.494491 0.476233 0.423783
20810 2 0.512314 0.481578 0.431441
11297 2 0.486485 0.48368 0.427604
13673 2 0.54175 0.495334 0.428076
5616 1 0.531743 0.499769 0.429337
16715 2 0.522736 0.480245 0.408465
10447 1 0.515289 0.486745 0.412776
16714 1 0.516886 0.485458 0.412412
16716 1 0.530046 0.478446 0.410385
115 1 0.532815 0.477495 0.411544
116 2 0.5411 0.474859 0.413499
13674 1 0.544837 0.488644 0.429349
13295 2 0.52867 0.471916 0.436845
20809 1 0.518565 0.478305 0.435217
13296 1 0.521449 0.477251 0.435889
13672 1 0.53453 0.498978 0.429165
3101 2 0.567264 0.498296 0.411593
117 1 0.547262 0.473644 0.408305
20655 1 0.546126 0.486207 0.430793
20947 1 0.574088 0.490071 0.408295
20654 2 0.549105 0.47985 0.435315
20653 1 0.550931 0.472904 0.432106
4126 1 0.55159 0.469994 0.431268
9745 1 0.569617 0.477745 0.419021
3102 1 0.571814 0.492556 0.408939
9746 2 0.572608 0.478198 0.425459
15494 2 0.600982 0.49218 0.410572
17970 1 0.597667 0.46883 0.41095
17969 2 0.599254 0.471427 0.4177
6175 1 0.598847 0.471616 0.429451
17968 1 0.59895 0.471717 0.426208
6176 2 0.599911 0.471336 0.43719
20948 2 0.578518 0.48446 0.406636
15493 1 0.595616 0.490431 0.417816
9747 1 0.579348 0.482852 0.425627
16756 1 0.582621 0.484128 0.425836
16757 2 0.589364 0.487629 0.426459
16758 1 0.593869 0.4901 0.420838
3643 1 0.476931 0.386562 0.438056
382 1 0.484351 0.405951 0.442873
13955 2 0.494081 0.398894 0.444294
13956 1 0.493839 0.392362 0.439153
13954 1 0.486778 0.403999 0.443489
21406 1 0.444049 0.41324 0.465483
21407 2 0.452046 0.411637 0.466155
13430 2 0.46013 0.435865 0.457203
383 2 0.478638 0.409171 0.440758
8308 1 0.471021 0.417534 0.438286
384 1 0.472831 0.416179 0.439302
9217 1 0.480038 0.417755 0.458328
21381 1 0.509177 0.426487 0.44404
21380 2 0.504676 0.420445 0.448631
21379 1 0.498387 0.418669 0.45401
9219 1 0.495911 0.418635 0.455552
19122 1 0.515013 0.431954 0.463679
9218 2 0.488408 0.418002 0.458526
12021 1 0.489769 0.436359 0.439365
20201 2 0.520891 0.422069 0.46365
20202 1 0.526672 0.416731 0.464147
20200 1 0.516535 0.429435 0.463866
5090 2 0.525654 0.434097 0.438824
13884 1 0.544182 0.415221 0.437798
11289 1 0.537981 0.436153 0.461031
10203 1 0.535968 0.436948 0.462843
11288 2 0.543557 0.434982 0.456344
13883 2 0.550422 0.416299 0.443701
13882 1 0.554206 0.411996 0.447926
21291 1 0.548598 0.435529 0.445156
11287 1 0.547486 0.435237 0.448493
4169 2 0.572849 0.433184 0.44052
4168 1 0.566919 0.435363 0.44448
10677 1 0.441924 0.443026 0.442672
10675 1 0.452729 0.439724 0.451454
10676 3 0.447822 0.444026 0.448724
13429 1 0.454877 0.437904 0.452905
13431 1 0.467269 0.439021 0.458062
3639 1 0.469824 0.439887 0.458173
8564 2 0.460344 0.467047 0.444886
3638 2 0.477949 0.444501 0.458323
3284 2 0.467002 0.468281 0.465683
3637 1 0.482121 0.441004 0.464681
13596 1 0.483499 0.43947 0.467907
19121 2 0.510443 0.438353 0.464142
12019 1 0.500693 0.439627 0.450036
12020 2 0.494667 0.439463 0.445326
15206 2 0.500183 0.463981 0.456277
12846 1 0.50715 0.462748 0.446791
15207 1 0.504976 0.462744 0.449175
12845 2 0.511806 0.460262 0.440014
1782 1 0.514297 0.448543 0.465138
19120 1 0.513382 0.445789 0.464867
13294 1 0.527715 0.46578 0.439452
5091 1 0.529542 0.440052 0.442181
11884 1 0.53071 0.442773 0.443009
10202 2 0.530735 0.438758 0.467346
1780 1 0.520545 0.460731 0.462158
1781 2 0.516432 0.455386 0.466061
15727 1 0.522816 0.462454 0.460682
15728 2 0.527932 0.467725 0.456915
11885 2 0.535122 0.449407 0.445824
11886 1 0.542953 0.452224 0.448016
15729 1 0.534541 0.462885 0.456561
21130 1 0.573381 0.46365 0.443611
6314 2 0.567863 0.464603 0.457617
20380 1 0.545824 0.453239 0.448503
20381 2 0.553476 0.456422 0.4499
20382 1 0.560439 0.45934 0.451948
6313 1 0.562419 0.460891 0.453183
21131 2 0.57857 0.457157 0.440991
9011 2 0.602792 0.467244 0.454885
20501 2 0.432245 0.483959 0.46137
19183 1 0.428251 0.470652 0.439051
19184 2 0.432636 0.475696 0.440217
19185 1 0.434305 0.482787 0.439359
5005 1 0.434539 0.486032 0.438601
19790 2 0.447287 0.47322 0.455893
19789 1 0.452958 0.47038 0.451974
20500 1 0.438486 0.4794 0.459305
19791 1 0.44109 0.477796 0.458104
20502 1 0.430933 0.49224 0.463956
8314 1 0.46013 0.491056 0.452119
8563 1 0.45475 0.46943 0.450344
8315 2 0.466697 0.489891 0.456527
8316 1 0.471423 0.488871 0.463653
3285 1 0.467023 0.472141 0.459884
3770 2 0.486918 0.49387 0.462449
15837 1 0.494375 0.471635 0.453832
15205 1 0.495684 0.469793 0.454345
3771 1 0.488514 0.487598 0.456569
15835 1 0.489156 0.485237 0.45546
15836 2 0.489793 0.477432 0.452343
2638 1 0.511771 0.48268 0.461957
8239 1 0.538511 0.491241 0.448032
8240 2 0.530906 0.489793 0.445805
2639 2 0.517911 0.485055 0.456948
2640 1 0.522636 0.486484 0.45113
8241 1 0.524497 0.487478 0.448623
20617 1 0.540471 0.491913 0.448978
4320 1 0.539857 0.48422 0.465175
10048 1 0.541855 0.482486 0.463359
20618 2 0.547237 0.49623 0.451584
6315 1 0.567793 0.47091 0.453613
10049 2 0.546181 0.478114 0.458211
10050 1 0.550957 0.477206 0.451661
6177 1 0.600751 0.470001 0.445054
9012 1 0.601052 0.469211 0.448024
9010 1 0.609917 0.470732 0.459263
20094 1 0.478693 0.418278 0.494563
9454 1 0.469285 0.41385 0.482911
9455 2 0.468316 0.414946 0.474651
9456 1 0.461514 0.41399 0.470934
21408 1 0.458934 0.413566 0.469756
20093 2 0.485323 0.419723 0.489623
20092 1 0.485722 0.418664 0.481009
13595 2 0.48569 0.436619 0.474931
2913 1 0.494085 0.436911 0.482036
13594 1 0.491762 0.436878 0.480188
3283 1 0.471407 0.466041 0.471147
16493 2 0.478139 0.462838 0.479249
16494 1 0.473034 0.465087 0.473202
5280 1 0.501923 0.460089 0.489226
7820 2 0.512195 0.463731 0.493831
7821 1 0.504931 0.460993 0.490504
5279 2 0.495266 0.457445 0.485314
5278 1 0.487531 0.459843 0.482546
16492 1 0.485131 0.460705 0.48205
2911 1 0.508235 0.439589 0.487419
2912 2 0.500871 0.437699 0.486043
7702 1 0.510792 0.44031 0.487744
10201 1 0.529208 0.437665 0.474949
7703 2 0.518737 0.441208 0.488144
7704 1 0.520568 0.448502 0.484216
16693 1 0.479873 0.492195 0.471081
3769 1 0.481206 0.492638 0.468758
16694 2 0.475197 0.490664 0.478403
16695 1 0.472514 0.490291 0.484961
9420 1 0.48553 0.480416 0.498243
8361 1 0.500493 0.484354 0.498481
9418 1 0.497109 0.484864 0.497792
914 2 0.505846 0.49828 0.486058
9419 2 0.490772 0.484317 0.494332
1790 2 0.513221 0.475565 0.476218
915 1 0.512913 0.497792 0.483268
1789 1 0.506168 0.476587 0.476821
13787 2 0.496525 0.476904 0.475843
13786 1 0.503838 0.476685 0.476978
13788 1 0.490651 0.472977 0.4725
4319 2 0.534883 0.488952 0.469619
8359 1 0.515788 0.486115 0.497494
21151 1 0.528156 0.495301 0.474534
21152 2 0.522978 0.497622 0.478144
21153 1 0.516077 0.497747 0.482039
4318 1 0.530241 0.493619 0.47293
21502 1 0.518632 0.486772 0.49631
1791 1 0.519438 0.470534 0.47252
21504 1 0.533159 0.481965 0.496762
21503 2 0.526322 0.486908 0.494926
7819 1 0.517013 0.466256 0.500432
8360 2 0.507951 0.484101 0.500308
17466 1 0.479514 0.530386 0.276818
17465 3 0.485895 0.525018 0.275531
10408 1 0.493574 0.51764 0.281165
17464 1 0.491612 0.519715 0.279649
10409 3 0.498698 0.513226 0.284019
10410 1 0.502018 0.510685 0.289972
4397 3 0.50582 0.507574 0.299642
4398 1 0.502788 0.509731 0.292556
4396 1 0.508354 0.508833 0.307023
11899 1 0.508911 0.509364 0.309779
5340 1 0.540621 0.50154 0.294503
4133 2 0.531902 0.51104 0.310782
4132 1 0.524569 0.514473 0.309408
860 2 0.563486 0.504525 0.311198
5339 2 0.548577 0.500698 0.297646
5338 1 0.554075 0.502357 0.303248
861 1 0.556644 0.503188 0.305932
8526 1 0.581538 0.500567 0.311101
20100 1 0.57674 0.530883 0.310245
12653 3 0.549031 0.541134 0.306031
12652 1 0.548497 0.549254 0.302533
3717 1 0.4517 0.500976 0.330409
3716 2 0.447512 0.504042 0.336181
3715 1 0.450126 0.509401 0.342696
4603 1 0.481547 0.509233 0.335417
20016 1 0.466598 0.519675 0.322755
20015 2 0.467931 0.518765 0.330881
20014 1 0.470854 0.521403 0.338396
13024 1 0.471948 0.522557 0.341028
11900 2 0.510682 0.511078 0.316661
8559 1 0.50159 0.519587 0.338386
18786 1 0.502227 0.519141 0.34161
8558 2 0.501632 0.521323 0.331278
11901 1 0.506983 0.515725 0.322489
8557 1 0.505316 0.517546 0.324976
4604 2 0.486446 0.504159 0.332282
19384 1 0.520401 0.502197 0.337993
4134 1 0.536074 0.505712 0.316205
4958 2 0.525037 0.512667 0.340143
4959 1 0.521765 0.504812 0.338195
4957 1 0.525671 0.520228 0.341983
15150 1 0.525784 0.522683 0.342313
18783 1 0.54511 0.506777 0.331075
7175 2 0.5621 0.502842 0.329716
7176 1 0.562452 0.503067 0.322228
20099 2 0.573782 0.526814 0.31628
8163 1 0.545505 0.509301 0.32954
8161 1 0.546495 0.523645 0.326207
13740 1 0.546872 0.526729 0.325685
8162 2 0.546288 0.516418 0.32665
20098 1 0.575606 0.525755 0.323827
859 1 0.562257 0.503098 0.319114
1198 1 0.57749 0.501576 0.343374
5150 2 0.5804 0.521878 0.331804
5149 1 0.57651 0.525359 0.325827
5151 1 0.58696 0.519273 0.336446
17040 1 0.589239 0.51815 0.338459
17039 2 0.595606 0.513963 0.34242
4701 1 0.445355 0.556414 0.336657
4700 3 0.451903 0.560452 0.33739
4699 1 0.460454 0.56101 0.337143
16281 1 0.503677 0.546936 0.327108
16280 2 0.49769 0.55113 0.33001
16279 1 0.491796 0.554066 0.335197
2743 1 0.490269 0.554929 0.336791
2744 2 0.485798 0.558202 0.34329
15149 2 0.526126 0.531498 0.3414
13739 2 0.547728 0.534405 0.323963
13738 1 0.547596 0.536945 0.315781
12654 1 0.548029 0.537821 0.313467
6652 1 0.558336 0.560057 0.34063
9967 1 0.454077 0.52486 0.352904
14869 1 0.442627 0.522514 0.367036
9969 1 0.451418 0.511513 0.344599
9968 2 0.453878 0.516654 0.349236
14169 1 0.435786 0.500336 0.355093
14168 2 0.429021 0.502355 0.35084
3787 1 0.464498 0.508226 0.348886
3788 2 0.466527 0.501337 0.351156
13025 2 0.474466 0.524631 0.348639
13026 1 0.477734 0.525483 0.355906
7239 1 0.478008 0.526245 0.358423
14614 1 0.454685 0.527231 0.354252
7238 2 0.477475 0.530487 0.365107
16450 1 0.484319 0.508802 0.361557
16452 1 0.497684 0.506441 0.362157
9045 1 0.508427 0.503205 0.362951
18785 2 0.503495 0.518101 0.349106
16451 2 0.490222 0.504889 0.358558
18784 1 0.500751 0.519619 0.355865
10595 2 0.497281 0.522464 0.36626
10596 1 0.49938 0.520622 0.358205
10594 1 0.502948 0.527199 0.366967
2167 1 0.505194 0.528835 0.367926
9044 2 0.509347 0.500573 0.369713
16366 1 0.538467 0.503678 0.373639
16926 1 0.535662 0.50255 0.374526
16367 2 0.54524 0.505853 0.370491
5940 1 0.51856 0.519703 0.354962
11327 2 0.544193 0.514315 0.350245
11326 1 0.538884 0.50778 0.351502
5939 2 0.52471 0.51788 0.361088
5337 1 0.536803 0.505404 0.351888
5938 1 0.529903 0.521188 0.367065
13479 1 0.532167 0.522105 0.368565
13478 2 0.5383 0.525364 0.371485
16368 1 0.549384 0.501597 0.364421
991 1 0.549833 0.523523 0.35125
11328 1 0.548221 0.521178 0.350946
992 2 0.553774 0.531145 0.353106
1200 1 0.567418 0.508015 0.353071
1199 2 0.572994 0.505011 0.348199
5809 1 0.566128 0.50934 0.354835
5810 2 0.563455 0.515368 0.360522
5811 1 0.559333 0.519268 0.367832
6648 1 0.558641 0.520257 0.370686
14491 1 0.594506 0.500525 0.372551
17038 1 0.600674 0.510972 0.346939
17616 1 0.602879 0.509875 0.348488
16804 1 0.585607 0.526922 0.358373
14493 1 0.589351 0.511956 0.36856
16805 2 0.587401 0.519208 0.36077
16806 1 0.588777 0.51429 0.366424
18018 1 0.585359 0.529205 0.356939
14492 2 0.59114 0.506659 0.373915
2805 1 0.62743 0.519205 0.355654
2803 1 0.618738 0.509853 0.356783
17614 1 0.616166 0.508878 0.356241
17615 2 0.608385 0.507468 0.353048
2804 2 0.626502 0.511799 0.358597
14615 2 0.456259 0.534717 0.357402
14616 1 0.459865 0.540153 0.353721
7237 1 0.474516 0.53736 0.368736
2745 1 0.480869 0.556417 0.348472
12136 1 0.484227 0.533265 0.349561
16720 1 0.479234 0.556135 0.350084
16721 2 0.47319 0.55414 0.355659
16722 1 0.470165 0.555311 0.362145
18721 1 0.468751 0.556575 0.364794
18722 2 0.465713 0.559206 0.371707
2168 2 0.50968 0.535005 0.370288
12138 1 0.49915 0.539233 0.350176
7102 1 0.501897 0.539862 0.350065
12137 2 0.491793 0.53568 0.35015
7103 2 0.510184 0.540232 0.349658
2169 1 0.512724 0.541488 0.373336
7104 1 0.517334 0.535588 0.345399
15148 1 0.519475 0.534783 0.34426
3610 1 0.530451 0.54017 0.361568
3611 2 0.528462 0.54367 0.369053
13477 1 0.542511 0.531435 0.374294
993 1 0.55503 0.539248 0.354046
19046 2 0.568422 0.548923 0.358693
19047 1 0.57216 0.546574 0.366525
17109 1 0.573955 0.545664 0.369144
19045 1 0.563419 0.553799 0.353661
6654 1 0.561846 0.555626 0.351843
6653 3 0.556796 0.560075 0.347561
18016 1 0.582977 0.536868 0.344944
18017 2 0.583222 0.535006 0.352463
17108 2 0.577323 0.544265 0.374962
10267 1 0.529771 0.569049 0.369862