ITEM: TIMESTEP
0
ITEM: NUMBER OF ATOMS
1272
ITEM: BOX BOUNDS pp pp pp
0.0000000000000000e+00 5.0000000000000000e+01
0.0000000000000000e+00 5.0000000000000000e+01
0.0000000000000000e+00 5.0000000000000000e+01
ITEM: ATOMS id type 
61 1 
62 3 
63 1 
313 1 
314 3 
315 1 
316 1 
317 2 
318 1 
1393 1 
1394 3 
1395 1 
1636 1 
1637 3 
1638 1 
1642 1 
1643 3 
1644 1 
2245 1 
2246 3 
2247 1 
2404 1 
2405 3 
2406 1 
2485 1 
2486 2 
2487 1 
2593 1 
2594 3 
2595 1 
2596 1 
2597 3 
2598 1 
3253 1 
3254 3 
3255 1 
3256 1 
3257 3 
3258 1 
3268 1 
3269 2 
3270 1 
3442 1 
3443 3 
3444 1 
3445 1 
3446 2 
3447 1 
3544 1 
3545 3 
3546 1 
3601 1 
3602 3 
3603 1 
3748 1 
3749 3 
3750 1 
4444 1 
4445 3 
4446 1 
4504 1 
4505 3 
4506 1 
4570 1 
4571 3 
4572 1 
4633 1 
4634 3 
4635 1 
4684 1 
4685 3 
4686 1 
4708 1 
4709 3 
4710 1 
4744 1 
4745 3 
4746 1 
4753 1 
4754 2 
4755 1 
4822 1 
4823 2 
4824 1 
5479 1 
5480 3 
5481 1 
5482 1 
5483 3 
5484 1 
5647 1 
5648 3 
5649 1 
5713 1 
5714 3 
5715 1 
5767 1 
5768 3 
5769 1 
5785 1 
5786 3 
5787 1 
5824 1 
5825 3 
5826 1 
6025 1 
6026 3 
6027 1 
6673 1 
6674 3 
6675 1 
6721 1 
6722 3 
6723 1 
7150 1 
7151 2 
7152 1 
7801 1 
7802 3 
7803 1 
7870 1 
7871 3 
7872 1 
7927 1 
7928 3 
7929 1 
7948 1 
7949 3 
7950 1 
8164 1 
8165 3 
8166 1 
8947 1 
8948 3 
8949 1 
9076 1 
9077 2 
9078 1 
9205 1 
9206 3 
9207 1 
10039 1 
10040 3 
10041 1 
10261 1 
10262 3 
10263 1 
10384 1 
10385 3 
10386 1 
10468 1 
10469 3 
10470 1 
10504 1 
10505 3 
10506 1 
10507 1 
10508 3 
10509 1 
10528 1 
10529 2 
10530 1 
11167 1 
11168 3 
11169 1 
11179 1 
11180 3 
11181 1 
11236 1 
11237 3 
11238 1 
11488 1 
11489 3 
11490 1 
12067 1 
12068 3 
12069 1 
12313 1 
12314 3 
12315 1 
12496 1 
12497 3 
12498 1 
12616 1 
12617 3 
12618 1 
13156 1 
13157 3 
13158 1 
13333 1 
13334 3 
13335 1 
14248 1 
14249 3 
14250 1 
14284 1 
14285 3 
14286 1 
14404 1 
14405 3 
14406 1 
14413 1 
14414 3 
14415 1 
14470 1 
14471 3 
14472 1 
14524 1 
14525 3 
14526 1 
15328 1 
15329 3 
15330 1 
15424 1 
15425 2 
15426 1 
15436 1 
15437 3 
15438 1 
15562 1 
15563 3 
15564 1 
15610 1 
15611 2 
15612 1 
15619 1 
15620 3 
15621 1 
16393 1 
16394 3 
16395 1 
16510 1 
16511 3 
16512 1 
16573 1 
16574 3 
16575 1 
16585 1 
16586 3 
16587 1 
17284 1 
17285 3 
17286 1 
17296 1 
17297 3 
17298 1 
17308 1 
17309 3 
17310 1 
17350 1 
17351 2 
17352 1 
17422 1 
17423 3 
17424 1 
17425 1 
17426 3 
17427 1 
17656 1 
17657 2 
17658 1 
17701 1 
17702 3 
17703 1 
17722 1 
17723 3 
17724 1 
18493 1 
18494 3 
18495 1 
18505 1 
18506 3 
18507 1 
18736 1 
18737 3 
18738 1 
18739 1 
18740 3 
18741 1 
18748 1 
18749 3 
18750 1 
19447 1 
19448 3 
19449 1 
19516 1 
19517 3 
19518 1 
19570 1 
19571 2 
19572 1 
19645 1 
19646 3 
19647 1 
19705 1 
19706 3 
19707 1 
19807 1 
19808 3 
19809 1 
20899 1 
20900 3 
20901 1 
20944 1 
20945 3 
20946 1 
20965 1 
20966 3 
20967 1 
20968 1 
20969 3 
20970 1 
58 1 
59 3 
60 1 
163 1 
164 3 
165 1 
298 1 
299 3 
300 1 
349 1 
350 3 
351 1 
355 1 
356 2 
357 1 
1534 1 
1535 3 
1536 1 
1615 1 
1616 3 
1617 1 
2269 1 
2270 3 
2271 1 
2503 1 
2504 2 
2505 1 
3211 1 
3212 2 
3213 1 
3286 1 
3287 3 
3288 1 
3403 1 
3404 3 
3405 1 
3646 1 
3647 3 
3648 1 
3712 1 
3713 3 
3714 1 
4489 1 
4490 3 
4491 1 
4792 1 
4793 3 
4794 1 
5557 1 
5558 3 
5559 1 
5671 1 
5672 3 
5673 1 
5851 1 
5852 2 
5853 1 
5935 1 
5936 3 
5937 1 
6055 1 
6056 3 
6057 1 
6700 1 
6701 3 
6702 1 
6763 1 
6764 3 
6765 1 
7240 1 
7241 3 
7242 1 
7243 1 
7244 2 
7245 1 
7252 1 
7253 3 
7254 1 
7855 1 
7856 3 
7857 1 
7912 1 
7913 3 
7914 1 
8089 1 
8090 3 
8091 1 
8311 1 
8312 3 
8313 1 
8935 1 
8936 3 
8937 1 
8992 1 
8993 3 
8994 1 
8995 1 
8996 3 
8997 1 
9214 1 
9215 2 
9216 1 
9283 1 
9284 3 
9285 1 
10069 1 
10070 3 
10071 1 
10237 1 
10238 2 
10239 1 
10360 1 
10361 3 
10362 1 
10366 1 
10367 3 
10368 1 
10438 1 
10439 3 
10440 1 
10483 1 
10484 3 
10485 1 
10549 1 
10550 3 
10551 1 
11134 1 
11135 2 
11136 1 
11149 1 
11150 3 
11151 1 
11332 1 
11333 3 
11334 1 
11386 1 
11387 3 
11388 1 
12091 1 
12092 3 
12093 1 
12220 1 
12221 3 
12222 1 
12334 1 
12335 3 
12336 1 
12343 1 
12344 3 
12345 1 
12520 1 
12521 3 
12522 1 
12589 1 
12590 3 
12591 1 
12637 1 
12638 2 
12639 1 
12643 1 
12644 3 
12645 1 
13363 1 
13364 3 
13365 1 
13372 1 
13373 3 
13374 1 
13474 1 
13475 3 
13476 1 
13498 1 
13499 3 
13500 1 
13531 1 
13532 3 
13533 1 
13552 1 
13553 2 
13554 1 
14311 1 
14312 3 
14313 1 
14329 1 
14330 2 
14331 1 
14620 1 
14621 3 
14622 1 
14638 1 
14639 3 
14640 1 
14695 1 
14696 3 
14697 1 
15478 1 
15479 3 
15480 1 
15538 1 
15539 3 
15540 1 
15631 1 
15632 3 
15633 1 
15757 1 
15758 3 
15759 1 
15772 1 
15773 3 
15774 1 
16495 1 
16496 3 
16497 1 
16558 1 
16559 2 
16560 1 
16594 1 
16595 2 
16596 1 
16612 1 
16613 3 
16614 1 
16663 1 
16664 3 
16665 1 
16729 1 
16730 3 
16731 1 
17326 1 
17327 3 
17328 1 
17371 1 
17372 3 
17373 1 
17446 1 
17447 3 
17448 1 
17497 1 
17498 3 
17499 1 
17635 1 
17636 3 
17637 1 
17683 1 
17684 3 
17685 1 
17689 1 
17690 3 
17691 1 
17692 1 
17693 3 
17694 1 
17758 1 
17759 3 
17760 1 
18406 1 
18407 3 
18408 1 
18451 1 
18452 3 
18453 1 
18517 1 
18518 3 
18519 1 
18634 1 
18635 3 
18636 1 
18697 1 
18698 3 
18699 1 
19537 1 
19538 3 
19539 1 
19669 1 
19670 2 
19671 1 
19777 1 
19778 3 
19779 1 
19906 1 
19907 3 
19908 1 
541 1 
542 3 
543 1 
739 1 
740 3 
741 1 
907 1 
908 3 
909 1 
1696 1 
1697 3 
1698 1 
1747 1 
1748 3 
1749 1 
1981 1 
1982 3 
1983 1 
1984 1 
1985 3 
1986 1 
2062 1 
2063 2 
2064 1 
2182 1 
2183 3 
2184 1 
2704 1 
2705 3 
2706 1 
2722 1 
2723 3 
2724 1 
2830 1 
2831 3 
2832 1 
2848 1 
2849 3 
2850 1 
2896 1 
2897 2 
2898 1 
2956 1 
2957 3 
2958 1 
3016 1 
3017 2 
3018 1 
3796 1 
3797 3 
3798 1 
3808 1 
3809 3 
3810 1 
3865 1 
3866 3 
3867 1 
3910 1 
3911 3 
3912 1 
3919 1 
3920 3 
3921 1 
3967 1 
3968 3 
3969 1 
3985 1 
3986 3 
3987 1 
4207 1 
4208 3 
4209 1 
4222 1 
4223 2 
4224 1 
4270 1 
4271 3 
4272 1 
4948 1 
4949 3 
4950 1 
5068 1 
5069 3 
5070 1 
5188 1 
5189 2 
5190 1 
5233 1 
5234 3 
5235 1 
5350 1 
5351 3 
5352 1 
6070 1 
6071 3 
6072 1 
6088 1 
6089 3 
6090 1 
6136 1 
6137 3 
6138 1 
6187 1 
6188 3 
6189 1 
6268 1 
6269 3 
6270 1 
6433 1 
6434 3 
6435 1 
6496 1 
6497 2 
6498 1 
6502 1 
6503 3 
6504 1 
6544 1 
6545 3 
6546 1 
6562 1 
6563 3 
6564 1 
6613 1 
6614 3 
6615 1 
7381 1 
7382 3 
7383 1 
7507 1 
7508 3 
7509 1 
7627 1 
7628 3 
7629 1 
7708 1 
7709 2 
7710 1 
8368 1 
8369 3 
8370 1 
8668 1 
8669 3 
8670 1 
8776 1 
8777 3 
8778 1 
8830 1 
8831 3 
8832 1 
9442 1 
9443 3 
9444 1 
9547 1 
9548 3 
9549 1 
9727 1 
9728 3 
9729 1 
9805 1 
9806 3 
9807 1 
10579 1 
10580 2 
10581 1 
10636 1 
10637 3 
10638 1 
10681 1 
10682 3 
10683 1 
10684 1 
10685 3 
10686 1 
11005 1 
11006 2 
11007 1 
11608 1 
11609 3 
11610 1 
11641 1 
11642 3 
11643 1 
11653 1 
11654 3 
11655 1 
11713 1 
11714 3 
11715 1 
11776 1 
11777 2 
11778 1 
11848 1 
11849 3 
11850 1 
11893 1 
11894 3 
11895 1 
11908 1 
11909 2 
11910 1 
12013 1 
12014 3 
12015 1 
12667 1 
12668 3 
12669 1 
12964 1 
12965 3 
12966 1 
13090 1 
13091 3 
13092 1 
13624 1 
13625 3 
13626 1 
13927 1 
13928 3 
13929 1 
13999 1 
14000 3 
14001 1 
14713 1 
14714 3 
14715 1 
14770 1 
14771 3 
14772 1 
14944 1 
14945 3 
14946 1 
15073 1 
15074 3 
15075 1 
15121 1 
15122 3 
15123 1 
15196 1 
15197 3 
15198 1 
15787 1 
15788 2 
15789 1 
15850 1 
15851 3 
15852 1 
15901 1 
15902 3 
15903 1 
16087 1 
16088 3 
16089 1 
16108 1 
16109 3 
16110 1 
16267 1 
16268 3 
16269 1 
16987 1 
16988 3 
16989 1 
17059 1 
17060 3 
17061 1 
17947 1 
17948 3 
17949 1 
18028 1 
18029 3 
18030 1 
18079 1 
18080 3 
18081 1 
18142 1 
18143 3 
18144 1 
18262 1 
18263 3 
18264 1 
18304 1 
18305 3 
18306 1 
18964 1 
18965 3 
18966 1 
18970 1 
18971 3 
18972 1 
18979 1 
18980 3 
18981 1 
19339 1 
19340 3 
19341 1 
19381 1 
19382 3 
19383 1 
19405 1 
19406 3 
19407 1 
20008 1 
20009 3 
20010 1 
20230 1 
20231 3 
20232 1 
20350 1 
20351 3 
20352 1 
20413 1 
20414 3 
20415 1 
20461 1 
20462 3 
20463 1 
20470 1 
20471 3 
20472 1 
21061 1 
21062 3 
21063 1 
21244 1 
21245 3 
21246 1 
21247 1 
21248 3 
21249 1 
21256 1 
21257 3 
21258 1 
21301 1 
21302 3 
21303 1 
21376 1 
21377 3 
21378 1 
21385 1 
21386 2 
21387 1 
21433 1 
21434 3 
21435 1 
21568 1 
21569 3 
21570 1 
589 1 
590 3 
591 1 
880 1 
881 3 
882 1 
895 1 
896 3 
897 1 
1135 1 
1136 3 
1137 1 
1795 1 
1796 2 
1797 1 
1918 1 
1919 3 
1920 1 
2014 1 
2015 3 
2016 1 
2155 1 
2156 3 
2157 1 
2191 1 
2192 3 
2193 1 
2200 1 
2201 3 
2202 1 
2740 1 
2741 3 
2742 1 
2857 1 
2858 3 
2859 1 
2920 1 
2921 2 
2922 1 
2998 1 
2999 3 
3000 1 
3052 1 
3053 3 
3054 1 
3094 1 
3095 3 
3096 1 
3811 1 
3812 3 
3813 1 
3874 1 
3875 3 
3876 1 
4072 1 
4073 2 
4074 1 
4075 1 
4076 3 
4077 1 
4114 1 
4115 2 
4116 1 
4978 1 
4979 3 
4980 1 
5035 1 
5036 3 
5037 1 
5074 1 
5075 3 
5076 1 
5137 1 
5138 3 
5139 1 
5158 1 
5159 3 
5160 1 
5449 1 
5450 3 
5451 1 
6091 1 
6092 3 
6093 1 
6094 1 
6095 3 
6096 1 
6112 1 
6113 2 
6114 1 
6478 1 
6479 3 
6480 1 
7303 1 
7304 3 
7305 1 
7312 1 
7313 3 
7314 1 
7372 1 
7373 2 
7374 1 
7423 1 
7424 2 
7425 1 
7597 1 
7598 3 
7599 1 
7612 1 
7613 2 
7614 1 
7615 1 
7616 3 
7617 1 
8512 1 
8513 3 
8514 1 
8797 1 
8798 3 
8799 1 
9460 1 
9461 3 
9462 1 
9469 1 
9470 3 
9471 1 
9511 1 
9512 3 
9513 1 
9532 1 
9533 3 
9534 1 
9538 1 
9539 2 
9540 1 
9583 1 
9584 3 
9585 1 
9655 1 
9656 3 
9657 1 
9703 1 
9704 3 
9705 1 
9775 1 
9776 3 
9777 1 
10651 1 
10652 3 
10653 1 
10714 1 
10715 3 
10716 1 
10729 1 
10730 3 
10731 1 
10777 1 
10778 3 
10779 1 
10849 1 
10850 3 
10851 1 
10855 1 
10856 3 
10857 1 
10858 1 
10859 3 
10860 1 
11035 1 
11036 3 
11037 1 
11098 1 
11099 3 
11100 1 
11554 1 
11555 3 
11556 1 
11572 1 
11573 3 
11574 1 
11614 1 
11615 3 
11616 1 
11617 1 
11618 3 
11619 1 
11629 1 
11630 3 
11631 1 
11677 1 
11678 3 
11679 1 
11731 1 
11732 3 
11733 1 
11740 1 
11741 3 
11742 1 
11875 1 
11876 3 
11877 1 
11980 1 
11981 3 
11982 1 
11986 1 
11987 3 
11988 1 
12811 1 
12812 3 
12813 1 
12823 1 
12824 3 
12825 1 
12832 1 
12833 2 
12834 1 
13054 1 
13055 3 
13056 1 
13078 1 
13079 3 
13080 1 
14011 1 
14012 2 
14013 1 
14074 1 
14075 3 
14076 1 
14791 1 
14792 2 
14793 1 
14797 1 
14798 2 
14799 1 
14872 1 
14873 3 
14874 1 
14878 1 
14879 3 
14880 1 
15172 1 
15173 3 
15174 1 
15223 1 
15224 3 
15225 1 
15289 1 
15290 3 
15291 1 
15814 1 
15815 3 
15816 1 
16054 1 
16055 3 
16056 1 
16066 1 
16067 3 
16068 1 
16075 1 
16076 3 
16077 1 
16126 1 
16127 2 
16128 1 
16129 1 
16130 3 
16131 1 
16135 1 
16136 3 
16137 1 
16315 1 
16316 3 
16317 1 
16852 1 
16853 3 
16854 1 
17092 1 
17093 3 
17094 1 
17254 1 
17255 3 
17256 1 
17986 1 
17987 3 
17988 1 
18112 1 
18113 3 
18114 1 
19132 1 
19133 3 
19134 1 
19312 1 
19313 3 
19314 1 
19354 1 
19355 3 
19356 1 
19957 1 
19958 3 
19959 1 
20458 1 
20459 3 
20460 1 
20491 1 
20492 3 
20493 1 
21112 1 
21113 3 
21114 1 
21226 1 
21227 3 
21228 1 
21229 1 
21230 3 
21231 1 
21235 1 
21236 3 
21237 1 
21292 1 
21293 3 
21294 1 
21334 1 
21335 3 
21336 1 
21337 1 
21338 2 
21339 1 
21523 1 
21524 3 
21525 1 
21595 1 
21596 3 
21597 1 
