ITEM: TIMESTEP
25000000
ITEM: NUMBER OF ENTRIES
1577
ITEM: BOX BOUNDS pp pp pp
0 50
0 50
0 50
ITEM: ENTRIES c_binfo[1] c_binfo[2] c_binfo[3] 
1 9606 11208 
2 9604 9605 
2 9605 9606 
3 11207 11208 
3 15460 15461 
1 6645 15460 
1 14538 18009 
3 6643 6644 
1 6643 12333 
3 6644 6645 
3 1378 1379 
3 8380 8381 
1 4437 8380 
3 8381 8382 
3 1379 1380 
2 677 678 
2 11623 11624 
1 678 11623 
2 11624 11625 
3 4436 4437 
3 4435 4436 
2 676 677 
1 564 676 
3 2057 2058 
3 2056 2057 
1 2056 2082 
3 2081 2082 
3 18007 18008 
1 18007 18474 
3 18008 18009 
3 14230 14231 
1 3669 14230 
3 3668 3669 
3 14231 14232 
3 18473 18474 
1 2091 21478 
3 21478 21479 
3 21479 21480 
1 11958 14232 
3 3032 3033 
1 3033 3505 
3 3031 3032 
1 3031 21090 
3 3505 3506 
3 2051 2052 
3 2509 2510 
1 2052 2509 
3 3506 3507 
3 11119 11120 
1 11119 16963 
3 16963 16964 
3 16964 16965 
1 9 12039 
3 2080 2081 
3 6350 6351 
1 6351 7527 
3 6349 6350 
3 7526 7527 
3 1921 1922 
1 1921 7525 
3 7525 7526 
1 1923 6267 
3 3527 3528 
3 8 9 
3 1922 1923 
3 6265 6266 
3 6266 6267 
3 2089 2090 
1 2089 20644 
3 20645 20646 
3 18121 18122 
3 11956 11957 
1 11956 18121 
3 18122 18123 
3 20644 20645 
3 2090 2091 
3 11957 11958 
1 7077 20646 
3 6911 6912 
1 6912 18123 
3 19613 19614 
3 6910 6911 
1 6910 19614 
1 19125 20433 
3 2050 2051 
3 7076 7077 
3 19612 19613 
3 10556 10557 
3 10555 10556 
1 10555 16192 
3 16192 16193 
3 16193 16194 
3 4886 4887 
3 3703 3704 
1 3703 4885 
3 4885 4886 
3 3704 3705 
3 20288 20289 
3 14848 14849 
1 14848 18472 
3 14849 14850 
1 14850 20289 
3 18472 18473 
3 14228 14229 
3 14227 14228 
3 2623 2624 
1 2623 14227 
3 2624 2625 
1 2625 8157 
3 8156 8157 
3 21089 21090 
3 8155 8156 
3 3965 3966 
3 11611 11612 
1 3966 11611 
3 3964 3965 
2 487 488 
2 488 489 
3 8543 8544 
3 8542 8543 
3 15431 15432 
1 8544 15432 
3 2692 2693 
1 2692 8542 
3 21326 21327 
3 3227 3228 
3 3226 3227 
3 385 386 
1 385 3226 
3 386 387 
3 19328 19329 
3 3526 3527 
1 3526 10453 
3 10453 10454 
3 10454 10455 
1 13803 17551 
3 17551 17552 
3 13802 13803 
3 7 8 
1 7 19329 
3 20431 20432 
3 12490 12491 
1 12490 20431 
3 17552 17553 
3 12491 12492 
1 12492 17553 
3 10577 10578 
3 20432 20433 
3 21088 21089 
3 2053 2054 
1 2053 10578 
3 15016 15017 
1 15016 21088 
1 15018 15147 
3 15017 15018 
3 15146 15147 
3 2054 2055 
3 3983 3984 
3 3982 3983 
3 9598 9599 
1 6111 9598 
3 9599 9600 
3 11612 11613 
3 6110 6111 
1 441 9600 
3 440 441 
3 439 440 
1 439 489 
3 15430 15431 
3 20287 20288 
2 14629 14630 
2 14630 14631 
3 8707 8708 
1 387 675 
3 673 674 
1 673 14629 
3 674 675 
3 13801 13802 
3 3829 3830 
1 3829 13801 
3 3830 3831 
3 11525 11526 
3 6968 6969 
3 15418 15419 
1 3831 15418 
3 8708 8709 
1 6969 8709 
3 15145 15146 
3 15419 15420 
3 3662 3663 
3 3661 3662 
3 15521 15522 
3 20687 20688 
2 11144 11145 
2 11143 11144 
2 15706 15707 
1 15706 20686 
3 20686 20687 
2 92 93 
2 3695 3696 
2 3694 3695 
1 3696 15634 
2 15634 15635 
2 15635 15636 
1 93 3694 
3 15127 15128 
3 15128 15129 
3 1478 1479 
1 1479 1659 
3 1658 1659 
3 2695 2696 
3 2696 2697 
2 3650 3651 
1 8979 12435 
3 15520 15521 
3 217 218 
1 217 15520 
3 218 219 
1 219 3651 
3 2726 2727 
3 17753 17754 
3 1657 1658 
1 1657 17752 
3 17752 17753 
3 1291 1292 
3 1292 1293 
1 1293 20211 
2 3649 3650 
1 3649 16725 
3 16724 16725 
3 16723 16724 
3 4990 4991 
1 4990 16723 
3 8977 8978 
3 3902 3903 
3 3901 3902 
1 3901 8977 
3 8978 8979 
1 3903 16215 
3 2725 2726 
1 2725 3111 
3 14252 14253 
2 15707 15708 
1 9309 15708 
3 9308 9309 
3 9016 9017 
1 9016 9307 
3 9307 9308 
3 185 186 
3 184 185 
1 184 18070 
3 18070 18071 
3 6308 6309 
3 20210 20211 
3 6307 6308 
1 6307 17265 
2 4481 4482 
3 10022 10023 
3 6769 6770 
3 6770 6771 
3 5104 5105 
1 4992 11062 
3 4991 4992 
3 11062 11063 
3 11063 11064 
1 11064 17808 
3 5105 5106 
2 18973 18974 
3 20167 20168 
3 20168 20169 
1 15636 20167 
1 765 20169 
1 8013 18973 
3 8012 8013 
2 18974 18975 
3 9017 9018 
3 18071 18072 
3 17264 17265 
3 6158 6159 
3 6157 6158 
1 6157 18072 
3 6799 6800 
3 6800 6801 
3 10033 10034 
1 6801 17518 
3 17263 17264 
3 17518 17519 
3 17519 17520 
3 1481 1482 
3 1480 1481 
1 1480 11002 
3 11002 11003 
1 1482 17781 
3 11003 11004 
2 4480 4481 
1 4480 11004 
2 18086 18087 
2 18085 18086 
3 5519 5520 
1 12960 15129 
3 12959 12960 
3 12958 12959 
3 1477 1478 
1 1477 13675 
3 13675 13676 
3 11191 11192 
3 9256 9257 
1 9256 11193 
3 11192 11193 
3 2138 2139 
3 2137 2138 
3 12434 12435 
1 6168 15045 
3 2408 2409 
3 4552 4553 
3 4553 4554 
3 12433 12434 
1 6372 17754 
3 6370 6371 
1 6370 14529 
3 6371 6372 
3 15044 15045 
3 15043 15044 
3 14528 14529 
3 2407 2408 
1 2407 15043 
3 13676 13677 
3 7465 7466 
1 7465 14550 
3 14549 14550 
3 3109 3110 
1 3109 19068 
3 19067 19068 
3 19066 19067 
3 14548 14549 
3 1450 1451 
1 1450 14548 
3 9257 9258 
3 1451 1452 
2 17827 17828 
2 17828 17829 
3 2165 2166 
3 2164 2165 
1 2164 3397 
3 3397 3398 
3 4388 4389 
3 3398 3399 
3 20396 20397 
3 20395 20396 
3 4387 4388 
1 4387 20395 
3 11189 11190 
1 11190 14335 
3 14335 14336 
3 14336 14337 
1 3747 14337 
3 6167 6168 
3 6166 6167 
1 6166 20397 
3 12197 12198 
3 12196 12197 
1 12196 14251 
3 14251 14252 
3 5269 5270 
3 3746 3747 
3 3745 3746 
3 18109 18110 
3 13519 13520 
1 13519 18109 
3 3110 3111 
3 13520 13521 
3 3596 3597 
3 3595 3596 
3 20209 20210 
3 13258 13259 
1 8220 20209 
3 8219 8220 
3 8218 8219 
3 16183 16184 
1 14844 16183 
3 14843 14844 
3 16184 16185 
1 7371 16863 
3 7370 7371 
3 14842 14843 
3 13259 13260 
1 13260 17665 
3 17665 17666 
1 12777 17829 
2 12776 12777 
2 12775 12776 
1 12775 18847 
2 18848 18849 
2 18847 18848 
3 10021 10022 
1 10021 18849 
3 17930 17931 
3 18538 18539 
3 18539 18540 
3 5957 5958 
3 13042 13043 
3 5956 5957 
1 5956 13042 
3 19672 19673 
3 16213 16214 
3 16214 16215 
1 13044 16213 
3 13043 13044 
3 2993 2994 
1 5106 19672 
1 2994 17611 
3 15304 15305 
1 15304 19674 
3 4717 4718 
3 19673 19674 
3 8011 8012 
1 8011 18582 
3 764 765 
3 763 764 
1 763 3745 
3 18110 18111 
3 18581 18582 
3 18580 18581 
3 10996 10997 
1 10996 18580 
3 4718 4719 
3 10997 10998 
3 20027 20028 
1 8052 12154 
3 8051 8052 
3 8050 8051 
1 4002 8050 
3 12154 12155 
3 20026 20027 
1 10998 20026 
3 4001 4002 
3 808 809 
1 808 4630 
3 17900 17901 
3 4000 4001 
1 4000 19828 
3 18019 18020 
3 18020 18021 
1 810 16861 
3 16862 16863 
3 16861 16862 
3 809 810 
1 17901 18019 
3 4630 4631 
1 6600 9582 
3 17666 17667 
3 2854 2855 
1 2854 17667 
3 6598 6599 
3 6599 6600 
3 2855 2856 
2 5203 5204 
1 5205 9604 
2 5204 5205 
3 17510 17511 
3 17509 17510 
1 17509 18085 
3 11206 11207 
1 11206 19786 
2 19787 19788 
3 5518 5519 
1 5518 6150 
2 19786 19787 
1 19782 19788 
1 7467 12000 
3 11999 12000 
3 11998 11999 
1 11998 17511 
3 7466 7467 
2 2273 2274 
2 2272 2273 
3 14537 14538 
3 6149 6150 
3 6148 6149 
3 11338 11339 
3 11339 11340 
1 4554 21096 
3 19780 19781 
1 6120 14527 
3 6119 6120 
3 6118 6119 
1 6118 19780 
3 14527 14528 
3 19781 19782 
3 14536 14537 
1 14536 20523 
3 15461 15462 
3 562 563 
1 562 2524 
3 2524 2525 
3 21095 21096 
3 21094 21095 
1 2526 21094 
3 2525 2526 
3 9706 9707 
3 563 564 
3 3365 3366 
3 3364 3365 
1 3364 8223 
3 8222 8223 
2 11584 11585 
2 11585 11586 
1 11586 21438 
1 1746 19377 
3 19375 19376 
2 18169 18170 
1 18169 21436 
3 21436 21437 
3 1745 1746 
3 21437 21438 
3 19376 19377 
3 1744 1745 
1 1744 11338 
3 15886 15887 
3 15887 15888 
3 5270 5271 
3 20521 20522 
1 5271 20521 
3 20522 20523 
3 17699 17700 
3 4100 4101 
3 4099 4100 
1 4099 12331 
3 12331 12332 
3 12332 12333 
1 1668 17698 
3 17698 17699 
3 3667 3668 
1 3667 17700 
3 787 788 
1 787 3595 
3 2510 2511 
3 788 789 
3 9707 9708 
1 3507 7339 
1 2511 8221 
3 8221 8222 
3 7369 7370 
3 3899 3900 
3 3898 3899 
1 3898 7369 
3 7339 7340 
3 7340 7341 
3 1006 1007 
1 1006 20322 
3 20321 20322 
3 20320 20321 
3 20120 20121 
3 20119 20120 
3 17929 17930 
1 17929 20119 
3 16042 16043 
3 16043 16044 
3 11188 11189 
1 11188 18171 
2 18170 18171 
1 16044 17613 
3 17612 17613 
3 10541 10542 
1 2130 10542 
3 2129 2130 
3 17611 17612 
3 10540 10541 
1 10540 11121 
3 11120 11121 
3 2128 2129 
1 2128 10444 
3 12292 12293 
3 1666 1667 
1 1666 4719 
3 1667 1668 
3 12293 12294 
3 2837 2838 
1 789 2838 
3 2836 2837 
1 2836 17098 
3 17099 17100 
3 17098 17099 
1 17100 19158 
3 15529 15530 
1 15529 20028 
3 19829 19830 
3 11429 11430 
3 19828 19829 
3 11428 11429 
1 11428 19830 
3 5633 5634 
3 5312 5313 
3 5311 5312 
1 5311 5634 
3 2251 2252 
1 2253 5632 
3 2252 2253 
3 5632 5633 
3 15593 15594 
3 1759 1760 
3 14185 14186 
3 14186 14187 
3 20339 20340 
3 4732 4733 
1 4732 14187 
3 4733 4734 
3 3379 3380 
1 3379 3417 
3 3380 3381 
3 14875 14876 
3 12037 12038 
3 12038 12039 
3 11602 11603 
1 11602 14875 
3 11603 11604 
1 7521 12037 
3 14876 14877 
1 11427 19632 
3 11426 11427 
3 11425 11426 
3 10174 10175 
1 10174 11425 
1 8904 20244 
3 10175 10176 
1 3210 10176 
3 3209 3210 
1 2802 5466 
3 2801 2802 
3 20243 20244 
3 5465 5466 
3 5464 5465 
1 5464 6265 
3 3208 3209 
3 118 119 
1 118 3208 
1 120 7075 
3 7075 7076 
3 119 120 
3 19123 19124 
1 19123 19561 
3 19561 19562 
3 19124 19125 
3 21349 21350 
3 19562 19563 
1 8952 19563 
3 2036 2037 
1 2037 5313 
3 8951 8952 
3 2035 2036 
1 2035 9127 
3 18685 18686 
3 9127 9128 
3 18686 18687 
3 15959 15960 
3 15958 15959 
1 15958 20233 
3 20233 20234 
3 19294 19295 
1 8325 19294 
3 19295 19296 
3 2263 2264 
1 2263 19296 
3 7982 7983 
1 3075 7981 
3 7981 7982 
3 3074 3075 
3 3073 3074 
1 3073 20068 
3 20068 20069 
3 20069 20070 
3 3416 3417 
3 3415 3416 
3 839 840 
1 840 4995 
3 14704 14705 
1 14704 20070 
3 838 839 
3 14705 14706 
3 172 173 
1 172 838 
3 214 215 
3 8903 8904 
3 20362 20363 
3 8902 8903 
1 8902 20362 
3 16675 16676 
3 16676 16677 
3 4994 4995 
3 20363 20364 
1 864 5196 
3 5195 5196 
3 5156 5157 
3 5155 5156 
3 21350 21351 
1 4899 21351 
3 4898 4899 
3 4897 4898 
1 4897 8098 
3 8098 8099 
3 8629 8630 
1 8629 18357 
3 18356 18357 
3 8630 8631 
3 18355 18356 
1 18355 18492 
3 8950 8951 
1 8950 14020 
3 14020 14021 
3 14021 14022 
2 20722 20723 
1 2796 14706 
3 2795 2796 
3 2794 2795 
1 2794 10660 
3 215 216 
3 19408 19409 
1 216 19408 
3 19409 19410 
1 2649 16677 
3 2648 2649 
3 2647 2648 
1 2301 5194 
3 16408 16409 
1 16408 21064 
3 5194 5195 
3 16409 16410 
3 2300 2301 
3 21064 21065 
3 21065 21066 
3 2299 2300 
1 2299 11415 
3 616 617 
2 12586 12587 
1 12586 20722 
2 12587 12588 
3 19207 19208 
3 19208 19209 
3 18646 18647 
1 6897 18646 
3 18647 18648 
1 18648 18840 
3 6896 6897 
3 2240 2241 
3 2239 2240 
1 6144 21066 
3 2821 2822 
2 13082 13083 
1 7893 13081 
2 13081 13082 
2 15415 15416 
2 7892 7893 
2 7891 7892 
1 7891 15415 
2 11666 11667 
3 2693 2694 
1 858 14553 
2 14551 14552 
1 2694 14551 
2 14552 14553 
2 857 858 
3 8275 8276 
2 856 857 
1 856 8275 
3 8276 8277 
1 8277 21343 
3 21343 21344 
3 21344 21345 
1 14958 21345 
3 14957 14958 
3 14956 14957 
3 15971 15972 
3 15970 15971 
3 21325 21326 
3 19327 19328 
3 13687 13688 
1 13687 19327 
3 13688 13689 
3 19631 19632 
3 19630 19631 
3 8438 8439 
3 8437 8438 
1 8437 19630 
1 78 13689 
3 2588 2589 
3 2587 2588 
1 2587 9063 
3 10576 10577 
1 10576 18150 
1 9087 20242 
3 9086 9087 
3 9085 9086 
1 9085 18148 
3 18148 18149 
3 18149 18150 
3 20242 20243 
3 2800 2801 
3 1546 1547 
1 1546 2800 
3 1547 1548 
3 10717 10718 
3 10718 10719 
3 6109 6110 
1 6109 10719 
3 5597 5598 
3 5596 5597 
3 20234 20235 
3 2264 2265 
3 13417 13418 
3 13418 13419 
3 20929 20930 
1 13419 20929 
3 9736 9737 
1 9736 15996 
3 9737 9738 
1 9738 15970 
3 15995 15996 
3 15994 15995 
3 11197 11198 
1 11197 14956 
3 11198 11199 
1 2589 11199 
3 4993 4994 
1 4993 15775 
3 15775 15776 
3 15776 15777 
1 15777 17845 
3 17845 17846 
3 1475 1476 
3 1474 1475 
3 424 425 
1 424 8631 
3 425 426 
3 863 864 
3 9488 9489 
3 9487 9488 
2 7768 7769 
1 7768 9487 
3 862 863 
1 862 9489 
3 20930 20931 
2 3520 3521 
2 3521 3522 
2 20723 20724 
1 20724 20931 
1 3522 12300 
1 10662 15994 
3 10661 10662 
3 10660 10661 
3 11540 11541 
3 11539 11540 
3 4501 4502 
1 4501 11539 
3 17846 17847 
3 15160 15161 
3 9550 9551 
1 9550 15160 
3 9551 9552 
3 15161 15162 
3 16670 16671 
3 15256 15257 
1 15256 16410 
3 15257 15258 
1 15258 16671 
3 5125 5126 
3 5126 5127 
3 9131 9132 
1 5127 9130 
3 9130 9131 
3 617 618 
2 12298 12299 
1 12298 18727 
2 12299 12300 
2 18727 18728 
2 18728 18729 
3 4502 4503 
2 5884 5885 
1 5884 6895 
3 6895 6896 
2 5885 5886 
3 11524 11525 
1 11524 20656 
3 20657 20658 
1 15972 20658 
3 20656 20657 
3 77 78 
3 76 77 
1 76 6622 
3 6622 6623 
3 6623 6624 
3 6967 6968 
1 6967 18597 
3 9062 9063 
3 18596 18597 
3 9061 9062 
1 9061 18595 
3 18595 18596 
3 19912 19913 
3 19913 19914 
3 19862 19863 
3 19861 19862 
3 9280 9281 
2 8128 8129 
2 8129 8130 
3 8821 8822 
1 8821 9280 
3 9281 9282 
3 1729 1730 
1 1729 9282 
3 1730 1731 
3 16669 16670 
3 15601 15602 
1 15601 16669 
3 15602 15603 
2 7769 7770 
1 11541 16477 
2 16477 16478 
2 16478 16479 
1 9552 18108 
2 18107 18108 
2 18106 18107 
3 8822 8823 
1 6075 6624 
2 6074 6075 
2 6073 6074 
3 7036 7037 
3 7037 7038 
3 5842 5843 
1 5842 7038 
3 5843 5844 
3 17357 17358 
2 91 92 
1 91 5844 
2 14222 14223 
1 4863 7440 
2 7439 7440 
2 14221 14222 
2 4196 4197 
2 7438 7439 
2 4195 4196 
1 4195 7438 
2 12059 12060 
2 15350 15351 
3 7834 7835 
2 6835 6836 
1 6835 7834 
2 6836 6837 
1 7836 18192 
3 7835 7836 
2 15001 15002 
1 15001 15349 
2 15349 15350 
2 15002 15003 
1 14754 15003 
2 14753 14754 
2 14752 14753 
1 19554 20292 
2 20291 20292 
2 20290 20291 
2 1771 1772 
2 1772 1773 
2 18191 18192 
2 18190 18191 
2 6842 6843 
3 17356 17357 
1 10920 17356 
2 19553 19554 
2 19552 19553 
2 15713 15714 
2 9106 9107 
1 9106 19552 
2 10919 10920 
2 10918 10919 
1 1164 10918 
1 9108 15712 
2 15712 15713 
2 9107 9108 
1 13452 15714 
2 1163 1164 
2 9287 9288 
2 1162 1163 
1 1162 14259 
2 1181 1182 
2 1180 1181 
1 1182 17806 
3 17806 17807 
3 17807 17808 
2 15626 15627 
3 13517 13518 
3 13516 13517 
3 12155 12156 
3 11758 11759 
3 1042 1043 
1 1042 11758 
3 1043 1044 
1 1044 2554 
1 6159 11760 
3 11759 11760 
3 7420 7421 
3 7421 7422 
3 10034 10035 
3 4861 4862 
3 4862 4863 
3 7208 7209 
3 7207 7208 
1 7207 9822 
3 7468 7469 
1 7468 10035 
3 17779 17780 
3 17780 17781 
3 2554 2555 
3 2555 2556 
1 2556 17937 
3 1577 1578 
3 1576 1577 
1 1576 7422 
3 15778 15779 
1 15778 17632 
2 15718 15719 
3 15779 15780 
2 15719 15720 
1 15720 15780 
3 9821 9822 
2 3260 3261 
2 3259 3260 
1 3259 13150 
3 13150 13151 
2 752 753 
2 12058 12059 
1 12058 14604 
2 12518 12519 
2 12517 12518 
2 8614 8615 
2 8615 8616 
2 496 497 
1 496 8616 
2 13073 13074 
2 6602 6603 
1 6603 13074 
2 751 752 
1 225 751 
2 7540 7541 
2 4469 4470 
1 4470 7540 
2 4468 4469 
2 17872 17873 
2 17873 17874 
3 7648 7649 
3 7649 7650 
3 10750 10751 
1 10750 11806 
3 10751 10752 
3 11806 11807 
3 11807 11808 
3 14602 14603 
3 5821 5822 
1 5821 10752 
3 5822 5823 
1 5823 14602 
3 14603 14604 
2 8578 8579 
1 498 13072 
2 13072 13073 
2 497 498 
2 8758 8759 
2 8759 8760 
2 8579 8580 
2 6841 6842 
2 271 272 
1 271 6841 
2 272 273 
1 273 4365 
2 6601 6602 
2 16100 16101 
1 7020 16101 
2 7019 7020 
2 16099 16100 
2 7018 7019 
1 7018 21391 
3 16372 16373 
2 13387 13388 
1 13387 20797 
3 2401 2402 
1 2401 16374 
3 16373 16374 
2 20798 20799 
2 20797 20798 
1 2421 7650 
3 2402 2403 
2 19784 19785 
2 19783 19784 
1 19467 19783 
1 7311 8580 
2 7309 7310 
1 7309 19785 
2 7310 7311 
2 6529 6530 
1 6529 15138 
2 15137 15138 
2 12911 12912 
2 15136 15137 
2 12910 12911 
1 12910 15136 
2 13451 13452 
2 7397 7398 
2 2768 2769 
1 2769 7398 
2 2767 2768 
2 13450 13451 
1 13450 21367 
2 21367 21368 
2 9286 9287 
2 13388 13389 
2 19216 19217 
1 19216 21369 
2 21368 21369 
2 5641 5642 
1 5641 13389 
2 18773 18774 
2 5642 5643 
2 14258 14259 
2 14257 14258 
2 6530 6531 
1 15246 18205 
2 18205 18206 
2 15245 15246 
2 4942 4943 
1 4942 14257 
2 4943 4944 
1 4944 15244 
2 15244 15245 
3 4171 4172 
1 4171 17931 
2 1988 1989 
2 1987 1988 
1 1987 4173 
3 7844 7845 
3 4172 4173 
3 7843 7844 
1 7843 17767 
3 17767 17768 
3 17768 17769 
1 777 17769 
3 776 777 
2 15625 15626 
3 7070 7071 
3 7069 7070 
3 16282 16283 
3 16283 16284 
1 15528 16284 
3 2992 2993 
1 2992 7071 
3 15305 15306 
3 13760 13761 
3 13759 13760 
1 13759 15306 
3 8260 8261 
1 8260 13518 
3 8261 8262 
1 8262 16453 
1 8322 12156 
3 8320 8321 
1 8320 13761 
3 8321 8322 
3 16453 16454 
1 16455 19806 
3 4631 4632 
3 17899 17900 
1 17899 18675 
3 18674 18675 
3 18673 18674 
3 7559 7560 
3 7558 7559 
1 7558 17634 
1 2757 3519 
3 2756 2757 
3 2755 2756 
1 2755 8206 
3 15592 15593 
3 9581 9582 
3 9580 9581 
1 9580 15592 
3 7469 7470 
2 16810 16811 
1 16810 21592 
2 21592 21593 
2 21593 21594 
2 7745 7746 
3 15490 15491 
3 15491 15492 
1 12822 15490 
1 8700 15625 
3 8699 8700 
3 8698 8699 
1 8698 9153 
3 12821 12822 
3 9152 9153 
3 9151 9152 
3 12820 12821 
1 12820 16282 
3 535 536 
3 536 537 
3 15527 15528 
3 16454 16455 
3 17936 17937 
3 20639 20640 
3 13981 13982 
1 13981 16161 
3 17632 17633 
3 17633 17634 
3 17935 17936 
3 656 657 
1 657 20709 
3 20707 20708 
3 16159 16160 
1 16159 20707 
3 16160 16161 
3 20708 20709 
3 19237 19238 
3 19238 19239 
3 9820 9821 
1 6249 16812 
3 6248 6249 
2 16811 16812 
3 655 656 
1 655 6247 
3 6247 6248 
1 3693 9151 
3 20078 20079 
3 3692 3693 
3 20077 20078 
1 11811 20077 
3 17593 17594 
3 3691 3692 
1 3691 17593 
3 11810 11811 
3 17594 17595 
3 13151 13152 
3 14410 14411 
3 14411 14412 
3 11809 11810 
1 11809 13152 
3 20638 20639 
1 1371 20638 
2 2261 2262 
3 14941 14942 
3 14942 14943 
2 7535 7536 
1 7536 13207 
3 13207 13208 
2 7534 7535 
2 2260 2261 
2 15163 15164 
2 15164 15165 
2 8375 8376 
2 4537 4538 
1 4537 15165 
2 4538 4539 
2 14522 14523 
2 14521 14522 
2 223 224 
2 8374 8375 
2 224 225 
2 15502 15503 
2 7799 7800 
2 7798 7799 
1 7798 15504 
2 15503 15504 
2 16378 16379 
2 7541 7542 
2 16379 16380 
2 86 87 
1 87 7542 
2 85 86 
2 886 887 
2 4786 4787 
1 4786 8376 
2 4787 4788 
1 888 4788 
2 887 888 
2 3757 3758 
1 3757 15502 
2 3758 3759 
1 4539 9955 
2 9955 9956 
2 9956 9957 
1 1959 9957 
2 12934 12935 
2 12935 12936 
1 3759 12147 
2 12146 12147 
2 1958 1959 
2 1957 1958 
1 1957 4468 
1 9588 20748 
2 9587 9588 
2 4364 4365 
2 4363 4364 
1 4363 13110 
2 13109 13110 
2 13108 13109 
1 13108 16378 
2 20747 20748 
2 10973 10974 
2 21391 21392 
2 10972 10973 
1 10972 20799 
2 21392 21393 
2 5692 5693 
1 5692 21393 
2 5693 5694 
2 9236 9237 
3 2420 2421 
3 2419 2420 
1 2419 14662 
3 14662 14663 
2 9235 9236 
2 17306 17307 
2 19465 19466 
2 19466 19467 
2 17305 17306 
1 12912 12936 
2 4625 4626 
2 4624 4625 
3 2359 2360 
1 2359 4624 
2 9586 9587 
2 7396 7397 
1 7396 9586 
1 18696 19218 
2 18695 18696 
2 9917 9918 
1 7101 9916 
2 7100 7101 
2 9916 9917 
1 9918 18772 
2 18772 18773 
2 19217 19218 
2 10462 10463 
2 12062 12063 
2 3307 3308 
1 3307 5643 
2 3308 3309 
1 3309 12063 
3 14663 14664 
3 20615 20616 
3 20614 20615 
1 6528 14664 
3 6527 6528 
3 6526 6527 
1 6526 18897 
3 2360 2361 
2 18694 18695 
2 1289 1290 
2 18206 18207 
2 7555 7556 
2 1288 1289 
1 1288 7557 
2 7556 7557 
3 18896 18897 
3 18895 18896 
3 1007 1008 
2 7744 7745 
1 7744 9634 
3 9634 9635 
3 9635 9636 
3 13660 13661 
1 7845 13660 
3 13661 13662 
3 8665 8666 
3 1760 1761 
3 20338 20339 
3 2578 2579 
1 2578 20338 
3 8666 8667 
3 2579 2580 
1 2580 6474 
3 6473 6474 
3 20299 20300 
3 7520 7521 
3 7519 7520 
1 7519 20299 
3 775 776 
3 20300 20301 
3 10444 10445 
3 15404 15405 
3 6637 6638 
1 6637 15526 
3 6638 6639 
1 10446 15403 
3 15403 15404 
3 15526 15527 
3 10445 10446 
1 3828 6639 
3 19157 19158 
3 19804 19805 
3 3517 3518 
1 3517 19804 
3 19156 19157 
1 11394 19156 
3 11393 11394 
3 19805 19806 
3 15530 15531 
3 3518 3519 
3 18491 18492 
1 5295 15531 
3 18490 18491 
3 5294 5295 
3 5293 5294 
1 5293 18490 
3 11392 11393 
1 11392 21126 
3 8324 8325 
3 8206 8207 
3 8207 8208 
3 13159 13160 
1 8208 13159 
3 13160 13161 
3 8323 8324 
1 8323 13161 
3 2170 2171 
1 2170 11739 
3 2171 2172 
3 3962 3963 
3 11737 11738 
1 11737 15492 
3 11738 11739 
1 2172 3963 
3 6472 6473 
3 3961 3962 
1 3961 20911 
3 20911 20912 
3 20912 20913 
3 11182 11183 
1 11182 14877 
3 11183 11184 
1 174 5391 
3 5389 5390 
1 5389 20079 
3 5390 5391 
3 173 174 
1 8253 20364 
3 8252 8253 
3 8251 8252 
1 2178 15768 
3 3131 3132 
3 16243 16244 
3 3827 3828 
3 3826 3827 
1 3826 5157 
3 2177 2178 
3 2176 2177 
3 16244 16245 
1 13983 16245 
3 13982 13983 
3 21125 21126 
3 21124 21125 
3 6991 6992 
1 6991 21124 
1 6993 19239 
3 6992 6993 
3 8099 8100 
3 9128 9129 
3 10784 10785 
3 10783 10784 
1 10783 21238 
3 21239 21240 
3 15922 15923 
1 15922 17595 
3 15923 15924 
3 21238 21239 
3 15766 15767 
3 1226 1227 
3 15767 15768 
3 19034 19035 
3 19033 19034 
3 13442 13443 
3 18839 18840 
3 13441 13442 
3 18838 18839 
3 7618 7619 
3 3130 3131 
1 3130 7618 
3 1370 1371 
3 1369 1370 
3 7619 7620 
1 7620 16096 
3 11414 11415 
3 16096 16097 
3 16097 16098 
3 2765 2766 
1 2766 13282 
2 13282 13283 
3 2764 2765 
1 2764 8100 
2 13283 13284 
3 11413 11414 
3 2072 2073 
1 2073 19209 
3 1225 1226 
3 2071 2072 
1 2071 18345 
3 18344 18345 
1 13209 18343 
3 18343 18344 
3 13208 13209 
3 6143 6144 
3 6142 6143 
3 16210 16211 
3 16211 16212 
3 973 974 
1 975 6781 
3 974 975 
3 18655 18656 
3 18656 18657 
1 10623 18657 
2 10621 10622 
1 10621 14521 
2 10622 10623 
2 15389 15390 
2 7793 7794 
2 7792 7793 
2 15416 15417 
2 2395 2396 
1 2395 15417 
2 17971 17972 
1 6783 17971 
2 17972 17973 
2 6781 6782 
2 6782 6783 
3 2822 2823 
2 3148 3149 
1 3148 12145 
2 3149 3150 
2 12145 12146 
2 15388 15389 
1 15388 19741 
2 19741 19742 
2 19742 19743 
2 9628 9629 
1 9628 19743 
2 9629 9630 
2 20746 20747 
2 2396 2397 
1 2397 20746 
2 9965 9966 
2 9964 9965 
2 7786 7787 
1 7786 9966 
2 7787 7788 
1 5694 7788 
2 6466 6467 
2 5245 5246 
1 5245 6466 
2 6467 6468 
2 5246 5247 
1 9237 18073 
3 18073 18074 
3 18074 18075 
1 2823 8211 
2 8209 8210 
1 8209 18075 
2 8210 8211 
1 9630 12544 
2 12544 12545 
2 12545 12546 
2 7099 7100 
2 4340 4341 
2 10463 10464 
1 6468 10464 
2 11665 11666 
1 11665 16329 
2 16328 16329 
2 16327 16328 
2 12061 12062 
1 12061 16327 
2 4339 4340 
