ITEM: TIMESTEP
0
ITEM: NUMBER OF ATOMS
1734
ITEM: BOX BOUNDS pp pp pp
0.0000000000000000e+00 5.0000000000000000e+01
0.0000000000000000e+00 5.0000000000000000e+01
0.0000000000000000e+00 5.0000000000000000e+01
ITEM: ATOMS id type 
7 1 
8 3 
9 1 
76 1 
77 3 
78 1 
85 1 
86 2 
87 1 
184 1 
185 3 
186 1 
385 1 
386 3 
387 1 
424 1 
425 3 
426 1 
439 1 
440 3 
441 1 
487 1 
488 2 
489 1 
496 1 
497 2 
498 1 
1162 1 
1163 2 
1164 1 
1225 1 
1226 3 
1227 1 
1288 1 
1289 2 
1290 1 
1450 1 
1451 3 
1452 1 
1576 1 
1577 3 
1578 1 
2239 1 
2240 3 
2241 1 
2299 1 
2300 3 
2301 1 
2359 1 
2360 3 
2361 1 
2401 1 
2402 3 
2403 1 
2407 1 
2408 3 
2409 1 
2419 1 
2420 3 
2421 1 
2524 1 
2525 3 
2526 1 
2587 1 
2588 3 
2589 1 
3208 1 
3209 3 
3210 1 
3259 1 
3260 2 
3261 1 
3307 1 
3308 2 
3309 1 
3364 1 
3365 3 
3366 1 
3379 1 
3380 3 
3381 1 
3505 1 
3506 3 
3507 1 
3661 1 
3662 3 
3663 1 
3667 1 
3668 3 
3669 1 
3745 1 
3746 3 
3747 1 
4339 1 
4340 2 
4341 1 
4387 1 
4388 3 
4389 1 
4468 1 
4469 2 
4470 1 
4501 1 
4502 3 
4503 1 
4624 1 
4625 2 
4626 1 
4630 1 
4631 3 
4632 1 
4861 1 
4862 3 
4863 1 
4885 1 
4886 3 
4887 1 
5464 1 
5465 3 
5466 1 
5596 1 
5597 3 
5598 1 
5641 1 
5642 2 
5643 1 
5821 1 
5822 3 
5823 1 
5842 1 
5843 3 
5844 1 
5884 1 
5885 2 
5886 1 
5956 1 
5957 3 
5958 1 
6781 1 
6782 2 
6783 1 
6799 1 
6800 3 
6801 1 
6841 1 
6842 2 
6843 1 
6910 1 
6911 3 
6912 1 
6967 1 
6968 3 
6969 1 
7036 1 
7037 3 
7038 1 
7099 1 
7100 2 
7101 1 
7207 1 
7208 3 
7209 1 
7744 1 
7745 2 
7746 1 
7768 1 
7769 2 
7770 1 
7981 1 
7982 3 
7983 1 
8050 1 
8051 3 
8052 1 
8128 1 
8129 2 
8130 1 
8221 1 
8222 3 
8223 1 
8902 1 
8903 3 
8904 1 
8950 1 
8951 3 
8952 1 
9016 1 
9017 3 
9018 1 
9061 1 
9062 3 
9063 1 
9085 1 
9086 3 
9087 1 
9127 1 
9128 3 
9129 1 
9130 1 
9131 3 
9132 1 
9256 1 
9257 3 
9258 1 
9307 1 
9308 3 
9309 1 
9964 1 
9965 2 
9966 1 
10021 1 
10022 3 
10023 1 
10033 1 
10034 3 
10035 1 
10444 1 
10445 3 
10446 1 
10453 1 
10454 3 
10455 1 
10462 1 
10463 2 
10464 1 
11119 1 
11120 3 
11121 1 
11182 1 
11183 3 
11184 1 
11188 1 
11189 3 
11190 1 
11413 1 
11414 3 
11415 1 
11425 1 
11426 3 
11427 1 
11428 1 
11429 3 
11430 1 
12061 1 
12062 2 
12063 1 
12145 1 
12146 2 
12147 1 
12196 1 
12197 3 
12198 1 
12433 1 
12434 3 
12435 1 
12490 1 
12491 3 
12492 1 
12544 1 
12545 2 
12546 1 
13150 1 
13151 3 
13152 1 
13159 1 
13160 3 
13161 1 
13207 1 
13208 3 
13209 1 
13282 1 
13283 2 
13284 1 
13387 1 
13388 2 
13389 1 
13441 1 
13442 3 
13443 1 
13450 1 
13451 2 
13452 1 
13516 1 
13517 3 
13518 1 
13519 1 
13520 3 
13521 1 
14221 1 
14222 2 
14223 1 
14227 1 
14228 3 
14229 1 
14230 1 
14231 3 
14232 1 
14410 1 
14411 3 
14412 1 
14521 1 
14522 2 
14523 1 
14527 1 
14528 3 
14529 1 
14536 1 
14537 3 
14538 1 
14548 1 
14549 3 
14550 1 
14602 1 
14603 3 
14604 1 
14662 1 
14663 3 
14664 1 
15304 1 
15305 3 
15306 1 
15388 1 
15389 2 
15390 1 
15430 1 
15431 3 
15432 1 
15490 1 
15491 3 
15492 1 
15502 1 
15503 2 
15504 1 
15601 1 
15602 3 
15603 1 
15625 1 
15626 2 
15627 1 
16327 1 
16328 2 
16329 1 
16408 1 
16409 3 
16410 1 
16453 1 
16454 3 
16455 1 
17305 1 
17306 2 
17307 1 
17356 1 
17357 3 
17358 1 
17593 1 
17594 3 
17595 1 
17665 1 
17666 3 
17667 1 
17767 1 
17768 3 
17769 1 
17779 1 
17780 3 
17781 1 
18490 1 
18491 3 
18492 1 
18673 1 
18674 3 
18675 1 
18685 1 
18686 3 
18687 1 
18727 1 
18728 2 
18729 1 
18847 1 
18848 2 
18849 1 
19465 1 
19466 2 
19467 1 
19561 1 
19562 3 
19563 1 
19630 1 
19631 3 
19632 1 
19741 1 
19742 2 
19743 1 
19804 1 
19805 3 
19806 1 
19828 1 
19829 3 
19830 1 
19861 1 
19862 3 
19863 1 
20521 1 
20522 3 
20523 1 
20644 1 
20645 3 
20646 1 
20656 1 
20657 3 
20658 1 
20707 1 
20708 3 
20709 1 
20722 1 
20723 2 
20724 1 
91 1 
92 2 
93 1 
118 1 
119 3 
120 1 
172 1 
173 3 
174 1 
214 1 
215 3 
216 1 
217 1 
218 3 
219 1 
223 1 
224 2 
225 1 
271 1 
272 2 
273 1 
535 1 
536 3 
537 1 
1180 1 
1181 2 
1182 1 
1291 1 
1292 3 
1293 1 
1369 1 
1370 3 
1371 1 
1378 1 
1379 3 
1380 1 
1474 1 
1475 3 
1476 1 
1477 1 
1478 3 
1479 1 
1480 1 
1481 3 
1482 1 
1546 1 
1547 3 
1548 1 
1657 1 
1658 3 
1659 1 
1666 1 
1667 3 
1668 1 
2251 1 
2252 3 
2253 1 
2260 1 
2261 2 
2262 1 
2263 1 
2264 3 
2265 1 
2272 1 
2273 2 
2274 1 
2395 1 
2396 2 
2397 1 
2509 1 
2510 3 
2511 1 
2554 1 
2555 3 
2556 1 
2578 1 
2579 3 
2580 1 
2623 1 
2624 3 
2625 1 
3226 1 
3227 3 
3228 1 
3397 1 
3398 3 
3399 1 
3415 1 
3416 3 
3417 1 
3517 1 
3518 3 
3519 1 
3520 1 
3521 2 
3522 1 
3526 1 
3527 3 
3528 1 
3595 1 
3596 3 
3597 1 
3649 1 
3650 2 
3651 1 
3691 1 
3692 3 
3693 1 
3694 1 
3695 2 
3696 1 
3703 1 
3704 3 
3705 1 
3757 1 
3758 2 
3759 1 
4363 1 
4364 2 
4365 1 
4435 1 
4436 3 
4437 1 
4480 1 
4481 2 
4482 1 
4537 1 
4538 2 
4539 1 
4552 1 
4553 3 
4554 1 
4717 1 
4718 3 
4719 1 
4732 1 
4733 3 
4734 1 
4786 1 
4787 2 
4788 1 
4897 1 
4898 3 
4899 1 
5518 1 
5519 3 
5520 1 
5632 1 
5633 3 
5634 1 
5692 1 
5693 2 
5694 1 
6769 1 
6770 3 
6771 1 
6835 1 
6836 2 
6837 1 
6895 1 
6896 3 
6897 1 
6991 1 
6992 3 
6993 1 
7018 1 
7019 2 
7020 1 
7069 1 
7070 3 
7071 1 
7075 1 
7076 3 
7077 1 
7786 1 
7787 2 
7788 1 
7792 1 
7793 2 
7794 1 
7798 1 
7799 2 
7800 1 
7834 1 
7835 3 
7836 1 
7843 1 
7844 3 
7845 1 
7891 1 
7892 2 
7893 1 
8011 1 
8012 3 
8013 1 
8098 1 
8099 3 
8100 1 
8155 1 
8156 3 
8157 1 
8206 1 
8207 3 
8208 1 
8209 1 
8210 2 
8211 1 
8218 1 
8219 3 
8220 1 
8251 1 
8252 3 
8253 1 
8260 1 
8261 3 
8262 1 
8275 1 
8276 3 
8277 1 
8320 1 
8321 3 
8322 1 
8323 1 
8324 3 
8325 1 
8977 1 
8978 3 
8979 1 
9106 1 
9107 2 
9108 1 
9151 1 
9152 3 
9153 1 
9235 1 
9236 2 
9237 1 
9280 1 
9281 3 
9282 1 
9286 1 
9287 2 
9288 1 
10174 1 
10175 3 
10176 1 
10540 1 
10541 3 
10542 1 
10555 1 
10556 3 
10557 1 
11143 1 
11144 2 
11145 1 
11191 1 
11192 3 
11193 1 
11197 1 
11198 3 
11199 1 
11206 1 
11207 3 
11208 1 
11338 1 
11339 3 
11340 1 
11392 1 
11393 3 
11394 1 
12154 1 
12155 3 
12156 1 
12292 1 
12293 3 
12294 1 
12298 1 
12299 2 
12300 1 
12331 1 
12332 3 
12333 1 
12517 1 
12518 2 
12519 1 
12586 1 
12587 2 
12588 1 
13258 1 
13259 3 
13260 1 
13417 1 
13418 3 
13419 1 
14251 1 
14252 3 
14253 1 
14257 1 
14258 2 
14259 1 
14335 1 
14336 3 
14337 1 
14551 1 
14552 2 
14553 1 
14629 1 
14630 2 
14631 1 
15349 1 
15350 2 
15351 1 
15403 1 
15404 3 
15405 1 
15415 1 
15416 2 
15417 1 
15418 1 
15419 3 
15420 1 
15460 1 
15461 3 
15462 1 
15520 1 
15521 3 
15522 1 
15526 1 
15527 3 
15528 1 
15529 1 
15530 3 
15531 1 
15592 1 
15593 3 
15594 1 
15634 1 
15635 2 
15636 1 
15706 1 
15707 2 
15708 1 
15712 1 
15713 2 
15714 1 
15718 1 
15719 2 
15720 1 
15766 1 
15767 3 
15768 1 
15775 1 
15776 3 
15777 1 
15778 1 
15779 3 
15780 1 
16372 1 
16373 3 
16374 1 
16378 1 
16379 2 
16380 1 
16477 1 
16478 2 
16479 1 
16669 1 
16670 3 
16671 1 
16675 1 
16676 3 
16677 1 
16723 1 
16724 3 
16725 1 
17509 1 
17510 3 
17511 1 
17518 1 
17519 3 
17520 1 
17551 1 
17552 3 
17553 1 
17611 1 
17612 3 
17613 1 
17632 1 
17633 3 
17634 1 
17698 1 
17699 3 
17700 1 
17752 1 
17753 3 
17754 1 
17806 1 
17807 3 
17808 1 
18472 1 
18473 3 
18474 1 
18538 1 
18539 3 
18540 1 
18580 1 
18581 3 
18582 1 
18595 1 
18596 3 
18597 1 
18646 1 
18647 3 
18648 1 
18655 1 
18656 3 
18657 1 
18694 1 
18695 2 
18696 1 
18772 1 
18773 2 
18774 1 
18838 1 
18839 3 
18840 1 
18895 1 
18896 3 
18897 1 
19552 1 
19553 2 
19554 1 
19612 1 
19613 3 
19614 1 
19672 1 
19673 3 
19674 1 
19780 1 
19781 3 
19782 1 
19783 1 
19784 2 
19785 1 
19786 1 
19787 2 
19788 1 
19912 1 
19913 3 
19914 1 
20614 1 
20615 3 
20616 1 
20638 1 
20639 3 
20640 1 
20686 1 
20687 3 
20688 1 
20746 1 
20747 2 
20748 1 
20797 1 
20798 2 
20799 1 
20911 1 
20912 3 
20913 1 
20929 1 
20930 3 
20931 1 
562 1 
563 3 
564 1 
616 1 
617 3 
618 1 
673 1 
674 3 
675 1 
676 1 
677 2 
678 1 
787 1 
788 3 
789 1 
808 1 
809 3 
810 1 
856 1 
857 2 
858 1 
862 1 
863 3 
864 1 
973 1 
974 3 
975 1 
1042 1 
1043 3 
1044 1 
1744 1 
1745 3 
1746 1 
1759 1 
1760 3 
1761 1 
1921 1 
1922 3 
1923 1 
1987 1 
1988 2 
1989 1 
2050 1 
2051 3 
2052 1 
2053 1 
2054 3 
2055 1 
2056 1 
2057 3 
2058 1 
2128 1 
2129 3 
2130 1 
2164 1 
2165 3 
2166 1 
2170 1 
2171 3 
2172 1 
2176 1 
2177 3 
2178 1 
2647 1 
2648 3 
2649 1 
2725 1 
2726 3 
2727 1 
2764 1 
2765 3 
2766 1 
2767 1 
2768 2 
2769 1 
2821 1 
2822 3 
2823 1 
2836 1 
2837 3 
2838 1 
3073 1 
3074 3 
3075 1 
3130 1 
3131 3 
3132 1 
3148 1 
3149 2 
3150 1 
3901 1 
3902 3 
3903 1 
3961 1 
3962 3 
3963 1 
3964 1 
3965 3 
3966 1 
3982 1 
3983 3 
3984 1 
4099 1 
4100 3 
4101 1 
4942 1 
4943 2 
4944 1 
4990 1 
4991 3 
4992 1 
4993 1 
4994 3 
4995 1 
5104 1 
5105 3 
5106 1 
5125 1 
5126 3 
5127 1 
5245 1 
5246 2 
5247 1 
5293 1 
5294 3 
5295 1 
6073 1 
6074 2 
6075 1 
6142 1 
6143 3 
6144 1 
6148 1 
6149 3 
6150 1 
6247 1 
6248 3 
6249 1 
6265 1 
6266 3 
6267 1 
6307 1 
6308 3 
6309 1 
6370 1 
6371 3 
6372 1 
6601 1 
6602 2 
6603 1 
6622 1 
6623 3 
6624 1 
7339 1 
7340 3 
7341 1 
7396 1 
7397 2 
7398 1 
7465 1 
7466 3 
7467 1 
7468 1 
7469 3 
7470 1 
7519 1 
7520 3 
7521 1 
7525 1 
7526 3 
7527 1 
7648 1 
7649 3 
7650 1 
8542 1 
8543 3 
8544 1 
8665 1 
8666 3 
8667 1 
8707 1 
8708 3 
8709 1 
8821 1 
8822 3 
8823 1 
9487 1 
9488 3 
9489 1 
9550 1 
9551 3 
9552 1 
9604 1 
9605 2 
9606 1 
9628 1 
9629 2 
9630 1 
9736 1 
9737 3 
9738 1 
9916 1 
9917 2 
9918 1 
10576 1 
10577 3 
10578 1 
10621 1 
10622 2 
10623 1 
10750 1 
10751 3 
10752 1 
10996 1 
10997 3 
10998 1 
11002 1 
11003 3 
11004 1 
11062 1 
11063 3 
11064 1 
11524 1 
11525 3 
11526 1 
11539 1 
11540 3 
11541 1 
11584 1 
11585 2 
11586 1 
11602 1 
11603 3 
11604 1 
11665 1 
11666 2 
11667 1 
11956 1 
11957 3 
11958 1 
12910 1 
12911 2 
12912 1 
13042 1 
13043 3 
13044 1 
13081 1 
13082 2 
13083 1 
13108 1 
13109 2 
13110 1 
13687 1 
13688 3 
13689 1 
13759 1 
13760 3 
13761 1 
13801 1 
13802 3 
13803 1 
13981 1 
13982 3 
13983 1 
14185 1 
14186 3 
14187 1 
14704 1 
14705 3 
14706 1 
14842 1 
14843 3 
14844 1 
14848 1 
14849 3 
14850 1 
14941 1 
14942 3 
14943 1 
14956 1 
14957 3 
14958 1 
15001 1 
15002 2 
15003 1 
15016 1 
15017 3 
15018 1 
15127 1 
15128 3 
15129 1 
15136 1 
15137 2 
15138 1 
15145 1 
15146 3 
15147 1 
15244 1 
15245 2 
15246 1 
15256 1 
15257 3 
15258 1 
15922 1 
15923 3 
15924 1 
15970 1 
15971 3 
15972 1 
16042 1 
16043 3 
16044 1 
16096 1 
16097 3 
16098 1 
16099 1 
16100 2 
16101 1 
16159 1 
16160 3 
16161 1 
16210 1 
16211 3 
16212 1 
16213 1 
16214 3 
16215 1 
16282 1 
16283 3 
16284 1 
16810 1 
16811 2 
16812 1 
16861 1 
16862 3 
16863 1 
17827 1 
17828 2 
17829 1 
17845 1 
17846 3 
17847 1 
17899 1 
17900 3 
17901 1 
18007 1 
18008 3 
18009 1 
18019 1 
18020 3 
18021 1 
18070 1 
18071 3 
18072 1 
18073 1 
18074 3 
18075 1 
18085 1 
18086 2 
18087 1 
18121 1 
18122 3 
18123 1 
18148 1 
18149 3 
18150 1 
18190 1 
18191 2 
18192 1 
18205 1 
18206 2 
18207 1 
18973 1 
18974 2 
18975 1 
19033 1 
19034 3 
19035 1 
19156 1 
19157 3 
19158 1 
19207 1 
19208 3 
19209 1 
19216 1 
19217 2 
19218 1 
19327 1 
19328 3 
19329 1 
19408 1 
19409 3 
19410 1 
20068 1 
20069 3 
20070 1 
20119 1 
20120 3 
20121 1 
20167 1 
20168 3 
20169 1 
20233 1 
20234 3 
20235 1 
20242 1 
20243 3 
20244 1 
20287 1 
20288 3 
20289 1 
20290 1 
20291 2 
20292 1 
20299 1 
20300 3 
20301 1 
20362 1 
20363 3 
20364 1 
21064 1 
21065 3 
21066 1 
21088 1 
21089 3 
21090 1 
21124 1 
21125 3 
21126 1 
21325 1 
21326 3 
21327 1 
21367 1 
21368 2 
21369 1 
21436 1 
21437 3 
21438 1 
655 1 
656 3 
657 1 
751 1 
752 2 
753 1 
763 1 
764 3 
765 1 
775 1 
776 3 
777 1 
838 1 
839 3 
840 1 
886 1 
887 2 
888 1 
1006 1 
1007 3 
1008 1 
1729 1 
1730 3 
1731 1 
1771 1 
1772 2 
1773 1 
1957 1 
1958 2 
1959 1 
2035 1 
2036 3 
2037 1 
2071 1 
2072 3 
2073 1 
2080 1 
2081 3 
2082 1 
2089 1 
2090 3 
2091 1 
2137 1 
2138 3 
2139 1 
2692 1 
2693 3 
2694 1 
2695 1 
2696 3 
2697 1 
2755 1 
2756 3 
2757 1 
2794 1 
2795 3 
2796 1 
2800 1 
2801 3 
2802 1 
2854 1 
2855 3 
2856 1 
2992 1 
2993 3 
2994 1 
3031 1 
3032 3 
3033 1 
3109 1 
3110 3 
3111 1 
3826 1 
3827 3 
3828 1 
3829 1 
3830 3 
3831 1 
3898 1 
3899 3 
3900 1 
4000 1 
4001 3 
4002 1 
4171 1 
4172 3 
4173 1 
4195 1 
4196 2 
4197 1 
5155 1 
5156 3 
5157 1 
5194 1 
5195 3 
5196 1 
5203 1 
5204 2 
5205 1 
5269 1 
5270 3 
5271 1 
5311 1 
5312 3 
5313 1 
5389 1 
5390 3 
5391 1 
6109 1 
6110 3 
6111 1 
6118 1 
6119 3 
6120 1 
6157 1 
6158 3 
6159 1 
6166 1 
6167 3 
6168 1 
6349 1 
6350 3 
6351 1 
6466 1 
6467 2 
6468 1 
6472 1 
6473 3 
6474 1 
6526 1 
6527 3 
6528 1 
6529 1 
6530 2 
6531 1 
6598 1 
6599 3 
6600 1 
6637 1 
6638 3 
6639 1 
6643 1 
6644 3 
6645 1 
7309 1 
7310 2 
7311 1 
7369 1 
7370 3 
7371 1 
7420 1 
7421 3 
7422 1 
7438 1 
7439 2 
7440 1 
7534 1 
7535 2 
7536 1 
7540 1 
7541 2 
7542 1 
7555 1 
7556 2 
7557 1 
7558 1 
7559 3 
7560 1 
7618 1 
7619 3 
7620 1 
8374 1 
8375 2 
8376 1 
8380 1 
8381 3 
8382 1 
8437 1 
8438 3 
8439 1 
8578 1 
8579 2 
8580 1 
8614 1 
8615 2 
8616 1 
8629 1 
8630 3 
8631 1 
8698 1 
8699 3 
8700 1 
8758 1 
8759 2 
8760 1 
9580 1 
9581 3 
9582 1 
9586 1 
9587 2 
9588 1 
9598 1 
9599 3 
9600 1 
9634 1 
9635 3 
9636 1 
9706 1 
9707 3 
9708 1 
9820 1 
9821 3 
9822 1 
9955 1 
9956 2 
9957 1 
10660 1 
10661 3 
10662 1 
10717 1 
10718 3 
10719 1 
10783 1 
10784 3 
10785 1 
10918 1 
10919 2 
10920 1 
10972 1 
10973 2 
10974 1 
11611 1 
11612 3 
11613 1 
11623 1 
11624 2 
11625 1 
11737 1 
11738 3 
11739 1 
11758 1 
11759 3 
11760 1 
11806 1 
11807 3 
11808 1 
11809 1 
11810 3 
11811 1 
11998 1 
11999 3 
12000 1 
12037 1 
12038 3 
12039 1 
12058 1 
12059 2 
12060 1 
12775 1 
12776 2 
12777 1 
12820 1 
12821 3 
12822 1 
12934 1 
12935 2 
12936 1 
12958 1 
12959 3 
12960 1 
13072 1 
13073 2 
13074 1 
13660 1 
13661 3 
13662 1 
13675 1 
13676 3 
13677 1 
14020 1 
14021 3 
14022 1 
14752 1 
14753 2 
14754 1 
14875 1 
14876 3 
14877 1 
15043 1 
15044 3 
15045 1 
15160 1 
15161 3 
15162 1 
15163 1 
15164 2 
15165 1 
15886 1 
15887 3 
15888 1 
15958 1 
15959 3 
15960 1 
15994 1 
15995 3 
15996 1 
16183 1 
16184 3 
16185 1 
16192 1 
16193 3 
16194 1 
16243 1 
16244 3 
16245 1 
16963 1 
16964 3 
16965 1 
17098 1 
17099 3 
17100 1 
17263 1 
17264 3 
17265 1 
17872 1 
17873 2 
17874 1 
17929 1 
17930 3 
17931 1 
17935 1 
17936 3 
17937 1 
17971 1 
17972 2 
17973 1 
18106 1 
18107 2 
18108 1 
18109 1 
18110 3 
18111 1 
18169 1 
18170 2 
18171 1 
18343 1 
18344 3 
18345 1 
18355 1 
18356 3 
18357 1 
19066 1 
19067 3 
19068 1 
19123 1 
19124 3 
19125 1 
19237 1 
19238 3 
19239 1 
19294 1 
19295 3 
19296 1 
19375 1 
19376 3 
19377 1 
20026 1 
20027 3 
20028 1 
20077 1 
20078 3 
20079 1 
20209 1 
20210 3 
20211 1 
20320 1 
20321 3 
20322 1 
20338 1 
20339 3 
20340 1 
20395 1 
20396 3 
20397 1 
20431 1 
20432 3 
20433 1 
21094 1 
21095 3 
21096 1 
21238 1 
21239 3 
21240 1 
21343 1 
21344 3 
21345 1 
21349 1 
21350 3 
21351 1 
21391 1 
21392 2 
21393 1 
21478 1 
21479 3 
21480 1 
21592 1 
21593 2 
21594 1 
