ITEM: TIMESTEP
0
ITEM: NUMBER OF ATOMS
111
ITEM: BOX BOUNDS pp pp pp
0.0000000000000000e+00 5.0000000000000000e+01
0.0000000000000000e+00 5.0000000000000000e+01
0.0000000000000000e+00 5.0000000000000000e+01
ITEM: ATOMS id type 
5719 1 
5720 3 
5721 1 
5899 1 
5900 3 
5901 1 
5959 1 
5960 3 
5961 1 
7105 1 
7106 3 
7107 1 
7219 1 
7220 3 
7221 1 
9301 1 
9302 3 
9303 1 
9973 1 
9974 3 
9975 1 
20836 1 
20837 3 
20838 1 
20845 1 
20846 3 
20847 1 
211 1 
212 3 
213 1 
475 1 
476 3 
477 1 
10114 1 
10115 3 
10116 1 
13483 1 
13484 3 
13485 1 
17389 1 
17390 3 
17391 1 
19678 1 
19679 3 
19680 1 
2959 1 
2960 3 
2961 1 
5227 1 
5228 3 
5229 1 
5425 1 
5426 3 
5427 1 
8596 1 
8597 2 
8598 1 
8722 1 
8723 3 
8724 1 
9481 1 
9482 3 
9483 1 
13036 1 
13037 3 
13038 1 
13633 1 
13634 3 
13635 1 
14908 1 
14909 2 
14910 1 
16927 1 
16928 3 
16929 1 
20047 1 
20048 3 
20049 1 
21487 1 
21488 3 
21489 1 
2194 1 
2195 3 
2196 1 
4135 1 
4136 2 
4137 1 
6577 1 
6578 3 
6579 1 
9772 1 
9773 2 
9774 1 
10591 1 
10592 3 
10593 1 
16918 1 
16919 3 
16920 1 
17152 1 
17153 3 
17154 1 
17200 1 
17201 3 
17202 1 
17215 1 
17216 2 
17217 1 
20443 1 
20444 3 
20445 1 
