ITEM: TIMESTEP
25000000
ITEM: NUMBER OF ATOMS
1272
ITEM: BOX BOUNDS pp pp pp
0.0000000000000000e+00 5.0000000000000000e+01
0.0000000000000000e+00 5.0000000000000000e+01
0.0000000000000000e+00 5.0000000000000000e+01
ITEM: ATOMS id type vx vy vz 
14797 1 -3.90677 -3.67795 1.03146 
4072 1 -0.882934 -0.790063 1.76804 
4073 2 3.44761 -1.49876 0.689287 
3211 1 -2.6874 3.80215 1.2481 
10237 1 10.9093 -0.696916 -0.988072 
3212 2 -2.134 -0.916076 -2.58517 
3213 1 2.56153 -0.302494 -1.41216 
14799 1 2.64571 -0.685828 -0.552403 
14798 2 -7.68314 -0.982519 4.18588 
12824 3 1.73972 -3.03301 1.01001 
4074 1 1.41527 -6.92202 1.90827 
7374 1 -2.91469 0.438383 0.248031 
7373 2 -0.610499 2.31229 -1.26837 
7372 1 -6.98259 -0.247354 -6.22267 
12825 1 1.39014 -5.95429 -2.02153 
14013 1 -2.3023 -0.629746 1.37093 
6546 1 -0.499187 -1.36479 -1.12365 
21433 1 -3.61316 -2.66593 -2.5209 
21434 3 2.23696 2.00695 -1.72723 
10580 2 1.10428 -3.0854 -0.832383 
10581 1 -2.18889 7.80854 2.66622 
10579 1 3.84789 0.185783 -0.942901 
6700 1 1.80436 0.903347 3.53155 
2722 1 0.439402 -0.512027 -2.19416 
5235 1 5.35816 -3.05945 -1.96217 
10238 2 -0.0942196 2.27058 -0.553475 
5233 1 5.67039 4.04517 -3.0408 
10239 1 -1.99893 0.103802 -2.7886 
5234 3 -1.32819 1.16901 2.64923 
897 1 -3.43109 3.2754 -8.30799 
5935 1 -0.267924 -1.35639 -0.749486 
5936 3 0.584712 0.263139 -2.29104 
896 3 -1.2953 0.374992 -3.08511 
21385 1 -3.86006 2.12488 0.278609 
9538 1 -2.94544 -2.08932 6.65328 
9539 2 3.3538 2.42334 1.09404 
21387 1 1.70539 -5.96381 -2.78341 
21386 2 -0.340013 1.65844 -0.298115 
11489 3 -3.9532 1.50183 3.2997 
314 3 -0.203249 2.59241 1.96131 
313 1 -1.74746 1.93339 -0.519685 
315 1 1.88143 6.19217 2.75694 
8311 1 -5.56386 -6.11745 -0.572785 
8312 3 1.27992 -0.650621 -2.74999 
63 1 -1.30402 2.80306 -1.36435 
8313 1 -1.85339 -4.01453 -1.43324 
9540 1 -1.37181 1.56453 -0.237115 
15540 1 1.29199 -1.74396 -0.0617787 
15539 3 -0.540468 -4.16725 0.653957 
15538 1 3.02857 0.593948 -1.32561 
7241 3 -2.56501 3.71122 0.901545 
7240 1 -5.728 3.38386 1.86757 
3796 1 -0.0518509 -8.54869 -2.3659 
3797 3 4.36725 -1.52606 -2.81547 
11488 1 -1.21737 -4.65751 0.181432 
3798 1 3.97084 -0.0241321 1.10808 
11490 1 -0.993538 3.70756 0.790433 
10638 1 5.99433 0.537774 0.488372 
10637 3 -0.43107 -2.01316 1.96596 
10636 1 5.17823 -2.77298 -0.023704 
14011 1 2.39508 1.6861 -0.958822 
14012 2 -1.7893 0.365979 4.83426 
21112 1 2.31558 -0.677982 -1.62946 
21113 3 -4.93069 1.90652 -7.2306 
2269 1 2.55342 0.588302 0.869821 
2182 1 -1.77128 4.49633 2.58552 
6545 3 -1.86843 2.2143 0.139188 
6544 1 -2.83649 -4.1783 -7.1747 
12823 1 3.00986 -4.41151 -0.755654 
14874 1 -3.946 -0.595571 -6.61173 
14873 3 -0.544221 4.16803 0.08675 
14872 1 3.65455 1.02815 0.829915 
11574 1 -1.31222 2.63133 3.64891 
21114 1 -0.0434044 -5.29882 -1.1619 
2270 3 -1.1653 2.02077 -1.7996 
2271 1 1.1441 6.41595 4.32091 
11573 3 3.95012 -0.0701063 1.10724 
11572 1 -0.623181 0.621914 -2.61042 
6614 3 0.833021 1.27539 1.88404 
7242 1 -2.46652 -7.56233 1.96279 
3258 1 -1.24549 -0.213254 -4.93289 
1747 1 3.4086 -2.4121 -2.13249 
6615 1 3.95131 -1.61193 1.46195 
18079 1 -2.77792 0.546354 -3.73093 
18080 3 3.31667 -2.57283 -3.82774 
16573 1 1.02676 1.84824 3.086 
16574 3 2.09301 -0.534116 -0.795701 
13533 1 -4.10512 5.2914 -1.60977 
17286 1 2.72088 -0.462029 3.44034 
6702 1 1.327 -0.78424 3.31901 
17285 3 5.02024 -1.55061 2.50252 
13532 3 0.331704 1.71899 -5.98471 
17284 1 -3.41522 2.66527 1.77683 
13531 1 -4.43589 0.432819 -0.857495 
21435 1 -3.63669 -2.2183 -9.26535 
18262 1 2.14501 -0.308885 -5.80747 
6701 3 -1.53642 4.28577 -1.14547 
542 3 -1.98913 3.36944 3.48203 
1748 3 1.96831 -2.86186 -1.81953 
18263 3 0.720385 0.267712 3.96812 
18264 1 1.58841 4.06158 5.65357 
19313 3 0.756727 0.847992 0.390977 
19314 1 -2.19378 -3.13366 1.53559 
19312 1 -3.0459 2.86283 -2.60377 
1643 3 2.47975 1.08222 1.84951 
1644 1 -4.10708 -6.10597 0.0307375 
4754 2 3.60747 5.76178 -2.27279 
4753 1 -2.88788 0.0416668 6.91933 
1642 1 4.71371 -2.02639 -3.20953 
16510 1 -4.96174 -4.35056 -0.619121 
4755 1 -4.05278 -0.804937 -0.981621 
2723 3 -1.7473 1.84345 -0.13939 
19517 3 0.327948 -0.323013 0.625901 
19516 1 -3.10397 -3.08018 2.25862 
6071 3 -5.46996 -1.28107 -2.6403 
2724 1 -5.53454 -4.71452 -2.98716 
6072 1 -1.72982 -2.40152 3.58748 
6070 1 7.80537 1.85528 -0.692491 
11986 1 3.61734 -0.702113 2.69161 
11987 3 -1.48812 2.02208 1.55854 
11988 1 3.55709 2.96642 -1.49971 
165 1 -8.02205 5.43518 -1.00919 
164 3 0.725616 -1.84146 0.906427 
163 1 -5.12582 1.65275 5.40059 
3876 1 1.96211 5.07252 1.32794 
3875 3 -1.06447 2.75801 1.99677 
541 1 1.05843 2.75552 -2.44014 
2596 1 8.01218 3.21232 -2.19916 
2597 3 0.321903 3.26809 5.47718 
3874 1 6.50125 0.732646 1.29828 
2598 1 4.85366 -2.18257 -2.14948 
21246 1 2.43857 -1.04901 4.3092 
21245 3 4.06433 1.87013 -4.56838 
10855 1 0.719396 0.764679 -8.10379 
10856 3 -2.76755 2.6782 -1.5365 
10857 1 3.80997 -0.248231 -1.55671 
18517 1 -2.19918 5.663 -1.53334 
18518 3 0.18238 3.0511 0.592074 
18519 1 -1.29643 -3.24412 4.58049 
5937 1 -2.84524 -2.50102 0.804498 
15075 1 1.58432 -1.84409 0.643839 
11713 1 -3.80555 -0.690509 1.02559 
21302 3 2.69276 2.50908 -1.3098 
3254 3 -0.919288 -1.09313 1.89001 
3253 1 -0.239852 -2.86074 4.34831 
21301 1 -1.4426 -5.1147 -2.69911 
895 1 1.9269 -0.353858 7.64165 
9076 1 0.0793879 -6.20295 -4.34164 
17254 1 0.278433 -1.77575 -0.935433 
17255 3 2.02485 -1.49192 0.794109 
17256 1 2.15547 2.19458 1.42419 
9077 2 -1.77217 -3.13148 3.77546 
18740 3 -5.16624 1.32917 0.581275 
18739 1 0.0621244 -8.78106 0.309039 
18741 1 3.37147 8.6706 -0.379439 
3813 1 1.07444 2.60015 -2.23804 
3812 3 0.336356 -0.365111 0.980142 
3811 1 2.28764 -0.00622942 -4.49727 
4444 1 -1.48999 0.573353 2.51104 
13365 1 4.42218 -0.337351 -0.166796 
13364 3 -1.44884 -4.06218 4.02839 
12644 3 2.34674 -1.20557 1.11315 
12645 1 -0.279474 -3.71166 0.606655 
13363 1 5.03703 2.03374 -4.03121 
11850 1 -4.86706 2.69287 3.33435 
11849 3 -0.580665 -2.67187 -2.10507 
15074 3 0.249201 2.77457 0.58593 
15073 1 -1.0346 -0.524701 3.65905 
11714 3 -3.13297 -2.41656 1.466 
17690 3 1.52198 -0.896655 1.37839 
17691 1 -2.91851 -0.428453 0.652839 
11715 1 2.23757 3.51794 2.79353 
12498 1 -5.10196 -2.93753 -4.92122 
62 3 -2.56066 0.233346 -2.26021 
61 1 -10.1579 -0.41525 2.52787 
12497 3 -2.61412 -0.90948 4.86478 
12496 1 -3.46346 -4.19646 0.396403 
9534 1 2.14128 7.53612 -5.42205 
17689 1 4.55161 0.967848 1.82918 
19341 1 -4.42979 -0.362461 3.51423 
19340 3 -1.06283 1.41831 -0.991442 
6613 1 7.93759 0.126148 3.6275 
4571 3 2.28656 3.1487 -2.12973 
19339 1 6.05893 -0.750283 -3.37192 
4572 1 0.359837 -0.695374 0.24901 
4570 1 3.94248 -2.53658 0.891719 
14878 1 0.0951833 0.878788 -2.79752 
14879 3 -1.25055 -1.70088 1.49703 
14880 1 2.17611 5.70744 1.88296 
17758 1 2.60378 0.554373 -2.24916 
7617 1 -0.779202 -2.46834 4.89247 
7616 3 -2.33146 4.56591 -3.52573 
7627 1 1.99396 -7.71829 -3.77092 
7628 3 -5.15702 0.317709 2.71239 
16575 1 -0.224552 5.06642 -5.03159 
5449 1 3.67542 1.65722 -2.97746 
14944 1 5.84289 -2.97358 1.84888 
5450 3 2.97107 -4.17158 4.78141 
5451 1 6.95205 -7.08173 -0.853212 
14945 3 -3.33044 -1.14315 -0.553465 
7615 1 -0.00269294 5.63174 2.84756 
2183 3 0.289229 1.14377 1.91053 
2184 1 -1.86418 3.13567 -0.759148 
5351 3 -1.03477 0.33881 3.38321 
15814 1 -3.2143 -2.2811 2.04303 
5352 1 3.97477 1.90816 5.22152 
11848 1 -4.30483 0.276201 -1.17543 
5350 1 5.88533 -0.979945 -1.80022 
9513 1 -0.202924 1.33443 -2.81073 
9533 3 1.2852 3.9985 -0.333912 
9532 1 0.715788 1.06216 -2.35995 
12092 3 4.3513 0.330019 -2.61461 
12093 1 1.3985 -0.373939 -4.87816 
11732 3 1.32838 -4.1995 -0.372673 
1749 1 0.718451 0.595726 3.88418 
11731 1 -0.392761 -2.94844 -0.534542 
3257 3 5.98096 -3.34328 3.71649 
3256 1 2.51556 -2.35613 -1.49144 
13474 1 1.59313 -2.92443 -5.91493 
13475 3 0.30122 1.77359 0.983312 
11733 1 0.173045 0.309356 -3.77393 
13476 1 -0.929434 -0.357962 -1.80846 
15436 1 1.50212 -1.18798 -2.36061 
15437 3 0.977058 -5.19083 -2.4503 
5037 1 4.13459 3.82815 2.74901 
17760 1 6.65499 -3.65662 3.58845 
17759 3 3.7728 -3.17935 -0.349484 
18081 1 -0.801645 -0.418483 2.44848 
4978 1 -2.73596 3.40756 3.19646 
4979 3 -2.0708 -3.87669 -1.80031 
16108 1 -6.58526 -1.89197 3.27076 
16109 3 2.4949 -3.61881 0.039672 
19777 1 0.928326 -1.08658 6.03449 
19778 3 4.19659 1.75378 -2.07461 
10069 1 5.07531 4.00564 0.922893 
10071 1 1.32904 -0.966189 2.76907 
10070 3 -1.35042 -2.31952 -1.46842 
7629 1 4.5961 -3.57042 -2.42949 
16512 1 0.0500194 -1.76144 -4.53989 
19707 1 -0.466869 0.590211 -0.154494 
19706 3 -1.07147 1.82047 -2.14733 
19705 1 3.98905 -5.22308 0.211184 
18408 1 -2.70331 -2.14273 2.28564 
18407 3 -0.722603 3.72562 2.21451 
9462 1 4.3074 -2.24501 4.21941 
9461 3 -0.407321 3.56977 -2.94166 
18406 1 5.06456 0.104209 0.590036 
10729 1 -6.0313 0.22202 -8.50926 
10730 3 -1.53437 -0.723792 0.371515 
10731 1 1.98559 -3.63851 0.697168 
14524 1 1.26466 -0.724499 3.14048 
14526 1 5.18715 3.34619 -1.17843 
14525 3 -4.16385 2.29204 3.9853 
12091 1 1.79964 3.44662 -2.78901 
11149 1 -3.75314 0.828225 9.08343 
11151 1 2.49197 1.11309 -3.00943 
11150 3 -1.44808 2.99758 -4.30276 
543 1 -2.02738 7.84491 -6.28262 
13624 1 -2.99066 -0.930862 1.74335 
5557 1 -5.05176 4.55015 2.41502 
13625 3 0.219702 -2.06909 -0.274439 
6764 3 -0.693781 -3.44822 3.18454 
6763 1 3.85807 -6.10729 0.509945 
10039 1 1.02054 -2.30936 -0.981124 
6765 1 1.82648 -5.87301 -2.24763 
13626 1 -1.53013 -1.6364 -2.29242 
3095 3 -1.45754 1.29193 0.861567 
7598 3 3.4482 0.532387 1.00391 
10779 1 0.0882801 1.52453 0.656935 
4980 1 -4.57507 -5.1614 3.91377 
3054 1 0.0321321 6.80487 -4.73582 
3052 1 0.72819 3.29711 3.55121 
3053 3 1.22933 -0.13024 -0.739251 
7599 1 3.13438 -1.70204 1.23597 
21229 1 -1.52661 -0.00995346 0.189421 
7597 1 -0.863372 2.49968 -3.37182 
8369 3 3.13016 2.38093 2.3895 
8370 1 -0.0926721 -0.933562 -3.43266 
21230 3 -1.60279 -0.213794 -1.6106 
21231 1 0.632809 -0.562577 -4.27711 
5160 1 0.675014 -0.785265 2.05663 
15789 1 -0.655039 -1.58037 -4.78935 
15788 2 -0.705422 -1.50106 0.18958 
15787 1 -5.7456 0.234695 5.21759 
1135 1 1.09234 -1.03347 3.50873 
1136 3 2.41523 0.219601 -2.03413 
16511 3 -0.0215628 -3.90406 2.46057 
16054 1 -1.56275 5.33533 -5.46154 
16056 1 2.26559 3.45818 -1.58928 
9460 1 -0.390873 -2.36786 -1.30788 
16055 3 2.63921 -0.929583 -2.31313 
4710 1 -6.44232 -2.7055 -0.0171039 
16665 1 -0.21914 -2.9558 -2.12662 
16664 3 -1.95667 0.318785 -2.96767 
4708 1 -0.973318 -0.272319 -1.12608 
4709 3 -1.82256 -0.564188 -2.02954 
16663 1 -2.18348 3.69029 -3.74841 
21293 3 -2.13854 2.49126 5.2369 
19518 1 -3.43038 0.826799 5.12507 
21292 1 4.35276 -4.6393 3.78161 
1985 3 -3.12016 -1.70089 -2.06505 
1984 1 5.45449 2.42052 5.89203 
21294 1 0.492472 4.19644 -2.40864 
21061 1 -1.86117 -2.10557 -2.54779 
21062 3 -2.95213 -0.589278 0.347698 
14415 1 -6.10319 3.37452 7.16984 
5558 3 0.0839966 1.05357 5.88337 
5559 1 0.0979181 2.3764 -1.61413 
14413 1 5.87416 5.65705 5.78014 
5074 1 0.856411 1.86149 -0.57933 
5075 3 0.80303 1.39868 3.07299 
14414 3 2.9136 4.16823 -0.268727 
1986 1 0.97966 -1.58101 5.21461 
3094 1 1.47545 -0.372628 -5.63896 
17298 1 0.0848572 -1.17896 -0.594547 
5076 1 3.4941 -3.28387 1.64148 
6027 1 7.90039 -0.222278 4.55438 
6026 3 0.00334958 -2.14299 -0.153226 
6025 1 -2.28364 -2.74523 -3.96259 
10653 1 -1.52774 1.3217 -2.62135 
10652 3 2.24682 3.07576 1.59208 
10651 1 -1.36919 -2.47278 -5.65628 
19383 1 -0.547393 -5.45908 6.06215 
19382 3 -2.81494 -3.93001 1.86864 
21257 3 0.11987 -0.128297 0.566869 
21258 1 3.32738 -1.97031 3.62226 
19381 1 2.37478 1.99854 -0.801612 
12520 1 2.92551 -2.13581 3.8624 
12521 3 -0.962334 0.822196 1.83221 
12522 1 2.62083 -2.90518 3.92095 
5158 1 -3.72245 1.81401 -3.96827 
5159 3 1.38805 1.06954 3.23764 
21244 1 -2.90453 -0.432583 -2.18367 
14715 1 2.62785 -3.56153 1.03142 
14714 3 3.21636 1.72111 -2.82613 
14713 1 3.92454 5.72827 -1.02386 
17297 3 -2.9519 1.02863 1.02475 
17296 1 1.03814 1.22537 -1.72496 
20970 1 0.752546 1.63313 0.136637 
12638 2 2.09805 3.32549 -1.21594 
21256 1 -1.84143 -1.18629 2.5305 
9705 1 2.90021 0.748197 -3.74227 
18634 1 -4.55574 -1.72015 -1.34222 
18636 1 1.47338 -4.09953 -1.2678 
18635 3 0.158918 -1.91764 1.5589 
357 1 0.562675 3.8433 3.54248 
10483 1 -1.96793 -2.44035 2.79612 
12637 1 5.17957 -0.337879 -0.206201 
10485 1 6.73678 -3.176 -1.30288 
355 1 1.75471 1.85293 -1.00456 
356 2 -0.0754021 -0.666418 0.215762 
10484 3 -3.2968 -1.36438 4.35417 
4685 3 2.30383 0.15941 -1.02976 
3255 1 0.320765 3.02998 1.06729 
4686 1 -0.0444371 5.67361 7.26508 
15330 1 -2.0049 -1.19852 3.00154 
18699 1 0.400952 -2.58984 3.63507 
9584 3 4.35821 -0.69021 0.387848 
15329 3 1.6509 0.229798 -1.13983 
4684 1 -4.2866 2.40764 -1.23337 
15328 1 -6.56981 1.89812 3.23168 
9206 3 -0.328604 3.76635 1.9597 
9207 1 -1.01884 5.21483 -4.78675 
9583 1 -1.77505 3.71051 2.28913 
21303 1 -6.53635 -0.839011 -4.31521 
14286 1 -6.46653 -1.56642 1.36188 
7509 1 4.38144 1.17767 -6.73536 
9585 1 1.10641 1.02742 2.30076 
7507 1 -2.59037 2.628 4.27382 
7508 3 3.87818 0.340946 4.70616 
14640 1 4.25471 -1.40074 -3.10211 
19906 1 -0.495585 -5.48944 1.91703 
13928 3 -2.74097 -3.65937 1.39154 
6088 1 -1.57782 2.83349 -0.371596 
13929 1 10.5711 -1.68151 3.83466 
18143 3 -2.274 -2.32626 0.585796 
18144 1 -2.17183 -2.28182 0.691428 
15562 1 -3.19034 4.58357 6.74269 
19907 3 2.9418 3.52763 0.346916 
6090 1 0.156663 1.23209 -0.781798 
6089 3 2.20482 0.883398 0.68699 
14639 3 1.47508 -3.59945 -2.55435 
9471 1 0.862241 3.32674 -7.00664 
13927 1 4.41601 -0.0273776 4.24372 
741 1 0.37681 -5.65763 -3.71783 
5767 1 1.4022 0.79971 2.68799 
740 3 -3.48901 -3.65116 7.54126 
13334 3 3.85668 -1.06229 -0.582128 
4445 3 1.32631 -2.81738 0.139107 
4446 1 -2.17102 -0.584643 -7.22396 
12643 1 4.14338 -5.58578 0.739136 
9205 1 -0.138265 4.00706 -4.2991 
16136 3 4.2014 -3.77023 -3.56103 
16135 1 -4.66302 -1.02568 0.634952 
2247 1 2.1456 3.54267 1.21818 
2246 3 1.24971 -0.374374 -0.611236 
16137 1 -1.04221 0.0218547 -1.92904 
10506 1 -1.3019 -2.42682 -3.82598 
10505 3 3.53368 0.41188 1.28674 
10504 1 3.6375 -0.319511 2.84493 
4793 3 4.25613 -3.04149 3.5756 
4792 1 1.47527 -3.80913 -2.32002 
4794 1 1.48357 2.01704 -0.423532 
2245 1 2.29391 1.71035 -1.61854 
2016 1 7.17429 7.66822 1.15008 
2015 3 -0.392312 -2.17798 5.51282 
2014 1 0.774809 -8.06189 -1.35106 
2404 1 2.10689 1.03704 5.41944 
15564 1 -0.225036 0.664931 2.86737 
20492 3 1.08407 3.08657 -0.9294 
15563 3 -0.513024 -1.90067 0.753322 
2406 1 1.34695 0.911995 1.19989 
20491 1 -7.59598 -3.75886 3.47166 
2405 3 1.09351 -3.82473 1.58803 
20493 1 2.62822 6.7002 4.43207 
13335 1 -2.84297 -0.34312 -3.76998 
2956 1 0.0312789 4.10062 -0.011348 
11616 1 1.06525 1.91683 5.71226 
15174 1 3.29079 -4.69352 -7.36152 
11614 1 -3.76504 -3.76753 -0.056092 
11615 3 0.703102 -1.22196 -0.259903 
590 3 -2.26566 -3.26221 -1.30784 
589 1 0.510811 -1.2982 0.551368 
13333 1 -6.67673 -4.22751 -2.52355 
2958 1 -2.33457 0.858814 1.97794 
16130 3 -3.08231 -0.809321 -1.7542 
16129 1 -2.86197 -2.24674 -0.295861 
2957 3 -2.03976 -0.0885357 -1.12729 
16131 1 -0.326027 -4.02668 -1.22807 
18507 1 -3.10419 3.18223 -1.15734 
18506 3 1.10593 0.391386 -5.90048 
18505 1 0.246029 -1.49668 3.14529 
3546 1 -1.70359 4.79982 -2.2637 
3545 3 1.03374 -3.88971 2.85745 
3544 1 0.684435 6.94471 0.653937 
18112 1 1.27526 1.98687 -6.23122 
20414 3 0.439198 -3.8588 -0.71305 
14946 1 -2.07601 -0.958614 -1.39574 
15815 3 -1.02174 -1.65878 4.79306 
20415 1 3.26893 1.97186 7.65653 
20413 1 -0.131661 1.57621 -0.166235 
298 1 1.34528 0.196692 4.29376 
9511 1 4.88187 -7.70566 3.05432 
9512 3 -2.79771 -0.893374 2.07834 
299 3 -1.05459 1.06394 0.0462045 
15291 1 5.45951 5.21473 0.364595 
6435 1 2.79421 2.78001 2.13323 
6434 3 -1.38579 3.10905 3.47258 
18748 1 2.63437 8.0355 -1.96848 
18750 1 3.93973 -3.73026 -0.945845 
18749 3 -0.438038 1.38497 -0.527117 
5825 3 -1.08328 -0.897762 -0.429415 
5826 1 -3.61028 -1.3102 -1.70716 
5824 1 -4.39393 1.05355 6.29775 
15438 1 0.719625 -1.57512 2.53897 
14248 1 -3.77722 1.47548 6.13478 
14249 3 -0.673678 -1.05609 2.27517 
5036 3 -4.4061 -2.62561 -4.9222 
5035 1 0.669986 3.17166 -1.6748 
15172 1 -1.7039 -1.14127 2.26121 
15173 3 -3.30558 -2.18504 -1.81405 
17061 1 -6.03628 4.74044 -0.701345 
10860 1 1.15816 -7.34626 4.88237 
10041 1 6.15108 6.90888 9.50175 
17059 1 1.07026 -1.61887 7.39644 
17060 3 2.04457 2.81017 0.844807 
14250 1 2.21578 -0.145636 -0.152143 
6433 1 1.07278 -7.0952 1.3871 
12589 1 -3.51962 2.31193 1.60546 
11893 1 -2.11718 3.43502 1.19202 
17988 1 2.63053 -3.0167 2.5637 
12334 1 -7.30097 1.781 3.27087 
17309 3 1.57415 -1.15785 1.88709 
17310 1 1.37286 -0.0848029 -3.14526 
17987 3 4.61068 2.38662 4.47901 
1615 1 2.16005 1.30984 -7.1381 
17308 1 2.03144 0.401063 2.22395 
11894 3 0.647715 -2.17589 2.57708 
19779 1 -0.195579 1.53904 -0.711009 
11895 1 -4.11006 7.19386 -0.558885 
12335 3 -0.367872 -1.71812 0.120129 
17986 1 -1.34771 1.91191 -1.5775 
591 1 3.38693 -2.69712 -1.15368 
16110 1 -5.51625 0.817869 0.920207 
11655 1 3.81709 -2.31015 3.70018 
11654 3 -0.382549 -0.708164 2.0586 
11653 1 -1.16576 1.01366 3.02234 
10368 1 3.00224 -0.416263 -3.05207 
10367 3 -3.30434 -1.45906 4.65205 
11980 1 -5.43561 -5.87638 3.56929 
10468 1 3.32166 8.75271 4.31989 
11981 3 -2.86693 -1.41485 -0.998143 
18114 1 -6.18872 -0.56765 5.0901 
11982 1 -4.01666 0.474995 -3.43707 
18113 3 -2.54754 0.595311 1.49626 
16317 1 1.63634 -1.60464 0.772377 
12617 3 0.404172 -0.414353 0.612056 
1137 1 3.45423 2.81455 -1.93969 
12616 1 0.0910667 -6.52742 -0.190525 
4746 1 -1.84762 -8.72821 -5.42593 
4745 3 -1.74771 0.184148 -0.29239 
15816 1 -6.33608 1.91044 -0.0098521 
12618 1 -3.1949 -1.29659 0.769937 
11630 3 -2.7405 1.10698 -1.75941 
11629 1 -4.46284 2.8331 -4.28182 
300 1 -1.46368 6.33712 3.57592 
4744 1 -0.256598 -3.32563 3.27031 
15480 1 -3.33116 -5.12875 -5.07169 
20944 1 -1.33047 -1.0262 4.11106 
15479 3 -1.58596 -2.16177 5.21724 
20945 3 -1.15327 -3.66362 -2.48429 
15478 1 -1.30703 4.33791 0.451499 
17636 3 4.82141 6.61 2.69754 
17637 1 1.28552 -0.36058 4.45487 
20946 1 4.51482 5.68593 -1.29328 
19809 1 -3.22448 -1.342 -9.34591 
10040 3 -3.69519 -0.811964 0.567259 
10778 3 -2.95946 2.22024 -1.42116 
10682 3 2.62573 1.33525 2.23861 
10681 1 -3.34989 -3.21262 0.481549 
10777 1 -5.09133 1.11747 -2.06671 
7313 3 0.225874 0.75819 0.672327 
10683 1 -3.93182 -2.73987 10.1233 
1616 3 -1.10897 -2.16496 -4.23873 
1617 1 -2.90974 6.85208 -7.25731 
7312 1 3.32856 -1.03096 -0.950942 
1534 1 -6.72828 0.690698 1.97778 
12336 1 -6.60368 6.48425 -0.534109 
5484 1 -3.56552 -4.55048 3.0683 
1535 3 1.61194 4.35736 -2.95857 
1536 1 -2.57511 -2.09931 -0.0721737 
5483 3 0.462097 2.0142 -1.35715 
5482 1 0.668979 4.77567 -3.06702 
8368 1 -0.777819 4.05364 -0.0407241 
10469 3 2.27937 3.36416 3.48013 
10470 1 3.71201 -1.2541 0.623632 
10263 1 -0.739823 -1.30464 0.768611 
10262 3 2.01855 0.280892 1.48771 
10261 1 3.30612 -3.06435 2.13241 
2742 1 -2.97758 1.15075 -2.46347 
16612 1 3.86638 -5.21397 2.63335 
2741 3 -2.62437 -0.307732 2.60248 
11631 1 0.691198 -4.46607 1.84842 
16497 1 -1.29429 -0.86147 0.139111 
16496 3 -0.520389 -0.140941 2.67872 
16495 1 -5.78056 0.819904 4.36612 
15620 3 -0.0867571 0.108093 3.74804 
21063 1 4.09639 3.0237 -1.58458 
8949 1 -1.16817 3.71485 8.74558 
11334 1 0.418869 2.99921 -3.0407 
11333 3 -1.75351 0.665954 -2.19014 
11332 1 -4.05271 -0.641307 -1.19131 
15619 1 -7.16827 1.40352 -0.26189 
19808 3 -1.89649 -2.89438 -1.12664 
19807 1 -1.50418 1.35107 4.53173 
18451 1 0.576999 0.85527 -0.138522 
18452 3 2.74557 -0.235639 -0.0178358 
3096 1 5.6579 -4.52367 0.189686 
8995 1 4.5151 -1.91382 1.74075 
8996 3 -2.25131 -1.21026 -0.540763 
8997 1 -3.97525 1.21509 -0.143864 
3714 1 -0.842705 -1.30971 4.14513 
18453 1 3.58978 -4.02943 -4.28983 
17093 3 -1.19176 -6.23696 3.31361 
20969 3 1.87566 6.40657 3.63469 
20968 1 -0.341861 2.89611 0.200521 
3713 3 2.77461 -1.1866 5.74699 
3712 1 -1.52877 7.37606 -5.60552 
7856 3 -1.51685 2.57482 -0.52868 
7857 1 -1.31477 3.34685 0.303523 
880 1 3.87324 1.98727 7.9539 
881 3 2.07103 -0.714251 -1.88058 
6721 1 -4.49456 0.0308086 6.89811 
2740 1 3.8453 2.96033 -1.7443 
882 1 3.2015 0.266716 -5.09345 
1395 1 1.02687 -1.09291 -6.23436 
1983 1 1.65098 1.57572 -0.952167 
6723 1 -1.37511 0.435389 1.94319 
1982 3 -1.26853 0.0419408 4.82759 
1981 1 0.115427 -2.2761 -4.34846 
6722 3 3.11875 2.62611 2.66558 
5647 1 1.68373 -0.848029 3.69442 
5648 3 -3.48568 -0.955336 -1.4154 
5649 1 -7.39306 -3.67793 -3.64796 
8948 3 -2.26097 -2.11166 2.48591 
8947 1 -2.68124 0.730959 -4.80471 
3919 1 -5.01685 5.10487 0.466829 
12639 1 -5.2019 1.7142 0.776452 
16088 3 -1.41104 -0.545833 -5.5262 
17092 1 2.68356 3.9977 -0.179698 
3920 3 -0.106471 -4.08998 1.17036 
3921 1 -3.8192 0.402426 -2.69342 
16087 1 -5.20881 0.744889 0.955717 
15759 1 2.33153 2.40853 -0.100958 
17094 1 -2.97405 -5.29561 2.4746 
15758 3 2.53506 1.72999 -3.38517 
9704 3 2.30669 -1.35232 2.91752 
9703 1 3.03872 -4.3698 -0.340923 
2706 1 3.40113 -9.87944 -1.13045 
11554 1 -5.51382 -5.20895 -8.08002 
2705 3 -0.262607 -0.43222 -0.661819 
2704 1 -1.65429 -1.53738 -0.376953 
1394 3 -0.637203 1.54139 -0.0552904 
1393 1 3.95349 -1.37702 -0.474535 
11556 1 4.11987 -2.9892 -2.10916 
11555 3 5.3748 2.66781 1.60891 
18698 3 -1.40399 0.255697 -3.57796 
6096 1 -1.74405 0.730168 3.45792 
60 1 -0.645001 1.92232 -2.40752 
6095 3 1.72445 -1.01934 1.55722 
6094 1 -2.71623 -2.04654 -4.79403 
4272 1 -1.90071 1.9481 0.927268 
10439 3 0.946863 -1.241 1.47301 
10438 1 3.18839 4.25712 -2.35055 
4489 1 2.42787 -3.20506 2.14134 
8798 3 0.281908 4.07792 -3.19516 
13498 1 -2.13439 -0.235114 1.81939 
19908 1 -1.11154 -4.35244 -4.06033 
13499 3 4.12266 2.33189 0.107721 
10440 1 1.99441 4.32217 4.85362 
4490 3 0.101964 1.25437 -0.403634 
8831 3 0.442882 -4.60238 3.86937 
18142 1 -2.01894 1.54351 1.23061 
21336 1 2.26495 5.50154 -2.34283 
21335 3 5.26199 1.33658 2.17787 
21334 1 -2.46216 1.60028 -8.10311 
8832 1 -3.06123 0.389767 -4.2077 
5768 3 2.65988 5.63275 -1.22011 
5769 1 6.71065 -2.22277 -4.466 
11679 1 8.91174 -1.17917 -0.0828865 
20901 1 -0.916026 0.956644 1.39523 
2857 1 -1.31985 -0.99634 -4.85571 
2858 3 -0.349015 3.33309 2.12006 
2859 1 0.668094 3.40703 -3.46865 
15424 1 -1.07858 -0.512716 -5.83787 
20900 3 2.03458 -0.474094 1.44817 
20899 1 3.20488 -4.49755 5.24376 
19407 1 -1.05258 -6.20856 1.66198 
19406 3 -1.82475 0.47635 -1.33763 
19405 1 -3.11743 -3.71055 4.93905 
7927 1 -1.17775 -0.722057 2.88303 
7928 3 -5.9546 -0.838577 2.11471 
5713 1 4.43872 3.98298 -3.79122 
18697 1 -0.162208 4.82935 -2.57371 
3444 1 -0.125139 1.95469 -6.3021 
3443 3 1.53218 -1.68461 -0.00707356 
3442 1 -0.210485 -0.87211 -2.89282 
19354 1 2.18459 -4.71836 -0.783407 
19355 3 -1.15481 -3.29036 -1.94981 
7929 1 0.851435 -3.00317 4.14251 
12013 1 2.26899 3.06369 1.56829 
15289 1 -1.75807 4.96719 2.06106 
15290 3 -0.538049 2.39229 -0.0611002 
8799 1 -0.532474 -1.29357 4.07589 
8797 1 -4.2386 -2.20785 -2.53373 
2832 1 0.947984 0.283195 2.59309 
19356 1 2.04954 -3.91478 2.26066 
2831 3 1.39025 -4.3181 -1.25703 
2830 1 5.3739 -6.4652 5.21566 
2202 1 1.26405 4.41624 -2.13172 
8091 1 4.53486 -3.84893 -5.21412 
13500 1 6.17275 -3.60828 -0.457619 
2200 1 -1.89244 3.91733 0.311878 
2201 3 -4.67204 3.15604 2.4289 
14622 1 0.267448 1.04938 -1.26025 
9444 1 -2.6934 1.31616 0.0810035 
11677 1 1.70385 -3.12342 4.43051 
11237 3 -1.43182 0.317259 -0.397759 
11238 1 -0.116749 -2.00457 3.06618 
11236 1 -4.83326 -0.236051 0.418282 
16585 1 0.46021 0.0108246 -3.14208 
19134 1 8.10857 -0.363081 -0.262827 
19133 3 -0.14651 -1.23317 -3.15951 
12590 3 -1.91014 0.225146 -3.0283 
12591 1 7.39556 -3.64786 4.68739 
16586 3 -0.0304573 0.703001 -1.1942 
3750 1 -0.467253 -1.61933 -3.55095 
11678 3 0.617034 2.24767 -5.77341 
3749 3 -3.33901 3.30206 -0.166332 
20230 1 -3.55074 8.00111 -1.45591 
3748 1 -0.728709 -8.49186 -1.09718 
20231 3 -1.26145 2.33148 1.74659 
1696 1 -5.06548 -4.77109 -3.57245 
20232 1 -4.37709 -1.64867 0.395291 
19132 1 1.14687 3.14575 -2.9383 
11643 1 4.33802 1.03437 5.0209 
11642 3 -0.323309 0.186457 -0.0979784 
20009 3 -1.09512 1.88523 1.92925 
2593 1 -0.917128 1.86251 6.3401 
2594 3 -3.38722 -0.0600525 0.772189 
12014 3 4.8775 -1.55846 -1.83354 
12015 1 2.61978 -0.425475 -0.698245 
18736 1 1.07667 0.919981 1.6878 
2595 1 -3.40429 2.36094 -0.73525 
8937 1 2.39372 -7.27968 1.60946 
5714 3 -1.04838 1.59094 -2.11375 
10859 3 -1.6698 1.38357 0.724398 
8090 3 -1.448 -1.83981 2.62366 
8089 1 -0.375778 6.68741 5.16199 
10858 1 -0.579754 -1.10791 -4.68799 
15197 3 -1.40238 0.204646 -1.8039 
15196 1 -0.393274 -5.20055 0.56864 
10386 1 5.40915 0.667267 2.20864 
5137 1 -1.00465 -4.33497 -1.56227 
10385 3 -0.490815 -1.50918 3.51029 
10384 1 4.66566 5.99143 0.39996 
14471 3 -0.457436 0.242195 1.2231 
14472 1 -2.21796 -0.0197311 -2.09818 
12344 3 -4.1254 -0.644955 -0.0716163 
11641 1 -2.96962 0.476623 7.52049 
21227 3 1.42308 -1.36021 -1.88584 
21226 1 -2.68923 -3.16327 -3.34347 
21228 1 -1.27885 5.92882 3.72127 
12345 1 -0.602055 7.40473 -5.1008 
16393 1 -3.53513 2.61811 4.96349 
16394 3 -5.51904 -1.23753 -1.94638 
7950 1 -3.73847 7.62104 5.14679 
7949 3 3.10264 -3.21792 1.51245 
10366 1 0.243694 1.89912 0.725804 
21525 1 -3.3248 0.977152 2.03131 
20010 1 1.07809 0.122568 0.710455 
16395 1 3.20572 -2.7918 -4.92485 
20008 1 -1.45592 4.85943 -4.72447 
15850 1 -2.10514 4.68539 1.76423 
3287 3 -0.6101 -1.6453 -2.36718 
15851 3 -1.6478 3.38956 -0.268182 
3286 1 4.51831 2.68942 5.35904 
15852 1 2.43466 -0.589786 -4.30732 
21524 3 6.1373 0.0421555 4.05192 
4209 1 3.80284 -6.56469 1.77674 
4208 3 0.386782 3.21528 -0.204112 
16315 1 1.73366 1.99819 0.047749 
16316 3 1.00059 -3.07926 2.20163 
16853 3 2.49374 -0.637278 1.82286 
16854 1 -8.78148 -2.24866 1.32529 
8936 3 -2.51331 0.72078 0.514596 
17635 1 1.55831 3.15478 -6.54686 
15621 1 -4.09641 0.789537 2.50346 
9727 1 -6.00699 -0.517798 -3.19053 
17703 1 -0.496177 -1.90431 1.33316 
3866 3 1.67934 2.82411 -1.45853 
9728 3 2.30494 -2.25152 1.39227 
17702 3 3.54152 -5.2111 0.395802 
17701 1 10.0156 -0.0656613 1.26859 
3867 1 3.92362 3.28522 0.601154 
11877 1 5.0798 -2.24127 -3.99391 
11876 3 -2.11907 2.30542 -3.26518 
8935 1 -3.59531 -0.00135162 3.23425 
9729 1 0.395618 -0.326462 -3.45755 
17497 1 -1.76007 0.262255 0.0245017 
7314 1 1.03043 -1.62681 -4.423 
5139 1 -1.00771 -1.22153 -4.86453 
5138 3 0.113215 0.344483 -0.210515 
17498 3 -3.64308 2.30904 3.05706 
17499 1 -1.69967 -0.222637 -0.52224 
7383 1 4.8354 -0.667218 2.48733 
7382 3 2.05718 2.57106 -0.249148 
7381 1 -1.9504 4.87865 1.4534 
11037 1 0.326139 -2.44719 2.31584 
7948 1 3.7918 1.16525 -1.70981 
21597 1 -1.9014 1.21216 1.03858 
21595 1 -0.211432 0.810098 4.95734 
21596 3 2.57347 -2.05269 -0.0154791 
7870 1 -0.648822 -2.79038 -5.16112 
7871 3 -3.59404 2.89588 -0.457758 
7872 1 -2.50405 -4.74284 -0.475717 
20472 1 -1.91453 1.09212 7.3687 
20471 3 -0.587097 4.12439 1.0551 
1638 1 -0.197014 3.4146 -0.699064 
16613 3 0.17471 -0.66258 -0.498218 
16614 1 -2.39464 -0.927529 -2.05904 
21523 1 4.98837 -1.45144 1.10971 
3404 3 1.19249 0.674085 -1.69963 
3405 1 -1.24043 -3.59435 -10.5136 
3403 1 -1.08566 3.1382 -1.27499 
3603 1 1.07758 6.31344 4.10373 
20470 1 -0.473467 3.89885 3.72553 
16852 1 2.04546 -4.08274 -4.83175 
3602 3 2.596 2.72627 -4.58957 
3601 1 5.49092 -3.47466 -2.32804 
7254 1 5.71705 1.42911 2.8762 
14313 1 1.29768 0.635933 2.18159 
14312 3 3.41776 -5.35988 -0.603354 
14311 1 3.22738 4.29034 -6.92234 
2920 1 -2.01677 0.600916 0.961352 
2921 2 0.304851 -1.90787 -0.00589585 
9776 3 1.62516 -1.93653 2.53038 
9775 1 5.24516 -4.90952 4.16207 
9777 1 3.25526 0.911006 -9.06985 
9805 1 1.59171 1.0408 -0.934091 
11875 1 -1.26061 -1.15911 -3.52416 
9806 3 -0.899962 1.18436 -2.87268 
9807 1 3.38625 1.91354 -5.10832 
8778 1 -4.16152 -5.16056 -0.218804 
8777 3 0.95758 3.08914 -2.40743 
8776 1 -4.52219 0.371446 2.05808 
17683 1 -3.38621 1.2327 0.888717 
17684 3 0.743346 -2.86937 1.28181 
13999 1 -3.01939 -0.234285 3.82865 
14000 3 1.65644 -0.409316 -0.723511 
14001 1 1.94679 4.53507 0.72866 
17685 1 3.33764 1.7623 2.12911 
19448 3 -0.934682 -2.83219 1.40611 
19449 1 -3.01228 -10.8406 6.83612 
5481 1 -1.81015 1.63144 -2.82204 
5479 1 1.90894 4.25825 -2.56624 
6268 1 5.72081 -3.04778 -0.360599 
5480 3 2.14398 -0.970834 1.78602 
6269 3 -0.626134 -3.71541 2.36098 
6270 1 -6.02031 -3.71214 2.98333 
1637 3 1.22207 -0.86631 0.925327 
7855 1 0.451876 -1.1542 1.16897 
1636 1 -5.37179 6.83736 -1.70432 
17448 1 1.52109 -3.39728 1.38265 
2193 1 -2.67741 -1.10077 -1.53003 
2192 3 -0.156936 -0.694501 1.05344 
2191 1 0.901124 2.38068 -3.44504 
18305 3 0.918106 -0.484547 -2.56164 
18304 1 2.94798 4.34025 6.37608 
18306 1 -5.34036 4.51849 -0.549597 
6502 1 3.00864 4.36855 -1.30353 
15901 1 -4.31883 -5.49246 1.90485 
15903 1 2.11052 0.121747 2.1883 
12964 1 -3.8803 -0.0994682 1.59501 
12966 1 -0.0207346 -4.27265 4.24252 
12965 3 -4.23793 3.8875 -1.27722 
15902 3 -2.99621 -1.00616 -0.293475 
10549 1 -6.12539 -3.91912 3.48999 
20350 1 -3.77572 -1.25053 -5.35036 
10551 1 2.97903 3.51493 -0.995863 
10550 3 1.66433 4.85836 -2.45257 
20352 1 3.36353 4.47841 3.3521 
2922 1 -3.97407 4.95855 -3.61859 
20351 3 1.60901 -1.34873 -0.79062 
16089 1 3.51671 2.12385 2.84744 
6497 2 1.41962 2.67965 -4.12399 
6498 1 -3.14488 0.0392443 5.20225 
6496 1 -1.22077 -1.16244 2.97107 
15757 1 -3.22763 -0.525528 5.51726 
12067 1 -6.20996 -1.01969 -1.32901 
12069 1 -0.0391606 1.88694 -0.968208 
12068 3 0.437585 -4.40987 -3.33639 
6503 3 3.32583 4.95871 2.33348 
6504 1 5.69022 -7.5358 3.23031 
59 3 0.287944 -0.827058 -3.22623 
8164 1 -0.335764 6.10088 -0.671528 
58 1 -7.82007 -0.0732233 -1.70938 
8165 3 -4.35204 -3.62369 1.8442 
16987 1 -4.41006 -1.91721 6.45122 
16988 3 2.1609 2.42446 -1.52093 
16989 1 2.77044 -7.27655 1.11559 
19959 1 -3.06373 3.40583 2.47745 
19958 3 -0.769492 -2.79108 -2.76284 
21236 3 3.23598 -3.87659 -1.61746 
21235 1 -0.269009 -7.408 -3.26152 
21237 1 -3.35607 -2.67402 0.501795 
8830 1 -1.90083 4.84186 2.40653 
15426 1 -0.467918 9.26216 0.426121 
15425 2 -0.822856 -3.22867 2.58812 
11007 1 -1.80028 -0.874416 -2.28667 
14620 1 3.43173 -5.80227 -2.96704 