ITEM: TIMESTEP
25000000
ITEM: NUMBER OF ENTRIES
1148
ITEM: BOX BOUNDS pp pp pp
0 50
0 50
0 50
ITEM: ENTRIES c_binfo[1] c_binfo[2] c_binfo[3] 
2 14797 14798 
2 4072 4073 
2 4073 4074 
2 3211 3212 
1 3211 10237 
2 10237 10238 
2 3212 3213 
1 3213 14799 
2 14798 14799 
3 12824 12825 
1 4074 7374 
2 7373 7374 
2 7372 7373 
1 7372 12825 
3 21433 21434 
3 21434 21435 
2 10580 10581 
2 10579 10580 
3 6700 6701 
1 6700 10579 
3 2722 2723 
2 10238 10239 
3 5233 5234 
1 5233 10239 
3 5234 5235 
3 5935 5936 
3 5936 5937 
3 896 897 
2 21385 21386 
2 9538 9539 
1 9538 21385 
2 9539 9540 
2 21386 21387 
3 11489 11490 
3 314 315 
3 313 314 
1 315 13365 
3 8311 8312 
3 8312 8313 
1 63 8313 
1 9540 15540 
3 15539 15540 
3 15538 15539 
3 7241 7242 
3 7240 7241 
1 7240 15538 
3 3796 3797 
3 3797 3798 
3 11488 11489 
1 3798 11488 
3 10637 10638 
3 10636 10637 
2 14011 14012 
2 14012 14013 
3 21112 21113 
3 21113 21114 
3 2269 2270 
3 2182 2183 
1 2182 2269 
3 6545 6546 
3 6544 6545 
3 12823 12824 
1 12823 14874 
3 14873 14874 
3 14872 14873 
1 11574 14872 
3 2270 2271 
3 11573 11574 
3 11572 11573 
3 6614 6615 
1 3258 7242 
3 1747 1748 
1 1747 11572 
3 18079 18080 
3 18080 18081 
3 16573 16574 
3 16574 16575 
1 6702 17286 
3 17285 17286 
3 13532 13533 
3 17284 17285 
3 13531 13532 
1 13531 17284 
3 18262 18263 
3 6701 6702 
3 542 543 
3 1748 1749 
3 18263 18264 
1 18264 19314 
3 19313 19314 
3 19312 19313 
3 1643 1644 
2 4754 4755 
2 4753 4754 
3 1642 1643 
3 16510 16511 
1 4755 16510 
3 2723 2724 
3 19517 19518 
3 19516 19517 
3 6071 6072 
1 2724 6072 
3 6070 6071 
3 11986 11987 
1 11986 19516 
3 11987 11988 
1 165 11988 
3 164 165 
3 163 164 
1 163 6027 
3 3875 3876 
3 541 542 
1 541 2596 
3 2596 2597 
3 2597 2598 
3 3874 3875 
1 2598 3874 
3 21245 21246 
3 10855 10856 
3 10856 10857 
3 18517 18518 
3 18518 18519 
1 5937 15075 
3 11713 11714 
3 21302 21303 
3 3254 3255 
3 3253 3254 
1 3253 21301 
3 21301 21302 
3 895 896 
1 895 3646 
2 9076 9077 
1 9076 17254 
3 17254 17255 
3 17255 17256 
2 9077 9078 
3 18740 18741 
3 18739 18740 
1 3813 4444 
3 3812 3813 
3 3811 3812 
3 4444 4445 
3 13364 13365 
3 12644 12645 
1 12645 13363 
3 13363 13364 
3 11849 11850 
3 15074 15075 
3 15073 15074 
3 11714 11715 
3 17690 17691 
1 11715 12498 
3 62 63 
3 61 62 
3 12497 12498 
3 12496 12497 
1 9534 12496 
3 17689 17690 
3 19340 19341 
3 6613 6614 
1 6613 19341 
3 4571 4572 
3 19339 19340 
1 4572 19339 
3 4570 4571 
3 14878 14879 
1 14878 17256 
3 14879 14880 
3 17758 17759 
1 7617 11490 
3 7616 7617 
3 7627 7628 
3 7628 7629 
3 5449 5450 
1 5449 16575 
3 14944 14945 
3 5450 5451 
1 5451 14944 
3 14945 14946 
3 7615 7616 
3 2183 2184 
1 2184 7615 
3 5351 5352 
3 15814 15815 
1 5352 15814 
3 11848 11849 
3 5350 5351 
1 9513 11848 
3 9533 9534 
3 9532 9533 
3 12092 12093 
1 12093 18748 
3 11732 11733 
1 1749 11731 
3 11731 11732 
3 3257 3258 
3 3256 3257 
1 3256 13474 
3 13474 13475 
3 13475 13476 
1 11733 15436 
3 15436 15437 
3 15437 15438 
1 5037 13476 
3 17759 17760 
3 4978 4979 
1 4978 18081 
3 4979 4980 
3 16108 16109 
3 16109 16110 
3 19777 19778 
3 19778 19779 
3 10069 10070 
1 10069 19707 
3 10070 10071 
1 7629 10071 
1 16512 19705 
3 19706 19707 
3 19705 19706 
3 18407 18408 
3 9461 9462 
3 18406 18407 
3 10729 10730 
1 10729 18406 
3 10730 10731 
1 10731 14526 
3 14524 14525 
3 14525 14526 
3 12091 12092 
3 11149 11150 
1 11149 12091 
1 11151 20944 
3 11150 11151 
1 543 13624 
3 13624 13625 
3 5557 5558 
1 5557 14524 
3 13625 13626 
3 6764 6765 
3 6763 6764 
1 6763 10039 
3 10039 10040 
1 6765 13626 
3 3095 3096 
3 7598 7599 
1 3054 10779 
3 3052 3053 
1 3052 4980 
3 3053 3054 
3 21229 21230 
3 7597 7598 
3 8369 8370 
1 8370 21231 
3 21230 21231 
2 15788 15789 
2 15787 15788 
3 1135 1136 
1 1135 15787 
3 1136 1137 
3 16511 16512 
3 16054 16055 
3 9460 9461 
1 9460 16056 
3 16055 16056 
1 4710 16665 
3 16664 16665 
3 4708 4709 
1 4708 21294 
3 4709 4710 
3 16663 16664 
3 21293 21294 
1 19518 21292 
3 21292 21293 
3 1985 1986 
3 1984 1985 
3 21061 21062 
3 21062 21063 
3 5558 5559 
1 5559 14413 
3 14413 14414 
3 5074 5075 
3 5075 5076 
3 14414 14415 
1 1986 3094 
3 3094 3095 
1 5076 17298 
3 6026 6027 
3 6025 6026 
1 6025 10653 
3 10652 10653 
3 10651 10652 
1 10651 19383 
3 19382 19383 
3 21257 21258 
3 19381 19382 
3 12520 12521 
1 12520 19381 
3 12521 12522 
3 5158 5159 
3 5159 5160 
3 21244 21245 
3 14714 14715 
3 14713 14714 
3 17297 17298 
3 17296 17297 
1 17296 20970 
2 12638 12639 
3 21256 21257 
3 18634 18635 
3 18635 18636 
1 357 10855 
3 10483 10484 
1 10483 12637 
2 12637 12638 
2 355 356 
1 355 10485 
2 356 357 
3 10484 10485 
3 4685 4686 
1 3255 4686 
1 15330 18699 
3 9584 9585 
3 15329 15330 
3 4684 4685 
1 4684 15328 
3 15328 15329 
3 9206 9207 
1 9207 9583 
3 9583 9584 
1 7509 14286 
3 7507 7508 
1 7507 9585 
3 7508 7509 
1 14640 19906 
3 19906 19907 
3 13928 13929 
3 6088 6089 
1 6088 13929 
3 18143 18144 
3 15562 15563 
1 15562 18144 
3 19907 19908 
1 6090 21303 
3 6089 6090 
3 14639 14640 
3 13927 13928 
1 741 5767 
3 5767 5768 
3 740 741 
3 13334 13335 
3 4445 4446 
3 12643 12644 
3 9205 9206 
1 9205 12643 
3 16136 16137 
3 16135 16136 
1 2247 16135 
3 2246 2247 
1 16137 20413 
1 10506 17691 
3 10505 10506 
3 10504 10505 
3 4793 4794 
3 4792 4793 
1 4792 10504 
1 4794 8799 
3 2245 2246 
1 2016 2245 
3 2015 2016 
3 2014 2015 
1 2014 2404 
3 2404 2405 
3 20492 20493 
3 15563 15564 
1 2406 20491 
3 20491 20492 
3 2405 2406 
1 13335 20493 
3 2956 2957 
1 11616 15174 
3 11614 11615 
1 11614 11677 
3 11615 11616 
3 590 591 
3 589 590 
1 589 2958 
3 13333 13334 
1 13333 16129 
3 16130 16131 
3 16129 16130 
3 2957 2958 
1 16131 18507 
3 18506 18507 
3 18505 18506 
1 3546 18505 
3 3545 3546 
3 3544 3545 
1 3544 18112 
3 18112 18113 
3 20414 20415 
3 15815 15816 
3 20413 20414 
3 298 299 
3 9511 9512 
3 9512 9513 
3 299 300 
3 6434 6435 
3 18748 18749 
3 18749 18750 
3 5825 5826 
3 5824 5825 
3 14248 14249 
1 14248 15438 
3 14249 14250 
3 5036 5037 
3 5035 5036 
1 5035 15172 
3 15172 15173 
3 15173 15174 
1 10860 17061 
1 10041 17059 
3 17059 17060 
3 17060 17061 
3 6433 6434 
1 6433 12589 
3 12589 12590 
3 11893 11894 
1 11893 17310 
3 12334 12335 
1 12334 17988 
3 17309 17310 
3 17987 17988 
3 1615 1616 
1 1615 17308 
3 17308 17309 
3 11894 11895 
1 11895 19779 
3 12335 12336 
3 17986 17987 
1 11655 16110 
3 11654 11655 
3 11653 11654 
1 10368 11653 
3 10367 10368 
3 11980 11981 
3 10468 10469 
1 10468 11980 
3 11981 11982 
1 11982 18114 
3 18113 18114 
3 12617 12618 
1 1137 12616 
3 12616 12617 
3 4745 4746 
3 11630 11631 
3 11629 11630 
1 11629 12618 
1 300 4744 
3 4744 4745 
1 15480 15816 
3 20944 20945 
3 15479 15480 
3 20945 20946 
3 15478 15479 
1 15478 17637 
3 17636 17637 
1 19809 20946 
3 10040 10041 
3 10778 10779 
3 10682 10683 
3 10681 10682 
3 10777 10778 
3 7313 7314 
1 10683 10777 
3 1616 1617 
1 1617 7312 
3 7312 7313 
3 1534 1535 
1 1534 12336 
3 1535 1536 
1 1536 5484 
3 5483 5484 
3 5482 5483 
3 8368 8369 
3 10469 10470 
1 10263 10470 
3 10262 10263 
3 10261 10262 
1 2742 10261 
3 16612 16613 
3 2741 2742 
1 11631 16497 
3 16496 16497 
3 16495 16496 
1 16495 21063 
3 15620 15621 
1 8949 11334 
3 11333 11334 
3 11332 11333 
1 11332 15619 
3 15619 15620 
3 19808 19809 
3 19807 19808 
3 18451 18452 
1 18451 19807 
3 18452 18453 
1 3096 8995 
3 8995 8996 
3 8996 8997 
1 3714 8997 
3 17093 17094 
3 20969 20970 
3 20968 20969 
3 3713 3714 
3 3712 3713 
3 7856 7857 
3 880 881 
1 880 7857 
3 881 882 
3 6721 6722 
1 6721 16612 
3 2740 2741 
1 882 1395 
3 1982 1983 
3 1981 1982 
1 1981 6723 
3 6722 6723 
3 5647 5648 
3 5648 5649 
3 8948 8949 
3 8947 8948 
3 3919 3920 
1 3919 12639 
3 16088 16089 
3 17092 17093 
1 17092 20968 
3 3920 3921 
1 3921 16087 
3 16087 16088 
3 15758 15759 
3 9704 9705 
3 9703 9704 
1 2706 11554 
3 11554 11555 
3 2705 2706 
3 2704 2705 
3 1394 1395 
3 1393 1394 
1 1393 18634 
3 11555 11556 
3 18698 18699 
1 60 6096 
3 6095 6096 
3 6094 6095 
1 4272 10440 
3 10439 10440 
3 10438 10439 
3 4489 4490 
1 4489 10438 
3 8798 8799 
3 13498 13499 
1 13498 19908 
3 13499 13500 
3 4490 4491 
3 8831 8832 
3 18142 18143 
1 18142 21336 
3 21335 21336 
3 21334 21335 
1 8832 21334 
3 5768 5769 
1 5769 11679 
3 2857 2858 
1 2857 20901 
3 2858 2859 
1 2859 15424 
2 15424 15425 
3 20900 20901 
3 20899 20900 
3 19406 19407 
3 19405 19406 
3 7927 7928 
1 7927 19405 
3 7928 7929 
3 5713 5714 
3 18697 18698 
1 3444 18697 
3 3443 3444 
3 3442 3443 
1 3442 19354 
3 19354 19355 
3 19355 19356 
1 7929 12013 
3 12013 12014 
3 15289 15290 
3 15290 15291 
3 8797 8798 
1 2832 8797 
3 2831 2832 
3 2830 2831 
1 2830 9444 
1 2202 8091 
3 2200 2201 
1 2200 13500 
3 2201 2202 
1 14622 19356 
3 11677 11678 
3 11237 11238 
3 11236 11237 
3 16585 16586 
1 16585 19134 
3 19133 19134 
3 12590 12591 
3 16586 16587 
3 11678 11679 
3 3749 3750 
3 20230 20231 
3 3748 3749 
1 3748 20230 
3 20231 20232 
3 1696 1697 
1 1696 20232 
3 19132 19133 
1 11643 19132 
3 11642 11643 
3 20009 20010 
3 2593 2594 
1 2593 12015 
3 2594 2595 
3 12014 12015 
3 18736 18737 
1 2595 8937 
3 5714 5715 
3 10859 10860 
3 8090 8091 
3 8089 8090 
3 10858 10859 
3 15197 15198 
3 15196 15197 
3 5137 5138 
1 5137 10386 
3 10385 10386 
3 10384 10385 
3 14471 14472 
3 12344 12345 
3 11641 11642 
1 11641 17986 
3 21227 21228 
3 21226 21227 
1 12345 21228 
3 16393 16394 
3 16394 16395 
3 7949 7950 
3 10366 10367 
1 10366 21525 
1 16395 20010 
3 20008 20009 
3 15850 15851 
1 15850 20008 
3 3287 3288 
3 15851 15852 
3 3286 3287 
1 3286 15852 
3 21524 21525 
3 4208 4209 
3 16315 16316 
3 16316 16317 
3 16853 16854 
3 8936 8937 
3 17635 17636 
3 9727 9728 
1 9727 15621 
3 3866 3867 
3 9728 9729 
3 17702 17703 
3 17701 17702 
1 3867 9805 
1 11877 17701 
3 11876 11877 
3 8935 8936 
1 8935 9729 
3 17497 17498 
1 7314 13999 
3 5138 5139 
3 17498 17499 
3 7382 7383 
3 7381 7382 
1 7381 11037 
3 7948 7949 
3 21595 21596 
3 21596 21597 
3 7870 7871 
3 7871 7872 
1 20472 21597 
3 20471 20472 
3 16613 16614 
3 21523 21524 
3 3404 3405 
1 3405 21523 
3 3403 3404 
1 3403 3603 
3 20470 20471 
1 20470 21376 
3 16852 16853 
3 3602 3603 
3 3601 3602 
1 3601 7254 
3 14312 14313 
3 14311 14312 
1 14311 15774 
2 2920 2921 
2 2921 2922 
3 9776 9777 
3 9775 9776 
3 9805 9806 
3 11875 11876 
3 9806 9807 
1 8778 9807 
3 8777 8778 
3 8776 8777 
1 8776 17683 
3 17683 17684 
3 17684 17685 
3 13999 14000 
3 14000 14001 
1 14001 17685 
3 19448 19449 
1 5481 19449 
3 5479 5480 
1 5479 6268 
3 6268 6269 
3 5480 5481 
3 6269 6270 
3 1637 1638 
3 7855 7856 
3 1636 1637 
1 1636 7855 
1 2193 17448 
3 2192 2193 
3 2191 2192 
1 2191 6502 
3 18305 18306 
3 18304 18305 
3 6502 6503 
3 15901 15902 
1 15901 18306 
3 12964 12965 
3 12965 12966 
3 15902 15903 
3 10549 10550 
3 20350 20351 
1 10551 20350 
3 10550 10551 
1 2922 20352 
3 20351 20352 
2 6497 6498 
1 6498 16089 
2 6496 6497 
3 15757 15758 
3 12067 12068 
3 12068 12069 
3 6503 6504 
3 59 60 
3 8164 8165 
1 8164 16987 
3 58 59 
3 8165 8166 
3 16987 16988 
3 16988 16989 
1 16989 19959 
3 19958 19959 
3 21236 21237 
3 21235 21236 
3 8830 8831 
1 8830 21237 
2 15425 15426 
3 14620 14621 
3 19957 19958 
2 6112 6113 
1 6112 19957 
3 14621 14622 
3 9443 9444 
3 9442 9443 
1 9442 21249 
2 6113 6114 
3 21248 21249 
3 21247 21248 
3 2998 2999 
1 2998 21247 
3 2999 3000 
3 1697 1698 
3 17426 17427 
3 17425 17426 
3 6136 6137 
1 6136 17425 
2 11005 11006 
1 11005 17427 
2 11006 11007 
3 11386 11387 
3 11387 11388 
3 18737 18738 
3 14404 14405 
3 7303 7304 
1 7303 11610 
3 7304 7305 
3 14405 14406 
1 14406 15198 
3 11609 11610 
3 11608 11609 
3 14470 14471 
3 5786 5787 
1 5787 9657 
3 12343 12344 
1 12343 15631 
3 9656 9657 
3 9655 9656 
3 6137 6138 
3 16066 16067 
3 1918 1919 
1 1918 16066 
3 16067 16068 
3 1919 1920 
1 6138 7914 
1 3288 19647 
3 7913 7914 
3 7912 7913 
1 1920 9549 
3 6674 6675 
3 18979 18980 
3 4207 4208 
1 4207 6673 
3 6673 6674 
3 3967 3968 
1 3967 11388 
3 3968 3969 
3 13373 13374 
3 3808 3809 
1 3808 13374 
3 13372 13373 
1 13372 16077 
1 18738 20967 
3 20966 20967 
3 20965 20966 
3 11740 11741 
1 11740 20965 
3 3865 3866 
1 10686 11742 
3 9284 9285 
3 11741 11742 
3 9283 9284 
1 9283 16731 
3 16730 16731 
3 16729 16730 
3 10685 10686 
3 19447 19448 
3 15631 15632 
3 21569 21570 
3 15632 15633 
1 15633 21568 
3 21568 21569 
1 9285 19447 
3 11035 11036 
1 11035 14772 
3 11036 11037 
3 14771 14772 
3 17371 17372 
3 17372 17373 
3 19645 19646 
3 21376 21377 
3 19646 19647 
3 9548 9549 
3 21377 21378 
1 4635 21378 
3 4634 4635 
3 4633 4634 
3 3809 3810 
3 7253 7254 
3 7252 7253 
1 6093 7252 
3 15773 15774 
3 6479 6480 
3 15772 15773 
3 6478 6479 
1 6478 15772 
3 5069 5070 
3 19538 19539 
3 19537 19538 
3 11099 11100 
1 11100 16267 
3 16267 16268 
3 16268 16269 
3 12314 12315 
3 17447 17448 
3 17446 17447 
3 17422 17423 
3 17423 17424 
1 10362 17422 
3 10361 10362 
3 12313 12314 
3 10360 10361 
1 10360 12313 
3 18493 18494 
3 4076 4077 
3 18494 18495 
1 4077 17424 
3 4075 4076 
1 4075 12811 
3 12811 12812 
3 12812 12813 
1 6189 18495 
3 6092 6093 
3 907 908 
1 907 12813 
3 908 909 
1 909 19671 
2 19670 19671 
3 6091 6092 
3 11098 11099 
3 6056 6057 
3 7802 7803 
3 7801 7802 
1 7801 10507 
3 10507 10508 
3 6055 6056 
3 5785 5786 
3 17327 17328 
3 17326 17327 
1 4506 17326 
3 4505 4506 
1 351 16068 
3 18029 18030 
3 18028 18029 
3 4504 4505 
1 4504 18028 
3 14695 14696 
1 14695 18981 
3 14696 14697 
3 18980 18981 
3 17723 17724 
3 8512 8513 
1 8512 17722 
3 8513 8514 
3 17722 17723 
3 16076 16077 
3 16075 16076 
3 10508 10509 
3 10684 10685 
1 10684 12667 
3 12667 12668 
3 12668 12669 
3 349 350 
1 10716 14770 
3 14770 14771 
3 350 351 
3 10715 10716 
3 10714 10715 
1 10714 20460 
3 20459 20460 
3 20458 20459 
3 6188 6189 
3 9547 9548 
1 9547 11617 
3 11617 11618 
3 6187 6188 
3 2849 2850 
3 11618 11619 
3 2848 2849 
1 2848 11619 
1 2850 18970 
3 18970 18971 
3 5068 5069 
1 5068 18972 
3 18971 18972 
3 4949 4950 
3 4948 4949 
3 17693 17694 
3 17692 17693 
2 19669 19670 
2 15611 15612 
2 15610 15611 
1 15225 15610 
3 15223 15224 
1 13080 15223 
3 13079 13080 
3 11179 11180 
3 11180 11181 
3 15224 15225 
1 11181 18964 
3 18964 18965 
3 13078 13079 
1 13078 15121 
3 15122 15123 
3 15121 15122 
3 8992 8993 
1 8992 15123 
3 8993 8994 
3 6562 6563 
1 6562 18966 
3 18965 18966 
1 6564 8994 
3 6563 6564 
2 17351 17352 
2 17350 17351 
1 2487 17350 
2 2486 2487 
2 2485 2486 
1 2485 3445 
2 3445 3446 
2 3446 3447 
2 16558 16559 
2 14791 14792 
1 14791 16558 
1 2898 4222 
2 4222 4223 
2 2896 2897 
2 7423 7424 
2 7424 7425 
2 16126 16127 
2 16127 16128 
2 14792 14793 
1 7425 16126 
1 11910 14793 
2 11909 11910 
2 11908 11909 
2 4223 4224 
2 21337 21338 
1 19572 21337 
2 21338 21339 
2 19570 19571 
2 19571 19572 
3 13156 13157 
1 13156 19570 
2 9215 9216 
2 9214 9215 
1 3648 3987 
3 3647 3648 
3 3646 3647 
3 3986 3987 
2 316 317 
2 317 318 
1 7152 9216 
2 7151 7152 
2 7150 7151 
1 7150 9078 
1 11136 18741 
2 16559 16560 
2 2897 2898 
2 11777 11778 
1 7614 16128 
2 13553 13554 
2 13552 13553 
2 1796 1797 
2 1795 1796 
1 1795 4224 
1 11778 17658 
2 10529 10530 
2 7613 7614 
2 7612 7613 
1 7612 14331 
2 14330 14331 
2 14329 14330 
2 2062 2063 
1 2062 14329 
2 2063 2064 
1 2064 8668 
3 8668 8669 
2 5188 5189 
2 4114 4115 
1 4114 5853 
2 4115 4116 
3 8669 8670 
2 5852 5853 
2 5851 5852 
3 12220 12221 
3 13157 13158 
3 14285 14286 
3 3985 3986 
1 3985 14284 
3 14284 14285 
3 3910 3911 
1 3910 13158 
3 3911 3912 
1 3912 10851 
3 12221 12222 
2 2503 2504 
1 2503 12222 
2 2504 2505 
3 14638 14639 
3 739 740 
1 739 16596 
1 2505 16594 
2 16594 16595 
2 16595 16596 
2 11134 11135 
2 11135 11136 
2 11776 11777 
2 3016 3017 
1 3016 11776 
2 3017 3018 
2 5189 5190 
2 17657 17658 
2 17656 17657 
1 5190 17656 
2 10528 10529 
2 7243 7244 
1 7243 10528 
2 7244 7245 
3 17947 17948 
1 7245 13054 
3 13054 13055 
3 2156 2157 
2 3268 3269 
3 2155 2156 
1 2155 3268 
2 3269 3270 
1 3270 4822 
2 4823 4824 
2 4822 4823 
2 7708 7709 
1 4824 7708 
2 7709 7710 
3 13055 13056 
1 13056 13092 
3 13091 13092 
3 13090 13091 
1 8166 13090 
3 4271 4272 
1 2157 14074 
3 14074 14075 
3 4270 4271 
1 4270 14076 
3 14075 14076 
3 10850 10851 
3 11168 11169 
3 5672 5673 
3 5671 5672 
1 5671 11169 
3 9470 9471 
1 4491 9469 
3 9469 9470 
3 10849 10850 
1 8670 12834 
2 12833 12834 
2 12832 12833 
3 17948 17949 
3 20462 20463 
3 20461 20462 
3 11167 11168 
