ITEM: TIMESTEP
0
ITEM: NUMBER OF ATOMS
906
ITEM: BOX BOUNDS pp pp pp
0.0000000000000000e+00 5.0000000000000000e+01
0.0000000000000000e+00 5.0000000000000000e+01
0.0000000000000000e+00 5.0000000000000000e+01
ITEM: ATOMS id type 
13 1 
14 2 
15 1 
28 1 
29 2 
30 1 
136 1 
137 2 
138 1 
241 1 
242 2 
243 1 
259 1 
260 2 
261 1 
307 1 
308 2 
309 1 
370 1 
371 2 
372 1 
484 1 
485 2 
486 1 
1150 1 
1151 2 
1152 1 
1156 1 
1157 2 
1158 1 
1348 1 
1349 2 
1350 1 
1504 1 
1505 2 
1506 1 
1573 1 
1574 2 
1575 1 
2236 1 
2237 2 
2238 1 
2530 1 
2531 2 
2532 1 
2581 1 
2582 2 
2583 1 
3205 1 
3206 2 
3207 1 
3262 1 
3263 2 
3264 1 
3490 1 
3491 2 
3492 1 
3628 1 
3629 2 
3630 1 
4453 1 
4454 2 
4455 1 
4573 1 
4574 2 
4575 1 
4636 1 
4637 2 
4638 1 
4801 1 
4802 2 
4803 1 
4816 1 
4817 2 
4818 1 
5461 1 
5462 2 
5463 1 
5704 1 
5705 2 
5706 1 
5776 1 
5777 2 
5778 1 
5845 1 
5846 2 
5847 1 
7021 1 
7022 2 
7023 1 
7756 1 
7757 2 
7758 1 
7939 1 
7940 2 
7941 1 
8296 1 
8297 2 
8298 1 
9025 1 
9026 2 
9027 1 
9136 1 
9137 2 
9138 1 
9184 1 
9185 2 
9186 1 
9187 1 
9188 2 
9189 1 
9193 1 
9194 2 
9195 1 
9250 1 
9251 2 
9252 1 
9979 1 
9980 2 
9981 1 
11110 1 
11111 2 
11112 1 
11230 1 
11231 2 
11232 1 
11233 1 
11234 2 
11235 1 
11245 1 
11246 2 
11247 1 
11293 1 
11294 2 
11295 1 
12079 1 
12080 2 
12081 1 
12208 1 
12209 2 
12210 1 
12259 1 
12260 3 
12261 1 
12319 1 
12320 2 
12321 1 
12619 1 
12620 2 
12621 1 
13408 1 
13409 2 
13410 1 
13507 1 
13508 2 
13509 1 
13510 1 
13511 2 
13512 1 
14368 1 
14369 2 
14370 1 
14533 1 
14534 2 
14535 1 
15376 1 
15377 2 
15378 1 
15484 1 
15485 2 
15486 1 
15553 1 
15554 2 
15555 1 
15613 1 
15614 2 
15615 1 
15736 1 
15737 3 
15738 1 
15742 1 
15743 2 
15744 1 
16381 1 
16382 2 
16383 1 
16396 1 
16397 2 
16398 1 
16462 1 
16463 2 
16464 1 
16627 1 
16628 2 
16629 1 
16696 1 
16697 3 
16698 1 
17461 1 
17462 2 
17463 1 
17467 1 
17468 2 
17469 1 
17482 1 
17483 2 
17484 1 
17533 1 
17534 2 
17535 1 
17536 1 
17537 2 
17538 1 
17545 1 
17546 2 
17547 1 
17662 1 
17663 2 
17664 1 
17668 1 
17669 2 
17670 1 
18367 1 
18368 2 
18369 1 
18433 1 
18434 2 
18435 1 
18439 1 
18440 2 
18441 1 
18481 1 
18482 2 
18483 1 
19579 1 
19580 2 
19581 1 
19810 1 
19811 2 
19812 1 
19864 1 
19865 2 
19866 1 
20764 1 
20765 2 
20766 1 
43 1 
44 2 
45 1 
154 1 
155 2 
156 1 
460 1 
461 2 
462 1 
1174 1 
1175 2 
1176 1 
1366 1 
1367 2 
1368 1 
1594 1 
1595 2 
1596 1 
1618 1 
1619 2 
1620 1 
2278 1 
2279 2 
2280 1 
2443 1 
2444 2 
2445 1 
2446 1 
2447 2 
2448 1 
2614 1 
2615 2 
2616 1 
2635 1 
2636 2 
2637 1 
3277 1 
3278 2 
3279 1 
3295 1 
3296 2 
3297 1 
3346 1 
3347 2 
3348 1 
3514 1 
3515 2 
3516 1 
3655 1 
3656 2 
3657 1 
3709 1 
3710 2 
3711 1 
4534 1 
4535 2 
4536 1 
4555 1 
4556 2 
4557 1 
4654 1 
4655 2 
4656 1 
4774 1 
4775 2 
4776 1 
4903 1 
4904 2 
4905 1 
5752 1 
5753 2 
5754 1 
5815 1 
5816 2 
5817 1 
5869 1 
5870 2 
5871 1 
5983 1 
5984 2 
5985 1 
6715 1 
6716 2 
6717 1 
6751 1 
6752 2 
6753 1 
6877 1 
6878 2 
6879 1 
6889 1 
6890 3 
6891 1 
7063 1 
7064 2 
7065 1 
7114 1 
7115 2 
7116 1 
7198 1 
7199 2 
7200 1 
7852 1 
7853 3 
7854 1 
7975 1 
7976 2 
7977 1 
8020 1 
8021 2 
8022 1 
8272 1 
8273 2 
8274 1 
8335 1 
8336 2 
8337 1 
8998 1 
8999 2 
9000 1 
9052 1 
9053 2 
9054 1 
9178 1 
9179 2 
9180 1 
9211 1 
9212 2 
9213 1 
9271 1 
9272 2 
9273 1 
9274 1 
9275 2 
9276 1 
10138 1 
10139 2 
10140 1 
10234 1 
10235 3 
10236 1 
10303 1 
10304 2 
10305 1 
10375 1 
10376 2 
10377 1 
10378 1 
10379 2 
10380 1 
10531 1 
10532 2 
10533 1 
11434 1 
11435 2 
11436 1 
11500 1 
11501 2 
11502 1 
11506 1 
11507 2 
11508 1 
11509 1 
11510 2 
11511 1 
12172 1 
12173 2 
12174 1 
12466 1 
12467 2 
12468 1 
13174 1 
13175 2 
13176 1 
13300 1 
13301 2 
13302 1 
13612 1 
13613 2 
13614 1 
14314 1 
14315 2 
14316 1 
14557 1 
14558 2 
14559 1 
15346 1 
15347 2 
15348 1 
15400 1 
15401 2 
15402 1 
15649 1 
15650 2 
15651 1 
16618 1 
16619 2 
16620 1 
16735 1 
16736 2 
16737 1 
17440 1 
17441 2 
17442 1 
17443 1 
17444 2 
17445 1 
17458 1 
17459 2 
17460 1 
18415 1 
18416 2 
18417 1 
18778 1 
18779 2 
18780 1 
19609 1 
19610 2 
19611 1 
19615 1 
19616 2 
19617 1 
19675 1 
19676 2 
19677 1 
19915 1 
19916 2 
19917 1 
20623 1 
20624 2 
20625 1 
20671 1 
20672 3 
20673 1 
20698 1 
20699 2 
20700 1 
20791 1 
20792 2 
20793 1 
20854 1 
20855 3 
20856 1 
21034 1 
21035 2 
21036 1 
601 1 
602 2 
603 1 
688 1 
689 3 
690 1 
1021 1 
1022 2 
1023 1 
1096 1 
1097 2 
1098 1 
1699 1 
1700 2 
1701 1 
1753 1 
1754 2 
1755 1 
2041 1 
2042 2 
2043 1 
2650 1 
2651 2 
2652 1 
2788 1 
2789 2 
2790 1 
3793 1 
3794 2 
3795 1 
3859 1 
3860 2 
3861 1 
3928 1 
3929 2 
3930 1 
4033 1 
4034 2 
4035 1 
4093 1 
4094 2 
4095 1 
4162 1 
4163 2 
4164 1 
4924 1 
4925 2 
4926 1 
4939 1 
4940 2 
4941 1 
5119 1 
5120 2 
5121 1 
5362 1 
5363 2 
5364 1 
6064 1 
6065 2 
6066 1 
6319 1 
6320 2 
6321 1 
6385 1 
6386 2 
6387 1 
6448 1 
6449 3 
6450 1 
6619 1 
6620 2 
6621 1 
7402 1 
7403 2 
7404 1 
7513 1 
7514 2 
7515 1 
7516 1 
7517 2 
7518 1 
8416 1 
8417 2 
8418 1 
8425 1 
8426 2 
8427 1 
8461 1 
8462 2 
8463 1 
8716 1 
8717 2 
8718 1 
9439 1 
9440 2 
9441 1 
9499 1 
9500 2 
9501 1 
9685 1 
9686 2 
9687 1 
9688 1 
9689 3 
9690 1 
9922 1 
9923 2 
9924 1 
10567 1 
10568 2 
10569 1 
11662 1 
11663 2 
11664 1 
11668 1 
11669 2 
11670 1 
11881 1 
11882 2 
11883 1 
11968 1 
11969 2 
11970 1 
12007 1 
12008 2 
12009 1 
12913 1 
12914 2 
12915 1 
12919 1 
12920 2 
12921 1 
13639 1 
13640 2 
13641 1 
13861 1 
13862 2 
13863 1 
13885 1 
13886 2 
13887 1 
14008 1 
14009 2 
14010 1 
14056 1 
14057 2 
14058 1 
14122 1 
14123 2 
14124 1 
14179 1 
14180 3 
14181 1 
14725 1 
14726 2 
14727 1 
14827 1 
14828 2 
14829 1 
14899 1 
14900 2 
14901 1 
14902 1 
14903 3 
14904 1 
15010 1 
15011 2 
15012 1 
15784 1 
15785 2 
15786 1 
15907 1 
15908 2 
15909 1 
15988 1 
15989 2 
15990 1 
16744 1 
16745 2 
16746 1 
16753 1 
16754 2 
16755 1 
16765 1 
16766 2 
16767 1 
16993 1 
16994 2 
16995 1 
18025 1 
18026 2 
18027 1 
19336 1 
19337 2 
19338 1 
19399 1 
19400 2 
19401 1 
19996 1 
19997 2 
19998 1 
20179 1 
20180 2 
20181 1 
20476 1 
20477 2 
20478 1 
20482 1 
20483 2 
20484 1 
21361 1 
21362 2 
21363 1 
21382 1 
21383 2 
21384 1 
21421 1 
21422 2 
21423 1 
21505 1 
21506 2 
21507 1 
649 1 
650 3 
651 1 
898 1 
899 2 
900 1 
946 1 
947 2 
948 1 
949 1 
950 2 
951 1 
1003 1 
1004 3 
1005 1 
1117 1 
1118 2 
1119 1 
1129 1 
1130 3 
1131 1 
2032 1 
2033 2 
2034 1 
2074 1 
2075 2 
2076 1 
2098 1 
2099 2 
2100 1 
2209 1 
2210 2 
2211 1 
2938 1 
2939 2 
2940 1 
2980 1 
2981 2 
2982 1 
3106 1 
3107 2 
3108 1 
3115 1 
3116 2 
3117 1 
3832 1 
3833 2 
3834 1 
4120 1 
4121 2 
4122 1 
4234 1 
4235 2 
4236 1 
6106 1 
6107 2 
6108 1 
6271 1 
6272 2 
6273 1 
6277 1 
6278 2 
6279 1 
6340 1 
6341 2 
6342 1 
6403 1 
6404 2 
6405 1 
6655 1 
6656 2 
6657 1 
7294 1 
7295 2 
7296 1 
7711 1 
7712 2 
7713 1 
8383 1 
8384 2 
8385 1 
8494 1 
8495 2 
8496 1 
8518 1 
8519 2 
8520 1 
8680 1 
8681 2 
8682 1 
8734 1 
8735 2 
8736 1 
8815 1 
8816 2 
8817 1 
8878 1 
8879 2 
8880 1 
9940 1 
9941 2 
9942 1 
10669 1 
10670 2 
10671 1 
11086 1 
11087 2 
11088 1 
11794 1 
11795 2 
11796 1 
11797 1 
11798 2 
11799 1 
13012 1 
13013 2 
13014 1 
13663 1 
13664 2 
13665 1 
13798 1 
13799 2 
13800 1 
13963 1 
13964 2 
13965 1 
13969 1 
13970 2 
13971 1 
14026 1 
14027 2 
14028 1 
14089 1 
14090 2 
14091 1 
14938 1 
14939 2 
14940 1 
16978 1 
16979 2 
16980 1 
17074 1 
17075 2 
17076 1 
17089 1 
17090 2 
17091 1 
17149 1 
17150 2 
17151 1 
17212 1 
17213 2 
17214 1 
17275 1 
17276 2 
17277 1 
17854 1 
17855 2 
17856 1 
18283 1 
18284 2 
18285 1 
19189 1 
19190 2 
19191 1 
19378 1 
19379 2 
19380 1 
20194 1 
20195 2 
20196 1 
21100 1 
21101 2 
21102 1 
21154 1 
21155 2 
21156 1 
21271 1 
21272 2 
21273 1 
21355 1 
21356 2 
21357 1 
21397 1 
21398 2 
21399 1 
21460 1 
21461 2 
21462 1 
21466 1 
21467 2 
21468 1 
