ITEM: TIMESTEP
25000000
ITEM: NUMBER OF ATOMS
888
ITEM: BOX BOUNDS pp pp pp
0.0000000000000000e+00 5.0000000000000000e+01
0.0000000000000000e+00 5.0000000000000000e+01
0.0000000000000000e+00 5.0000000000000000e+01
ITEM: ATOMS id type vx vy vz 
15723 1 -3.06412 2.87857 -3.07747 
15722 2 -0.86067 -1.45628 3.22041 
15675 1 0.0319357 -4.80232 0.749735 
15674 2 -0.628154 -3.24348 2.22043 
6085 1 -4.47738 6.29233 -1.85753 
15673 1 0.310166 2.49427 5.31827 
6086 2 -0.121336 3.81716 -1.19015 
19424 2 0.12913 3.33139 1.23169 
19423 1 -0.643184 3.28065 -0.882082 
6087 1 5.22372 2.73552 4.74719 
2372 3 -1.94259 -0.746449 0.516654 
15825 1 -1.5598 -2.44743 -6.91128 
14455 1 -3.64466 -1.51826 -0.626983 
14456 2 -1.07745 -2.5975 1.56245 
14457 1 -2.27582 -3.05983 -2.93854 
2373 1 4.08986 7.08 -2.26825 
15824 3 1.42105 -3.01298 2.35747 
15823 1 4.16006 1.9904 4.7795 
10886 3 -2.23308 -0.9999 0.655819 
15721 1 4.35176 -2.05359 0.70315 
11350 1 1.06167 1.19049 -5.15124 
21120 1 -1.58132 -4.13843 2.61767 
11351 2 -0.906036 -2.43518 -3.95929 
11352 1 3.35241 -0.455683 1.39067 
8584 1 -6.5038 3.47412 -2.04853 
21119 2 -4.39426 -1.9914 1.48616 
10359 1 2.85666 5.32552 2.64212 
15801 1 -0.232993 4.92183 3.84884 
15800 2 -0.914223 2.73082 1.68456 
10357 1 -3.83349 1.37709 -0.754463 
7869 1 -2.60248 1.14832 -1.00867 
15799 1 -7.57327 -1.45149 2.62493 
18088 1 2.98737 2.79002 4.46085 
18089 2 1.48607 1.93338 -0.558839 
10358 2 0.529102 -1.09325 -1.27465 
7868 2 -2.52489 -3.51392 0.273625 
18090 1 5.95865 -1.57833 -9.06298 
12573 1 2.91375 -0.292041 -2.50947 
13162 1 7.9976 2.77046 1.11274 
19425 1 1.37458 -1.20175 2.29122 
13164 1 3.07386 -1.82776 -2.47598 
21282 1 3.05027 -3.86367 -1.54076 
1831 1 7.43311 -3.80767 -0.774184 
1832 2 -0.68548 1.71223 3.90323 
12572 2 -1.25199 -2.36781 -3.3705 
21281 2 5.7787 4.13948 -2.01243 
21280 1 -1.77582 -2.64081 3.72685 
4911 1 0.457694 -2.1615 -3.17298 
18066 1 -2.11995 1.1022 -0.0183805 
1623 1 -0.421342 2.19675 8.51237 
18065 2 5.16155 3.08626 -0.459188 
1622 2 1.08823 -0.700625 -0.14308 
1621 1 -0.31158 -4.69296 -3.01613 
10885 1 -2.32708 1.76933 -3.00054 
5728 1 1.57542 -2.11783 1.95984 
5729 2 3.64978 -2.4717 4.46209 
5730 1 2.45949 -2.22967 -4.50318 
11565 1 -1.22936 4.16445 -5.7223 
5675 2 -1.61427 3.32485 2.58426 
14965 1 5.29662 -5.81994 1.05803 
14966 2 1.86414 0.267903 -0.24562 
12599 2 -1.12809 -3.74622 -5.58829 
12598 1 -0.733928 2.56545 2.27523 
4250 2 1.04383 3.12432 -2.14728 
12600 1 3.52331 -2.79484 5.67518 
4659 1 -1.22955 -6.62405 0.0754333 
4657 1 -1.93557 0.672333 -3.97639 
5674 1 -2.37094 0.478604 0.123493 
4658 2 -1.54605 -1.35291 -0.790603 
7867 1 -0.188328 -3.19653 -1.17934 
4249 1 0.855635 1.90461 -1.83269 
8217 1 2.19965 -5.69438 -3.97059 
9316 1 -1.32286 -5.93094 2.68477 
9317 2 -1.35012 3.66634 4.25596 
9318 1 -2.80014 -1.54865 -3.18427 
8216 2 -0.54299 0.443332 2.36312 
8215 1 2.04128 1.28996 -2.19385 
6872 2 6.39037 -0.672587 -1.85462 
6871 1 5.23514 -0.284891 4.19568 
757 1 -0.913807 -3.25521 2.29016 
21178 1 1.7472 -2.78167 0.261564 
1833 1 -6.41469 1.37455 -4.08489 
758 2 7.15625 0.743123 -0.147293 
759 1 -3.53583 -0.00614405 -3.5888 
13806 1 2.85922 -0.748282 -3.3686 
4910 2 0.583287 -0.878885 -3.07331 
4909 1 2.15222 6.51452 -1.87141 
1624 1 -0.977049 0.583228 2.49579 
1625 2 -1.29598 -0.586018 -1.50935 
16792 1 -2.90624 3.08304 -1.91819 
1626 1 4.96328 -3.39276 -3.03898 
3943 1 1.73975 -2.09864 -6.02881 
18146 3 -4.40541 1.77785 2.12776 
18145 1 1.5689 -3.9407 6.73717 
19290 1 -6.25448 4.69729 -6.21387 
16449 1 -0.210784 3.14228 3.85918 
18147 1 0.788709 1.98747 2.51748 
11563 1 0.856405 -0.20444 1.53376 
11564 2 -1.17664 -0.157488 3.586 
4176 1 -2.52814 0.512761 -0.39132 
19288 1 2.99492 -2.96065 0.800643 
19289 2 -1.72358 1.84312 -0.958456 
5135 2 -1.23237 -1.22181 -4.05099 
5136 1 -5.75757 1.31632 0.557329 
15058 1 2.62441 -4.16813 4.21837 
15059 2 -1.53729 -1.68809 0.86452 
5134 1 2.23823 1.21665 -5.56112 
10056 1 6.28425 -5.17667 4.90117 
19000 1 -2.31839 1.16958 -2.35271 
15060 1 1.68902 1.48471 -0.98412 
2728 1 6.56172 4.27411 -1.25105 
3080 2 2.76024 -1.16887 -0.598507 
19001 2 1.51952 -1.70639 1.69907 
11010 1 -2.1741 -2.20969 1.62501 
19002 1 4.06809 -7.8417 0.303782 
18931 1 -4.61939 -2.44407 -1.01547 
19858 1 0.844864 -3.82663 2.9525 
19860 1 -3.51748 -3.53162 0.342342 
19859 2 3.14113 3.25844 0.717303 
6588 1 -0.493277 3.8001 -9.40609 
21180 1 -0.561555 2.1033 2.7735 
21179 2 -1.27824 0.0573089 1.65942 
4497 1 1.26604 0.0707288 -9.4866 
6362 2 -3.69301 -2.28991 1.03786 
10967 2 1.17526 -0.624781 -1.58124 
10968 1 -1.59672 3.74764 7.20911 
6363 1 -1.96175 0.149838 2.59488 
16527 1 5.06766 -2.277 1.60466 
10966 1 -1.25082 -1.00068 0.0287659 
2385 1 -3.74468 -1.87217 -5.78073 
4496 2 2.79559 -2.58871 -1.81321 
6361 1 0.107453 -3.93803 -1.45271 
2631 1 0.139394 -0.508539 -3.65442 
16793 2 1.16456 -0.752939 4.89923 
3944 2 3.87141 -3.40802 -1.74727 
16794 1 -1.53046 -1.01066 -8.87764 
13249 1 3.70157 -5.71086 -6.24808 
13250 2 1.4994 0.0163151 -5.30142 
11185 1 -3.3743 -0.970733 0.311274 
11186 2 1.79321 -1.3415 -1.01301 
21318 1 3.20537 3.88163 -2.55862 
21317 3 1.26867 -2.32064 -1.39714 
11187 1 -1.97857 6.86082 -1.75219 
877 1 1.84546 -5.79192 -3.61764 
5653 1 0.368926 5.70962 -0.977916 
878 2 0.411811 -4.08377 -0.264154 
5654 2 0.108782 1.91802 -0.0766105 
15543 1 0.210353 -3.368 -0.916755 
15542 2 -1.12334 -4.93195 1.78627 
3079 1 -3.0052 3.5688 -1.92551 
13141 1 3.67855 -2.30545 1.06131 
13142 2 -0.941687 -1.01307 -2.87723 
7932 1 0.852686 4.12788 4.51044 
16749 1 -1.67725 -4.70372 2.06158 
1693 1 -2.36855 -0.545039 -3.5259 
9578 2 0.438358 2.14577 -0.814816 
7931 2 -0.392661 -1.80482 1.71264 
9579 1 3.85365 -3.89041 -3.51755 
7930 1 -3.84908 8.72608 -3.68333 
12923 2 0.626346 3.09455 0.165225 
15102 1 -3.23473 -3.96023 4.80962 
12924 1 -3.13628 -1.8761 -3.36551 
1719 1 0.824356 -1.91666 -2.97556 
19370 2 -2.1636 -4.21908 -2.56434 
15100 1 -0.0684161 3.5775 3.10879 
19371 1 2.85008 1.52835 -0.775388 
15101 2 -0.530322 -1.35873 -0.621399 
20135 2 0.429255 2.64432 -0.479187 
13528 1 2.55612 -3.60695 1.90765 
20575 1 4.12805 -3.9079 4.35764 
20576 2 -1.18727 0.282419 2.47065 
20577 1 -3.62193 -1.10661 -1.71332 
9733 1 -1.91798 0.812088 2.49091 
11544 1 -0.989216 0.309981 3.11408 
9734 2 2.68529 -1.13504 1.49702 
1695 1 0.252784 -2.69735 -7.50083 
1694 2 2.00729 -0.480719 -2.09917 
13529 2 3.32316 4.65966 2.30189 
13530 1 -1.79956 -2.95932 3.49067 
1012 1 -0.316445 5.88847 0.217492 
17625 1 1.23875 -0.343545 -0.266665 
12922 1 -0.524699 -2.26776 -7.50581 
1017 1 3.04107 -3.81092 0.040851 
1016 2 -0.49513 2.38186 6.11827 
1015 1 1.29181 4.67633 1.16996 
17362 1 -0.0897019 -0.876159 7.88146 
20136 1 -1.30381 0.412672 0.996936 
11920 1 -4.67068 1.31404 0.838483 
11921 2 -2.27073 -2.48933 0.755824 
11922 1 -1.09218 1.65833 -7.09027 
11543 2 -2.42395 2.74541 2.10273 
11542 1 -0.175772 -8.12636 5.02585 
1014 1 -2.30769 3.12001 0.876906 
1013 2 1.47532 2.09321 -0.651109 
11775 1 1.33135 2.66422 4.48141 
16945 1 -3.86154 -1.60214 1.32472 
7763 2 -2.17218 0.397054 3.0026 
15793 1 -5.86894 -1.31686 -0.697357 
16946 2 -1.7126 -0.793787 2.65563 
7762 1 -0.375917 1.77845 0.151599 
15795 1 2.59354 -2.41732 2.83907 
15794 2 0.670531 2.24885 1.66811 
12855 1 -1.03362 0.271821 -0.463761 
12854 2 -1.52586 0.0335164 -1.42192 
14755 1 -2.21915 4.48716 4.32046 
12853 1 0.153117 2.06285 0.766144 
5485 1 5.47971 -3.26486 -1.66461 
5486 2 7.9411 -3.39767 -4.55981 
5487 1 -2.51853 -3.13629 1.2766 
14756 2 -3.0162 1.88105 0.567685 
16531 1 -0.193981 -0.250078 -5.90243 
5168 2 -0.966924 3.08509 2.1112 
5167 1 6.81764 3.72212 -2.2422 
6446 3 -4.72976 4.01427 0.99739 
7890 1 3.05642 -0.0697799 -2.14648 
5169 1 -4.51166 1.56953 1.9711 
7889 2 4.65962 3.94244 3.90729 
6445 1 4.12008 -1.24379 0.832991 
8961 1 0.832151 2.49475 -1.42065 
8959 1 -3.06255 2.67563 5.12795 
8960 3 -2.70172 0.656642 3.18634 
18064 1 -1.41869 7.08389 -2.60553 
4311 1 -2.2797 -3.54914 2.96634 
4310 2 -0.0441208 1.41324 3.26545 
4309 1 -6.15025 -5.77997 0.473295 
8586 1 0.978421 4.04262 -1.27814 
12903 1 8.68942 -0.454302 3.6211 
12902 2 -4.05033 -1.64918 -0.817724 
12901 1 -2.93413 -2.80917 3.24658 
9537 1 5.51758 -3.01456 2.09975 
8585 2 -0.208221 -0.92117 -1.24607 
12562 1 -0.855897 1.37195 -0.386917 
1267 1 -1.76356 2.54021 3.84297 
1268 2 1.04411 -4.32624 -0.719693 
12563 2 -3.1685 4.36847 -3.04518 
12564 1 0.127683 -2.80631 -5.16689 
5496 1 -5.35881 5.52271 -0.0632006 
13163 2 -0.86945 -2.12026 -3.62277 
14757 1 7.17317 -1.88035 6.14375 
15976 1 -0.785825 -1.52663 -1.61302 
15977 2 -1.63152 -3.03609 0.741907 
7888 1 3.40154 1.29827 2.31691 
7738 1 -3.37398 3.89693 0.171048 
7739 2 5.46757 2.57034 4.48013 
6447 1 0.730875 0.272722 -2.65617 
7740 1 4.38468 2.15145 -6.70045 
19007 2 1.7477 -0.704419 -0.274541 
19006 1 2.56781 1.84974 -3.11188 
9466 1 2.20936 2.69211 -2.20876 
13911 1 -0.49491 -1.81237 7.51222 
9467 2 -1.54964 0.83972 -0.912732 
9382 1 -1.20618 -1.10396 1.37611 
7818 1 1.00596 2.87849 0.957814 
9383 2 2.68436 -0.664982 -0.980103 
10381 1 -7.48073 -0.92964 0.38064 
9384 1 0.109148 0.0309551 5.29936 
15618 1 -5.35005 -5.71968 -2.01441 
4251 1 2.19215 -0.53868 -6.5737 
19722 1 -1.92262 2.5751 5.4234 
19721 2 0.708514 -0.768862 -0.2854 
7817 2 -0.974905 4.53632 -0.450667 
10054 1 1.01107 5.07426 5.77711 
7816 1 -4.37584 4.19554 1.45849 
15511 1 3.05937 -0.753814 -5.1709 
15513 1 -0.68887 6.26288 0.837444 
15512 2 3.34644 -0.484003 3.2763 
10466 2 1.43269 -0.161185 -1.54164 
10467 1 -2.69401 1.62738 3.6782 
2434 1 1.89389 -5.85455 -0.0332815 
2435 2 1.42421 0.658125 -2.21867 
2436 1 2.8735 -1.12628 -1.86985 
10465 1 -1.10562 -2.99493 1.73846 
14296 1 -1.12211 4.72847 1.04312 
19720 1 -2.40041 -2.45267 -2.24719 
8571 1 -4.99006 2.12253 -4.81383 
11008 1 -0.370651 -2.84965 0.147523 
8570 2 1.77254 2.10761 -4.03209 
8569 1 2.2075 -1.448 -8.98737 
5495 2 2.52556 3.97986 3.53529 
5494 1 -0.62579 -2.81269 -1.08944 
21359 2 0.622419 1.02469 0.387474 
21358 1 1.66289 -1.69396 0.81193 
17148 1 0.241749 2.29474 -2.15523 
6873 1 -0.324205 -3.28094 -0.00604434 
17147 2 -2.13486 -2.35507 0.767821 
17146 1 3.94682 -4.02937 1.30364 
20251 1 0.736717 0.860524 1.51882 
20252 2 -2.58591 3.37438 -0.541088 
20253 1 -4.67718 -0.267593 0.242563 
20917 1 7.16466 -2.21184 2.86596 
16581 1 5.85925 -0.798507 -4.02421 
16579 1 -1.71648 1.90595 -0.080343 
1337 2 -2.80403 1.91134 0.786385 
1338 1 -6.821 -2.52095 -1.83128 
13910 2 -3.39077 2.85922 -1.23024 
13909 1 5.88056 0.515254 2.13757 
1336 1 -3.39981 6.42944 0.604658 
18822 1 -1.45864 -0.147813 -2.51157 
16580 2 -2.5388 1.06891 0.00665888 
467 3 -0.0522974 -2.24141 2.9398 
9468 1 -0.49488 0.814006 2.06547 
16448 2 3.10379 -1.00426 -0.3739 
5223 1 0.342487 -6.95397 3.53155 
10383 1 -1.60904 2.506 2.59211 
5222 2 -1.86178 -1.11341 6.36005 
5221 1 1.1088 0.427639 -3.06109 
13251 1 2.69813 -2.73681 0.943284 
16447 1 2.68033 -4.18122 2.18526 
10382 2 -1.69965 -2.89801 0.469377 
5083 1 -1.84655 1.11632 -5.55489 
5084 2 -0.480947 -0.351196 4.90592 
10055 2 0.872669 -1.1851 1.54443 
14297 2 -0.446265 -4.3955 -4.99367 
20104 1 -6.23307 8.73047 -1.98985 
6714 1 4.70848 2.36126 0.403255 
20106 1 -0.187247 2.5861 -2.31156 
20105 2 -1.64413 -0.0490133 -3.57373 
14298 1 -1.76864 -1.07452 -2.90694 
11009 2 2.5008 -0.662081 0.302353 
3081 1 -1.68584 -2.2674 -1.5482 
6712 1 -2.66012 -1.43368 -1.88471 
18932 2 -1.35658 0.262903 0.865518 
6713 2 0.790169 1.62966 -1.67674 
15331 1 0.339102 -1.63923 0.874139 
13834 1 -3.10113 -4.2926 -3.61258 
13835 2 -1.18006 -1.2117 0.0548635 
18933 1 0.209639 2.93203 1.88963 
588 1 0.442543 -0.857489 -0.937812 
12858 1 -2.76872 2.27337 2.87505 
17421 1 -2.51156 3.76858 5.10896 
587 2 1.5814 2.99596 1.05011 
17419 1 -8.84507 -1.86545 0.818075 
17420 2 0.32627 3.2794 0.602329 
13836 1 -4.56945 -0.858435 -0.5084 
586 1 -0.101007 0.776867 -0.767356 
15332 2 -1.35794 0.15668 -1.82953 
12857 2 3.92926 -6.76579 -1.43132 
4495 1 -2.78678 4.98996 -6.00216 
12856 1 0.619483 -4.17307 0.275272 
20918 2 4.67513 1.91557 2.68828 
17299 1 -0.110125 0.697405 3.03911 
16834 1 -2.4784 -5.18593 3.41799 
16835 2 -3.86462 -0.457933 -0.744965 
17300 2 -1.25861 1.90578 1.93711 
16526 2 5.97203 2.99518 -3.36324 
16525 1 2.93381 -2.55009 -3.244 
20919 1 -1.92723 1.93597 1.95417 
13522 1 2.58919 1.86536 -1.5694 
13523 2 2.15178 1.80723 1.15945 
2060 2 -2.73226 -2.75276 -3.09668 
2059 1 -2.298 -0.875753 0.636352 
3945 1 0.512155 -6.47631 -1.00639 
6201 1 -4.93486 2.46412 4.69822 
466 1 0.681291 -3.08521 3.13888 
13524 1 3.07563 2.01022 0.499619 
6199 1 7.34086 0.386879 -2.9576 
6200 3 0.64787 -0.823444 2.03353 
10343 2 -2.28646 0.651736 -2.45977 
10342 1 -3.56659 1.25266 1.56904 
7644 1 -0.875629 1.76174 4.80914 
7643 2 3.9442 -2.24267 0.218076 
7642 1 -1.08953 -3.4721 -0.709418 
21316 1 -0.985273 0.95911 -1.15584 
879 1 2.44247 -4.08027 -4.2272 
5916 1 -1.41974 1.33838 -4.21476 
15541 1 3.68468 -0.656375 0.253469 
10344 1 2.11974 -2.76722 1.71004 
11053 1 1.16846 6.65383 2.0474 
5915 2 1.92657 0.691106 1.47588 
5914 1 5.70425 -4.82651 -5.72281 
15333 1 -0.243445 -3.71628 -0.866158 
15464 2 1.01714 3.07353 2.94356 
14502 1 2.69785 2.07039 0.0401264 
15465 1 -10.7866 -0.714258 -1.21671 
15463 1 -0.264435 -0.475185 0.351436 
3318 1 -2.29612 7.9389 -6.16262 
14501 2 1.79156 0.781784 3.19271 
3245 2 4.19383 3.02574 2.39179 
16747 1 4.21758 -1.10749 0.0234379 
16748 2 -1.92265 -1.22574 3.47511 
3244 1 -0.338252 -5.66942 2.17197 
14500 1 2.10866 -2.17768 0.137637 
3204 1 4.01137 0.0526446 1.2725 
1717 1 -0.674872 -0.93788 -1.665 
6051 1 4.35731 0.115328 4.62877 
17301 1 4.30548 7.20546 7.02849 
6050 2 -2.74281 1.53768 -0.358561 
3246 1 4.70697 1.6724 -1.13123 
1718 2 5.83849 3.78901 2.56505 
6049 1 -10.3315 3.21141 0.834642 
2061 1 -2.36059 1.96584 -1.47501 
6760 1 -5.31866 -1.48525 4.48104 
18178 1 8.53504 -6.43096 -4.19632 
20134 1 3.73882 0.0326803 -0.754394 
19369 1 -2.63194 -3.91035 -1.95224 
6762 1 0.271221 -0.718848 4.25318 
5329 1 -4.43946 5.56804 0.194071 
6761 2 0.0580203 3.80097 -0.889588 
5330 2 -1.5954 4.30169 2.73958 
7594 1 -0.405731 2.04098 -1.81042 
10096 1 -4.03858 0.921942 3.28685 
7595 2 1.24066 0.19178 0.899496 
7596 1 6.94287 -3.41751 -0.443869 
10097 2 2.75589 3.68859 -0.306977 
5331 1 -1.07344 3.06875 0.553917 
11055 1 -2.20902 -1.17379 -3.36347 
11054 2 -2.44792 -1.74363 1.83325 
17624 2 -2.37543 2.35688 -0.694667 
3203 2 1.42919 -3.78583 0.596664 
3202 1 -2.84856 -4.77766 -1.12508 
17623 1 -1.67556 0.125653 -1.0155 
20865 1 3.55496 -2.83005 0.443246 
20863 1 -5.44154 3.26454 3.89571 
12228 1 -0.181718 3.12196 -3.14018 
20864 2 1.98212 -0.143891 0.434234 
12227 2 2.0394 0.188313 -2.74013 
12226 1 -0.827608 0.345348 -1.26523 
5383 1 -0.0867742 -0.88559 2.21822 
5385 1 3.88077 -2.21228 6.05132 
5384 2 0.380944 -0.954695 1.08781 
7764 1 0.418489 3.24774 0.843926 
16947 1 5.16271 -1.13178 5.74407 
5690 2 0.374422 -0.0590534 -1.37454 
9536 2 1.62311 0.469638 -2.62437 
5689 1 -1.24206 1.80953 -2.75889 
9535 1 0.879909 0.957098 3.3423 
1269 1 -2.56898 3.50338 -3.46634 
4642 1 8.24336 -3.39673 0.499385 
4644 1 -3.8176 2.69321 2.14487 
15726 1 2.86552 2.98743 0.0295031 
15725 3 -3.26539 -2.59644 -0.510789 
4643 2 -4.45328 5.34573 -3.49259 
15978 1 5.16243 -0.0435405 -4.57274 
21360 1 5.88762 1.19838 -7.37133 
1224 1 -1.8741 -4.43428 6.84877 
16532 2 0.187617 3.5882 0.280756 
16533 1 -4.7784 -2.23311 3.18209 
19179 1 -5.71864 -10.5799 2.11961 
19178 2 -0.0802092 2.22876 2.0623 
19177 1 4.722 0.492889 0.533596 
1223 2 5.89318 0.215127 -0.0120922 
6053 2 2.40395 1.58394 1.20805 
6054 1 1.2736 0.255263 0.290165 
19008 1 0.681314 -9.57303 -0.120033 
6052 1 1.19637 4.72535 -1.91539 
15616 1 1.07897 -2.33849 7.39526 
15617 2 -0.24674 0.360806 -0.969503 
11354 2 0.571644 1.16249 0.0172937 
4409 2 1.73873 -2.61755 2.63558 
4408 1 4.639 2.54031 4.38651 
4410 1 0.703736 3.69367 0.806141 
11779 1 0.205161 2.27194 2.62113 
11780 2 2.18526 1.95046 0.0474007 
3310 1 0.0266362 2.8318 3.82937 
3350 2 0.514978 4.12891 -0.819499 
3349 1 2.14181 1.47015 -0.98346 
3351 1 0.849526 -3.83381 5.36725 
1222 1 2.18126 0.954513 -0.533077 
3311 2 -5.50956 0.241861 0.409782 
21204 1 -0.521756 0.279695 -3.55352 
21203 2 -0.686421 0.0180185 0.939255 
21202 1 -3.57052 4.55056 0.0950742 
13114 1 -0.162841 -2.13472 3.31027 
13115 2 1.90423 1.86514 2.57165 
13116 1 -0.425414 3.59013 -1.53375 
18821 2 1.46558 0.0144257 2.42049 
18820 1 -0.154252 0.213311 -1.68212 
468 1 2.36565 -4.06362 2.48526 
13133 2 0.598146 -1.99509 6.07168 
13134 1 -0.233303 1.81446 0.103583 
13132 1 -0.554968 3.5623 3.61292 
11353 1 0.614226 -5.87948 -3.48546 
5085 1 -0.810518 1.81415 2.28957 
12808 1 -2.92032 1.33125 -4.82241 
12809 2 1.03659 1.9457 -1.29407 
12810 1 -4.28513 -2.14149 1.24986 
12472 1 -1.072 -4.09696 6.19189 
12473 2 3.35371 -4.00796 2.40273 
12474 1 2.25165 5.98737 -0.30563 
20152 1 2.30689 -1.2198 -4.22793 
20153 2 2.00514 0.0899898 2.50262 
3312 1 2.50226 1.26851 7.68684 
4607 2 -0.538598 4.5265 1.17022 
4608 1 -0.855528 -2.51096 5.16678 
11781 1 1.75388 7.99545 2.69626 
4606 1 -0.0513828 -3.0427 4.00407 
9910 1 0.663794 0.362408 -0.96092 
16836 1 0.00227547 4.94582 -3.54242 
9911 2 -0.502921 -0.673229 2.52824 
16691 2 -4.14161 1.40743 -3.25557 
16690 1 -1.95233 -5.02475 -4.43767 
17877 1 -3.47183 -7.21718 1.92007 
17876 2 1.12778 -1.72681 -2.46798 
17875 1 2.43281 -1.66308 6.09134 
18311 2 0.845732 2.2735 3.30936 
18312 1 -2.55738 -1.71513 -1.04349 
3316 1 -2.95828 2.56851 -1.1134 
18310 1 -2.16244 3.15805 -1.60375 
3317 2 -0.869542 -2.41964 -6.26725 
8982 1 2.08169 -0.905823 7.52831 
8980 1 3.62153 4.28019 -2.55045 
8981 2 2.92721 -3.54604 -0.808406 
18180 1 3.09143 0.841756 -0.879679 
9912 1 3.53533 0.992965 0.0748152 
18179 2 1.16887 1.30618 -3.21715 
10098 1 -0.0939045 2.09188 2.19024 
5691 1 2.60742 -6.08738 2.57215 
19488 1 1.00266 2.08401 3.81812 
15724 1 -3.0104 -3.37131 -1.63176 
19487 3 -3.89834 1.01008 1.94006 
19486 1 -1.77732 1.79763 4.32594 
8890 1 4.89406 -5.01351 0.0406372 
5659 1 7.14529 1.66031 -1.67427 
5660 2 -3.10249 -4.39299 -1.72349 
8891 2 2.84125 3.65971 2.26481 
8892 1 -1.44752 8.90845 -5.20396 
5661 1 -4.71855 2.18925 5.33827 
11355 1 1.18884 -2.94569 6.80243 
9198 1 -1.86698 -0.686107 0.21133 
17187 1 -0.695622 -5.54925 -5.78517 
17186 2 -3.31163 -1.90873 -2.825 
17185 1 4.56306 4.23826 1.98644 
20154 1 5.35992 -0.36229 3.22812 
16692 1 0.121489 -0.927143 3.9263 
9196 1 0.249189 -4.73185 -2.6177 
9197 2 -1.6897 -5.51356 0.933229 
7056 1 -1.2013 -0.494163 0.542709 
5071 1 8.24124 2.79906 -4.23419 
5073 1 -1.82313 -2.65355 -1.2589 
5072 3 1.19794 -1.4365 2.92485 
15111 1 -6.96061 -0.418169 -0.312068 
7054 1 -5.32815 4.7477 -0.511987 
7055 3 -0.669759 1.88485 0.01376 
15110 3 0.428106 -1.86057 -0.784364 
15109 1 -5.87449 -4.63755 3.40846 
4218 1 0.767732 -4.85352 0.605761 
4217 3 -0.0829806 -3.29126 2.97805 
4216 1 4.60625 3.90122 -3.11082 
16236 1 -2.10246 -0.984052 2.39727 
16235 3 0.138798 0.94243 0.156977 
16234 1 -7.72839 2.50331 3.43678 
3126 1 -3.14671 -6.93379 2.51485 
20439 1 -5.16104 -1.5418 3.62345 
3124 1 1.22603 0.305232 1.0493 
3125 3 -5.446 -2.01299 -2.8653 
20438 2 3.66943 2.7534 0.818806 
20437 1 4.86156 -0.626677 0.333743 
1525 1 3.98504 0.0154613 1.2609 
1526 3 0.234082 3.97115 0.93744 
7577 3 4.42476 -2.89707 -1.83342 
7576 1 1.29635 1.10899 2.2847 
18564 1 0.0684357 0.54659 -2.71403 
7578 1 -0.369972 1.32313 -1.18232 
1527 1 -1.78569 -1.41508 1.94959 
12461 3 -2.81006 -3.7128 0.352488 
12460 1 2.87872 -5.66343 -6.66831 
12462 1 1.66338 1.30494 6.61699 
16780 1 5.86657 -5.61947 2.87492 
16781 2 -1.86792 -0.871671 4.50893 
8727 1 4.56856 -1.86338 -6.08891 
17203 1 7.58671 2.16781 2.98214 
18212 2 0.376554 0.481534 -1.34473 
18213 1 2.21443 0.897259 -10.3128 
8767 1 -2.32344 -0.338609 4.21298 
17204 2 0.553078 -1.13344 -4.15775 
17205 1 2.99387 0.804353 -3.25277 
18211 1 0.626818 0.271272 3.61869 
6664 1 -0.59187 -2.19876 2.92298 
8726 3 -1.88366 -1.08488 -0.257635 
8725 1 0.550141 -3.69392 1.26137 
8769 1 -1.50866 1.7037 5.94435 
971 2 1.25299 3.8785 2.79627 
972 1 6.16823 -2.82926 2.24275 
6666 1 1.07426 -4.8256 2.10526 
970 1 -0.898906 -3.86493 3.11314 
8768 2 -1.56538 1.6383 -1.48269 
6665 2 0.147807 1.51731 -0.910752 
5033 3 -3.95239 2.30364 -2.37198 
2186 2 -3.43707 1.38639 -3.54679 
2185 1 3.47657 0.113503 -5.88238 
20392 1 -3.83782 6.23229 -0.410249 
5032 1 3.75531 3.1822 5.61152 
2187 1 7.71303 -0.111267 5.31704 
20393 2 2.6792 1.09864 -0.727138 
20394 1 -2.05067 -4.0238 4.12686 
12816 1 -1.27969 0.694671 0.20028 
14932 1 -2.40537 -2.17029 -0.667038 
13824 1 0.897418 4.38552 0.329073 
9814 1 5.32366 -6.22994 0.420885 
13823 3 2.05567 -3.18849 6.06948 
13822 1 -1.37934 2.08977 1.18865 
14052 1 1.13978 -1.55726 1.56339 
14051 2 -0.164206 -2.90088 -2.07037 
2094 1 -0.839261 -2.13263 0.858751 
14916 1 2.18619 -1.88151 0.0239022 
14914 1 6.50419 -5.51117 -6.86656 
13119 1 -2.22831 -2.14425 6.07427 
13118 2 -0.494166 -1.0021 -0.873307 
13117 1 0.730042 -2.87392 -1.72251 
4546 1 1.83277 3.08423 -1.42062 
14915 2 -6.40178 0.284545 1.05134 
4548 1 3.71187 8.45998 1.77943 
4547 2 -0.578583 0.513652 0.0307673 
18562 1 7.19024 -0.392018 -3.71279 
18563 2 -4.62452 -3.68001 -1.39087 
2198 2 -0.063499 1.54562 2.10959 
2199 1 2.08508 1.77712 -8.60719 
16313 2 2.82447 2.96967 -3.63566 
9815 3 3.0881 -1.5472 -0.99829 
9816 1 -1.177 4.79921 0.444586 
20727 1 1.9427 0.918059 4.32214 
20726 2 -1.01001 5.11944 2.03419 
20725 1 -2.75967 -4.03402 1.35212 
2140 1 -0.44236 6.82875 -1.7003 
2141 2 -1.06595 2.20895 -4.14859 
18382 1 -2.63379 0.501791 6.49141 
18383 2 2.17426 0.345346 -0.816909 
1094 2 2.09121 -2.60679 1.42991 
2142 1 -5.05505 2.65565 0.539564 
16782 1 2.32612 -1.2867 -0.325765 
20490 1 -3.37863 -2.11812 4.16265 
10659 1 -0.268323 1.29097 -2.23655 
10658 2 -1.52662 2.64057 0.471289 
10657 1 0.452455 3.66065 -3.26699 
2197 1 3.123 -1.76927 1.10601 
20488 1 -1.94433 -0.209825 -4.91491 
20489 2 2.39987 1.14434 -0.284257 
8872 1 -1.82207 1.12721 -1.84961 
18418 1 -0.957606 -0.39658 1.39131 
19392 1 0.0971258 3.09117 0.35513 
5424 1 -3.85887 -1.31114 2.58887 
16312 1 2.11894 1.12004 2.06995 
5423 2 -4.96389 2.12222 -4.14452 
5422 1 -2.10621 0.333398 3.10991 
19391 3 2.17425 2.15553 4.21561 
19390 1 -0.996471 2.48084 -9.57014 
10275 1 -0.934914 3.70002 1.38388 
10273 1 0.0541564 -2.19321 0.676945 
10274 2 5.53581 -0.782657 -0.495221 
14790 1 -2.99362 3.5809 6.871 
14789 3 -3.84611 0.0178656 -0.504483 
14788 1 0.521489 3.04997 -1.74504 
5034 1 1.99987 -1.43136 -3.33671 
14809 1 0.0137191 -3.43759 8.33551 
14810 2 -1.98337 -0.468576 -1.76247 
14811 1 -5.44275 -1.41533 4.06913 
7203 1 -1.88806 -6.64232 0.777307 
7202 2 -2.25217 -3.19138 1.8702 
13189 1 3.10177 -2.30199 -7.20346 
13190 2 -4.59513 -1.98617 3.73754 
10755 1 -1.7705 -1.74481 4.54252 
13191 1 -5.80881 -0.959508 -0.484376 
2007 1 1.08732 -4.57233 1.3134 
8874 1 -2.29469 -6.46397 3.94189 
2006 2 -1.66886 0.220666 2.02697 
18419 2 -4.59966 2.86172 -2.18258 
18420 1 -3.95648 -0.307898 -0.534698 
9904 1 -2.04595 -0.379452 2.64434 
8873 2 -1.04643 1.25848 -0.998931 
8284 1 -0.830173 1.42828 -1.35073 
8285 2 -2.2969 -0.905458 3.01814 
9906 1 -4.42826 -5.67252 -0.246874 
9905 2 1.99335 2.45246 0.576925 
2005 1 -3.94821 -0.57284 3.92891 
8510 2 -4.2063 -1.21076 0.463795 
11749 1 1.60754 -1.35788 2.23183 
8511 1 1.43516 4.93601 -1.84588 
8929 1 0.159947 2.19169 -2.78164 
19691 2 0.236037 1.98587 -0.753339 
19692 1 3.12061 -9.89068 -4.94677 
8931 1 7.37184 2.07042 -3.5145 
8930 2 -3.32588 1.47958 2.18205 
15090 1 2.58171 3.73379 2.65421 
2770 1 0.232811 4.40649 2.40903 
8286 1 0.330085 3.39854 3.27967 
14344 1 -1.06419 3.82096 2.4436 
12815 2 4.5672 -0.542943 -2.39944 
20612 2 1.87555 -0.0741706 2.49285 
11985 1 -0.330724 -1.43279 0.210311 
20613 1 1.98011 0.870139 -4.23657 
14345 2 -5.26825 -4.97998 2.26564 
8509 1 3.41997 -1.32321 1.19249 
20611 1 0.822926 7.81844 4.98254 
12814 1 -4.24225 2.84662 -3.76684 
3486 1 3.97842 -1.52085 -10.4162 
3485 2 -0.462268 0.862875 -0.398948 
3484 1 -3.64824 -7.35055 -0.122806 
4212 1 -0.781835 4.84288 3.52182 
4210 1 -0.836065 0.216948 -2.13934 
9651 1 0.246268 -2.79708 -1.34814 
4211 2 2.76015 -2.83323 -2.93457 
15088 1 -0.972547 -4.45666 -3.64291 
15089 2 3.9259 1.98122 -4.54702 
9650 2 1.22692 -1.76274 0.00166342 
14934 1 -4.84032 -1.94488 3.65225 
14933 2 1.98737 -0.414764 -1.40589 
10216 1 -6.08046 -3.05342 3.67287 
10217 3 -2.5168 1.42455 2.05669 
431 2 -1.96192 -0.43612 2.26111 
432 1 -4.54675 2.19067 1.09173 
9783 1 4.99559 0.766954 -1.65646 
430 1 -2.67199 -1.9067 -0.839686 
10218 1 -8.52067 -0.52392 1.47336 
16637 2 1.50351 -1.00444 3.02601 
9782 2 0.768727 0.909826 -1.81027 
16636 1 -2.23163 -1.01175 1.54899 
14050 1 6.00482 2.96226 -1.28826 
2092 1 -2.66311 0.539083 1.53654 
2093 2 0.375373 1.07976 1.39912 
14925 1 2.55768 -2.32316 5.16742 
18384 1 3.01929 4.91109 0.687726 
14923 1 -2.22653 -0.378435 -1.49664 
14924 2 1.78761 -1.02006 -0.767579 
18889 1 1.14678 -2.56273 0.083557 
2371 1 -2.39373 1.16204 2.69742 
18891 1 1.50221 0.378773 -4.37078 
12802 1 -4.27027 -2.77331 -3.04565 
18890 3 -2.07791 -0.446296 0.957099 
10693 1 2.57243 -2.45888 -0.776526 
10694 3 -1.82801 -0.955834 -3.86549 
16314 1 -2.09167 1.43696 -3.59465 
10695 1 -0.614775 -5.55602 0.207335 
10887 1 -4.63254 2.81223 -0.443758 
6023 2 1.5247 2.33571 1.26928 
21118 1 -2.95279 -0.221997 -2.97673 
14967 1 5.1093 -1.01426 -3.27298 
1515 1 2.08776 2.92619 -6.22111 
1093 1 -3.14693 -2.91973 3.80264 
1095 1 -5.23363 4.04704 0.695806 
1514 2 1.82427 1.23674 1.23503 
6022 1 7.58863 -1.37469 1.16608 
12571 1 0.787436 -2.61963 2.99902 
1513 1 -0.0789458 -3.72945 -2.10952 
1374 1 -1.41554 0.0314503 -1.30073 
1373 2 -1.63825 2.9148 3.2379 
1372 1 0.121817 -3.60289 -0.253517 
4837 1 2.33093 4.05615 0.963636 
4838 2 -1.82512 -3.19624 -5.63288 
8954 2 2.14893 -2.29749 -1.06356 
8955 1 4.37786 0.411175 -1.97947 
8953 1 -3.5844 0.341104 2.94435 
21310 1 -1.21895 -0.502132 3.23787 
12803 3 -0.599856 1.06749 -2.46472 
12804 1 -5.54278 -2.64338 -2.52795 
1255 1 -1.79678 -3.4385 0.205683 
1257 1 -1.79 3.16422 -0.838306 
1256 2 -1.04514 1.87936 3.95534 
13305 1 -1.96786 -4.00145 3.43393 
3436 1 -3.86086 4.36726 -2.93179 
6024 1 -2.95348 1.31182 0.168846 
20371 1 1.12911 0.845171 0.194692 
20372 2 1.08667 -4.86688 1.93812 
20373 1 0.906994 1.0887 -4.12169 
13304 2 1.44008 2.56124 -2.56255 
13303 1 -4.08953 0.317225 -2.70486 
7201 1 -4.64111 -0.0693298 4.02916 
9838 1 1.14321 -1.56747 2.64446 
10754 2 -3.44834 1.28532 2.41605 
19070 2 -1.52944 -1.61024 -4.51907 
19069 1 0.537411 -2.06106 -4.99048 
5676 1 5.31722 0.961781 -5.30425 
19071 1 2.10653 -8.73281 3.4411 
10753 1 0.54029 6.44786 -0.683524 
9839 2 -0.613352 -1.86211 -2.52027 
4839 1 -2.10434 3.90207 9.53479 
627 1 0.925298 -2.43277 -0.200577 
626 2 3.87495 2.38304 1.3661 
14889 1 2.25903 -4.61797 2.43376 
11719 1 -3.90983 -2.38913 3.5321 
11721 1 0.333743 -5.30099 5.05729 
625 1 -4.1222 -5.75884 -1.3479 
11720 2 -1.36473 0.170261 -3.08375 
10560 1 -3.15418 -0.356822 4.04593 
15983 2 0.795833 2.09059 -2.24734 
15982 1 0.210451 1.29384 -1.84007 
13804 1 1.86108 5.79013 0.704834 
13805 2 1.64306 -2.79804 -0.897234 
21312 1 1.97784 2.46992 3.08283 
20782 1 -1.57051 -1.83298 2.97764 
20784 1 6.41097 -2.12313 -0.264624 
20783 2 3.62423 0.715897 2.66817 
21311 2 -0.384787 -2.04558 -1.20804 
10558 1 -2.45665 3.11818 0.142856 
10559 2 -2.5394 -0.89152 -2.88417 
21171 1 5.36608 -0.376668 4.93795 
21169 1 0.514261 0.347295 -0.527706 
21170 2 -2.41647 -3.78846 -1.79669 
3437 2 2.59293 6.03562 -3.94771 
3438 1 -0.109744 -1.81613 -0.832103 
4175 2 0.464116 -2.17698 5.09152 
2729 2 5.42577 1.79985 -2.85002 
16593 1 -1.51239 3.18084 4.38797 
16592 2 5.68856 -3.9 1.11672 
16591 1 1.64996 -2.10892 0.415227 
931 1 -2.73446 -3.16413 0.691809 
932 2 4.24844 1.0017 2.49735 
933 1 -8.36647 -0.59964 0.121952 
7405 1 -2.85491 -0.252469 -2.17106 
9840 1 -4.34136 -4.37665 3.67324 
6587 2 -0.729706 0.641309 3.22291 
2730 1 -2.9386 -1.95474 1.78245 
11750 2 -0.697917 -2.09226 -1.58778 
11751 1 1.08259 -0.89267 -2.45683 
14887 1 -0.838344 0.81361 0.383771 
14888 2 -0.694616 -1.42026 -0.124468 
6586 1 4.80326 0.157002 -0.663019 
16251 1 -1.36788 -2.52383 2.80238 
16250 2 -0.397054 -4.88393 -0.657586 
19690 1 -0.718418 1.71477 0.906247 
14590 1 1.73212 -6.96714 1.26174 
14592 1 2.41746 -3.38958 -2.84738 
14591 2 -4.12169 0.728007 0.852319 
12742 1 3.65078 5.59109 3.35937 
2630 2 1.10347 -0.8009 -3.15076 
2771 2 -1.24679 -4.97715 -4.16146 
2772 1 -7.67101 -3.44643 -3.10712 
15984 1 -5.8335 0.774975 2.147 
2629 1 2.99099 -0.19119 2.02631 
16162 1 0.901422 -1.20417 -2.20692 
12724 1 -0.325651 4.42863 -1.14229 
16164 1 -1.83717 3.39231 -3.91976 
12725 3 -2.66776 1.97109 0.348737 
16163 2 -1.00474 2.88588 3.25575 
12726 1 1.95718 -2.94694 -4.36591 
4515 1 -0.0106929 -0.655 -0.465475 
4514 3 -2.98149 2.78081 2.23832 
4513 1 -4.39577 -0.619083 -1.22915 
6813 1 -5.39338 -5.19185 -4.2122 
4174 1 -3.03007 2.30732 -2.03505 
6812 3 0.275381 -2.03597 -1.22619 
6811 1 -3.05779 1.27833 2.40884 
5856 1 -0.703258 -5.90384 0.55004 
1609 1 4.17155 -2.98161 1.14639 
11984 2 -0.182062 -1.63985 0.651375 
5855 2 -3.64924 -4.66174 -3.17445 
5854 1 0.468029 0.889374 -4.50501 
14784 1 -8.654 4.0708 4.03386 
14346 1 6.36932 0.385202 -0.661961 
14782 1 -2.47005 -1.59848 -0.222522 
14783 2 0.647131 -3.68789 -0.486414 
11983 1 7.50562 0.763859 -2.45181 
14731 1 -2.87682 -0.313997 3.10612 
5655 1 -4.93052 -7.79182 -0.568779 
14173 1 -1.84323 -2.74474 -2.21551 
14385 1 4.91164 -1.66752 1.34897 
14384 2 -0.0165544 -1.74276 -3.97851 
1611 1 -6.01495 3.64183 2.60813 
7407 1 0.40812 5.55892 5.01477 
1610 2 -2.60327 0.580081 -4.49957 
14383 1 3.12366 -5.82105 3.30758 
16249 1 -2.67195 -3.4199 -0.749335 
7406 2 -1.43877 -2.40087 4.24163 
13143 1 -1.82143 -0.254039 -1.38137 
2384 2 0.765715 2.11334 1.49104 
4117 1 -1.27021 -5.08278 -3.56162 
9649 1 0.0742964 -3.05281 -8.01162 
4118 2 -2.25699 -4.40472 -1.03878 
13966 1 -3.32721 -6.07195 -2.5881 
12744 1 0.952468 0.138928 3.69795 
12743 2 -0.0454937 -0.697907 3.41008 
13968 1 -1.18969 -1.04774 -0.800534 