ITEM: TIMESTEP
25000000
ITEM: NUMBER OF ENTRIES
1107
ITEM: BOX BOUNDS pp pp pp
0 50
0 50
0 50
ITEM: ENTRIES c_binfo[1] c_binfo[2] c_binfo[3] 
2 20566 20567 
3 14959 14960 
2 7729 7730 
1 7729 21147 
2 7730 7731 
2 21146 21147 
2 13228 13229 
2 13229 13230 
2 4594 4595 
2 4595 4596 
2 5398 5399 
2 17983 17984 
2 3191 3192 
2 3190 3191 
1 3192 15267 
2 20567 20568 
2 2204 2205 
2 2203 2204 
1 2203 21145 
2 21145 21146 
2 8524 8525 
2 8525 8526 
3 14960 14961 
1 585 16402 
2 584 585 
2 19660 19661 
2 583 584 
1 583 19660 
3 16402 16403 
1 14961 19662 
2 19661 19662 
2 1363 1364 
1 1363 14565 
2 1364 1365 
2 16294 16295 
2 16295 16296 
2 17984 17985 
1 14898 19483 
2 19483 19484 
2 20519 20520 
2 20518 20519 
2 15247 15248 
2 15248 15249 
2 14896 14897 
2 14897 14898 
2 21539 21540 
2 13348 13349 
1 13348 21540 
2 13349 13350 
2 6274 6275 
1 6274 13350 
2 6275 6276 
2 7249 7250 
1 7249 13228 
2 7250 7251 
1 6276 7251 
2 5399 5400 
2 16813 16814 
1 16813 17985 
2 3722 3723 
2 3721 3722 
1 3721 5400 
2 16814 16815 
2 4399 4400 
1 4399 16815 
1 4605 20319 
2 20318 20319 
1 19386 19485 
2 20317 20318 
2 19484 19485 
2 18782 18783 
2 15266 15267 
2 15265 15266 
2 19385 19386 
2 18781 18782 
1 13320 18781 
2 13319 13320 
2 20507 20508 
2 20506 20507 
1 5874 20506 
2 5873 5874 
2 5872 5873 
1 5872 8524 
2 14338 14339 
2 7174 7175 
1 7174 14338 
2 14339 14340 
2 9269 9270 
2 10939 10940 
2 10940 10941 
2 9268 9269 
1 9268 10939 
3 16403 16404 
2 7354 7355 
1 7354 8140 
3 8140 8141 
2 7355 7356 
3 8141 8142 
2 3001 3002 
1 3001 7356 
1 9642 16404 
2 9641 9642 
2 9640 9641 
1 5631 9640 
3 5630 5631 
3 5629 5630 
1 5629 20871 
3 19703 19704 
3 19702 19703 
1 10284 19702 
2 10283 10284 
1 8373 11163 
3 11162 11163 
3 11161 11162 
3 12536 12537 
2 6440 6441 
2 14564 14565 
2 14563 14564 
2 6439 6440 
1 6439 14563 
2 15085 15086 
2 15086 15087 
2 12256 12257 
1 12256 15087 
2 12257 12258 
2 7630 7631 
2 1544 1545 
2 7631 7632 
2 1493 1494 
2 1492 1493 
1 1492 5623 
2 5623 5624 
1 18177 20869 
2 20869 20870 
2 5624 5625 
1 1545 5625 
2 18176 18177 
2 20870 20871 
2 18175 18176 
2 1411 1412 
1 1411 18175 
2 10282 10283 
1 10282 15957 
2 17737 17738 
1 17737 21538 
2 21538 21539 
2 17738 17739 
1 9672 11161 
2 9671 9672 
2 9670 9671 
1 4689 9670 
2 4688 4689 
2 16369 16370 
3 12535 12536 
2 16370 16371 
1 6855 9343 
2 6854 6855 
2 9343 9344 
2 14167 14168 
2 6853 6854 
1 6853 14169 
2 18869 18870 
2 1543 1544 
1 1543 8145 
2 9344 9345 
1 7632 9345 
2 8143 8144 
1 8143 18868 
2 18868 18869 
2 8144 8145 
2 4400 4401 
1 4401 10905 
2 10904 10905 
2 18851 18852 
2 18850 18851 
1 16941 18850 
2 10903 10904 
2 13318 13319 
2 16940 16941 
2 16939 16940 
2 5335 5336 
1 5335 16939 
2 2257 2258 
1 2257 12750 
2 5336 5337 
2 7945 7946 
2 12749 12750 
2 7993 7994 
1 7993 14340 
2 12748 12749 
1 12748 15340 
2 15340 15341 
2 7994 7995 
2 7946 7947 
1 7947 9612 
2 15341 15342 
2 8242 8243 
1 8242 15342 
1 7995 16368 
2 8243 8244 
2 12296 12297 
1 12297 14491 
2 12295 12296 
2 3002 3003 
2 19732 19733 
2 19733 19734 
2 1663 1664 
1 1663 19734 
3 8371 8372 
3 8372 8373 
2 3163 3164 
1 3163 3687 
3 3686 3687 
3 3685 3686 
1 3685 11857 
2 11857 11858 
2 3164 3165 
1 9327 15112 
2 15112 15113 
2 9326 9327 
1 12258 15118 
2 15118 15119 
2 15119 15120 
2 11707 11708 
1 10605 11707 
2 11708 11709 
2 4510 4511 
1 4510 11709 
2 4511 4512 
1 3003 11520 
2 11519 11520 
2 9890 9891 
1 9891 11518 
2 11518 11519 
1 1413 2931 
2 1412 1413 
2 5356 5357 
2 5357 5358 
2 1664 1665 
1 1665 9837 
2 9835 9836 
2 9836 9837 
2 2914 2915 
1 2914 5356 
2 15956 15957 
2 15955 15956 
1 6216 15955 
2 6215 6216 
1 5358 21402 
2 6214 6215 
2 21401 21402 
2 4687 4688 
1 4687 9730 
2 9730 9731 
2 9731 9732 
1 9183 9732 
1 6573 12324 
3 6572 6573 
2 14917 14918 
2 3844 3845 
2 12322 12323 
1 3165 12322 
2 12323 12324 
1 9900 14917 
2 9898 9899 
2 9899 9900 
2 3845 3846 
3 1904 1905 
3 1903 1904 
1 1905 3846 
1 2997 16371 
2 17381 17382 
2 15113 15114 
2 2996 2997 
2 11092 11093 
2 2995 2996 
1 2995 11092 
2 15398 15399 
2 11093 11094 
1 6396 15399 
2 2930 2931 
2 10604 10605 
2 10603 10604 
1 10603 15397 
2 15397 15398 
2 2929 2930 
1 2929 3922 
2 3922 3923 
2 3923 3924 
1 3924 6235 
2 6235 6236 
2 9043 9044 
2 15238 15239 
2 15239 15240 
1 11973 15240 
2 16339 16340 
2 16340 16341 
1 2916 16339 
2 2915 2916 
2 14032 14033 
1 14032 16341 
2 2258 2259 
2 11972 11973 
2 7267 7268 
1 7267 9835 
2 7268 7269 
2 20879 20880 
2 20878 20879 
1 12381 20878 
2 12380 12381 
1 2259 20880 
2 11971 11972 
1 11971 16924 
2 16924 16925 
2 16925 16926 
2 17225 17226 
1 873 17226 
2 872 873 
2 871 872 
2 17224 17225 
2 1072 1073 
1 1072 17224 
2 21443 21444 
2 1073 1074 
3 6571 6572 
2 9611 9612 
1 6576 9610 
2 9610 9611 
2 6574 6575 
1 6574 20949 
2 368 369 
2 6575 6576 
2 367 368 
1 15495 21444 
2 18814 18815 
2 18815 18816 
2 3644 3645 
2 11464 11465 
2 11465 11466 
1 13587 18816 
2 13586 13587 
2 13585 13586 
1 13585 13956 
2 5857 5858 
2 1441 1442 
1 1441 5857 
2 1442 1443 
2 12368 12369 
2 12367 12368 
2 16604 16605 
2 16603 16604 
1 2025 16603 
3 17401 17402 
2 953 954 
2 952 953 
1 952 19182 
1 8310 17401 
2 8309 8310 
2 19181 19182 
1 11466 21045 
2 5858 5859 
2 20648 20649 
2 20647 20648 
1 5859 20647 
2 21044 21045 
2 2875 2876 
1 2875 21043 
2 21043 21044 
2 2876 2877 
2 21287 21288 
2 19180 19181 
1 10347 21400 
2 10346 10347 
2 10345 10346 
1 10345 15684 
2 15683 15684 
2 21400 21401 
2 21286 21287 
2 5089 5090 
1 5089 21286 
2 15682 15683 
2 11858 11859 
2 3496 3497 
2 3497 3498 
2 3178 3179 
1 3178 3498 
2 3179 3180 
1 3180 21289 
2 21289 21290 
2 21290 21291 
2 2024 2025 
2 2023 2024 
1 2023 10060 
2 10060 10061 
2 10061 10062 
1 10062 14919 
2 14918 14919 
3 16132 16133 
3 16133 16134 
3 133 134 
3 134 135 
1 135 16132 
1 16134 17823 
2 17821 17822 
1 17821 18295 
2 17822 17823 
2 18295 18296 
2 18296 18297 
2 17243 17244 
2 9325 9326 
1 9325 17244 
2 17242 17243 
1 17242 17403 
3 17402 17403 
1 954 4512 
1 5133 9889 
2 9889 9890 
2 6181 6182 
2 17659 17660 
2 17660 17661 
2 11219 11220 
1 11220 12580 
1 2877 11218 
2 11218 11219 
2 12580 12581 
2 1516 1517 
1 1516 12844 
2 12844 12845 
2 1517 1518 
1 1518 12397 
2 12397 12398 
2 12398 12399 
1 11859 12399 
2 9182 9183 
2 9181 9182 
2 4127 4128 
2 14851 14852 
1 14851 21132 
2 14852 14853 
2 7360 7361 
1 7360 13924 
1 7362 11094 
2 7361 7362 
1 13713 18297 
2 13712 13713 
2 13711 13712 
1 6183 13711 
2 5006 5007 
1 5007 12510 
2 12509 12510 
2 20198 20199 
2 12508 12509 
1 12508 20199 
2 5132 5133 
2 5131 5132 
1 5131 6181 
2 6182 6183 
2 8849 8850 
2 4067 4068 
2 4066 4067 
1 4066 8850 
2 20197 20198 
1 11298 20197 
2 8848 8849 
1 8565 8848 
2 14033 14034 
2 10448 10449 
1 10449 20811 
2 12581 12582 
2 11296 11297 
1 11296 12582 
2 20810 20811 
2 11297 11298 
2 13673 13674 
1 5616 13672 
2 16715 16716 
2 10447 10448 
1 10447 16714 
2 16714 16715 
2 115 116 
1 115 16716 
2 116 117 
1 13674 20655 
2 13295 13296 
2 20809 20810 
1 13296 20809 
2 13672 13673 
2 3101 3102 
1 117 871 
2 20947 20948 
2 20654 20655 
2 20653 20654 
2 4126 4127 
1 4126 20653 
2 9745 9746 
1 3102 20947 
2 9746 9747 
2 15494 15495 
2 17969 17970 
2 6175 6176 
1 6175 17968 
2 17968 17969 
2 6176 6177 
2 20948 20949 
2 15493 15494 
1 15493 16758 
1 9747 16756 
2 16756 16757 
2 16757 16758 
2 3643 3644 
2 382 383 
1 382 13954 
2 13955 13956 
2 13954 13955 
2 21406 21407 
2 21407 21408 
2 13430 13431 
2 383 384 
2 8308 8309 
1 384 8308 
2 9217 9218 
2 21380 21381 
2 21379 21380 
1 9219 21379 
1 19122 20200 
2 9218 9219 
1 12021 19180 
2 20201 20202 
2 20200 20201 
2 5090 5091 
1 13884 15682 
1 10203 11289 
2 11288 11289 
2 13883 13884 
2 13882 13883 
2 11287 11288 
1 11287 21291 
2 4169 4170 
2 4168 4169 
3 10675 10676 
1 10675 13429 
3 10676 10677 
2 13429 13430 
1 3639 13431 
2 8564 8565 
2 3638 3639 
2 3284 3285 
2 3637 3638 
1 3637 13596 
2 19121 19122 
2 12019 12020 
2 12020 12021 
2 15206 15207 
1 12846 15207 
2 12845 12846 
1 1782 19120 
2 19120 19121 
2 13294 13295 
1 5091 11884 
2 11884 11885 
2 10202 10203 
2 1780 1781 
1 1780 15727 
2 1781 1782 
2 15727 15728 
2 15728 15729 
2 11885 11886 
1 11886 20380 
2 21130 21131 
2 6314 6315 
2 20380 20381 
2 20381 20382 
2 6313 6314 
1 6313 20382 
2 21131 21132 
2 9011 9012 
2 20501 20502 
2 19183 19184 
2 19184 19185 
2 5005 5006 
1 5005 19185 
2 19790 19791 
2 19789 19790 
2 20500 20501 
1 19791 20500 
2 8314 8315 
2 8563 8564 
1 8563 19789 
2 8315 8316 
2 3770 3771 
2 15205 15206 
1 15205 15837 
1 3771 15835 
2 15835 15836 
2 15836 15837 
2 2638 2639 
2 8239 8240 
1 8239 20617 
2 8240 8241 
2 2639 2640 
1 2640 8241 
2 20617 20618 
1 4320 10048 
2 10048 10049 
2 20618 20619 
2 10049 10050 
1 6177 9012 
2 9010 9011 
2 9454 9455 
2 9455 9456 
1 9456 21408 
2 20093 20094 
2 20092 20093 
2 13595 13596 
1 2913 13594 
2 13594 13595 
2 3283 3284 
1 3283 16494 
2 16493 16494 
1 5280 7821 
2 7820 7821 
2 5279 5280 
2 5278 5279 
1 5278 16492 
2 16492 16493 
2 2911 2912 
1 2911 7702 
2 2912 2913 
2 7702 7703 
2 10201 10202 
2 7703 7704 
2 16693 16694 
2 3769 3770 
1 3769 16693 
2 16694 16695 
1 8361 9418 
2 9418 9419 
2 914 915 
2 9419 9420 
2 1790 1791 
1 915 21153 
2 1789 1790 
1 1789 13786 
2 13787 13788 
2 13786 13787 
2 4319 4320 
2 8359 8360 
1 8359 21502 
2 21151 21152 
2 21152 21153 
2 4318 4319 
1 4318 21151 
2 21502 21503 
2 21503 21504 
2 7819 7820 
2 8360 8361 
3 17465 17466 
3 10408 10409 
1 10408 17464 
3 17464 17465 
3 10409 10410 
3 4397 4398 
1 4398 10410 
3 4396 4397 
1 4396 11899 
2 11899 11900 
2 4133 4134 
2 4132 4133 
2 860 861 
2 5339 5340 
2 5338 5339 
1 861 5338 
3 12653 12654 
3 12652 12653 
1 3717 3723 
2 3716 3717 
2 3715 3716 
1 3715 9969 
2 4603 4604 
2 20015 20016 
2 20014 20015 
2 13024 13025 
1 13024 20014 
2 11900 11901 
1 8559 18786 
2 8558 8559 
2 8557 8558 
1 8557 11901 
2 4604 4605 
2 19384 19385 
2 4958 4959 
1 4959 19384 
2 4957 4958 
1 4957 15150 
2 7175 7176 
2 20099 20100 
1 8163 18783 
2 8161 8162 
1 8161 13740 
2 8162 8163 
2 20098 20099 
2 859 860 
1 859 7176 
2 1198 1199 
1 1198 10941 
2 5150 5151 
2 5149 5150 
1 5149 20098 
1 5151 17040 
2 17039 17040 
3 4700 4701 
3 4699 4700 
2 16280 16281 
2 16279 16280 
2 2743 2744 
1 2743 16279 
2 2744 2745 
2 15149 15150 
2 13739 13740 
2 13738 13739 
1 12654 13738 
3 6652 6653 
2 9967 9968 
1 9967 14614 
2 14869 14870 
2 9968 9969 
2 14168 14169 
2 3787 3788 
2 3788 3789 
2 13025 13026 
1 7239 13026 
2 14614 14615 
2 7238 7239 
2 16450 16451 
2 18785 18786 
2 16451 16452 
2 18784 18785 
2 10595 10596 
1 10596 18784 
2 10594 10595 
2 2167 2168 
1 2167 10594 
2 9044 9045 
2 16366 16367 
1 16366 16926 
2 16367 16368 
2 11327 11328 
2 11326 11327 
2 5939 5940 
1 5337 11326 
2 5938 5939 
1 5938 13479 
2 13478 13479 
2 991 992 
1 991 11328 
2 992 993 
1 1200 5809 
2 1199 1200 
2 5809 5810 
2 5810 5811 
1 5811 6648 
2 14491 14492 
2 17038 17039 
1 17038 17616 
2 16804 16805 
1 16804 18018 
1 14493 16806 
2 16805 16806 
2 14492 14493 
2 2803 2804 
1 2803 17614 
2 17614 17615 
2 17615 17616 
2 2804 2805 
2 14615 14616 
2 7237 7238 
1 2745 16720 
2 12136 12137 
2 16720 16721 
2 16721 16722 
1 16722 18721 
2 18721 18722 
2 18722 18723 
2 2168 2169 
2 7102 7103 
1 7102 12138 
2 12137 12138 
2 7103 7104 
1 7104 15148 
2 15148 15149 
2 3610 3611 
2 3611 3612 
2 13477 13478 
2 19046 19047 
1 17109 19047 
2 19045 19046 
1 6654 19045 
3 6653 6654 
2 18016 18017 
2 18017 18018 
2 17108 17109 
2 10267 10268 
2 2302 2303 
1 2302 10086 
2 2303 2304 
1 2304 14871 
2 14870 14871 
2 6394 6395 
2 6395 6396 
2 12962 12963 
2 4060 4061 
2 4061 4062 
2 9991 9992 
1 6237 9991 
2 9992 9993 
1 18870 21459 
1 12963 14658 
2 6236 6237 
1 14034 15195 
2 21457 21458 
1 9993 20004 
2 15193 15194 
2 15194 15195 
2 6250 6251 
2 21458 21459 
1 6252 6604 
2 6604 6605 
2 6605 6606 
2 6251 6252 
1 6606 17340 
2 6647 6648 
2 6646 6647 
2 9787 9788 
2 9788 9789 
2 6817 6818 
1 6817 9789 
2 18794 18795 
2 16847 16848 
2 16846 16847 
2 6818 6819 
1 4728 5118 
2 21442 21443 
2 4253 4254 
2 4252 4253 
1 4252 16846 
2 5117 5118 
2 5563 5564 
2 5116 5117 
2 14656 14657 
2 14657 14658 
2 10984 10985 
2 20003 20004 
2 20002 20003 
1 20002 20829 
2 20827 20828 
2 20828 20829 
2 4975 4976 
1 4975 20827 
2 4976 4977 
1 10986 16788 
2 10985 10986 
2 16786 16787 
2 16787 16788 
1 12042 13477 
1 3612 10705 
2 10705 10706 
2 10706 10707 
1 10707 18792 
2 18791 18792 
2 18790 18791 
1 18790 20679 
2 13705 13706 
2 12041 12042 
2 12040 12041 
1 12040 14062 
2 14062 14063 
2 14063 14064 
2 18793 18794 
2 4063 4064 
1 4063 16848 
2 4064 4065 
2 17107 17108 
1 17107 18793 
1 828 4065 
2 5564 5565 
2 7003 7004 
1 7003 20781 
3 20780 20781 
3 20779 20780 
2 18157 18158 
1 18157 20779 
2 10268 10269 
2 9293 9294 
2 9292 9293 
3 13925 13926 
3 13924 13925 
2 17380 17381 
1 16959 17380 
2 16958 16959 
2 16957 16958 
1 16957 19699 
2 19699 19700 
2 21097 21098 
2 21098 21099 
2 10085 10086 
2 19700 19701 
2 10084 10085 
1 7680 21097 
2 12961 12962 
1 12961 19360 
2 19360 19361 
1 8649 19362 
2 19361 19362 
2 8648 8649 
2 5570 5571 
2 8647 8648 
1 5571 8647 
2 7549 7550 
2 1279 1280 
1 1279 7549 
2 7550 7551 
2 1280 1281 
2 5615 5616 
2 5614 5615 
2 5569 5570 
1 5569 5614 
2 19523 19524 
2 19522 19523 
1 1281 19522 
2 17339 17340 
2 10865 10866 
2 5587 5588 
1 5587 10866 
2 12379 12380 
1 12379 19524 
2 10864 10865 
2 17338 17339 
1 17338 20928 
2 20905 20906 
2 20927 20928 
2 20926 20927 
2 3100 3101 
1 3100 20926 
2 4726 4727 
1 4726 6819 
2 4727 4728 
2 7679 7680 
2 7678 7679 
2 14042 14043 
2 14041 14042 
2 13904 13905 
1 2919 13905 
2 3737 3738 
2 3736 3737 
1 3736 12459 
2 12458 12459 
2 12457 12458 
1 12457 14041 
1 3738 7551 
2 13903 13904 
1 13903 16786 
2 14054 14055 
2 221 222 
2 220 221 
1 5589 13707 
2 5588 5589 
1 4677 9813 
2 13706 13707 
2 9812 9813 
2 14519 14520 
2 9811 9812 
2 4676 4677 
2 20677 20678 
2 826 827 
1 826 20677 
2 827 828 
2 20906 20907 
2 20678 20679 
2 14518 14519 
1 3894 14518 
1 14520 20907 
2 7004 7005 
2 2918 2919 
2 2917 2918 
1 2917 5610 
2 5609 5610 
2 5608 5609 
1 5608 21255 
3 21254 21255 
2 18158 18159 
2 15628 15629 
1 15628 18159 
2 15629 15630 
2 3892 3893 
2 9167 9168 
2 9166 9167 
2 3893 3894 
3 21253 21254 
1 3159 13926 
2 3158 3159 
1 12165 17232 
2 3157 3158 
1 3157 16878 
2 16876 16877 
2 16877 16878 
2 17231 17232 
2 2626 2627 
1 2626 18327 
2 2627 2628 
2 18326 18327 
2 17230 17231 
1 17230 18325 
2 18325 18326 
2 2249 2250 
2 13310 13311 
2 13309 13310 
2 2491 2492 
1 2491 2628 
2 13582 13583 
1 13311 13582 
2 2492 2493 
1 2493 17346 
2 17345 17346 
2 17344 17345 
2 8473 8474 
1 8473 17344 
2 13583 13584 
1 8679 10864 
2 8678 8679 
2 8677 8678 
1 8677 13584 
2 4675 4676 
2 2978 2979 
2 19058 19059 
2 19057 19058 
1 2979 19057 
2 20807 20808 
2 2977 2978 
1 2977 20619 
2 20806 20807 
2 12883 12884 
2 20360 20361 
2 14053 14054 
1 9090 14053 
2 4288 4289 
2 4289 4290 
2 9089 9090 
2 9088 9089 
1 9088 16476 
2 16475 16476 
2 16645 16646 
2 16474 16475 
1 16474 16645 
2 17860 17861 
2 17861 17862 
2 12884 12885 
2 20359 20360 
2 13505 13506 
2 13504 13505 
1 12411 13504 
2 12410 12411 
2 12409 12410 
1 7506 12409 
2 7505 7506 
2 12163 12164 
2 12164 12165 
3 2750 2751 
3 2749 2750 
1 2749 12163 
1 2751 19947 
2 2248 2249 
1 2248 16377 
2 16376 16377 
2 913 914 
2 18050 18051 
2 18049 18050 
1 324 18049 
2 322 323 
1 322 913 
2 323 324 
2 8474 8475 
3 12230 12231 
3 13106 13107 
2 16375 16376 
3 12229 12230 
1 12229 13105 
3 13105 13106 
1 13107 16375 
2 3196 3197 
1 3196 20310 
2 16646 16647 
1 16647 20308 
2 20308 20309 
2 20309 20310 
2 7504 7505 
3 19945 19946 
3 19946 19947 
3 12412 12413 
1 12412 19945 
3 12413 12414 
3 7969 7970 
1 3198 7969 
2 3197 3198 
3 7970 7971 
2 7832 7833 
2 7831 7832 
1 7831 7971 
