ITEM: TIMESTEP
25000000
ITEM: NUMBER OF ENTRIES
1107
ITEM: BOX BOUNDS pp pp pp
0 50
0 50
0 50
ITEM: ENTRIES c_binfo[1] c_binfo[2] c_binfo[3] 
2 17696 17697 
2 1855 1856 
1 1855 17695 
2 1856 1857 
2 17695 17696 
2 20080 20081 
2 20081 20082 
2 5929 5930 
2 5930 5931 
3 10289 10290 
3 21305 21306 
1 3186 21306 
2 14126 14127 
3 7265 7266 
1 11385 21304 
3 7264 7265 
1 7264 11383 
3 11383 11384 
3 21304 21305 
1 7266 8029 
3 11384 11385 
2 21221 21222 
2 21220 21221 
1 14127 21220 
3 8030 8031 
3 8029 8030 
3 12317 12318 
2 1127 1128 
3 3652 3653 
2 622 623 
1 622 3652 
3 3653 3654 
2 749 750 
2 748 749 
1 748 5836 
2 5836 5837 
2 5837 5838 
2 1126 1127 
1 1126 5838 
1 1857 11695 
2 11695 11696 
2 11696 11697 
2 14890 14891 
2 14935 14936 
2 4330 4331 
1 9321 11697 
3 7436 7437 
2 5123 5124 
1 2886 5124 
2 2885 2886 
2 5122 5123 
3 11375 11376 
2 4331 4332 
3 7435 7436 
2 1490 1491 
1 2427 7435 
2 1489 1490 
1 1489 18172 
2 18172 18173 
2 2884 2885 
2 18173 18174 
2 6989 6990 
2 6988 6989 
3 12674 12675 
3 12673 12674 
1 12673 17598 
2 5774 5775 
2 16352 16353 
2 5773 5774 
1 5773 9678 
1 1203 20082 
3 1202 1203 
3 1201 1202 
1 1201 10167 
2 10166 10167 
3 10288 10289 
3 17161 17162 
1 17161 18174 
3 17162 17163 
1 570 17163 
3 569 570 
3 568 569 
1 568 21055 
3 3184 3185 
1 3184 9712 
3 9712 9713 
3 3185 3186 
3 9713 9714 
2 10957 10958 
1 10957 21166 
2 10958 10959 
2 21167 21168 
2 21166 21167 
2 15455 15456 
2 14125 14126 
1 14125 15454 
2 15454 15455 
2 15803 15804 
2 9677 9678 
2 15802 15803 
2 14977 14978 
2 14978 14979 
1 14979 15802 
2 21055 21056 
2 21056 21057 
3 343 344 
3 344 345 
3 12316 12317 
1 12316 16666 
3 16666 16667 
3 16667 16668 
1 7062 16668 
3 7061 7062 
3 11567 11568 
3 9808 9809 
3 1501 1502 
1 1501 5274 
3 1502 1503 
2 16412 16413 
2 623 624 
1 8064 8154 
2 8063 8064 
1 624 8062 
2 8062 8063 
2 8153 8154 
1 3411 14892 
2 3410 3411 
2 3409 3410 
1 3409 18045 
2 14891 14892 
1 6972 14937 
2 6971 6972 
2 14936 14937 
2 6970 6971 
1 6970 21394 
2 21394 21395 
3 5744 5745 
2 6104 6105 
2 4102 4103 
1 4102 6103 
2 6103 6104 
3 5743 5744 
1 5743 6105 
2 6077 6078 
2 14758 14759 
2 14759 14760 
2 14069 14070 
2 6589 6590 
2 14068 14069 
2 17917 17918 
2 17918 17919 
2 6590 6591 
2 13352 13353 
2 13351 13352 
1 13351 17917 
2 9319 9320 
2 9320 9321 
2 7024 7025 
1 7024 9319 
2 7025 7026 
2 1307 1308 
2 1306 1307 
1 1306 11967 
2 4103 4104 
2 6076 6077 
2 3854 3855 
2 3853 3854 
1 3853 20149 
2 20149 20150 
2 4081 4082 
1 3855 11376 
3 11374 11375 
3 995 996 
3 994 995 
3 19091 19092 
2 18040 18041 
1 18040 19090 
3 19090 19091 
2 18041 18042 
2 13912 13913 
1 3414 13912 
2 13913 13914 
2 3413 3414 
2 3412 3413 
1 3412 16905 
2 6190 6191 
2 6191 6192 
1 6192 17919 
1 783 6190 
2 782 783 
2 781 782 
1 781 850 
2 2426 2427 
2 2425 2426 
1 2425 17311 
2 17311 17312 
2 11966 11967 
2 17312 17313 
1 17313 19566 
2 16718 16719 
2 16717 16718 
2 20150 20151 
1 4584 20151 
2 19565 19566 
2 19564 19565 
1 12990 19564 
2 12989 12990 
2 2344 2345 
1 2344 18421 
2 20246 20247 
2 18421 18422 
2 18422 18423 
2 20245 20246 
2 2345 2346 
2 8095 8096 
2 8096 8097 
3 12223 12224 
2 52 53 
1 52 12223 
2 53 54 
1 54 2346 
3 12224 12225 
3 16775 16776 
3 16774 16775 
2 986 987 
2 9157 9158 
1 9157 16351 
2 985 986 
1 985 9159 
2 9158 9159 
2 16351 16352 
2 10369 10370 
2 10370 10371 
1 10371 13293 
2 6865 6866 
1 6865 12760 
2 12760 12761 
2 6866 6867 
2 17597 17598 
2 16904 16905 
2 17596 17597 
1 17596 17628 
2 17627 17628 
2 17626 17627 
1 16350 17626 
2 16903 16904 
2 11711 11712 
2 11710 11711 
2 8305 8306 
1 8305 16903 
2 8306 8307 
1 852 18346 
2 18346 18347 
2 18347 18348 
2 851 852 
2 850 851 
2 5779 5780 
1 5779 16717 
2 5780 5781 
1 5781 14566 
2 10165 10166 
1 10165 18631 
2 18631 18632 
2 14566 14567 
2 14567 14568 
2 18632 18633 
2 4541 4542 
1 4542 18633 
2 17182 17183 
1 7395 17182 
2 5380 5381 
1 5380 8097 
2 17183 17184 
1 5382 17184 
2 5381 5382 
3 6730 6731 
2 5894 5895 
2 2926 2927 
2 2927 2928 
2 5893 5894 
1 5893 20565 
2 12761 12762 
2 20563 20564 
1 6555 20563 
2 10108 10109 
1 10108 11712 
2 10109 10110 
2 20564 20565 
2 9676 9677 
1 8178 8185 
2 8185 8186 
2 8186 8187 
1 8187 9409 
2 9409 9410 
1 1326 14568 
2 9410 9411 
1 9411 11107 
1 12237 21057 
2 11108 11109 
2 11107 11108 
2 7394 7395 
2 12235 12236 
2 12236 12237 
3 6554 6555 
3 6553 6554 
2 10666 10667 
3 7060 7061 
1 7060 18037 
3 18037 18038 
3 11566 11567 
1 1572 11566 
2 1571 1572 
2 1570 1571 
1 9843 18039 
3 18038 18039 
3 9842 9843 
3 9809 9810 
3 8032 8033 
1 8032 9810 
3 8033 8034 
3 5272 5273 
1 5272 8034 
3 5273 5274 
3 9841 9842 
3 1384 1385 
1 1384 1503 
3 1385 1386 
1 1386 18522 
3 18521 18522 
2 16411 16412 
2 8923 8924 
1 8923 21033 
2 8924 8925 
2 7051 7052 
2 8152 8153 
1 7053 8152 
2 7052 7053 
2 16828 16829 
1 16828 21396 
2 21395 21396 
2 18044 18045 
2 15005 15006 
1 13422 15006 
2 13421 13422 
2 13420 13421 
2 17878 17879 
2 7205 7206 
2 5492 5493 
1 5493 7204 
2 7204 7205 
2 17879 17880 
2 17120 17121 
2 17119 17120 
1 17119 17878 
2 21032 21033 
2 21031 21032 
2 11683 11684 
2 7112 7113 
2 976 977 
1 976 7113 
2 977 978 
1 978 6591 
2 17021 17022 
2 5170 5171 
1 5170 6408 
2 5890 5891 
1 5890 11683 
2 16829 16830 
1 16830 21121 
2 5171 5172 
1 11685 13746 
1 4083 13744 
2 13744 13745 
1 5172 18043 
2 18043 18044 
2 13745 13746 
2 16868 16869 
2 17839 17840 
2 16867 16868 
1 16867 17839 
2 21121 21122 
2 11684 11685 
2 4082 4083 
1 4392 6982 
2 6982 6983 
2 6983 6984 
2 4391 4392 
2 4390 4391 
2 6289 6290 
1 4485 11718 
2 4484 4485 
2 11717 11718 
3 6857 6858 
3 6856 6857 
1 996 6856 
2 4483 4484 
1 4483 6858 
2 9620 9621 
2 9619 9620 
2 3848 3849 
2 326 327 
2 15004 15005 
1 15004 18042 
2 11177 11178 
2 3847 3848 
1 3847 11178 
2 11176 11177 
1 327 11176 
2 325 326 
1 1065 10792 
2 10792 10793 
2 1063 1064 
1 1063 16845 
2 1064 1065 
2 10793 10794 
2 17020 17021 
2 16844 16845 
2 6407 6408 
2 16843 16844 
1 5892 16843 
2 5891 5892 
2 7574 7575 
2 7573 7574 
1 4356 7573 
2 15545 15546 
2 15544 15545 
2 11965 11966 
1 11965 17841 
2 6406 6407 
1 6406 15961 
2 15961 15962 
1 15546 16719 
2 17840 17841 
2 15962 15963 
1 15963 16710 
2 14708 14709 
2 16708 16709 
2 12988 12989 
1 12988 17833 
2 14707 14708 
2 4583 4584 
2 4582 4583 
1 4582 17071 
2 17071 17072 
2 17072 17073 
1 9099 17073 
2 17833 17834 
2 6290 6291 
2 17834 17835 
2 4255 4256 
1 4255 17835 
2 4256 4257 
1 6846 16774 
3 21158 21159 
3 21157 21158 
2 4930 4931 
1 4930 21157 
2 4931 4932 
1 4932 13146 
2 13145 13146 
2 21250 21251 
2 13144 13145 
1 13144 21250 
2 13291 13292 
2 13292 13293 
2 11090 11091 
2 11089 11090 
1 2901 11089 
2 2900 2901 
2 2899 2900 
1 2899 12900 
2 16349 16350 
2 16348 16349 
2 13525 13526 
1 13525 16348 
2 12899 12900 
2 12898 12899 
1 12898 21477 
2 13526 13527 
2 13138 13139 
1 13138 13527 
1 8307 16324 
2 16324 16325 
2 8176 8177 
2 2338 2339 
2 13139 13140 
2 2339 2340 
2 2479 2480 
1 2479 13140 
2 2126 2127 
2 2125 2126 
1 2125 3675 
2 14462 14463 
2 14461 14462 
2 3766 3767 
2 14438 14439 
2 4540 4541 
1 4540 14437 
2 14437 14438 
1 2019 20868 
2 20867 20868 
2 20866 20867 
2 2018 2019 
2 3385 3386 
1 3385 4329 
2 3386 3387 
2 2017 2018 
2 4328 4329 
3 6845 6846 
3 6731 6732 
2 4327 4328 
1 4327 6844 
3 6844 6845 
2 21251 21252 
2 19232 19233 
2 19231 19232 
2 4219 4220 
2 4220 4221 
1 4221 9543 
2 4892 4893 
2 4891 4892 
1 4891 21252 
2 17095 17096 
1 17095 19231 
2 17096 17097 
1 3837 16326 
3 3836 3837 
3 3835 3836 
1 3835 12504 
2 12503 12504 
2 9542 9543 
2 8177 8178 
2 16325 16326 
2 3065 3066 
2 2482 2483 
1 2482 3064 
2 3064 3065 
2 2480 2481 
1 3066 3768 
2 12502 12503 
2 11497 11498 
2 1324 1325 
1 1324 11497 
2 1325 1326 
2 11498 11499 
2 3767 3768 
2 3673 3674 
2 3674 3675 
2 7393 7394 
1 7393 20866 
3 4307 4308 
3 4306 4307 
2 2483 2484 
3 14357 14358 
3 8447 8448 
1 8448 14358 
3 8446 8447 
3 14665 14666 
1 14665 19695 
2 10667 10668 
1 10668 14667 
3 14666 14667 
3 4156 4157 
1 4156 8446 
3 18520 18521 
3 11974 11975 
1 5283 11976 
3 11975 11976 
3 9740 9741 
3 9739 9740 
1 9741 9880 
2 9880 9881 
2 9118 9119 
2 7111 7112 
1 7111 13168 
2 13168 13169 
2 13169 13170 
3 21241 21242 
3 21242 21243 
1 522 21243 
2 521 522 
1 13170 14469 
2 14468 14469 
2 14467 14468 
1 891 14467 
2 890 891 
2 889 890 
1 889 17118 
2 14764 14765 
2 14765 14766 
2 10204 10205 
2 5281 5282 
2 5282 5283 
2 5491 5492 
1 3231 18574 
2 18574 18575 
2 18575 18576 
2 10799 10800 
1 10800 13809 
2 3230 3231 
2 3229 3230 
1 3229 3393 
2 3392 3393 
2 3391 3392 
1 3391 5500 
2 10798 10799 
1 2568 10798 
2 2567 2568 
2 2566 2567 
1 2566 9120 
2 9119 9120 
2 11906 11907 
2 11905 11906 
2 520 521 
1 520 14134 
2 14134 14135 
2 14135 14136 
2 5140 5141 
1 6864 13129 
2 6862 6863 
1 6862 21123 
2 21122 21123 
2 6863 6864 
1 16113 16869 
2 16112 16113 
2 3814 3815 
1 3814 14766 
2 3815 3816 
1 3816 14728 
2 16111 16112 
1 16111 16600 
2 16600 16601 
2 16601 16602 
2 10517 10518 
2 10516 10517 
1 10516 11716 
2 11716 11717 
2 15098 15099 
1 9621 15097 
2 15097 15098 
2 8503 8504 
1 8503 11595 
2 8504 8505 
2 11594 11595 
1 3849 11593 
2 11593 11594 
2 4715 4716 
2 21455 21456 
1 4716 6471 
2 21454 21455 
2 5501 5502 
2 5500 5501 
2 11842 11843 
2 4714 4715 
1 4714 10794 
2 9305 9306 
2 9304 9305 
1 9304 10038 
2 4262 4263 
1 4263 11079 
2 5141 5142 
1 5142 12766 
2 12766 12767 
2 12767 12768 
1 3960 12768 
2 16709 16710 
2 9041 9042 
2 12595 12596 
2 9040 9041 
1 9040 12595 
2 12596 12597 
1 639 2737 
2 2737 2738 
2 2738 2739 
1 2739 21025 
2 21025 21026 
2 21026 21027 
2 9098 9099 
2 13381 13382 
2 760 761 
1 760 21027 
1 13383 16602 
2 13382 13383 
2 15811 15812 
2 15812 15813 
2 6470 6471 
2 6469 6470 
2 3935 3936 
2 5864 5865 
1 5865 6469 
2 4355 4356 
2 11078 11079 
2 4354 4355 
1 4354 19143 
2 19142 19143 
2 19141 19142 
2 3934 3935 
1 3934 19141 
2 11077 11078 
1 11077 16851 
2 16850 16851 
2 16849 16850 
2 17945 17946 
2 17944 17945 
2 19925 19926 
2 3959 3960 
2 3958 3959 
1 3958 6195 
2 6193 6194 
1 6193 8857 
2 8857 8858 
2 6194 6195 
2 8858 8859 
2 19924 19925 
2 637 638 
1 637 19924 
2 638 639 
1 11040 14463 
2 11039 11040 
2 11038 11039 
1 11038 17946 
2 4051 4052 
1 4051 18102 
2 15428 15429 
2 4052 4053 
2 15427 15428 
2 9097 9098 
1 9097 17155 
2 17155 17156 
2 17156 17157 
1 5379 17157 
2 17290 17291 
1 8454 17290 
2 17291 17292 
2 8452 8453 
1 8452 15429 
2 8453 8454 
2 15020 15021 
2 6773 6774 
1 180 15019 
2 15019 15020 
2 179 180 
2 178 179 
2 18376 18377 
2 10679 10680 
2 10678 10679 
1 1872 10680 
2 12407 12408 
2 12406 12407 
1 12406 18378 
2 18377 18378 
2 21476 21477 
2 21475 21476 
1 8859 21475 
2 1871 1872 
2 9541 9542 
1 9541 14571 
2 14570 14571 
2 14569 14570 
2 1870 1871 
1 1870 10519 
2 10519 10520 
2 10520 10521 
2 12499 12500 
2 12500 12501 
1 5019 12502 
2 18640 18641 
1 2481 18640 
2 18641 18642 
1 18642 20190 
2 20189 20190 
2 5377 5378 
1 5377 14854 
2 14855 14856 
2 8066 8067 
2 14854 14855 
2 8065 8066 
1 1041 8065 
2 1040 1041 
2 5378 5379 
1 4791 18909 
2 4790 4791 
2 6772 6773 
1 6772 18046 
2 18046 18047 
2 18047 18048 
2 17410 17411 
1 17410 18048 
2 17411 17412 
2 4789 4790 
1 4789 16360 
3 3322 3323 
1 3322 17412 
3 3323 3324 
3 5680 5681 
3 19694 19695 
3 19693 19694 
1 16023 19693 
3 16022 16023 
2 5018 5019 
2 5017 5018 
1 5017 6996 
2 6995 6996 
2 6994 6995 
1 6994 20448 
3 20896 20897 
3 16360 16361 
3 16361 16362 
1 16362 20896 
3 20897 20898 
3 14356 14357 
1 10209 20898 
3 5867 5868 
3 5866 5867 
1 5866 19480 
3 10208 10209 
3 7366 7367 
3 19480 19481 
3 10210 10211 
1 7368 10210 
3 10211 10212 
3 16021 16022 
3 11953 11954 
1 11953 16021 
3 7367 7368 
3 4157 4158 
3 10207 10208 
1 4158 10494 
3 10493 10494 
3 19481 19482 
3 10313 10314 
3 16657 16658 
3 10312 10313 
1 10312 16657 
1 10314 17304 
3 10492 10493 
1 10492 16659 
3 16658 16659 
2 9881 9882 
1 9882 15642 
2 4849 4850 
2 17117 17118 
2 10205 10206 
2 15517 15518 
2 13808 13809 
2 10771 10772 
1 10771 13807 
2 4198 4199 
1 4198 10926 
2 13807 13808 
2 10772 10773 
2 11843 11844 
1 5403 11844 
2 5402 5403 
2 15641 15642 
2 15640 15641 
1 597 15640 
2 4199 4200 
2 5401 5402 
1 5401 7272 
2 596 597 
2 595 596 
2 16504 16505 
2 16505 16506 
2 13129 13130 
1 16506 17116 
2 13130 13131 
2 17116 17117 
2 4405 4406 
1 4407 10206 
2 4406 4407 
2 13538 13539 
2 14728 14729 
2 14729 14730 
2 14321 14322 
1 8505 14322 
2 10925 10926 
2 10924 10925 
1 10924 21454 
1 10773 10933 
2 10933 10934 
2 10934 10935 
2 3781 3782 
1 3781 10935 
2 3782 3783 
2 4261 4262 
1 4261 13210 
2 13210 13211 
2 10037 10038 
2 19210 19211 
1 582 19210 
2 581 582 
2 19211 19212 
2 580 581 
1 580 19005 
2 19004 19005 
2 40 41 
1 40 3783 
2 13211 13212 
2 11839 11840 
1 11839 13212 
2 11840 11841 
2 19028 19029 
1 11841 13537 
1 846 19029 
2 13537 13538 
2 19076 19077 
1 1446 19077 
2 1445 1446 
2 19027 19028 
1 19027 19075 
2 19075 19076 
1 13539 14274 
2 13973 13974 
2 761 762 
1 762 4609 
2 4609 4610 
2 1444 1445 
1 1444 13032 
2 4610 4611 
3 2153 2154 
3 2152 2153 
1 2152 15021 
1 2154 5644 
3 5644 5645 
3 5645 5646 
2 14320 14321 
2 5863 5864 
1 5863 14320 
2 11308 11309 
1 11308 16908 
2 16907 16908 
2 16906 16907 
2 10036 10037 
1 10036 16906 
2 11309 11310 
2 3359 3360 
2 3358 3359 
2 41 42 
2 16855 16856 
1 16855 21262 
2 21262 21263 
2 21263 21264 
2 16856 16857 
2 845 846 
2 844 845 
2 10270 10271 
2 10271 10272 
1 10272 17037 
2 18101 18102 
2 18100 18101 
2 5359 5360 
1 5359 18100 
2 5360 5361 
2 13030 13031 
2 9334 9335 
1 9334 13030 
2 9335 9336 
2 13031 13032 
1 9336 9570 
1 11310 16167 
2 16166 16167 
2 14308 14309 
1 14308 16165 
2 16165 16166 
2 14309 14310 
1 7299 10521 
2 19904 19905 
2 7297 7298 
1 7297 19903 
2 7298 7299 
2 19903 19904 
2 20188 20189 
2 17036 17037 
1 8067 16857 
2 82 83 
1 82 20188 
2 9568 9569 
2 9569 9570 
2 83 84 
2 1039 1040 
1 1039 11365 
2 11365 11366 
2 18908 18909 
2 18907 18908 
2 11366 11367 
3 10213 10214 
1 10213 14310 
3 10214 10215 
3 20447 20448 
3 20446 20447 
3 1672 1673 
1 1672 11367 
3 1673 1674 
2 1453 1454 
1 1453 1674 
1 1455 1537 
2 1454 1455 
3 1537 1538 
3 5323 5324 
3 5324 5325 
1 5325 10212 
3 21284 21285 
3 5681 5682 
1 5682 21285 
3 17303 17304 
3 21283 21284 
3 20924 20925 
3 11954 11955 
1 11955 20925 
1 9720 10995 
3 10994 10995 
2 9719 9720 
3 6926 6927 
3 6925 6926 
1 6925 9718 
2 9718 9719 
3 20923 20924 
2 20227 20228 
1 20227 20923 
2 20228 20229 
3 1538 1539 
3 21106 21107 
3 21107 21108 
3 8225 8226 
3 8224 8225 
1 8224 21106 
3 17302 17303 
3 10993 10994 
1 10993 17302 
2 4850 4851 
2 15518 15519 
2 17671 17672 
1 17671 19212 
2 7271 7272 
2 7270 7271 
2 17672 17673 
2 9367 9368 
2 9368 9369 
2 1739 1740 
2 1738 1739 
2 16228 16229 
2 16229 16230 
2 1027 1028 
1 1027 14515 
2 14515 14516 
2 14516 14517 
1 14517 16230 
2 1028 1029 
2 20744 20745 
2 1045 1046 
1 1045 20743 
2 20743 20744 
2 1046 1047 
2 13045 13046 
2 13046 13047 
1 1047 2368 
1 6417 13045 
2 2368 2369 
2 6415 6416 
2 6416 6417 
2 14273 14274 
2 14272 14273 
2 13972 13973 
1 7230 7984 
2 7985 7986 
2 7984 7985 
2 12401 12402 
2 19003 19004 
2 12400 12401 
1 12400 19003 
2 9253 9254 
1 9253 12402 
2 2369 2370 
1 2370 18708 
2 18707 18708 
2 10315 10316 
2 10316 10317 
2 7228 7229 
2 7229 7230 
2 9254 9255 
3 8257 8258 
2 17035 17036 
2 18706 18707 
1 8895 18232 
2 18232 18233 
2 18233 18234 
2 8893 8894 
1 8893 18706 
2 8894 8895 
2 3979 3980 
1 3979 8259 
2 3980 3981 
3 8258 8259 
2 19919 19920 
2 19918 19919 
2 283 284 
2 284 285 
1 285 19920 
2 18320 18321 
2 18319 18320 
2 8945 8946 
1 8946 10315 
2 8944 8945 
1 8944 20574 
2 20573 20574 
2 20572 20573 
