ITEM: TIMESTEP
25000000
ITEM: NUMBER OF ATOMS
888
ITEM: BOX BOUNDS pp pp pp
0.0000000000000000e+00 5.0000000000000000e+01
0.0000000000000000e+00 5.0000000000000000e+01
0.0000000000000000e+00 5.0000000000000000e+01
ITEM: ATOMS id type xs ys zs
15723 1 0.174604 0.713712 0.0141146
15722 2 0.166308 0.71328 0.0132176
15675 1 0.177489 0.714213 0.0146271
15674 2 0.185081 0.715526 0.016707
6085 1 0.212102 0.694731 0.0160804
15673 1 0.190736 0.718488 0.0192068
6086 2 0.214577 0.702294 0.0174907
19424 2 0.234242 0.717362 0.0206765
19423 1 0.240529 0.71435 0.0169084
6087 1 0.219862 0.703529 0.0237077
2372 3 0.262283 0.708387 0.00107581
15825 1 0.264364 0.713375 0.0186865
14455 1 0.24269 0.712053 0.0154574
14456 2 0.248835 0.706702 0.0151651
14457 1 0.254681 0.706908 0.00926387
2373 1 0.256879 0.707163 0.00702283
15824 3 0.272763 0.713042 0.0183239
15823 1 0.280073 0.709067 0.0188501
10886 3 0.126273 0.744379 0.00273108
15721 1 0.162195 0.721546 0.0135925
11350 1 0.168389 0.733528 0.0107873
21120 1 0.169815 0.733114 0.00807883
11351 2 0.163999 0.735727 0.0172581
11352 1 0.162425 0.73315 0.0239739
8584 1 0.162424 0.731898 0.026662
21119 2 0.172965 0.733 0.000620345
10359 1 0.205065 0.736974 0.00470138
15801 1 0.192538 0.719758 0.0205456
15800 2 0.197839 0.723686 0.0227095
10357 1 0.195398 0.744032 0.0122204
7869 1 0.193496 0.744678 0.0146858
15799 1 0.202535 0.730473 0.0237986
18088 1 0.20413 0.732728 0.0239326
18089 2 0.208725 0.740335 0.0239871
10358 2 0.198177 0.74149 0.00501026
7868 2 0.189893 0.748047 0.0218296
18090 1 0.20989 0.748529 0.0258649
12573 1 0.207292 0.736038 0.00448777
13162 1 0.212172 0.727401 0.0311416
19425 1 0.227162 0.720809 0.026766
13164 1 0.224703 0.721919 0.0287704
21282 1 0.239218 0.740842 0.016322
1831 1 0.237198 0.742759 0.0150677
1832 2 0.231512 0.748026 0.0117179
12572 2 0.214508 0.733165 0.00404372
21281 2 0.244483 0.735976 0.0177902
21280 1 0.249358 0.731087 0.0225404
4911 1 0.255351 0.74766 0.0128822
18066 1 0.144308 0.7577 0.0249248
1623 1 0.144793 0.760375 0.0237776
18065 2 0.142856 0.750553 0.0285607
1622 2 0.145967 0.768106 0.0214274
1621 1 0.143487 0.775426 0.0210361
10885 1 0.124274 0.751388 0.00692912
5728 1 0.123693 0.753418 0.00936333
5729 2 0.122018 0.759263 0.0154923
5730 1 0.121968 0.765426 0.0206402
11565 1 0.142729 0.777824 0.0207742
5675 2 0.180828 0.76927 0.00218657
14965 1 0.159148 0.753299 0.0127782
14966 2 0.157014 0.751675 0.00457346
12599 2 0.161148 0.756565 0.0226918
12598 1 0.159804 0.753687 0.0157195
4250 2 0.181817 0.765463 0.0251674
12600 1 0.163796 0.754771 0.0298002
4659 1 0.165123 0.778105 0.0196455
4657 1 0.173742 0.77332 0.00853161
5674 1 0.175934 0.772246 0.00655665
4658 2 0.167029 0.774499 0.0126269
7867 1 0.186018 0.755612 0.023241
4249 1 0.184499 0.758802 0.0233613
8217 1 0.209657 0.763985 0.00918663
9316 1 0.195655 0.774579 0.0113719
9317 2 0.203551 0.772577 0.0102372
9318 1 0.207672 0.766737 0.00948381
8216 2 0.214392 0.757492 0.00938544
8215 1 0.221802 0.753985 0.0105506
6872 2 0.220986 0.76305 0.0287687
6871 1 0.228692 0.766102 0.0274842
757 1 0.23111 0.767065 0.0268047
21178 1 0.22372 0.775936 0.00308089
1833 1 0.224474 0.752699 0.0104321
758 2 0.237867 0.77093 0.0255931
759 1 0.241709 0.776693 0.0213118
13806 1 0.223301 0.773936 0.000683141
4910 2 0.254754 0.754764 0.00981593
4909 1 0.257413 0.760858 0.0129959
1624 1 0.258254 0.763377 0.0140392
1625 2 0.261389 0.770181 0.0170325
16792 1 0.242861 0.779254 0.0193337
1626 1 0.265678 0.774748 0.0220041
3943 1 0.267339 0.776716 0.0239966
18146 3 0.117691 0.803428 0.022224
18145 1 0.119845 0.804571 0.0148498
19290 1 0.144901 0.792512 0.0124505
16449 1 0.123213 0.798716 0.0298622
18147 1 0.121989 0.800041 0.0277577
11563 1 0.143706 0.789967 0.0143457
11564 2 0.141506 0.785993 0.0200882
4176 1 0.141163 0.804944 0.00236103
19288 1 0.14294 0.802881 0.00408296
19289 2 0.147601 0.797315 0.00818348
5135 2 0.166065 0.79721 0.0201392
5136 1 0.161965 0.802352 0.0162876
15058 1 0.162709 0.811882 0.0138051
15059 2 0.162759 0.809389 0.00512114
5134 1 0.165809 0.792578 0.0250322
10056 1 0.164973 0.790257 0.027338
19000 1 0.181016 0.789376 0.00881245
15060 1 0.155005 0.811222 0.00444024
2728 1 0.180375 0.789877 0.00573943
3080 2 0.187848 0.811734 0.0253958
19001 2 0.184464 0.788094 0.0165924
11010 1 0.190463 0.785968 0.0254278
19002 1 0.188719 0.78699 0.0232026
18931 1 0.203379 0.799564 0.0280335
19858 1 0.204342 0.798322 0.0246616
19860 1 0.206339 0.797733 0.00888728
19859 2 0.206313 0.796918 0.0174118
6588 1 0.206093 0.798321 0.00583212
21180 1 0.223356 0.782758 0.0165917
21179 2 0.223921 0.781253 0.00930863
4497 1 0.222463 0.783404 0.0194604
6362 2 0.225712 0.802472 0.0043233
10967 2 0.22825 0.80643 0.0215915
10968 1 0.226893 0.805055 0.0146943
6363 1 0.226643 0.804601 0.0119441
16527 1 0.234162 0.800707 0.0280892
10966 1 0.232314 0.802214 0.0264606
2385 1 0.233638 0.808507 0.00113598
4496 2 0.219941 0.783608 0.0268292
6361 1 0.231174 0.806676 0.00179253
2631 1 0.248421 0.787742 0.00425424
16793 2 0.24536 0.78583 0.0149008
3944 2 0.270528 0.782667 0.0298499
16794 1 0.247408 0.787586 0.00725521
13249 1 0.137928 0.819575 0.0205643
13250 2 0.141094 0.81472 0.0260416
11185 1 0.141538 0.842747 0.0194404
11186 2 0.147952 0.83868 0.0205342
21318 1 0.122391 0.83305 0.0188943
21317 3 0.123701 0.830519 0.0267902
11187 1 0.150856 0.838957 0.0280034
877 1 0.162691 0.812546 0.0169599
5653 1 0.166712 0.824173 0.00972628
878 2 0.163099 0.815828 0.0247812
5654 2 0.170176 0.827617 0.00235547
15543 1 0.170091 0.84192 0.0203761
15542 2 0.168905 0.837743 0.0277926
3079 1 0.188739 0.814344 0.0179389
13141 1 0.189596 0.815115 0.0146233
13142 2 0.190256 0.815901 0.00636624
7932 1 0.206528 0.827606 0.025687
16749 1 0.204605 0.827772 0.0276432
1693 1 0.209936 0.840422 0.0128533
9578 2 0.219658 0.830879 0.00377155
7931 2 0.212254 0.827214 0.0200674
9579 1 0.217231 0.82951 0.0106789
7930 1 0.215957 0.82926 0.0131682
12923 2 0.236579 0.841456 0.0200764
15102 1 0.240505 0.830234 0.0205246
12924 1 0.239283 0.833287 0.0203124
1719 1 0.216093 0.835589 0.0280642
19370 2 0.255375 0.813895 0.0291897
15100 1 0.248696 0.819003 0.024944
19371 1 0.250753 0.817328 0.0263048
15101 2 0.243934 0.823671 0.0203645
20135 2 0.258201 0.842093 0.0263121
13528 1 0.18052 0.853937 0.0205233
20575 1 0.172373 0.869208 0.0183283
20576 2 0.168164 0.862089 0.0162389
20577 1 0.167177 0.855116 0.011563
9733 1 0.166733 0.853179 0.00981707
11544 1 0.173799 0.871891 0.0191341
9734 2 0.164891 0.847666 0.00487095
1695 1 0.196523 0.847192 0.0156879
1694 2 0.204891 0.845888 0.0148036
13529 2 0.1859 0.849048 0.0173501
13530 1 0.19401 0.847461 0.015937
1012 1 0.205055 0.872508 0.0251891
17625 1 0.205965 0.870899 0.0272964
12922 1 0.232825 0.848585 0.0189682
1017 1 0.230726 0.851103 0.018477
1016 2 0.224941 0.857203 0.0176232
1015 1 0.220225 0.8638 0.0185574
17362 1 0.212987 0.851441 0.00238747
20136 1 0.255139 0.844129 0.0179149
11920 1 0.253997 0.844652 0.015048
11921 2 0.252202 0.849264 0.00934569
11922 1 0.254445 0.852736 0.00232616
11543 2 0.176763 0.87906 0.0212783
11542 1 0.177615 0.886113 0.0219757
1014 1 0.200738 0.883676 0.01337
1013 2 0.203167 0.877681 0.0190971
11775 1 0.198504 0.887617 0.000526362
16945 1 0.207901 0.691521 0.0554577
7763 2 0.184075 0.715477 0.0611743
15793 1 0.188575 0.715555 0.0365589
16946 2 0.200055 0.69691 0.0574124
7762 1 0.188244 0.714053 0.0540562
15795 1 0.18969 0.713864 0.0514345
15794 2 0.192439 0.712569 0.0437086
12855 1 0.235014 0.700317 0.0338101
12854 2 0.233349 0.706141 0.0376876
14755 1 0.23274 0.713352 0.0464494
12853 1 0.232672 0.711985 0.0439493
5485 1 0.215816 0.705278 0.046253
5486 2 0.212122 0.711665 0.0510376
5487 1 0.214619 0.716544 0.0576276
14756 2 0.233425 0.717403 0.0534206
16531 1 0.21518 0.717843 0.0602186
5168 2 0.255232 0.699268 0.0353762
5167 1 0.257855 0.692719 0.040804
6446 3 0.267068 0.715172 0.0575058
7890 1 0.254411 0.710021 0.0333727
5169 1 0.255105 0.707712 0.0337807
7889 2 0.251908 0.717835 0.0322771
6445 1 0.274086 0.710444 0.0539944
8961 1 0.276079 0.708822 0.0529678
8959 1 0.284072 0.707427 0.0415736
8960 3 0.281033 0.70496 0.048078
18064 1 0.138987 0.746773 0.0339667
4311 1 0.139439 0.734113 0.0470687
4310 2 0.137885 0.741671 0.0444301
4309 1 0.137864 0.745151 0.0366773
8586 1 0.164697 0.731216 0.0401463
12903 1 0.16639 0.731594 0.0423415
12902 2 0.170167 0.731824 0.0495895
12901 1 0.172229 0.730454 0.0580334
9537 1 0.172402 0.730077 0.060541
8585 2 0.160821 0.729928 0.0343385
12562 1 0.181242 0.736773 0.0354252
1267 1 0.204593 0.736412 0.0510551
1268 2 0.20346 0.736497 0.0585701
12563 2 0.18649 0.740044 0.0416198
12564 1 0.189162 0.746602 0.046738
5496 1 0.190325 0.748612 0.0484406
13163 2 0.219784 0.724616 0.0332579
14757 1 0.232943 0.724712 0.0552318
15976 1 0.23278 0.727393 0.0558319
15977 2 0.231319 0.735286 0.0582863
7888 1 0.248096 0.724402 0.0345086
7738 1 0.247271 0.726537 0.0358941
7739 2 0.245823 0.733489 0.0399018
6447 1 0.260263 0.719614 0.0586326
7740 1 0.244754 0.740615 0.0387801
19007 2 0.252249 0.727978 0.0593276
19006 1 0.257585 0.722135 0.059024
9466 1 0.272462 0.749791 0.0479873
13911 1 0.244917 0.744289 0.0385921
9467 2 0.278739 0.747445 0.0451262
9382 1 0.12173 0.777606 0.04147
7818 1 0.148956 0.765312 0.0445942
9383 2 0.126297 0.771837 0.0453423
10381 1 0.133967 0.77922 0.0490384
9384 1 0.132121 0.777026 0.048289
15618 1 0.1311 0.764159 0.0568569
4251 1 0.181115 0.768248 0.0323279
19722 1 0.170138 0.751967 0.0507997
19721 2 0.172981 0.751527 0.0579039
7817 2 0.152582 0.770936 0.0417449
10054 1 0.157644 0.778696 0.0364523
7816 1 0.156132 0.776459 0.038356
15511 1 0.164605 0.754188 0.0327295
15513 1 0.168937 0.752185 0.0482188
15512 2 0.165832 0.752481 0.0414386
10466 2 0.178221 0.773935 0.0617446
10467 1 0.179129 0.77394 0.0540554
2434 1 0.179307 0.773721 0.0508349
2435 2 0.179052 0.770805 0.0429087
2436 1 0.180849 0.76888 0.035075
10465 1 0.169821 0.777671 0.0619486
14296 1 0.167097 0.779293 0.0613369
19720 1 0.181192 0.752082 0.0590645
8571 1 0.199001 0.772937 0.0361011
11008 1 0.197634 0.775421 0.0345891
8570 2 0.202038 0.767492 0.0414187
8569 1 0.208339 0.769131 0.0463283
5495 2 0.192787 0.753204 0.054095
5494 1 0.193579 0.75581 0.0609523
21359 2 0.216356 0.754749 0.0616142
21358 1 0.218248 0.753917 0.0536185
17148 1 0.219357 0.755565 0.0376504
6873 1 0.219297 0.757665 0.0352255
17147 2 0.219064 0.751091 0.0431655
17146 1 0.218925 0.753257 0.050598
20251 1 0.222323 0.764551 0.0523129
20252 2 0.226494 0.770479 0.0517193
20253 1 0.231479 0.777461 0.0498027
20917 1 0.233346 0.78011 0.0489925
16581 1 0.270078 0.750725 0.0494351
16579 1 0.255909 0.750066 0.0553787
1337 2 0.250082 0.768859 0.0452634
1338 1 0.248913 0.761568 0.0427225
13910 2 0.245844 0.752183 0.0373586
13909 1 0.248134 0.759325 0.0415262
1336 1 0.247191 0.770354 0.0529365
18822 1 0.246644 0.771351 0.0560838
16580 2 0.262818 0.752803 0.0527524
467 3 0.278029 0.776175 0.0549671
9468 1 0.285994 0.751925 0.0438267
16448 2 0.126777 0.794368 0.0363673
5223 1 0.142315 0.793345 0.0429584
10383 1 0.141656 0.791212 0.0448358
5222 2 0.145572 0.798873 0.0381637
5221 1 0.14343 0.805641 0.0336
13251 1 0.142898 0.808094 0.0317559
16447 1 0.129549 0.787825 0.0408985
10382 2 0.139671 0.784957 0.0495806
5083 1 0.14085 0.806565 0.0565068
5084 2 0.146731 0.803069 0.0607855
10055 2 0.162211 0.783996 0.0324089
14297 2 0.160896 0.78396 0.0599965
20104 1 0.171422 0.797849 0.0435492
6714 1 0.174143 0.797903 0.0418187
20106 1 0.162587 0.791758 0.0524304
20105 2 0.164049 0.797722 0.0479646
14298 1 0.162102 0.789378 0.0548365
11009 2 0.194259 0.781494 0.0319036
3081 1 0.1846 0.806455 0.031722
6712 1 0.183549 0.804799 0.0331823
18932 2 0.202771 0.800572 0.036521
6713 2 0.182243 0.798841 0.0375719
15331 1 0.182439 0.803428 0.0570857
13834 1 0.182444 0.800602 0.0570717
13835 2 0.184685 0.79306 0.0574214
18933 1 0.202673 0.802485 0.0448616
588 1 0.202378 0.803049 0.0477199
12858 1 0.20846 0.784146 0.0489325
17421 1 0.205922 0.783616 0.0498813
587 2 0.202395 0.806094 0.0544508
17419 1 0.193345 0.787362 0.0565876
17420 2 0.198947 0.783934 0.0531861
13836 1 0.190996 0.788749 0.0571713
586 1 0.203619 0.804447 0.0618677
15332 2 0.182123 0.811233 0.0568796
12857 2 0.214468 0.787184 0.0448234
4495 1 0.217878 0.785737 0.0341841
12856 1 0.217131 0.786246 0.0368125
20918 2 0.237613 0.785836 0.0455426
17299 1 0.224602 0.804107 0.0527
16834 1 0.22543 0.802248 0.0548014
16835 2 0.227958 0.797399 0.0599435
17300 2 0.222115 0.808954 0.047323
16526 2 0.23909 0.797161 0.0318734
16525 1 0.238799 0.791939 0.0373285
20919 1 0.238638 0.790177 0.0402673
13522 1 0.261756 0.798166 0.050568
13523 2 0.266134 0.797761 0.0440595
2060 2 0.244226 0.812035 0.0540117
2059 1 0.244239 0.8108 0.0455263
3945 1 0.276541 0.783247 0.0348895
6201 1 0.281366 0.785519 0.0491707
466 1 0.2808 0.78265 0.0503199
13524 1 0.273683 0.795108 0.0436603
6199 1 0.276168 0.794559 0.043843
6200 3 0.282315 0.792712 0.0459085
10343 2 0.148835 0.823491 0.0449204
10342 1 0.141641 0.826641 0.0433077
7644 1 0.139124 0.828004 0.0429129
7643 2 0.131462 0.831922 0.0424724
7642 1 0.127728 0.830985 0.0357147
21316 1 0.126495 0.830903 0.0336445
879 1 0.165469 0.817202 0.0323073
5916 1 0.167356 0.817749 0.0354566
15541 1 0.171542 0.833412 0.0344693
10344 1 0.153803 0.824488 0.0513116
11053 1 0.163189 0.842533 0.0456062
5915 2 0.172243 0.817452 0.0415395
5914 1 0.176252 0.81557 0.0495171
15333 1 0.177969 0.814577 0.0515989
15464 2 0.16558 0.829855 0.0573973
14502 1 0.176538 0.833479 0.0535884
15465 1 0.174266 0.832717 0.0541549
15463 1 0.159725 0.827414 0.0608757
3318 1 0.156795 0.826591 0.062448
14501 2 0.183566 0.835893 0.0519028
3245 2 0.205319 0.827076 0.0500897
16747 1 0.2033 0.82631 0.0398554
16748 2 0.199366 0.826752 0.0331297
3244 1 0.20419 0.826037 0.0431066
14500 1 0.191823 0.8398 0.0511885
3204 1 0.206732 0.842905 0.0390565
1717 1 0.209248 0.842501 0.037695
6051 1 0.225687 0.818883 0.04339
17301 1 0.22452 0.816143 0.0447648
6050 2 0.229742 0.82448 0.0396671
3246 1 0.212186 0.824499 0.0502068
1718 2 0.21558 0.839969 0.0347701
6049 1 0.23717 0.828411 0.0403598
2061 1 0.237929 0.813676 0.0588146
6760 1 0.239878 0.829977 0.0405114
18178 1 0.235761 0.81494 0.0613846
20134 1 0.252132 0.839396 0.0320883
19369 1 0.262296 0.816281 0.0317425
6762 1 0.250044 0.838272 0.0345842
5329 1 0.265149 0.817232 0.0329534
6761 2 0.246538 0.833954 0.039374
5330 2 0.27184 0.819205 0.0356717
7594 1 0.277016 0.826196 0.0552146
10096 1 0.276541 0.824158 0.0567035
7595 2 0.277226 0.83329 0.0502848
7596 1 0.275389 0.840344 0.0493838
10097 2 0.274356 0.819668 0.0617683
5331 1 0.278874 0.824606 0.0354527
11055 1 0.150607 0.846163 0.0398617
11054 2 0.155956 0.846077 0.0447204
17624 2 0.209322 0.86461 0.0328668
3203 2 0.200083 0.845774 0.0428265
3202 1 0.195057 0.845352 0.0485651
17623 1 0.212795 0.863302 0.0384678
20865 1 0.213727 0.86261 0.0408194
20863 1 0.21328 0.857345 0.0528526
12228 1 0.237223 0.850804 0.048727
20864 2 0.216357 0.859814 0.0483602
12227 2 0.234803 0.850912 0.0416922
12226 1 0.23044 0.854238 0.0355642
5383 1 0.180313 0.687018 0.0672631
5385 1 0.170802 0.689017 0.0806869
5384 2 0.174988 0.688947 0.0742195
7764 1 0.177561 0.713476 0.0641148
16947 1 0.200524 0.698841 0.0651761
5690 2 0.172503 0.728732 0.0887971
9536 2 0.17038 0.729532 0.0690603
5689 1 0.170953 0.728282 0.080857
9535 1 0.170747 0.728257 0.0773246
1269 1 0.199673 0.736379 0.0652878
4642 1 0.198635 0.736141 0.0673828
4644 1 0.196717 0.732596 0.0818832
15726 1 0.197446 0.731325 0.0849585
15725 3 0.198568 0.728277 0.0919725
4643 2 0.194309 0.73568 0.0741363
15978 1 0.229074 0.740724 0.0641912
21360 1 0.214107 0.749453 0.0675605
1224 1 0.230297 0.743367 0.0933126
16532 2 0.215793 0.72114 0.0677302
16533 1 0.220365 0.723901 0.0731411
19179 1 0.222261 0.724609 0.0752226
19178 2 0.227104 0.727142 0.0810392
19177 1 0.226799 0.727543 0.0884717
1223 2 0.230767 0.749744 0.0875216
6053 2 0.249282 0.7409 0.0725855
6054 1 0.249312 0.748555 0.0761817
19008 1 0.251084 0.733556 0.064575
6052 1 0.250585 0.735926 0.066982
15616 1 0.134227 0.763776 0.0722427
15617 2 0.133169 0.763964 0.0655219
11354 2 0.176745 0.776439 0.0889545
4409 2 0.194775 0.761598 0.069783
4408 1 0.193999 0.75704 0.0634764
4410 1 0.194792 0.769403 0.073477
11779 1 0.194687 0.772495 0.0745136
11780 2 0.195105 0.780804 0.0773542
3310 1 0.221199 0.773262 0.0742015
3350 2 0.228745 0.766823 0.0775547
3349 1 0.223164 0.771467 0.0751623
3351 1 0.229743 0.7606 0.0837243
1222 1 0.230113 0.757921 0.0850879
3311 2 0.214889 0.775992 0.0696736
21204 1 0.249489 0.751686 0.0768874
21203 2 0.251684 0.759217 0.0777177
21202 1 0.256893 0.764642 0.0757208
13114 1 0.259056 0.766361 0.074953
13115 2 0.26481 0.771501 0.0728337
13116 1 0.26574 0.779144 0.0703713
18821 2 0.245572 0.773893 0.0640568
18820 1 0.246334 0.779894 0.0697008
468 1 0.276807 0.772887 0.0634044
13133 2 0.119593 0.808542 0.08122
13134 1 0.11248 0.811903 0.082061
13132 1 0.127647 0.812037 0.0790837
11353 1 0.175641 0.783333 0.0847165
5085 1 0.151905 0.803986 0.0668689
12808 1 0.154236 0.804377 0.068842
12809 2 0.159765 0.805002 0.0728095
12810 1 0.165986 0.800478 0.0754373
12472 1 0.175298 0.786241 0.083304
12473 2 0.173637 0.792986 0.0786943
12474 1 0.168081 0.797977 0.0767062
20152 1 0.174831 0.806025 0.0902727
20153 2 0.169345 0.80866 0.0937279
3312 1 0.210696 0.781403 0.0642039
4607 2 0.203 0.797798 0.0745434
4608 1 0.200817 0.789385 0.0744003
11781 1 0.199296 0.786638 0.074917
4606 1 0.208985 0.802358 0.0735309
9910 1 0.211441 0.804021 0.0735223
16836 1 0.227929 0.791436 0.065495
9911 2 0.217104 0.809183 0.0726709
16691 2 0.225578 0.787688 0.0907197
16690 1 0.231243 0.792929 0.0876051
17877 1 0.246139 0.782551 0.0721091
17876 2 0.2458 0.78741 0.0774504
17875 1 0.251342 0.789403 0.0831683
18311 2 0.13829 0.815818 0.0755222
18312 1 0.13043 0.813231 0.0779775
3316 1 0.144878 0.820773 0.0698191
18310 1 0.143063 0.81949 0.0717994
3317 2 0.150326 0.824698 0.0650795
8982 1 0.201056 0.820958 0.072302
8980 1 0.191557 0.830685 0.0727785
8981 2 0.198589 0.827751 0.0691855
18180 1 0.225597 0.814865 0.0685246
9912 1 0.223282 0.813212 0.0694965
18179 2 0.231391 0.818427 0.0657871
10098 1 0.266081 0.818566 0.0642147
5691 1 0.177725 0.731594 0.0953109
19488 1 0.207633 0.733507 0.0976083
15724 1 0.205554 0.73234 0.0957678
19487 3 0.212574 0.736147 0.103039
19486 1 0.217423 0.741576 0.107183
8890 1 0.219737 0.742415 0.108565
5659 1 0.241635 0.737871 0.0953173
5660 2 0.240936 0.741957 0.102312
8891 2 0.225827 0.74609 0.112328
8892 1 0.232604 0.744029 0.108724
5661 1 0.235118 0.743705 0.107203
11355 1 0.174277 0.770532 0.0940148
9198 1 0.238711 0.776717 0.105867
17187 1 0.238059 0.773723 0.105492
17186 2 0.235916 0.766076 0.104993
17185 1 0.231212 0.762108 0.111131
20154 1 0.161598 0.809053 0.0964171
16692 1 0.222441 0.785233 0.0963431
9196 1 0.235366 0.789942 0.110494
9197 2 0.240729 0.78432 0.106442
7056 1 0.148795 0.872133 0.15273
5071 1 0.147145 0.873361 0.150268
5073 1 0.134246 0.876784 0.14445
5072 3 0.142151 0.875534 0.144111
15111 1 0.16133 0.870323 0.167396
7054 1 0.159164 0.869607 0.164721
7055 3 0.153526 0.868835 0.158688
15110 3 0.165325 0.87129 0.174616
15109 1 0.170599 0.874122 0.179745
4218 1 0.15136 0.89893 0.178885
4217 3 0.150508 0.891699 0.181375
4216 1 0.151988 0.887153 0.18791
16236 1 0.152275 0.885026 0.190677
16235 3 0.153578 0.8806 0.19765
16234 1 0.158244 0.882035 0.203298
3126 1 0.172974 0.886445 0.210627
20439 1 0.176167 0.887902 0.209994
3124 1 0.160436 0.882586 0.205933
3125 3 0.165738 0.882372 0.211043
20438 2 0.183669 0.890858 0.20858
20437 1 0.18824 0.89761 0.210335
1525 1 0.294461 0.685107 0.899632
1526 3 0.288187 0.685766 0.904011
7577 3 0.269922 0.711242 0.922258
7576 1 0.267009 0.712506 0.930219
18564 1 0.265452 0.713327 0.933173
7578 1 0.271776 0.705054 0.916658
1527 1 0.28196 0.689888 0.907364
12461 3 0.275358 0.696388 0.912194
12460 1 0.279862 0.691488 0.90863
12462 1 0.272945 0.702815 0.914951
16780 1 0.216073 0.745628 0.931625
16781 2 0.217059 0.739265 0.93663
8727 1 0.273355 0.747908 0.932347
17203 1 0.208084 0.770136 0.916255
18212 2 0.231069 0.758297 0.923193
18213 1 0.238506 0.756342 0.923802
8767 1 0.241415 0.75589 0.923925
17204 2 0.214856 0.766809 0.91909
17205 1 0.221048 0.762689 0.92139
18211 1 0.224088 0.761082 0.921831
6664 1 0.237369 0.776189 0.935557
8726 3 0.266728 0.751999 0.929224
8725 1 0.259135 0.752885 0.926523
8769 1 0.256296 0.753201 0.925446
971 2 0.261439 0.776168 0.929709
972 1 0.26886 0.774509 0.928274
6666 1 0.252059 0.778603 0.932219
970 1 0.254586 0.778237 0.931844
8768 2 0.249251 0.754294 0.922533
6665 2 0.244744 0.778716 0.933852
5033 3 0.150253 0.786307 0.934808
2186 2 0.161953 0.801031 0.932217
2185 1 0.16541 0.807583 0.930898
20392 1 0.166924 0.81062 0.930586
5032 1 0.154951 0.793138 0.932783
2187 1 0.156503 0.795256 0.932316
20393 2 0.169733 0.818225 0.932079
20394 1 0.172711 0.825561 0.934778
12816 1 0.173761 0.828079 0.935524
14932 1 0.227078 0.829895 0.936341
13824 1 0.149658 0.71597 0.951339
9814 1 0.149861 0.71785 0.949871
13823 3 0.148913 0.709868 0.956466
13822 1 0.152402 0.706323 0.962873
14052 1 0.153508 0.705135 0.96428
14051 2 0.157112 0.700398 0.967761
2094 1 0.179223 0.697685 0.966393
14916 1 0.180725 0.699364 0.963961
14914 1 0.191808 0.705129 0.955314
13119 1 0.194606 0.704898 0.954511
13118 2 0.202682 0.704331 0.952028
13117 1 0.207672 0.707058 0.957221
4546 1 0.209448 0.708268 0.959396
14915 2 0.183432 0.703748 0.957236
4548 1 0.204895 0.713454 0.968148
4547 2 0.212307 0.712877 0.964615
18562 1 0.256157 0.717802 0.943651
18563 2 0.262066 0.713765 0.940475
2198 2 0.246394 0.715629 0.956154
2199 1 0.253365 0.711724 0.955091
16313 2 0.116951 0.74763 0.965851
9815 3 0.149502 0.723106 0.944946
9816 1 0.154547 0.728924 0.949416
20727 1 0.156102 0.731213 0.951015
20726 2 0.160289 0.736223 0.955321
20725 1 0.16918 0.73829 0.953362
2140 1 0.171994 0.738775 0.952634
2141 2 0.179885 0.74035 0.951619
18382 1 0.179178 0.730362 0.9657
18383 2 0.180309 0.72372 0.967134
1094 2 0.194262 0.744114 0.966381
2142 1 0.182029 0.747056 0.955477
16782 1 0.213081 0.734012 0.940567
20490 1 0.227497 0.738749 0.956968
10659 1 0.229148 0.736795 0.95636
10658 2 0.233186 0.73005 0.954529
10657 1 0.237141 0.72312 0.955679
2197 1 0.23941 0.720704 0.955753
20488 1 0.214382 0.746486 0.95298
20489 2 0.222734 0.744465 0.956346
8872 1 0.252197 0.749422 0.947057
18418 1 0.255491 0.749885 0.947272
19392 1 0.0904266 0.779586 0.951641
5424 1 0.110303 0.755843 0.965197
16312 1 0.112438 0.753504 0.96522
5423 2 0.104924 0.761332 0.964251
5422 1 0.100878 0.767358 0.960281
19391 3 0.097262 0.776216 0.956191
19390 1 0.0996589 0.769848 0.958929
10275 1 0.11988 0.780733 0.954724
10273 1 0.128998 0.767393 0.956228
10274 2 0.123873 0.773379 0.95526
14790 1 0.14292 0.768014 0.952283
14789 3 0.147328 0.773329 0.946776
14788 1 0.149068 0.777833 0.941308
5034 1 0.149081 0.780438 0.939457
14809 1 0.18286 0.750071 0.956383
14810 2 0.18563 0.75873 0.957152
14811 1 0.186996 0.765418 0.960241
7203 1 0.187233 0.7683 0.961555
7202 2 0.187085 0.775373 0.964765
13189 1 0.20816 0.77138 0.949336
13190 2 0.2069 0.767353 0.956119
10755 1 0.202997 0.764561 0.966983
13191 1 0.204206 0.765579 0.964055
2007 1 0.209283 0.77281 0.94644
8874 1 0.237984 0.75518 0.946218
2006 2 0.213254 0.776957 0.941132
18419 2 0.263479 0.750319 0.949582
18420 1 0.269495 0.750824 0.953917
9904 1 0.271951 0.751424 0.955262
8873 2 0.243533 0.750006 0.946468
8284 1 0.252988 0.766463 0.96832
8285 2 0.251984 0.774306 0.964406
9906 1 0.286173 0.753475 0.961785
9905 2 0.277541 0.753715 0.960431
2005 1 0.209812 0.785004 0.938675
8510 2 0.188328 0.807362 0.960465
11749 1 0.192297 0.798088 0.964066
8511 1 0.191177 0.800752 0.962646
8929 1 0.233962 0.792517 0.944167
19691 2 0.220238 0.792897 0.965115
19692 1 0.224994 0.793817 0.959043
8931 1 0.226286 0.794321 0.957031
8930 2 0.230671 0.795415 0.951404
15090 1 0.223454 0.806947 0.961588
2770 1 0.251979 0.784391 0.967594
8286 1 0.251928 0.781793 0.966649
14344 1 0.150972 0.826985 0.960956
12815 2 0.176929 0.834472 0.937555
20612 2 0.178396 0.824087 0.956443
11985 1 0.176092 0.829186 0.965174
20613 1 0.176838 0.828014 0.963084
14345 2 0.152809 0.822814 0.968068
8509 1 0.184219 0.81479 0.958878
20611 1 0.18251 0.817523 0.958655
12814 1 0.185216 0.836362 0.941071
3486 1 0.188396 0.836557 0.942065
3485 2 0.196159 0.838673 0.943122
3484 1 0.1979 0.835729 0.949515
4212 1 0.199223 0.83444 0.951788
4210 1 0.208819 0.830849 0.961839
9651 1 0.211017 0.830877 0.96314
4211 2 0.201718 0.830435 0.957549
15088 1 0.220862 0.820929 0.959462
15089 2 0.224012 0.814491 0.960245
9650 2 0.217783 0.831909 0.968294
14934 1 0.214023 0.833321 0.940183
14933 2 0.222281 0.834583 0.941439
10216 1 0.208265 0.871702 0.946894
10217 3 0.211282 0.863245 0.946374
431 2 0.227172 0.853208 0.955386
432 1 0.23372 0.852677 0.95939
9783 1 0.236235 0.853023 0.960815
430 1 0.220572 0.856993 0.9521
10218 1 0.21778 0.858856 0.95026
16637 2 0.225154 0.870697 0.966476
9782 2 0.243093 0.854397 0.965694
16636 1 0.23124 0.875544 0.962488
14050 1 0.164176 0.696828 0.968907
2092 1 0.167215 0.695791 0.969599
2093 2 0.175583 0.694125 0.971173
14925 1 0.201863 0.713724 0.969182
18384 1 0.185435 0.718347 0.970437
14923 1 0.188233 0.716499 0.971309
14924 2 0.19544 0.713086 0.972686
18889 1 0.262278 0.708466 0.989026
2371 1 0.262206 0.70826 0.992339
18891 1 0.268883 0.712914 0.978154
12802 1 0.270698 0.714999 0.97748
18890 3 0.264489 0.708182 0.981803
10693 1 0.131706 0.739616 0.980167
10694 3 0.134545 0.740569 0.987142
16314 1 0.122712 0.743555 0.969033
10695 1 0.131379 0.741021 0.994656
10887 1 0.130228 0.741672 0.996907
6023 2 0.178522 0.746556 0.977842
21118 1 0.175156 0.736594 0.994174
14967 1 0.156232 0.748537 0.997519
1515 1 0.20398 0.74099 0.972121
1093 1 0.201925 0.742338 0.970622
1095 1 0.187753 0.745192 0.971464
1514 2 0.209238 0.736215 0.975842
6022 1 0.185122 0.745802 0.973199
12571 1 0.218351 0.738565 0.998642
1513 1 0.214166 0.731837 0.978625
1374 1 0.224917 0.719818 0.987853
1373 2 0.220887 0.725168 0.982814
1372 1 0.215999 0.729927 0.980066
4837 1 0.21999 0.74044 0.996968
4838 2 0.224959 0.745271 0.991526
8954 2 0.241163 0.743486 0.975525
8955 1 0.232666 0.742238 0.975657
8953 1 0.247849 0.747994 0.974969
21310 1 0.26204 0.748351 0.974045
12803 3 0.275654 0.722434 0.977102
12804 1 0.279314 0.729644 0.977063
1255 1 0.285143 0.74794 0.979271
1257 1 0.281084 0.732217 0.977167
1256 2 0.285348 0.738587 0.97746
13305 1 0.149003 0.778645 0.984322
3436 1 0.147077 0.780862 0.982782
6024 1 0.173062 0.752438 0.978314
20371 1 0.171603 0.754742 0.978685
20372 2 0.167453 0.761665 0.979566
20373 1 0.161397 0.766243 0.982854
13304 2 0.153342 0.7724 0.987357
13303 1 0.158896 0.767848 0.9839
7201 1 0.186757 0.777359 0.972345
9838 1 0.186271 0.77806 0.974701
10754 2 0.201226 0.761115 0.97483
19070 2 0.19333 0.760102 0.991925
19069 1 0.197783 0.75996 0.985231
5676 1 0.187349 0.766349 0.998027
19071 1 0.189007 0.765243 0.996496
10753 1 0.199235 0.760348 0.982703
9839 2 0.184948 0.781037 0.982211
4839 1 0.225131 0.750404 0.985822
627 1 0.22458 0.752389 0.982905
626 2 0.223443 0.756403 0.976982
14889 1 0.212265 0.779333 0.976852
11719 1 0.213997 0.777361 0.975299
11721 1 0.222208 0.766112 0.973655
625 1 0.222768 0.763414 0.974284
11720 2 0.219604 0.773091 0.972266
10560 1 0.241489 0.768526 0.987567
15983 2 0.238134 0.779171 0.984065
15982 1 0.240472 0.770896 0.986189
13804 1 0.225837 0.763228 0.991775
13805 2 0.22256 0.769639 0.994236
21312 1 0.253546 0.763445 0.969536
20782 1 0.269241 0.771829 0.9942
20784 1 0.253952 0.76786 0.994258
20783 2 0.261514 0.770544 0.995012
21311 2 0.256668 0.755764 0.972434
10558 1 0.250831 0.766549 0.994025
10559 2 0.2434 0.762706 0.992445
21171 1 0.284623 0.7503 0.979598
21169 1 0.288069 0.764791 0.976536
21170 2 0.284118 0.759222 0.980042
3437 2 0.141957 0.787165 0.979057
3438 1 0.141788 0.792543 0.972706
4175 2 0.13791 0.810858 0.997918
2729 2 0.179061 0.790776 0.998122
16593 1 0.15851 0.782546 0.977793
16592 2 0.165806 0.787006 0.979239
16591 1 0.170741 0.793029 0.97972
931 1 0.172714 0.795445 0.980329
932 2 0.177343 0.801195 0.981078
933 1 0.180082 0.807672 0.983838
7405 1 0.181625 0.81037 0.984821
9840 1 0.182784 0.784214 0.989404
6587 2 0.204063 0.798526 0.998534
2730 1 0.181842 0.785823 0.991842
11750 2 0.195341 0.793071 0.969583
11751 1 0.200958 0.788449 0.973456
14887 1 0.203398 0.787257 0.974883
14888 2 0.208667 0.784456 0.981211
6586 1 0.198695 0.797829 0.992526
16251 1 0.210421 0.801458 0.980335
16250 2 0.206033 0.809059 0.97852
19690 1 0.224 0.798056 0.970677
14590 1 0.225517 0.799715 0.973383
14592 1 0.226119 0.809521 0.984567
14591 2 0.22844 0.803748 0.980215
12742 1 0.225162 0.811851 0.985842
2630 2 0.249926 0.787918 0.996369
2771 2 0.252154 0.792385 0.969958
2772 1 0.248888 0.798519 0.971772
15984 1 0.243304 0.783395 0.988691
2629 1 0.245318 0.784523 0.991101
16162 1 0.275501 0.785215 0.977456
12724 1 0.290071 0.789722 0.979729
16164 1 0.287647 0.789003 0.981038
12725 3 0.296766 0.790915 0.974832
16163 2 0.281571 0.786126 0.982921
12726 1 0.303415 0.794539 0.977436
4515 1 0.30607 0.795297 0.977922
4514 3 0.313324 0.796905 0.978066
4513 1 0.319789 0.791719 0.97845
6813 1 0.130426 0.83285 0.984806
4174 1 0.136531 0.818399 0.993092
6812 3 0.133955 0.825609 0.985117
6811 1 0.13587 0.820574 0.99125
5856 1 0.163733 0.842926 0.995722
1609 1 0.176777 0.839531 0.990417
11984 2 0.174639 0.833498 0.97154
5855 2 0.164047 0.841196 0.988223
5854 1 0.163168 0.836629 0.980273
14784 1 0.164694 0.824572 0.993469
14346 1 0.156288 0.821737 0.975585
14782 1 0.157145 0.821477 0.978955
14783 2 0.160807 0.821434 0.986968
11983 1 0.177048 0.840899 0.971996
14731 1 0.177853 0.843421 0.972106
5655 1 0.16657 0.82591 0.996071
14173 1 0.200519 0.839207 0.981515
14385 1 0.200988 0.836162 0.981127
14384 2 0.202698 0.828062 0.981029
1611 1 0.186321 0.828819 0.988635
7407 1 0.186458 0.82551 0.98799
1610 2 0.184785 0.837304 0.988732
14383 1 0.205083 0.819494 0.979848
16249 1 0.205355 0.816712 0.97956
7406 2 0.185834 0.817739 0.986441
13143 1 0.18897 0.813624 0.998983