ITEM: TIMESTEP
25000000
ITEM: NUMBER OF ENTRIES
245
ITEM: BOX BOUNDS pp pp pp
0 50
0 50
0 50
ITEM: ENTRIES c_binfo[1] c_binfo[2] c_binfo[3] 
3 13306 13307 
2 19228 19229 
3 4964 4965 
3 4963 4964 
2 19229 19230 
1 13650 19230 
3 13649 13650 
3 13648 13649 
1 4965 14040 
3 14038 14039 
3 697 698 
1 11154 13648 
3 11153 11154 
3 11152 11153 
3 6847 6848 
1 6847 11152 
3 14554 14555 
3 18427 18428 
1 13308 18427 
3 13307 13308 
3 18428 18429 
3 14555 14556 
3 8350 8351 
1 8350 18429 
1 8457 14554 
3 16028 16029 
3 4652 4653 
3 4651 4652 
1 4651 16029 
3 5594 5595 
3 5593 5594 
1 5593 21160 
3 21160 21161 
3 16025 16026 
3 16024 16025 
1 16024 21162 
3 21161 21162 
1 2031 16551 
3 16300 16301 
3 16301 16302 
3 15535 15536 
3 15536 15537 
1 9174 15537 
3 9173 9174 
3 18923 18924 
3 18922 18923 
1 5790 18922 
3 9208 9209 
1 9208 16875 
3 16874 16875 
3 20549 20550 
3 9209 9210 
3 1273 1274 
1 1273 15604 
3 1274 1275 
3 692 693 
1 660 2964 
3 2963 2964 
3 6488 6489 
3 13057 13058 
3 6487 6488 
1 6487 13057 
3 13058 13059 
1 13059 20550 
3 2962 2963 
3 8131 8132 
3 16549 16550 
3 16550 16551 
3 14482 14483 
3 20108 20109 
3 20107 20108 
1 699 20107 
3 9172 9173 
1 9172 14482 
3 16084 16085 
1 16084 17376 
3 698 699 
3 14483 14484 
3 16873 16874 
3 5927 5928 
3 7046 7047 
3 7045 7046 
1 7045 16873 
1 3294 5928 
3 16085 16086 
3 14039 14040 
3 3293 3294 
3 3292 3293 
3 21428 21429 
3 21427 21428 
3 11674 11675 
1 11674 19474 
3 19474 19475 
3 2906 2907 
1 693 2907 
3 2905 2906 
3 19475 19476 
3 6305 6306 
3 5926 5927 
1 5926 6306 
3 6848 6849 
1 2892 6849 
3 2891 2892 
3 2890 2891 
1 2890 6936 
3 4888 4889 
2 14171 14172 
1 14172 14269 
2 14170 14171 
1 14170 15283 
2 14269 14270 
2 14270 14271 
3 15283 15284 
3 8351 8352 
3 8455 8456 
3 16027 16028 
3 8456 8457 
3 5788 5789 
1 5788 16027 
3 5789 5790 
3 2030 2031 
3 2029 2030 
3 7475 7476 
3 2500 2501 
1 2500 20256 
3 2501 2502 
3 15284 15285 
1 15285 15535 
3 7474 7475 
1 9039 11989 
3 9038 9039 
3 9037 9038 
3 20255 20256 
3 17374 17375 
3 17375 17376 
3 15604 15605 
3 7177 7178 
1 7177 18015 
3 7178 7179 
3 3820 3821 
1 3820 18094 
3 18095 18096 
3 18094 18095 
3 3821 3822 
1 18096 20548 
3 20548 20549 
3 15605 15606 
1 7179 15606 
3 658 659 
3 659 660 
3 8132 8133 
3 8077 8078 
3 14081 14082 
3 7669 7670 
1 7669 14484 
3 20254 20255 
3 6304 6305 
1 6304 14080 
3 14080 14081 
3 3220 3221 
1 3220 14082 
3 15422 15423 
1 15423 20254 
3 7670 7671 
3 17903 17904 
3 3221 3222 
3 4889 4890 
1 4353 4890 
3 4352 4353 
3 4351 4352 
3 691 692 
3 11675 11676 
1 8079 10614 
3 8078 8079 
3 10613 10614 
3 10612 10613 
1 10612 18426 
1 11787 17904 
3 11786 11787 
3 6934 6935 
1 6934 8604 
3 6935 6936 
3 18424 18425 
3 11785 11786 
3 8602 8603 
3 8603 8604 
1 4761 8602 
3 18425 18426 
3 6998 6999 
1 2502 6999 
3 11989 11990 
3 11990 11991 
3 18014 18015 
3 18013 18014 
3 19063 19064 
3 7363 7364 
3 7364 7365 
1 7365 8077 
3 6997 6998 
1 6997 11095 
3 11095 11096 
3 11096 11097 
3 15421 15422 
3 17902 17903 
1 11097 18204 
3 18203 18204 
3 18202 18203 
1 10527 18202 
1 3222 7170 
3 10525 10526 
1 10525 17902 
3 10526 10527 
3 19064 19065 
3 1409 1410 
3 4759 4760 
3 1408 1409 
1 1408 4759 
3 832 833 
3 833 834 
1 834 10615 
3 9722 9723 
1 9723 18424 
3 7169 7170 
3 7168 7169 
1 7168 13755 
3 9721 9722 
1 6978 9721 
3 6977 6978 
3 13754 13755 
3 13753 13754 
3 4760 4761 
3 6976 6977 
3 10615 10616 
3 1159 1160 
3 1160 1161 
3 14734 14735 
3 14735 14736 
1 1161 14736 
3 10616 10617 
1 795 10617 
2 793 794 
1 793 5355 
2 794 795 
2 5354 5355 
2 5353 5354 
