ITEM: TIMESTEP
5000000
ITEM: NUMBER OF ATOMS
51
ITEM: BOX BOUNDS pp pp pp
0.0000000000000000e+00 5.0000000000000000e+01
0.0000000000000000e+00 5.0000000000000000e+01
0.0000000000000000e+00 5.0000000000000000e+01
ITEM: ATOMS id type vx vy vz 
4409 2 -2.755 -2.46675 0.595438 
5495 2 -2.41712 0.710827 0.366768 
5494 1 -4.7741 3.5772 3.49972 
4408 1 6.02658 4.77886 0.960072 
5496 1 3.59939 1.52008 -2.00466 
21492 1 -1.60136 0.560477 4.71718 
21491 2 -1.15946 -1.71521 -3.86059 
21490 1 -1.79019 6.97108 -5.56645 
3272 2 -0.868662 -3.31635 8.1094 
3273 1 -2.06128 -5.5485 -7.95201 
11779 1 -5.12882 -1.81967 -4.62356 
4410 1 -3.55249 3.85809 0.238553 
11780 2 -3.40139 1.2356 -1.43816 
11781 1 -1.93024 4.81319 -5.03163 
6403 1 4.0527 -7.18887 -4.24931 
17536 1 -1.26711 3.06158 -2.06889 
17537 2 -1.63827 0.784976 -1.97052 
17538 1 0.6553 -4.29188 5.71369 
6405 1 -1.78324 -1.4407 3.94851 
6404 2 -0.227397 0.504734 -0.562433 
12683 2 2.38748 2.66817 -3.54794 
12682 1 3.20282 7.08592 3.86972 
12684 1 -3.30693 1.58148 0.260553 
13393 1 0.0931971 -2.98906 -3.07733 
3271 1 -2.69148 -4.35102 -0.461856 
13394 3 2.06242 0.134575 1.72933 
13395 1 1.54188 -6.12804 -1.61482 
14 2 2.01609 0.589907 2.47791 
15 1 2.9105 5.38875 0.565157 
13 1 -1.76306 -0.593658 -6.00151 
21504 1 -0.943046 -2.39206 3.04056 
8360 2 2.30738 -0.83602 -4.95328 
21503 2 4.48932 -0.817669 -6.6967 
8361 1 5.26766 3.56601 3.41151 
8359 1 1.78451 -6.35129 3.94466 
21502 1 3.84338 -2.46263 -2.05913 
9418 1 1.13632 0.991194 -5.59425 
9419 2 -0.563447 -0.43167 2.18046 
9420 1 4.14329 -2.95549 -3.32955 
2052 1 -3.2019 -0.219151 3.07 
2051 3 -2.76163 3.52292 1.78822 
2050 1 -4.21326 3.87896 1.40121 
12871 1 2.0568 -0.565515 4.6936 
12873 1 -1.28504 1.13092 2.79092 
12872 3 -1.78935 1.15442 2.30025 
19624 1 3.65677 -3.53224 2.77149 
19625 2 -0.878522 -3.07217 5.92348 
19626 1 0.324759 -1.69037 -1.04886 
10363 1 -3.0518 -1.642 -0.00892441 
10364 3 -2.04353 -2.19809 -1.04645 
10365 1 -1.84126 1.90052 0.285425 
