ITEM: TIMESTEP
5000000
ITEM: NUMBER OF ENTRIES
42
ITEM: BOX BOUNDS pp pp pp
0 50
0 50
0 50
ITEM: ENTRIES c_binfo[1] c_binfo[2] c_binfo[3] 
2 4409 4410 
2 5495 5496 
2 5494 5495 
2 4408 4409 
1 4408 5494 
2 21491 21492 
2 21490 21491 
2 3272 3273 
1 3273 21492 
2 11779 11780 
1 4410 11779 
2 11780 11781 
2 6403 6404 
2 17536 17537 
2 17537 17538 
1 6405 17538 
2 6404 6405 
2 12683 12684 
2 12682 12683 
3 13393 13394 
2 3271 3272 
1 3271 13393 
3 13394 13395 
2 14 15 
2 13 14 
1 13 17536 
2 8360 8361 
2 21503 21504 
1 8361 9418 
2 8359 8360 
1 8359 21502 
2 21502 21503 
2 9418 9419 
2 9419 9420 
3 2051 2052 
3 2050 2051 
3 12871 12872 
3 12872 12873 
2 19624 19625 
2 19625 19626 
3 10363 10364 
3 10364 10365 
