ITEM: TIMESTEP
5000000
ITEM: NUMBER OF ATOMS
21549
ITEM: BOX BOUNDS pp pp pp
0.0000000000000000e+00 5.0000000000000000e+01
0.0000000000000000e+00 5.0000000000000000e+01
0.0000000000000000e+00 5.0000000000000000e+01
ITEM: ATOMS id type vx vy vz 
11585 2 -1.4801 -1.88652 -1.95979 
11584 1 3.03928 1.29138 -5.79118 
18384 1 -0.837862 -3.78551 -4.09971 
9327 1 1.56067 4.08984 -1.44519 
9326 2 -6.0687 -1.37773 -1.18954 
7390 1 2.08926 -4.02218 -4.97212 
7391 2 6.18365 4.8575 1.37839 
11963 2 -1.24981 1.11851 4.59356 
11962 1 0.245107 -2.39553 -9.4017 
11964 1 -0.733367 0.786369 -3.97607 
14354 2 1.10555 0.726548 4.55785 
14353 1 -2.69553 -2.26743 3.30672 
14355 1 3.20322 0.617905 5.42509 
13052 3 -3.84696 -2.16683 -4.59087 
13051 1 1.93369 0.0911363 -5.07095 
13053 1 -0.920528 -1.15623 2.36619 
15923 3 -0.881805 -4.66829 -3.19755 
15924 1 1.94125 -2.48613 1.08528 
15922 1 0.300149 -0.976377 2.17338 
11219 2 0.689256 -2.51753 0.377564 
11220 1 2.8553 -4.14998 4.82339 
8032 1 -2.59704 -5.06118 -0.245021 
4165 1 -4.44762 4.68749 -5.37641 
8033 3 -2.94137 -3.41474 -1.35252 
11586 1 2.64664 0.644635 5.83025 
10723 1 4.02377 -1.16027 6.15461 
9216 1 0.445065 2.67501 -3.89401 
16016 3 0.820261 -2.26533 -3.69152 
16017 1 -2.50648 -6.43762 4.12846 
16015 1 0.0763124 2.12136 -1.97083 
4844 2 0.769027 -0.528534 -0.520113 
4843 1 2.07754 -1.84057 -5.39149 
4845 1 7.22171 -0.552455 -1.07824 
5408 2 0.81135 -2.93059 2.35946 
5407 1 -3.3125 0.667072 -3.22438 
19322 2 -0.10535 -3.55949 -0.798181 
19323 1 1.39358 4.95741 -2.79553 
19761 1 8.06451 -3.32257 -1.62185 
19759 1 -0.247072 3.4078 -5.56101 
19760 3 -1.84986 0.648954 1.87714 
6930 1 -0.169491 1.65704 8.98734 
4743 1 -2.71159 -2.72379 -1.26292 
5509 1 0.909886 5.81271 0.490186 
5510 3 -0.39281 1.66586 -2.04468 
5511 1 -3.51546 -3.77968 6.18665 
11218 1 2.97278 0.86522 -8.20243 
4741 1 -4.61768 1.70567 0.0594497 
4742 3 -0.749855 -5.87562 -0.314062 
14846 3 3.85164 -0.0715027 1.04439 
5622 1 -1.62998 0.827809 -1.95303 
14967 1 -1.22908 2.26241 -5.03789 
12598 1 -8.15277 -2.09649 -3.38598 
14966 2 0.530337 -1.52556 -2.11575 
14965 1 1.65117 1.03223 4.41461 
12599 2 0.952621 -0.271284 1.3243 
14145 1 1.7472 -3.14464 0.775978 
14144 3 5.44576 -1.76326 -2.3362 
10087 1 2.92141 -1.92947 -6.77919 
10088 3 2.75271 -2.03338 6.16932 
13566 1 2.10385 -1.22174 -3.51414 
9215 2 4.28848 -1.9107 3.8462 
9214 1 2.00505 0.870386 0.886457 
10742 3 0.926011 2.24952 -2.6933 
10743 1 -2.50091 1.97801 -1.1675 
5409 1 -1.02845 2.85138 -0.544468 
14052 1 2.76676 -7.48168 -3.16711 
6690 1 -0.708021 -0.032621 -1.23523 
2296 1 4.31239 0.692698 -2.38727 
2298 1 0.391059 2.81036 -3.45669 
14847 1 2.10767 -3.24021 -8.00867 
2297 2 -0.101312 3.23229 -0.319204 
5621 2 1.00424 -4.26442 2.34963 
5620 1 3.87489 -6.53946 5.97161 
8067 1 -4.30675 0.948348 -6.1196 
8066 2 0.665226 0.958356 0.652096 
8065 1 -0.856876 -3.18603 9.23957 
16763 3 3.43917 -0.797857 -2.55443 
16762 1 2.76893 1.8661 1.82435 
16764 1 -0.936765 -5.12641 1.21989 
16273 1 4.15359 3.14754 -3.58567 
16274 2 1.83885 0.110656 -0.0428224 
2974 1 -2.74669 1.08042 0.963338 
16275 1 -0.0255986 5.43432 1.36411 
14051 2 2.41598 -1.1259 -2.58375 
2413 1 -0.000105281 5.9277 0.526575 
14262 1 -0.92725 0.96053 -7.49636 
14261 3 3.54608 0.956783 -1.47775 
16634 3 5.12559 3.26221 2.27504 
16633 1 -3.5484 4.90911 -3.19117 
14260 1 0.00868476 4.54007 -0.0996722 
16652 3 -2.43412 0.301017 -1.91421 
16651 1 -1.82015 2.65953 -2.21148 
14495 2 2.50342 0.295413 3.30684 
14494 1 -2.02656 -0.146026 -5.64708 
2592 1 -2.99771 -2.30008 -1.84211 
2591 2 -1.03966 0.290041 1.76039 
14496 1 -0.490034 1.11834 -2.59893 
2590 1 0.572099 -1.84324 0.362296 
11796 1 1.75061 -1.05653 -2.58026 
11795 2 -1.60302 -0.950643 2.35882 
6205 1 -2.10159 1.0492 -6.00428 
10057 1 -2.11812 -0.79945 0.134273 
10058 2 -2.91863 2.26862 1.62678 
7193 2 0.826976 5.87372 -0.0579975 
7192 1 3.91232 -2.92023 -3.34576 
7194 1 1.23682 7.6751 0.980627 
2084 2 5.06704 0.556198 -2.74937 
2085 1 -1.10201 -1.24928 2.79681 
2083 1 -2.38394 3.35908 -6.41896 
9662 2 1.21592 -0.846564 -0.0115144 
9663 1 2.6446 -3.60779 5.48087 
9661 1 3.58152 3.39775 -8.29195 
19155 1 -1.03586 -1.59998 -1.87202 
292 1 4.09 5.08605 3.73508 
294 1 -2.11445 -3.40476 4.60284 
293 3 4.1772 0.117543 5.1303 
508 1 1.99543 -3.6624 7.0733 
509 2 -0.0605848 1.82264 1.0342 
510 1 -1.98098 2.09692 0.127835 
17777 3 -4.57201 1.46858 1.87788 
17776 1 -2.15576 2.79514 4.4557 
17778 1 7.90284 2.53294 -1.83432 
5324 3 1.86307 0.860227 -2.98143 
5325 1 0.193542 -0.20423 0.480976 
16309 1 -4.06571 -0.45863 -0.400622 
17098 1 0.759346 -0.711568 -5.06941 
17099 3 -2.61446 0.493916 0.382534 
17100 1 -1.11282 -3.32742 2.90614 
175 1 0.737034 1.94477 -3.38881 
6519 1 -0.64365 1.95235 1.68135 
6517 1 -1.16245 0.89276 -1.00137 
21034 1 1.63679 -1.34961 -2.86987 
19154 2 -1.93535 3.5291 -0.301941 
14478 1 1.68895 -3.2016 -0.451013 
19153 1 -3.73162 -1.53657 -6.49553 
4986 1 2.03276 -3.97021 -4.60295 
4985 3 1.11825 -0.0578342 3.15345 
2787 1 -1.72228 -0.969698 -3.66004 
2786 2 0.477492 -1.29928 -2.40531 
2785 1 0.433007 -3.57949 5.78463 
7668 1 1.84734 -0.516261 2.16618 
21014 3 -0.187665 1.0741 0.137194 
16310 3 -3.35543 3.35774 -0.0732535 
16311 1 3.29265 -0.0969842 -2.21557 
5822 3 -2.2296 -5.54602 -1.32043 
6518 3 -3.81649 0.653713 -0.151119 
3714 1 5.76541 -6.08435 -3.71439 
3712 1 -0.452812 -0.543845 -5.37939 
3713 3 1.62106 -2.83541 -0.816661 
2643 1 2.93103 0.604066 -5.90938 
4984 1 -4.05893 1.24507 -2.58045 
8799 1 -4.01641 0.201211 6.98627 
1690 1 -3.69326 -3.44183 -1.20969 
1691 2 1.32759 2.25204 -0.49292 
8798 3 3.9337 -2.40601 0.674528 
8797 1 -3.35825 -1.88981 4.36098 
1692 1 -7.93336 1.70133 -4.3141 
7667 2 -6.33565 -4.8464 -1.34588 
3298 1 0.557719 4.18561 3.08819 
3299 3 -1.32604 3.12701 0.587738 
3300 1 0.889829 -8.61369 -0.0824444 
7666 1 -1.07173 0.871769 -1.36832 
17363 2 -1.12115 1.7654 -0.498228 
17364 1 -1.48423 -0.730749 -0.932047 
17362 1 -4.24797 1.59861 2.22338 
21013 1 0.428827 -3.66349 -2.53449 
21015 1 -3.91735 -1.31586 2.73405 
5821 1 4.1111 -3.91365 3.04825 
13588 1 8.78582 0.871021 3.26524 
13589 3 -1.72114 0.01397 1.53513 
233 2 -4.63168 7.22164 -1.0766 
234 1 4.41744 -0.71413 -1.43454 
9304 1 -4.64047 0.653804 0.0304135 
2642 3 3.37579 -0.384243 -1.00571 
6733 1 -0.751308 -2.46609 5.82137 
6734 2 2.14816 0.923362 -3.65091 
6735 1 3.03283 0.420697 0.859575 
10635 1 -0.8746 -3.98773 1.77053 
10634 3 3.66399 -2.41453 -5.81733 
18910 1 -0.54253 2.34091 -5.304 
18912 1 0.398136 -3.19905 -4.52611 
18911 3 -0.831237 6.16213 -3.08309 
7321 1 -0.323631 -3.65992 -4.63945 
7322 3 0.111905 2.00889 -2.01474 
7323 1 -3.04184 -2.55864 -2.77584 
13590 1 4.62821 -2.8961 4.34007 
10114 1 -0.050018 1.93223 0.760061 
16929 1 0.336827 2.36503 11.8931 
10116 1 -8.80032 -1.9928 4.48313 
10115 3 -0.00313819 -0.259767 4.71735 
16928 3 0.971541 -0.201069 -0.484263 
232 1 -2.34552 -0.211961 -5.93926 
9305 2 2.08701 -0.370405 -2.51812 
9306 1 2.45615 5.64972 3.64541 
13228 1 -1.80118 1.33104 -4.04824 
3312 1 7.28815 10.5719 4.34214 
3311 2 -5.58244 -3.02606 -1.76049 
3241 1 2.68743 -2.35486 2.48549 
3310 1 6.77803 5.8253 -5.60418 
959 3 0.379435 -1.09894 3.64511 
15064 1 4.60311 3.26412 -1.43329 
3136 1 3.22249 -0.967638 -3.12975 
3137 3 0.780939 -0.547254 -3.27345 
3138 1 -1.06046 -8.39631 4.83428 
1259 2 -3.84752 -1.27591 -0.627948 
310 1 2.7664 -2.06373 -1.69335 
312 1 1.04124 -1.0555 2.29602 
311 2 -5.87362 -1.41736 -1.92113 
18506 3 0.452814 4.16516 1.17014 
18507 1 -4.35143 2.27244 -0.236902 
14970 1 -0.0620392 0.232675 1.92061 
14968 1 -1.81769 3.84939 5.51268 
14969 3 0.862508 2.2192 2.13376 
2236 1 -5.95944 4.54433 -3.8137 
12621 1 4.3979 -0.00648305 -2.59299 
12620 2 0.42039 -0.750536 0.0129033 
12619 1 1.76578 2.65984 -0.823971 
5959 1 0.173339 -0.966472 -5.24923 
16927 1 -4.69602 -0.734542 3.86523 
5960 3 -2.05953 0.152634 4.57085 
4337 2 -0.11289 1.28475 0.970544 
4338 1 0.468851 -3.16897 -2.4791 
4336 1 5.97824 -2.12098 -5.77363 
15607 1 -0.820725 -0.299496 9.42644 
11805 1 5.54108 -1.58294 2.91696 
11804 3 1.43424 0.992657 -1.90522 
11803 1 -3.22254 -0.845568 0.837759 
984 1 1.83708 0.903988 4.79544 
983 3 -2.19595 3.58715 6.5894 
982 1 3.61806 -4.72956 -3.45022 
13230 1 -3.01878 -5.22751 -0.799974 
13229 2 -4.16084 4.60217 -3.25737 
18857 2 -2.19835 3.15152 1.63487 
18856 1 -5.22949 1.63751 1.16529 
3243 1 -2.68123 -3.20803 -2.54201 
18858 1 -5.00348 -3.06046 -1.08399 
3242 2 -2.58876 -4.60148 0.556107 
8475 1 -3.23796 -1.60847 -4.6335 
8474 2 -3.31436 2.7918 -4.50387 
18407 3 -6.00601 0.111836 -2.57966 
18408 1 -0.307561 -0.818935 0.802803 
2659 1 -6.43312 1.2365 -5.07396 
2660 3 -1.04373 -3.04071 3.43717 
1260 1 -2.8832 1.96536 -3.96803 
2661 1 4.86105 1.84062 -2.9158 
10309 1 2.13545 -7.36024 1.12251 
10310 2 0.785499 3.94606 1.20944 
14318 2 0.0455973 2.64835 0.47675 
14317 1 1.55504 -2.89256 4.76996 
18505 1 -0.901927 1.69387 3.2144 
18336 1 2.09159 1.73798 -4.07684 
18334 1 1.99441 -4.063 -5.00046 
18335 3 2.83759 1.6244 -0.210684 
2237 2 4.21676 -0.670436 -1.34612 
2238 1 -4.21029 4.89976 -1.30895 
9241 1 -3.0316 2.46747 5.5524 
9242 2 -0.364968 0.639561 0.917036 
9243 1 -1.75606 2.18417 -5.91221 
18651 1 4.77105 3.76689 -2.25657 
21400 1 -1.66537 0.789107 0.0737076 
21401 2 -8.50334 -0.762919 1.19301 
1376 2 -3.43509 3.35809 1.90954 
1375 1 -4.93044 1.74543 -0.933235 
17344 1 4.24356 1.76595 0.45225 
8473 1 3.9418 4.27562 -0.081252 
2515 1 -3.55103 2.74662 -0.213005 
2516 2 -0.254252 -2.25026 4.12475 
2517 1 -3.25418 2.44335 -1.89856 
14319 1 4.55235 4.05508 -5.40536 
6541 1 -0.069283 0.323805 -0.370054 
6542 2 1.18275 -0.645273 0.99936 
6543 1 -0.486261 -6.57919 -4.21983 
5250 1 6.30456 -1.97801 3.64291 
5248 1 0.241959 3.86149 0.228918 
5249 3 0.853393 -2.05684 1.46236 
19111 1 3.79306 1.56992 -1.60743 
19113 1 6.13977 11.4134 -3.5811 
19112 2 -0.879481 0.286848 -0.457742 
7249 1 2.19638 -3.75489 1.33325 
7251 1 -3.77168 -0.785214 2.47563 
7250 2 1.68197 2.93701 0.747271 
10899 1 0.482634 -9.42423 1.19897 
19546 1 -2.54489 4.53199 -0.752013 
5787 1 2.52001 -3.35417 3.17655 
5786 3 -0.0778787 -0.835163 0.716118 
5785 1 0.586947 1.27948 -1.86781 
12408 1 -2.7815 2.48985 -2.5322 
12407 2 -0.432736 -0.524702 -3.44246 
12479 3 4.17763 -0.228634 -0.754483 
12480 1 -2.41734 0.784685 -2.0009 
12478 1 -0.200123 0.369013 3.96011 
13482 1 -4.70003 -2.33741 3.63935 
15395 3 0.444294 1.48839 -0.12098 
15396 1 -0.617444 0.543322 -2.24918 
15055 1 2.8526 2.50069 -5.01821 
5404 1 3.10807 5.51847 3.16822 
5405 2 -5.27147 4.81218 6.70409 
5406 1 0.49192 -2.82691 2.20373 
3551 2 -0.634162 -5.70768 -0.57247 
3552 1 -2.28711 -0.585924 -0.425659 
3550 1 -7.66928 0.428669 -7.33693 
10898 3 -5.40734 -0.597353 -0.241192 
10897 1 -4.96584 -2.13551 -1.03742 
19547 3 1.56286 -2.77863 0.358037 
19548 1 8.99718 0.45115 0.88896 
7140 1 -4.3704 0.0643606 5.53527 
20757 1 0.589836 7.48511 -4.81202 
12406 1 0.353762 5.51443 1.65785 
9875 3 0.622474 -0.148851 4.45096 
15394 1 -6.25941 0.789746 0.171551 
15056 3 0.607145 -1.24029 3.04863 
15057 1 -1.33684 2.4383 -2.30022 
16305 1 -0.878095 -1.79709 4.31971 
16081 1 -1.03358 -2.10949 0.669204 
16083 1 -2.01065 3.31048 0.0650104 
12670 1 -0.409746 2.16246 0.131338 
16082 2 0.631372 -1.08206 -1.0977 
6819 1 4.34701 -3.69442 1.47101 
21451 1 -0.658083 1.94897 4.11944 
8842 1 -7.20946 -0.192432 1.02046 
8843 3 2.31613 -2.80782 1.20257 
8844 1 -2.28151 0.409924 2.65896 
14323 1 3.50923 -3.95107 2.10686 
21452 3 -1.75482 1.71458 2.1939 
21453 1 0.471589 -0.0795105 1.81818 
18249 1 -5.68887 5.7534 -5.03947 
18248 3 -2.8602 1.30254 1.12587 
18247 1 8.36236 -2.86462 -0.586274 
2152 1 1.89402 -4.222 5.10375 
9876 1 -1.99338 0.367873 -1.70459 
9591 1 0.0643883 -5.7616 6.93036 
9590 2 2.26577 1.87586 -3.31116 
9589 1 -0.314178 2.44633 3.67084 
15000 1 -4.83017 -0.750416 -4.0491 
14999 2 2.12623 -1.82484 1.49861 
20264 2 -1.04313 -0.874499 0.662698 
20265 1 0.843162 0.163778 2.37801 
3331 1 -0.266354 -0.752095 5.22387 
3332 3 -0.216042 -0.603665 -3.59841 
3333 1 5.26995 -4.53729 -5.57549 
3141 1 -0.632879 6.11841 3.48403 
3140 3 2.09517 -2.17024 5.08329 
3139 1 -0.23206 3.28167 -2.78523 
14313 1 -1.68145 -1.3317 -1.04241 
3081 1 2.82155 -3.85928 1.07017 
13143 1 7.29048 1.1834 -4.92445 
13142 2 -1.26805 -1.49613 0.0797683 
3079 1 0.741092 3.32926 -3.84322 
13141 1 -1.65214 2.10797 -2.58136 
3080 2 -1.09103 2.71102 -1.45428 
18527 2 3.45131 -1.23645 0.262286 
18526 1 -3.35092 -0.294974 -2.40892 
18528 1 0.428184 0.721779 2.3711 
10681 1 -2.30429 -1.09885 4.97593 
10682 3 -1.2376 -0.587515 0.700373 
19776 1 1.45914 1.06537 0.947248 
19775 3 -0.244506 0.417442 3.06468 
19774 1 -0.582646 0.950029 -5.86985 
17675 3 0.457366 6.37238 -4.89499 
17674 1 -0.67948 -0.902971 -0.906973 
6957 1 -5.62284 6.45919 -2.78584 
6955 1 -2.91446 3.86093 1.14793 
6956 3 -3.72177 0.47543 1.03211 
11370 1 5.26244 2.56992 -0.924166 
11368 1 -4.67198 4.84691 -3.72029 
11369 3 -3.60215 -1.31783 2.74408 
6961 1 -1.65612 -3.93704 -1.39171 
6962 3 1.23411 0.0230305 4.20633 
6963 1 -4.20684 1.06875 0.34689 
17705 3 4.49714 -0.488008 1.38472 
17706 1 -1.84761 -0.708465 0.529306 
17704 1 -0.0530413 -3.14561 2.14078 
16497 1 2.57868 -4.10445 -4.10707 
16495 1 -1.46115 0.9158 3.0896 
10724 3 -0.211431 -1.19713 1.30216 
691 1 -1.57668 -0.899647 2.08567 
5934 1 1.98445 2.78983 1.05809 
6929 2 2.31489 -3.44073 -3.78896 
6928 1 5.93684 1.16753 4.31147 
16496 3 -2.53617 1.14633 0.592683 
20112 1 -0.41056 -1.53465 -5.37364 
15718 1 0.895427 0.164005 1.37192 
10089 1 1.99793 -2.46503 -4.83879 
10725 1 -0.795038 -4.09786 -0.691671 
21537 1 -7.25595 1.47354 9.30816 
21536 2 5.61231 2.5456 0.0148077 
693 1 0.316764 0.866423 4.2301 
692 3 -0.330979 0.085332 -0.207299 
1797 1 4.33421 -9.73821 1.92252 
1796 2 4.40714 -1.0493 -0.714357 
1795 1 -4.38189 -3.83297 5.68451 
9717 1 1.54286 -1.28251 -1.59437 
9715 1 -0.0198913 -1.78174 -5.89238 
9716 3 3.02519 1.99247 0.388011 
17985 1 -6.16579 -2.94748 2.49886 
16813 1 -6.04561 2.49434 -1.82063 
17984 2 3.74266 0.279232 -1.31101 
16139 2 -2.29069 1.44585 2.22024 
1439 2 0.14169 5.23758 -2.29622 
1438 1 -0.51297 -0.965642 -0.645403 
1440 1 7.25196 1.27487 1.29184 
16140 1 -4.70467 -1.30422 -4.41071 
16093 1 -0.419884 -1.90391 -0.929981 
16095 1 1.58295 -1.52588 1.63297 
16094 3 -1.1728 -0.696022 -1.28472 
17817 1 1.32623 2.45645 5.21711 
17815 1 -1.88208 4.7471 -1.45452 
17816 2 1.34924 -3.92172 -0.619649 
14845 1 -1.91245 -1.71915 -3.26364 
14697 1 5.44731 1.51399 1.96388 
14696 3 -1.09088 4.11549 1.87585 
14695 1 3.10421 1.00992 -8.6326 
20110 1 1.43078 0.825958 -5.02859 
20111 3 5.17535 -0.158919 -1.68264 
21535 1 0.15721 -4.06604 -6.97033 
16815 1 -5.31304 -9.63275 -6.26192 
16814 2 4.2512 2.53243 0.109578 
12829 1 -0.68965 0.735156 2.14162 
12830 3 0.956416 0.828248 3.73832 
12831 1 2.37817 -2.44285 -4.38594 
16138 1 1.04977 1.98727 1.97065 
16635 1 -0.800159 0.908329 -2.71899 
16653 1 0.217638 -3.959 -1.08638 
14904 1 -7.91913 -0.544801 -1.17038 
2532 1 -1.38659 -5.45416 3.1313 
2531 2 0.974123 -1.92513 -2.55152 
2530 1 0.460947 2.18082 5.1105 
5330 2 0.459029 0.656605 3.25 
5331 1 -8.31072 1.36141 1.83113 
5329 1 -3.20241 1.87474 4.88149 
17184 1 4.64396 -1.01228 -5.28355 
17183 2 0.922121 1.14595 0.97459 
17182 1 -4.22982 -1.81149 3.21398 
10059 1 1.75086 1.85317 -4.95298 
15353 3 1.23897 3.01051 4.90773 
15354 1 3.68266 -2.75302 -2.17647 
15352 1 3.36392 -1.39933 -2.58081 
3195 1 -1.57185 -3.31152 1.30016 
3194 2 3.40674 -0.676489 -3.8281 
10245 1 0.275928 4.05969 1.49049 
10244 2 -1.86653 1.69983 -2.1731 
10243 1 2.77896 6.79464 1.88128 
16270 1 -5.06329 -2.07678 0.477324 
16271 2 -1.28279 -1.59057 0.058626 
16272 1 -1.99737 -0.399747 0.382167 
15273 1 0.222295 3.61227 1.38442 
15272 3 -2.76799 -1.23385 -0.749001 
176 3 -0.603526 -1.13245 -0.808568 
177 1 0.729115 2.10111 -3.67206 
6600 1 -1.55526 -0.645741 4.59596 
6598 1 5.3295 -3.26074 -0.193095 
6599 3 -4.43951 1.38195 -3.93913 
4962 1 -1.11877 2.17114 6.13333 
4961 2 -1.0632 -1.08536 1.59951 
4960 1 -0.385333 4.2264 0.218554 
13151 3 -0.0470826 2.05464 -1.92242 
13150 1 -0.955972 -5.94071 0.407278 
14626 1 -3.67793 -1.68359 0.472228 
2710 1 -3.52594 -1.35334 -5.46881 
2711 3 0.246441 -0.044777 -6.58415 
15271 1 4.61013 1.80916 -1.81572 
14628 1 0.148565 -1.42293 -0.275752 
14627 3 0.432281 -1.57761 -2.23709 
5823 1 3.05617 1.68648 0.941982 
14604 1 0.246267 -2.55189 4.26377 
12059 2 -0.263114 -2.30937 0.379719 
12058 1 3.33951 -5.02728 3.64832 
8997 1 -0.705515 -3.82994 4.14975 
8996 3 2.71902 -2.72014 -5.19232 
8995 1 -0.251503 1.62461 3.25076 
1725 1 4.48477 -0.224151 -3.42782 
9273 1 1.17129 -2.10465 -1.9705 
9271 1 2.53522 -3.44493 -0.637216 
9272 2 3.8986 2.4289 1.00963 
4989 1 0.168972 5.89835 -6.47799 
4988 2 1.80743 1.71813 0.101312 
20109 1 -3.26586 1.91065 -0.373926 
20108 3 -0.739819 2.79831 0.403282 
20107 1 2.25516 -2.61672 0.380016 
13152 1 4.93902 -1.44997 3.29875 
2712 1 0.794372 1.8681 -6.87988 
16039 1 4.45402 -4.30412 -0.743038 
16040 3 -0.026384 -0.108896 -3.65291 
16041 1 6.12627 -4.09028 -6.91008 
8789 3 -2.36479 -1.4519 1.74738 
8790 1 -0.547299 0.507962 4.70099 
5310 1 4.14212 -1.02894 3.81587 
8788 1 1.61445 -2.67772 -0.614939 
16181 3 0.927919 -1.75322 0.898288 
16182 1 2.7711 -0.861942 2.19611 
16180 1 5.28653 1.49386 0.039441 
14603 3 2.16705 -3.53144 1.52371 
14602 1 -0.8434 3.52886 0.897435 
11878 1 -3.30051 -1.69608 -1.90524 
11880 1 5.62814 -3.30384 2.83697 
11879 3 -3.92242 0.0709196 -1.21414 
7475 3 0.0155304 -0.639346 3.8797 
7476 1 -0.581833 -1.10242 -2.03899 
7474 1 -3.24119 -3.57344 2.6823 
7198 1 -2.72567 -0.990549 -0.547452 
7199 2 -4.88461 -1.01566 -1.3124 
7200 1 2.92107 -0.605493 5.67927 
11910 1 1.58115 2.7597 -6.21702 
11908 1 -0.79959 3.2836 2.284 
11909 2 -1.36612 -0.324069 -3.38224 
14793 1 2.55351 -7.50525 -2.69031 
14792 2 -1.5226 -0.786465 2.45348 
14791 1 2.34548 2.96978 -0.71591 
2641 1 3.9148 -2.15485 -1.49798 
15026 3 0.598034 2.25573 1.1168 
15025 1 6.31264 5.15288 -0.734149 
11591 2 -0.62724 -0.0542494 0.370679 
11590 1 -5.71919 -2.72078 6.70516 
11592 1 0.399744 -6.33051 -0.159705 
5308 1 4.55887 0.83333 3.47376 
5309 3 1.44401 -1.22395 5.29878 
8881 1 -2.57385 -6.60094 -0.35626 
8883 1 -0.963504 -0.970734 -2.80291 
8882 3 -0.762538 0.485139 1.40967 
9574 1 2.03561 -0.88302 -1.22353 
9575 3 -5.03752 -2.22599 -1.59474 
9576 1 -0.597 6.27459 -0.857914 
14438 2 -3.52108 -1.73829 3.88074 
14439 1 4.77883 -1.54763 -2.11609 
4542 1 4.58159 -0.444749 -5.48643 
14437 1 -2.74728 -5.99122 -0.337241 
4540 1 4.44866 -3.29991 1.48611 
4541 2 -1.0437 0.600996 1.45714 
15027 1 2.94202 1.3764 -1.5493 
15065 3 -1.67295 -0.321091 -2.71662 
15066 1 -4.4156 -7.60835 -5.28737 
15463 1 -0.294285 4.33919 2.27787 
15464 2 -3.93456 -2.14401 -2.63564 
1258 1 -3.09067 -2.67031 0.531052 
15465 1 2.39882 -5.87976 -2.05952 
18068 3 5.14129 2.72198 -2.29048 
18067 1 -0.282528 0.0805306 -1.17011 
18069 1 3.56708 3.66024 1.29469 
18155 3 -2.18168 1.87487 -0.87125 
18154 1 3.08218 -6.6115 2.9576 
18156 1 -1.63156 3.06741 -0.370941 
19293 1 0.463067 -0.854953 -3.20761 
19292 2 -0.572319 -1.0864 -1.04583 
19291 1 -4.40428 -3.03501 2.35909 
9004 1 1.81603 -7.07143 -0.102521 
9005 2 -0.42132 -2.27924 -1.66171 
6460 1 -1.98992 6.88745 1.13777 
6461 2 -0.57685 3.25707 3.19241 
2388 1 -2.10688 2.80292 -4.82004 
2387 3 0.823505 5.06864 -1.35694 
16660 1 -4.33133 -1.33547 -3.92972 
16661 3 -1.12798 -3.15117 2.42059 
16662 1 4.98856 -0.0863789 -0.157669 
10311 1 0.397066 -0.838375 1.69728 
1711 1 -1.02931 -8.62389 -6.22367 
20073 1 0.832718 6.16402 -0.0693963 
20071 1 -0.215433 2.81698 5.80058 
20072 2 1.40932 1.27635 2.92404 
9334 1 -0.631577 0.499513 -6.22375 
19965 1 1.79435 1.84942 0.60234 
19964 2 1.16696 -2.47925 -0.604029 
15344 2 1.02946 2.05877 1.5921 
19963 1 1.57755 -3.32252 -4.26994 
3436 1 3.16901 0.0129257 1.01301 
15345 1 -5.201 -1.27844 -6.18762 
15343 1 -3.85584 -1.14436 2.86414 
1377 1 -2.14351 2.25844 -1.00889 
14641 1 -0.436133 2.04857 -2.94689 
14642 3 -0.554284 1.76201 6.77312 
17345 2 -0.116558 -0.298105 1.02764 
2491 1 2.10568 2.61268 6.97484 
2492 2 3.88197 3.05992 -3.83979 
2493 1 -2.02269 -6.74977 -0.113104 
17346 1 0.371926 -3.48669 0.570117 
4927 1 -7.50479 -7.36228 2.96196 
4929 1 -1.41855 3.61401 -6.45483 
4928 2 -0.752749 1.73433 1.09407 
1713 1 -4.31658 2.33973 -1.27124 
9336 1 -0.836434 -1.11297 2.68153 
9335 2 0.403739 -1.88738 2.41865 
11207 3 2.75938 -0.850009 -2.81703 
11206 1 -2.99175 -0.128921 -0.946886 
11208 1 0.778916 -5.59175 -2.96485 
5052 1 -1.50303 -7.0484 3.2867 
3437 2 0.386167 2.07975 -2.80616 
5819 2 -0.668084 7.692 0.148648 
5818 1 -4.08655 -1.02332 -0.73171 
5820 1 0.947761 -6.73157 -0.94228 
14643 1 2.76716 5.71612 -4.4953 
13480 1 -1.07208 -2.26941 -0.0526277 
13481 3 1.63667 -4.49094 3.34414 
5688 1 -1.61488 2.14107 5.36594 
5687 3 0.121092 -0.544804 -2.02436 
13283 2 5.80789 5.46416 -1.26425 
13282 1 0.203241 -6.91331 3.28176 
13284 1 -1.62981 2.19281 1.57765 
13471 1 -0.0763664 -0.180758 2.75484 
8084 2 -1.50423 -1.31615 4.33424 
8085 1 -0.899235 -1.31543 -8.44366 
8083 1 -4.56727 2.16357 -0.128532 
21457 1 -7.89462 -3.42703 -2.03635 
21480 1 -4.1206 -7.3904 -2.83663 
21478 1 -0.350791 1.81061 -2.22573 
21479 3 3.83855 -1.95868 -1.62442 
9874 1 4.16957 7.88691 -0.541661 
11711 2 2.14906 -0.7328 -2.84904 
11712 1 -2.62767 -5.09386 -4.67587 
14125 1 -5.11349 3.73627 -0.874568 
14127 1 -2.23113 -3.67476 0.433178 
14126 2 0.468824 -1.14019 -2.80016 
10060 1 0.400551 -1.83099 3.36656 
18300 1 -2.04816 0.246659 -0.976209 
18299 3 0.763062 -4.09043 -2.79814 
18298 1 3.49621 2.34265 1.88556 
12671 2 -4.85331 -0.719843 -2.66704 
12672 1 1.15695 1.02494 -1.9452 
7078 1 -0.673834 -3.90294 4.93298 
653 2 0.145907 2.84354 1.26049 
652 1 -3.66714 4.7291 -7.0433 
654 1 -2.75256 2.8105 -2.20967 
6818 2 1.80584 0.556305 1.36127 
6817 1 0.0797055 6.38926 -5.00661 
1761 1 1.13207 -2.62943 -1.22112 
1759 1 7.38244 -1.42345 3.32226 
1760 3 0.730694 3.38701 -0.109365 
14324 2 0.261681 4.0858 -1.28129 
14325 1 2.09897 1.50409 -4.64703 
2154 1 8.73379 7.37721 -0.395116 
2153 3 -3.63484 1.98261 -4.14586 
1414 1 2.05403 -1.87262 -0.0116594 
1416 1 5.37075 -5.25969 1.41812 
1415 3 1.77727 3.53657 0.328127 
16156 1 -0.314733 5.71131 3.35889 
16158 1 -1.498 -6.69735 -3.41445 
16157 3 0.682612 -1.35514 -3.69847 
11710 1 -2.10262 1.59762 0.721685 
9543 1 -1.68958 -1.86271 -5.9284 
9542 2 0.72161 -0.820915 -4.20463 
9541 1 0.633836 3.03342 -1.19993 
5187 1 1.21429 0.952408 3.98668 
5186 3 2.72081 -1.07781 -1.23679 
5185 1 -4.34254 -2.35102 -3.22278 
11658 1 -8.47912 -4.30058 0.969487 
14998 1 2.91134 0.432252 -2.59866 
14311 1 -4.2638 -0.71942 2.40681 
14312 3 1.61278 -0.43153 3.71488 
8 3 -1.97913 2.93485 3.63938 
9 1 5.79228 -0.440912 1.63424 
7 1 -5.04183 -3.27184 -0.604682 
7080 1 -1.45673 -1.24611 0.167935 
7079 2 -3.6116 0.898007 -1.28535 
9789 1 -1.24072 -1.54306 2.499 
9787 1 2.61949 -3.93072 0.324789 
9788 2 -0.178507 0.927709 -1.30759 
4914 1 3.12647 2.48323 0.828299 
4913 2 -2.71106 1.39229 -0.757263 
4912 1 6.06811 3.22887 -3.56151 
1574 2 1.2602 -4.0362 -1.75144 
1573 1 -5.16829 -4.51111 0.254774 
1575 1 1.37928 -0.956415 -5.56226 
13539 1 1.07059 2.76751 1.92337 
13537 1 0.663222 -4.6023 1.34234 
13538 2 3.51499 -0.816859 0.582541 
13714 1 -1.49387 -1.24535 1.66219 
13715 2 -3.83573 3.69147 -2.9564 
13716 1 2.39442 -7.5845 -3.89995 
5935 1 3.15217 -4.14665 -7.64715 
2936 2 -3.18065 5.03344 -3.29464 
17490 1 0.521364 6.86474 2.05573 
14491 1 2.29615 0.14192 3.62257 
5850 1 -1.96766 1.30563 1.6405 
13439 3 -0.726811 -0.575804 -0.224261 
13440 1 2.77635 -7.81024 -1.08978 
17634 1 0.828338 2.66998 -1.19147 
17633 3 -1.74116 -4.32399 0.371386 
15779 3 -0.488071 0.0526437 -0.514562 
15778 1 -3.70217 -8.16733 -1.34253 
15780 1 3.58078 -0.271019 -3.34059 
15720 1 -1.78159 0.816613 -2.68408 
17632 1 -5.82899 -0.393494 5.99084 
1558 1 -1.98378 4.7998 5.92577 
17997 1 4.19112 -0.770125 1.87289 
2937 1 -0.772864 2.93624 2.94891 
3404 3 -3.80308 3.10989 -0.961002 
3405 1 -4.86388 4.81278 3.87322 
3403 1 -7.0218 -2.05108 1.5812 
12921 1 -0.107698 -2.65776 -0.551845 
5933 3 0.838797 1.41711 -5.81544 
11706 1 -10.4497 -3.95203 1.47447 
5932 1 -0.0839194 -1.14297 1.51321 
11705 3 -1.75407 -4.48764 -1.06906 
11704 1 3.1507 5.31866 -0.589557 
5849 2 -0.176499 -0.277852 0.204142 
5848 1 -0.954027 1.86906 -3.08241 
13438 1 1.20667 0.544524 0.55975 
5078 3 -0.694954 4.06075 1.2989 
5077 1 -0.603403 1.7444 -2.30438 
5079 1 -0.751181 -2.43771 -4.7368 
17800 1 1.47646 -2.10146 -2.67019 
17801 2 -3.55564 -0.0675175 -0.00881003 
17802 1 -2.85362 -2.37227 3.43916 
15719 2 -4.63244 0.175636 -3.81674 
4253 2 2.41435 1.52439 -2.07566 
4254 1 0.624332 -0.0876466 1.9507 
4252 1 -0.316793 0.354355 1.50673 
10149 1 0.889149 0.316361 4.85148 
10148 3 -1.60366 -1.73877 -4.61505 
10147 1 3.03844 0.656132 2.74878 
17996 3 -5.37171 -5.53789 -0.297708 
17995 1 -1.7856 -0.348536 -2.06095 
14078 3 -0.292289 -2.7557 0.668347 
14077 1 2.68097 0.834228 -0.987598 
16916 3 -0.143896 -1.70066 -0.545277 
16915 1 -4.17018 -2.85684 -5.57309 
13204 1 1.86426 -4.36949 -4.90951 
13205 3 0.667486 2.76007 -0.345971 
13206 1 -3.70359 -1.11148 1.36684 
16917 1 0.666142 -5.43096 7.37657 
21213 1 -1.74066 -1.44057 2.92839 
17983 1 1.16613 4.33971 -5.6052 
20154 1 -1.92098 4.1826 -1.12058 
20152 1 -0.966192 5.47374 -6.72961 
20153 2 -0.376977 -3.51065 0.842897 
5102 3 -1.47205 3.19324 0.600833 
5101 1 -2.79439 3.04491 0.56216 
5103 1 2.26173 4.9533 -1.96912 
10726 1 -0.448836 -0.412319 -1.75609 
21211 1 0.332705 -0.0954275 3.49433 
21212 2 -2.03043 -1.31314 -0.955065 
10728 1 -2.66911 6.95927 1.86666 
10727 3 -0.297061 -2.68071 1.30486 
1472 3 -0.402994 -2.12298 1.57418 
1471 1 8.13094 -0.994759 -3.15416 
1473 1 2.79957 -4.19513 2.35949 
14545 1 -0.259978 0.556067 -0.278793 
14547 1 -4.3806 4.6606 3.64466 
14546 3 3.86228 -3.00587 0.82919 
14903 3 -3.32697 3.86613 -0.402974 
14902 1 2.32956 -2.60926 0.570263 
12080 2 1.62168 3.02866 -0.556948 
12079 1 0.174136 1.29377 -1.52505 
12081 1 -3.37727 1.38662 0.78147 
13935 1 0.949851 -2.11955 -3.17505 
2349 1 -5.87296 2.97096 2.7877 
2347 1 -4.48156 0.16584 0.304892 
2348 3 -0.561081 1.39462 -5.02491 
15362 2 2.45858 0.932486 0.492222 
15363 1 3.41086 4.63342 2.20563 
15361 1 -8.2135 -2.03713 -4.09764 
3193 1 5.1043 0.0436441 -0.193806 
12386 3 0.929275 -2.73276 1.12047 
12387 1 0.742567 2.89053 3.61607 
12385 1 -0.543326 4.44444 3.17227 
8055 1 -4.85381 -3.34434 2.08473 
8054 3 -0.734293 2.92017 -1.23276 
8053 1 -0.64762 -2.42512 3.58075 
14756 2 0.691126 0.338276 -1.15807 
14757 1 4.3093 -2.7189 -1.19835 
20130 1 4.55589 -7.20666 -4.78329 
20129 3 -1.63194 -1.19398 1.65942 
20128 1 -3.28203 5.19492 -3.51836 
17231 2 -1.43216 -2.29824 -0.277916 
17230 1 -0.903073 -0.274417 2.65716 
17232 1 0.704891 -2.0564 -8.49989 
9366 1 -0.64283 -3.31492 -5.36823 
9365 2 -0.316676 -2.47818 -5.96046 
9364 1 0.367259 0.314601 3.77858 
14822 3 4.02228 -2.96394 0.28409 
14821 1 -1.97906 -0.623103 1.82252 
14823 1 -3.04843 2.66654 3.99356 
1842 1 -1.50359 -5.67601 -8.77488 
1841 3 1.82783 2.00617 2.10297 
6448 1 -2.91014 -3.5393 0.281456 
18996 1 4.79964 1.1513 -3.92516 
18994 1 -3.74804 -5.5386 -4.30594 
18995 3 -1.39321 -0.452421 -0.614383 
10286 3 2.16694 -2.85658 -0.508039 
10287 1 3.65476 4.9233 0.377361 
10285 1 -2.84942 1.68483 0.448677 
13058 3 -1.83502 -0.980934 -0.604286 
13057 1 -4.40982 0.588141 3.86517 
20550 1 -3.63154 -0.688861 1.09355 
13059 1 2.47352 -7.01286 -0.839204 
6595 1 5.18778 -0.221021 0.272196 
6596 2 1.04656 -1.16182 2.07114 
11161 1 -1.54797 5.32422 2.97451 
11162 3 3.10372 -3.56154 -2.90431 
18954 1 -0.179828 4.12375 3.56262 
18953 2 5.1404 -2.58059 0.68496 
18952 1 -1.79815 0.749691 3.49294 
1840 1 -2.226 -2.64385 2.69781 
12060 1 -3.0115 2.70447 4.30677 
6449 3 -6.34663 -0.45974 3.6321 
6450 1 -9.54068 -2.12925 6.48022 
1723 1 -0.613353 -0.459358 1.22638 
13352 2 -0.599416 2.72301 -0.253623 
13351 1 3.67315 5.8735 -0.214593 
13353 1 2.19795 -2.435 6.78753 
1724 2 0.272834 -0.0406795 -2.18826 
11023 1 1.01118 2.62815 -3.00589 
20549 3 -3.7766 -1.09079 3.32926 
20548 1 3.33216 -1.75594 -0.372779 
18096 1 2.18529 -3.29121 -3.04248 
18095 3 4.16464 -1.24442 -2.34498 
18094 1 -1.77954 1.73978 -0.953215 
9474 1 -2.06353 -3.34598 3.52996 
9472 1 -1.79742 0.741059 -3.43203 
9473 3 1.71646 3.24104 -0.433178 
4265 2 -3.13201 1.17556 -4.08833 
4264 1 -1.56992 3.34031 2.42962 
11163 1 -0.90548 0.781411 0.596717 
14150 3 -2.6556 0.0213093 -1.74159 
14149 1 -1.3542 -2.22373 1.02319 
14151 1 -0.388567 -1.46806 -1.03706 
13902 1 -2.19769 2.58508 -0.850446 
13901 3 -1.59489 -2.33856 2.7947 
18964 1 -5.38296 4.03311 2.51706 
18965 3 -1.51751 -1.89599 -1.63702 
6562 1 -4.25851 0.94744 -1.19901 
18966 1 -2.5806 -1.88754 -2.60307 
13335 1 -2.71415 -3.58552 2.59901 
13333 1 -6.48033 5.18337 3.68804 
13334 3 4.31901 1.86257 3.73588 
1248 1 -0.700924 3.06252 5.33477 
1246 1 3.67292 -2.54622 0.859956 
1247 2 -4.88223 -3.00911 0.125905 
15109 1 0.551682 0.962722 -4.6032 
18702 1 4.66774 5.38373 -1.32837 
18701 2 5.01883 3.68406 -1.3297 
18700 1 -5.01282 2.8684 5.7977 
6981 1 -5.84887 1.42202 4.96695 
6979 1 1.17561 3.82598 -0.831739 
6980 2 -3.38199 -1.26305 0.861348 
4987 1 2.66649 -1.82502 -2.44175 
4266 1 1.68601 3.39869 -3.12944 
13512 1 0.242524 5.87515 6.99402 
17442 1 4.56739 6.78113 2.59365 
13511 2 -0.706277 3.38468 -2.04194 
13510 1 -3.24987 -1.30149 -2.07485 
15111 1 -2.95417 -4.4786 -5.29138 
15110 3 -2.47866 0.153657 0.157036 
14911 1 -0.582892 -4.72587 -2.42848 
6841 1 1.86354 -1.00042 -2.74484 
6909 1 -2.54023 2.4845 -2.31773 
4809 1 -1.63162 3.93404 4.99536 
6907 1 -1.71176 -1.94322 1.41396 
6908 2 -0.254514 5.69033 2.1127 
4807 1 -3.34628 0.859341 6.52781 
4808 2 2.7829 -1.92641 0.404689 
7556 2 1.06398 1.39635 3.97049 
7557 1 -1.80988 3.32103 4.88397 
6251 2 2.545 1.18871 -0.104715 
6606 1 -5.52185 1.4867 0.839443 
6605 2 -4.8586 -1.09602 -5.66228 
6252 1 -2.80733 -1.3285 0.369793 
6604 1 1.02982 1.15423 -8.52527 
14817 1 -0.410622 -1.2821 -3.3941 
14816 2 0.909243 -0.0290371 -0.79506 
14815 1 3.96091 -0.312649 1.24967 