ITEM: TIMESTEP
0
ITEM: NUMBER OF ATOMS
51
ITEM: BOX BOUNDS pp pp pp
0.0000000000000000e+00 5.0000000000000000e+01
0.0000000000000000e+00 5.0000000000000000e+01
0.0000000000000000e+00 5.0000000000000000e+01
ITEM: ATOMS id type 
13 1 
14 2 
15 1 
4408 1 
4409 2 
4410 1 
13393 1 
13394 3 
13395 1 
17536 1 
17537 2 
17538 1 
19624 1 
19625 2 
19626 1 
3271 1 
3272 2 
3273 1 
5494 1 
5495 2 
5496 1 
10363 1 
10364 3 
10365 1 
2050 1 
2051 3 
2052 1 
8359 1 
8360 2 
8361 1 
11779 1 
11780 2 
11781 1 
12682 1 
12683 2 
12684 1 
21490 1 
21491 2 
21492 1 
21502 1 
21503 2 
21504 1 
6403 1 
6404 2 
6405 1 
9418 1 
9419 2 
9420 1 
12871 1 
12872 3 
12873 1 
