ITEM: TIMESTEP
5000000
ITEM: NUMBER OF ENTRIES
15311
ITEM: BOX BOUNDS pp pp pp
0 50
0 50
0 50
ITEM: ENTRIES c_binfo[1] c_binfo[2] c_binfo[3] 
2 11585 11586 
2 11584 11585 
2 9326 9327 
2 7390 7391 
2 7391 7392 
2 11963 11964 
2 11962 11963 
2 14354 14355 
2 14353 14354 
3 13052 13053 
3 13051 13052 
3 15923 15924 
3 15922 15923 
2 11219 11220 
3 8032 8033 
3 4165 4166 
3 8033 8034 
3 10723 10724 
3 16016 16017 
3 16015 16016 
2 4844 4845 
2 4843 4844 
2 5408 5409 
2 5407 5408 
2 19322 19323 
3 19759 19760 
3 19760 19761 
3 5509 5510 
3 5510 5511 
2 11218 11219 
3 4741 4742 
3 4742 4743 
3 14846 14847 
2 12598 12599 
1 12598 14965 
2 14966 14967 
2 14965 14966 
2 12599 12600 
3 14144 14145 
3 10087 10088 
3 10088 10089 
2 9215 9216 
2 9214 9215 
3 10742 10743 
2 2296 2297 
2 2297 2298 
2 5621 5622 
2 5620 5621 
2 8066 8067 
2 8065 8066 
3 16763 16764 
3 16762 16763 
2 16273 16274 
2 16274 16275 
3 2974 2975 
1 2974 16764 
2 14051 14052 
2 2413 2414 
3 14261 14262 
3 16634 16635 
3 16633 16634 
3 14260 14261 
3 16652 16653 
3 16651 16652 
2 14495 14496 
2 14494 14495 
1 2592 14494 
2 2591 2592 
2 2590 2591 
2 11795 11796 
2 6205 6206 
2 10057 10058 
2 10058 10059 
2 7193 7194 
2 7192 7193 
2 2084 2085 
2 2083 2084 
2 9662 9663 
2 9661 9662 
3 292 293 
3 293 294 
2 508 509 
2 509 510 
3 17777 17778 
3 17776 17777 
3 5324 5325 
3 16309 16310 
3 17098 17099 
3 17099 17100 
3 175 176 
3 6517 6518 
2 21034 21035 
2 19154 19155 
2 19153 19154 
3 4985 4986 
2 2786 2787 
2 2785 2786 
3 21014 21015 
3 16310 16311 
3 5822 5823 
3 6518 6519 
1 3714 8997 
3 3712 3713 
3 3713 3714 
3 4984 4985 
2 1690 1691 
2 1691 1692 
3 8798 8799 
3 8797 8798 
2 7667 7668 
3 3298 3299 
3 3299 3300 
2 7666 7667 
2 17363 17364 
2 17362 17363 
3 21013 21014 
3 5821 5822 
3 13588 13589 
3 13589 13590 
2 233 234 
2 9304 9305 
3 2642 2643 
2 6733 6734 
2 6734 6735 
3 10634 10635 
3 18910 18911 
3 18911 18912 
3 7321 7322 
3 7322 7323 
3 10114 10115 
1 10116 16929 
3 10115 10116 
3 16928 16929 
2 232 233 
2 9305 9306 
2 13228 13229 
2 3311 3312 
2 3241 3242 
2 3310 3311 
3 959 960 
3 15064 15065 
3 3136 3137 
3 3137 3138 
2 1259 1260 
2 310 311 
2 311 312 
3 18506 18507 
3 14968 14969 
3 14969 14970 
2 2236 2237 
1 2236 12619 
2 12620 12621 
2 12619 12620 
3 5959 5960 
1 5959 16927 
3 16927 16928 
3 5960 5961 
2 4337 4338 
2 4336 4337 
3 15607 15608 
3 11804 11805 
3 11803 11804 
3 983 984 
3 982 983 
2 13229 13230 
2 18857 18858 
2 18856 18857 
1 3243 18858 
2 3242 3243 
2 8474 8475 
3 18407 18408 
3 2659 2660 
3 2660 2661 
1 1260 2661 
2 10309 10310 
2 10310 10311 
2 14318 14319 
2 14317 14318 
3 18505 18506 
3 18334 18335 
3 18335 18336 
2 2237 2238 
2 9241 9242 
2 9242 9243 
2 21400 21401 
2 21401 21402 
2 1376 1377 
2 1375 1376 
2 17344 17345 
2 8473 8474 
1 8473 17344 
2 2515 2516 
2 2516 2517 
2 6541 6542 
2 6542 6543 
3 5248 5249 
3 5249 5250 
2 19111 19112 
2 19112 19113 
2 7249 7250 
2 7250 7251 
3 19546 19547 
3 5786 5787 
3 5785 5786 
2 12407 12408 
3 12479 12480 
3 12478 12479 
3 15395 15396 
3 15055 15056 
2 5404 5405 
2 5405 5406 
2 3551 3552 
2 3550 3551 
3 10898 10899 
3 10897 10898 
3 19547 19548 
2 12406 12407 
3 9875 9876 
3 15394 15395 
3 15056 15057 
2 16081 16082 
1 16081 16305 
2 12670 12671 
1 12670 16083 
2 16082 16083 
3 21451 21452 
3 8842 8843 
1 8842 14323 
3 8843 8844 
1 8844 21451 
2 14323 14324 
3 21452 21453 
3 18248 18249 
3 18247 18248 
3 2152 2153 
2 9590 9591 
2 9589 9590 
1 15000 20265 
2 14999 15000 
2 20264 20265 
3 3331 3332 
3 3332 3333 
3 3140 3141 
3 3139 3140 
2 13142 13143 
2 3079 3080 
1 3079 13141 
2 13141 13142 
2 3080 3081 
2 18527 18528 
2 18526 18527 
3 10681 10682 
3 10682 10683 
3 19775 19776 
3 19774 19775 
3 17675 17676 
3 17674 17675 
3 6955 6956 
3 6956 6957 
3 11368 11369 
3 11369 11370 
3 6961 6962 
3 6962 6963 
3 17705 17706 
3 17704 17705 
3 16495 16496 
3 10724 10725 
3 691 692 
2 6929 6930 
2 6928 6929 
3 16496 16497 
2 15718 15719 
2 21536 21537 
3 692 693 
2 1796 1797 
2 1795 1796 
3 9715 9716 
3 9716 9717 
2 16813 16814 
1 16813 17985 
2 17984 17985 
2 16139 16140 
2 1439 1440 
2 1438 1439 
3 16093 16094 
3 16094 16095 
2 17815 17816 
2 17816 17817 
3 14845 14846 
3 14696 14697 
3 14695 14696 
3 20110 20111 
3 20111 20112 
2 21535 21536 
2 16814 16815 
3 12829 12830 
3 12830 12831 
2 16138 16139 
2 2531 2532 
2 2530 2531 
2 5330 5331 
2 5329 5330 
2 17183 17184 
2 17182 17183 
3 15353 15354 
3 15352 15353 
2 3194 3195 
2 10244 10245 
2 10243 10244 
2 16270 16271 
2 16271 16272 
3 15272 15273 
3 176 177 
3 6598 6599 
3 6599 6600 
2 4961 4962 
2 4960 4961 
3 13151 13152 
3 13150 13151 
3 14626 14627 
3 2710 2711 
1 2710 14626 
3 2711 2712 
3 15271 15272 
3 14627 14628 
1 5823 14602 
2 12059 12060 
2 12058 12059 
1 12058 14604 
3 8996 8997 
3 8995 8996 
2 9271 9272 
2 9272 9273 
2 4988 4989 
3 20108 20109 
3 20107 20108 
3 16039 16040 
3 16040 16041 
3 8789 8790 
1 5310 16041 
3 8788 8789 
3 16181 16182 
3 16180 16181 
3 14603 14604 
3 14602 14603 
3 11878 11879 
3 11879 11880 
3 7475 7476 
3 7474 7475 
2 7198 7199 
2 7199 7200 
1 11910 14793 
2 11908 11909 
2 11909 11910 
2 14792 14793 
2 14791 14792 
3 2641 2642 
3 15026 15027 
3 15025 15026 
2 11591 11592 
2 11590 11591 
3 5308 5309 
1 5308 11592 
3 5309 5310 
3 8881 8882 
3 8882 8883 
3 9574 9575 
3 9575 9576 
2 14438 14439 
2 14437 14438 
2 4540 4541 
1 4540 14437 
2 4541 4542 
3 15065 15066 
2 15463 15464 
2 15464 15465 
2 1258 1259 
3 18068 18069 
3 18067 18068 
3 18155 18156 
3 18154 18155 
2 19292 19293 
2 19291 19292 
2 9004 9005 
2 9005 9006 
2 6460 6461 
2 6461 6462 
3 2387 2388 
3 16660 16661 
3 16661 16662 
3 1711 1712 
2 20071 20072 
2 20072 20073 
2 9334 9335 
2 19964 19965 
2 15344 15345 
2 19963 19964 
2 3436 3437 
2 15343 15344 
3 14641 14642 
3 14642 14643 
2 17345 17346 
2 2491 2492 
2 2492 2493 
1 2493 17346 
2 4927 4928 
2 4928 4929 
2 9335 9336 
3 11207 11208 
3 11206 11207 
2 3437 3438 
2 5819 5820 
2 5818 5819 
3 13480 13481 
3 13481 13482 
3 5687 5688 
2 13283 13284 
2 13282 13283 
2 13471 13472 
2 8084 8085 
1 8085 12672 
2 8083 8084 
2 21457 21458 
3 21478 21479 
3 21479 21480 
3 9874 9875 
2 11711 11712 
2 14125 14126 
2 14126 14127 
2 10060 10061 
3 18299 18300 
3 18298 18299 
2 12671 12672 
2 7078 7079 
2 653 654 
2 652 653 
2 6818 6819 
2 6817 6818 
1 6817 9789 
3 1759 1760 
3 1760 1761 
2 14324 14325 
3 2153 2154 
3 1414 1415 
3 1415 1416 
3 16156 16157 
3 16157 16158 
2 11710 11711 
2 9542 9543 
2 9541 9542 
3 5186 5187 
3 5185 5186 
2 14998 14999 
3 14311 14312 
3 14312 14313 
3 8 9 
3 7 8 
2 7079 7080 
2 9787 9788 
2 9788 9789 
2 4913 4914 
2 4912 4913 
1 4912 14325 
2 1574 1575 
2 1573 1574 
1 1575 16698 
2 13537 13538 
2 13538 13539 
2 13714 13715 
2 13715 13716 
3 5935 5936 
2 2936 2937 
2 14491 14492 
3 13439 13440 
3 17633 17634 
3 15779 15780 
3 15778 15779 
1 15778 17632 
1 15720 15780 
3 17632 17633 
3 1558 1559 
3 3404 3405 
3 3403 3404 
3 5933 5934 
3 5932 5933 
1 5932 11706 
3 11705 11706 
3 11704 11705 
2 5849 5850 
2 5848 5849 
3 13438 13439 
3 5078 5079 
3 5077 5078 
1 5077 13438 
2 17800 17801 
2 17801 17802 
2 15719 15720 
2 4253 4254 
2 4252 4253 
3 10148 10149 
3 10147 10148 
3 17996 17997 
3 17995 17996 
3 14078 14079 
3 14077 14078 
3 16916 16917 
3 16915 16916 
1 16915 21213 
3 13204 13205 
3 13205 13206 
1 13206 16917 
2 17983 17984 
2 20152 20153 
2 20153 20154 
3 5102 5103 
3 5101 5102 
3 10726 10727 
2 21211 21212 
2 21212 21213 
3 10727 10728 
3 1472 1473 
3 1471 1472 
3 14545 14546 
3 14546 14547 
3 14903 14904 
3 14902 14903 
2 12080 12081 
2 12079 12080 
3 2347 2348 
3 2348 2349 
2 15362 15363 
2 15361 15362 
2 3193 3194 
3 12386 12387 
3 12385 12386 
3 8054 8055 
3 8053 8054 
2 14756 14757 
3 20129 20130 
3 20128 20129 
2 17231 17232 
2 17230 17231 
2 9365 9366 
2 9364 9365 
3 14822 14823 
3 14821 14822 
3 1841 1842 
3 6448 6449 
3 18994 18995 
3 18995 18996 
3 10286 10287 
3 10285 10286 
3 13058 13059 
3 13057 13058 
1 13059 20550 
2 6595 6596 
2 6596 6597 
3 11161 11162 
3 11162 11163 
2 18953 18954 
2 18952 18953 
3 1840 1841 
3 6449 6450 
2 1723 1724 
2 13352 13353 
2 13351 13352 
2 1724 1725 
2 11023 11024 
3 20549 20550 
3 20548 20549 
1 18096 20548 
3 18095 18096 
3 18094 18095 
3 9472 9473 
3 9473 9474 
2 4265 4266 
2 4264 4265 
3 14150 14151 
3 14149 14150 
3 13901 13902 
3 18964 18965 
3 18965 18966 
3 6562 6563 
1 6562 18966 
3 13333 13334 
3 13334 13335 
2 1246 1247 
2 1247 1248 
3 15109 15110 
2 18701 18702 
2 18700 18701 
2 6979 6980 
2 6980 6981 
2 4987 4988 
1 13512 17442 
2 13511 13512 
2 13510 13511 
3 15110 15111 
2 14911 14912 
2 6841 6842 
1 4809 6907 
2 6907 6908 
2 6908 6909 
2 4807 4808 
2 4808 4809 
2 7556 7557 
2 6251 6252 
2 6605 6606 
1 6252 6604 
2 6604 6605 
2 14816 14817 
2 14815 14816 
3 9703 9704 
3 9704 9705 
3 688 689 
3 689 690 
2 9560 9561 
2 9559 9560 
2 17440 17441 
3 20795 20796 
3 20794 20795 
3 6055 6056 
3 12239 12240 
2 14912 14913 
3 2386 2387 
2 7555 7556 
2 6250 6251 
2 15350 15351 
2 15349 15350 
2 12766 12767 
2 12767 12768 
3 12464 12465 
3 12238 12239 
3 19583 19584 
3 19582 19583 
3 21076 21077 
3 5554 5555 
1 5554 21076 
3 5555 5556 
3 1712 1713 
2 16868 16869 
2 5051 5052 
2 11833 11834 
2 11834 11835 
2 10331 10332 
2 10330 10331 
3 12463 12464 
3 701 702 
3 700 701 
3 5686 5687 
2 13472 13473 
2 17623 17624 
2 1012 1013 
1 1012 17625 
2 1013 1014 
2 17624 17625 
2 5050 5051 
2 15212 15213 
2 21458 21459 
3 10004 10005 
3 10003 10004 
3 4154 4155 
3 4153 4154 
2 10061 10062 
3 1058 1059 
3 1057 1058 
3 7532 7533 
3 7531 7532 
2 1339 1340 
2 1340 1341 
2 19126 19127 
3 7814 7815 
3 7813 7814 
3 3394 3395 
3 3395 3396 
3 15383 15384 
3 15382 15383 
3 12022 12023 
1 12022 15384 
3 12023 12024 
2 5354 5355 
2 5353 5354 
3 11656 11657 
3 11657 11658 
3 16030 16031 
3 16031 16032 
3 11491 11492 
3 11492 11493 
3 12578 12579 
3 12577 12578 
2 8924 8925 
2 8923 8924 
2 4609 4610 
2 4610 4611 
2 760 761 
2 761 762 
1 762 4609 
2 19127 19128 
2 4787 4788 
2 4786 4787 
3 20671 20672 
1 20671 21462 
3 20672 20673 
2 21461 21462 
2 21460 21461 
3 3529 3530 
3 3530 3531 
3 21157 21158 
3 6218 6219 
3 6217 6218 
3 21158 21159 
2 18773 18774 
2 18772 18773 
3 11386 11387 
3 11387 11388 
2 16151 16152 
3 9151 9152 
3 9152 9153 
2 16150 16151 
3 21566 21567 
3 21565 21566 
3 5936 5937 
2 15467 15468 
1 15459 15466 
2 15466 15467 
2 15458 15459 
2 15457 15458 
2 16804 16805 
1 16804 18018 
2 14492 14493 
1 14493 16806 
2 16805 16806 
2 7573 7574 
2 7574 7575 
3 1559 1560 
2 2935 2936 
3 7912 7913 
3 7913 7914 
3 6137 6138 
1 6138 7914 
3 6136 6137 
1 6136 17425 
3 17425 17426 
3 15824 15825 
3 15823 15824 
3 17426 17427 
2 20884 20885 
3 5645 5646 
3 5644 5645 
2 17458 17459 
2 12920 12921 
2 12919 12920 
2 14101 14102 
2 14102 14103 
2 1721 1722 
2 1720 1721 
2 17459 17460 
2 2369 2370 
2 2368 2369 
2 6176 6177 
2 6175 6176 
3 11608 11609 
3 7303 7304 
1 7303 11610 
3 11609 11610 
3 7304 7305 
2 8374 8375 
2 8375 8376 
1 8919 13434 
2 13433 13434 
2 13432 13433 
3 13696 13697 
3 7927 7928 
2 4115 4116 
2 4114 4115 
2 7024 7025 
2 7025 7026 
2 4838 4839 
2 7658 7659 
2 7657 7658 
3 13697 13698 
2 13933 13934 
2 13934 13935 
2 17405 17406 
2 155 156 
2 154 155 
2 14656 14657 
2 14657 14658 
3 7346 7347 
2 14755 14756 
2 3832 3833 
2 3833 3834 
3 11725 11726 
3 11726 11727 
3 14432 14433 
2 10189 10190 
2 13876 13877 
2 13430 13431 
2 13429 13430 
1 3639 13431 
2 17404 17405 
2 9640 9641 
2 9641 9642 
3 12049 12050 
3 12050 12051 
3 9475 9476 
3 9476 9477 
2 19099 19100 
2 817 818 
2 818 819 
2 19100 19101 
3 842 843 
3 841 842 
3 3338 3339 
2 15091 15092 
2 15092 15093 
2 13195 13196 
2 13196 13197 
2 5281 5282 
2 5282 5283 
3 14480 14481 
3 14431 14432 
1 9477 9859 
3 9859 9860 
3 9860 9861 
2 16483 16484 
2 16484 16485 
3 3352 3353 
3 6610 6611 
3 6611 6612 
3 17056 17057 
3 17057 17058 
3 3337 3338 
3 15697 15698 
3 15698 15699 
3 11752 11753 
3 11753 11754 
2 11024 11025 
3 8224 8225 
3 8225 8226 
3 5041 5042 
3 11167 11168 
3 11168 11169 
3 5042 5043 
2 1138 1139 
2 17942 17943 
2 17941 17942 
3 13900 13901 
2 10571 10572 
1 10572 13900 
2 10570 10571 
3 8993 8994 
3 8992 8993 
1 6564 8994 
3 6563 6564 
2 15541 15542 
2 15542 15543 
3 3353 3354 
3 20383 20384 
3 20384 20385 
2 7723 7724 
2 7724 7725 
2 13961 13962 
2 13960 13961 
2 5399 5400 
3 17935 17936 
2 1139 1140 
2 2353 2354 
2 2354 2355 
2 17441 17442 
3 12811 12812 
3 4075 4076 
1 4075 12811 
3 4366 4367 
3 4367 4368 
3 18604 18605 
2 6842 6843 
2 14204 14205 
3 17936 17937 
2 15002 15003 
3 9169 9170 
3 6056 6057 
3 4076 4077 
3 18605 18606 
2 15982 15983 
2 15983 15984 
2 15001 15002 
3 6329 6330 
3 6328 6329 
3 21077 21078 
3 278 279 
3 277 278 
2 16867 16868 
2 14461 14462 
1 11040 14463 
2 14462 14463 
2 15248 15249 
2 15247 15248 
3 18898 18899 
3 18899 18900 
3 20077 20078 
3 20078 20079 
3 18571 18572 
3 18572 18573 
3 11084 11085 
2 11038 11039 
2 11039 11040 
3 11083 11084 
3 2708 2709 
2 15211 15212 
2 21073 21074 
2 21074 21075 
3 15187 15188 
3 14279 14280 
2 1561 1562 
1 1561 14280 
2 1562 1563 
3 16121 16122 
3 16120 16121 
2 5774 5775 
2 1529 1530 
2 1528 1529 
2 3037 3038 
2 3038 3039 
1 9189 15402 
2 9188 9189 
2 15401 15402 
2 15400 15401 
2 9187 9188 
2 6656 6657 
2 6655 6656 
3 4351 4352 
3 4352 4353 
2 13972 13973 
2 13973 13974 
3 9823 9824 
3 9824 9825 
3 14278 14279 
3 11336 11337 
3 6814 6815 
3 6815 6816 
2 2938 2939 
2 2939 2940 
3 8698 8699 
1 8698 9153 
3 8699 8700 
1 8700 15625 
2 15625 15626 
2 18017 18018 
2 8263 8264 
2 8264 8265 
3 15751 15752 
3 15752 15753 
2 6163 6164 
3 2359 2360 
3 2360 2361 
2 15686 15687 
2 15685 15686 
2 17393 17394 
2 17392 17393 
1 549 17392 
2 548 549 
2 547 548 
2 15784 15785 
2 15785 15786 
3 1549 1550 
1 1549 6393 
3 6392 6393 
3 6391 6392 
1 6391 20886 
2 20885 20886 
3 1880 1881 
3 14536 14537 
1 3006 8829 
3 3005 3006 
2 8827 8828 
2 8828 8829 
3 19163 19164 
3 19162 19163 
3 2657 2658 
3 2656 2657 
3 17528 17529 
3 17527 17528 
3 14327 14328 
3 5465 5466 
3 1550 1551 
3 9064 9065 
2 16700 16701 
2 16699 16700 
3 19253 19254 
3 19252 19253 
3 1879 1880 
3 3004 3005 
2 5836 5837 
2 5837 5838 
3 10912 10913 
3 10913 10914 
3 13841 13842 
3 13840 13841 
2 17495 17496 
2 17494 17495 
3 8918 8919 
3 5464 5465 
3 7928 7929 
2 4837 4838 
3 8917 8918 
2 10190 10191 
2 3296 3297 
2 14534 14535 
2 14533 14534 
2 38 39 
2 37 38 
3 5447 5448 
3 5446 5447 
3 7345 7346 
2 3295 3296 
2 13877 13878 
2 5771 5772 
2 5770 5771 
2 3638 3639 
2 13594 13595 
1 2913 13594 
3 8792 8793 
3 8791 8792 
3 3746 3747 
3 13465 13466 
1 13465 20661 
3 20659 20660 
3 20660 20661 
3 13466 13467 
2 19442 19443 
1 13467 19441 
2 19441 19442 
3 14230 14231 
3 14231 14232 
3 19243 19244 
2 4715 4716 
2 4714 4715 
2 17927 17928 
2 13595 13596 
2 3637 3638 
1 3637 13596 
3 604 605 
3 605 606 
3 7241 7242 
3 20122 20123 
3 16459 16460 
3 3745 3746 
2 12442 12443 
2 12443 12444 
2 1184 1185 
2 1183 1184 
1 1183 14479 
3 14479 14480 
2 20569 20570 
3 17176 17177 
3 9430 9431 
3 9431 9432 
1 2187 5032 
2 18478 18479 
2 18479 18480 
2 9400 9401 
2 9401 9402 
2 5813 5814 
2 5812 5813 
1 5812 9402 
2 5398 5399 
3 18872 18873 
2 4643 4644 
2 4642 4643 
2 18638 18639 
2 18637 18638 
3 2189 2190 
3 2188 2189 
2 8122 8123 
2 8123 8124 
1 8124 20571 
2 20570 20571 
3 16612 16613 
3 12812 12813 
3 8450 8451 
3 8449 8450 
3 17177 17178 
2 2185 2186 
1 2185 20392 
2 20392 20393 
2 2186 2187 
2 12814 12815 
2 20393 20394 
1 12816 20394 
2 12815 12816 
2 8888 8889 
2 8887 8888 
2 166 167 
2 167 168 
2 12064 12065 
2 12065 12066 
2 14203 14204 
3 16573 16574 
3 5071 5072 
3 5072 5073 
3 9170 9171 
3 2420 2421 
3 2419 2420 
3 16613 16614 
3 17126 17127 
3 17125 17126 
2 17228 17229 
2 17227 17228 
3 11341 11342 
3 11342 11343 
2 13705 13706 
2 13706 13707 
1 5589 13707 
3 20804 20805 
3 20803 20804 
3 18079 18080 
2 7405 7406 
2 7406 7407 
2 1610 1611 
1 1611 7407 
2 1609 1610 
2 12086 12087 
2 12085 12086 
2 1669 1670 
3 7055 7056 
3 7054 7055 
3 4031 4032 
3 4030 4031 
2 18814 18815 
2 18815 18816 
2 2042 2043 
2 2041 2042 
2 1670 1671 
3 1304 1305 
2 20104 20105 
2 20105 20106 
3 2707 2708 
3 7862 7863 
3 7861 7862 
3 5767 5768 
2 10574 10575 
3 15188 15189 
2 11011 11012 
2 11012 11013 
1 1563 15220 
3 1303 1304 
2 15220 15221 
1 5655 14784 
2 5654 5655 
2 5653 5654 
2 19609 19610 
2 5773 5774 
2 17597 17598 
2 17596 17597 
3 1858 1859 
3 1859 1860 
1 1860 8389 
2 8389 8390 
2 8390 8391 
3 19042 19043 
3 19043 19044 
3 13958 13959 
3 13957 13958 
1 11013 13957 
3 12169 12170 
3 12170 12171 
3 17929 17930 
2 15221 15222 
3 17930 17931 
2 14782 14783 
2 14783 14784 
2 10010 10011 
2 10009 10010 
2 12242 12243 
2 12241 12242 
2 17315 17316 
2 11561 11562 
2 11560 11561 
3 4736 4737 
3 4735 4736 
1 4735 8043 
2 8042 8043 
2 8041 8042 
2 18730 18731 
3 20908 20909 
3 20909 20910 
2 8117 8118 
2 8116 8117 
2 9893 9894 
2 9892 9893 
3 1603 1604 
2 15626 15627 
3 1604 1605 
3 11393 11394 
1 14139 16704 
3 19160 19161 
3 19159 19160 
2 17828 17829 
2 17827 17828 
3 3919 3920 
3 3920 3921 
3 2747 2748 
2 6532 6533 
2 6164 6165 
2 17881 17882 
3 15578 15579 
3 15577 15578 
1 4188 8061 
3 4187 4188 
3 4186 4187 
3 14138 14139 
3 14137 14138 
3 2746 2747 
2 1492 1493 
2 1493 1494 
3 18697 18698 
3 18698 18699 
3 15329 15330 
1 15330 18699 
3 15328 15329 
3 10313 10314 
3 10031 10032 
3 10030 10031 
3 21340 21341 
2 1198 1199 
2 1199 1200 
3 14537 14538 
3 3686 3687 
2 15947 15948 
2 15946 15947 
3 6209 6210 
3 6208 6209 
1 6208 15948 
2 8060 8061 
2 8059 8060 
3 14326 14327 
3 18580 18581 
3 18581 18582 
3 10591 10592 
1 3588 18469 
3 18469 18470 
3 9065 9066 
3 16657 16658 
3 10312 10313 
1 10312 16657 
3 16658 16659 
3 21341 21342 
3 16372 16373 
3 10019 10020 
3 446 447 
2 19414 19415 
3 19117 19118 
3 19118 19119 
2 1108 1109 
2 1109 1110 
2 21311 21312 
2 1939 1940 
2 1940 1941 
2 13996 13997 
2 13997 13998 
3 12031 12032 
3 12032 12033 
2 10478 10479 
2 10477 10478 
3 20345 20346 
3 19339 19340 
3 10592 10593 
3 20294 20295 
3 20293 20294 
3 18470 18471 
2 13891 13892 
2 13892 13893 
3 16373 16374 
3 445 446 
2 19415 19416 
2 3706 3707 
2 3707 3708 
2 3643 3644 
2 3644 3645 
3 20183 20184 
3 20182 20183 
1 9660 13998 
3 15767 15768 
3 20344 20345 
3 2029 2030 
3 2030 2031 
3 14447 14448 
3 15521 15522 
3 14446 14447 
2 13868 13869 
2 13867 13868 
2 3857 3858 
3 19540 19541 
3 19541 19542 
2 19882 19883 
2 19883 19884 
2 15731 15732 
3 7591 7592 
3 7592 7593 
1 7593 15732 
2 15730 15731 
3 9028 9029 
3 9029 9030 
2 1025 1026 
2 1024 1025 
2 16064 16065 
2 16063 16064 
2 15845 15846 
2 15844 15845 
3 739 740 
3 740 741 
2 2912 2913 
2 2911 2912 
2 11920 11921 
2 11921 11922 
3 19244 19245 
3 10207 10208 
3 20896 20897 
1 16362 20896 
3 10208 10209 
1 10209 20898 
3 20897 20898 
3 16360 16361 
3 4091 4092 
1 4092 19302 
3 19301 19302 
3 19300 19301 
3 16361 16362 
2 17926 17927 
2 1469 1470 
2 8243 8244 
3 14653 14654 
3 7240 7241 
2 7709 7710 
2 7708 7709 
3 20123 20124 
3 16460 16461 
3 12100 12101 
3 12101 12102 
3 19885 19886 
3 19886 19887 
3 15418 15419 
3 4090 4091 
3 1511 1512 
3 1510 1511 
3 7910 7911 
3 7909 7910 
2 1468 1469 
3 14654 14655 
3 5879 5880 
3 5878 5879 
2 17660 17661 
2 17659 17660 
3 2723 2724 
3 5032 5033 
3 5033 5034 
2 4774 4775 
2 4775 4776 
3 15419 15420 
2 12697 12698 
2 12698 12699 
3 18253 18254 
3 15293 15294 
3 15292 15293 
3 5449 5450 
1 5449 16575 
3 16574 16575 
3 11558 11559 
3 11557 11558 
3 5450 5451 
3 8156 8157 
3 18871 18872 
2 11860 11861 
2 19874 19875 
2 19873 19874 
3 7691 7692 
3 7690 7691 
3 20396 20397 
3 14633 14634 
3 21424 21425 
3 21425 21426 
2 11351 11352 
2 11350 11351 
2 16624 16625 
2 16625 16626 
3 7265 7266 
3 20395 20396 
2 9331 9332 
2 9332 9333 
3 20315 20316 
1 5913 20316 
3 20314 20315 
3 5912 5913 
3 5911 5912 
2 5588 5589 
2 5587 5588 
1 5587 10866 
2 10865 10866 
2 10864 10865 
2 12866 12867 
3 12392 12393 
3 12391 12392 
3 4147 4148 
1 4147 12391 
3 4148 4149 
3 11347 11348 
3 11348 11349 
3 19448 19449 
3 19447 19448 
3 7264 7265 
2 13906 13907 
3 18080 18081 
2 18346 18347 
2 18347 18348 
2 13907 13908 
3 16487 16488 
2 15442 15443 
2 3844 3845 
2 15443 15444 
2 3845 3846 
2 15031 15032 
2 15032 15033 
3 110 111 
3 109 110 
2 18422 18423 
2 18421 18422 
2 13955 13956 
2 13954 13955 
2 383 384 
2 382 383 
1 382 13954 
2 12865 12866 
3 7715 7716 
3 7714 7715 
2 7768 7769 
2 6727 6728 
2 6728 6729 
3 16403 16404 
3 11677 11678 
3 5768 5769 
1 5769 11679 
3 11678 11679 
3 2759 2760 
3 2758 2759 
3 997 998 
3 998 999 
2 15133 15134 
2 10420 10421 
2 19576 19577 
2 13366 13367 
1 13366 19576 
2 19577 19578 
2 3391 3392 
2 13367 13368 
2 9122 9123 
2 9121 9122 
2 4094 4095 
2 4093 4094 
1 4093 19611 
2 13636 13637 
2 13637 13638 
2 14273 14274 
2 14272 14273 
2 15134 15135 
2 10573 10574 
2 10421 10422 
3 2366 2367 
3 2365 2366 
2 19610 19611 
2 3631 3632 
2 14753 14754 
2 14752 14753 
3 517 518 
1 519 7011 
3 518 519 
3 13342 13343 
3 13343 13344 
2 17314 17315 
2 3632 3633 
2 20792 20793 
2 20791 20792 
2 18731 18732 
2 4555 4556 
3 15074 15075 
3 15073 15074 
3 19279 19280 
3 19280 19281 
3 11392 11393 
3 1766 1767 
3 1765 1766 
3 6790 6791 
3 6791 6792 
3 1124 1125 
3 1123 1124 
3 16702 16703 
3 16703 16704 
3 4856 4857 
3 12274 12275 
2 12962 12963 
2 2258 2259 
2 6533 6534 
3 10225 10226 
3 10226 10227 
2 1684 1685 
2 2399 2400 
2 1685 1686 
2 17882 17883 
3 6157 6158 
3 6158 6159 
3 4855 4856 
3 5482 5483 
3 5483 5484 
2 13615 13616 
2 1331 1332 
3 21218 21219 
3 21217 21218 
3 7696 7697 
3 7697 7698 
2 2398 2399 
3 16681 16682 
3 16682 16683 
2 9292 9293 
2 9293 9294 
3 4699 4700 
3 4700 4701 
3 3587 3588 
2 1330 1331 
3 2500 2501 
3 2501 2502 
3 10018 10019 
3 965 966 
3 964 965 
1 964 10018 
3 3685 3686 
2 6073 6074 
2 6074 6075 
2 21310 21311 
2 15613 15614 
2 15614 15615 
3 15700 15701 
3 15701 15702 
1 6891 15613 
3 6418 6419 
3 6419 6420 
3 6502 6503 
3 6503 6504 
3 19340 19341 
3 10751 10752 
3 10750 10751 
3 3586 3587 
2 16166 16167 
2 16165 16166 
3 15524 15525 
3 15523 15524 
2 17380 17381 
2 17381 17382 
2 2603 2604 
2 2602 2603 
2 4222 4223 
2 4223 4224 
3 9659 9660 
3 9658 9659 
3 6071 6072 
3 6070 6071 
3 15766 15767 
2 3590 3591 
2 3589 3590 
3 15520 15521 
2 3856 3857 
2 4669 4670 
2 4670 4671 
1 4671 18679 
2 18679 18680 
2 18680 18681 
2 1036 1037 
2 1037 1038 
3 4828 4829 
2 10228 10229 
2 10229 10230 
3 3011 3012 
3 505 506 
3 4142 4143 
3 12053 12054 
3 12052 12053 
3 4141 4142 
2 8242 8243 
2 16601 16602 
2 16600 16601 
2 10544 10545 
2 10543 10544 
2 2885 2886 
2 11308 11309 
2 11309 11310 
3 12205 12206 
3 1586 1587 
3 1585 1586 
3 12847 12848 
3 12848 12849 
3 6109 6110 
3 17141 17142 
3 17140 17141 
2 12746 12747 
2 12745 12746 
1 12207 12745 
3 12206 12207 
3 7526 7527 
3 7525 7526 
3 18656 18657 
3 6110 6111 
3 2722 2723 
3 18254 18255 
3 8155 8156 
3 12250 12251 
2 11861 11862 
2 970 971 
3 8536 8537 
3 8537 8538 
3 14632 14633 
2 20560 20561 
2 12650 12651 
2 12649 12650 
1 12649 18255 
3 20836 20837 
3 20837 20838 
2 971 972 
3 16549 16550 
3 16550 16551 
3 17987 17988 
3 17986 17987 
3 7766 7767 
3 10981 10982 
3 7765 7766 
1 7765 10981 
3 7781 7782 
3 7780 7781 
2 4390 4391 
2 4391 4392 
3 3682 3683 
3 3683 3684 
2 6982 6983 
1 4392 6982 
3 5842 5843 
3 5843 5844 
3 8989 8990 
2 20252 20253 
2 20251 20252 
2 20261 20262 
2 20260 20261 
3 16486 16487 
3 12965 12966 
3 12964 12965 
3 7409 7410 
3 7408 7409 
2 9350 9351 
2 9349 9350 
2 6983 6984 
3 20981 20982 
3 20980 20981 
3 8990 8991 
3 5216 5217 
3 14060 14061 
3 14059 14060 
2 7769 7770 
3 7105 7106 
3 3989 3990 
3 3988 3989 
3 17870 17871 
3 17869 17870 
3 16402 16403 
2 7100 7101 
2 7099 7100 
2 19028 19029 
3 19138 19139 
3 19139 19140 
3 19204 19205 
3 19205 19206 
3 2311 2312 
3 2312 2313 
3 5215 5216 
3 2773 2774 
2 3392 3393 
2 3229 3230 
1 3229 3393 
2 3230 3231 
3 3734 3735 
3 3733 3734 
3 17429 17430 
3 17428 17429 
2 18929 18930 
2 18928 18929 
1 13128 18928 
2 19027 19028 
3 2774 2775 
3 7958 7959 
3 7957 7958 
2 2078 2079 
2 2077 2078 
2 13127 13128 
2 13126 13127 
3 11800 11801 
3 11801 11802 
2 16717 16718 
3 12119 12120 
3 12118 12119 
2 6236 6237 
2 6235 6236 
2 886 887 
2 887 888 
3 1457 1458 
3 1456 1457 
3 7009 7010 
3 7010 7011 
2 460 461 
2 15067 15068 
2 15545 15546 
1 15546 16719 
2 15544 15545 
3 20521 20522 
3 20522 20523 
2 16718 16719 
2 3640 3641 
2 3641 3642 
2 10471 10472 
3 15605 15606 
3 15604 15605 
3 14194 14195 
2 2086 2087 
2 2087 2088 
3 4712 4713 
2 4295 4296 
2 4294 4295 
2 11683 11684 
2 11684 11685 
1 7338 13222 
2 13222 13223 
2 19973 19974 
2 19972 19973 
3 19622 19623 
3 9265 9266 
3 9266 9267 
3 19621 19622 
3 10193 10194 
2 12961 12962 
2 8173 8174 
2 2257 2258 
2 8006 8007 
2 8005 8006 
1 1071 8005 
2 844 845 
2 13223 13224 
3 5413 5414 
3 5414 5415 
1 5415 13224 
2 12290 12291 
2 12289 12290 
3 11893 11894 
3 11894 11895 
3 10192 10193 
2 19316 19317 
2 19315 19316 
2 19961 19962 
2 19960 19961 
2 13616 13617 
3 21445 21446 
3 21446 21447 
2 17866 17867 
2 17867 17868 
3 13769 13770 
3 13768 13769 
2 14488 14489 
2 14489 14490 
3 2881 2882 
3 2882 2883 
3 2510 2511 
3 2509 2510 
2 15979 15980 
2 8176 8177 
3 14179 14180 
3 14180 14181 
3 3062 3063 
3 20714 20715 
3 20713 20714 
3 6889 6890 
3 6890 6891 
3 20695 20696 
3 20696 20697 
2 5669 5670 
2 5668 5669 
2 15980 15981 
2 2833 2834 
2 2834 2835 
2 8177 8178 
2 21281 21282 
3 11504 11505 
3 11503 11504 
2 16450 16451 
2 16451 16452 
2 7915 7916 
3 20600 20601 
3 20599 20600 
3 8521 8522 
1 8521 20601 
3 8522 8523 
2 14933 14934 
2 14932 14933 
2 13189 13190 
2 13190 13191 
3 3119 3120 
3 3118 3119 
2 21280 21281 
3 1792 1793 
3 1793 1794 
3 20590 20591 
3 20591 20592 
3 18775 18776 
2 7103 7104 
2 7102 7103 
2 12319 12320 
2 12320 12321 
3 4829 4830 
3 3889 3890 
3 3890 3891 
3 12305 12306 
2 17414 17415 
2 17413 17414 
1 17413 21580 
2 21580 21581 
2 21581 21582 
3 3010 3011 
3 11687 11688 
3 11686 11687 
3 506 507 
3 8932 8933 
3 8933 8934 
3 18776 18777 
3 18413 18414 
3 18412 18413 
3 16984 16985 
2 18631 18632 
2 18632 18633 
2 496 497 
2 2884 2885 
2 497 498 
1 498 13072 
2 13072 13073 
2 13073 13074 
3 17557 17558 
3 17558 17559 
3 3227 3228 
3 3226 3227 
3 16985 16986 
2 20057 20058 
2 20056 20057 
3 19405 19406 
3 19406 19407 
3 18655 18656 
3 11512 11513 
3 11513 11514 
3 13276 13277 
3 13277 13278 
2 9422 9423 
2 9421 9422 
3 16669 16670 
3 16670 16671 
1 441 9600 
3 440 441 
3 9599 9600 
3 9598 9599 
1 6111 9598 
2 17450 17451 
2 17449 17450 
3 11315 11316 
3 575 576 
3 11314 11315 
3 574 575 
2 4594 4595 
2 4595 4596 
1 11514 12252 
3 12251 12252 
3 20597 20598 
3 15131 15132 
2 20561 20562 
1 16221 18535 
3 16220 16221 
2 18535 18536 
2 18536 18537 
3 16219 16220 
3 7127 7128 
3 14186 14187 
3 14185 14186 
3 15596 15597 
3 15595 15596 
3 10702 10703 
1 10702 15595 
3 10703 10704 
2 15913 15914 
2 15914 15915 
3 15130 15131 
2 257 258 
3 8702 8703 
3 8701 8702 
1 600 10983 
3 10982 10983 
3 598 599 
3 599 600 
3 19222 19223 
3 19223 19224 
3 10744 10745 
3 10745 10746 
2 18982 18983 
2 18983 18984 
2 256 257 
1 256 14883 
3 14882 14883 
2 8086 8087 
2 8087 8088 
3 17570 17571 
3 17569 17570 
3 12983 12984 
1 12984 17569 
3 12982 12983 
2 14950 14951 
2 14951 14952 
2 9949 9950 
2 9950 9951 
1 14061 18982 
2 7216 7217 
2 70 71 
2 71 72 
2 21119 21120 
2 21118 21119 
2 718 719 
2 719 720 
2 20699 20700 
2 20698 20699 
2 18175 18176 
2 18176 18177 
2 4406 4407 
2 4405 4406 
1 18177 20869 
2 20869 20870 
3 7106 7107 
3 21199 21200 
3 21200 21201 
3 15599 15600 
2 18466 18467 
3 15598 15599 
1 15598 18466 
2 722 723 
2 721 722 
2 12361 12362 
2 12362 12363 
2 19564 19565 
2 19565 19566 
2 1780 1781 
2 1781 1782 
3 10660 10661 
3 10661 10662 
3 13225 13226 
3 17066 17067 
3 17065 17066 
3 12793 12794 
3 12794 12795 
3 2090 2091 
3 2089 2090 
2 18467 18468 
2 19288 19289 
2 19289 19290 
2 11563 11564 
1 11563 19290 
2 11564 11565 
3 18944 18945 
3 18943 18944 
3 16865 16866 
3 16864 16865 
3 13604 13605 
2 13328 13329 
2 4492 4493 
2 4493 4494 
2 2563 2564 
2 12172 12173 
2 12173 12174 
2 12415 12416 
2 15424 15425 
2 15425 15426 
2 10958 10959 
2 18565 18566 
2 18566 18567 
3 11546 11547 
3 11545 11546 
2 17851 17852 
2 17852 17853 
3 20936 20937 
3 10696 10697 
2 15068 15069 
2 17014 17015 
2 17015 17016 
3 14195 14196 
2 10957 10958 
1 924 3480 
3 3478 3479 
3 3479 3480 
3 20239 20240 
3 20240 20241 
3 7337 7338 
3 7336 7337 
3 6457 6458 
3 9227 9228 
3 9226 9227 
2 14615 14616 
2 16201 16202 
2 14614 14615 
2 8174 8175 
2 16202 16203 
2 15136 15137 
3 1069 1070 
3 1070 1071 
3 694 695 
2 14009 14010 
3 1345 1346 
2 5462 5463 
2 845 846 
3 1391 1392 
3 1390 1391 
1 1390 18609 
3 18608 18609 
3 18607 18608 
1 19809 20946 
3 19808 19809 
3 19807 19808 
2 20146 20147 
2 20147 20148 
2 9895 9896 
2 9896 9897 
2 2546 2547 
2 2545 2546 
3 1346 1347 
2 16369 16370 
2 16370 16371 
2 5386 5387 
2 5387 5388 
2 14299 14300 
3 20615 20616 
3 20614 20615 
2 13298 13299 
2 13297 13298 
1 13297 18033 
3 18032 18033 
3 3061 3062 
3 9482 9483 
3 9481 9482 
2 14300 14301 
3 20750 20751 
3 20749 20750 
2 4924 4925 
2 16318 16319 
2 16319 16320 
3 2578 2579 
1 2578 20338 
3 20338 20339 
3 2579 2580 
3 18031 18032 
2 7916 7917 
2 20941 20942 
2 20942 20943 
2 21043 21044 
2 21044 21045 
3 14738 14739 
2 20575 20576 
2 20576 20577 
3 20243 20244 
2 8678 8679 
2 8677 8678 
2 4925 4926 
2 10891 10892 
2 10892 10893 
3 20339 20340 
2 21191 21192 
2 21190 21191 
3 17849 17850 
3 17848 17849 
3 13627 13628 
2 15883 15884 
2 9769 9770 
2 9770 9771 
2 1064 1065 
2 1063 1064 
3 6037 6038 
3 6038 6039 
3 11807 11808 
3 12304 12305 
2 21584 21585 
2 21583 21584 
3 11474 11475 
3 11473 11474 
2 9827 9828 
2 9826 9827 
2 17155 17156 
2 17156 17157 
2 15884 15885 
3 18061 18062 
3 18062 18063 
3 15230 15231 
3 15229 15230 
2 18727 18728 
2 4082 4083 
2 4081 4082 
3 7465 7466 
2 10804 10805 
2 14218 14219 
2 14219 14220 
2 20926 20927 
2 487 488 
2 488 489 
3 439 440 
1 439 489 
2 12574 12575 
2 12575 12576 
2 3482 3483 
3 7544 7545 
3 7543 7544 
3 18071 18072 
3 18070 18071 
3 15530 15531 
3 12044 12045 
2 20822 20823 
2 20821 20822 