LAMMPS data file via write_data, version 5 Jun 2019, timestep = 120000000

51 atoms
3 atom types
42 bonds
3 bond types
33 angles
3 angle types

0.0000000000000000e+00 5.0000000000000000e+01 xlo xhi
0.0000000000000000e+00 5.0000000000000000e+01 ylo yhi
0.0000000000000000e+00 5.0000000000000000e+01 zlo zhi

Masses

1 0.25
2 0.5
3 0.5

Bond Coeffs # harmonic

1 6000 0.15
2 2000 0.4
3 2000 0.4

Angle Coeffs # harmonic

1 100 180
2 5 180
3 5 180

Atoms # angle

12873 1 1 3.8310688397543544e+01 1.6401815945535830e+01 5.2091816724369790e+00
12872 3 3 3.8285705749407263e+01 1.6770435787843407e+01 5.3920624329225006e+00
12871 1 1 3.8309032661964281e+01 1.6889280665622980e+01 5.7735973972390511e+00
9420 1 1 3.2246757569387299e+01 3.0669108019711228e+01 2.3214820281646602e+01
9419 2 2 3.2157704233886570e+01 3.1085368384632030e+01 2.3182038350417084e+01
21504 1 1 3.0435377913300702e+01 3.1343634876864169e+01 2.3575545912572494e+01
21503 2 2 3.0700256165915260e+01 3.1552471242942808e+01 2.3794008163246829e+01
21502 1 1 3.1121277487385722e+01 3.1582390462744641e+01 2.3725089919582377e+01
8359 1 1 3.1301744103633524e+01 3.1581655170989333e+01 2.3722307982986987e+01
8360 2 2 3.1662339791537811e+01 3.1671596233110797e+01 2.3654153184003906e+01
8361 1 1 3.1853263758023569e+01 3.1338537748661224e+01 2.3511689227736873e+01
9418 1 1 3.1920193087687689e+01 3.1249731229023283e+01 2.3444954505607203e+01
10364 3 3 1.0249397253985041e+01 4.0532115292879638e+01 2.6825126768511772e+01
10365 1 1 1.0362594131261256e+01 4.0418444835620747e+01 2.6462404679951554e+01
10363 1 1 1.0225742626745273e+01 4.0491757976324472e+01 2.7180166322406183e+01
6403 1 1 2.9788962347130554e-01 3.1593576622463516e+01 2.8262511408001462e+01
21490 1 1 2.6873308949239348e+01 3.2618611056480290e+01 3.0430977172721786e+01
21491 2 2 2.6890080888373976e+01 3.2989140753214407e+01 3.0309277380109734e+01
21492 1 1 2.7034397559205775e+01 3.3390423718798182e+01 3.0374373905100928e+01
3273 1 1 2.7095234294913755e+01 3.3521046861987699e+01 3.0408545524349222e+01
3272 2 2 2.7204092345116578e+01 3.3932032616651256e+01 3.0464242853501176e+01
13394 3 3 2.7844150208230669e+01 3.4548832208597993e+01 3.0711086408060719e+01
13395 1 1 2.8047265180415742e+01 3.4235354922610391e+01 3.0654785412193014e+01
3271 1 1 2.7425828337480166e+01 3.4216239198990188e+01 3.0580571507837419e+01
13393 1 1 2.7540509609574556e+01 3.4338354084966475e+01 3.0628817641014585e+01
5496 1 1 1.0738868554799261e+00 3.2871766578257422e+01 3.5686608003351516e+01
5495 2 2 6.8053876472140384e-01 3.2823972945083959e+01 3.5654218068495382e+01
4408 1 1 2.4872877973371896e-01 3.2758614489519559e+01 3.5977389378139009e+01
5494 1 1 3.7280192217647024e-01 3.2764147137330781e+01 3.5864307291372221e+01
15 1 1 4.8241747774938617e+01 3.2742595114049330e+01 2.7651930756948275e+01
14 2 2 4.8622830043246303e+01 3.2595087859853109e+01 2.7721315863386288e+01
13 1 1 4.8763035574428116e+01 3.2228616761522083e+01 2.7863205821300593e+01
17536 1 1 4.8829973534911524e+01 3.2104513029026016e+01 2.7883803992396050e+01
17537 2 2 4.9008335679102252e+01 3.1744902201086312e+01 2.7957870941515207e+01
17538 1 1 4.9374090847450873e+01 3.1671730363447924e+01 2.8077656444350691e+01
6405 1 1 4.9542081310150778e+01 3.1647355180072566e+01 2.8130604450907292e+01
6404 2 2 4.9936253076979597e+01 3.1583834880051995e+01 2.8311853701474675e+01
12684 1 1 4.6523081396403782e+01 3.0984434998260539e+01 3.1982629435499533e+01
12683 2 2 4.6551543125436183e+01 3.0733878325521559e+01 3.2288150361934917e+01
12682 1 1 4.6598596396973889e+01 3.0569292221421001e+01 3.2659572678952252e+01
19626 1 1 4.7764047259675344e+01 3.6944849191669242e+01 3.3697214732722536e+01
19625 2 2 4.7782561661372206e+01 3.7365162562086532e+01 3.3845944637623198e+01
19624 1 1 4.7876373408121808e+01 3.7337083503298437e+01 3.4192960028911493e+01
4409 2 2 4.9880154528415787e+01 3.2715093301624570e+01 3.6238022743062388e+01
4410 1 1 4.9783362934464357e+01 3.2913076836837526e+01 3.6568250213444713e+01
11780 2 2 4.9863204496137797e+01 3.3250261467405537e+01 3.6999817878259883e+01
11779 1 1 4.9790522769323495e+01 3.2985279929438533e+01 3.6668594987738338e+01
11781 1 1 4.9943139007565378e+01 3.3371061456630073e+01 3.7355061856969044e+01
2050 1 1 3.8568451809357441e+01 1.9130417124856805e+01 4.8338492827355083e+01
2051 3 3 3.8223412931148786e+01 1.8851499979771166e+01 4.8387802122453962e+01
2052 1 1 3.8027495708159492e+01 1.8542127540044849e+01 4.8424091793269930e+01

Velocities

12873 3.0421462491342641e+00 1.2626184971595888e+00 -1.6848592083261527e+00
12872 -8.6446553790489389e-01 1.5041929293648344e+00 2.6658435943971881e+00
12871 -5.6851538778022297e+00 -2.4353936393126046e+00 1.9042317744664250e+00
9420 -2.1637342207092036e+00 4.7975011442245101e+00 -2.1012533743582456e+00
9419 -1.1137226205371764e+00 2.7688242100393117e+00 -3.2610696706362119e-01
21504 -3.3386440360315479e+00 4.0051875732802928e+00 -5.3078309743387146e+00
21503 1.2056831694478367e+00 9.4226151823234150e-01 -7.4455843581824110e-01
21502 -1.3127000700504421e+00 6.0548541428176907e+00 7.6045696861050049e-01
8359 -6.7503930797516460e+00 3.5839761071080241e+00 -8.0472006143457442e+00
8360 1.7741799385258699e+00 -1.4754080803527778e+00 -1.5210737134375714e+00
8361 1.9819760819593828e+00 6.1197384013636025e-01 1.3783737692442732e+00
9418 -1.4552282757174559e+00 8.1799337351520052e-01 -2.0992546885307943e+00
10364 -2.9781978402825264e+00 8.2659450150188785e-01 -4.0158385661047955e+00
10365 -5.0141051912408754e+00 3.2808677977978253e+00 2.4115633986286613e+00
10363 3.1051803991040416e+00 -4.3827796612220127e-01 -2.8116383533574868e-01
6403 -6.2510873817042523e-01 -6.6078210105624435e-01 2.0863556017317073e+00
21490 7.3661240683616025e-01 -1.3349985455957238e+00 1.6846795709543165e+00
21491 3.4435371652094409e+00 1.4309014291490947e+00 2.2047027754698076e+00
21492 2.7924496610683951e+00 4.5563035693542397e-01 5.3795902546791829e+00
3273 -6.7667299039717743e-01 -3.2244584240990859e-02 3.2279621416493516e+00
3272 -1.9702879249830993e+00 -1.3626265473532584e+00 7.1919257164505479e-01
13394 -1.3220597303256236e+00 7.3732419515827496e-01 -1.9246543744617059e-01
13395 3.8756275422352593e-01 -2.5752319054219028e+00 -3.0165115313457620e+00
3271 1.1838916940093831e+01 2.9365130161137158e+00 1.9074157953219086e+00
13393 2.8219524930605147e+00 -5.6030911061035571e+00 -4.6237417133326062e+00
5496 -1.9861895738343722e+00 -6.8673734161000133e-01 2.2575145147320148e+00
5495 -9.0531314706958899e-01 -7.3116388378460817e-01 5.5196604960740236e-01
4408 -5.2943099569933527e-01 5.6055074057627259e+00 4.6011378379232359e-01
5494 -5.7348061326703137e+00 -6.1481016900970475e-01 -1.2644543339070946e-03
15 2.7043159492152720e+00 3.9016765860547070e-01 -1.3528491674318759e+00
14 2.1872486732927126e+00 4.2488084807487878e+00 -1.6910818647892247e+00
13 1.2917581501165090e+00 4.3807114286593052e-01 -1.2833879531065910e+00
17536 -2.0709007805131696e+00 4.2329576850156387e+00 9.0147213235990675e-01
17537 4.2980595484437183e+00 -1.4536096900898581e+00 3.9675202241817167e+00
17538 8.3312799991717377e+00 -3.0931245095426596e-01 4.6015768631896925e-01
6405 -4.3977416831632326e+00 -8.2358434505313904e-01 -2.5445412989540142e+00
6404 1.7060500158944756e+00 -3.0379859191805298e+00 -3.9798499906035878e+00
12684 -3.6184176449441385e-02 2.0430674853021955e+00 -3.7648466433049599e-01
12683 -1.6988068462859620e+00 1.9096618211922771e+00 -6.3890096864156221e-01
12682 -3.9157360831001906e+00 2.7687356933668039e+00 -3.1698924166209306e+00
19626 1.4040477163380640e+00 2.4120411685651018e+00 -9.2922803172620361e-02
19625 -8.5901751199933929e-01 -5.9800019556406081e-01 -1.2984090795604690e+00
19624 3.4746056105340295e-01 -6.2514091224678321e+00 6.5509508821657592e-01
4409 -1.6077269458844006e+00 1.1341679756267879e+00 -5.3453703908131400e+00
4410 -2.1745440497513902e-01 1.0254021183941702e+00 -4.8942618071251642e+00
11780 -1.0147714440296722e+00 2.9529570787177279e+00 -3.1084104863975988e+00
11779 -2.8585429260562307e+00 -2.6519230687773732e+00 -2.1374085573680146e-02
11781 -6.7554105448822122e-02 -2.8193855297635162e+00 -1.0161789847986258e-01
2050 5.0956357942326482e+00 -3.0146871261113173e+00 -7.6034097929195754e-01
2051 -1.7743951793490507e+00 3.4417185828143926e+00 -3.5854296348912378e+00
2052 -6.0406682966311873e+00 1.1485813998539971e+00 -2.2263830901319284e+00

Bonds

3188 3 12872 12873
3190 3 12871 12872
9159 2 9419 9420
9656 2 21503 21504
9657 2 21502 21503
9658 2 8359 8360
9659 1 8359 21502
9660 2 8360 8361
9664 1 8361 9418
9665 2 9418 9419
11818 3 10364 10365
11819 3 10363 10364
12111 2 6403 6404
12901 2 21490 21491
12902 2 21491 21492
12954 1 3273 21492
12955 2 3272 3273
12956 3 13394 13395
12957 2 3271 3272
12958 1 3271 13393
12959 3 13393 13394
14764 2 5495 5496
15058 2 4408 4409
15059 1 4408 5494
15060 2 5494 5495
16272 2 14 15
16273 2 13 14
16274 1 13 17536
16275 2 17536 17537
16868 2 17537 17538
16875 1 6405 17538
16876 2 6404 6405
18069 2 12683 12684
18477 2 12682 12683
18681 2 19625 19626
18682 2 19624 19625
19098 2 4409 4410
19099 1 4410 11779
19107 2 11780 11781
19108 2 11779 11780
19813 3 2050 2051
19815 3 2051 2052

Angles

3114 3 12871 12872 12873
8838 2 9418 9419 9420
9332 2 21502 21503 21504
9333 1 21503 21502 8359
9334 1 8360 8359 21502
9335 2 8359 8360 8361
9340 1 8360 8361 9418
9341 1 9419 9418 8361
11443 3 10363 10364 10365
12489 2 21490 21491 21492
12540 1 21491 21492 3273
12541 1 3272 3273 21492
12542 2 3271 3272 3273
12543 3 13393 13394 13395
12544 1 3272 3271 13393
12545 1 13394 13393 3271
14315 2 5494 5495 5496
14595 1 4409 4408 5494
14597 1 5495 5494 4408
15699 2 13 14 15
15700 1 14 13 17536
15701 1 17537 17536 13
16292 2 17536 17537 17538
16299 1 17537 17538 6405
16300 1 6404 6405 17538
16301 2 6403 6404 6405
17453 2 12682 12683 12684
18053 2 19624 19625 19626
18449 2 4408 4409 4410
18450 1 4409 4410 11779
18458 2 11779 11780 11781
18459 1 11780 11779 4410
19117 3 2050 2051 2052
