ITEM: TIMESTEP
5000000
ITEM: NUMBER OF ATOMS
21549
ITEM: BOX BOUNDS pp pp pp
0.0000000000000000e+00 5.0000000000000000e+01
0.0000000000000000e+00 5.0000000000000000e+01
0.0000000000000000e+00 5.0000000000000000e+01
ITEM: ATOMS id type xs ys zs
11585 2 0.0404632 0.0308236 0.0249553
11584 1 0.034413 0.0290107 0.0200539
18384 1 0.279404 0.0146491 0.00428458
9327 1 0.293226 0.00459328 0.0219293
9326 2 0.298728 0.00303538 0.0278831
7390 1 0.310427 0.018357 0.00631015
7391 2 0.305128 0.0236761 0.0019849
11963 2 0.327454 0.0245411 0.0304137
11962 1 0.331057 0.0309328 0.0308637
11964 1 0.328042 0.0175491 0.0304689
14354 2 0.422181 0.00704071 0.0114205
14353 1 0.41849 0.00158317 0.017199
14355 1 0.428721 0.0121462 0.00962459
13052 3 0.484495 0.0170995 0.0212375
13051 1 0.478766 0.0207521 0.0233323
13053 1 0.490278 0.0127465 0.0184085
15923 3 0.748952 0.0139566 0.00527237
15924 1 0.749054 0.00702176 0.00195197
15922 1 0.750864 0.0209182 0.00910451
11219 2 0.94017 0.0308744 0.00487796
11220 1 0.948428 0.0305572 0.00399142
8032 1 0.998422 0.0213514 0.00458872
4165 1 0.970809 0.0302277 0.00544354
8033 3 0.99859 0.0289397 0.0025627
11586 1 0.0408884 0.0390659 0.0286364
10723 1 0.183695 0.0616406 0.0275017
9216 1 0.189958 0.0586984 0.0107075
16016 3 0.259406 0.0550151 0.0170908
16017 1 0.262355 0.0498154 0.011621
16015 1 0.256535 0.0545929 0.0258828
4844 2 0.30027 0.044389 0.0157528
4843 1 0.29277 0.0420206 0.0202455
4845 1 0.30479 0.0484252 0.00958944
5408 2 0.510217 0.0568878 0.0135107
5407 1 0.509786 0.0494173 0.0131561
19322 2 0.784592 0.035456 0.000903949
19323 1 0.789692 0.036263 0.00770207
19761 1 0.867396 0.0408858 0.022363
19759 1 0.857678 0.044759 0.0116982
19760 3 0.864995 0.0451181 0.0164777
6930 1 0.872057 0.0372153 0.0281929
4743 1 0.912547 0.0584196 0.0111099
5509 1 0.935732 0.0397323 0.0206127
5510 3 0.929893 0.0455632 0.0212151
5511 1 0.923615 0.0502004 0.0231318
11218 1 0.93356 0.0327824 0.00151881
4741 1 0.92275 0.0518812 0.00359582
4742 3 0.919289 0.0572753 0.00793869
14846 3 0.949391 0.0623904 0.0277461
5622 1 0.998547 0.0595766 0.0185325
14967 1 0.00434667 0.0807754 0.0288362
12598 1 0.00191538 0.0830599 0.0109703
14966 2 0.00312226 0.0847401 0.0215841
14965 1 0.00211232 0.0835024 0.0137429
12599 2 0.00171768 0.0803514 0.00266061
14145 1 0.096758 0.0867315 0.0071962
14144 3 0.0963275 0.0920507 0.00170288
10087 1 0.170596 0.0876948 0.0303594
10088 3 0.167315 0.0812502 0.0312401
13566 1 0.198413 0.0788644 0.00093038
9215 2 0.187454 0.0666555 0.0133262
9214 1 0.184388 0.073081 0.0158332
10742 3 0.405917 0.0903272 0.000652578
10743 1 0.411598 0.0859285 0.00554813
5409 1 0.508329 0.0659167 0.0139537
14052 1 0.803368 0.092946 0.00755525
6690 1 0.900106 0.0772632 0.00733913
2296 1 0.93612 0.0897585 0.0245438
2298 1 0.946115 0.0823921 0.0159254
14847 1 0.944898 0.0647856 0.0210054
2297 2 0.939549 0.0847749 0.0207479
5621 2 0.993511 0.0657785 0.0202685
5620 1 0.988391 0.0695176 0.0161657
8067 1 0.541779 0.113935 0.0187521
8066 2 0.537808 0.11746 0.0130839
8065 1 0.532822 0.12204 0.0107122
16763 3 0.560798 0.100852 0.0117226
16762 1 0.568393 0.101303 0.0144931
16764 1 0.557877 0.0999303 0.00364447
16273 1 0.560295 0.116217 0.017656
16274 2 0.562425 0.118441 0.0247759
2974 1 0.55688 0.099486 0.000474559
16275 1 0.565484 0.112734 0.0292382
14051 2 0.800191 0.0962769 0.00119524
2413 1 0.823488 0.0952799 0.00184769
14262 1 0.86529 0.0982511 0.0161003
14261 3 0.872746 0.0996318 0.0142726
16634 3 0.896702 0.118038 0.0246533
16633 1 0.897394 0.112772 0.0177433
14260 1 0.880515 0.100046 0.0115416
16652 3 0.325809 0.132033 0.0242039
16651 1 0.321388 0.126618 0.0203867
14495 2 0.738719 0.143929 0.0243154
14494 1 0.737403 0.143043 0.0173428
2592 1 0.736405 0.142418 0.0145111
2591 2 0.735216 0.140514 0.00547699
14496 1 0.745287 0.140382 0.0267473
2590 1 0.736728 0.132579 0.00492222
11796 1 0.838493 0.144594 0.00733019
11795 2 0.845704 0.142914 0.00390833
6205 1 0.967101 0.125063 0.00396396
10057 1 0.0510561 0.179734 0.0258483
10058 2 0.0555721 0.185626 0.0284499
7193 2 0.0630283 0.166919 0.0199967
7192 1 0.0651354 0.161128 0.0161207
7194 1 0.0640978 0.167235 0.0288718
2084 2 0.171838 0.186617 0.00808694
2085 1 0.16608 0.18183 0.0108076
2083 1 0.179247 0.185696 0.00491627
9662 2 0.193254 0.181367 0.019913
9663 1 0.19379 0.184915 0.0271463
9661 1 0.197398 0.177134 0.0132447
19155 1 0.219002 0.179394 0.0237658
292 1 0.340239 0.174849 0.0164742
294 1 0.344193 0.17818 0.0026783
293 3 0.34232 0.173992 0.00889312
508 1 0.372418 0.168357 0.0237654
509 2 0.37146 0.160309 0.0230541
510 1 0.364372 0.156667 0.020957
17777 3 0.450877 0.172398 0.0155132
17776 1 0.444952 0.176681 0.0103027
17778 1 0.454632 0.169452 0.0220633
5324 3 0.716446 0.167399 0.00114705
5325 1 0.708434 0.16967 0.00154972
16309 1 0.908799 0.186008 0.00758419
17098 1 0.962138 0.18227 0.00637025
17099 3 0.960836 0.181477 0.0137932
17100 1 0.955657 0.182978 0.0191353
175 1 0.994116 0.158353 0.0290351
6519 1 0.109673 0.215327 0.00539589
6517 1 0.109812 0.217811 0.0184062
21034 1 0.147109 0.190963 0.00148681
19154 2 0.220386 0.187503 0.0209365
14478 1 0.22632 0.210581 0.00158844
19153 1 0.225581 0.193449 0.0226642
4986 1 0.387489 0.214975 0.0131781
4985 3 0.394558 0.218243 0.0108234
2787 1 0.664111 0.202475 0.014797
2786 2 0.656995 0.20269 0.0164471
2785 1 0.650479 0.207656 0.0146876
7668 1 0.804699 0.218206 0.014288
21014 3 0.861562 0.217108 0.00429882
16310 3 0.906093 0.193811 0.0110823
16311 1 0.902405 0.199906 0.0141293
5822 3 0.0639362 0.247842 0.0267327
6518 3 0.111639 0.221576 0.0111516
3714 1 0.149001 0.23608 0.0297201
3712 1 0.16183 0.236363 0.0223425
3713 3 0.154251 0.233415 0.0246085
2643 1 0.376292 0.24578 0.0228431
4984 1 0.399418 0.219763 0.00499391
8799 1 0.518319 0.219197 0.0222176
1690 1 0.52049 0.240512 0.0271617
1691 2 0.524955 0.243863 0.0221197
8798 3 0.523963 0.220042 0.0173083
8797 1 0.527473 0.226783 0.0150308
1692 1 0.530978 0.244538 0.0181072
7667 2 0.797087 0.221666 0.0117876
3298 1 0.807374 0.248565 0.0138301
3299 3 0.811016 0.244395 0.0207856
3300 1 0.81708 0.240816 0.0239126
7666 1 0.794669 0.228509 0.0122872
17363 2 0.821002 0.228506 0.00746204
17364 1 0.819263 0.220492 0.00996624
17362 1 0.824176 0.235614 0.00481649
21013 1 0.859718 0.222223 0.00935695
21015 1 0.867177 0.219067 0.000382941
5821 1 0.0658884 0.251812 0.0210939
13588 1 0.0991883 0.271501 0.0059499
13589 3 0.0979789 0.27853 0.00160035
233 2 0.232836 0.278393 0.021243
234 1 0.233285 0.271329 0.0204869
9304 1 0.286539 0.27694 0.0122735
2642 3 0.375781 0.251502 0.0287987
6733 1 0.460281 0.267655 0.0217666
6734 2 0.460277 0.261294 0.0261104
6735 1 0.463923 0.254901 0.0256575
10635 1 0.73607 0.275886 0.00739038
10634 3 0.739143 0.273629 0.000252832
18910 1 0.845458 0.262658 0.0215834
18912 1 0.852308 0.251915 0.0297857
18911 3 0.848816 0.257074 0.0259398
7321 1 0.105194 0.302696 0.0190117
7322 3 0.110087 0.297462 0.0141564
7323 1 0.113876 0.292152 0.0185946
13590 1 0.0994949 0.285609 0.000870671
10114 1 0.13222 0.286806 0.0138949
16929 1 0.13252 0.303405 0.0195969
10116 1 0.131818 0.300547 0.0194904
10115 3 0.131362 0.292622 0.0193353
16928 3 0.134853 0.311383 0.0193531
232 1 0.22742 0.284161 0.01915
9305 2 0.281794 0.283432 0.015825
9306 1 0.284273 0.28405 0.0242274
13228 1 0.544578 0.305734 0.0141883
3312 1 0.571229 0.292106 0.020044
3311 2 0.571029 0.298718 0.014587
3241 1 0.573116 0.312116 0.0281572
3310 1 0.567386 0.302989 0.00883218
959 3 0.721498 0.294835 0.00108148
15064 1 0.807322 0.286318 0.0241769
3136 1 0.840259 0.288412 0.0237874
3137 3 0.834311 0.293246 0.0202239
3138 1 0.826462 0.293712 0.0163097
1259 2 0.842738 0.308593 0.0307648
310 1 0.883976 0.290392 0.00609157
312 1 0.880214 0.289982 0.0208147
311 2 0.879429 0.292514 0.0119551
18506 3 0.00533435 0.33711 0.0205143
18507 1 0.0138395 0.335108 0.021119
14970 1 0.059675 0.328817 0.00145089
14968 1 0.0647613 0.341524 0.00779511
14969 3 0.0634814 0.333741 0.00667767
2236 1 0.101963 0.336203 0.0292736
12621 1 0.0951359 0.319568 0.0255588
12620 2 0.0986878 0.325869 0.0299742
12619 1 0.100908 0.33323 0.0294051
5959 1 0.129438 0.31735 0.0110964
16927 1 0.13095 0.316045 0.0130969
5960 3 0.124426 0.321614 0.00581384
4337 2 0.151137 0.321457 0.00272963
4338 1 0.14648 0.327541 0.00194673
4336 1 0.151569 0.31591 0.0078582
15607 1 0.223692 0.335064 0.00493275
11805 1 0.266209 0.315172 0.0107011
11804 3 0.263659 0.3191 0.0167434
11803 1 0.263693 0.326014 0.02247
984 1 0.426156 0.333886 0.0190677
983 3 0.432282 0.337713 0.023648
982 1 0.427515 0.341398 0.0297176
13230 1 0.549008 0.31884 0.0119864
13229 2 0.547232 0.313101 0.0158038
18857 2 0.588398 0.324463 0.00972059
18856 1 0.596548 0.326857 0.0123779
3243 1 0.581528 0.320548 0.017638
18858 1 0.583604 0.321774 0.0150246
3242 2 0.576845 0.317701 0.02271
8475 1 0.648763 0.332204 0.0215404
8474 2 0.648657 0.340681 0.0226714
18407 3 0.704564 0.34016 0.00326617
18408 1 0.706812 0.341532 0.0112535
2659 1 0.837709 0.322735 0.00968726
2660 3 0.83897 0.317086 0.0149278
1260 1 0.842663 0.313173 0.0235915
2661 1 0.841593 0.314799 0.0211268
10309 1 0.870426 0.336707 0.0283197
10310 2 0.872776 0.329046 0.0301285
14318 2 0.908577 0.341925 0.00887744
14317 1 0.909147 0.334052 0.00645015
18505 1 0.997956 0.337564 0.0178637
18336 1 0.988527 0.327949 0.0141469
18334 1 0.997668 0.315884 0.0164353
18335 3 0.993582 0.321566 0.012977
2237 2 0.104068 0.344467 0.0274792
2238 1 0.105787 0.35228 0.0275654
9241 1 0.331077 0.366447 0.0140552
9242 2 0.337559 0.362314 0.0156988
9243 1 0.341179 0.35629 0.0114811
18651 1 0.448238 0.356177 0.00578885
21400 1 0.48012 0.36824 0.00744102
21401 2 0.484896 0.370633 0.00155416
1376 2 0.59907 0.367429 0.0294373
1375 1 0.594172 0.368807 0.0219458
17344 1 0.652233 0.35001 0.0269787
8473 1 0.651304 0.347335 0.0256023
2515 1 0.775698 0.345167 0.0152376
2516 2 0.768204 0.345097 0.0141301
2517 1 0.761116 0.348258 0.0147943
14319 1 0.90693 0.346635 0.0148983
6541 1 0.962922 0.351893 0.0179106
6542 2 0.970745 0.350671 0.0169274
6543 1 0.97515 0.345575 0.0114927
5250 1 0.102283 0.388983 0.0165844
5248 1 0.0933601 0.37634 0.0180458
5249 3 0.0993971 0.381887 0.0163603
19111 1 0.174493 0.383065 0.00351712
19113 1 0.172192 0.39838 0.00250456
19112 2 0.173649 0.390527 0.00184744
7249 1 0.361894 0.388875 0.0154814
7251 1 0.34752 0.393826 0.0175296
7250 2 0.354935 0.392617 0.0196366
10899 1 0.411654 0.405834 0.00580217
19546 1 0.472473 0.405455 0.00610744
5787 1 0.523469 0.402067 0.0229637
5786 3 0.519129 0.398319 0.0289648
5785 1 0.515463 0.391156 0.0283303
12408 1 0.643411 0.402672 0.0194981
12407 2 0.643542 0.400335 0.0113154
12479 3 0.721792 0.394589 0.0111528
12480 1 0.718494 0.390625 0.00494203
12478 1 0.724664 0.395757 0.0183338
13482 1 0.781979 0.389234 0.030332
15395 3 0.921633 0.406188 0.00908772
15396 1 0.917451 0.399767 0.00528337
15055 1 0.969469 0.401584 0.00588606
5404 1 0.293281 0.41911 0.0303272
5405 2 0.293345 0.425092 0.0261388
5406 1 0.300144 0.427933 0.0229032
3551 2 0.341683 0.417527 0.0111583
3552 1 0.335197 0.420363 0.0154125
3550 1 0.347983 0.419702 0.0122406
10898 3 0.417881 0.410497 0.0043277
10897 1 0.424536 0.413172 0.00125332
19547 3 0.465667 0.408337 0.00837261
19548 1 0.4577 0.410885 0.00726578
7140 1 0.488518 0.406377 0.00558794
20757 1 0.571071 0.421865 0.00367364
12406 1 0.645163 0.406338 0.00782792
9875 3 0.720519 0.435963 0.0309788
15394 1 0.926689 0.411655 0.0112144
15056 3 0.964981 0.406307 0.00966656
15057 1 0.960191 0.411631 0.0112187
16305 1 0.163768 0.449839 0.00755201
16081 1 0.164191 0.450469 0.0107687
16083 1 0.165896 0.4459 0.0238957
12670 1 0.16622 0.444143 0.0260131
16082 2 0.166231 0.450887 0.0180955
6819 1 0.334624 0.455325 0.0268711
21451 1 0.390543 0.448056 0.0252623
8842 1 0.372658 0.455365 0.0294578
8843 3 0.379065 0.451088 0.0274661
8844 1 0.387231 0.448917 0.0252354
14323 1 0.370165 0.4568 0.0306647
21452 3 0.398971 0.446554 0.0253961
21453 1 0.406166 0.441425 0.0225262
18249 1 0.498556 0.460249 0.00305721
18248 3 0.502111 0.4615 0.00961542
18247 1 0.505935 0.45831 0.0159588
2152 1 0.664046 0.465943 0.0299412
9876 1 0.721313 0.443485 0.0280191
9591 1 0.838386 0.440226 0.0257376
9590 2 0.834138 0.44629 0.0214672
9589 1 0.83466 0.449299 0.012868
15000 1 0.979377 0.455106 0.0176718
14999 2 0.977368 0.456002 0.0257388
20264 2 0.983585 0.456784 0.00751461
20265 1 0.979888 0.455558 0.014769
3331 1 0.0378771 0.478463 0.0188934
3332 3 0.0371305 0.486066 0.0195813
3333 1 0.042234 0.491418 0.0170364
3141 1 0.0467421 0.470506 0.0200288
3140 3 0.0549768 0.472668 0.018961
3139 1 0.0629908 0.469579 0.0175125
14313 1 0.0951607 0.498089 0.0281839
3081 1 0.120391 0.474241 0.0300712
13143 1 0.116094 0.47937 0.000369549
13142 2 0.113506 0.481296 0.00767621
3079 1 0.116362 0.482467 0.018272
13141 1 0.115785 0.482188 0.0158679
3080 2 0.118365 0.481349 0.0266412
18527 2 0.330883 0.491616 0.0101656
18526 1 0.326994 0.498877 0.0116621
18528 1 0.331274 0.483986 0.00878812
10681 1 0.454266 0.490578 0.00514318
10682 3 0.458851 0.496519 0.0090219
19776 1 0.872839 0.476676 0.0146723
19775 3 0.866554 0.480087 0.0138091
19774 1 0.861997 0.482939 0.010753
17675 3 0.927161 0.499593 0.0249472
17674 1 0.930076 0.49198 0.0247292
6957 1 0.0274074 0.0122999 0.0476189
6955 1 0.0395567 0.00408279 0.0506297
6956 3 0.0328309 0.00735969 0.0472297
11370 1 0.514952 0.0120531 0.0323211
11368 1 0.506133 0.0182312 0.0421423
11369 3 0.510441 0.0133129 0.0378094
6961 1 0.496749 0.0252446 0.0489065
6962 3 0.493991 0.0202397 0.054444
6963 1 0.498155 0.0135009 0.0538948
17705 3 0.689601 0.0118064 0.0353187
17706 1 0.69166 0.0191625 0.0359617
17704 1 0.685346 0.00554312 0.0392744
16497 1 0.94007 0.0298683 0.0603706
16495 1 0.951219 0.0265534 0.0528927
10724 3 0.188101 0.0604165 0.0333613
691 1 0.493842 0.0575767 0.0366603
5934 1 0.692311 0.0527193 0.0571462
6929 2 0.869228 0.036643 0.0353678
6928 1 0.867489 0.0362712 0.0428967
16496 3 0.949212 0.0323236 0.0583722
20112 1 0.102889 0.0884268 0.0439314
15718 1 0.136395 0.0742781 0.0615016
10089 1 0.161709 0.075823 0.0318903
10725 1 0.19315 0.0628423 0.0407854
21537 1 0.300509 0.0919217 0.0576051
21536 2 0.308592 0.0919728 0.0547094
693 1 0.484794 0.0699256 0.0322622
692 3 0.489681 0.0641554 0.0341445
1797 1 0.512492 0.0713958 0.0523537
1796 2 0.518762 0.0668871 0.0507053
1795 1 0.522882 0.0649492 0.0438487
9717 1 0.543766 0.0765391 0.0551886
9715 1 0.554009 0.0884555 0.0539089
9716 3 0.54806 0.0822986 0.0551692
17985 1 0.632203 0.0894363 0.0533584
16813 1 0.632806 0.0909792 0.050817
17984 2 0.630385 0.0864697 0.0622198
16139 2 0.810581 0.0916595 0.0467686
1439 2 0.793143 0.0720039 0.0408202
1438 1 0.790305 0.0665929 0.0457566
1440 1 0.797722 0.0767326 0.0362361
16140 1 0.812634 0.086468 0.0536442
16093 1 0.901849 0.0748093 0.0488166
16095 1 0.894153 0.0725897 0.0620983
16094 3 0.901319 0.0743595 0.0575571
17817 1 0.907669 0.0805003 0.0450946
17815 1 0.915143 0.0893471 0.0349346
17816 2 0.913673 0.0841722 0.0404369
14845 1 0.953859 0.0657548 0.0341943
14697 1 0.0729719 0.119608 0.056217
14696 3 0.0782912 0.119828 0.0493616
14695 1 0.0822215 0.123951 0.0433866
20110 1 0.111258 0.101965 0.0453152
20111 3 0.10716 0.0950656 0.0456199
21535 1 0.316203 0.0948827 0.0539118
16815 1 0.628326 0.0950424 0.0378807
16814 2 0.633669 0.0954489 0.0436547
12829 1 0.783883 0.106828 0.046729
12830 3 0.780364 0.112299 0.0435102
12831 1 0.776853 0.118587 0.0407134
16138 1 0.8067 0.0938385 0.0383793
16635 1 0.900763 0.118023 0.0323968
16653 1 0.325273 0.133 0.0332294
14904 1 0.574454 0.153012 0.0622545
2532 1 0.745438 0.138524 0.0430197
2531 2 0.751387 0.133908 0.0472416
2530 1 0.757994 0.130254 0.0490177
5330 2 0.876929 0.136184 0.0360897
5331 1 0.875122 0.144385 0.0370092
5329 1 0.881018 0.12957 0.0388657
17184 1 0.906363 0.125839 0.0528473
17183 2 0.910195 0.132722 0.0497217
17182 1 0.916278 0.134438 0.0517877
10059 1 0.0606369 0.183646 0.0343176
15353 3 0.286272 0.18102 0.0490095
15354 1 0.291792 0.18242 0.055348
15352 1 0.281245 0.177675 0.044272
3195 1 0.301402 0.164049 0.0550701
3194 2 0.30527 0.163563 0.0623179
10245 1 0.73501 0.157727 0.0506774
10244 2 0.739198 0.162048 0.0555436
10243 1 0.745071 0.166159 0.05815
16270 1 0.774883 0.180537 0.0591533
16271 2 0.77298 0.179499 0.051518
16272 1 0.777286 0.17873 0.0450893
15273 1 0.834808 0.179227 0.0470966
15272 3 0.83162 0.186126 0.0433755
176 3 0.996256 0.162028 0.0371995
177 1 0.992896 0.161371 0.0440526
6600 1 0.0444274 0.21206 0.0513369
6598 1 0.0451237 0.199279 0.0499851
6599 3 0.0454128 0.204509 0.0536674
4962 1 0.444566 0.210494 0.0529685
4961 2 0.437075 0.20973 0.0489551
4960 1 0.43236 0.205665 0.044419
13151 3 0.80889 0.217275 0.0375012
13150 1 0.815764 0.214541 0.0350553
14626 1 0.844834 0.208076 0.0506823
2710 1 0.842272 0.209354 0.0503336
2711 3 0.835209 0.215386 0.0492444
15271 1 0.829031 0.193669 0.0448796
14628 1 0.856296 0.200873 0.0575264
14627 3 0.851697 0.203998 0.0519651
5823 1 0.0671274 0.249988 0.0339376
14604 1 0.0700167 0.245829 0.0507179
12059 2 0.0666934 0.238662 0.0616242
12058 1 0.0691294 0.243574 0.0540605
8997 1 0.147067 0.237178 0.0315417
8996 3 0.142326 0.240559 0.035704
8995 1 0.133994 0.242566 0.0356672
1725 1 0.238353 0.24635 0.0571272
9273 1 0.297418 0.235845 0.0556865
9271 1 0.310339 0.235386 0.0527088
9272 2 0.303475 0.239494 0.0514915
4989 1 0.687312 0.247553 0.0526817
4988 2 0.680941 0.245983 0.0575628
20109 1 0.7183 0.223328 0.0447854
20108 3 0.716115 0.231363 0.0460359
20107 1 0.712158 0.237302 0.0453443
13152 1 0.802429 0.220086 0.0398248
2712 1 0.828046 0.220591 0.0482032
16039 1 0.825939 0.230968 0.0345427
16040 3 0.82192 0.233443 0.0413274
16041 1 0.822389 0.242638 0.0407594
8789 3 0.843802 0.240342 0.0556996
8790 1 0.836717 0.243667 0.0524912
5310 1 0.822671 0.245506 0.0406142
8788 1 0.850126 0.238685 0.0539871
16181 3 0.866111 0.234627 0.0590569
16182 1 0.858857 0.23584 0.062089
16180 1 0.873151 0.2302 0.0566137
14603 3 0.0714863 0.251323 0.0445067
14602 1 0.0681902 0.250748 0.0368579
11878 1 0.103727 0.278595 0.0521685
11880 1 0.104142 0.272023 0.0386472
11879 3 0.103418 0.274447 0.0455318
7475 3 0.100617 0.254417 0.0530862
7476 1 0.0932317 0.252605 0.0555917
7474 1 0.10737 0.255411 0.052145
7198 1 0.284433 0.263631 0.0550279
7199 2 0.276935 0.267491 0.0532032
7200 1 0.273012 0.274165 0.0571919
11910 1 0.295098 0.273985 0.0322771
11908 1 0.278636 0.27143 0.0347255
11909 2 0.286951 0.272568 0.0331177
14793 1 0.297436 0.27412 0.0323967
14792 2 0.305789 0.274955 0.0337398
14791 1 0.309785 0.272803 0.0405727
2641 1 0.383026 0.254955 0.0332977
15026 3 0.512307 0.277146 0.0584196
15025 1 0.503752 0.274015 0.0610654
11591 2 0.817872 0.266167 0.0543227
11590 1 0.819277 0.267018 0.0617875
11592 1 0.818801 0.260352 0.0484571
5308 1 0.819098 0.258429 0.0463667
5309 3 0.822695 0.254186 0.0403225
8881 1 0.147026 0.303293 0.050409
8883 1 0.160229 0.31018 0.0497313
8882 3 0.154255 0.306083 0.0470065
9574 1 0.425741 0.308817 0.042584
9575 3 0.430137 0.307585 0.0354267
9576 1 0.436067 0.310223 0.0317094
14438 2 0.477116 0.296167 0.0511033
14439 1 0.474101 0.304127 0.0500958
4542 1 0.457918 0.281541 0.0558331
14437 1 0.471459 0.290874 0.0525085
4540 1 0.469849 0.288955 0.0529418
4541 2 0.464242 0.284322 0.0556839
15027 1 0.517316 0.283241 0.0611726
15065 3 0.807857 0.288935 0.032436
15066 1 0.807782 0.290802 0.0403868
15463 1 0.873519 0.305477 0.0453949
15464 2 0.876477 0.298315 0.0431755
1258 1 0.849153 0.305881 0.0337935
15465 1 0.880644 0.292665 0.0389323
18068 3 0.149229 0.330443 0.0465553
18067 1 0.14729 0.33762 0.0436604
18069 1 0.153623 0.323236 0.0470289
18155 3 0.264997 0.329612 0.0371233
18154 1 0.261282 0.324153 0.0402323
18156 1 0.271771 0.334633 0.0362905
19293 1 0.293699 0.326527 0.0428419
19292 2 0.296993 0.333381 0.0450735
19291 1 0.303581 0.335562 0.0479343
9004 1 0.360275 0.342431 0.0541607
9005 2 0.362069 0.341812 0.0622528
6460 1 0.520919 0.334506 0.0566407
6461 2 0.52558 0.330073 0.0624022
2388 1 0.635913 0.319007 0.0532907
2387 3 0.640915 0.318462 0.0585345
16660 1 0.783152 0.312561 0.0505518
16661 3 0.779162 0.317441 0.055676
16662 1 0.77175 0.320584 0.0582679
10311 1 0.865843 0.32455 0.0329103
1711 1 0.92625 0.340495 0.0614733
20073 1 0.00154648 0.363955 0.0415312
20071 1 0.0111755 0.36481 0.0530674
20072 2 0.00587858 0.366084 0.0479865
9334 1 0.0480256 0.372128 0.0599706
19965 1 0.29552 0.365042 0.0335154
19964 2 0.301889 0.359912 0.0343256
15344 2 0.330876 0.346218 0.0340518
19963 1 0.307892 0.355399 0.0351468
3436 1 0.306083 0.372419 0.050185
15345 1 0.324595 0.346434 0.0374175
15343 1 0.334169 0.352947 0.0370333
1377 1 0.600229 0.363221 0.0375718
14641 1 0.578364 0.371543 0.0563554
14642 3 0.586422 0.372955 0.0551136
17345 2 0.653445 0.356835 0.0313016
2491 1 0.650903 0.36616 0.054148
2492 2 0.654177 0.367219 0.0482437
2493 1 0.652967 0.362527 0.0417714
17346 1 0.65343 0.361244 0.0386109
4927 1 0.814576 0.347982 0.0377571
4929 1 0.83033 0.345696 0.0343942
4928 2 0.822108 0.345436 0.0365897
1713 1 0.932971 0.355794 0.0621022
9336 1 0.0457787 0.387528 0.0603455
9335 2 0.0472779 0.379634 0.0591721
11207 3 0.109971 0.381504 0.0427854
11206 1 0.104686 0.375581 0.0400322
11208 1 0.1159 0.387106 0.044297
5052 1 0.126233 0.400338 0.0617871
3437 2 0.303727 0.376444 0.0572227
5819 2 0.484189 0.397606 0.0557106
5818 1 0.479142 0.39305 0.0583902
5820 1 0.490801 0.402372 0.0532752
14643 1 0.594228 0.375455 0.0555111
13480 1 0.786913 0.394418 0.0422638
13481 3 0.788547 0.392627 0.0352629
5688 1 0.954853 0.375949 0.0526135
5687 3 0.957165 0.375667 0.0615026
13283 2 0.0316998 0.415751 0.0416118
13282 1 0.0326667 0.410627 0.0482487
13284 1 0.0340733 0.417704 0.0341119
13471 1 0.0323984 0.409173 0.0581438
8084 2 0.176122 0.432561 0.0474279
8085 1 0.172236 0.436607 0.0415696
8083 1 0.18296 0.427217 0.0488334
21457 1 0.416934 0.409538 0.0620745
21480 1 0.631103 0.411379 0.0423062
21478 1 0.641656 0.41899 0.0490879
21479 3 0.637514 0.413349 0.0464885
9874 1 0.720915 0.43068 0.038299
11711 2 0.785939 0.433006 0.0323173
11712 1 0.786639 0.424622 0.0351123
14125 1 0.838313 0.41688 0.0480134
14127 1 0.838149 0.417387 0.0623319
14126 2 0.841334 0.414322 0.0550453
10060 1 0.849514 0.434488 0.0611592
18300 1 0.0889812 0.446147 0.0606592
18299 3 0.0933895 0.446779 0.0533822
18298 1 0.100602 0.447666 0.0491345
12671 2 0.167541 0.439974 0.0325209
12672 1 0.17078 0.437843 0.0390594
7078 1 0.219429 0.467397 0.0595448
653 2 0.310266 0.453961 0.0490958
652 1 0.315805 0.450495 0.0543841
654 1 0.307865 0.461064 0.0448056
6818 2 0.33772 0.460651 0.0315542
6817 1 0.340529 0.468504 0.0346353
1761 1 0.38163 0.454481 0.0430461
1759 1 0.384685 0.461303 0.0567341
1760 3 0.380691 0.459492 0.049062
14324 2 0.364346 0.460601 0.0348607
14325 1 0.364364 0.467493 0.037048
2154 1 0.6773 0.46282 0.0379293
2153 3 0.670395 0.464545 0.0350211
1414 1 0.695826 0.458445 0.0591438
1416 1 0.705047 0.458971 0.0462336
1415 3 0.697219 0.460257 0.0514685
16156 1 0.767933 0.450477 0.0609057
16158 1 0.770682 0.455212 0.0462909
16157 3 0.770958 0.451653 0.0532484
11710 1 0.78865 0.438584 0.0374101
9543 1 0.805272 0.457082 0.0535853
9542 2 0.800389 0.450987 0.0494036
9541 1 0.793324 0.447214 0.0527386
5187 1 0.884037 0.439388 0.0542718
5186 3 0.884409 0.441468 0.0469885
5185 1 0.881827 0.440815 0.038853
11658 1 0.915594 0.438731 0.0569173
14998 1 0.977187 0.455715 0.0347094
14311 1 0.0967795 0.494413 0.0431787
14312 3 0.0954641 0.492652 0.0348763
8 3 0.193127 0.492112 0.0409703
9 1 0.187043 0.486954 0.0375618
7 1 0.200007 0.496425 0.0444402
7080 1 0.21485 0.470589 0.0487477
7079 2 0.221047 0.470528 0.0532457
9789 1 0.340824 0.471244 0.0357205
9787 1 0.345346 0.483637 0.0404232
9788 2 0.340783 0.478203 0.039286
4914 1 0.362829 0.481512 0.0452554
4913 2 0.362057 0.477497 0.0391479
4912 1 0.364376 0.470782 0.0380671
1574 2 0.474506 0.491353 0.0576328
1573 1 0.477323 0.484189 0.0583829
1575 1 0.477257 0.499675 0.0558932
13539 1 0.485581 0.485291 0.0342983
13537 1 0.495203 0.497639 0.0342089
13538 2 0.48893 0.492793 0.0349176
13714 1 0.886092 0.482208 0.0390656
13715 2 0.892056 0.475666 0.0401703
13716 1 0.898081 0.473194 0.0417734
5935 1 0.33165 0.018148 0.0922937
2936 2 0.366971 0.0294437 0.0882374
17490 1 0.523308 0.00423288 0.0762647
14491 1 0.578865 0.0145475 0.0871993
5850 1 0.82687 0.029667 0.0813064
13439 3 0.920627 0.028448 0.0634433
13440 1 0.923837 0.0217663 0.0670856
17634 1 0.114005 0.0398551 0.0670395
17633 3 0.119345 0.0401383 0.0724282
15779 3 0.135733 0.0501052 0.0696847
15778 1 0.129972 0.0461031 0.0718547
15780 1 0.134931 0.0567288 0.0666857
15720 1 0.134685 0.0592243 0.0657182
17632 1 0.127294 0.0441366 0.0720524
1558 1 0.24721 0.0539785 0.0904407
17997 1 0.260247 0.0603499 0.0757706
2937 1 0.372337 0.031725 0.0817521
3404 3 0.446438 0.032913 0.0634687
3405 1 0.445967 0.0326517 0.0719479
3403 1 0.453093 0.0353285 0.0649084
12921 1 0.633287 0.0620213 0.0903968
5933 3 0.69417 0.0525854 0.0650341
11706 1 0.701028 0.049594 0.0741597
5932 1 0.699048 0.0500835 0.071824
11705 3 0.706126 0.0503104 0.08017
11704 1 0.709067 0.0537916 0.0854607
5849 2 0.825693 0.0356848 0.0774201
5848 1 0.823795 0.0435049 0.0759201
13438 1 0.923897 0.0358167 0.0646428
5078 3 0.927506 0.0459361 0.0656926
5077 1 0.925116 0.0384861 0.0646669
5079 1 0.930924 0.0539489 0.0677888
17800 1 0.966761 0.0431093 0.0823801
17801 2 0.975105 0.0465088 0.0842579
17802 1 0.981061 0.0515205 0.0838308
15719 2 0.134067 0.0664396 0.0632365
4253 2 0.134378 0.0773735 0.0829485
4254 1 0.137323 0.082415 0.0762015
4252 1 0.130378 0.0721194 0.0883716
10149 1 0.17427 0.0793871 0.0824998
10148 3 0.180476 0.0851048 0.0839683
10147 1 0.181441 0.0872318 0.0914294
17996 3 0.254277 0.0643504 0.0793047
17995 1 0.250939 0.0708076 0.0815956
14078 3 0.34113 0.0902571 0.0900131
14077 1 0.347698 0.0928976 0.087612
16916 3 0.374708 0.0805827 0.0888404
16915 1 0.370839 0.0874705 0.0898081
13204 1 0.37692 0.0678988 0.0671872
13205 3 0.379801 0.0727079 0.0732319
13206 1 0.37739 0.0761259 0.0801528
16917 1 0.37642 0.0770236 0.0828657
21213 1 0.369152 0.0902608 0.0904451
17983 1 0.628463 0.0836697 0.0697948
20154 1 0.755395 0.0799079 0.0719968
20152 1 0.767975 0.0739486 0.0698736
20153 2 0.761642 0.0774214 0.0686819
5102 3 0.781746 0.0900812 0.0828469
5101 1 0.774673 0.0864423 0.0828875
5103 1 0.789321 0.0918632 0.0795662
10726 1 0.282014 0.124254 0.0887054
21211 1 0.357656 0.0976185 0.0880779
21212 2 0.364214 0.0959857 0.0930546
10728 1 0.2718 0.132906 0.0871635
10727 3 0.278751 0.130961 0.0915175
1472 3 0.365782 0.141729 0.0831025
1471 1 0.373275 0.143712 0.0788121
1473 1 0.365762 0.134781 0.0860658
14545 1 0.541055 0.150873 0.073471
14547 1 0.55366 0.145329 0.0739241
14546 3 0.54858 0.150537 0.0712214
14903 3 0.5755 0.149119 0.0703218
14902 1 0.576292 0.155379 0.0752749
12080 2 0.63536 0.139365 0.0908997
12079 1 0.630716 0.136385 0.0857624
12081 1 0.643239 0.138152 0.0884961
13935 1 0.87419 0.135885 0.0883116
2349 1 0.902457 0.135795 0.0756169
2347 1 0.896619 0.151116 0.0736542
2348 3 0.90012 0.14355 0.0733157
15362 2 0.0299608 0.170045 0.0854173
15363 1 0.0220855 0.171425 0.0881747
15361 1 0.0367117 0.173821 0.0828809
3193 1 0.312683 0.161478 0.0660803
12386 3 0.554731 0.170788 0.0780253
12387 1 0.559483 0.16529 0.0816435
12385 1 0.549605 0.176589 0.078139
8055 1 0.590683 0.169743 0.0728469
8054 3 0.58803 0.167525 0.0805148
8053 1 0.589887 0.167393 0.0894691
14756 2 0.643373 0.173974 0.0914637
14757 1 0.641104 0.180716 0.0896631
20130 1 0.669986 0.182221 0.0664083
20129 3 0.671586 0.177771 0.0720871
20128 1 0.678963 0.178217 0.0745327
17231 2 0.832931 0.162662 0.0729792
17230 1 0.838319 0.166383 0.0665103
17232 1 0.833904 0.161069 0.0814577
9366 1 0.896741 0.175076 0.0732166
9365 2 0.902716 0.180361 0.0749483
9364 1 0.910855 0.180329 0.0752803
14822 3 0.0188413 0.193932 0.0686725
14821 1 0.0236299 0.18961 0.073783
14823 1 0.0140407 0.198945 0.0635683
1842 1 0.077731 0.205101 0.0726082
1841 3 0.0753753 0.212431 0.0737999
6448 1 0.114936 0.218537 0.0798057
18996 1 0.785829 0.206175 0.0794481
18994 1 0.787848 0.199842 0.0923314
18995 3 0.787998 0.203738 0.0872288
10286 3 0.811941 0.209172 0.090109
10287 1 0.814889 0.215772 0.0858569
10285 1 0.806384 0.204132 0.0935531
13058 3 0.79864 0.211109 0.0702657
13057 1 0.790902 0.211067 0.0716227
20550 1 0.807303 0.215917 0.0689537
13059 1 0.805325 0.214663 0.0691062
6595 1 0.906222 0.208906 0.0892843
6596 2 0.912991 0.211114 0.0933186
11161 1 0.0222117 0.238768 0.0926906
11162 3 0.0247856 0.245575 0.0895071
18954 1 0.0419426 0.249868 0.0712613
18953 2 0.0444293 0.24267 0.070064
18952 1 0.0455989 0.235898 0.0740799
1840 1 0.0782879 0.219655 0.0737337
12060 1 0.065434 0.236169 0.0688345
6449 3 0.116819 0.226136 0.0818224
6450 1 0.122473 0.23233 0.0836418
1723 1 0.240193 0.246404 0.0704917
13352 2 0.224773 0.242989 0.0860931
13351 1 0.225006 0.245643 0.0936412
13353 1 0.225753 0.239406 0.0789324
1724 2 0.242633 0.242786 0.0628947
11023 1 0.727876 0.24088 0.0913985
20549 3 0.813612 0.221457 0.067481
20548 1 0.821903 0.223691 0.0682635
18096 1 0.824855 0.224472 0.0679875
18095 3 0.832188 0.22591 0.0672798
18094 1 0.833758 0.228187 0.0745361
9474 1 0.85252 0.219528 0.0741598
9472 1 0.851766 0.22657 0.0856729
9473 3 0.853998 0.226083 0.0774244
4265 2 0.987567 0.246785 0.0861057
4264 1 0.991162 0.242762 0.0808131
11163 1 0.0285571 0.25158 0.0931827
14150 3 0.0330734 0.263083 0.0733251
14149 1 0.0323435 0.255022 0.0743342
14151 1 0.0327742 0.268717 0.0690966
13902 1 0.042851 0.257414 0.0847681
13901 3 0.0487046 0.258982 0.090366
18964 1 0.0781938 0.273887 0.0803394
18965 3 0.0841272 0.270993 0.0838174
6562 1 0.0895203 0.266825 0.0921807
18966 1 0.0879906 0.267736 0.089781
13335 1 0.150922 0.27298 0.0717875
13333 1 0.164463 0.274244 0.0631477
13334 3 0.158206 0.272681 0.0680314
1248 1 0.333202 0.278516 0.0697137
1246 1 0.338104 0.264383 0.0702003
1247 2 0.334411 0.271046 0.0673327
15109 1 0.340587 0.277638 0.0894188
18702 1 0.457267 0.255667 0.0635751
18701 2 0.458861 0.254892 0.0711472
18700 1 0.460874 0.254345 0.0789428
6981 1 0.592286 0.269183 0.0782424
6979 1 0.595265 0.258498 0.068315
6980 2 0.592965 0.26757 0.0701374