ITEM: TIMESTEP
60000000
ITEM: NUMBER OF ENTRIES
6945
ITEM: BOX BOUNDS pp pp pp
0 50
0 50
0 50
ITEM: ENTRIES c_binfo[1] c_binfo[2] c_binfo[3] 
1 14703 17668 
2 17668 17669 
2 17669 17670 
2 14702 14703 
2 11590 11591 
2 10879 10880 
2 10880 10881 
1 10881 11590 
3 2906 2907 
2 12046 12047 
3 2905 2906 
3 5503 5504 
3 5504 5505 
2 6313 6314 
2 6314 6315 
1 6315 9925 
1 966 4047 
2 14701 14702 
3 4045 4046 
1 4045 14701 
3 9925 9926 
3 9926 9927 
3 4046 4047 
3 12317 12318 
2 2275 2276 
1 2275 11592 
2 2276 2277 
1 2277 15312 
3 15311 15312 
2 12278 12279 
1 12318 17829 
2 17828 17829 
2 17827 17828 
2 11591 11592 
1 6108 12277 
2 12277 12278 
2 6106 6107 
2 6107 6108 
3 12577 12578 
2 16348 16349 
2 16349 16350 
1 1773 16348 
2 10478 10479 
2 12047 12048 
3 20546 20547 
3 20545 20546 
1 12048 20545 
1 15513 20547 
2 1771 1772 
1 1771 5505 
2 1772 1773 
2 7727 7728 
2 7726 7727 
1 7726 18237 
2 16507 16508 
3 13378 13379 
3 13379 13380 
2 8332 8333 
1 8332 13380 
3 15923 15924 
3 18235 18236 
3 18236 18237 
1 9927 18235 
3 17348 17349 
3 12316 12317 
1 12316 17349 
3 17347 17348 
2 8333 8334 
1 8430 15183 
2 3056 3057 
1 3057 17347 
3 15310 15311 
1 4401 15310 
2 4400 4401 
1 12279 17809 
3 17810 17811 
3 17809 17810 
2 4399 4400 
1 3417 4399 
3 3416 3417 
3 8428 8429 
1 8428 17811 
3 10577 10578 
3 8429 8430 
3 9028 9029 
3 10576 10577 
3 9029 9030 
2 21407 21408 
1 16350 18265 
2 10477 10478 
3 1031 1032 
3 1030 1031 
1 1030 13272 
1 1032 10477 
2 18265 18266 
2 18266 18267 
2 21406 21407 
1 18267 21406 
2 15512 15513 
2 12437 12438 
2 15511 15512 
1 5655 7728 
1 4644 5836 
2 5836 5837 
1 5838 15511 
2 5837 5838 
1 19353 21507 
2 21506 21507 
2 5654 5655 
2 5653 5654 
2 11395 11396 
1 11395 15922 
3 15922 15923 
2 12436 12437 
1 11397 16674 
2 11396 11397 
2 16673 16674 
2 13555 13556 
2 3055 3056 
1 3055 7510 
2 19352 19353 
1 8334 19351 
2 19351 19352 
2 15182 15183 
2 15181 15182 
2 769 770 
1 769 15181 
2 770 771 
1 771 13555 
3 9061 9062 
3 9062 9063 
1 7833 9063 
1 900 7831 
3 3415 3416 
1 3415 14724 
2 7832 7833 
2 7831 7832 
2 14723 14724 
2 14722 14723 
1 14722 20082 
2 8035 8036 
1 8035 9028 
2 20081 20082 
1 7530 8037 
2 8036 8037 
2 9751 9752 
1 9751 20080 
2 20080 20081 
2 7529 7530 
3 9673 9674 
3 9674 9675 
2 20050 20051 
1 9675 20050 
3 17776 17777 
2 14588 14589 
2 20051 20052 
2 14587 14588 
1 14587 20052 
2 5746 5747 
2 5747 5748 
2 13270 13271 
1 13270 14673 
2 13271 13272 
2 1453 1454 
2 259 260 
1 259 1453 
2 14672 14673 
2 4642 4643 
1 261 4642 
2 260 261 
3 15769 15770 
3 15770 15771 
2 2878 2879 
1 2878 15771 
2 4643 4644 
2 8152 8153 
1 8152 21505 
2 2879 2880 
2 21505 21506 
2 235 236 
1 235 18486 
2 3263 3264 
1 3264 9243 
2 16672 16673 
2 8824 8825 
1 8824 16672 
2 18485 18486 
2 18484 18485 
1 8826 18484 
2 8825 8826 
2 7325 7326 
2 7324 7325 
1 7324 17946 
2 9242 9243 
3 17777 17778 
2 898 899 
1 898 3262 
2 3262 3263 
2 899 900 
1 1662 17778 
1 7326 9753 
2 9772 9773 
1 84 14589 
2 1661 1662 
1 243 3309 
2 9752 9753 
2 3308 3309 
2 3307 3308 
2 1660 1661 
1 1660 3307 
2 1820 1821 
1 5697 15891 
2 5695 5696 
2 1819 1820 
1 1819 5695 
2 5696 5697 
2 14671 14672 
1 14671 17629 
2 17629 17630 
2 17630 17631 
1 13758 17631 
2 11564 11565 
2 7294 7295 
1 7294 11565 
2 1454 1455 
1 237 7158 
2 7295 7296 
1 2880 7296 
2 236 237 
2 19019 19020 
2 17945 17946 
2 19018 19019 
1 19018 20866 
2 20866 20867 
2 20867 20868 
2 9241 9242 
1 9241 20868 
1 1281 16264 
2 16264 16265 
2 16265 16266 
2 1280 1281 
2 13541 13542 
1 9774 16266 
2 9773 9774 
2 242 243 
2 13540 13541 
2 13757 13758 
1 4803 13756 
2 13756 13757 
2 16726 16727 
1 16726 19020 
2 16727 16728 
2 1279 1280 
1 1279 10426 
2 19603 19604 
1 5811 15795 
2 15794 15795 
2 15793 15794 
3 17503 17504 
2 10343 10344 
2 10342 10343 
1 10342 18426 
1 15456 20670 
2 15454 15455 
2 15455 15456 
1 16242 16708 
2 16708 16709 
1 1215 19773 
2 13727 13728 
2 13726 13727 
2 16241 16242 
2 1214 1215 
3 8669 8670 
2 16240 16241 
3 8668 8669 
1 8668 16240 
2 1213 1214 
1 1213 6637 
3 6637 6638 
3 6638 6639 
3 18515 18516 
3 18514 18515 
1 12468 18514 
1 13728 16584 
1 10344 16582 
2 16582 16583 
2 16583 16584 
2 13940 13941 
2 10472 10473 
1 10473 13153 
2 20669 20670 
2 20668 20669 
2 10471 10472 
1 10471 20668 
2 12443 12444 
2 9496 9497 
3 14116 14117 
1 14116 14949 
3 14117 14118 
2 16201 16202 
2 16202 16203 
1 7203 16203 
1 2907 14118 
2 16709 16710 
2 19585 19586 
2 13165 13166 
1 13165 19585 
1 13167 16710 
2 13166 13167 
2 19250 19251 
2 19772 19773 
2 19771 19772 
1 19771 21382 
2 21382 21383 
1 9312 13726 
2 2516 2517 
2 9311 9312 
2 21383 21384 
2 9310 9311 
1 2517 9310 
1 9255 10305 
2 8566 8567 
1 8566 21384 
2 10304 10305 
2 9992 9993 
2 2515 2516 
1 2515 9496 
1 9993 18564 
2 2888 2889 
2 6085 6086 
1 6085 18516 
2 19249 19250 
1 6087 19249 
2 6086 6087 
2 21499 21500 
2 14218 14219 
1 14218 21499 
2 14219 14220 
1 4791 17436 
2 13154 13155 
2 13939 13940 
1 13939 17113 
2 17113 17114 
2 17435 17436 
2 17114 17115 
2 10303 10304 
1 10303 17115 
2 13019 13020 
2 13018 13019 
2 6382 6383 
1 6382 13018 
2 6383 6384 
2 13153 13154 
2 9991 9992 
1 9991 13155 
2 9292 9293 
2 12442 12443 
1 12442 17736 
3 17735 17736 
2 19586 19587 
3 17734 17735 
1 9294 17734 
2 9293 9294 
2 2933 2934 
2 2932 2933 
1 2932 19587 
1 2934 19671 
2 19670 19671 
1 8568 9324 
2 9323 9324 
2 9322 9323 
2 5338 5339 
1 5338 9322 
2 9497 9498 
2 14948 14949 
2 14947 14948 
2 2434 2435 
1 2434 14947 
2 2435 2436 
1 2436 12993 
2 5498 5499 
2 11309 11310 
2 18721 18722 
2 18722 18723 
2 15058 15059 
1 15058 18721 
2 15059 15060 
2 15685 15686 
1 17208 19251 
2 7202 7203 
1 7968 15685 
2 17207 17208 
2 7201 7202 
1 7201 7966 
2 7966 7967 
2 7967 7968 
2 9803 9804 
2 17206 17207 
2 3904 3905 
1 3904 17206 
2 3905 3906 
2 8567 8568 
1 3906 21033 
2 9254 9255 
2 4336 4337 
1 4336 12582 
2 9253 9254 
2 4337 4338 
1 4338 9253 
2 9455 9456 
2 3916 3917 
1 3916 7036 
2 5497 5498 
1 5497 16509 
2 2887 2888 
1 2887 4866 
2 4864 4865 
1 4864 11310 
2 4865 4866 
2 2314 2315 
1 2314 3918 
2 3917 3918 
2 16508 16509 
2 21500 21501 
1 9804 20506 
2 20506 20507 
1 20508 21501 
2 20507 20508 
1 15615 15813 
1 4197 19929 
2 15812 15813 
2 4196 4197 
2 19928 19929 
2 17434 17435 
2 3346 3347 
1 3346 17434 
2 5851 5852 
1 5851 13020 
1 3348 9456 
1 5853 19110 
2 3347 3348 
2 5852 5853 
2 4018 4019 
1 4018 19962 
2 4019 4020 
2 2566 2567 
1 2566 4404 
2 1342 1343 
1 1342 9292 
2 5627 5628 
1 1344 5628 
2 5626 5627 
2 1343 1344 
1 1776 12712 
2 12712 12713 
2 5261 5262 
2 12713 12714 
2 2929 2930 
1 2929 5262 
2 2930 2931 
3 7903 7904 
1 7903 18723 
2 12991 12992 
1 12991 19918 
3 7904 7905 
1 7905 20056 
2 20056 20057 
2 20057 20058 
2 19918 19919 
2 19919 19920 
2 4534 4535 
1 4534 19920 
1 15687 19464 
2 19463 19464 
2 19462 19463 
1 19462 19524 
2 1774 1775 
1 1774 19669 
2 19669 19670 
2 4535 4536 
2 19523 19524 
2 5339 5340 
2 1775 1776 
2 5260 5261 
1 5260 5340 
1 16713 21031 
2 16712 16713 
2 16711 16712 
2 5818 5819 
1 5818 16711 
2 21031 21032 
2 21032 21033 
2 12580 12581 
1 12580 15501 
2 12992 12993 
1 5499 6228 
2 6227 6228 
2 6226 6227 
2 2833 2834 
1 2833 6226 
2 2834 2835 
2 15782 15783 
2 412 413 
1 412 21408 
1 2835 17338 
2 15686 15687 
2 9802 9803 
1 9802 20076 
2 11308 11309 
1 11308 21153 
2 15260 15261 
2 21152 21153 
2 20075 20076 
2 21151 21152 
1 12030 21151 
2 12029 12030 
2 13262 13263 
2 12028 12029 
2 9454 9455 
1 9138 9454 
2 12581 12582 
2 20074 20075 
1 3108 20074 
2 4852 4853 
1 4407 4852 
2 3107 3108 
2 9137 9138 
2 9136 9137 
2 4405 4406 
1 4405 9136 
2 4406 4407 
2 14273 14274 
2 3106 3107 
1 3106 12853 
1 270 5653 
2 2315 2316 
2 15259 15260 
1 15259 19786 
2 268 269 
1 268 15783 
2 19786 19787 
1 2316 19788 
2 19787 19788 
2 10828 10829 
2 10564 10565 
1 10564 10828 
2 269 270 
2 10829 10830 
2 15614 15615 
2 13261 13262 
2 4618 4619 
1 4618 13261 
2 15613 15614 
2 4619 4620 
1 4620 15613 
1 8436 15489 
2 17224 17225 
1 17224 19212 
2 19211 19212 
2 8435 8436 
2 8434 8435 
2 10894 10895 
1 10894 11467 
2 19961 19962 
2 4195 4196 
1 15 14274 
2 13 14 
1 13 4195 
2 19960 19961 
2 16679 16680 
2 14 15 
2 11468 11469 
2 16678 16679 
1 16678 19960 
2 11467 11468 
1 8718 16680 
2 4144 4145 
1 4144 9984 
2 1381 1382 
1 1381 18552 
2 18551 18552 
2 20135 20136 
1 480 5626 
1 20136 20569 
2 479 480 
2 478 479 
1 478 9982 
2 9982 9983 
2 9983 9984 
2 20098 20099 
2 14245 14246 
1 14245 20098 
2 20099 20100 
2 11576 11577 
2 18550 18551 
2 7921 7922 
1 7921 14238 
1 1317 18550 
2 1315 1316 
1 1315 12714 
2 1316 1317 
2 11575 11576 
1 11575 20826 
2 20825 20826 
2 7922 7923 
2 883 884 
1 883 2931 
2 20134 20135 
2 523 524 
1 523 20134 
1 525 20058 
2 524 525 
2 19493 19494 
2 19492 19493 
2 3448 3449 
1 3448 19492 
2 3628 3629 
1 3628 17340 
2 17339 17340 
2 3629 3630 
1 4536 14247 
1 3630 7611 
2 14246 14247 
2 5578 5579 
1 5578 20650 
2 20650 20651 
2 20651 20652 
2 5579 5580 
2 1240 1241 
1 1240 20652 
2 7610 7611 
2 4853 4854 
2 14237 14238 
2 20824 20825 
1 5820 20824 
2 19522 19523 
2 14236 14237 
1 14236 19522 
2 5819 5820 
2 8041 8042 
1 8041 12855 
2 8042 8043 
1 8043 15165 
2 12854 12855 
2 17338 17339 
1 414 19494 
2 7102 7103 
2 413 414 
2 15781 15782 
1 15781 20562 
2 20561 20562 
2 9467 9468 
2 20560 20561 
1 9468 20560 
1 1455 7102 
2 18590 18591 
1 5580 12028 
1 6078 13263 
2 11485 11486 
1 11485 15261 
2 11486 11487 
2 18680 18681 
1 11487 18681 
2 6077 6078 
2 9812 9813 
2 14272 14273 
2 6076 6077 
1 6076 18904 
2 18904 18905 
2 12853 12854 
2 3232 3233 
1 3232 21130 
2 21130 21131 
2 5752 5753 
1 5752 14272 
2 18905 18906 
2 21131 21132 
2 5753 5754 
1 5754 21132 
2 7094 7095 
2 6355 6356 
1 6355 9813 
2 13652 13653 
2 18589 18590 
2 10565 10566 
2 13651 13652 
1 13651 18589 
2 6356 6357 
1 6357 10566 
2 21266 21267 
2 21265 21266 
1 20985 21267 
1 8154 13653 
2 8153 8154 
2 16810 16811 
2 4714 4715 
1 4714 15429 
2 15488 15489 
2 4715 4716 
1 4716 15487 
2 15487 15488 
2 18719 18720 
2 16811 16812 
2 17225 17226 
2 13114 13115 
1 13114 16810 
2 640 641 
1 640 11469 
2 7093 7094 
2 4516 4517 
1 4516 7093 
2 4517 4518 
2 21370 21371 
1 4518 17226 
1 642 21370 
2 641 642 
1 1323 2238 
2 1322 1323 
2 1321 1322 
1 1321 7123 
2 21371 21372 
2 2237 2238 
1 9345 11356 
3 11356 11357 
2 9344 9345 
2 4145 4146 
1 4146 14889 
2 5638 5639 
1 5638 21361 
2 14888 14889 
2 14887 14888 
1 10131 14887 
2 9343 9344 
1 1383 9343 
2 1382 1383 
2 19442 19443 
2 19441 19442 
2 16946 16947 
2 16945 16946 
2 2198 2199 
2 20569 20570 
2 6275 6276 
2 20570 20571 
1 18435 20100 
2 8413 8414 
1 8413 20571 
2 8414 8415 
2 18434 18435 
2 18433 18434 
1 5640 18433 
2 10966 10967 
1 8415 15343 
2 2599 2600 
1 2599 10966 
2 5639 5640 
2 15343 15344 
2 10967 10968 
1 7923 15870 
2 15868 15869 
1 15868 19443 
2 15869 15870 
2 17029 17030 
1 4851 17029 
2 16849 16850 
1 16849 17898 
2 17030 17031 
2 16850 16851 
1 10233 11577 
2 3449 3450 
2 2197 2198 
2 6274 6275 
1 6274 18537 
2 18536 18537 
2 18535 18536 
1 3450 18535 
2 18779 18780 
1 13332 18780 
2 11011 11012 
1 11011 16081 
2 16081 16082 
2 16082 16083 
2 2600 2601 
2 7609 7610 
1 2601 7609 
2 1222 1223 
1 1222 12861 
2 1223 1224 
2 12860 12861 
1 16083 17022 
2 11012 11013 
2 1241 1242 
1 1242 16851 
2 15163 15164 
1 15163 17031 
2 15164 15165 
1 639 13275 
2 638 639 
2 13274 13275 
2 637 638 
1 637 10720 
1 3234 21070 
2 3233 3234 
2 6647 6648 
2 9466 9467 
1 9466 11013 
2 18778 18779 
1 7104 18778 
2 9244 9245 
1 9244 18591 
2 20677 20678 
2 9245 9246 
1 9246 20677 
2 7103 7104 
2 20678 20679 
2 6646 6647 
1 6646 21313 
1 6648 11563 
2 11563 11564 
2 15428 15429 
2 12859 12860 
1 12859 18679 
2 18679 18680 
2 15427 15428 
1 15427 17620 
2 9811 9812 
1 3168 9811 
2 3167 3168 
2 17620 17621 
2 3166 3167 
1 3166 11844 
2 17621 17622 
2 11843 11844 
2 13273 13274 
1 13273 18906 
1 7095 19591 
1 13389 17622 
2 16208 16209 
2 16207 16208 
1 16207 19593 
2 19591 19592 
2 19592 19593 
2 18361 18362 
2 13388 13389 
2 16978 16979 
1 16978 18361 
2 7157 7158 
2 1738 1739 
1 1738 7156 
2 1739 1740 
2 7156 7157 
2 20984 20985 
2 20983 20984 
2 20617 20618 
1 20617 20983 
1 54 5478 
1 1740 5620 
2 5620 5621 
2 5477 5478 
2 14171 14172 
2 20618 20619 
1 15762 16999 
2 15761 15762 
2 15760 15761 
1 10389 18720 
2 10387 10388 
1 10387 15760 
2 10388 10389 
2 14170 14171 
2 16489 16490 
2 1750 1751 
1 1750 16489 
1 10137 14170 
2 16999 17000 
2 229 230 
1 229 20619 
2 16490 16491 
2 13321 13322 
1 13321 16812 
2 16979 16980 
2 7124 7125 
1 13323 16980 
2 7123 7124 
2 13322 13323 
2 9269 9270 
2 9268 9269 
1 9268 10948 
2 10948 10949 
3 12332 12333 
3 12331 12332 
1 12331 19455 
3 11357 11358 
3 5677 5678 
1 5677 10129 
3 5678 5679 
3 19453 19454 
3 19454 19455 
1 11358 19453 
3 2953 2954 
1 2953 11244 
2 10129 10130 
2 21361 21362 
3 14639 14640 
2 21362 21363 
1 14640 15345 
3 14638 14639 
2 10130 10131 
1 636 19441 
3 11242 11243 
1 15192 21363 
2 15191 15192 
2 635 636 
2 634 635 
1 634 11242 
3 11243 11244 
2 18659 18660 
2 1024 1025 
1 1024 2199 
3 391 392 
1 391 1026 
2 1025 1026 
3 392 393 
1 6276 9400 
2 9400 9401 
2 9401 9402 
2 15344 15345 
2 745 746 
1 745 10968 
2 746 747 
1 747 16270 
2 16270 16271 
2 1513 1514 
1 1513 18130 
2 18326 18327 
2 17897 17898 
2 17896 17897 
1 1650 17896 
2 1649 1650 
2 1648 1649 
1 1648 18658 
2 18658 18659 
2 5993 5994 
2 16271 16272 
2 4294 4295 
1 4294 4801 
2 4801 4802 
1 4296 10560 
2 4201 4202 
2 13331 13332 
2 13330 13331 
1 4203 13330 
2 4202 4203 
2 1624 1625 
1 1624 4201 
2 4802 4803 
2 1625 1626 
2 8800 8801 
1 8800 12351 
2 4295 4296 
1 1224 21379 
2 1514 1515 
2 17021 17022 
2 17020 17021 
1 1515 17020 
2 11606 11607 
2 11605 11606 
2 7825 7826 
1 7825 19291 
2 19291 19292 
2 19292 19293 
2 7826 7827 
2 21379 21380 
2 10720 10721 
2 21380 21381 
2 10721 10722 
1 5994 21381 
1 10722 18327 
1 5430 17364 
2 17363 17364 
2 5429 5430 
2 17362 17363 
2 12349 12350 
1 12349 21315 
2 12350 12351 
2 21314 21315 
2 21313 21314 
1 5622 11881 
2 11881 11882 
2 11882 11883 
1 11883 17431 
2 17431 17432 
2 19604 19605 
1 5727 11605 
2 5725 5726 
1 5725 20679 
2 17432 17433 
2 5726 5727 
1 7827 11842 
2 11842 11843 
1 231 12885 
2 12884 12885 
2 17000 17001 
2 12883 12884 
1 6585 12883 
2 230 231 
2 17074 17075 
1 17001 20563 
2 20563 20564 
2 5428 5429 
1 5428 13387 
2 13387 13388 
2 11978 11979 
2 20564 20565 
2 18362 18363 
2 11977 11978 
1 11977 18363 
1 14355 20565 
1 11979 17074 
2 14354 14355 
2 13799 13800 
2 7400 7401 
2 5621 5622 
1 7401 9055 
2 53 54 
2 52 53 
1 52 9367 
2 9055 9056 
2 9367 9368 
2 9368 9369 
2 7399 7400 
1 7399 16728 
2 1751 1752 
2 13508 13509 
2 4987 4988 
1 4987 9369 
2 12545 12546 
2 4988 4989 
1 1812 18421 
2 18422 18423 
1 1752 18423 
2 18421 18422 
2 1811 1812 
2 19214 19215 
2 10949 10950 
1 10950 18399 
2 19213 19214 
2 2735 2736 
2 70 71 
1 70 19213 
2 71 72 
1 2736 16701 
2 10136 10137 
2 10135 10136 
1 72 10135 
3 12358 12359 
1 1983 21333 
3 2954 2955 
1 2955 12358 
3 14561 14562 
1 3759 14638 
2 3098 3099 
2 3097 3098 
1 3097 3757 
2 3757 3758 
2 3758 3759 
3 12656 12657 
3 21332 21333 
3 14560 14561 
1 14560 14692 
3 14692 14693 
3 21331 21332 
2 19010 19011 
1 19011 21331 
3 14693 14694 
2 15190 15191 
1 14694 15190 
2 10319 10320 
1 10320 12657 
1 18660 19009 
2 19009 19010 
3 203 204 
3 202 203 
1 202 16750 
2 16750 16751 
2 16751 16752 
2 10558 10559 
1 10558 16752 
2 18130 18131 
1 8742 19309 
1 6474 12430 
3 12431 12432 
3 12430 12431 
2 18131 18132 
2 8740 8741 
1 8740 18132 
2 8741 8742 
1 1626 12432 
2 16100 16101 
2 5992 5993 
1 5992 12822 
3 19309 19310 
2 10318 10319 
1 10318 16272 
3 12821 12822 
3 12820 12821 
3 1816 1817 
1 1816 16101 
3 3379 3380 
1 3379 9058 
3 3380 3381 
3 9058 9059 
2 10559 10560 
1 3381 8802 
2 8801 8802 
2 9848 9849 
1 3171 11607 
2 10529 10530 
2 3170 3171 
2 10528 10529 
2 3169 3170 
1 3169 10528 
2 16687 16688 
1 16687 17545 
2 17545 17546 
2 12215 12216 
2 16688 16689 
2 16099 16100 
1 16563 19293 
2 9898 9899 
1 9898 16099 
2 2900 2901 
1 9900 17362 
2 9899 9900 
2 2899 2900 
1 2899 16561 
1 12216 12367 
2 16561 16562 
2 16562 16563 
2 12368 12369 
2 12367 12368 
2 7565 7566 
2 17980 17981 
1 7566 17980 
2 17981 17982 
2 9640 9641 
2 16273 16274 
1 16273 17433 
2 9641 9642 
1 9849 16275 
2 17546 17547 
2 16274 16275 
1 9642 18165 
2 6583 6584 
1 6583 17547 
2 6584 6585 
2 18164 18165 
2 17530 17531 
1 17530 21100 
2 21100 21101 
1 5529 21213 
2 3521 3522 
2 21101 21102 
1 19215 21211 
2 21211 21212 
2 3520 3521 
1 3520 21102 
1 12369 14353 
2 14353 14354 
2 21212 21213 
2 5528 5529 
1 9057 17982 
2 13798 13799 
2 9056 9057 
2 9098 9099 
1 9099 13798 
2 9097 9098 
2 1810 1811 
1 1810 3522 
2 2761 2762 
1 2761 8178 
2 7819 7820 
1 7819 9097 
2 12568 12569 
2 4909 4910 
1 4909 12568 
2 4910 4911 
2 18163 18164 
1 13509 19789 
1 4989 18163 
2 19790 19791 
2 19789 19790 
1 4911 19791 
2 7820 7821 
1 87 21166 
2 2341 2342 
1 2341 12546 
2 4235 4236 
2 2342 2343 
2 6974 6975 
2 21166 21167 
1 870 6975 
2 4234 4235 
1 4234 15949 
1 2343 4236 
2 2734 2735 
1 2734 12919 
2 15949 15950 
3 11894 11895 
2 7654 7655 
2 7655 7656 
3 14047 14048 
3 14048 14049 
2 9913 9914 
1 9913 14049 
2 9914 9915 
2 9839 9840 
2 9838 9839 
1 9840 11892 
2 16576 16577 
2 17917 17918 
1 9915 17917 
2 17918 17919 
3 16291 16292 
1 16291 17919 
3 16292 16293 
2 20116 20117 
2 13930 13931 
1 13930 20116 
2 4159 4160 
1 4159 18990 
2 4160 4161 
2 18989 18990 
1 6195 9838 
2 20117 20118 
2 2284 2285 
1 2284 7851 
2 6193 6194 
1 6193 20118 
2 6194 6195 
2 7850 7851 
2 18730 18731 
2 18731 18732 
2 2285 2286 
2 1504 1505 
1 1504 18730 
2 6773 6774 
2 6655 6656 
1 6655 13144 
1 6774 20335 
2 20335 20336 
2 20336 20337 
1 4161 20337 
2 6656 6657 
2 2428 2429 
1 2428 19113 
2 18320 18321 
1 12663 15471 
3 15470 15471 
2 12662 12663 
2 12661 12662 
1 381 15232 
2 15232 15233 
2 15233 15234 
2 2770 2771 
1 2770 4198 
1 9498 15234 
2 434 435 
2 10441 10442 
2 10442 10443 
2 16828 16829 
2 13931 13932 
2 4198 4199 
2 4199 4200 
1 4200 18562 
2 18562 18563 
2 7414 7415 
1 7414 11865 
2 18563 18564 
2 11864 11865 
2 19108 19109 
2 19109 19110 
2 8938 8939 
1 8938 10441 
1 8940 13932 
2 8939 8940 
2 18988 18989 
2 433 434 
1 433 18988 
1 11946 16251 
2 11945 11946 
2 3259 3260 
1 3259 15360 
2 3260 3261 
1 3261 16830 
2 16829 16830 
2 7849 7850 
1 4704 7849 
2 11863 11864 
2 985 986 
1 985 4402 
2 4402 4403 
2 4702 4703 
1 4702 11863 
2 4703 4704 
2 5834 5835 
1 5835 21535 
2 4403 4404 
2 21535 21536 
1 6657 15358 
2 11944 11945 
1 11944 12228 
2 12226 12227 
1 12226 18732 
2 12227 12228 
2 4469 4470 
1 4470 9540 
2 15358 15359 
2 15359 15360 
2 9539 9540 
2 4468 4469 
1 4468 20262 
1 18279 20496 
3 18217 18218 
1 10371 18217 
2 10370 10371 
2 10369 10370 
2 7642 7643 
1 7642 10369 
2 19112 19113 
2 19111 19112 
3 18218 18219 
2 7643 7644 
2 4673 4674 
2 14281 14282 
2 14282 14283 
2 4672 4673 
1 4672 14283 
2 1915 1916 
1 1915 4674 
1 7569 16695 
2 379 380 
1 379 14281 
2 2771 2772 
2 15499 15500 
1 15499 19369 
2 380 381 
2 19370 19371 
2 19369 19370 
2 19468 19469 
2 7567 7568 
1 7567 19468 
2 19469 19470 
1 2772 19470 
2 7568 7569 
2 15500 15501 
1 10443 15402 
2 15401 15402 
2 15400 15401 
1 12414 16420 
2 16420 16421 
2 12922 12923 
2 16421 16422 
2 1813 1814 
1 1813 12922 
2 12923 12924 
2 7415 7416 
1 1128 14491 
2 14491 14492 
2 14492 14493 
1 14493 15708 
2 17858 17859 
2 15707 15708 
2 8716 8717 
1 8716 16602 
2 8717 8718 
2 15706 15707 
1 15706 19108 
1 1815 7416 
2 16250 16251 
3 12413 12414 
2 1814 1815 
3 12412 12413 
1 12412 16249 
2 16249 16250 
2 17893 17894 
1 17893 18103 
3 18103 18104 
2 17894 17895 
1 9870 18060 
2 9868 9869 
2 9869 9870 
1 2376 11718 
2 986 987 
2 17857 17858 
2 15370 15371 
1 15370 17857 
1 6321 7261 
1 987 15372 
2 15371 15372 
2 6320 6321 
2 6319 6320 
1 6319 12909 
2 8179 8180 
1 8179 20412 
2 7261 7262 
2 20411 20412 
3 18104 18105 
2 21536 21537 
1 18105 21537 
1 6618 8316 
2 6617 6618 
2 6616 6617 
1 6616 16944 
2 9538 9539 
2 8315 8316 
2 400 401 
1 400 9555 
2 11717 11718 
3 9553 9554 
1 9553 11716 
3 9554 9555 
2 11716 11717 
1 12060 21178 
2 21178 21179 
3 18278 18279 
3 17584 17585 
3 18277 18278 
1 17586 18277 
3 17585 17586 
3 8725 8726 
2 5491 5492 
1 5491 19362 
2 19648 19649 
2 1916 1917 
2 19649 19650 
1 16164 19648 
2 16163 16164 
2 1336 1337 
1 1336 1917 
2 1337 1338 
1 1338 19360 
2 19360 19361 
2 5167 5168 
1 5167 13297 
2 5168 5169 
2 19361 19362 
1 885 19650 
2 19316 19317 
2 1678 1679 
1 1678 19315 
2 19315 19316 
2 1679 1680 
1 1680 12649 
2 12649 12650 
2 884 885 
2 16694 16695 
2 16693 16694 
2 13297 13298 
1 13299 16693 
2 13298 13299 
1 603 15120 
2 15119 15120 
2 9043 9044 
1 9043 10048 
1 4854 19128 
2 1127 1128 
1 19317 19371 
2 5707 5708 
1 5707 19126 
2 1126 1127 
1 1126 3514 
2 3514 3515 
2 3515 3516 
1 3516 9045 
2 7933 7934 
1 7933 15112 
2 19126 19127 
2 5708 5709 
2 19127 19128 
2 9044 9045 
2 1888 1889 
1 1888 12924 
2 15118 15119 
1 1890 15118 
2 1889 1890 
1 2007 9216 
2 10808 10809 
2 10807 10808 
1 10807 19795 
2 20942 20943 
1 4884 16422 
2 4883 4884 
2 4882 4883 
2 7513 7514 
1 7513 10809 
2 20941 20942 
2 18017 18018 
2 18016 18017 
2 15112 15113 
1 7551 21372 
2 3157 3158 
1 3157 17859 
2 15113 15114 
1 15114 16600 
2 16601 16602 
2 16600 16601 
2 9229 9230 
1 9229 17097 
2 9230 9231 
2 3158 3159 
1 17895 19797 
2 19795 19796 
2 2005 2006 
1 2005 3159 
2 2006 2007 
2 19796 19797 
2 2549 2550 
1 2550 16656 
2 16655 16656 
2 2548 2549 
1 2548 2611 
2 18059 18060 
2 18058 18059 
2 871 872 
1 871 16942 
2 872 873 
1 873 4354 
2 4354 4355 
2 4355 4356 
2 16942 16943 
2 2375 2376 
2 12389 12390 
2 9544 9545 
2 2374 2375 
1 2374 9546 
2 9545 9546 
2 15719 15720 
2 15718 15719 
2 12908 12909 
1 9231 12907 
2 12907 12908 
2 20767 20768 
1 12396 20767 
2 20768 20769 
2 12395 12396 
2 20410 20411 
2 3764 3765 
2 7297 7298 
1 7297 8232 
1 2613 20410 
2 2611 2612 
2 8231 8232 
2 2612 2613 
2 887 888 
1 888 3763 
2 3763 3764 
2 886 887 
1 886 2926 
2 2926 2927 
2 8230 8231 
1 8230 10924 
2 16943 16944 
2 12388 12389 
2 9691 9692 
1 9691 12388 
2 9692 9693 
2 21179 21180 
1 9693 21180 
1 3729 6909 
2 2927 2928 
2 6908 6909 
2 6907 6908 
1 6907 20608 
3 8228 8229 
2 21250 21251 
1 8229 21250 
2 21251 21252 
3 8227 8228 
2 5492 5493 
2 325 326 
3 10091 10092 
3 10090 10091 
1 10090 18507 
3 18506 18507 
3 18505 18506 
2 10231 10232 
2 16162 16163 
1 16162 21252 
2 6475 6476 
1 6475 12651 
2 6476 6477 
1 327 6477 
2 455 456 
1 456 9711 
2 454 455 
1 454 10231 
2 12650 12651 
3 9710 9711 
2 326 327 
1 5169 13014 
2 13013 13014 
2 13012 13013 
2 17035 17036 
3 10871 10872 
3 10870 10871 
1 10870 18849 
1 10092 10872 
2 18848 18849 
2 10232 10233 
2 4850 4851 
2 20423 20424 
2 20422 20423 
1 20422 20605 
2 20606 20607 
2 20605 20606 
1 5709 20424 
2 4849 4850 
1 4849 21280 
2 602 603 
1 6855 17035 
2 10049 10050 
2 6853 6854 
1 6853 10050 
2 6854 6855 
2 10145 10146 
2 601 602 
1 601 18847 
1 10146 10792 
2 10792 10793 
2 10048 10049 
2 10144 10145 
1 10144 14383 
2 5135 5136 
2 18847 18848 
2 281 282 
2 7934 7935 
2 21071 21072 
1 1374 21072 
2 28 29 
1 28 7935 
2 29 30 
1 30 5134 
2 1373 1374 
2 20783 20784 
2 21070 21071 
2 5134 5135 
2 9215 9216 
2 14383 14384 
2 9214 9215 
1 9214 14385 
2 14384 14385 
2 3458 3459 
1 3459 15393 
2 3457 3458 
2 2845 2846 
1 2845 3457 
2 14120 14121 
2 7514 7515 
2 14119 14120 
1 9996 14119 
2 280 281 
1 280 7515 
2 9995 9996 
2 9994 9995 
1 5940 9994 
1 615 9490 
2 5939 5940 
2 7550 7551 
2 17096 17097 
1 4248 20784 
2 7549 7550 
2 4247 4248 
2 4246 4247 
1 4246 7549 
2 10709 10710 
2 8269 8270 
1 8269 19236 
2 10708 10709 
2 19235 19236 
1 8337 10710 
2 17095 17096 
1 2847 17095 
2 16654 16655 
1 14121 16654 
2 2846 2847 
2 272 273 
2 271 272 
1 271 4551 
2 4550 4551 
1 273 10926 
1 726 12390 
2 9490 9491 
2 9491 9492 
2 223 224 
1 223 9492 
2 224 225 
1 225 2928 
2 4568 4569 
2 725 726 
2 865 866 
1 865 4569 
2 724 725 
2 11777 11778 
1 3795 11778 
1 7125 19234 
1 4893 10708 
2 4892 4893 
2 4891 4892 
1 4891 20769 
2 13406 13407 
2 8389 8390 
1 8389 13407 
2 16565 16566 
2 13405 13406 
2 19234 19235 
2 10924 10925 
2 10925 10926 
1 8586 16566 
2 8585 8586 
1 5118 5571 
2 5117 5118 
2 5570 5571 
2 5116 5117 
2 2452 2453 
1 2452 5116 
2 4567 4568 
1 4567 7945 
2 7945 7946 
2 7946 7947 
2 12902 12903 
2 12901 12902 
1 7947 12901 
2 2453 2454 
1 189 2382 
2 13352 13353 
2 11776 11777 
1 11776 20610 
2 20609 20610 
2 20608 20609 
2 9040 9041 
1 5817 9040 
2 5816 5817 
2 188 189 
2 187 188 
1 187 6750 
2 9041 9042 
2 5815 5816 
1 5815 10449 
3 4042 4043 
1 4042 4885 
3 4043 4044 
3 4885 4886 
3 4886 4887 
1 717 4887 
3 716 717 
3 715 716 
1 715 9709 
3 9709 9710 
3 17395 17396 
1 16230 17395 
2 16229 16230 
2 19850 19851 
2 19849 19850 
1 19849 21282 
2 1924 1925 
1 1924 19620 
1 19851 20686 
3 20686 20687 
2 19619 19620 
2 19618 19619 
2 1925 1926 
3 20687 20688 
2 17036 17037 
2 15295 15296 
1 15295 17037 
2 15296 15297 
1 6189 10837 
3 10837 10838 
3 6188 6189 
3 10838 10839 
3 6187 6188 
1 6187 17397 
3 445 446 
1 445 18390 
3 17396 17397 
2 21281 21282 
1 1926 20607 
2 19148 19149 
2 11924 11925 
2 11923 11924 
1 11923 20392 
2 20392 20393 
2 20393 20394 
2 1372 1373 
1 1372 11925 
2 19147 19148 
2 18325 18326 
1 18325 19149 
2 21280 21281 
3 5761 5762 
1 5761 9633 
1 5136 13852 
2 10793 10794 
2 13852 13853 
3 5762 5763 
2 13853 13854 
1 5763 13854 
2 8360 8361 
1 10794 10839 
2 5938 5939 
3 4633 4634 
1 4633 5938 
3 4634 4635 
1 447 4635 
3 446 447 
2 12683 12684 
2 20782 20783 
1 12684 16209 
2 14452 14453 
1 14452 20782 
2 12682 12683 
2 1103 1104 
2 1102 1103 
1 1102 12682 
2 14453 14454 
1 1104 13309 
2 9527 9528 
1 9528 20146 
2 13309 13310 
2 5200 5201 
1 5200 14454 
2 5201 5202 
1 5202 16308 
2 8359 8360 
1 8359 15391 
2 15391 15392 
2 15392 15393 
2 21050 21051 
2 15649 15650 
1 15649 21051 
2 21049 21050 
3 17446 17447 
1 17446 21049 
2 614 615 
2 1300 1301 
1 1300 19101 
2 1301 1302 
1 1302 19896 
2 613 614 
2 1247 1248 
2 11060 11061 
2 17075 17076 
2 1966 1967 
1 1966 18397 
2 18397 18398 
2 8270 8271 
2 20146 20147 
2 20147 20148 
1 8271 20148 
2 1967 1968 
1 5778 11667 
2 15650 15651 
2 8336 8337 
2 8335 8336 
1 8335 15651 
2 254 255 
2 11666 11667 
1 255 262 
2 262 263 
2 11665 11666 
1 11665 13203 
2 4549 4550 
1 4549 19099 
2 263 264 
1 2454 16779 
2 19100 19101 
2 253 254 
1 253 1347 
2 19099 19100 
2 17659 17660 
2 16778 16779 
2 16777 16778 
1 16777 17659 
2 17660 17661 
2 19025 19026 
2 866 867 
2 3794 3795 
2 1246 1247 
1 867 1246 
1 7101 15643 
2 15643 15644 
2 15644 15645 
2 7100 7101 
1 5874 9349 
2 3793 3794 
2 11059 11060 
1 11059 15645 
3 15076 15077 
2 10447 10448 
1 10447 15078 
2 9349 9350 
3 15077 15078 
2 9350 9351 
2 18398 18399 
2 11146 11147 
2 8390 8391 
2 5777 5778 
2 5776 5777 
1 5776 8391 
1 14058 21261 
2 21260 21261 
2 14057 14058 
1 5766 16591 
2 8584 8585 
1 264 8584 
2 5765 5766 
2 11147 11148 
1 11148 12163 
2 12163 12164 
2 5764 5765 
1 5764 10153 
2 12164 12165 
1 11145 12165 
2 10153 10154 
2 7099 7100 
1 7099 11709 
2 13351 13352 
2 10154 10155 
2 11707 11708 
1 11707 13351 
1 10155 19024 
2 19024 19025 
2 11708 11709 
2 2668 2669 
1 2668 14331 
2 2669 2670 
2 5191 5192 
3 1777 1778 
2 5872 5873 
1 5872 6748 
2 6748 6749 
2 5873 5874 
2 6749 6750 
3 1778 1779 
1 1779 5191 
2 10448 10449 
3 6040 6041 
1 6040 6844 
3 6845 6846 
3 6844 6845 
1 6846 12360 
3 6041 6042 
3 20978 20979 
3 6721 6722 
1 6721 20979 
3 20977 20978 
3 6722 6723 
1 20688 20977 
3 12359 12360 
2 16228 16229 
3 15110 15111 
3 15109 15110 
1 4317 8368 
3 8368 8369 
3 4315 4316 
3 4316 4317 
3 9632 9633 
3 9631 9632 
2 18388 18389 
2 18389 18390 
1 2424 17695 
2 17696 17697 
2 17695 17696 
1 13311 17697 
3 12469 12470 
1 12469 18304 
1 8370 20394 
3 2423 2424 
3 8369 8370 
2 16307 16308 
2 16306 16307 
1 16306 18306 
3 18305 18306 
3 18304 18305 
3 18230 18231 
3 18229 18230 
1 13599 18229 
3 13598 13599 
2 15859 15860 
3 10039 10040 
1 10039 15859 
2 15860 15861 
2 13310 13311 
2 19684 19685 
2 4496 4497 
2 4495 4496 
1 4495 19684 
2 19685 19686 
1 4497 17076 
2 18862 18863 
2 9526 9527 
1 9526 21355 
2 21355 21356 
2 21356 21357 
2 9968 9969 
2 9967 9968 
1 9967 21357 
3 4207 4208 
1 4207 10188 
2 10187 10188 
3 4208 4209 
3 19895 19896 
3 13597 13598 
1 13597 17448 
1 10041 19894 
3 19894 19895 
3 17447 17448 
1 4209 19725 
3 20467 20468 
3 20468 20469 
1 1905 20467 
3 1904 1905 
3 19724 19725 
3 10040 10041 
2 5527 5528 
1 5527 7200 
1 16722 19629 
1 1968 14343 
2 18863 18864 
2 14341 14342 
1 14341 18864 
2 14342 14343 
2 16721 16722 
2 10186 10187 
1 10186 13201 
3 13201 13202 
2 16546 16547 
3 13202 13203 
2 16547 16548 
2 11143 11144 
1 11143 18745 
2 18745 18746 
2 5452 5453 
1 5452 16546 
2 18746 18747 
1 18747 20158 
3 20158 20159 
2 19198 19199 
3 1346 1347 
3 1903 1904 
3 1345 1346 
1 1345 1903 
2 19199 19200 
3 20159 20160 
1 3345 19026 
2 3344 3345 
2 3343 3344 
2 15389 15390 
2 12920 12921 
2 12919 12920 
2 17345 17346 
2 21259 21260 
1 17346 21259 
2 5441 5442 
2 16720 16721 
1 5442 21222 
2 5440 5441 
1 5440 7506 
1 12921 16720 
2 571 572 
1 571 5247 
1 11373 17583 
1 1623 19077 
2 17344 17345 
1 16548 17344 
2 17582 17583 
2 5246 5247 
2 17581 17582 
2 5245 5246 
1 5245 17581 
2 11144 11145 
2 10057 10058 
2 14005 14006 
1 14005 19200 
1 2670 20347 
2 5623 5624 
2 20347 20348 
2 14006 14007 
1 14007 19075 
2 916 917 
1 916 5623 
2 10058 10059 
2 19076 19077 
1 6171 10057 
2 19075 19076 
2 20348 20349 
3 2008 2009 
1 1974 2008 
2 1973 1974 
2 15388 15389 
1 15388 20349 
2 1972 1973 
1 1972 8094 
1 2010 20005 
3 2009 2010 
2 20005 20006 
3 218 219 
3 217 218 
1 217 11706 
1 219 14562 
2 2065 2066 
1 2065 17274 
2 17273 17274 
2 2066 2067 
3 1981 1982 
1 1981 2067 
3 1982 1983 
3 4172 4173 
1 3099 4173 
3 4171 4172 
3 19319 19320 
1 6546 12655 
3 19318 19319 
1 3891 19318 
3 3890 3891 
3 12655 12656 
3 6545 6546 
3 6544 6545 
3 19406 19407 
3 9059 9060 
2 5468 5469 
2 5467 5468 
1 5467 6472 
3 6472 6473 
1 5469 17860 
3 6473 6474 
2 17860 17861 
1 14496 17451 
1 19311 19320 
2 12647 12648 
2 14495 14496 
2 17450 17451 