LAMMPS data file via write_data, version 7 Aug 2019, timestep = 60000000

4689 atoms
3 atom types
4581 bonds
3 bond types
4473 angles
3 angle types

0.0000000000000000e+00 5.0000000000000000e+01 xlo xhi
0.0000000000000000e+00 5.0000000000000000e+01 ylo yhi
0.0000000000000000e+00 5.0000000000000000e+01 zlo zhi

Masses

1 0.25
2 0.5
3 0.5

Bond Coeffs # harmonic

1 6000 0.15
2 2000 0.4
3 2000 0.4

Angle Coeffs # harmonic

1 100 180
2 50 180
3 50 180

Atoms # angle

18850 1 1 1.1086362608467635e+01 3.3504519094252082e+01 7.4375551140944589e+00
5602 1 1 1.1054027630679970e+01 3.3580757123196165e+01 7.3376217073069032e+00
5604 1 1 1.0858916307708302e+01 3.4164136985992279e+01 6.9440849468711852e+00
5603 3 3 1.0975275054449279e+01 3.3807633813320251e+01 7.1076099735206606e+00
581 2 2 1.0954870359639122e+01 3.1989505872267927e+01 8.9525178998711503e+00
580 1 1 1.0777238366026554e+01 3.1892533377642021e+01 8.6574805770816905e+00
18851 2 2 1.1241636463207156e+01 3.3301092961880684e+01 7.7188400513111475e+00
18852 1 1 1.1558506855269011e+01 3.3098727355480641e+01 7.9594350091968415e+00
5268 1 1 1.1636873056196983e+01 3.3042722942656887e+01 8.0810717064554964e+00
5267 2 2 1.1832294064934111e+01 3.2858890034621410e+01 8.3747774962869652e+00
5266 1 1 1.1985181231398059e+01 3.2605544618600632e+01 8.6339925256858905e+00
20544 1 1 1.2043603389594644e+01 3.2509574444180437e+01 8.7454248260639833e+00
20543 2 2 1.2211975556788113e+01 3.2326590890734799e+01 9.0612910790339107e+00
2563 1 1 1.2056366078226905e+01 3.3257748318064273e+01 9.0976080581357905e+00
16534 1 1 1.2217687893649922e+01 3.6579405662033992e+01 9.1229515326516726e+00
11695 1 1 1.2644092068384140e+01 3.5600961034806126e+01 9.2098225815755086e+00
792 1 1 1.0648571680071681e+01 3.0613045746902806e+01 1.0711828959717016e+01
4349 3 3 1.2186672962413136e+01 2.9782151704144287e+01 9.9362662713076428e+00
3737 2 2 1.1977826421715550e+01 3.0339695553777688e+01 1.0670208774251797e+01
3736 1 1 1.2120276825779044e+01 3.0120396027587198e+01 1.0388393835519334e+01
4350 1 1 1.2167783456266067e+01 3.0021489934808137e+01 1.0263300129775603e+01
4348 1 1 1.2135373411144123e+01 2.9677688198560464e+01 9.5322173020271013e+00
6997 1 1 1.0462900318476620e+01 3.1268225309384874e+01 1.0507982084258954e+01
21462 1 1 1.1977340891004669e+01 3.0898370936063731e+01 9.3832655680851644e+00
582 1 1 1.1155725352864003e+01 3.2141731345917350e+01 9.2695628147892730e+00
21461 2 2 1.1796949917682847e+01 3.1163122858265293e+01 9.6559252773629378e+00
21460 1 1 1.1699157144072203e+01 3.1347746532270602e+01 1.0001376853137355e+01
15331 1 1 1.1675883137478742e+01 3.1438005983952468e+01 1.0113483442653290e+01
15332 2 2 1.1662111776175234e+01 3.1650408308180761e+01 1.0468956539544582e+01
14176 1 1 9.3410770328776138e+00 3.2373446405873842e+01 1.0223868634708785e+01
14177 3 3 9.5354406027608505e+00 3.2444052016229520e+01 9.8349432578542615e+00
14178 1 1 9.7299531194363205e+00 3.2497104583913405e+01 9.4689321270982099e+00
13031 2 2 1.1068396995603779e+01 3.2635725673878028e+01 1.0723168149239303e+01
14233 1 1 9.6030030210630635e+00 3.2835298412604807e+01 1.0379585711400752e+01
17916 1 1 1.0637089630246169e+01 3.3637531776487151e+01 1.0150484248357900e+01
17915 2 2 1.0623898985954860e+01 3.3691333957876566e+01 1.0590607545456464e+01
14234 2 2 9.6885146783834717e+00 3.2938951843193891e+01 1.0761558168244365e+01
20542 1 1 1.2357590855308528e+01 3.2222267268197058e+01 9.4615487489617944e+00
10597 1 1 1.1201296494209043e+01 3.2191735312376238e+01 9.4092678281287156e+00
10598 2 2 1.1264856352887026e+01 3.2398908569109416e+01 9.8090582795936285e+00
10599 1 1 1.1199685648094155e+01 3.2516825339438071e+01 1.0214820500651864e+01
13030 1 1 1.1171967130282612e+01 3.2557973634838469e+01 1.0337277462449705e+01
2564 2 2 1.2095778913365505e+01 3.3239469432284963e+01 9.5212986410128515e+00
2565 1 1 1.2075047324457618e+01 3.3185846805952920e+01 9.8752583194404870e+00
4098 1 1 1.2085188622101040e+01 3.3175806880792955e+01 1.0011632444971054e+01
4097 2 2 1.2077673783558856e+01 3.3208200225749238e+01 1.0394316408403705e+01
7396 1 1 1.2647756004030029e+01 3.2472998437612262e+01 1.0261439263669191e+01
4096 1 1 1.1946849529002142e+01 3.3286209176565833e+01 1.0778571799405210e+01
1693 1 1 1.2703274643323757e+01 3.2511231435262310e+01 1.0380489651559126e+01
7397 2 2 1.2568816738437224e+01 3.2298473536363481e+01 9.9635695168570404e+00
7398 1 1 1.2406912018001869e+01 3.2209515900432201e+01 9.5752512322614631e+00
5099 3 3 1.0855537807910991e+01 3.4926981240279630e+01 1.0395587003979719e+01
5098 1 1 1.0900569716006146e+01 3.4881387348396160e+01 1.0054253810779867e+01
13163 2 2 1.2669629691611465e+01 3.4955991273787291e+01 1.0561188357419780e+01
12750 1 1 1.1591656814853291e+01 3.4474689062230816e+01 1.0498757244819897e+01
17964 1 1 1.2628974597206643e+01 3.5059963832849157e+01 1.0015782110809530e+01
13164 1 1 1.2657013850373561e+01 3.5037374301457788e+01 1.0171787738375954e+01
19507 1 1 8.5923969724559672e+00 3.5577268999016681e+01 9.9933060754181451e+00
19508 3 3 8.6032965363847165e+00 3.5877161218822110e+01 1.0245304329878104e+01
19509 1 1 8.5999889131298648e+00 3.6110045118115920e+01 1.0529212157498133e+01
19887 1 1 8.6122650424328633e+00 3.6193554264971034e+01 1.0647186375646204e+01
2727 1 1 1.0443117228618805e+01 3.5663718351578297e+01 9.8932747041078137e+00
2726 3 3 1.0375766164402213e+01 3.5817831218004372e+01 1.0171531064493930e+01
2725 1 1 1.0209654794968943e+01 3.5977776559318599e+01 1.0515366864903701e+01
20597 3 3 1.1144993031830632e+01 3.6447368722888271e+01 9.7998567318945078e+00
20596 1 1 1.1011090349284599e+01 3.6552809280973626e+01 1.0174877930216756e+01
16482 1 1 1.0961031783872096e+01 3.6603277065118917e+01 1.0307354178257604e+01
3300 1 1 1.0161181762080474e+01 3.6038507013163780e+01 1.0666796166274509e+01
16481 3 3 1.0900396826885402e+01 3.6760381228116017e+01 1.0661549657205088e+01
17962 1 1 1.2615684780755389e+01 3.5494820648459125e+01 9.3266946377399051e+00
20598 1 1 1.1297445219052721e+01 3.6359090749426819e+01 9.4530546850179284e+00
21599 3 3 1.2401987289341450e+01 3.6294911001764312e+01 1.0431765986981155e+01
21598 1 1 1.2322251725581737e+01 3.6356759562970261e+01 1.0084243712309235e+01
16535 2 2 1.2197846121778516e+01 3.6477546444723686e+01 9.5461675855353487e+00
16536 1 1 1.2282939982144534e+01 3.6366262229588664e+01 9.9105005115136713e+00
17963 2 2 1.2623394162836558e+01 3.5258000445423633e+01 9.6233590955495227e+00
16168 1 1 8.9382140142185342e+00 3.6873716300546391e+01 9.9589223751711238e+00
16169 3 3 9.0457456816487181e+00 3.7076462668203966e+01 1.0294548664753727e+01
16170 1 1 9.1224851220074648e+00 3.7237860233991462e+01 1.0667740211693905e+01
17926 1 1 1.1255914053244121e+01 2.8603387004918599e+01 1.1200271078111342e+01
17927 2 2 1.1489270487625731e+01 2.8947566908093076e+01 1.1321831292821010e+01
3624 1 1 1.0733212899191779e+01 3.0203714629810641e+01 1.1632799628863753e+01
790 1 1 1.0714897196803824e+01 3.0249511824978939e+01 1.1481353941907900e+01
791 3 3 1.0687288833686129e+01 3.0390484336250648e+01 1.1117456534037531e+01
3623 2 2 1.0784394063189751e+01 3.0120535018088113e+01 1.2052356492490647e+01
17802 1 1 1.1769130634334173e+01 2.9385722338798658e+01 1.1583955964357607e+01
17928 1 1 1.1701558049645602e+01 2.9256715412547567e+01 1.1493233831438786e+01
17801 2 2 1.1944986426457927e+01 2.9708265480136337e+01 1.1752022682428425e+01
3738 1 1 1.1818539773855136e+01 3.0568403195606571e+01 1.0920795674754784e+01
17800 1 1 1.2064031626909573e+01 3.0015306067720086e+01 1.1994939466050834e+01
15526 1 1 1.2135100246155428e+01 3.0088587523180017e+01 1.2116807083403337e+01
18418 1 1 9.1729638997102114e+00 3.1507157605380598e+01 1.2288943923585011e+01
6998 3 3 1.0401218949234130e+01 3.1416887570537810e+01 1.0828581894233398e+01
6999 1 1 1.0266067960186117e+01 3.1586033823497466e+01 1.1131431607883197e+01
6529 1 1 1.0219855092338623e+01 3.1655343746380662e+01 1.1270446617462266e+01
6530 2 2 1.0136740208379921e+01 3.1838622508355932e+01 1.1628025369284529e+01
6531 1 1 1.0142129355374855e+01 3.2025272904130468e+01 1.1978335851009597e+01
6466 1 1 1.0100741218227695e+01 3.2077241262333359e+01 1.2116402682959922e+01
20372 2 2 1.2698755519215032e+01 3.1219646856988891e+01 1.0971349820725132e+01
15333 1 1 1.1661763654786318e+01 3.1813872203958937e+01 1.0826143109198451e+01
2616 1 1 1.1683850196237540e+01 3.1878945423139964e+01 1.0970895790144523e+01
11442 1 1 1.2591984919882830e+01 3.1486882978371099e+01 1.1452481513576311e+01
17017 1 1 1.1777340630199561e+01 3.0652336783933734e+01 1.1036884349654224e+01
11440 1 1 1.2542816392303479e+01 3.1704287541807183e+01 1.2185806663067392e+01
17018 3 3 1.1658503499099760e+01 3.0892062478617316e+01 1.1344108660379248e+01
17019 1 1 1.1605971763918301e+01 3.1167771115742166e+01 1.1681599430964196e+01
7546 1 1 1.1565711374769883e+01 3.1257710001743522e+01 1.1822989126438532e+01
7547 2 2 1.1508860927467785e+01 3.1537647950861398e+01 1.2135399410095651e+01
11441 3 3 1.2601841429269118e+01 3.1630470123396766e+01 1.1765414521950690e+01
20371 1 1 1.2595652671337131e+01 3.1426532531400632e+01 1.1306187068923826e+01
2615 2 2 1.1732595726728738e+01 3.2104761031567229e+01 1.1290170599111242e+01
15961 1 1 8.8206485955056184e+00 3.2591066586623882e+01 1.1511886694659955e+01
15962 2 2 8.9526753185295114e+00 3.2575857632442585e+01 1.1864870620638511e+01
15963 1 1 9.0704905676725112e+00 3.2534362778637117e+01 1.2248597692165074e+01
130 1 1 8.0124360384741014e+00 3.2274453717680608e+01 1.2254886073842375e+01
14235 1 1 9.7518879962004554e+00 3.3033340898410138e+01 1.1153625355944873e+01
17305 1 1 9.7555546022447661e+00 3.3087353936979753e+01 1.1292859981036431e+01
13032 1 1 1.0975875846631771e+01 3.2726162965881691e+01 1.1064146267238405e+01
19899 1 1 1.0938349064153737e+01 3.2756662476153195e+01 1.1218886164267429e+01
19898 2 2 1.0841187222226889e+01 3.2872461131152356e+01 1.1561212776877051e+01
19897 1 1 1.0728033928202255e+01 3.2981841042943266e+01 1.1887178806937490e+01
17306 2 2 9.7928053399368622e+00 3.3215613059143863e+01 1.1680118877526946e+01
9426 1 1 1.0701784834988638e+01 3.3025961638716666e+01 1.2065501523297256e+01
17307 1 1 9.7279069866678132e+00 3.3434509893768187e+01 1.2061122279737219e+01
2259 1 1 9.7022559748711519e+00 3.3489095920784791e+01 1.2213008902046955e+01
17533 1 1 1.1909493599451979e+01 3.3298481750180869e+01 1.0889505506984243e+01
2614 1 1 1.1721634971240364e+01 3.2298298928604140e+01 1.1626568476308105e+01
9522 1 1 1.1749715903574124e+01 3.2379341486615310e+01 1.1769358078751431e+01
17534 2 2 1.1778238910051614e+01 3.3404667773106397e+01 1.1259244516008403e+01
17535 1 1 1.1706515552116405e+01 3.3530501746584001e+01 1.1657464063633100e+01
13965 1 1 1.1666424253767131e+01 3.3562161366908150e+01 1.1775456310811519e+01
9521 2 2 1.1802162707472140e+01 3.2582926453563701e+01 1.2096205571661882e+01
13964 2 2 1.1562584130486405e+01 3.3665940818570121e+01 1.2111481216451466e+01
17082 1 1 6.3200657728080030e+00 3.4359781599445874e+01 1.2110731839221220e+01
895 1 1 6.3375246167377401e+00 3.4334432208715455e+01 1.2279527618050922e+01
17081 3 3 6.2977390551175514e+00 3.4423220215273645e+01 1.1691646506731212e+01
17080 1 1 6.0974415858231712e+00 3.4498616325743235e+01 1.1366289399033851e+01
11324 2 2 9.4706598822200974e+00 3.4382053513943831e+01 1.1861900368652515e+01
11325 1 1 9.4490246122839157e+00 3.4133493567899627e+01 1.1541129702891588e+01
5100 1 1 1.0777342319713105e+01 3.4991118187314271e+01 1.0805685283145751e+01
11323 1 1 9.5708795063668699e+00 3.4587704490468596e+01 1.2202097138055571e+01
17914 1 1 1.0574742861372824e+01 3.3754391143812697e+01 1.0922243634041372e+01
522 1 1 1.0566214200709164e+01 3.3771605718161489e+01 1.1066306976823729e+01
521 2 2 1.0624226284905681e+01 3.3869768690710892e+01 1.1473544096928508e+01
520 1 1 1.0640736420693438e+01 3.4051215880505339e+01 1.1868216579969552e+01
14458 1 1 1.0622778410629081e+01 3.4069238638921462e+01 1.2000366936781278e+01
8450 3 3 1.0727524425901576e+01 3.5096376626257594e+01 1.1336247041381508e+01
8451 1 1 1.0750019225539660e+01 3.5010107814629215e+01 1.0970694260768182e+01
8449 1 1 1.0624701626400507e+01 3.5227580778128456e+01 1.1681958599075971e+01
12914 2 2 1.2629565866437142e+01 3.3815478721507887e+01 1.1970836766946720e+01
13162 1 1 1.2611037897775402e+01 3.4926557745188077e+01 1.0937631410980710e+01
15322 1 1 1.1516369750937418e+01 3.4582146872649538e+01 1.1482537112618928e+01
15323 2 2 1.1451214745379037e+01 3.4686531179003481e+01 1.1904054971297253e+01
12749 2 2 1.1555714898733802e+01 3.4415692919699907e+01 1.0924875938867141e+01
12748 1 1 1.1538754896551971e+01 3.4549291062871291e+01 1.1335377633410070e+01
9049 1 1 1.2369574122760511e+01 3.4947779362932252e+01 1.1774421548299737e+01
15324 1 1 1.1416944804065430e+01 3.4862053473683659e+01 1.2255837093790690e+01
14087 2 2 1.2422810484822048e+01 3.5107191673612135e+01 1.2329236169074134e+01
14088 1 1 1.2403146746638743e+01 3.4996987982764757e+01 1.1918504990166470e+01
9051 1 1 1.2559020169887644e+01 3.4909014357779128e+01 1.1099174308392698e+01
9050 2 2 1.2439505939308393e+01 3.4921890726417026e+01 1.1419275739386292e+01
12913 1 1 1.2595374706109679e+01 3.3870960176813874e+01 1.2326195115995759e+01
14941 1 1 7.1120733677303916e+00 3.6186082843639120e+01 1.1725132718277267e+01
14942 3 3 7.3199398288748068e+00 3.6258712027175648e+01 1.2055733919913619e+01
1134 1 1 8.8619475697332248e+00 3.5520657133073342e+01 1.1279506193454546e+01
1133 3 3 8.9877055323803532e+00 3.5683054128800343e+01 1.1649767004431711e+01
1132 1 1 9.0675450271300200e+00 3.5816280374506505e+01 1.2026954616143531e+01
19886 3 3 8.6044864761836681e+00 3.6350241933507441e+01 1.0959808973073264e+01
19885 1 1 8.5666724627644353e+00 3.6543578070078667e+01 1.1308433858669686e+01
21238 1 1 8.5295372580947237e+00 3.6615189257000765e+01 1.1460127010912833e+01
3691 1 1 9.0708366254707116e+00 3.5851089232518014e+01 1.2215029288340569e+01
1663 1 1 1.0559290950565948e+01 3.5268819273927420e+01 1.1839656717432408e+01
1664 2 2 1.0428751170363306e+01 3.5363689525570301e+01 1.2178153900964219e+01
3298 1 1 1.0008382285781739e+01 3.6174577503973801e+01 1.1495173540283385e+01
3299 3 3 1.0095284041683968e+01 3.6107891809419144e+01 1.1062091025047655e+01
19344 1 1 9.9911511129198125e+00 3.6217011231831236e+01 1.1642368299809887e+01
6235 1 1 1.0858704312498816e+01 3.6770371357073110e+01 1.1215042599442063e+01
19343 3 3 9.9265234505328923e+00 3.6289084388988712e+01 1.2018244817875550e+01
4343 3 3 1.2459703281124934e+01 3.6148357169228227e+01 1.1421966665189615e+01
21600 1 1 1.2447439574222116e+01 3.6224719906920591e+01 1.0861402965422441e+01
11106 1 1 1.1304309841166376e+01 3.6049641703926731e+01 1.2147955598523085e+01
14913 1 1 1.1262966564496267e+01 3.6105216967637894e+01 1.2325299490289709e+01
11104 1 1 1.1459843970583423e+01 3.5783998107522535e+01 1.1387913896671137e+01
11105 2 2 1.1342844840804593e+01 3.5879574629030287e+01 1.1786328897353147e+01
4342 1 1 1.2469096165222975e+01 3.6197860808186874e+01 1.1835134870989965e+01
15081 1 1 1.2435164949690311e+01 3.6224381018210003e+01 1.1959438880509353e+01
4344 1 1 1.2449006949506177e+01 3.6189882278437132e+01 1.1022798699567954e+01
6758 3 3 8.3859105535382064e+00 3.7904001769677194e+01 1.1989627625895935e+01
21239 3 3 8.4788853532376383e+00 3.6777519815268384e+01 1.1813718457403530e+01
6757 1 1 8.3724153764632074e+00 3.7852441155100777e+01 1.1647622586113757e+01
20599 1 1 9.1454783818931258e+00 3.7271986514484553e+01 1.0798209083914498e+01
20600 3 3 9.2121171448613026e+00 3.7349211401093527e+01 1.1174421237746655e+01
20601 1 1 9.3684238972549778e+00 3.7489507058091284e+01 1.1517017396878998e+01
5457 1 1 9.4028219618321138e+00 3.7530037912247600e+01 1.1631186440028641e+01
5456 3 3 9.4485374883672453e+00 3.7672086238673124e+01 1.2027629452116207e+01
21240 1 1 8.5682483979326172e+00 3.6851059929931097e+01 1.2224169099000502e+01
16480 1 1 1.0871564786883553e+01 3.6773976210320676e+01 1.1082302970532703e+01
6236 2 2 1.0841028238163744e+01 3.6837493733579556e+01 1.1633475494724729e+01
6237 1 1 1.0736480799752465e+01 3.7005405401656411e+01 1.2018100140787704e+01
13858 1 1 1.0725042675483122e+01 3.7061993803267683e+01 1.2174554849647578e+01
3622 1 1 1.0958001757277685e+01 3.0181092113770500e+01 1.2448929278823837e+01
10518 1 1 1.1012044697554112e+01 3.0207680028070314e+01 1.2579410843662412e+01
10517 2 2 1.1137766508022098e+01 3.0324146040350726e+01 1.2913034403591192e+01
15528 1 1 1.2368353838158232e+01 3.0389121608977756e+01 1.2798386770573412e+01
15527 3 3 1.2272495159309200e+01 3.0221650889019056e+01 1.2435131078385767e+01
8869 1 1 1.2412055603856603e+01 3.0442314085172168e+01 1.2952710188476416e+01
10516 1 1 1.1211974196748134e+01 3.0535209449139220e+01 1.3240659012011903e+01
1249 1 1 1.1239363406969780e+01 3.0629126411984878e+01 1.3365961515032382e+01
8870 2 2 1.2474053705972688e+01 3.0541543802590251e+01 1.3315467800624457e+01
4281 1 1 9.3741742386009932e+00 3.1637009478631640e+01 1.3207335878957263e+01
18420 1 1 9.3498565025213907e+00 3.1591028436599370e+01 1.3061291225006872e+01
18419 2 2 9.2547270951695175e+00 3.1507787586046092e+01 1.2672379942533063e+01
4280 2 2 9.4249242695801190e+00 3.1705802718327629e+01 1.3597065901705763e+01
12721 1 1 1.0748579061585167e+01 3.1290944851804479e+01 1.2357985399529579e+01
12722 2 2 1.0577742661422810e+01 3.1348881348083694e+01 1.2721878606704912e+01
12723 1 1 1.0502275872132923e+01 3.1400897189442013e+01 1.3069828279744216e+01
1885 1 1 1.0466195965088565e+01 3.1408055195401722e+01 1.3223816352631751e+01
1886 2 2 1.0418331281832797e+01 3.1470032861424659e+01 1.3579207842818507e+01
7548 1 1 1.1400737202968815e+01 3.1765903023744794e+01 1.2493603223435146e+01
13408 1 1 1.1241471948256137e+01 3.2151932735113483e+01 1.3330400853429094e+01
13410 1 1 1.1378652536206562e+01 3.1827975884221054e+01 1.2590514023908579e+01
13409 2 2 1.1275842596195982e+01 3.2038585376037972e+01 1.2983984254816757e+01
13685 2 2 1.2315901081488398e+01 3.1867514792093651e+01 1.2773408100157383e+01
13686 1 1 1.2268486360268193e+01 3.1926978357352237e+01 1.3149695858775734e+01
12451 1 1 1.2251220074031444e+01 3.1956695062901836e+01 1.3291249411854766e+01
1250 2 2 1.1315040590781720e+01 3.0926847410424671e+01 1.3622886837335708e+01
13684 1 1 1.2492855913038959e+01 3.1728313547589476e+01 1.2352687169421955e+01
12452 2 2 1.2129995350198014e+01 3.2132956278296767e+01 1.3677587345011904e+01
8871 1 1 1.2563878943520542e+01 3.0759119372638850e+01 1.3650711925550473e+01
13477 1 1 1.2594293733639024e+01 3.0841175750775594e+01 1.3799945394453880e+01
6163 1 1 6.9608073032663764e+00 3.2380484193017537e+01 1.3765274024108818e+01
6164 2 2 6.9483050268571622e+00 3.2795514870832854e+01 1.3843372883827952e+01
2646 1 1 9.0971172874707662e+00 3.2544313676326219e+01 1.2397696519733474e+01
12687 1 1 8.2965863658943739e+00 3.2305468531972544e+01 1.3820602230585257e+01
131 2 2 8.0666331377103724e+00 3.2593421368803284e+01 1.2466120646801340e+01
132 1 1 8.0429836690596872e+00 3.2909868908989857e+01 1.2714995909731277e+01
6562 1 1 8.0251298539046303e+00 3.3043606871992928e+01 1.2830218670999798e+01
2645 2 2 9.1195686283911908e+00 3.2651283804255591e+01 1.2792392471209846e+01
2644 1 1 9.0966483376693006e+00 3.2727992319212653e+01 1.3175442986136598e+01
12189 1 1 9.1005197135685965e+00 3.2782017146425510e+01 1.3294071097079629e+01
12188 2 2 9.1594458804563761e+00 3.2934331171384692e+01 1.3601767170593298e+01
6563 3 3 8.0547838075528180e+00 3.3311299481353352e+01 1.3142775716487348e+01
6564 1 1 8.1614124487325430e+00 3.3489706050677583e+01 1.3457449325712505e+01
1285 1 1 8.2260843682027893e+00 3.3581208374789675e+01 1.3607995309760698e+01
6467 2 2 1.0110136539531204e+01 3.2234958759584060e+01 1.2429050589787771e+01
6468 1 1 1.0127710153839798e+01 3.2366908975664238e+01 1.2825959232408577e+01
15798 1 1 1.0130405584634342e+01 3.2401956777920404e+01 1.2948492612534162e+01
15797 2 2 1.0122152708882211e+01 3.2533925740159162e+01 1.3308651768954080e+01
8383 1 1 1.0635064321723361e+01 3.3300083131533079e+01 1.3006785515013924e+01
15796 1 1 1.0117297195503422e+01 3.2586553387860405e+01 1.3735761155651941e+01
8384 2 2 1.0721023381741899e+01 3.3416332279446337e+01 1.3381329190052979e+01
9424 1 1 1.0617251205620011e+01 3.3239309999517296e+01 1.2874364459776324e+01
9425 2 2 1.0675064177865657e+01 3.3122388709188805e+01 1.2474247424542597e+01
2258 2 2 9.6180367156381674e+00 3.3589048147424990e+01 1.2612472339129548e+01
8385 1 1 1.0717831977501410e+01 3.3568137384736303e+01 1.3778591716197941e+01
2257 1 1 9.6312854945278801e+00 3.3684381702329858e+01 1.2972300897066642e+01
14827 1 1 1.1204126618151557e+01 3.2239227528560718e+01 1.3494866852653896e+01
14828 2 2 1.1155573000525743e+01 3.2410710306457894e+01 1.3848765714557402e+01
9520 1 1 1.1789408134922649e+01 3.2775589757067507e+01 1.2443970637278762e+01
14374 1 1 1.1791861675335829e+01 3.2858744153691319e+01 1.2575516092872881e+01
14375 2 2 1.1808812521236689e+01 3.3064332518712902e+01 1.2897529077691013e+01
14376 1 1 1.1789223610295368e+01 3.3190342483616277e+01 1.3269090404638821e+01
10306 1 1 1.1767602326409525e+01 3.3268575293797369e+01 1.3422949553019967e+01
10307 2 2 1.1732384575780268e+01 3.3344524054332140e+01 1.3813075138283665e+01
896 3 3 6.3548587261637701e+00 3.4261618132492266e+01 1.2670331595399324e+01
6488 3 3 6.3714061169025049e+00 3.4170777750555096e+01 1.3626266686964282e+01
6487 1 1 6.3891375232375918e+00 3.4227976759531010e+01 1.3222129474099692e+01
897 1 1 6.3860780960116026e+00 3.4223339701769746e+01 1.3076252170613346e+01
20809 1 1 7.7340395632010219e+00 3.4507657423370183e+01 1.3212483221339500e+01
20810 2 2 7.5368578841478682e+00 3.4593641338414429e+01 1.3535052125139586e+01
20811 1 1 7.2877793092525884e+00 3.4677471175383538e+01 1.3867154257073285e+01
2922 1 1 8.6713795857768456e+00 3.4348274665417726e+01 1.2965532649047807e+01
2921 2 2 8.5543661303209610e+00 3.4607623036652349e+01 1.3192288962220337e+01
2920 1 1 8.5380208874139232e+00 3.4879822119101384e+01 1.3480231064287446e+01
18439 1 1 8.5074919011939407e+00 3.4981550848563550e+01 1.3573703446606260e+01
18440 2 2 8.3909810786890393e+00 3.5201929128581909e+01 1.3872343402517828e+01
15937 1 1 9.5593582039134404e+00 3.4682194752234345e+01 1.2336806580603181e+01
9569 2 2 9.6012292702574147e+00 3.5117376711557476e+01 1.3663329772196485e+01
9568 1 1 9.6399360947343649e+00 3.5011213459355162e+01 1.3246256581896001e+01
15939 1 1 9.6414133030335627e+00 3.4963651335769633e+01 1.3085963369961277e+01
15938 2 2 9.5859007142178037e+00 3.4825269692866769e+01 1.2708190019899991e+01
14459 2 2 1.0598919529726595e+01 3.4185932545361446e+01 1.2369499782636103e+01
19816 1 1 9.6445170278209940e+00 3.3751788414347118e+01 1.3120787096632263e+01
14460 1 1 1.0509046339469695e+01 3.4335883395690352e+01 1.2679516145018159e+01
18151 1 1 1.0490459140036208e+01 3.4406460994159417e+01 1.2812428283840255e+01
18152 2 2 1.0478103793141434e+01 3.4559262182307876e+01 1.3155021087256845e+01
19817 3 3 9.6986102151964158e+00 3.3873304295247259e+01 1.3503554522890965e+01
18153 1 1 1.0442691011590785e+01 3.4636983988189940e+01 1.3591134393753462e+01
7002 1 1 1.0445583172691524e+01 3.4681261154158676e+01 1.3750458952151309e+01
19818 1 1 9.6790683374926569e+00 3.3958045381288855e+01 1.3870416080073518e+01
14213 2 2 1.2602778260047661e+01 3.4013460611776551e+01 1.2834217405109762e+01
14214 1 1 1.2600439089669795e+01 3.3901084033763787e+01 1.2468827837478601e+01
14212 1 1 1.2579215368155904e+01 3.4128483708128499e+01 1.3229411537311170e+01
13881 1 1 1.1408979213354851e+01 3.4919496130182452e+01 1.2369355581670225e+01
14086 1 1 1.2428965121605774e+01 3.5165893039049024e+01 1.2763345484086173e+01
13963 1 1 1.1494849044297444e+01 3.3841454065110192e+01 1.2462051809222928e+01
18226 1 1 1.1474913579856270e+01 3.3918151512834037e+01 1.2601312877088498e+01
18227 2 2 1.1474938105939959e+01 3.4087689307964517e+01 1.2959800929788365e+01
18228 1 1 1.1493185181347567e+01 3.4264082037759088e+01 1.3358857481619301e+01
18919 1 1 1.1518335937343499e+01 3.4323290807432514e+01 1.3473858987573186e+01
13880 2 2 1.1340808652810098e+01 3.5047024971705532e+01 1.2665947084673840e+01
4603 1 1 1.2393548868441503e+01 3.5217204128223038e+01 1.2880551048501294e+01
18920 2 2 1.1534696370304481e+01 3.4496705475634862e+01 1.3780829175625408e+01
911 2 2 1.2518244415422043e+01 3.4255244301518893e+01 1.3687678266940738e+01
912 1 1 1.2563767557454106e+01 3.4158181490390618e+01 1.3339565735654027e+01
14943 1 1 7.4536049306639232e+00 3.6347915550930914e+01 1.2437551716575314e+01
12424 1 1 7.4829476091634577e+00 3.6364997268331358e+01 1.2559281100434813e+01
12425 3 3 7.5779766053274988e+00 3.6379576297422041e+01 1.2902497387754178e+01
12426 1 1 7.6916306021878569e+00 3.6401780811236968e+01 1.3262106250227466e+01
16255 1 1 7.7331261694455549e+00 3.6394923085052710e+01 1.3406652824123835e+01
16256 2 2 7.8519391617547472e+00 3.6434054019178866e+01 1.3761029734756164e+01
3692 3 3 8.9823949263265721e+00 3.5846739835568904e+01 1.2627125450681710e+01
3693 1 1 9.0010150833401230e+00 3.5972656811969536e+01 1.3014283533151337e+01
17994 1 1 9.0301925208597815e+00 3.6006279923784298e+01 1.3155170421365234e+01
17993 2 2 9.1160584864832508e+00 3.6097491499524381e+01 1.3573235933324778e+01
1665 1 1 1.0359737353608464e+01 3.5482388994895935e+01 1.2555423091698870e+01
19342 1 1 9.7987283711652555e+00 3.6392304873739064e+01 1.2412518812831591e+01
16782 1 1 1.0311926050875535e+01 3.5542144596758661e+01 1.2679828957862977e+01
16781 2 2 1.0299258562409070e+01 3.5611221740246641e+01 1.3057932480389534e+01
9185 2 2 1.1117815124644823e+01 3.6615201402029570e+01 1.3482193752901845e+01
14911 1 1 1.1076920808417947e+01 3.6351478867066930e+01 1.3027589036560885e+01
9186 1 1 1.1090486422147501e+01 3.6434440531933035e+01 1.3175000253883233e+01
14912 2 2 1.1136367552306595e+01 3.6227941178419286e+01 1.2703626739703648e+01
16780 1 1 1.0275211209529905e+01 3.5748340199130816e+01 1.3381262104343550e+01
7555 1 1 1.0260968087542246e+01 3.5811093299526576e+01 1.3512394922173680e+01
13969 1 1 9.7931688649056614e+00 3.6460977516178119e+01 1.2581032110554512e+01
13970 2 2 9.7954923518118129e+00 3.6628537218986487e+01 1.2953027606199353e+01
4604 2 2 1.2293982893934270e+01 3.5320139084944230e+01 1.3265123381734869e+01
4605 1 1 1.2214723916161397e+01 3.5380536007674721e+01 1.3655942517674969e+01
11094 1 1 1.1343596999846799e+01 3.5342256551214717e+01 1.3138226015649154e+01
13879 1 1 1.1353121198483743e+01 3.5277015567659731e+01 1.3024244673087589e+01
15080 3 3 1.2315035149482890e+01 3.6269882485618503e+01 1.2355456611924895e+01
15079 1 1 1.2180016126447947e+01 3.6374857149928211e+01 1.2720327793799420e+01
390 1 1 1.2168434997637597e+01 3.6392279442657504e+01 1.2849746331653719e+01
389 2 2 1.2173565636619557e+01 3.6474175569994017e+01 1.3211025752390126e+01
388 1 1 1.2222395852141339e+01 3.6542680564446890e+01 1.3637485246555563e+01
13143 1 1 1.2234857082340797e+01 3.6561043821584100e+01 1.3775042810828701e+01
14173 1 1 1.2205210852391684e+01 3.5410646752506423e+01 1.3785552356705445e+01
11093 2 2 1.1295548227258518e+01 3.5487883214617945e+01 1.3524893924770398e+01
14918 2 2 7.2997762024391468e+00 3.7917770868338231e+01 1.3209653158557463e+01
14919 1 1 7.1510758344603378e+00 3.7935275207583942e+01 1.2816657884834470e+01
14917 1 1 7.3819742503181489e+00 3.7854238298048209e+01 1.3630162948079876e+01
8319 1 1 7.3916149974100094e+00 3.7852836898387636e+01 1.3774184293117907e+01
8356 1 1 8.3982322901730520e+00 3.8065509405731895e+01 1.3314490071519796e+01
8357 2 2 8.4117446787836272e+00 3.7985541279770658e+01 1.2909659970612738e+01
13972 1 1 8.4043664196295289e+00 3.8100414441927747e+01 1.3485481583817982e+01
8358 1 1 8.4444393892813636e+00 3.7950862804255557e+01 1.2538505730011943e+01
3043 1 1 8.6088388853228786e+00 3.6896820410713801e+01 1.2372296011288105e+01
3044 2 2 8.6402308666555641e+00 3.6960280421161151e+01 1.2745929025461525e+01
3045 1 1 8.6821650520860914e+00 3.7055856955994699e+01 1.3109328742723308e+01
12678 1 1 8.6986804226153946e+00 3.7107616245254292e+01 1.3265468926324255e+01
12677 2 2 8.6433833567446872e+00 3.7190835718272275e+01 1.3652048672174745e+01
17662 1 1 9.5553792770930741e+00 3.7912765687663885e+01 1.3310002702555305e+01
5455 1 1 9.4665651179518893e+00 3.7741808018454293e+01 1.2407820760485034e+01
17663 2 2 9.5301877918890199e+00 3.7797913074239254e+01 1.2911243158221840e+01
17664 1 1 9.4689779977494961e+00 3.7751983242401494e+01 1.2554278532305261e+01
2828 2 2 9.5380215837890923e+00 3.8071438561949790e+01 1.3854276361829745e+01
6759 1 1 8.4406772601201521e+00 3.7938426745321095e+01 1.2390894726980289e+01
13973 2 2 8.3754638098345868e+00 3.8279028456035540e+01 1.3789527122401591e+01
13971 1 1 9.8198462535583317e+00 3.6841938709250961e+01 1.3315075690271479e+01
2983 1 1 9.8393802228754339e+00 3.6913910235887727e+01 1.3436923805010149e+01
2829 1 1 9.5623445805694622e+00 3.7961114669142042e+01 1.3469257028903161e+01
13859 2 2 1.0728755939120326e+01 3.7222570231685374e+01 1.2527457033643477e+01
15327 1 1 1.0639408934826990e+01 3.7513257068941684e+01 1.3057463774269856e+01
13860 1 1 1.0684001450232463e+01 3.7430869757438494e+01 1.2913599638037802e+01
15326 2 2 1.0621630907031685e+01 3.7684256218622068e+01 1.3422406240541711e+01
9184 1 1 1.1077578672852521e+01 3.6810934242345745e+01 1.3802276820335377e+01
2984 2 2 9.8468708148939719e+00 3.7070246625506563e+01 1.3824601687040490e+01
15325 1 1 1.0607511343484283e+01 3.7869680101934918e+01 1.3799198899423855e+01
10669 1 1 1.1758960701287737e+01 3.7517124087109998e+01 1.3107996634130766e+01
10670 2 2 1.1695714170313282e+01 3.7518310005975088e+01 1.3553128669205613e+01
11037 1 1 9.5706473255675633e+00 3.0079770989176552e+01 1.4623558171309968e+01
11036 3 3 9.6041684624102999e+00 3.0475095204643850e+01 1.4824982971099077e+01
17887 1 1 1.0663326575066892e+01 2.9817798534811985e+01 1.4677929616212570e+01
17889 1 1 1.0671276198584646e+01 3.0374888764522225e+01 1.5191513776721568e+01
17888 3 3 1.0718371548071993e+01 3.0119411735446899e+01 1.4947482835934879e+01