ITEM: TIMESTEP
0
ITEM: NUMBER OF ATOMS
4689
ITEM: BOX BOUNDS pp pp pp
0.0000000000000000e+00 5.0000000000000000e+01
0.0000000000000000e+00 5.0000000000000000e+01
0.0000000000000000e+00 5.0000000000000000e+01
ITEM: ATOMS id type 
10 1 
11 2 
12 1 
67 1 
68 2 
69 1 
124 1 
125 2 
126 1 
127 1 
128 3 
129 1 
130 1 
131 2 
132 1 
181 1 
182 2 
183 1 
190 1 
191 2 
192 1 
301 1 
302 3 
303 1 
304 1 
305 3 
306 1 
421 1 
422 3 
423 1 
424 1 
425 3 
426 1 
484 1 
485 2 
486 1 
1141 1 
1142 2 
1143 1 
1207 1 
1208 2 
1209 1 
1261 1 
1262 3 
1263 1 
1264 1 
1265 3 
1266 1 
1444 1 
1445 2 
1446 1 
1450 1 
1451 3 
1452 1 
1510 1 
1511 3 
1512 1 
2221 1 
2222 3 
2223 1 
2404 1 
2405 3 
2406 1 
2407 1 
2408 3 
2409 1 
2410 1 
2411 2 
2412 1 
2461 1 
2462 3 
2463 1 
2464 1 
2465 2 
2466 1 
2470 1 
2471 3 
2472 1 
2590 1 
2591 2 
2592 1 
3181 1 
3182 2 
3183 1 
3187 1 
3188 3 
3189 1 
3547 1 
3548 2 
3549 1 
3550 1 
3551 2 
3552 1 
4321 1 
4322 3 
4323 1 
4327 1 
4328 2 
4329 1 
4441 1 
4442 3 
4443 1 
4501 1 
4502 3 
4503 1 
4507 1 
4508 3 
4509 1 
4630 1 
4631 3 
4632 1 
4741 1 
4742 3 
4743 1 
4810 1 
4811 3 
4812 1 
4861 1 
4862 3 
4863 1 
4870 1 
4871 2 
4872 1 
5521 1 
5522 2 
5523 1 
5584 1 
5585 3 
5586 1 
5770 1 
5771 2 
5772 1 
5881 1 
5882 2 
5883 1 
5887 1 
5888 3 
5889 1 
5890 1 
5891 2 
5892 1 
6007 1 
6008 3 
6009 1 
6661 1 
6662 2 
6663 1 
6961 1 
6962 3 
6963 1 
6967 1 
6968 3 
6969 1 
7030 1 
7031 2 
7032 1 
7144 1 
7145 2 
7146 1 
7204 1 
7205 2 
7206 1 
7810 1 
7811 3 
7812 1 
7924 1 
7925 2 
7926 1 
7930 1 
7931 2 
7932 1 
7984 1 
7985 2 
7986 1 
8044 1 
8045 2 
8046 1 
8104 1 
8105 3 
8106 1 
8167 1 
8168 2 
8169 1 
8887 1 
8888 2 
8889 1 
8890 1 
8891 2 
8892 1 
8947 1 
8948 3 
8949 1 
9001 1 
9002 3 
9003 1 
9067 1 
9068 3 
9069 1 
9184 1 
9185 2 
9186 1 
9190 1 
9191 3 
9192 1 
9961 1 
9962 3 
9963 1 
10027 1 
10028 3 
10029 1 
10087 1 
10088 3 
10089 1 
10147 1 
10148 3 
10149 1 
10150 1 
10151 3 
10152 1 
10207 1 
10208 3 
10209 1 
10261 1 
10262 3 
10263 1 
10384 1 
10385 3 
10386 1 
10450 1 
10451 2 
10452 1 
10507 1 
10508 3 
10509 1 
136 1 
137 2 
138 1 
142 1 
143 3 
144 1 
313 1 
314 3 
315 1 
322 1 
323 2 
324 1 
439 1 
440 3 
441 1 
502 1 
503 2 
504 1 
1162 1 
1163 2 
1164 1 
1339 1 
1340 2 
1341 1 
1396 1 
1397 2 
1398 1 
1399 1 
1400 3 
1401 1 
1576 1 
1577 3 
1578 1 
1636 1 
1637 3 
1638 1 
2242 1 
2243 3 
2244 1 
2296 1 
2297 2 
2298 1 
2359 1 
2360 3 
2361 1 
2413 1 
2414 2 
2415 1 
2482 1 
2483 2 
2484 1 
2536 1 
2537 3 
2538 1 
3193 1 
3194 2 
3195 1 
3199 1 
3200 3 
3201 1 
3319 1 
3320 2 
3321 1 
3559 1 
3560 3 
3561 1 
3622 1 
3623 2 
3624 1 
3673 1 
3674 2 
3675 1 
3676 1 
3677 2 
3678 1 
3679 1 
3680 2 
3681 1 
3736 1 
3737 2 
3738 1 
4342 1 
4343 3 
4344 1 
4393 1 
4394 3 
4395 1 
4456 1 
4457 2 
4458 1 
4573 1 
4574 2 
4575 1 
4582 1 
4583 2 
4584 1 
4636 1 
4637 2 
4638 1 
4816 1 
4817 2 
4818 1 
4879 1 
4880 3 
4881 1 
5533 1 
5534 3 
5535 1 
5539 1 
5540 3 
5541 1 
5602 1 
5603 3 
5604 1 
5773 1 
5774 2 
5775 1 
5893 1 
5894 2 
5895 1 
5896 1 
5897 2 
5898 1 
5899 1 
5900 3 
5901 1 
5902 1 
5903 3 
5904 1 
5962 1 
5963 2 
5964 1 
6019 1 
6020 2 
6021 1 
6673 1 
6674 3 
6675 1 
6676 1 
6677 2 
6678 1 
6679 1 
6680 2 
6681 1 
6682 1 
6683 2 
6684 1 
6859 1 
6860 3 
6861 1 
6979 1 
6980 2 
6981 1 
7033 1 
7034 3 
7035 1 
7162 1 
7163 3 
7164 1 
7816 1 
7817 2 
7818 1 
7822 1 
7823 3 
7824 1 
7939 1 
7940 2 
7941 1 
8059 1 
8060 2 
8061 1 
8113 1 
8114 2 
8115 1 
8242 1 
8243 2 
8244 1 
8299 1 
8300 3 
8301 1 
8302 1 
8303 2 
8304 1 
8962 1 
8963 3 
8964 1 
9022 1 
9023 2 
9024 1 
9142 1 
9143 2 
9144 1 
9979 1 
9980 2 
9981 1 
10159 1 
10160 3 
10161 1 
10162 1 
10163 3 
10164 1 
10222 1 
10223 3 
10224 1 
10516 1 
10517 2 
10518 1 
88 1 
89 3 
90 1 
91 1 
92 2 
93 1 
145 1 
146 3 
147 1 
151 1 
152 2 
153 1 
154 1 
155 2 
156 1 
388 1 
389 2 
390 1 
448 1 
449 2 
450 1 
514 1 
515 3 
516 1 
1168 1 
1169 2 
1170 1 
1285 1 
1286 2 
1287 1 
1288 1 
1289 2 
1290 1 
1408 1 
1409 3 
1410 1 
1471 1 
1472 3 
1473 1 
1525 1 
1526 3 
1527 1 
1528 1 
1529 2 
1530 1 
1531 1 
1532 2 
1533 1 
1534 1 
1535 3 
1536 1 
2305 1 
2306 3 
2307 1 
2311 1 
2312 3 
2313 1 
2485 1 
2486 2 
2487 1 
2494 1 
2495 3 
2496 1 
2545 1 
2546 2 
2547 1 
2608 1 
2609 2 
2610 1 
2614 1 
2615 2 
2616 1 
3208 1 
3209 3 
3210 1 
3211 1 
3212 2 
3213 1 
3325 1 
3326 3 
3327 1 
3334 1 
3335 3 
3336 1 
3385 1 
3386 2 
3387 1 
3388 1 
3389 3 
3390 1 
3445 1 
3446 2 
3447 1 
3508 1 
3509 3 
3510 1 
3511 1 
3512 2 
3513 1 
3565 1 
3566 2 
3567 1 
3625 1 
3626 3 
3627 1 
3691 1 
3692 3 
3693 1 
3694 1 
3695 2 
3696 1 
3745 1 
3746 3 
3747 1 
3754 1 
3755 3 
3756 1 
4348 1 
4349 3 
4350 1 
4591 1 
4592 3 
4593 1 
4594 1 
4595 2 
4596 1 
5488 1 
5489 2 
5490 1 
5545 1 
5546 3 
5547 1 
5551 1 
5552 2 
5553 1 
5674 1 
5675 2 
5676 1 
5734 1 
5735 3 
5736 1 
5791 1 
5792 3 
5793 1 
5794 1 
5795 3 
5796 1 
5845 1 
5846 2 
5847 1 
5848 1 
5849 2 
5850 1 
5908 1 
5909 2 
5910 1 
6034 1 
6035 2 
6036 1 
6688 1 
6689 3 
6690 1 
6805 1 
6806 3 
6807 1 
6808 1 
6809 3 
6810 1 
6928 1 
6929 2 
6930 1 
6991 1 
6992 3 
6993 1 
7234 1 
7235 2 
7236 1 
7768 1 
7769 2 
7770 1 
7771 1 
7772 3 
7773 1 
7834 1 
7835 3 
7836 1 
7885 1 
7886 3 
7887 1 
7894 1 
7895 3 
7896 1 
7951 1 
7952 3 
7953 1 
8065 1 
8066 2 
8067 1 
8071 1 
8072 2 
8073 1 
8074 1 
8075 3 
8076 1 
8131 1 
8132 3 
8133 1 
8194 1 
8195 3 
8196 1 
8305 1 
8306 2 
8307 1 
8908 1 
8909 3 
8910 1 
9274 1 
9275 2 
9276 1 
10045 1 
10046 3 
10047 1 
10105 1 
10106 3 
10107 1 
10114 1 
10115 3 
10116 1 
10285 1 
10286 3 
10287 1 
10288 1 
10289 3 
10290 1 
10405 1 
10406 3 
10407 1 
10408 1 
10409 3 
10410 1 
10525 1 
10526 3 
10527 1 
106 1 
107 2 
108 1 
160 1 
161 3 
162 1 
220 1 
221 2 
222 1 
277 1 
278 3 
279 1 
283 1 
284 2 
285 1 
340 1 
341 2 
342 1 
520 1 
521 2 
522 1 
1237 1 
1238 2 
1239 1 
1420 1 
1421 3 
1422 1 
1423 1 
1424 2 
1425 1 
1663 1 
1664 2 
1665 1 
2257 1 
2258 2 
2259 1 
2260 1 
2261 2 
2262 1 
2446 1 
2447 2 
2448 1 
2557 1 
2558 2 
2559 1 
2563 1 
2564 2 
2565 1 
2617 1 
2618 3 
2619 1 
3406 1 
3407 3 
3408 1 
3460 1 
3461 3 
3462 1 
3577 1 
3578 3 
3579 1 
3700 1 
3701 3 
3702 1 
3766 1 
3767 2 
3768 1 
4423 1 
4424 3 
4425 1 
4426 1 
4427 3 
4428 1 
4480 1 
4481 2 
4482 1 
4486 1 
4487 2 
4488 1 
4537 1 
4538 2 
4539 1 
4603 1 
4604 2 
4605 1 
4837 1 
4838 2 
4839 1 
4846 1 
4847 2 
4848 1 
4903 1 
4904 2 
4905 1 
5680 1 
5681 3 
5682 1 
5743 1 
5744 3 
5745 1 
5806 1 
5807 2 
5808 1 
5857 1 
5858 2 
5859 1 
5866 1 
5867 3 
5868 1 
5917 1 
5918 2 
5919 1 
5920 1 
5921 3 
5922 1 
5923 1 
5924 3 
5925 1 
5986 1 
5987 3 
5988 1 
6046 1 
6047 3 
6048 1 
6697 1 
6698 2 
6699 1 
6703 1 
6704 3 
6705 1 
6757 1 
6758 3 
6759 1 
6766 1 
6767 3 
6768 1 
6820 1 
6821 2 
6822 1 
6823 1 
6824 3 
6825 1 
6943 1 
6944 3 
6945 1 
6946 1 
6947 3 
6948 1 
6997 1 
6998 3 
6999 1 
7000 1 
7001 2 
7002 1 
7006 1 
7007 3 
7008 1 
7057 1 
7058 2 
7059 1 
7060 1 
7061 3 
7062 1 
7066 1 
7067 3 
7068 1 
7180 1 
7181 2 
7182 1 
7183 1 
7184 3 
7185 1 
7243 1 
7244 2 
7245 1 
7777 1 
7778 3 
7779 1 
7783 1 
7784 2 
7785 1 
7837 1 
7838 3 
7839 1 
7846 1 
7847 2 
7848 1 
7900 1 
7901 3 
7902 1 
7963 1 
7964 3 
7965 1 
8137 1 
8138 2 
8139 1 
8260 1 
8261 3 
8262 1 
8266 1 
8267 3 
8268 1 
8317 1 
8318 2 
8319 1 
8320 1 
8321 3 
8322 1 
8323 1 
8324 3 
8325 1 
8326 1 
8327 2 
8328 1 
8923 1 
8924 2 
8925 1 
8926 1 
8927 2 
8928 1 
8980 1 
8981 2 
8982 1 
8986 1 
8987 3 
8988 1 
9100 1 
9101 3 
9102 1 
9106 1 
9107 2 
9108 1 
9223 1 
9224 3 
9225 1 
9283 1 
9284 3 
9285 1 
9286 1 
9287 2 
9288 1 
10003 1 
10004 3 
10005 1 
10063 1 
10064 3 
10065 1 
10066 1 
10067 3 
10068 1 
10183 1 
10184 2 
10185 1 
10306 1 
10307 2 
10308 1 
10363 1 
10364 3 
10365 1 
10420 1 
10421 2 
10422 1 
10423 1 
10424 3 
10425 1 
10480 1 
10481 2 
10482 1 
10483 1 
10484 3 
10485 1 
10543 1 
10544 2 
10545 1 
10546 1 
10547 2 
10548 1 
115 1 
116 2 
117 1 
232 1 
233 2 
234 1 
289 1 
290 3 
291 1 
352 1 
353 3 
354 1 
358 1 
359 3 
360 1 
469 1 
470 2 
471 1 
538 1 
539 3 
540 1 
1198 1 
1199 2 
1200 1 
1249 1 
1250 2 
1251 1 
1252 1 
1253 2 
1254 1 
1318 1 
1319 3 
1320 1 
1369 1 
1370 3 
1371 1 
1375 1 
1376 2 
1377 1 
1435 1 
1436 3 
1437 1 
1438 1 
1439 2 
1440 1 
1558 1 
1559 3 
1560 1 
1672 1 
1673 3 
1674 1 
1675 1 
1676 2 
1677 1 
2329 1 
2330 3 
2331 1 
2338 1 
2339 2 
2340 1 
2392 1 
2393 3 
2394 1 
2398 1 
2399 2 
2400 1 
2449 1 
2450 2 
2451 1 
2458 1 
2459 2 
2460 1 
2512 1 
2513 3 
2514 1 
2629 1 
2630 2 
2631 1 
3235 1 
3236 3 
3237 1 
3292 1 
3293 3 
3294 1 
3298 1 
3299 3 
3300 1 
3352 1 
3353 3 
3354 1 
3532 1 
3533 3 
3534 1 
3652 1 
3653 3 
3654 1 
3772 1 
3773 3 
3774 1 
3778 1 
3779 3 
3780 1 
4609 1 
4610 2 
4611 1 
4795 1 
4796 3 
4797 1 
4915 1 
4916 2 
4917 1 
4918 1 
4919 3 
4920 1 
5512 1 
5513 3 
5514 1 
5518 1 
5519 3 
5520 1 
5869 1 
5870 2 
5871 1 
5875 1 
5876 2 
5877 1 
5929 1 
5930 2 
5931 1 
5935 1 
5936 3 
5937 1 
5998 1 
5999 3 
6000 1 
6049 1 
6050 2 
6051 1 
6055 1 
6056 3 
6057 1 
6715 1 
6716 2 
6717 1 
6778 1 
6779 2 
6780 1 
6838 1 
6839 3 
6840 1 
6895 1 
6896 3 
6897 1 
6898 1 
6899 3 
6900 1 
7069 1 
7070 3 
7071 1 
7192 1 
7193 2 
7194 1 
7258 1 
7259 3 
7260 1 
7852 1 
7853 3 
7854 1 
7915 1 
7916 2 
7917 1 
8095 1 
8096 2 
8097 1 
8158 1 
8159 2 
8160 1 
8215 1 
8216 2 
8217 1 
8218 1 
8219 3 
8220 1 
8275 1 
8276 3 
8277 1 
8338 1 
8339 3 
8340 1 
8932 1 
8933 3 
8934 1 
9049 1 
9050 2 
9051 1 
9118 1 
9119 2 
9120 1 
9169 1 
9170 3 
9171 1 
9235 1 
9236 2 
9237 1 
10009 1 
10010 2 
10011 1 
10018 1 
10019 3 
10020 1 
10075 1 
10076 3 
10077 1 
10132 1 
10133 3 
10134 1 
10138 1 
10139 2 
10140 1 
10189 1 
10190 2 
10191 1 
10192 1 
10193 3 
10194 1 
10255 1 
10256 3 
10257 1 
10435 1 
10436 3 
10437 1 
10438 1 
10439 3 
10440 1 
10492 1 
10493 3 
10494 1 
10495 1 
10496 2 
10497 1 
607 1 
608 2 
609 1 
670 1 
671 3 
672 1 
727 1 
728 3 
729 1 
790 1 
791 3 
792 1 
847 1 
848 3 
849 1 
901 1 
902 3 
903 1 
910 1 
911 2 
912 1 
961 1 
962 3 
963 1 
1741 1 
1742 2 
1743 1 
1747 1 
1748 3 
1749 1 
1984 1 
1985 3 
1986 1 
1990 1 
1991 3 
1992 1 
2044 1 
2045 3 
2046 1 
2101 1 
2102 3 
2103 1 
2161 1 
2162 3 
2163 1 
2641 1 
2642 3 
2643 1 
2644 1 
2645 2 
2646 1 
2647 1 
2648 3 
2649 1 
2827 1 
2828 2 
2829 1 
2881 1 
2882 3 
2883 1 
3001 1 
3002 2 
3003 1 
3010 1 
3011 3 
3012 1 
3841 1 
3842 2 
3843 1 
3850 1 
3851 3 
3852 1 
3901 1 
3902 3 
3903 1 
4021 1 
4022 2 
4023 1 
4150 1 
4151 3 
4152 1 
4930 1 
4931 2 
4932 1 
4984 1 
4985 3 
4986 1 
5044 1 
5045 2 
5046 1 
5107 1 
5108 3 
5109 1 
5110 1 
5111 3 
5112 1 
5170 1 
5171 2 
5172 1 
5227 1 
5228 3 
5229 1 
5284 1 
5285 3 
5286 1 
5350 1 
5351 3 
5352 1 
6250 1 
6251 2 
6252 1 
6304 1 
6305 3 
6306 1 
6364 1 
6365 2 
6366 1 
6427 1 
6428 3 
6429 1 
6487 1 
6488 3 
6489 1 
6541 1 
6542 2 
6543 1 
6550 1 
6551 3 
6552 1 
7264 1 
7265 3 
7266 1 
7267 1 
7268 2 
7269 1 
7384 1 
7385 2 
7386 1 
7387 1 
7388 2 
7389 1 
7444 1 
7445 3 
7446 1 
7447 1 
7448 3 
7449 1 
7570 1 
7571 3 
7572 1 
7630 1 
7631 2 
7632 1 
7684 1 
7685 3 
7686 1 
8347 1 
8348 3 
8349 1 
8464 1 
8465 2 
8466 1 
8521 1 
8522 3 
8523 1 
8527 1 
8528 3 
8529 1 
8587 1 
8588 2 
8589 1 
8647 1 
8648 2 
8649 1 
8764 1 
8765 2 
8766 1 
8770 1 
8771 3 
8772 1 
9424 1 
9425 2 
9426 1 
9427 1 
9428 3 
9429 1 
9430 1 
9431 3 
9432 1 
9601 1 
9602 3 
9603 1 
9664 1 
9665 2 
9666 1 
9784 1 
9785 2 
9786 1 
9787 1 
9788 2 
9789 1 
9904 1 
9905 2 
9906 1 
10627 1 
10628 3 
10629 1 
10684 1 
10685 3 
10686 1 
10687 1 
10688 3 
10689 1 
10750 1 
10751 3 
10752 1 
10804 1 
10805 2 
10806 1 
10930 1 
10931 2 
10932 1 
11041 1 
11042 2 
11043 1 
11050 1 
11051 2 
11052 1 
559 1 
560 3 
561 1 
562 1 
563 3 
564 1 
616 1 
617 3 
618 1 
619 1 
620 3 
621 1 
673 1 
674 3 
675 1 
676 1 
677 2 
678 1 
856 1 
857 2 
858 1 
973 1 
974 3 
975 1 
1693 1 
1694 2 
1695 1 
1873 1 
1874 3 
1875 1 
1936 1 
1937 2 
1938 1 
1999 1 
2000 2 
2001 1 
2002 1 
2003 2 
2004 1 
2122 1 
2123 2 
2124 1 
2659 1 
2660 3 
2661 1 
2713 1 
2714 3 
2715 1 
2773 1 
2774 3 
2775 1 
2779 1 
2780 3 
2781 1 
2893 1 
2894 3 
2895 1 
2962 1 
2963 3 
2964 1 
3019 1 
3020 3 
3021 1 
3073 1 
3074 3 
3075 1 
3079 1 
3080 2 
3081 1 
3142 1 
3143 3 
3144 1 
3802 1 
3803 2 
3804 1 
3856 1 
3857 2 
3858 1 
3982 1 
3983 3 
3984 1 
4036 1 
4037 3 
4038 1 
4039 1 
4040 3 
4041 1 
4096 1 
4097 2 
4098 1 
4153 1 
4154 3 
4155 1 
4213 1 
4214 3 
4215 1 
4273 1 
4274 3 
4275 1 
4279 1 
4280 2 
4281 1 
4942 1 
4943 2 
4944 1 
4999 1 
5000 2 
5001 1 
5002 1 
5003 3 
5004 1 
5053 1 
5054 2 
5055 1 
5059 1 
5060 3 
5061 1 
5062 1 
5063 3 
5064 1 
5173 1 
5174 2 
5175 1 
5179 1 
5180 2 
5181 1 
5296 1 
5297 3 
5298 1 
5419 1 
5420 3 
5421 1 
5422 1 
5423 2 
5424 1 
6562 1 
6563 3 
6564 1 
6619 1 
6620 2 
6621 1 
6622 1 
6623 3 
6624 1 
7276 1 
7277 3 
7278 1 
7279 1 
7280 2 
7281 1 
7333 1 
7334 2 
7335 1 
7396 1 
7397 2 
7398 1 
7456 1 
7457 3 
7458 1 
7519 1 
7520 3 
7521 1 
7573 1 
7574 2 
7575 1 
7576 1 
7577 3 
7578 1 
7696 1 
7697 3 
7698 1 
8353 1 
8354 3 
8355 1 
8356 1 
8357 2 
8358 1 
8422 1 
8423 3 
8424 1 
8536 1 
8537 3 
8538 1 
8542 1 
8543 3 
8544 1 
8596 1 
8597 2 
8598 1 
8602 1 
8603 3 
8604 1 
8662 1 
8663 3 
8664 1 
8776 1 
8777 3 
8778 1 
8779 1 
8780 2 
8781 1 
8833 1 
8834 3 
8835 1 
8836 1 
8837 2 
8838 1 
9613 1 
9614 3 
9615 1 
9619 1 
9620 2 
9621 1 
9622 1 
9623 3 
9624 1 
9682 1 
9683 3 
9684 1 
9916 1 
9917 2 
9918 1 
9919 1 
9920 2 
9921 1 
10579 1 
10580 2 
10581 1 
10639 1 
10640 3 
10641 1 
10642 1 
10643 2 
10644 1 
10702 1 
10703 3 
10704 1 
10753 1 
10754 2 
10755 1 
10762 1 
10763 2 
10764 1 
10819 1 
10820 3 
10821 1 
10822 1 
10823 3 
10824 1 
10876 1 
10877 3 
10878 1 
10933 1 
10934 2 
10935 1 
10936 1 
10937 3 
10938 1 
10993 1 
10994 3 
10995 1 
748 1 
749 2 
750 1 
751 1 
752 2 
753 1 
754 1 
755 2 
756 1 
874 1 
875 3 
876 1 
991 1 
992 2 
993 1 
1054 1 
1055 2 
1056 1 
1825 1 
1826 3 
1827 1 
1828 1 
1829 2 
1830 1 
1834 1 
1835 3 
1836 1 
1885 1 
1886 2 
1887 1 
1954 1 
1955 3 
1956 1 
2014 1 
2015 3 
2016 1 
2068 1 
2069 3 
2070 1 
2125 1 
2126 2 
2127 1 
2185 1 
2186 2 
2187 1 
2191 1 
2192 3 
2193 1 
2665 1 
2666 3 
2667 1 
2674 1 
2675 2 
2676 1 
2725 1 
2726 3 
2727 1 
2728 1 
2729 2 
2730 1 
2731 1 
2732 3 
2733 1 
2794 1 
2795 3 
2796 1 
3028 1 
3029 2 
3030 1 
3088 1 
3089 3 
3090 1 
3811 1 
3812 3 
3813 1 
3865 1 
3866 3 
3867 1 
3874 1 
3875 3 
3876 1 
3934 1 
3935 2 
3936 1 
4231 1 
4232 3 
4233 1 
4285 1 
4286 3 
4287 1 
4945 1 
4946 3 
4947 1 
5005 1 
5006 2 
5007 1 
5011 1 
5012 3 
5013 1 
5065 1 
5066 3 
5067 1 
5068 1 
5069 3 
5070 1 
5074 1 
5075 3 
5076 1 
5125 1 
5126 3 
5127 1 
5131 1 
5132 2 
5133 1 
5248 1 
5249 3 
5250 1 
5305 1 
5306 2 
5307 1 
5308 1 
5309 3 
5310 1 
6091 1 
6092 3 
6093 1 
6145 1 
6146 3 
6147 1 
6271 1 
6272 2 
6273 1 
6328 1 
6329 3 
6330 1 
6331 1 
6332 3 
6333 1 
6388 1 
6389 2 
6390 1 
6511 1 
6512 3 
6513 1 
7345 1 
7346 3 
7347 1 
7354 1 
7355 2 
7356 1 
7405 1 
7406 2 
7407 1 
7651 1 
7652 2 
7653 1 
7711 1 
7712 2 
7713 1 
8374 1 
8375 2 
8376 1 
8488 1 
8489 2 
8490 1 
8605 1 
8606 2 
8607 1 
8728 1 
8729 2 
8730 1 
8731 1 
8732 3 
8733 1 
8785 1 
8786 3 
8787 1 
8791 1 
8792 3 
8793 1 
9391 1 
9392 3 
9393 1 
9568 1 
9569 2 
9570 1 
9805 1 
9806 3 
9807 1 
9808 1 
9809 3 
9810 1 
9814 1 
9815 3 
9816 1 
10645 1 
10646 3 
10647 1 
10651 1 
10652 3 
10653 1 
10714 1 
10715 3 
10716 1 
10831 1 
10832 2 
10833 1 
10891 1 
10892 2 
10893 1 
11071 1 
11072 2 
11073 1 
11074 1 
11075 3 
11076 1 
577 1 
578 2 
579 1 
580 1 
581 2 
582 1 
706 1 
707 2 
708 1 
760 1 
761 2 
762 1 
826 1 
827 2 
828 1 
880 1 
881 3 
882 1 
1006 1 
1007 3 
1008 1 
1117 1 
1118 2 
1119 1 
1123 1 
1124 3 
1125 1 
1783 1 
1784 2 
1785 1 
1900 1 
1901 2 
1902 1 
1957 1 
1958 2 
1959 1 
2077 1 
2078 2 
2079 1 
2080 1 
2081 3 
2082 1 
2137 1 
2138 3 
2139 1 
2140 1 
2141 2 
2142 1 
2686 1 
2687 3 
2688 1 
2743 1 
2744 2 
2745 1 
2863 1 
2864 2 
2865 1 
2920 1 
2921 2 
2922 1 
2983 1 
2984 2 
2985 1 
3043 1 
3044 2 
3045 1 
3820 1 
3821 3 
3822 1 
3823 1 
3824 3 
3825 1 
3997 1 
3998 2 
3999 1 
4003 1 
4004 2 
4005 1 
4303 1 
4304 3 
4305 1 
4966 1 
4967 2 
4968 1 
5017 1 
5018 2 
5019 1 
5020 1 
5021 2 
5022 1 
5023 1 
5024 3 
5025 1 
5077 1 
5078 3 
5079 1 
5080 1 
5081 2 
5082 1 
5143 1 
5144 2 
5145 1 
5146 1 
5147 2 
5148 1 
5197 1 
5198 2 
5199 1 
5206 1 
5207 3 
5208 1 
5266 1 
5267 2 
5268 1 
5317 1 
5318 3 
5319 1 
5386 1 
5387 2 
5388 1 
5443 1 
5444 2 
5445 1 
6163 1 
6164 2 
6165 1 
6223 1 
6224 2 
6225 1 
6457 1 
6458 3 
6459 1 
6466 1 
6467 2 
6468 1 
6640 1 
6641 2 
6642 1 
7363 1 
7364 3 
7365 1 
7426 1 
7427 2 
7428 1 
7477 1 
7478 3 
7479 1 
7483 1 
7484 3 
7485 1 
7546 1 
7547 2 
7548 1 
7600 1 
7601 3 
7602 1 
7717 1 
7718 3 
7719 1 
8383 1 
8384 2 
8385 1 
8500 1 
8501 2 
8502 1 
8560 1 
8561 3 
8562 1 
8617 1 
8618 3 
8619 1 
8680 1 
8681 2 
8682 1 
8686 1 
8687 3 
8688 1 
9520 1 
9521 2 
9522 1 
9577 1 
9578 2 
9579 1 
9637 1 
9638 3 
9639 1 
9766 1 
9767 3 
9768 1 
9820 1 
9821 3 
9822 1 
9943 1 
9944 2 
9945 1 
10597 1 
10598 2 
10599 1 
10600 1 
10601 3 
10602 1 
10657 1 
10658 2 
10659 1 
10660 1 
10661 3 
10662 1 
10663 1 
10664 2 
10665 1 
10723 1 
10724 3 
10725 1 
10777 1 
10778 3 
10779 1 
10786 1 
10787 2 
10788 1 
10897 1 
10898 3 
10899 1 
10957 1 
10958 2 
10959 1 
11017 1 
11018 2 
11019 1 
11020 1 
11021 3 
11022 1 
11077 1 
11078 2 
11079 1 
11083 1 
11084 3 
11085 1 
709 1 
710 3 
711 1 
712 1 
713 3 
714 1 
772 1 
773 2 
774 1 
775 1 
776 3 
777 1 
892 1 
893 3 
894 1 
895 1 
896 3 
897 1 
955 1 
956 3 
957 1 
958 1 
959 3 
960 1 
1018 1 
1019 2 
1020 1 
1132 1 
1133 3 
1134 1 
1138 1 
1139 2 
1140 1 
2038 1 
2039 3 
2040 1 
2152 1 
2153 3 
2154 1 
2158 1 
2159 2 
2160 1 
2689 1 
2690 2 
2691 1 
2752 1 
2753 2 
2754 1 
2809 1 
2810 3 
2811 1 
2815 1 
2816 3 
2817 1 
2875 1 
2876 2 
2877 1 
2935 1 
2936 2 
2937 1 
3049 1 
3050 2 
3051 1 
3115 1 
3116 2 
3117 1 
3838 1 
3839 2 
3840 1 
3955 1 
3956 3 
3957 1 
4015 1 
4016 2 
4017 1 
4069 1 
4070 2 
4071 1 
4072 1 
4073 2 
4074 1 
4078 1 
4079 3 
4080 1 
4132 1 
4133 2 
4134 1 
4138 1 
4139 3 
4140 1 
4309 1 
4310 2 
4311 1 
4972 1 
4973 2 
4974 1 
4975 1 
4976 2 
4977 1 
5038 1 
5039 2 
5040 1 
5092 1 
5093 2 
5094 1 
5098 1 
5099 3 
5100 1 
5155 1 
5156 3 
5157 1 
5275 1 
5276 2 
5277 1 
5329 1 
5330 2 
5331 1 
5332 1 
5333 3 
5334 1 
5455 1 
5456 3 
5457 1 
6109 1 
6110 3 
6111 1 
6175 1 
6176 2 
6177 1 
6229 1 
6230 2 
6231 1 
6235 1 
6236 2 
6237 1 
6238 1 
6239 3 
6240 1 
6352 1 
6353 2 
6354 1 
6358 1 
6359 2 
6360 1 
6418 1 
6419 3 
6420 1 
6529 1 
6530 2 
6531 1 
6649 1 
6650 2 
6651 1 
6658 1 
6659 3 
6660 1 
7309 1 
7310 2 
7311 1 
7378 1 
7379 2 
7380 1 
7492 1 
7493 3 
7494 1 
7555 1 
7556 2 
7557 1 
7558 1 
7559 3 
7560 1 
7615 1 
7616 3 
7617 1 
7672 1 
7673 3 
7674 1 
8392 1 
8393 3 
8394 1 
8449 1 
8450 3 
8451 1 
8455 1 
8456 3 
8457 1 
8572 1 
8573 2 
8574 1 
8575 1 
8576 2 
8577 1 
8629 1 
8630 3 
8631 1 
8632 1 
8633 3 
8634 1 
8689 1 
8690 2 
8691 1 
8752 1 
8753 2 
8754 1 
8812 1 
8813 3 
8814 1 
8869 1 
8870 2 
8871 1 
8872 1 
8873 2 
8874 1 
9415 1 
9416 3 
9417 1 
9475 1 
9476 3 
9477 1 
9478 1 
9479 3 
9480 1 
9532 1 
9533 3 
9534 1 
9649 1 
9650 2 
9651 1 
9718 1 
9719 2 
9720 1 
9835 1 
9836 2 
9837 1 
9952 1 
9953 2 
9954 1 
10669 1 
10670 2 
10671 1 
10729 1 
10730 3 
10731 1 
10738 1 
10739 3 
10740 1 
10852 1 
10853 3 
10854 1 
10909 1 
10910 3 
10911 1 
10915 1 
10916 2 
10917 1 
10972 1 
10973 2 
10974 1 
11032 1 
11033 3 
11034 1 
11035 1 
11036 3 
11037 1 
11089 1 
11090 2 
11091 1 
11092 1 
11093 2 
11094 1 
11101 1 
11102 2 
11103 1 
11104 1 
11105 2 
11106 1 
11170 1 
11171 3 
11172 1 
11341 1 
11342 3 
11343 1 
11347 1 
11348 3 
11349 1 
11350 1 
11351 2 
11352 1 
11470 1 
11471 3 
11472 1 
12121 1 
12122 3 
12123 1 
12124 1 
12125 2 
12126 1 
12130 1 
12131 3 
12132 1 
12187 1 
12188 2 
12189 1 
12244 1 
12245 2 
12246 1 
12250 1 
12251 3 
12252 1 
12424 1 
12425 3 
12426 1 
12610 1 
12611 3 
12612 1 
13141 1 
13142 2 
13143 1 
13147 1 
13148 2 
13149 1 
13150 1 
13151 3 
13152 1 
13207 1 
13208 3 
13209 1 
13381 1 
13382 2 
13383 1 
13450 1 
13451 2 
13452 1 
13504 1 
13505 2 
13506 1 
13561 1 
13562 3 
13563 1 
13570 1 
13571 3 
13572 1 
14230 1 
14231 3 
14232 1 
14347 1 
14348 3 
14349 1 
14470 1 
14471 3 
14472 1 
14590 1 
14591 2 
14592 1 
14641 1 
14642 3 
14643 1 
14644 1 
14645 2 
14646 1 
14647 1 
14648 2 
14649 1 
15307 1 
15308 3 
15309 1 
15361 1 
15362 2 
15363 1 
15547 1 
15548 3 
15549 1 
15601 1 
15602 3 
15603 1 
15721 1 
15722 2 
15723 1 
15727 1 
15728 2 
15729 1 
16510 1 
16511 3 
16512 1 
16567 1 
16568 2 
16569 1 
16627 1 
16628 2 
16629 1 
17407 1 
17408 2 
17409 1 
17521 1 
17522 2 
17523 1 
17587 1 
17588 3 
17589 1 
17641 1 
17642 2 
17643 1 
17764 1 
17765 3 
17766 1 
18490 1 
18491 3 
18492 1 
18607 1 
18608 3 
18609 1 
18661 1 
18662 2 
18663 1 
18667 1 
18668 3 
18669 1 
18670 1 
18671 3 
18672 1 
18790 1 
18791 2 
18792 1 
18850 1 
18851 2 
18852 1 
19447 1 
19448 3 
19449 1 
19507 1 
19508 3 
19509 1 
19621 1 
19622 3 
19623 1 
19624 1 
19625 2 
19626 1 
19630 1 
19631 3 
19632 1 
19687 1 
19688 3 
19689 1 
19741 1 
19742 2 
19743 1 
19744 1 
19745 2 
19746 1 
20524 1 
20525 3 
20526 1 
20530 1 
20531 3 
20532 1 
20581 1 
20582 3 
20583 1 
20584 1 
20585 3 
20586 1 
20644 1 
20645 3 
20646 1 
20761 1 
20762 3 
20763 1 
20821 1 
20822 2 
20823 1 
20890 1 
20891 3 
20892 1 
11113 1 
11114 2 
11115 1 
11116 1 
11117 3 
11118 1 
11236 1 
11237 3 
11238 1 
11302 1 
11303 2 
11304 1 
11359 1 
11360 3 
11361 1 
11413 1 
11414 3 
11415 1 
11416 1 
11417 3 
11418 1 
11476 1 
11477 3 
11478 1 
12076 1 
12077 3 
12078 1 
12199 1 
12200 3 
12201 1 
12496 1 
12497 3 
12498 1 
12556 1 
12557 3 
12558 1 
12559 1 
12560 3 
12561 1 
12562 1 
12563 2 
12564 1 
13162 1 
13163 2 
13164 1 
13216 1 
13217 3 
13218 1 
13219 1 
13220 2 
13221 1 
13342 1 
13343 3 
13344 1 
13402 1 
13403 3 
13404 1 
13513 1 
13514 3 
13515 1 
13573 1 
13574 2 
13575 1 
14233 1 
14234 2 
14235 1 
14242 1 
14243 2 
14244 1 
14413 1 
14414 3 
14415 1 
14422 1 
14423 2 
14424 1 
14473 1 
14474 3 
14475 1 
14539 1 
14540 3 
14541 1 
14593 1 
14594 3 
14595 1 
14653 1 
14654 3 
14655 1 
14656 1 
14657 2 
14658 1 
14662 1 
14663 3 
14664 1 
15322 1 
15323 2 
15324 1 
15379 1 
15380 2 
15381 1 
15502 1 
15503 2 
15504 1 
15556 1 
15557 3 
15558 1 
15676 1 
15677 2 
15678 1 
15679 1 
15680 3 
15681 1 
16333 1 
16334 3 
16335 1 
16339 1 
16340 2 
16341 1 
16393 1 
16394 3 
16395 1 
16462 1 
16463 2 
16464 1 
16513 1 
16514 3 
16515 1 
16516 1 
16517 3 
16518 1 
16573 1 
16574 3 
16575 1 
16579 1 
16580 2 
16581 1 
16639 1 
16640 2 
16641 1 
16642 1 
16643 3 
16644 1 
17293 1 
17294 3 
17295 1 
17416 1 
17417 2 
17418 1 
17533 1 
17534 2 
17535 1 
17593 1 
17594 3 
17595 1 
17596 1 
17597 2 
17598 1 
17599 1 
17600 2 
17601 1 
17653 1 
17654 3 
17655 1 
17662 1 
17663 2 
17664 1 
17782 1 
17783 3 
17784 1 
18439 1 
18440 2 
18441 1 
18442 1 
18443 3 
18444 1 
18559 1 
18560 2 
18561 1 
18676 1 
18677 2 
18678 1 
18736 1 
18737 3 
18738 1 
18742 1 
18743 2 
18744 1 
18793 1 
18794 2 
18795 1 
18859 1 
18860 2 
18861 1 
19579 1 
19580 2 
19581 1 
19633 1 
19634 3 
19635 1 
19639 1 
19640 3 
19641 1 
19642 1 
19643 3 
19644 1 
19699 1 
19700 2 
19701 1 
19816 1 
19817 3 
19818 1 
19819 1 
19820 3 
19821 1 
19876 1 
19877 2 
19878 1 
19879 1 
19880 2 
19881 1 
20533 1 
20534 2 
20535 1 
20542 1 
20543 2 
20544 1 
20596 1 
20597 3 
20598 1 
20599 1 
20600 3 
20601 1 
20716 1 
20717 2 
20718 1 
20833 1 
20834 2 
20835 1 
20953 1 
20954 3 
20955 1 
20956 1 
20957 2 
20958 1 
21013 1 
21014 3 
21015 1 
11125 1 
11126 3 
11127 1 
11191 1 
11192 3 
11193 1 
11194 1 
11195 3 
11196 1 
11251 1 
11252 2 
11253 1 
11314 1 
11315 3 
11316 1 
11374 1 
11375 3 
11376 1 
11425 1 
11426 3 
11427 1 
12148 1 
12149 2 
12150 1 
12205 1 
12206 3 
12207 1 
12385 1 
12386 3 
12387 1 
12451 1 
12452 2 
12453 1 
12505 1 
12506 2 
12507 1 
12631 1 
12632 2 
12633 1 
12634 1 
12635 3 
12636 1 
13171 1 
13172 3 
13173 1 
13285 1 
13286 2 
13287 1 
13291 1 
13292 2 
13293 1 
13408 1 
13409 2 
13410 1 
13468 1 
13469 2 
13470 1 
13471 1 
13472 2 
13473 1 
13588 1 
13589 3 
13590 1 
14254 1 
14255 3 
14256 1 
14374 1 
14375 2 
14376 1 
14431 1 
14432 3 
14433 1 
14434 1 
14435 3 
14436 1 
14485 1 
14486 2 
14487 1 
14554 1 
14555 3 
14556 1 
14668 1 
14669 2 
14670 1 
15325 1 
15326 2 
15327 1 
15331 1 
15332 2 
15333 1 
15394 1 
15395 3 
15396 1 
15565 1 
15566 3 
15567 1 
15631 1 
15632 3 
15633 1 
16351 1 
16352 2 
16353 1 
16414 1 
16415 3 
16416 1 
16471 1 
16472 2 
16473 1 
16474 1 
16475 2 
16476 1 
16534 1 
16535 2 
16536 1 
16588 1 
16589 3 
16590 1 
16648 1 
16649 3 
16650 1 
16705 1 
16706 3 
16707 1 
17305 1 
17306 2 
17307 1 
17311 1 
17312 2 
17313 1 
17314 1 
17315 2 
17316 1 
17488 1 
17489 2 
17490 1 
17494 1 
17495 2 
17496 1 
17605 1 
17606 3 
17607 1 
17614 1 
17615 2 
17616 1 
17671 1 
17672 2 
17673 1 
17785 1 
17786 3 
17787 1 
18385 1 
18386 3 
18387 1 
18391 1 
18392 3 
18393 1 
18445 1 
18446 2 
18447 1 
18508 1 
18509 3 
18510 1 
18565 1 
18566 2 
18567 1 
18568 1 
18569 3 
18570 1 
18688 1 
18689 3 
18690 1 
18694 1 
18695 2 
18696 1 
18751 1 
18752 3 
18753 1 
18868 1 
18869 2 
18870 1 
19525 1 
19526 2 
19527 1 
19594 1 
19595 3 
19596 1 
19654 1 
19655 2 
19656 1 
19711 1 
19712 2 
19713 1 
19828 1 
19829 3 
19830 1 
19885 1 
19886 3 
19887 1 
20731 1 
20732 3 
20733 1 
20734 1 
20735 3 
20736 1 
20785 1 
20786 3 
20787 1 
20851 1 
20852 2 
20853 1 
20905 1 
20906 2 
20907 1 
20911 1 
20912 3 
20913 1 
11257 1 
11258 3 
11259 1 
11323 1 
11324 2 
11325 1 
11440 1 
11441 3 
11442 1 
11443 1 
11444 2 
11445 1 
11506 1 
11507 2 
11508 1 
12100 1 
12101 3 
12102 1 
12220 1 
12221 3 
12222 1 
12397 1 
12398 2 
12399 1 
12400 1 
12401 2 
12402 1 
12406 1 
12407 2 
12408 1 
12460 1 
12461 3 
12462 1 
12523 1 
12524 3 
12525 1 
12526 1 
12527 2 
12528 1 
12643 1 
12644 3 
12645 1 
13183 1 
13184 2 
13185 1 
13240 1 
13241 2 
13242 1 
13300 1 
13301 2 
13302 1 
13303 1 
13304 2 
13305 1 
13306 1 
13307 3 
13308 1 
13360 1 
13361 2 
13362 1 
13477 1 
13478 2 
13479 1 
13486 1 
13487 3 
13488 1 
13606 1 
13607 3 
13608 1 
14320 1 
14321 2 
14322 1 
14323 1 
14324 2 
14325 1 
14326 1 
14327 3 
14328 1 
14497 1 
14498 2 
14499 1 
14500 1 
14501 2 
14502 1 
14677 1 
14678 3 
14679 1 
15340 1 
15341 2 
15342 1 
15517 1 
15518 2 
15519 1 
15526 1 
15527 3 
15528 1 
15583 1 
15584 3 
15585 1 
15703 1 
15704 2 
15705 1 
16360 1 
16361 3 
16362 1 
16480 1 
16481 3 
16482 1 
17317 1 
17318 2 
17319 1 
17437 1 
17438 2 
17439 1 
17440 1 
17441 2 
17442 1 
17443 1 
17444 2 
17445 1 
17686 1 
17687 3 
17688 1 
17800 1 
17801 2 
17802 1 
18457 1 
18458 2 
18459 1 
18523 1 
18524 3 
18525 1 
18640 1 
18641 2 
18642 1 
18700 1 
18701 2 
18702 1 
18703 1 
18704 2 
18705 1 
18757 1 
18758 3 
18759 1 
18766 1 
18767 2 
18768 1 
18823 1 
18824 3 
18825 1 
18877 1 
18878 3 
18879 1 
19483 1 
19484 2 
19485 1 
19486 1 
19487 3 
19488 1 
19777 1 
19778 3 
19779 1 
19780 1 
19781 3 
19782 1 
19897 1 
19898 2 
19899 1 
19900 1 
19901 2 
19902 1 
19903 1 
19904 2 
19905 1 
21037 1 
21038 2 
21039 1 
11158 1 
11159 3 
11160 1 
11212 1 
11213 2 
11214 1 
11278 1 
11279 2 
11280 1 
11452 1 
11453 3 
11454 1 
11518 1 
11519 2 
11520 1 
12115 1 
12116 2 
12117 1 
12118 1 
12119 3 
12120 1 
12229 1 
12230 3 
12231 1 
12298 1 
12299 2 
12300 1 
12352 1 
12353 3 
12354 1 
12409 1 
12410 2 
12411 1 
12532 1 
12533 2 
12534 1 
12592 1 
12593 3 
12594 1 
13198 1 
13199 2 
13200 1 
13495 1 
13496 3 
13497 1 
13615 1 
13616 2 
13617 1 
14275 1 
14276 2 
14277 1 
14458 1 
14459 2 
14460 1 
14512 1 
14513 2 
14514 1 
14518 1 
14519 2 
14520 1 
14569 1 
14570 2 
14571 1 
14689 1 
14690 3 
14691 1 
15475 1 
15476 2 
15477 1 
15529 1 
15530 3 
15531 1 
15538 1 
15539 3 
15540 1 
15592 1 
15593 3 
15594 1 
15658 1 
15659 2 
15660 1 
16369 1 
16370 2 
16371 1 
16375 1 
16376 2 
16377 1 
16435 1 
16436 3 
16437 1 
16555 1 
16556 2 
16557 1 
16558 1 
16559 2 
16560 1 
16669 1 
16670 3 
16671 1 
17389 1 
17390 3 
17391 1 
17632 1 
17633 3 
17634 1 
17638 1 
17639 2 
17640 1 
17689 1 
17690 3 
17691 1 
18418 1 
18419 2 
18420 1 
18478 1 
18479 2 
18480 1 
18532 1 
18533 2 
18534 1 
18715 1 
18716 2 
18717 1 
18775 1 
18776 3 
18777 1 
18889 1 
18890 3 
18891 1 
19549 1 
19550 2 
19551 1 
19555 1 
19556 3 
19557 1 
19672 1 
19673 3 
19674 1 
20809 1 
20810 2 
20811 1 
20878 1 
20879 2 
20880 1 
20932 1 
20933 3 
20934 1 
20989 1 
20990 2 
20991 1 
20995 1 
20996 3 
20997 1 
11527 1 
11528 3 
11529 1 
11644 1 
11645 2 
11646 1 
11650 1 
11651 2 
11652 1 
11764 1 
11765 2 
11766 1 
11770 1 
11771 3 
11772 1 
11830 1 
11831 3 
11832 1 
11950 1 
11951 2 
11952 1 
12001 1 
12002 2 
12003 1 
12670 1 
12671 2 
12672 1 
12721 1 
12722 2 
12723 1 
12850 1 
12851 2 
12852 1 
12970 1 
12971 3 
12972 1 
13030 1 
13031 2 
13032 1 
13684 1 
13685 2 
13686 1 
13744 1 
13745 2 
13746 1 
13747 1 
13748 3 
13749 1 
13801 1 
13802 3 
13803 1 
13810 1 
13811 3 
13812 1 
13870 1 
13871 2 
13872 1 
13990 1 
13991 2 
13992 1 
14041 1 
14042 2 
14043 1 
14044 1 
14045 3 
14046 1 
14167 1 
14168 2 
14169 1 
14707 1 
14708 2 
14709 1 
14761 1 
14762 3 
14763 1 
14764 1 
14765 2 
14766 1 
14827 1 
14828 2 
14829 1 
14941 1 
14942 3 
14943 1 
14950 1 
14951 2 
14952 1 
15061 1 
15062 2 
15063 1 
15064 1 
15065 3 
15066 1 
15127 1 
15128 3 
15129 1 
15241 1 
15242 2 
15243 1 
15250 1 
15251 2 
15252 1 
15787 1 
15788 2 
15789 1 
15790 1 
15791 2 
15792 1 
15847 1 
15848 3 
15849 1 
15961 1 
15962 2 
15963 1 
15964 1 
15965 3 
15966 1 
16087 1 
16088 3 
16089 1 
16144 1 
16145 3 
16146 1 
16804 1 
16805 2 
16806 1 
16867 1 
16868 2 
16869 1 
16924 1 
16925 2 
16926 1 
16984 1 
16985 3 
16986 1 
16990 1 
16991 2 
16992 1 
17041 1 
17042 2 
17043 1 
17101 1 
17102 2 
17103 1 
17170 1 
17171 3 
17172 1 
17830 1 
17831 3 
17832 1 
17887 1 
17888 3 
17889 1 
18007 1 
18008 3 
18009 1 
18070 1 
18071 3 
18072 1 
18184 1 
18185 3 