ITEM: TIMESTEP
60000000
ITEM: NUMBER OF ATOMS
3054
ITEM: BOX BOUNDS pp pp pp
0.0000000000000000e+00 5.0000000000000000e+01
0.0000000000000000e+00 5.0000000000000000e+01
0.0000000000000000e+00 5.0000000000000000e+01
ITEM: ATOMS id type vx vy vz 
11916 1 -4.95278 -1.74039 11.6026 
11915 3 4.82899 -2.52758 -1.25886 
11914 1 0.9165 -0.669928 -5.15764 
18243 1 -3.39413 1.90058 2.29954 
18242 2 -1.26388 -6.63607 6.66019 
12618 1 1.406 0.235365 6.66382 
10332 1 -0.978468 1.94504 4.64052 
12616 1 6.12931 -0.641276 -3.86577 
12617 3 2.28722 1.78374 1.78848 
10331 2 5.95728 5.91493 -2.3638 
12733 1 1.16979 -4.89522 -0.671925 
12734 2 2.05691 -1.78511 2.29387 
1714 1 2.09346 -0.497312 5.52655 
1716 1 -4.39511 3.70764 -3.25619 
1715 3 6.35848 -2.52279 1.87358 
11142 1 7.93788 -4.38928 3.76067 
11141 2 -1.40982 0.622736 -0.540388 
11140 1 -3.0791 1.08382 3.32102 
12826 1 4.35874 1.33187 0.921541 
12827 3 -0.547492 -1.93872 0.0199054 
12828 1 3.85682 -5.08955 -4.06172 
18241 1 -4.71486 2.99824 -0.660842 
11271 1 1.79365 3.14795 -4.76722 
11269 1 -2.67591 5.86837 -4.17482 
11270 3 -0.384842 -1.17001 2.84468 
13667 2 -0.580047 0.595756 -0.836163 
13666 1 0.307181 0.888724 -3.8317 
13668 1 -4.58419 2.07056 2.24385 
14666 3 2.34007 1.12061 -1.65782 
14667 1 -0.910907 2.78414 -0.00813742 
14665 1 -3.55602 -4.96656 1.63457 
252 1 1.06278 0.862852 5.7641 
16934 2 -3.36185 -1.10718 1.47447 
18873 1 0.525995 -1.1692 -2.7699 
16935 1 -1.16695 5.78583 -2.84849 
18871 1 -5.64539 1.13842 2.84511 
18872 3 -0.273698 -1.90483 2.01261 
11004 1 -1.63401 0.852606 -2.82805 
11003 3 -0.789162 1.65485 -4.11987 
11002 1 2.41202 -0.105886 1.65208 
5956 1 2.97826 2.58052 -2.01195 
5957 3 3.88479 -3.83613 -3.74186 
5958 1 -1.26668 4.20115 1.76835 
1011 1 7.22651 8.23321 1.26426 
1010 2 -1.03013 -6.91944 0.714121 
1009 1 0.98182 8.74705 -2.08566 
651 1 -1.2754 3.41924 4.89787 
650 3 -4.33514 -0.348232 1.12907 
649 1 -3.56065 6.14647 -2.54376 
5377 1 1.68578 -1.21693 -0.382217 
15184 1 1.27513 -3.22056 2.98185 
15185 2 0.784971 -0.688066 1.09132 
15186 1 -0.862735 -8.09613 0.453124 
16933 1 2.15724 -4.6398 1.93105 
4340 2 1.63206 -1.08574 3.1342 
7688 3 1.39586 -0.706559 -1.02405 
7689 1 3.33679 4.00192 5.82278 
7687 1 3.87073 -6.18687 -1.85976 
4339 1 -3.96861 2.55408 -4.16676 
4341 1 -1.77906 -1.05642 0.0351376 
19799 3 -1.98936 -2.74157 0.953795 
19800 1 -1.89191 1.25038 -2.79015 
19798 1 -1.0904 5.79475 -2.40934 
9697 1 1.21372 12.247 -2.90044 
9698 2 -2.02416 1.76489 -1.52189 
9699 1 -2.90152 -1.04351 -3.95665 
5378 2 2.00101 -0.736111 -0.313737 
5379 1 2.8117 -4.57364 0.60811 
20771 3 2.69661 -0.664651 -0.924935 
20772 1 -2.08199 2.73924 -4.32195 
20770 1 -0.56697 -5.726 -5.43108 
18684 1 -4.55062 1.17655 -1.67268 
6368 3 -0.74925 2.09385 -0.537045 
6367 1 -5.03688 -0.340809 0.20407 
18682 1 4.25472 -3.31317 3.01315 
18683 3 2.18607 -3.78381 0.603572 
8379 1 0.367233 0.386406 0.686932 
6369 1 -2.69151 1.51767 2.49715 
19430 3 0.525899 -2.30696 -1.14795 
19429 1 4.79554 3.19969 1.94552 
8128 1 -3.48191 0.584362 -0.271189 
8129 2 -4.44375 -2.63567 0.329091 
8130 1 -4.89617 5.905 -1.75539 
14516 2 0.253794 -6.2358 4.57857 
14517 1 -1.59941 3.7617 -1.52699 
14515 1 0.156596 -4.25439 -1.78579 
17218 1 -0.353026 -0.74588 0.0397468 
17220 1 3.01671 -0.265787 -2.6626 
17219 3 4.07408 0.260999 -4.7465 
5562 1 1.28995 0.573315 -2.95126 
5561 3 -1.21012 3.17262 -2.10632 
5560 1 -1.52631 1.42962 0.64875 
19094 3 2.9671 1.3768 -3.28197 
19095 1 -1.4018 0.975694 3.90649 
76 1 -2.121 -0.690607 -5.55185 
19093 1 -0.670913 -5.69783 -2.50298 
78 1 -3.83444 1.45625 0.808612 
77 3 4.0793 -0.812045 0.697983 
13097 3 0.296705 4.45166 5.42164 
13098 1 -2.82246 0.841498 -1.1575 
8378 2 0.388131 0.0598604 1.94318 
8377 1 -3.90249 -0.081122 0.722619 
13096 1 -5.68316 0.673416 -3.46932 
12789 1 -4.0796 -5.31906 1.57793 
2169 1 -1.45598 1.06804 0.724103 
1711 1 3.44264 5.42815 -4.57538 
1712 3 3.24327 2.01446 -4.77742 
10274 2 0.218472 0.684905 1.36582 
10273 1 2.77263 -0.231286 -0.632425 
1713 1 -2.15868 -0.243835 -3.87409 
10275 1 -5.74354 2.59969 3.53087 
15211 1 -3.412 -0.244289 2.26156 
15213 1 7.61183 -1.51968 8.19627 
15212 2 -0.202421 -5.12886 2.0148 
8103 1 2.65666 3.03801 1.6416 
6514 1 -0.095222 -4.93195 -3.57739 
6515 2 -3.10962 -1.93774 2.06034 
308 2 -1.0154 -0.495148 1.97491 
309 1 -3.64155 3.89724 -3.36761 
307 1 4.919 -7.74638 -2.84286 
6205 1 -3.93872 0.415172 4.03553 
19941 1 -0.0339292 1.52885 -0.493752 
6206 2 -2.86802 -0.365206 -0.570449 
6207 1 2.3749 2.8161 3.74011 
19940 3 0.428203 -2.22648 0.0489933 
12787 1 1.60456 -7.71159 -3.07213 
12788 3 0.623181 3.13544 3.28917 
2167 1 -3.03254 -4.08792 4.43679 
2168 2 -1.0164 -2.70622 1.46846 
8102 3 1.18337 0.94164 0.287934 
8101 1 -1.32038 -0.583477 3.53695 
4277 3 -2.68491 4.28273 3.70341 
7114 1 -0.558073 -1.79806 -4.33898 
7115 2 1.301 3.19027 1.23137 
4276 1 -1.18691 -2.37009 0.123331 
6978 1 1.54012 -4.32653 -5.79055 
6977 3 -3.49836 0.815959 -3.15312 
6976 1 4.8453 2.94206 -3.80465 
6516 1 2.37305 -4.54832 -0.851728 
7116 1 -1.10872 -3.04797 0.917441 
19939 1 -0.223533 0.614192 3.1081 
16173 1 2.98692 3.58976 -4.57193 
18665 3 4.22504 -4.85527 -1.40775 
18666 1 -5.81709 -0.629705 0.716886 
18664 1 3.93076 3.52682 0.348304 
9305 2 3.57339 -0.0256052 -0.130903 
9304 1 -3.95406 3.31718 1.22552 
9306 1 1.84653 -0.382143 -4.02498 
15048 1 2.53305 0.775115 1.53084 
15047 3 1.66281 -0.00437769 -2.4552 
11801 3 2.36595 2.21035 -2.34907 
11800 1 1.84086 -3.86419 1.01651 
4278 1 -2.4917 -2.54964 -4.33389 
9518 3 -2.15913 -1.17511 1.18499 
9517 1 -4.43108 2.76041 0.00935012 
405 1 1.90291 8.16847 -1.8126 
404 3 -5.15905 -5.5489 2.26844 
403 1 1.78259 3.62423 -2.24093 
16171 1 4.35764 6.30345 -6.01099 
16172 2 0.323821 3.74513 4.20183 
10271 2 2.79653 -3.70992 -2.21253 
10272 1 -1.87882 -4.14629 0.156413 
533 3 0.309367 2.84495 0.823748 
534 1 1.47182 -1.40341 1.00325 
532 1 1.56872 3.3642 2.34646 
15046 1 1.05708 2.79458 0.892155 
11802 1 2.96204 -1.27686 -0.468327 
10227 1 2.07445 2.14841 -3.3598 
9519 1 9.37368 -0.155381 -0.544303 
2783 3 0.0205656 0.496178 2.50732 
2782 1 2.49367 -4.50221 0.541841 
9705 1 -4.77763 -3.54514 -0.658403 
9704 3 0.83914 -0.497819 2.73174 
9703 1 1.05689 2.83706 -0.437526 
7983 1 -3.96112 -2.35438 -0.699851 
7981 1 5.57012 1.58486 -6.74351 
7982 3 1.49716 1.4875 1.81511 
12372 1 -0.752789 0.554445 0.322957 
12371 3 0.815082 4.07914 -2.06491 
12370 1 -8.15594 2.33988 1.95871 
10225 1 4.65698 -1.4053 0.199212 
10226 3 -2.51227 1.74801 -0.664951 
17430 1 -3.18754 3.93079 5.81444 
2784 1 -4.48265 4.41934 0.131536 
13336 1 2.13178 -3.38151 3.94672 
13337 2 0.862012 -3.51175 -4.91775 
13338 1 -5.19935 0.386624 -2.46243 
6453 1 2.8934 -2.19505 3.14202 
12603 1 -5.79332 0.0458281 -0.00677343 
12602 2 6.07743 0.628669 -3.98921 
12601 1 -0.721519 4.58402 3.65142 
15036 1 1.26162 3.91723 -5.20758 
17355 1 5.68392 4.9106 4.66775 
17428 1 -2.61696 -3.82945 2.32534 
17429 3 -1.49662 1.58855 1.21488 
9433 1 3.17352 3.58341 1.25186 
9435 1 5.15072 -2.50256 -5.98072 
9434 2 -1.43957 3.05853 -2.82082 
12938 2 0.124737 -5.05995 0.0119539 
12937 1 -1.19797 -3.49776 -2.55914 
12939 1 2.40135 -3.54263 -0.0523525 
15665 2 -4.36583 1.59628 1.26435 
15666 1 3.30415 9.16625 -0.984099 
15664 1 -2.45954 2.1468 -5.24963 
16597 1 -0.121924 -0.470468 0.160102 
16599 1 4.46411 0.0594671 2.9018 
1349 2 3.68668 -0.729348 0.29586 
1348 1 0.765258 -3.08777 -0.814815 
16598 3 1.1684 -2.44309 -0.403259 
7721 3 0.0870478 -0.98626 -1.78533 
7720 1 3.3706 0.117229 1.3378 
1350 1 4.71766 -0.859319 0.122324 
5121 1 -3.2629 0.532299 0.807275 
12529 1 -7.01303 3.18839 -0.711311 
12530 3 0.586303 -1.39991 -1.09796 
9459 1 0.498797 -4.05037 2.26539 
1945 1 1.32377 7.34197 3.3004 
1946 3 4.15389 -2.34627 0.602448 
9458 2 2.07247 -0.700047 1.82838 
18134 2 -0.218055 -1.95879 2.03379 
18135 1 -4.65455 -0.378403 5.42363 
9457 1 2.30385 1.04649 3.29611 
1947 1 -5.99473 -0.551042 0.397626 
10098 1 3.62355 -2.11707 -1.82334 
4700 3 0.118481 0.679825 -3.00362 
3558 1 -0.0331668 -4.52797 1.52475 
3557 3 -1.7023 1.18883 -3.51263 
3556 1 1.95873 -0.667653 2.55733 
18084 1 8.19253 -2.95474 -3.41548 
18083 3 -0.135284 2.47936 0.112675 
18082 1 0.112197 -5.35583 -1.67459 
7003 1 -0.271362 -1.03828 1.55337 
7005 1 1.85983 3.90069 -3.91738 
7004 2 2.36603 -2.02757 -2.64894 
20153 2 -4.01942 0.762821 -1.26596 
20152 1 -2.56911 0.724817 -1.49632 
21036 1 0.52307 -0.952215 0.826605 
9390 1 2.72296 3.86072 -1.01944 
9388 1 0.127103 -1.84047 6.46452 
9389 2 -1.02867 0.732998 0.623906 
16448 2 0.431208 1.48158 -2.37233 
16447 1 1.78066 2.76442 1.41585 
7722 1 -2.17776 2.09754 -3.39896 
16449 1 -0.359841 2.64272 0.203673 
14966 2 -0.262264 -3.15589 -3.6222 
19809 1 5.91512 2.52878 2.28722 
19808 3 0.284121 1.88547 -2.32051 
14967 1 -2.94271 -3.13799 -1.37446 
19807 1 0.103549 -1.0987 0.500817 
4960 1 -6.59142 0.323448 0.510296 
4961 2 0.386095 -4.14138 3.29397 
12531 1 0.561465 2.61659 -2.68873 
4962 1 2.32906 -0.381623 4.87284 
4176 1 -0.283599 -3.51802 4.10655 
4175 2 4.70029 -1.27237 -0.274104 
4174 1 -1.69996 2.60535 -1.69193 
18133 1 2.78441 -1.33266 1.98323 
4701 1 -4.13226 -4.72913 6.75374 
20154 1 -7.21622 -0.0303929 -3.10161 
21035 2 -1.24935 -1.45225 0.138103 
21034 1 -3.97715 2.51037 -2.78931 
14965 1 -5.55279 1.20951 4.60983 
17308 1 1.92554 2.83812 -3.71174 
20889 1 -3.29741 -0.579419 -6.20941 
20888 2 -2.34938 2.00699 -2.22152 
214 1 1.36499 4.21031 0.517006 
20887 1 -3.74532 -0.394597 0.0828569 
215 3 1.03754 -1.07496 -2.98002 
15516 1 2.14706 -1.46356 -2.82936 
216 1 -1.70965 2.96131 -5.38034 
18604 1 0.471386 -6.7184 -3.86301 
7534 1 4.75885 4.65875 -5.4893 
7535 2 0.321309 -0.365883 0.869713 
7536 1 -4.24036 2.18664 -5.60009 
256 1 -1.83262 -0.182722 4.15591 
20898 1 -4.09988 1.67016 1.14436 
20897 3 -1.65663 2.1121 1.3065 
18117 1 6.0049 4.07547 -2.54624 
18116 2 1.60041 5.30088 2.7781 
18115 1 -3.55093 6.57184 4.58497 
20896 1 2.4066 -2.89124 -1.23464 
4162 1 1.59066 -8.87749 5.36058 
4163 2 1.9282 2.18999 -0.889562 
8565 1 2.19164 1.29157 -1.7203 
8564 2 -5.13516 -0.0352358 0.638287 
8563 1 -1.6043 -2.92354 -2.09992 
9722 3 1.35521 -1.51342 4.55318 
9721 1 1.91678 -1.49337 -3.28628 
9723 1 2.38499 -1.53103 -3.25141 
8958 1 -3.95315 2.41253 -6.05751 
8957 2 1.01659 -4.16798 4.32785 
8956 1 -3.46102 -0.324134 -0.822812 
8034 1 -0.558201 -2.37998 10.4983 
17309 3 1.31596 -1.32524 -3.16555 
17310 1 -0.691673 1.89315 -3.03841 
12289 1 -1.27748 -2.26647 -2.53758 
10992 1 1.06569 4.34975 -2.1096 
20318 2 -1.15163 4.47407 -3.61496 
10990 1 -1.31515 -2.71049 1.29032 
20319 1 1.68316 -1.29764 5.82669 
10991 3 2.57937 2.43871 3.56683 
18606 1 1.31517 -1.23669 3.90033 
18605 3 -1.0496 -2.49374 -5.26097 
15515 3 2.97159 0.582523 1.71138 
15514 1 2.12156 -1.52584 -3.53882 
257 2 2.93881 -0.0416485 -2.71167 
258 1 0.0099925 -3.30305 2.70724 
20185 1 5.67674 2.44306 -0.705802 
20186 2 -6.05191 -2.39446 -1.19426 
20187 1 1.26514 3.41887 -4.23901 
1210 1 1.99367 0.434074 3.52173 
1211 3 0.685208 3.53782 -1.79039 
1212 1 -4.77524 1.64596 2.22689 
11300 3 2.52376 -1.76092 -6.56975 
11299 1 8.92296 5.9669 -3.25114 
14817 1 -3.15881 1.39536 1.68221 
20317 1 -2.13205 0.871752 -3.9945 
12290 2 -3.63566 -1.2181 -8.69015 
12291 1 0.73693 0.24674 4.06681 
8007 1 -3.08102 1.92728 -7.10676 
8006 2 -0.673698 -1.67848 -0.18164 
17508 1 0.732398 -0.557201 -0.910056 
17507 3 2.83148 2.17584 0.162035 
17506 1 1.47973 0.699872 -5.70702 
1850 3 -2.23734 0.232357 -1.39859 
1849 1 3.98544 1.43783 0.461722 
1851 1 -2.43734 1.24631 4.41197 
4259 2 -0.922571 -0.822561 -3.01474 
4260 1 -1.25541 3.03576 -0.129645 
3580 1 3.58109 0.214889 -6.64342 
3581 2 0.491454 -3.30524 2.49585 
3582 1 0.959732 -1.31524 -1.94956 
18049 1 -0.875404 6.36852 -1.03304 
14815 1 -2.16653 -1.20136 -1.60665 
14816 2 -6.93461 0.0400206 0.558545 
2996 2 2.62943 -3.63606 2.86299 
2995 1 3.8575 3.50514 -4.42895 
8005 1 -9.7334 -1.76107 -4.48303 
9542 2 -0.638284 -1.35915 -7.59066 
9543 1 -4.31464 -0.247896 -0.203451 
9541 1 -4.28571 -1.70423 0.12025 
4258 1 -4.91183 5.33533 -1.87033 
3410 2 -3.14711 -1.13996 -3.97367 
3411 1 2.29246 -2.00303 -3.35151 
11617 1 -1.01115 -2.88093 0.250008 
9318 1 3.31106 -2.99962 2.98879 
3409 1 -3.39226 -1.76567 -0.572749 
11618 3 7.3086 -0.178333 1.04998 
11619 1 -1.41112 -1.33615 -2.96819 
9317 2 0.573817 0.802393 0.463932 
9240 1 4.75113 2.81893 -2.19632 
15776 3 -0.745493 1.80839 0.773966 
15777 1 4.10165 0.236696 -5.03806 
15775 1 0.175596 -0.0252532 -2.17438 
8594 2 0.898929 -1.27203 -1.1979 
8595 1 4.09957 6.91902 -1.75224 
1568 2 0.761473 -1.92317 4.91479 
17929 1 1.31711 4.07509 -2.12372 
9942 1 -5.70766 -6.81311 -0.412526 
9941 2 6.03248 -0.900643 -3.29568 
3719 2 1.05921 -2.77093 -4.48861 
3720 1 1.95651 3.55322 1.54268 
3718 1 -4.71505 4.96941 0.957967 
20950 1 -6.28047 -2.19565 -6.85708 
20951 3 0.590403 2.29708 2.48135 
20952 1 0.50966 6.28247 -7.7661 
12240 1 0.676202 3.30604 -0.960996 
13281 1 8.58514 -0.017713 3.7402 
12238 1 -2.4913 -1.78882 -1.76396 
12239 3 -2.37215 1.70534 3.51372 
9238 1 7.23966 0.196325 -1.51817 
9239 2 1.25271 3.07419 -4.17915 
8593 1 6.6825 -1.29077 8.63996 
20613 1 -0.19165 6.94632 1.59669 
9629 2 -1.26264 0.625091 2.67226 
9630 1 1.30133 -0.666077 -0.620004 
9628 1 -5.12621 -4.55086 5.01381 
251 3 3.24831 5.27134 -3.98733 
250 1 -3.40693 -5.62256 -0.813937 
5517 1 0.350515 1.17475 2.01142 
825 1 -4.6559 0.466611 1.48264 
13069 1 -2.22183 -2.03445 0.343787 
13070 3 1.36051 6.17485 -6.41759 
13071 1 -9.16649 1.6489 0.403916 
13280 2 0.973415 2.74063 1.04368 
13279 1 -3.88602 -2.76184 1.30891 
20971 1 -1.03009 -0.710947 -2.49435 
20972 2 3.14823 1.54406 -1.17063 
17383 1 0.177463 0.797807 -0.455886 
17384 2 1.50299 3.5043 -4.59401 
17385 1 3.61422 -1.7607 0.583839 
12542 3 -2.72847 1.50514 3.04129 
12543 1 -6.30128 1.16494 -4.63368 
12541 1 3.11838 -1.75137 9.38094 
20611 1 -3.87064 0.955171 6.28088 
20612 2 1.01822 4.1949 0.237536 
18157 1 -7.6364 4.32739 7.10089 
7275 1 -3.23098 3.82509 6.75964 
4646 2 1.48865 0.475287 0.0734366 
4645 1 -2.6274 -3.77575 1.76888 
5516 2 -1.76178 0.200084 -3.67396 
5515 1 -7.29609 3.95841 -8.84057 
4647 1 4.50736 -3.36747 -0.129352 
3358 1 -1.49039 -1.42193 2.35789 
3360 1 0.31011 -0.203688 0.0481413 
3359 2 2.10281 0.343342 3.32196 
18333 1 -0.588143 -2.06244 4.06618 
18332 2 0.783077 0.852103 4.65175 
18331 1 2.44515 0.900205 -4.6668 
5970 1 -6.25485 -8.38169 -0.895164 
5969 3 -2.60865 -0.0689704 -2.48419 
5968 1 -0.823755 -0.322601 4.32948 
824 2 -1.37242 -2.46615 -4.79431 
823 1 0.3168 9.38973 -2.55043 
21374 2 2.30974 -0.443651 -4.46063 
21375 1 -0.779108 -0.0130971 -3.41816 
3722 2 -2.07103 -0.133558 -1.62962 
3721 1 0.258054 2.27783 -3.64671 
3723 1 -0.729535 -0.148066 3.23985 
11188 1 0.307432 -0.407174 -2.9479 
11190 1 0.834938 1.51087 -2.4171 
11189 3 -5.285 -0.359589 -3.87267 
15910 1 -0.201418 -2.22377 0.584004 
15911 3 -3.13686 -2.64554 1.49392 
20973 1 4.11347 -2.55034 -5.8074 
15912 1 3.21958 3.4384 -5.89033 
19155 1 -5.48111 0.475865 -4.87974 
19154 2 -1.16687 0.116348 0.933599 
19153 1 3.4841 -9.27447 -2.06257 
16048 1 -3.11101 -3.57688 4.34403 
16049 2 -2.6823 2.70914 5.02 
16050 1 4.11622 -2.58285 1.57885 
2902 1 3.75729 -2.12396 -0.52882 
2903 3 -1.26759 2.69505 0.659497 
2904 1 3.24408 -6.74504 1.75201 
1182 1 -4.69186 0.537543 -2.89939 
1181 2 -4.10339 -5.02755 -2.53896 
4012 1 -4.18899 -0.993549 4.55265 
4013 3 1.99263 -0.810863 -1.50052 
18158 2 4.18142 2.68089 -4.66534 
18159 1 1.27831 -1.26612 -4.18134 
19431 1 -1.91457 -3.70459 4.06893 
7273 1 4.39607 2.66481 0.455327 
7274 3 1.75582 -1.6523 1.72201 
19996 1 -0.721681 -0.787291 -2.19276 
19997 2 -4.56487 0.595084 -1.02487 
19998 1 -0.419721 3.62256 -0.052801 
16703 3 -3.12383 1.16941 0.953136 
16704 1 3.24979 -2.11343 1.45472 
16702 1 -1.55022 5.20324 2.2311 
21373 1 0.295633 -0.869341 -0.117796 
4014 1 -0.0104672 1.30403 -5.85953 
17973 1 -0.445283 -1.07865 1.1733 
17972 2 2.26513 2.66525 -0.316232 
17971 1 0.711947 1.60206 6.22691 
6763 1 1.36283 -2.33724 -0.678414 
6764 3 0.821628 -3.86744 3.04276 
1305 1 -1.52262 -0.207882 -0.249224 
1304 3 -1.99733 3.21179 0.86241 
16002 1 0.998867 -6.68137 2.05563 
16001 2 -0.77576 -1.23336 -0.292196 
16000 1 4.61402 -0.0729224 -3.98499 
1303 1 -4.0177 -2.98962 0.49049 
10143 1 1.48423 3.22548 9.26919 
6765 1 -5.01441 -4.95472 -0.741087 
20485 1 -1.91873 0.268218 1.27736 
20486 2 -0.0837518 -3.42931 0.134854 
19645 1 7.31542 0.672013 0.558865 
19646 3 6.05134 2.88228 -1.09237 
19647 1 0.375734 5.16609 1.04966 
11546 3 -0.881255 6.7646 -3.03496 
11547 1 4.03638 -3.07326 5.82716 
19989 1 -1.22305 1.78706 1.20414 
19988 2 1.5912 3.24745 2.65049 
10141 1 -1.43281 2.50932 -1.81927 
10142 3 4.50731 1.41676 -3.56197 
18150 1 2.21544 -2.11178 4.08217 
18149 3 0.127302 0.565227 3.17641 
18148 1 -4.34148 3.51898 -5.15597 
17079 1 2.25902 0.0895719 3.37123 
17077 1 0.932774 1.68148 1.5915 
17078 2 3.93236 1.41544 -0.597614 
6775 1 1.41409 -1.55323 0.6579 
6776 2 2.40639 -2.73277 5.8277 
6777 1 2.12042 2.03354 -3.81592 
16469 3 3.25999 -0.905924 0.785206 
9910 1 1.26701 0.138569 0.883607 
16470 1 -1.84794 -1.17633 6.94584 
9911 2 -0.0374268 3.58304 0.16763 
9912 1 2.57099 -2.26029 -4.62428 
16468 1 2.79658 3.3193 -1.84082 
3651 1 2.40965 -5.74686 -0.0390376 
3650 2 -0.115752 0.243935 -1.23468 
3649 1 1.40312 -2.32733 -5.81372 
16411 1 -5.07413 -1.32239 0.061871 
16412 2 1.4515 -1.78381 -2.45809 
16413 1 -1.99007 -1.51216 -3.95356 
20487 1 1.22368 0.23596 0.47063 
18454 1 0.555781 -1.12091 3.18681 
18455 3 -2.17027 1.60049 -2.31769 
18456 1 -1.87268 2.33026 -6.99845 
6990 1 0.257616 -6.69093 4.93464 
6989 2 0.122818 -0.559787 -0.957706 
11545 1 1.40284 -0.891358 -1.65983 
6988 1 -2.86384 -7.87599 0.729588 
8840 3 2.81342 1.43724 -1.57289 
8839 1 -0.232368 -0.502138 -9.36216 
8841 1 2.7148 7.03757 3.75164 
13076 3 3.62795 3.1556 0.0686532 
13077 1 -0.400879 0.753914 -3.64383 
13075 1 -6.16404 0.924306 -5.29461 
19804 1 -3.89837 -0.358326 -0.305543 
19805 3 1.29753 -2.10859 0.0915912 
7047 1 -6.09358 2.33983 -2.66788 
7045 1 -1.34094 -0.52619 1.60856 
7046 3 1.72024 2.66563 1.97826 
18474 1 -2.49931 -0.350804 -0.706809 
18473 3 1.96008 -7.65784 -0.268402 
18472 1 -2.16626 6.59138 -1.09078 
2033 2 -0.807188 1.90693 -1.90743 
2034 1 -2.23075 -6.67765 -0.354997 
2032 1 -1.27412 -0.264625 0.988884 
8769 1 0.687652 7.46932 -0.566303 
8768 2 -3.74537 -1.69909 5.02266 
6496 1 1.53694 4.68249 7.72773 
654 1 -4.59713 -2.00718 -0.480327 
653 2 -3.56169 2.39545 2.78494 
652 1 -3.33423 -0.247801 2.53605 
13092 1 8.63485 -1.89918 0.393997 
13091 3 2.65841 -3.59291 2.81673 
13090 1 1.86651 -2.29144 -4.76617 
19806 1 1.17525 3.33402 0.475849 
10270 1 -6.93182 -1.44392 -1.00419 
4111 1 4.512 -0.367302 -0.0631079 
4113 1 -1.42401 1.39612 -0.84456 
4112 2 -0.57952 1.73698 0.0468832 
3915 1 4.82809 1.63874 -2.06227 
3913 1 -3.63016 -2.63755 0.752819 
3914 3 -0.265795 2.55363 3.59504 
6711 1 0.0391003 0.941243 -0.00822386 
6710 3 2.42988 -0.0364021 1.40448 
6709 1 0.341282 -1.8469 2.0085 
11409 1 -1.56392 -0.176666 -7.74663 
11408 3 -1.25964 0.844003 1.94287 
11407 1 3.02584 -0.19138 -0.856462 
8767 1 -4.45081 2.36462 0.345061 
4051 1 1.15141 -0.825993 -3.73478 
4052 2 -2.62864 -1.61215 -2.60073 
15012 1 -5.58711 0.259277 0.185469 
15010 1 0.2668 0.429488 1.74271 
15011 2 -0.120124 -3.65313 -4.99235 
18797 2 0.97681 -0.0643199 1.16624 
18798 1 -1.69674 0.780757 -8.07124 
7830 1 3.59468 6.84314 0.698677 
7828 1 5.11775 -3.48585 3.74865 
7829 2 1.32351 -0.636492 -1.35195 
13178 3 -0.476014 0.0551676 -0.494291 
13177 1 5.21114 0.406247 4.94292 
13179 1 0.9157 -3.29954 -2.48725 
1993 1 -4.16555 4.44711 4.99124 
1994 3 0.584184 3.43808 -3.31465 
1995 1 10.7884 -0.281358 2.8964 
12242 2 -2.17664 0.552671 -2.56184 
12241 1 -8.87553 3.1668 4.08445 
12243 1 -9.90294 -0.6387 2.52943 
18796 1 -4.1047 -0.471818 0.999845 
19269 1 1.69042 -2.54228 3.73017 
19267 1 -3.1797 10.8661 2.62655 
19268 3 2.1498 -1.55753 -0.387985 
9047 3 -0.582154 2.5602 -2.32725 
9048 1 3.66875 0.398779 -2.45527 
5362 1 3.61271 2.43895 1.38772 
5364 1 -4.58791 -1.91901 -2.53935 
5363 2 -4.48877 3.53599 -1.13671 
14115 1 1.62791 -1.14292 1.72312 
14114 3 0.929069 4.24522 2.58298 
14113 1 -1.04878 0.828925 -3.31323 
20121 1 0.308006 0.409572 0.365273 
20120 3 -0.860818 -2.41446 -0.736564 
20119 1 2.30099 11.1829 -1.80306 
19138 1 -1.42375 2.13493 8.18841 
19139 3 -2.832 3.14933 0.450015 
19140 1 -2.18532 3.76929 0.698963 
17382 1 1.62158 2.86179 -4.13356 
17380 1 -6.37709 0.217802 0.486582 
17381 2 -2.76511 3.74276 0.335968 
9046 1 -2.38714 -0.390272 -0.262879 
14971 1 10.2522 -4.81632 3.56251 
16156 1 1.80483 -0.296911 2.18378 
14973 1 2.21181 -2.1596 -0.26623 
14972 2 0.600028 0.140779 -0.942438 
16157 3 1.42794 -1.80727 1.09449 
16158 1 -1.57257 3.59425 -0.691535 
4060 1 2.06918 -2.06746 7.09842 
4061 2 -2.35305 -2.08537 -3.19345 
4062 1 0.887417 -2.05618 0.36412 
9481 1 -2.785 -2.40519 -0.662637 
20872 1 0.132415 -10.6465 -2.38218 
15932 2 1.05078 2.58598 -4.1767 
15931 1 5.35138 -0.249955 6.12617 
15933 1 4.64993 -0.501433 2.20606 
15025 1 1.05947 2.53854 3.00808 
15026 3 -0.729675 -2.67161 -0.753971 
15027 1 -1.26271 -0.0416968 0.445733 
13081 1 -0.154616 -1.94253 -0.851854 
13082 2 0.246142 -0.244133 2.86492 
13083 1 -1.64968 -1.266 1.13418 
5927 3 -3.2711 1.77318 3.80799 
5926 1 -3.31083 3.53487 -5.34045 
5928 1 -2.6127 4.55366 4.18067 
1496 2 1.03834 3.08854 -4.05409 
1497 1 5.18224 -0.110079 -4.62407 
1495 1 2.4481 -0.0825824 -9.25119 
11449 1 5.01224 -2.2848 -1.15085 
11450 3 3.54126 3.86638 -2.76526 
11451 1 1.27864 -2.63894 -1.57831 
7499 2 2.54448 0.513081 -1.60612 
7498 1 -2.68584 0.354126 -0.860109 
7563 1 -2.90527 -2.88643 3.82366 
7562 2 -4.55907 -2.37073 -4.2383 
16716 1 -1.77765 6.69764 0.680476 
2580 1 -2.49542 -4.78414 -0.965104 
2579 3 -0.568043 -0.445542 -1.70053 
2578 1 0.253456 -1.5815 6.70136 
17216 2 2.87268 -1.44123 1.08379 
17215 1 0.0640317 3.98312 1.37666 
9482 3 0.354228 -0.0391407 -0.832877 
20483 2 -0.392089 -2.19849 2.02239 
6159 1 -4.86392 -5.17398 2.57834 
20482 1 1.81651 3.30724 5.62849 
20484 1 -1.77268 -1.16059 -6.02607 
9483 1 2.08898 -3.77018 0.167868 
6444 1 -2.62561 5.19022 5.4046 
20873 3 -0.238912 -0.843178 -3.04378 
6158 3 -1.70909 -0.90615 -0.653715 
6157 1 -6.55267 1.30892 1.08688 
20874 1 -3.25701 0.326334 -4.90556 
21142 1 -2.70909 -0.211908 3.83417 
6443 2 -1.88867 -0.291955 -0.500853 
21144 1 5.18196 -3.61838 -1.29627 
6442 1 3.17357 -1.72251 3.65612 
21143 3 -0.287614 -0.16419 -3.39859 
3724 1 -2.56143 -3.74088 3.84698 
3725 2 -6.22215 -0.586367 -4.63468 
3190 1 -4.25259 0.722047 7.12454 
3191 2 0.873453 1.73324 4.0792 
3192 1 -1.36608 2.61016 2.17321 
20430 1 -6.17243 -0.167558 5.98219 
20428 1 -5.47547 1.4995 -0.396402 
20429 2 0.0178932 -0.736224 3.96904 
9734 2 -0.0922041 -0.419778 -4.3381 
9735 1 2.03919 -3.65079 -4.96889 
12573 1 -3.79174 -3.02148 2.40045 
12572 2 -1.18033 -4.05284 -1.41244 
3173 3 0.116905 -0.641803 3.95787 
3174 1 -0.0442566 -4.54994 0.196633 
19346 3 -1.77918 1.13932 -0.55082 
19347 1 -2.18999 -3.05798 0.409898 
7500 1 4.63687 -6.93756 4.84935 
7320 1 -2.44168 -5.53835 1.24805 
7561 1 0.686512 -4.36777 -0.503473 
16715 2 1.15053 0.345139 2.64081 
16714 1 1.36409 -0.408631 -4.86801 
7318 1 -5.82006 -0.313881 5.7359 
7319 3 -3.71135 3.68885 -1.49159 
2823 1 -2.44888 4.50396 2.53181 
16073 3 -1.1873 0.966001 2.29786 
16074 1 2.66776 1.48837 5.82524 
3726 1 -3.18135 5.08928 2.96596 
12265 1 -2.40016 7.8862 -1.65841 
12267 1 3.31909 -3.89608 -0.797935 
12266 2 -3.02455 1.04004 5.97569 
13602 1 -0.764461 -0.440946 2.40729 
17182 1 -5.16078 -4.7581 -1.83032 
17183 2 -0.625768 2.25527 -5.78512 
17855 2 -0.181761 -0.382628 3.41938 
17854 1 -1.23344 -1.2533 -2.70461 
17856 1 0.5809 -1.77832 5.61108 
3172 1 4.58698 -2.79026 3.74318 
19345 1 9.33527 -4.94292 -0.265183 
13674 1 -0.569526 0.285243 1.31883 
13673 2 -2.81189 -0.341056 -2.14176 
21016 1 5.38264 -1.0634 -1.30238 
13672 1 0.0124043 0.319961 -0.556968 
4164 1 -5.56689 2.47238 0.576503 
11939 3 3.45575 3.43081 0.189623 
11940 1 -0.0860713 -0.295189 1.87164 
2822 3 6.43287 -1.92254 4.12909 
2821 1 0.660979 -6.81602 1.95112 
16072 1 0.323391 3.36746 4.3618 
13601 3 2.80965 -1.57355 -0.620581 
17184 1 3.26878 2.84699 1.5888 
16419 1 -1.8375 -6.18715 -2.7621 
16418 3 2.50152 -0.183403 -0.00709063 
4383 1 3.97319 0.800153 1.40371 
4382 3 -0.440614 -0.485353 -0.472299 
4381 1 -4.53555 -7.25989 -4.71916 
21018 1 -5.10648 -3.21271 0.152126 
21017 3 -2.11361 0.839035 2.05474 
11938 1 -1.4938 -0.0969548 -6.47591 
16681 1 -5.86998 2.58774 -3.77365 
19334 2 -1.61195 -3.62377 -2.72245 
19335 1 -7.05305 0.870059 -0.967196 
19333 1 -0.565854 -1.98597 -4.95451 
5798 2 1.84244 -2.43683 1.08806 
5799 1 4.04748 4.88258 4.27192 
5632 1 -0.199239 1.77604 -0.113136 
5797 1 9.46757 -5.28708 5.20512 
5634 1 0.586559 3.9527 0.412334 
5633 3 -4.64093 0.212664 -0.77987 
16417 1 2.61777 0.620251 -1.18217 
11070 1 4.65001 -1.93349 -6.58063 
11069 3 1.85451 0.295468 0.209503 
11068 1 -0.0184707 0.0504257 5.3213 
16683 1 -4.88862 4.28808 0.404732 
16682 3 -1.19214 -0.246812 0.900734 
19934 3 1.58029 0.813695 3.31573 
19935 1 3.22619 -6.53363 2.88974 
18648 1 7.84158 4.52758 5.84623 
9327 1 -4.05774 2.12587 6.08565 
9326 2 -0.339694 -0.446947 -3.75543 
10362 1 7.03333 -2.52687 1.33693 
10360 1 -4.5848 -9.30607 1.14261 
10361 3 1.57751 1.33971 3.3892 
9902 2 -1.41087 -1.01108 2.69457 
9903 1 4.24632 1.96449 0.247682 
9901 1 -1.50926 3.71999 -3.90992 
6787 1 3.14541 -3.06923 -1.36729 
6789 1 -0.668316 0.451083 -0.429321 
6788 2 -0.868238 -5.2491 3.88583 
13370 3 -2.43543 3.97547 4.40238 
13371 1 4.10401 -5.2726 2.60628 
17826 1 -0.993839 -2.31709 -3.9795 
13369 1 -3.3978 2.42126 0.721057 
17825 2 -0.484651 -6.92221 -0.209981 
17824 1 0.376802 -0.929014 -6.54581 
17566 1 2.38608 1.54525 -0.806988 
15421 1 -6.41863 -0.526605 8.24852 
15422 3 1.32653 0.106665 -3.19934 
16768 1 -1.90671 5.93289 -0.280469 
15423 1 1.00272 -3.05117 0.224755 
16769 3 -2.02353 1.65438 -4.90938 
16770 1 1.57843 0.981664 2.86107 
13438 1 -4.07284 -3.7041 -5.0513 
13440 1 1.90081 1.51427 -3.08255 
13439 3 -3.52399 -0.472084 3.97838 
15239 2 1.5501 -0.92729 3.53017 
15238 1 -1.66208 6.38116 0.704507 
15240 1 0.728687 -0.36677 -5.15188 
17733 1 3.78536 -4.59351 -1.35573 
15433 1 1.32677 4.15528 0.902691 
15434 3 0.558307 -3.79158 1.34456 
15435 1 3.39128 -2.1845 0.26615 
4651 1 2.32457 -3.56404 2.64378 
17731 1 -1.89066 -6.20607 2.84831 
4653 1 -5.48607 -0.120806 -5.11834 
17732 2 0.446533 1.01559 2.39369 
4652 3 5.53288 2.71312 -3.87407 
1683 1 -0.989035 4.89558 -5.18248 
1682 3 -1.37295 -0.357445 4.23599 
1072 1 -1.05129 2.41829 -2.66122 
1074 1 1.46742 -3.07529 -0.604565 
1073 2 0.0438121 -0.262881 -3.34673 
6739 1 2.06282 3.22221 2.95926 
6740 2 5.58893 -1.36121 -0.283612 
20479 1 -2.98554 -0.884007 -2.01611 
8454 1 3.07228 -0.925465 4.02013 
8453 2 2.06778 1.84077 -4.14206 
8452 1 0.0506296 -6.02042 -0.833927 
6741 1 -4.02381 -0.470157 2.27905 
20480 2 1.3358 -1.83347 -3.23474 
20481 1 -6.12545 5.20818 -1.71692 
5343 1 -3.00963 3.92566 1.61612 
5342 3 1.65127 -1.20104 1.614 
5341 1 4.34377 8.56694 -3.56843 
4239 1 -0.548872 -1.48463 -1.28323 
4237 1 -3.20651 0.156829 1.29609 
4238 2 -3.59457 -3.00547 2.55385 
8252 3 1.80536 3.16929 3.82061 
8251 1 0.634485 8.32814 1.30823 
8253 1 -0.934664 0.929164 4.51564 
7874 2 -1.0471 -4.07515 1.5365 
7873 1 1.87042 0.69317 0.435197 
7875 1 -1.52035 -0.876237 -2.18 
21502 1 -4.28064 -2.32819 -0.731062 
9109 1 -4.99348 -2.64331 -0.452925 
9110 3 0.844359 1.51955 1.46462 
6756 1 0.184053 1.42144 3.12315 
21504 1 -2.48086 3.01536 -3.9563 
6755 3 2.89804 -1.75029 1.07061 
6754 1 -5.52179 1.30883 2.52773 
21503 2 -4.64349 -1.09555 0.226387 
5120 2 -0.861112 -5.29988 -4.85507 
5119 1 2.30068 -3.15094 6.78791 
9303 1 4.44639 -2.45966 2.45954 
4607 2 -1.15586 0.250076 -2.3251 
4606 1 0.712 -2.96768 5.0993 
4608 1 -9.18381 -9.1537 0.554004 
13627 1 1.66783 3.70663 -4.1045 
13628 3 0.161281 3.02183 -1.96044 
13629 1 2.01571 -0.368553 -2.82349 
20781 1 1.09758 -0.84769 6.41345 
20780 3 -4.67345 -1.60334 -1.41938 
20820 1 -1.67871 1.57116 8.36293 
20779 1 -0.366721 -2.19817 -6.37516 
20818 1 1.60599 -3.24684 -5.33854 
20819 3 -0.0981097 6.06681 -1.0172 
16330 1 1.52571 4.52261 -5.56857 
16331 2 -0.208949 0.320668 2.07468 
16332 1 0.639982 -2.03531 3.23825 
431 2 -0.482673 -2.68323 4.04565 
430 1 -1.34119 3.43739 -0.412163 
432 1 0.220528 -0.815533 4.23726 
14068 1 -9.20773 1.70436 -1.18703 
14069 2 -0.872794 0.163048 0.393907 
10883 2 0.70626 -1.47918 0.989005 
10882 1 2.28498 0.152152 -0.162019 
10884 1 -0.358144 -3.95718 1.95477 
5325 1 -1.05548 4.39332 4.73864 
5324 3 0.725419 -0.276972 2.19378 
5323 1 0.970524 0.19135 2.28957 
18769 1 0.344508 -0.192366 0.775838 
14070 1 1.0617 0.859575 3.98009 
18687 1 -1.42534 -0.0925918 -3.97481 
18686 3 -0.958951 -1.54389 0.432752 
18685 1 -3.65349 5.25527 2.70116 
16023 1 0.708503 -3.00419 0.00149468 
18771 1 3.77332 0.497528 -5.31652 
18770 2 0.79686 4.17054 -0.47583 
16021 1 -1.58083 -0.254447 -0.0563738 
16022 3 -6.18787 0.65251 0.758867 
15820 1 -4.82011 -0.908067 -2.01958 
15821 2 -1.63559 -0.0732829 -3.4941 
15822 1 -4.88979 -4.0689 4.01625 
17203 1 4.70774 2.33998 -4.94611 
17204 2 -3.44353 0.34336 0.493098 
17205 1 -2.19192 -5.51999 -0.0521484 
721 1 -1.26831 -0.434511 1.3383 
722 2 -2.44141 -3.92154 3.02183 
723 1 3.50878 -4.13409 -4.15199 
758 2 -0.163786 -1.83837 -0.00891783 
759 1 4.08656 -1.04355 -0.122349 
14819 2 -0.498422 1.91062 -0.809131 
14820 1 5.48326 -0.990775 1.48508 
11538 1 -3.1864 0.776949 3.70701 
11537 3 -3.46272 2.25285 0.971675 
11536 1 4.61614 3.45114 -4.64438 
4579 1 4.25215 3.95517 4.70472 
4580 2 -0.112137 2.81986 -0.278595 
6153 1 2.7547 2.3171 -3.18144 
6152 3 0.863714 -1.55199 -2.58594 
6151 1 3.32849 -3.46877 -1.81341 
757 1 6.70628 -1.22383 -2.46785 
12700 1 0.0638438 1.24432 2.72207 
14818 1 1.08145 -3.65709 -3.87549 
12701 3 0.938688 -1.15709 0.103222 
12702 1 5.227 4.81129 -4.82538 
9737 3 -2.1271 -0.0646878 -1.55916 
9738 1 0.620049 0.062614 -2.63605 