ITEM: TIMESTEP
60000000
ITEM: NUMBER OF ATOMS
3066
ITEM: BOX BOUNDS pp pp pp
0.0000000000000000e+00 5.0000000000000000e+01
0.0000000000000000e+00 5.0000000000000000e+01
0.0000000000000000e+00 5.0000000000000000e+01
ITEM: ATOMS id type vx vy vz 
457 1 -2.43649 -5.59833 1.8615 
458 2 -0.743167 -2.18177 -0.03538 
15814 1 2.63052 -2.83759 -0.526193 
15815 3 2.54756 1.28968 1.49998 
15816 1 2.22329 -1.60596 4.4261 
19261 1 3.22363 2.24015 -0.242782 
4318 1 -2.87014 1.53219 -3.50167 
12765 1 -6.32113 -4.82728 1.68358 
16889 3 -6.03008 -1.53536 4.67963 
16888 1 1.32411 -2.55979 -0.400257 
16890 1 -5.14765 -6.52683 -3.65168 
8868 1 0.777667 -7.76661 -3.75178 
17474 2 -1.40897 -1.31236 -1.83437 
17475 1 -2.48934 -2.96643 -4.78896 
14745 1 3.60183 -3.43246 -3.00472 
14744 3 2.58562 -0.75351 2.20637 
18612 1 1.57001 2.45065 1.39003 
7133 3 -1.02775 -5.04391 -1.88921 
7134 1 -4.8713 -4.55096 5.22826 
7132 1 -3.97431 0.540129 2.86945 
16321 1 -3.19339 2.88742 0.737714 
16322 3 1.30601 4.60192 5.44679 
14312 3 -5.10648 -1.4211 -0.0958934 
14313 1 -1.40814 -2.62705 -0.853917 
18057 1 1.88514 3.91402 0.543287 
14311 1 3.33113 4.53582 -3.21404 
11887 1 -3.52258 1.24993 3.01003 
20518 1 -1.81963 1.2764 0.787327 
15464 2 1.18884 -2.00359 -0.425505 
20519 2 -1.397 0.712703 1.77615 
20520 1 3.83611 1.77574 -1.45427 
1861 1 -2.90465 -4.72761 1.54802 
1863 1 -5.38736 -1.28052 4.36985 
1862 3 -3.19689 -1.40063 -3.1311 
3403 1 0.377682 -2.18526 1.10729 
15463 1 -3.28499 -0.958758 -1.3848 
3118 1 4.6883 -0.280532 0.984698 
3119 3 -2.76679 2.95954 -1.46652 
17923 1 3.20334 -1.13798 0.342634 
3120 1 0.330144 1.6312 -4.30396 
17924 3 -2.94239 -0.915285 4.42378 
3404 3 2.07744 1.92166 2.93164 
8866 1 3.13254 2.57196 1.99208 
3405 1 0.491675 -4.19771 0.0479523 
8867 3 2.79668 1.23113 1.41523 
9127 1 1.13959 -2.11929 2.21852 
9128 3 1.17737 2.1319 0.0251457 
1379 3 1.39034 2.59306 1.70506 
9129 1 -3.07737 0.896822 4.73336 
1380 1 -2.94114 -7.78998 0.82301 
19505 3 -0.689198 4.87892 1.28174 
1378 1 1.57232 4.64631 -1.37303 
2681 3 -3.56354 0.437648 -0.0388592 
2680 1 -0.506443 -3.14214 -0.596197 
2682 1 2.28095 6.36512 -3.12032 
7434 1 1.91094 -3.59105 -2.92143 
7433 2 -0.96819 3.25527 1.6135 
7432 1 -2.72638 -0.0663809 2.15929 
17473 1 -3.91636 1.67983 -0.199049 
12665 2 -1.45368 1.4985 2.21596 
12666 1 4.71746 -2.93867 -2.1361 
12664 1 -3.19675 -1.46419 -1.99421 
5607 1 -1.99488 -4.80273 5.44096 
5606 2 -0.235542 0.15519 -5.44741 
19013 2 -0.600247 6.21208 1.9688 
7541 2 2.78575 0.148371 0.187984 
19014 1 2.23544 -1.96721 -5.72332 
7542 1 2.68236 -5.69627 1.9403 
14743 1 -4.01086 7.62912 1.85069 
7540 1 0.672159 2.04879 2.53576 
20791 1 -2.00367 -2.64901 -3.8546 
21458 2 -1.94193 -4.35975 1.76269 
21457 1 2.77396 5.76201 0.749021 
9770 2 4.1945 -1.77555 0.752548 
9769 1 4.84949 -1.04963 -6.69238 
21459 1 -1.682 3.44032 5.85938 
4824 1 -4.12366 -1.81186 2.05969 
18611 2 -3.20784 -0.0724825 1.44209 
4823 2 -0.375224 -1.76475 0.60119 
4822 1 8.17018 0.641626 -2.9418 
18610 1 0.492326 -4.33699 -5.7658 
16859 2 -5.2946 -1.48892 -3.09901 
16858 1 -5.56531 -4.96977 4.06698 
17050 1 -1.78552 -1.84318 0.215221 
16860 1 4.79535 2.41943 0.0795711 
7251 1 -3.41106 1.662 4.69539 
328 1 0.500084 -0.187095 0.467001 
7250 2 -2.72407 -0.315461 1.19169 
329 3 0.895782 -0.0626321 -0.843899 
330 1 -0.745232 1.0724 5.14355 
16323 1 2.79067 2.77566 -4.66257 
1757 3 0.364223 -4.99401 2.95543 
1758 1 -5.97542 4.07278 1.32457 
1447 1 0.280121 -3.70827 -5.36041 
1756 1 -0.940699 -1.85931 4.85851 
1366 1 -5.81468 3.78112 0.497677 
16761 1 -3.10645 -0.016589 3.55214 
4587 1 3.85606 3.072 -3.0477 
16760 3 2.53992 1.43435 -1.90824 
16759 1 -2.02651 0.0235922 6.30348 
4585 1 -3.33158 -0.804187 -2.37326 
4586 3 -0.446835 0.221058 3.42893 
12517 1 -5.44631 -4.53945 -2.46484 
15801 1 -0.287571 -0.630327 -2.87856 
15800 2 -2.0315 -0.46124 4.29178 
15799 1 -2.15186 -3.31065 -2.24073 
6181 1 -0.4756 3.94458 -0.67209 
17159 2 2.14033 -2.18914 1.00469 
11888 2 2.20249 1.84547 -2.67515 
11889 1 1.4207 -4.10827 1.50692 
6182 2 2.02925 0.479723 1.19152 
6183 1 -0.224072 1.19243 -0.430345 
18056 2 -0.873153 -1.5513 -0.765104 
18055 1 -0.967303 -1.60561 -6.04323 
14884 1 2.97576 -5.36592 0.14153 
14885 2 -0.753686 3.59872 -0.39954 
17160 1 -1.61654 -0.476156 -3.37966 
14886 1 -6.77998 0.187561 -0.643682 
2281 1 -1.57309 -0.604745 -3.52118 
15465 1 3.05741 -0.0531953 -0.414874 
2282 2 -3.06082 1.52772 0.0548303 
18765 1 3.67433 -2.97363 -5.50909 
18764 2 -0.444389 1.55178 -1.35481 
18763 1 -4.07141 -0.646065 1.982 
2283 1 0.297515 1.76704 -2.32107 
8973 1 -0.473423 -0.470811 3.4504 
3464 2 -1.13768 -1.07417 2.96741 
1540 1 1.07547 -2.15783 -2.9612 
3465 1 0.241734 -1.22049 -1.65241 
11136 1 0.391244 -0.0503114 4.54062 
3463 1 0.234736 3.19329 5.34762 
16788 1 -0.477627 -0.21908 0.95951 
11134 1 -3.60197 1.79925 -4.67699 
8971 1 1.52042 -2.67244 -1.68257 
8972 2 -1.02604 -0.637402 2.80585 
16786 1 -1.49683 1.89313 -3.86459 
16787 2 -2.54292 4.07349 -4.33543 
17925 1 -1.26481 4.05149 2.33642 
15459 1 -0.232079 -4.39457 -2.85867 
15458 2 0.604575 -1.68758 -3.67204 
12930 1 -1.85305 2.78036 0.469201 
11135 2 -2.52012 -1.23285 -3.8194 
11380 1 -0.967997 -3.60849 2.29311 
19506 1 0.464664 3.50088 -6.67052 
12929 3 -0.259123 0.279532 -4.43281 
12928 1 1.97583 2.7739 2.43007 
9502 1 0.307123 6.1823 2.33952 
9503 2 1.65933 4.55842 2.46272 
12486 1 3.67187 2.57335 -2.55379 
11131 1 1.10831 -1.74767 -5.04223 
11132 2 0.383494 -5.53672 1.39024 
12485 2 -0.82986 3.88926 1.3326 
12484 1 2.66133 8.42792 5.86651 
20793 1 -1.86579 1.37844 -1.76685 
3246 1 1.23067 7.3075 5.01455 
16387 1 5.09949 2.03401 10.0664 
3245 2 -0.256838 4.20661 3.43412 
3244 1 -2.86012 -0.361769 1.58008 
15630 1 -2.24368 -2.07339 -0.643001 
16388 2 3.58566 2.08379 3.93066 
16389 1 1.39779 4.05538 0.148394 
18947 2 1.39477 -1.94279 0.518111 
18946 1 3.26695 -0.365713 -3.30767 
18948 1 -0.91293 -0.283324 2.96507 
15985 1 -2.44343 -9.50737 -3.7275 
556 1 -0.0799936 2.78002 2.91388 
558 1 -1.31347 -1.78585 3.68621 
557 3 2.79406 -1.47395 -0.502876 
10749 1 -2.34171 1.63772 1.26392 
3871 1 -2.73458 6.68846 -0.78036 
3872 2 -0.301798 2.56564 -0.913596 
3873 1 -5.90353 3.21727 3.70632 
5605 1 1.72984 -2.13876 0.737161 
13664 2 -2.70551 -0.958696 1.2039 
10748 2 -1.93499 2.79543 1.17294 
13665 1 0.904906 0.584374 -5.95615 
10747 1 -1.66275 -10.1174 -6.59998 
19012 1 -1.33403 -2.19528 1.25298 
13807 1 -5.00383 2.9602 1.52824 
13808 2 3.31565 -1.29388 -0.861237 
13809 1 -0.927026 2.1315 0.843889 
13663 1 1.63325 -1.86608 2.24083 
12342 1 3.1411 0.751765 0.0714967 
7806 1 -1.41769 -0.954362 1.83129 
6233 2 1.68931 -6.77882 1.19266 
20792 2 2.07863 -0.0210073 -4.24394 
11248 1 1.82863 -1.0701 5.11356 
2310 1 -2.49779 0.385465 0.530796 
9771 1 1.49382 -2.12775 -6.50905 
6234 1 -5.05832 -2.28378 -3.93806 
14490 1 -1.14836 3.78931 3.82358 
14489 2 -0.580835 -1.39571 1.46349 
14488 1 9.1171 -0.958189 -2.10242 
11249 2 0.633038 0.795637 -1.96655 
17563 1 -2.79584 -1.7835 -0.666452 
3315 1 -0.0138404 4.10727 -4.59949 
3314 2 1.79132 -0.081822 -5.95294 
17051 2 -4.1478 2.90018 2.4639 
2309 2 0.891056 2.15494 0.817886 
17052 1 0.92254 4.42154 5.67351 
2308 1 -1.26735 -1.67033 3.39869 
4730 2 -2.2926 -0.791523 -1.32248 
4729 1 2.44761 -3.984 8.25687 
1276 1 10.9463 1.019 8.26338 
3313 1 -2.53618 -1.62146 3.6223 
18819 1 1.02643 -6.01011 -3.42814 
21118 1 -1.37448 1.4966 -1.77795 
15005 2 6.15091 2.20654 -0.226419 
7249 1 -2.07134 0.058278 7.81683 
15006 1 2.58236 -2.13122 3.21401 
1278 1 -1.12242 1.64652 -5.71644 
1277 2 3.48849 -1.84075 -1.05777 
16190 2 -1.88103 -0.631214 -3.30374 
15004 1 0.597032 2.66662 -0.53456 
1449 1 2.63268 1.88102 -5.64264 
16191 1 1.46668 3.40123 3.50976 
21119 2 -1.35592 -3.79664 0.458226 
1448 2 -0.17001 -5.26096 -4.6173 
5495 2 -2.53111 -0.980274 3.82627 
5496 1 -1.29463 7.30536 -3.31792 
5494 1 -1.79861 4.12608 4.97104 
18531 1 3.03873 2.23223 -0.938163 
417 1 5.3196 1.58234 -4.0587 
416 3 -0.0175701 0.635286 1.66981 
415 1 1.75612 -0.331591 1.19223 
1033 1 1.29239 -0.321245 -1.75333 
8400 1 5.98782 1.28286 6.00721 
8398 1 -2.14808 -0.674829 1.38232 
8399 2 1.72959 -5.24218 -3.53207 
7111 1 -0.675818 2.02615 -6.40382 
3283 1 -0.062492 -0.687489 -4.95527 
3284 2 2.89616 0.312125 -3.41544 
3285 1 5.47914 -1.67561 0.78181 
13848 1 -2.08691 1.19176 2.93789 
13847 3 0.215375 -0.762718 1.53092 
12518 2 2.80202 -1.36664 -0.762272 
7804 1 -1.66879 -3.56812 5.91635 
7805 2 0.642925 3.46255 1.06734 
12341 2 -0.952682 -1.43426 2.19522 
12519 1 -1.57223 -0.863105 3.8517 
12340 1 2.29505 -5.93129 3.71298 
17158 1 0.288591 -0.50915 1.23064 
7614 1 -3.43995 -3.62042 3.48574 
7613 2 -5.19515 -3.24337 -0.45373 
7612 1 4.22057 2.12122 -3.19901 
11229 1 -2.39724 -4.34601 -1.59131 
17392 1 -6.26265 0.382574 -1.95074 
11228 2 0.264866 3.02693 -1.15526 
9597 1 -0.439167 -1.61999 3.45667 
17817 1 -4.08259 -0.262177 0.987183 
17816 2 1.33426 5.44117 -2.81928 
13614 1 -1.83211 2.82504 -0.650163 
7639 1 1.23423 0.389083 -5.24254 
7640 2 1.03625 -4.73925 -0.726301 
7641 1 1.51514 -4.46916 2.52951 
13612 1 0.0362541 0.619213 -0.421968 
13613 2 -2.74266 1.84322 -3.01433 
18547 1 -1.42021 -2.14426 -7.79495 
2530 1 3.15109 5.02635 -2.10976 
18818 2 0.34813 -0.711335 0.259839 
9646 1 -5.49027 -0.226192 -2.0523 
18817 1 -3.04682 1.40985 0.104153 
9647 2 -0.915402 0.423864 -0.0715812 
338 2 1.75058 -1.66436 -2.53695 
9648 1 0.642721 3.25087 -2.33032 
1542 1 0.339364 3.34708 -3.13253 
1541 2 2.52165 4.23467 1.46658 
337 1 -1.23258 -1.07533 3.94166 
14301 1 0.228651 1.75729 -0.298982 
13398 1 -2.72203 1.32441 -0.846395 
13397 2 0.371938 -1.5826 -3.91297 
15457 1 1.3338 -0.0963441 -0.838015 
16792 1 -0.544604 -3.49768 6.83359 
9750 1 0.0838927 0.920111 -0.493531 
339 1 -0.406472 -3.09511 6.18509 
16794 1 1.30606 3.79604 6.90594 
16793 2 3.55404 1.44285 -2.07794 
5854 1 -4.48229 -2.14468 0.92273 
13782 1 1.10378 0.935501 1.37168 
13781 2 -1.3175 1.55367 -4.05137 
9749 2 -1.6507 -0.908264 3.77942 
5855 2 0.758312 -0.677018 1.5209 
11381 2 -3.03256 1.20867 -0.217033 
1367 2 2.61712 -2.57814 0.544698 
5856 1 -1.11391 4.35055 1.67225 
11382 1 -4.26812 -3.8059 -4.73954 
9748 1 1.31925 -3.4216 3.75026 
1368 1 -7.94933 3.4056 3.42584 
11457 1 0.82634 1.97141 0.628398 
9755 2 2.5012 -0.866826 3.61707 
9756 1 -3.00827 3.19348 -2.8428 
9754 1 -6.78779 -2.4737 -0.968423 
10941 1 -7.72198 -2.41603 1.14529 
11456 2 5.16552 -5.07606 -0.0847221 
11455 1 -1.8859 0.845528 -1.5511 
14371 1 -0.733448 5.69845 1.57738 
14373 1 1.71465 -1.11081 -8.19492 
14372 3 -1.8823 0.00412933 0.714405 
10038 1 3.30378 3.75895 -0.663997 
10037 2 2.53408 -0.288665 -0.445805 
10036 1 5.73571 -5.15645 4.30448 
15244 1 2.27054 -2.97945 -2.16607 
16803 1 -2.36949 -0.681196 6.07858 
15245 2 -1.60095 -0.0468474 4.0126 
15246 1 -5.20673 3.02317 0.694286 
9504 1 2.99399 2.38776 -5.20506 
17657 2 -1.89069 0.188673 0.885948 
17656 1 -3.56908 0.0202579 -5.05139 
2790 1 2.60543 -2.55757 -9.08656 
2789 2 1.32746 1.76024 -3.29603 
2788 1 -2.64177 -2.71965 2.53365 
11133 1 -3.2312 5.81008 -3.94859 
5237 2 3.31136 2.69586 -2.1523 
5236 1 3.80991 -0.0235657 -3.68373 
5238 1 1.26266 -1.69685 1.69877 
11824 1 -5.00694 -6.82056 0.917853 
16802 2 2.00862 -0.151025 0.779465 
15628 1 3.7406 -6.21805 1.93599 
15629 2 3.80221 2.34638 -1.37562 
21295 1 -1.95999 0.481126 0.232454 
20629 1 0.098557 1.38646 3.8155 
21296 2 -1.45222 -0.102224 -2.12929 
20630 2 2.7113 -2.28957 2.97252 
16801 1 -1.67614 -8.61455 -0.782125 
21297 1 -2.03492 1.70755 -2.12059 
16336 1 0.51605 1.29469 -0.305067 
8807 2 1.71722 -0.771824 0.254808 
15986 2 0.427225 3.30407 -0.731639 
15987 1 0.650441 4.59558 -2.45437 
9331 1 -1.26009 0.54391 4.79141 
4843 1 -4.87359 3.39484 3.37407 
4844 2 2.3497 -2.56682 -2.47872 
4845 1 -2.65443 6.64257 -3.29431 
8806 1 1.6156 0.789218 4.53306 
9332 2 -2.80784 0.429797 2.88156 
9333 1 4.3854 -0.954931 -1.1789 
3015 1 0.368389 4.00931 0.731856 
3014 2 -3.1707 1.60013 -0.736607 
10309 1 3.97904 1.95032 5.05065 
3013 1 -4.38921 3.24781 2.65468 
10310 2 1.77527 -3.68767 1.61296 
14792 2 1.67213 0.26091 3.16503 
14791 1 2.21262 -5.39358 -4.02448 
20655 1 -0.688083 -2.46563 -4.9471 
20654 2 3.22611 -1.04639 1.83257 
15150 1 -3.18324 -4.78389 2.59709 
14793 1 4.62092 2.87884 -5.66924 
10402 1 2.91829 6.78009 -2.58557 
4626 1 -8.10815 -0.587963 -6.59496 
20653 1 -1.10749 -6.71803 0.415763 
3164 2 -2.92028 3.03865 -1.30948 
4624 1 -0.628907 5.24156 -2.92093 
4625 2 -3.34658 0.356608 0.667365 
3165 1 0.67845 4.69006 -3.58967 
19692 1 -2.00009 -3.64664 2.11043 
15909 1 -4.27413 2.05547 2.39246 
3163 1 -0.179544 1.16463 -0.755454 
19691 2 -1.21072 1.65953 2.25286 
1023 1 2.0996 -4.90444 3.82819 
15784 1 -0.254289 -1.4176 1.29155 
3950 2 1.72043 -0.0532239 -2.78055 
6232 1 -1.72784 1.27835 -3.17353 
1022 2 -0.599444 0.174238 -1.59891 
1021 1 1.80021 1.76548 -3.00907 
10800 1 2.61029 -6.52837 -2.07758 
10798 1 1.41588 -2.14008 -2.86229 
10799 2 1.2858 0.635787 1.8433 
21358 1 2.93365 -7.11338 2.31881 
3949 1 3.76989 6.34063 5.7706 
14095 1 4.50216 -2.41176 -5.99409 
21359 2 -0.0183504 -2.30761 2.22089 
1051 1 3.00457 5.8504 -2.26275 
3951 1 -0.541748 4.72692 -1.56239 
21202 1 0.741357 2.84929 1.2861 
21203 2 1.24765 -3.28273 -2.8498 
21204 1 1.16711 0.541473 -3.34224 
11250 1 -2.56897 0.750472 5.74261 
1052 2 -0.915611 0.449596 0.396377 
1053 1 4.47831 -10.0205 7.64695 
17565 1 -2.44059 -4.04374 -3.56439 
17564 2 -2.56991 -1.50195 1.14572 
14810 2 3.15892 0.0911751 -4.60237 
14809 1 3.16986 -2.042 4.37484 
17157 1 -0.342141 3.3077 3.76286 
14811 1 4.22416 -2.4717 -0.693268 
4731 1 -0.442687 1.70292 5.65599 
18788 2 1.84458 3.05276 -6.20201 
9121 1 1.13115 2.96958 -4.65776 
9122 2 -0.901144 -2.79581 3.83804 
18789 1 3.49274 -1.41007 0.78904 
13384 1 -1.67867 -4.40854 1.56481 
13385 2 -1.14919 -2.80388 -1.02097 
13386 1 9.14221 0.672799 2.58658 
3740 2 -0.257369 -3.00418 0.23742 
3741 1 1.31523 2.85959 -2.96401 
4764 1 0.142954 -2.29499 2.73763 
18787 1 -3.09588 3.58033 -0.625129 
3739 1 -5.7307 -6.00847 -0.269684 
21120 1 -5.71207 1.67229 -4.00391 
4763 2 -0.406251 -0.848248 1.6994 
4762 1 -0.241498 9.02828 5.80492 
16006 1 -1.99506 0.866195 6.63173 
11218 1 0.0479926 0.84899 -2.57587 
11219 2 -1.59283 -0.386519 -1.47711 
16007 2 2.70419 0.817989 -0.77144 
16189 1 -0.943726 2.70074 -4.53317 
11220 1 5.9493 10.5492 5.02917 
18529 1 2.33731 3.06663 4.05941 
11917 1 2.28989 4.62005 -2.55614 
18530 2 -0.579855 1.5215 2.50886 
6625 1 -1.63943 0.875743 -6.53713 
6626 2 2.19447 2.98684 3.05327 
5130 1 -3.05594 1.86539 0.521957 
5129 3 2.94494 -2.11321 0.905749 
6917 2 1.30318 0.929744 0.153173 
6918 1 -6.94287 -0.861218 1.81663 
6916 1 -4.75411 3.06109 -0.997338 
7112 2 2.75787 -0.0456998 1.81378 
7113 1 -0.720304 -1.16188 -7.56345 
16885 1 -1.13567 1.07841 1.69863 
5212 1 1.16625 -0.057325 -0.289101 
5213 2 4.73786 -1.68445 0.138544 
16886 2 -2.04944 -0.574712 -2.041 
15907 1 -0.314181 2.13677 1.04644 
9595 1 0.461565 -5.14154 6.61231 
15908 2 -3.91356 1.55114 2.14522 
9596 2 -0.806224 5.06895 0.440241 
5214 1 1.79087 -1.96915 -2.15214 
13846 1 -0.00462433 0.463475 1.2113 
16815 1 -2.71 4.71108 4.53648 
6432 1 2.36985 -3.47777 0.702004 
16814 2 2.29794 6.38086 -0.412106 
6431 2 2.17132 -0.838703 -1.13969 
13566 1 1.62512 -2.48775 -0.679291 
13980 1 -3.92375 0.0128455 4.73952 
13565 2 3.52689 -2.32038 -2.67534 
16813 1 0.0529956 -4.8136 1.65358 
11227 1 -3.12776 -0.681396 1.28393 
18085 1 -5.26754 -2.39333 3.01542 
17393 2 0.252665 0.258757 -0.46464 
18086 2 -3.64162 -0.641366 1.30664 
18087 1 1.3631 3.19028 -1.99765 
17394 1 2.98051 2.67377 1.35936 
16905 1 0.813201 0.319865 0.671997 
13979 2 0.264697 2.01638 -0.180579 
13564 1 3.94787 -3.85315 -2.05757 
17815 1 0.296144 2.89588 1.74439 
18548 2 1.58927 0.878001 3.69189 
20476 1 -4.51772 -3.38277 2.4851 
14017 1 4.65818 -2.12807 3.62082 
14018 2 1.35152 3.50013 0.962659 
14019 1 4.52111 2.45895 -0.381018 
18549 1 -1.51608 2.05799 -0.147148 
8554 1 -0.345105 -7.78602 -3.57893 
3991 1 -1.39263 -4.55612 -1.82217 
5884 1 -0.18331 -8.55446 -2.3057 
1012 1 2.72214 -0.348632 2.83825 
20477 2 -1.99647 4.22633 -0.418624 
3992 2 -1.13749 -1.04084 -2.5346 
5885 2 -4.05845 -0.277348 -3.97318 
3993 1 3.76212 -4.01231 1.74301 
14300 2 3.29083 -3.83823 4.29891 
14299 1 6.18925 -3.83099 2.49649 
3468 1 -2.75846 3.08857 -3.15151 
3467 2 -1.07272 2.77269 -1.4597 
555 1 5.22316 0.566543 3.26154 
3466 1 2.45601 2.10588 0.47262 
2532 1 -0.576739 -4.4502 1.17975 
2531 2 -2.24378 2.16628 -0.219395 
5886 1 1.03866 -4.37797 -0.941947 
7740 1 -2.95226 -0.881061 -3.51294 
554 2 2.15883 -1.97051 -4.27517 
18639 1 5.79103 -2.47014 6.33901 
19275 1 1.24152 -1.8138 -2.5145 
19274 2 1.74543 -2.4365 -3.32801 
553 1 0.326838 -1.19465 1.26056 
13780 1 5.14536 -0.236564 1.905 
11933 2 0.502161 4.7978 2.86029 
19273 1 -2.39055 1.90404 2.26976 
10939 1 4.10478 -1.10395 -2.69137 
11934 1 0.161966 1.66744 -2.68719 
7739 2 -0.364864 -1.47567 0.278813 
13367 2 2.53265 -6.09712 -0.847957 
16052 2 1.52467 0.738239 -2.03129 
6627 1 0.951397 -3.35758 -0.600066 
13368 1 -1.81341 1.24835 -2.37876 
7122 1 0.940193 3.10089 -6.9795 
10940 2 -0.35193 3.57595 -2.79769 
7121 2 -4.89633 -1.74422 1.51731 
7120 1 -7.80039 3.81311 0.504486 
16053 1 -1.96145 4.09587 -2.86 
16329 1 1.94752 -1.32949 -0.164823 
13366 1 1.20043 -1.57753 -2.01409 
16051 1 -3.72702 -2.49015 7.09871 
1034 2 -1.29382 3.14054 -1.88363 
1035 1 -0.00834228 -2.42055 0.173456 
14651 2 4.11225 -0.569001 3.23304 
14650 1 -1.79194 -6.00804 -6.24212 
3413 2 -0.86332 -2.16878 -2.0863 
11398 1 -4.83199 -2.37156 3.49746 
11399 2 -1.27746 1.46989 0.183159 
8018 2 1.43908 3.2876 -1.683 
9880 1 10.2796 -3.14431 -7.5821 
9881 2 0.183782 1.53695 1.67605 
8017 1 -0.24717 2.46187 1.76106 
8019 1 2.42417 3.29394 -5.00989 
14615 2 -3.77315 1.90432 -0.340936 
9882 1 -2.249 0.271319 -1.76009 
13249 1 -4.55322 -1.97757 3.056 
1596 1 -1.24136 3.63741 0.561128 
13250 2 -1.79749 -4.94874 1.70069 
17658 1 3.36644 3.8458 -1.62184 
13251 1 2.30686 -2.99786 0.344779 
14614 1 -6.40494 -2.91012 -2.90306 
1595 2 1.89697 0.0917408 -0.252988 
14616 1 2.34533 -3.19375 -2.22028 
1789 1 0.234656 -7.1038 -3.40013 
13647 1 -3.05464 -0.716079 -2.5449 
3414 1 -5.7835 0.877504 -3.09852 
17352 1 -2.16562 3.70151 5.29429 
17351 2 0.658368 -2.4573 2.55724 
17350 1 -0.0113412 -2.65294 -6.15978 
16338 1 3.50047 -2.88149 -3.96051 
16337 2 -1.1063 1.62713 -0.806795 
1594 1 3.10569 -2.44322 -2.17736 
11826 1 0.318066 -0.157385 5.91613 
11825 2 3.13716 6.95272 0.474643 
1791 1 -2.83736 -3.98803 1.21997 
16765 1 -1.05641 -2.94774 -4.47646 
1790 2 -1.17844 -2.82924 1.03456 
4391 2 2.55669 3.29551 -0.813432 
16766 2 0.0437829 -2.95225 -0.302929 
4390 1 4.68369 -2.24661 2.20393 
2025 1 0.728837 3.71011 -3.82818 
16767 1 2.37986 4.50946 0.39283 
20631 1 1.39397 1.61771 -7.27913 
2024 2 -3.71268 3.9788 1.55091 
2023 1 2.49796 -8.63137 -1.00721 
8808 1 0.117447 -6.86907 -5.78943 
7742 2 -2.42816 -1.08082 1.19785 
7741 1 2.52526 -1.69526 -3.95879 
7743 1 -1.33957 4.16466 0.762045 
16174 1 -0.819234 2.16639 -5.38743 
17086 1 2.03256 5.70776 5.98564 
17087 2 0.611045 2.30052 -1.7653 
8064 1 1.94944 0.892363 -5.66937 
9123 1 -1.3315 1.5853 -0.583497 
8063 2 -1.00912 -1.63018 -5.58444 
8062 1 0.00861804 -1.37073 9.13408 
6011 3 3.29851 -1.40977 0.791106 
6012 1 -0.515986 8.00688 7.98156 
6010 1 0.848038 1.83757 1.71995 
10311 1 -5.00218 1.83112 0.906483 
17088 1 10.1483 3.32457 -4.27643 
20201 2 -2.66812 -3.43163 1.31088 
3273 1 -1.67475 0.786914 -8.54042 
3272 2 -1.53366 -4.44816 4.86865 
3271 1 -0.272579 4.23918 -1.0403 
10404 1 1.38797 -0.658788 -3.89743 
20200 1 -1.17956 -1.94744 0.0374467 
15275 2 -1.39811 2.45443 1.55594 
10403 2 -0.793405 4.20339 2.98255 
14429 2 2.39956 -3.11821 2.92143 
14430 1 -1.8154 6.35207 -3.83958 
7707 1 0.302223 7.41126 -0.587165 
14428 1 -1.97255 2.11908 -1.92542 
15148 1 1.59418 -0.607072 3.85373 
15149 2 -3.96855 -1.23254 3.13805 
19690 1 -1.27765 -2.6601 1.57652 
3575 2 1.56657 0.331484 3.07524 
3576 1 -1.04348 4.82627 -0.0821584 
15276 1 -0.775117 -1.57198 -5.645 
3574 1 -3.91092 0.835322 -0.149874 
6576 1 2.67309 0.774536 -2.67098 
9115 1 5.3553 -2.38267 -3.87352 
13429 1 -4.73335 1.5393 3.6058 
16107 1 -3.12511 0.394757 -3.30228 
16106 2 1.1926 0.245354 -1.48142 
16105 1 -0.100785 0.492447 4.29206 
15786 1 1.49454 -4.53129 -0.8647 
15785 2 -0.689571 1.2065 3.42885 
7748 2 -2.29434 -0.158323 0.0371809 
7292 2 2.99091 2.41514 0.722035 
13430 2 -1.37908 1.84537 2.56907 
7747 1 2.20579 0.872366 -7.71383 
6214 1 -0.512088 3.21654 -0.362794 
13431 1 3.83841 6.30633 -6.16719 
7419 1 -2.63856 0.899192 0.773378 
14097 1 1.94087 -0.517482 3.14966 
6215 2 5.22163 2.36108 -2.19606 
14096 2 -4.43369 -2.05134 2.96559 
6216 1 -2.41393 1.17099 -3.19317 
21360 1 -2.201 0.702014 2.62953 
687 1 -8.60326 -3.19484 1.78746 
686 2 4.47615 2.60095 2.20327 
12295 1 3.07179 2.17229 -0.619694 
9009 1 0.765008 -6.51085 12.0322 
17156 2 1.84044 -5.15656 4.96377 
17155 1 5.91211 6.58808 1.15532 
685 1 3.16363 0.374968 -2.07162 
9008 2 1.15606 -0.656828 3.25652 
20040 1 -0.131609 -0.582141 1.28791 
7291 1 -3.76081 -2.08835 6.10797 
13089 1 -6.62775 1.93617 -0.676606 
1590 1 3.31373 -1.77676 -2.48977 
9007 1 3.69117 -0.18437 6.35642 
13088 2 0.249 3.67388 -1.07842 
1588 1 4.28776 1.32942 -4.90381 
1589 2 -2.79304 -1.99915 1.35824 
13087 1 5.66444 2.42826 -5.01948 
5814 1 1.36511 0.313067 -0.561948 
5813 2 1.47732 -2.80342 2.06888 
9335 2 2.05729 -1.03674 1.91516 
21020 2 -0.322914 -0.0887785 -1.50857 
5812 1 -2.88002 -4.23818 -0.502029 
16008 1 -0.0947563 7.74448 -9.66106 
5906 2 -5.16316 -1.78728 -5.04875 
5905 1 -4.07505 -1.05432 2.65468 
11919 1 -3.61721 -1.65958 -0.631525 
5907 1 0.132152 -1.08741 0.219707 
21021 1 2.69158 -4.24794 -0.94745 
11918 2 5.73281 0.626095 3.5254 
1641 1 4.19768 -3.20178 -1.40574 
10512 1 -2.96261 -1.59575 -2.2989 
1640 2 0.559797 0.792976 -0.0842358 
1639 1 -3.73502 0.346106 5.1124 
13735 1 1.00033 1.19612 -2.26692 
13736 2 0.703515 -3.77454 3.92997 
13737 1 -1.57088 -1.16979 -5.03406 
5128 1 -6.49966 4.84789 -1.76731 
10249 1 2.06013 -2.84113 -5.72341 
20306 3 -0.292887 -2.71482 2.83863 
10250 2 -0.357639 1.45421 -0.88988 
20305 1 9.31805 -0.862835 -0.155112 
10251 1 -1.8084 -4.34052 -0.759721 
167 2 0.818291 -0.827667 -0.86383 
166 1 -2.14152 5.97295 -3.70382 
7867 1 2.55308 -5.61661 1.01494 
16887 1 3.59751 6.91435 -3.49329 
4265 2 -1.46131 -2.89443 3.76359 
7868 2 -1.80585 -3.1317 1.64187 
7869 1 1.74402 2.46033 1.10817 
4264 1 -5.9609 -3.40484 -0.134301 
13234 1 -1.92269 -0.0445517 3.44401 
1166 2 0.461682 -1.04966 1.17958 
13235 2 1.18122 -0.676735 0.363553 
4379 2 1.66826 -2.92088 -0.223763 
6430 1 0.477853 1.21766 1.83218 
1165 1 -1.69865 -4.99916 -3.25712 
4380 1 -1.35209 -2.83825 1.59736 
13236 1 0.469995 -0.868369 2.41387 
17538 1 -5.73627 -0.332381 6.82097 
6186 1 2.60445 0.692157 -1.24662 
6184 1 0.0284926 1.15489 -6.28539 
6185 2 4.73286 -1.20868 5.8415 
16903 1 3.59645 -1.74487 1.40777 
17537 2 -0.830812 -1.59283 3.01972 
13978 1 3.44643 1.71475 1.16456 
16904 2 2.51266 -6.09048 1.36917 
4958 2 -2.98203 4.01078 4.66609 
4957 1 -0.0225716 2.35381 10.6154 
7587 1 8.86337 -0.989586 -1.68788 
7586 2 3.86614 -4.39931 1.70893 
20478 1 -1.89248 3.57659 -5.52104 
7585 1 1.79487 -3.90525 -1.6498 
17536 1 -2.20306 3.38814 4.07343 
3267 1 5.38792 6.4027 -1.38963 
20039 2 4.18366 0.859666 0.285923 
8555 2 -1.85434 3.42767 -1.6458 
10345 1 1.44355 -0.773237 4.71429 
8556 1 -5.16069 -2.85312 -3.29822 
1014 1 -0.389243 4.5256 2.74875 
5222 2 -0.599603 1.60846 2.15835 
10346 2 -1.91271 0.0867321 0.340518 
20038 1 -2.18082 -3.91175 4.44579 
1013 2 1.93389 0.20686 -0.186228 
5223 1 -0.584156 5.67551 2.62664 
2529 1 -0.687282 4.41762 0.857158 
5221 1 2.02101 -4.2826 -0.256021 
18025 1 7.52192 -2.36935 2.63469 
4313 2 -2.95729 1.70362 -1.53519 
18027 1 -4.30975 -2.1939 1.8305 
18026 2 -4.13423 -0.5946 -3.35515 
8945 2 0.842985 0.356846 3.94913 
19611 1 -2.6218 -0.160194 3.0995 
9336 1 1.24543 -3.76188 -4.16047 
8946 1 -1.05015 -1.50396 -4.55742 
19610 2 2.23847 1.11678 -0.899629 
4314 1 4.62326 -3.60632 -3.26562 
10347 1 9.0136 -0.335544 1.4927 
8944 1 -0.765547 0.692794 2.7559 
13320 1 -2.44218 0.877444 -8.53827 
18637 1 -3.21498 -3.29928 -1.25024 
13318 1 -5.2695 -5.36381 -6.27644 
18638 2 -3.14627 3.41539 -3.07662 
13319 2 -0.311232 -2.628 -3.80473 
16327 1 2.38938 -3.11442 -2.26998 
11932 1 4.04072 -2.55656 3.7059 
19609 1 3.24337 4.08459 1.56057 
4312 1 -2.18286 0.413026 -0.574971 
18892 1 -2.60992 -1.16297 -0.896598 
16427 2 -0.0609736 -5.05245 -7.21164 
16426 1 1.97486 4.80895 -2.7897 
14908 1 -0.364436 -2.54058 -4.17005 
14910 1 8.36205 -2.86859 7.32815 
16328 2 -0.659587 -2.80236 -3.8829 
14909 2 -1.93113 1.53326 -1.54515 
14652 1 0.157778 2.75523 -2.8119 
16428 1 -0.765253 -2.0539 -0.0328949 
11319 1 -2.47764 -3.88907 1.47851 
12638 2 0.132237 -2.44686 -3.00422 
12637 1 -2.76422 -2.96582 5.13443 
11317 1 -1.72389 0.657546 -2.03393 
12639 1 1.21272 -1.82411 -2.08154 
11318 2 0.552136 3.2756 -0.90914 
3412 1 1.46653 1.57006 -1.64165 
15978 1 2.37422 -3.15023 -1.33561 
8122 1 -2.66892 -1.24849 3.35088 
13842 1 3.71719 2.62168 -4.91625 
8250 1 5.56579 -2.70178 0.496965 
18941 3 2.81378 0.0226951 2.46009 
18942 1 0.367256 2.81328 0.259648 
8249 3 -2.92449 3.29503 0.913379 
13841 3 -3.16223 -1.90304 0.766426 
13840 1 -1.55025 4.15927 -1.14084 
11400 1 2.96434 -0.907703 -0.714925 
6877 1 -2.34539 0.645259 0.20705 
18501 1 -1.47772 -5.92095 5.40318 
18500 2 5.19174 -2.50497 0.499075 
19385 2 -1.38662 2.40842 1.42024 
19384 1 5.18288 6.73346 2.85866 
6878 2 -4.43657 -3.10916 3.54746 
6879 1 -4.81948 0.939799 -0.240225 
13585 1 -3.09642 1.32778 -6.69294 
13586 2 0.247257 4.99594 4.37536 
6691 1 1.89614 11.2068 -2.38332 
6692 2 0.569918 -2.67641 1.28842 
6693 1 -0.248363 2.99407 2.95768 
20928 1 0.566438 5.50233 1.40354 
1545 1 3.89719 0.00443831 1.80715 
21147 1 2.11319 -3.99676 1.73454 
15201 1 -0.150931 -6.53435 0.409565 
20927 2 3.27803 0.833842 2.88611 
21146 2 -3.35834 -1.26325 -1.21087 
21145 1 1.65432 -0.372827 3.23748 
13587 1 0.667849 -1.4388 -1.2248 
1544 2 -0.338301 -2.38267 1.43187 
20489 2 -5.0352 -3.63157 1.14604 
20490 1 -4.23908 4.57242 0.964711 
15000 1 1.814 -5.41912 2.62795 
14999 2 0.177829 -1.11829 -4.35665 
20488 1 0.677401 5.75783 -3.39473 
13645 1 4.0336 2.36249 -1.32979 
1543 1 0.0389781 0.150268 -5.78726 
8123 2 3.05179 -0.682279 2.36001 
8124 1 3.14351 2.17555 -1.18674 
13933 1 -1.97141 -3.44371 7.44116 
13934 2 3.23757 -1.55459 -2.02072 
13646 2 4.5324 1.35119 2.87575 
17680 1 -3.10967 -3.53358 -3.8068 
2989 1 -1.14352 -2.46595 -0.842948 
2990 2 -0.0544306 2.85102 0.894321 
17681 2 -0.867012 -1.76308 -2.68461 
2991 1 1.90813 9.12149 2.64545 
13935 1 -0.718274 -0.26021 2.03296 
16176 1 -2.70418 2.65451 -1.86742 
4392 1 -1.96961 1.12648 -0.437521 
16175 2 -1.84836 1.45293 0.0846375 
4682 2 -0.383812 0.998339 -0.844767 
1461 1 -3.16443 -3.55742 -2.47723 
4683 1 1.26702 -8.06371 2.92344 
4681 1 -3.49827 -3.58011 -4.02899 
1460 2 -1.3869 -0.99233 -4.26 
4939 1 1.08073 5.18914 -1.52431 
1459 1 7.56396 1.75626 4.90682 
19005 1 -0.689775 -3.42016 -0.587076 
8248 1 -2.49472 1.09968 -3.38969 
19003 1 -3.32726 -4.17089 1.95748 
19004 2 1.00236 0.890321 2.20995 
7757 2 -3.35112 0.826765 -1.49136 
10080 1 -2.00485 -5.52094 6.59296 
7758 1 0.593902 0.804013 -4.17249 
10079 2 -0.580026 0.147372 0.381665 
10078 1 -2.38399 -2.45778 5.52891 
7705 1 -1.61481 -3.96544 -0.134183 
6886 1 1.65062 1.44354 2.81637 
6893 2 3.67648 1.56632 0.614169 
20202 1 -10.5059 -1.13417 2.97301 
12061 1 -1.84808 1.26487 3.83632 
7706 2 2.12709 -3.70752 -1.51581 
4168 1 6.92698 5.40536 1.74008 
14297 2 -1.62825 -0.0820379 -1.13022 
14296 1 -1.77134 -0.169997 -4.50818 
19438 1 1.06914 1.87992 0.460925 
19439 2 2.80275 -1.68727 -0.13209 
19440 1 3.32218 -2.22939 0.814859 
9117 1 1.64724 1.82515 0.569164 
6894 1 -2.04087 0.824678 -2.02312 
15274 1 2.05006 0.565462 -2.41605 
12139 1 0.588619 2.09109 -5.10526 
9116 2 -2.33539 -2.56386 4.49367 
12140 2 -2.34873 1.98475 -2.15875 
15199 1 -1.42917 5.29216 0.464634 
15200 2 1.05945 -2.91962 4.66837 
6574 1 5.03758 -1.45549 -3.11904 
12141 1 3.4693 -2.99947 -5.48371 
8674 1 0.574886 -2.11927 -4.14309 
8675 2 -3.60121 -0.850246 -1.06778 
8676 1 1.51575 -4.3888 -3.79952 
7749 1 -1.7909 -3.04238 1.87521 
4787 2 -3.19291 -0.568661 -2.63186 
4786 1 -1.19146 -8.21353 -0.0959128 
14599 1 -3.72283 -2.73265 2.94126 
3087 1 -8.25593 -1.01947 1.75901 
6575 2 -1.42286 -1.92104 -0.339744 
3086 2 -0.230317 -2.81232 1.72272 
3085 1 2.07072 0.200495 1.39898 
14600 2 2.64599 -1.2787 2.93907 
11391 1 -1.46071 0.797817 0.234662 
14601 1 -3.18493 4.02248 -0.438839 
3229 1 1.38697 -2.76315 4.78157 
7417 1 4.31954 -3.39266 4.81848 
18813 1 -2.35697 -0.454912 -3.16239 
18812 2 1.91989 0.336888 1.02754 
11390 2 -1.82814 -0.649462 -0.728399 
18811 1 -1.21418 -5.7003 2.78934 
3230 2 -2.31352 2.5314 0.638145 
7293 1 0.859455 -6.92428 3.43163 
7418 2 3.2319 1.31649 2.38857 
12296 2 0.98859 -1.57732 -1.79438 
12502 1 -2.97554 -4.13647 0.937371 
11728 1 -3.9837 -2.0894 -4.59663 
11729 2 -1.88034 0.970621 -0.305396 
11730 1 3.31299 -4.84845 3.7419 
12297 1 -5.84512 -2.35822 -1.35526 
3231 1 -0.435349 -0.047666 -5.06385 
12917 2 -1.19374 -2.94805 0.977639 
12918 1 -0.762098 1.95034 -5.08304 
12916 1 -3.28558 -4.33986 1.61659 
3553 1 -2.57066 -2.14666 -0.689278 
5052 1 6.1957 -1.71695 -2.76397 
8475 1 0.565233 -1.07734 8.92884 
12503 2 0.0930245 1.85218 5.04468 
9334 1 3.63744 1.46139 1.62266 
5051 2 -2.23941 -3.5893 0.728497 
8474 2 2.02427 0.973671 0.169353 
10567 1 2.92373 -0.857567 2.26813 
6866 2 -2.38502 -0.659779 0.229205 
6867 1 -3.67732 4.46143 0.2458 
10568 2 -2.47674 3.0318 3.21947 
8473 1 5.0394 0.969399 1.53663 
6865 1 -1.2591 2.2706 4.62624 
21019 1 2.7436 1.0863 -7.30724 
17378 2 4.36842 -3.02191 3.14282 
10569 1 -2.73397 2.04858 -3.47619 
5050 1 6.6857 -1.74502 3.00798 
10511 2 -3.56484 -0.0228741 -1.02819 
8747 2 0.429588 -7.3299 -1.0329 
8748 1 -2.47706 2.02434 2.51732 
10510 1 0.0784045 -0.483079 -3.21171 
8746 1 -2.73586 -4.40249 1.25647 
10246 1 -6.54181 0.203318 -1.43628 