ITEM: TIMESTEP
60000000
ITEM: NUMBER OF ATOMS
3678
ITEM: BOX BOUNDS pp pp pp
0.0000000000000000e+00 5.0000000000000000e+01
0.0000000000000000e+00 5.0000000000000000e+01
0.0000000000000000e+00 5.0000000000000000e+01
ITEM: ATOMS id type vx vy vz 
19421 2 2.00785 5.61113 -2.07521 
19422 1 10.6317 1.26839 3.40329 
8023 1 -6.56768 -5.69228 1.49061 
15732 1 5.18107 -1.05187 -4.27879 
3787 1 4.65463 0.83604 5.98477 
11466 1 2.38246 -0.780302 -4.69928 
15731 2 5.21599 -0.745887 4.94275 
9998 2 -4.53996 -2.24463 2.71458 
9999 1 4.08139 -4.22229 5.81543 
1803 1 -4.7749 0.422781 2.56568 
6043 1 -0.967946 2.79362 -2.69869 
11464 1 -1.37607 4.28126 -2.11405 
11465 2 2.07277 1.70134 -2.84342 
15730 1 -1.88106 -1.64494 -0.0545037 
8024 2 -2.56428 0.685343 3.99043 
1939 1 2.24687 1.48858 0.657584 
1940 2 -1.05748 0.43481 1.4801 
14292 1 4.78087 -0.222369 -1.27668 
14290 1 5.64292 -2.08104 2.32032 
19490 3 -1.87379 -0.491533 -1.82657 
19489 1 1.28321 -0.690959 5.55926 
1941 1 3.13068 0.838815 -3.66366 
14291 3 -2.4986 -2.08668 -2.45548 
8025 1 0.980859 -1.76982 2.40786 
19491 1 -2.94911 -1.16004 -1.5648 
2683 1 -0.850034 -2.12636 -4.29814 
18900 1 -1.3019 0.407629 -2.66671 
6405 1 -4.62645 -5.01566 -3.07985 
18898 1 -0.435372 -3.32053 -2.52109 
18899 3 -1.83505 -0.882357 -2.62732 
6403 1 -5.83222 1.8069 -2.9605 
6404 2 -0.167995 3.44236 -1.00729 
19908 1 3.16546 -5.64651 0.358572 
19907 3 -0.527325 4.40452 1.01002 
19906 1 -4.42162 4.50116 9.73798 
3930 1 -9.50469 -4.03753 0.6982 
18125 2 2.35549 -1.05638 0.0153381 
18126 1 3.02688 3.06897 -3.57368 
18124 1 0.883428 1.03879 -1.15389 
10648 1 -5.63801 -1.35042 2.64233 
10649 3 2.62494 -1.1031 -2.08093 
798 1 0.643157 -1.14715 -3.42005 
18196 1 4.50264 8.74946 0.802123 
2650 1 -3.50799 4.33884 3.11685 
2651 2 -1.18466 -0.980843 1.61565 
4639 1 -0.301666 1.70186 4.52616 
20698 1 -3.04213 4.33699 2.91111 
7996 1 0.277069 -4.0152 0.0314381 
20699 2 0.858644 2.17203 4.20738 
3929 2 1.70349 3.31679 -1.37589 
20700 1 2.64524 1.24035 -1.45526 
18089 2 1.65307 3.40117 -2.44175 
18088 1 5.23696 -4.90555 -11.8562 
18090 1 4.86724 -1.37648 -0.211457 
6577 1 2.87935 0.833731 -1.16841 
6578 3 -0.328216 -3.49163 -1.20868 
7997 3 0.163912 0.500315 0.672386 
7998 1 2.51974 0.406282 -2.46745 
18358 1 -0.682269 0.383036 3.19812 
18359 3 1.08951 0.294835 -0.965617 
10650 1 -2.13144 2.18708 4.88639 
15756 1 -0.975774 -2.29123 -2.23929 
15198 1 -1.63354 -3.43093 -3.2502 
15197 3 -0.028507 -1.0952 -1.99267 
15196 1 -3.15701 0.641523 5.25734 
15755 3 -0.676034 1.68183 2.1539 
1801 1 6.66617 2.70608 -0.038801 
14364 1 1.96543 -0.0406507 -0.117048 
1802 2 1.9507 2.44361 -1.07838 
6044 3 -1.91406 -2.82401 -2.68915 
846 1 4.67806 0.315061 -0.224774 
845 2 -1.26852 -1.32154 -2.46817 
844 1 -2.31814 0.944559 -5.27696 
796 1 6.35217 1.38889 -0.392175 
797 3 0.0286693 -1.59363 0.632798 
7909 1 -2.58839 -2.77335 3.06449 
7910 3 1.2007 -0.456117 -0.164515 
7911 1 0.651111 -4.59283 5.39472 
20859 1 3.91823 -0.040266 -2.85384 
2195 3 -1.10876 1.76595 -2.43381 
20930 3 0.807194 -4.12817 -1.94788 
2196 1 -1.26859 -2.65678 7.12721 
9997 1 1.13234 0.0390562 -1.37741 
20929 1 -4.08286 2.09857 5.3356 
2194 1 0.436655 -1.15206 -2.75527 
9564 1 -1.90791 2.99821 3.57206 
2684 3 1.7661 0.851966 -0.916704 
9563 3 -0.317489 -0.925181 -1.39366 
9562 1 0.321148 -5.80334 -1.97812 
19329 1 -1.76789 1.64754 2.12478 
14363 3 -2.00445 -4.70525 -2.00041 
2685 1 -3.28388 -1.88733 -1.07278 
21007 1 -0.5256 4.40418 0.841572 
19328 3 -2.07367 3.97135 -2.93978 
20278 1 0.636324 1.19661 0.175355 
20931 1 0.868212 -2.70208 -2.47773 
20707 1 2.41043 -5.74331 -2.98211 
8259 1 4.35616 1.99057 -4.01416 
8258 3 -2.88395 0.970064 2.26508 
8257 1 3.74933 6.77523 -2.43371 
21008 3 1.56493 0.652632 0.160756 
21009 1 -0.960389 1.83536 6.03431 
6370 1 -4.57953 -2.23229 -0.839773 
2440 1 0.838115 3.59996 5.39333 
8638 1 2.1837 5.57195 -1.70975 
2441 3 -1.50182 -1.85407 1.35386 
6371 3 1.82011 -2.28561 0.131684 
17718 1 0.837246 -0.57207 0.0198491 
8639 3 2.4396 -2.92906 0.446402 
17717 3 1.70645 -4.38231 -0.065825 
33 1 1.77725 0.712803 -0.0464545 
32 3 -1.47245 -0.739916 2.00525 
8569 1 -6.24739 3.10513 -1.21758 
8570 2 2.33807 -1.10592 3.20093 
4301 2 1.93148 -2.01464 -0.663466 
4300 1 1.79976 2.73046 -3.44741 
31 1 -7.25526 1.19348 -0.554729 
5403 1 2.92022 -5.71592 -2.35091 
5402 2 0.308667 -2.83712 2.5618 
5401 1 0.57133 -6.60618 -6.09523 
9000 1 5.06648 5.22941 1.8926 
8999 2 0.330528 1.51488 0.861414 
16531 1 3.37925 -0.98523 1.14466 
10795 1 6.9014 -2.73524 -4.12248 
10796 3 0.812484 -6.06431 -1.60894 
17650 1 -6.12478 -1.68879 -6.98005 
10797 1 0.731303 -1.10282 0.962431 
21027 1 -1.83063 -2.42209 0.182129 
21026 2 0.4426 -0.874032 1.16826 
3333 1 -5.53222 -0.702616 1.02272 
17651 2 -0.336552 -0.150497 -0.318687 
17652 1 -3.32326 -0.795061 -0.137802 
16737 1 -1.33365 0.949179 1.9701 
16736 2 1.02128 -3.9303 -2.51421 
17715 1 0.354355 -0.94057 1.09923 
4302 1 3.54618 -4.1251 -4.02666 
361 1 -0.623771 1.8777 9.65336 
362 3 1.12055 1.53098 -0.0257823 
17714 3 5.54668 0.768198 -1.8466 
17713 1 -2.88976 0.910798 -1.96272 
18197 2 -0.783715 1.59454 1.35901 
18198 1 0.0658059 -5.10265 -0.891914 
6537 1 2.56583 4.44842 -3.58543 
6536 2 -2.17703 2.27512 -1.56048 
6535 1 0.194757 -0.860273 3.92268 
14797 1 2.74996 -4.44051 -0.542753 
5373 1 -1.825 2.57494 -0.549752 
5372 2 -2.51874 -4.22735 2.27723 
4640 2 2.41418 -0.63824 -3.47709 
5371 1 -2.5376 -0.690112 1.34813 
15661 1 3.43083 -4.96465 -1.65754 
15662 2 -3.27709 -0.389522 0.908685 
15663 1 0.784144 3.50873 -2.53387 
10996 1 -3.6722 -3.09967 -1.34542 
4641 1 0.0609422 -0.865007 -2.22548 
3928 1 -2.36154 0.414822 6.99604 
13692 1 -8.13212 0.901637 0.565555 
6579 1 6.90152 2.28036 -3.39975 
8998 1 1.49143 -1.41185 1.59114 
3332 3 -1.59607 5.20804 5.09326 
3331 1 8.09282 -0.601483 -1.03599 
13691 3 0.864929 -2.33784 3.31283 
13690 1 -4.27661 -2.34619 3.00715 
1161 1 2.79628 -1.52232 4.08608 
1160 3 -2.8525 2.37484 2.18975 
1159 1 -3.29983 -0.706952 -0.77251 
10947 1 4.59057 3.46333 -4.88838 
8637 1 -1.5031 1.38452 2.73025 
14842 1 4.18686 1.61724 -3.73696 
10339 1 -3.38914 -0.164167 -1.52011 
10340 3 -0.9938 1.88432 -1.08546 
10341 1 2.67346 2.51068 -1.67639 
12262 1 -2.15016 -1.79544 1.99658 
12263 3 -1.61313 2.17829 0.775225 
363 1 -0.0728107 -0.00117616 0.318584 
2421 1 3.44802 -4.02517 -0.0166029 
8636 3 2.69236 0.30084 -1.88585 
15754 1 5.33548 0.338678 -3.56529 
6813 1 -5.77132 2.71437 -6.27168 
6812 3 -3.69154 0.553295 -1.19272 
2652 1 4.1337 3.39861 1.04826 
12310 1 -6.89597 -6.7107 2.16699 
12311 2 -2.17706 -0.492727 2.05696 
6811 1 0.901322 -1.79557 3.83789 
547 1 -1.45539 2.7044 7.01718 
548 2 -0.412758 0.921596 0.895684 
549 1 -5.67355 -1.67053 3.39811 
12312 1 2.60647 0.695619 -7.29617 
9300 1 -3.29886 -2.84648 -2.85898 
9299 2 -0.927553 0.721705 3.69604 
64 1 -0.793607 6.27481 1.27315 
3798 1 2.63042 4.18615 1.42378 
3797 3 1.85632 0.535696 -6.38815 
65 3 -4.89756 -0.460569 -3.03654 
20858 3 1.91499 -1.89003 -0.382097 
18360 1 -7.73276 3.91679 -3.42764 
5368 1 -0.893619 -0.843021 -2.86054 
66 1 -6.43464 1.80305 -8.7874 
19518 1 -2.89822 0.618477 2.95158 
19517 3 -2.59377 -3.84784 -0.743865 
19516 1 -1.0924 3.24423 -2.97043 
20857 1 -0.734189 6.66549 4.69742 
9175 1 1.22998 -1.38066 2.2601 
9861 1 0.154911 -3.96477 1.75965 
5369 3 -1.18552 2.88353 -1.05486 
12264 1 -3.61449 1.252 -3.31284 
10174 1 2.92457 3.66255 -5.31047 
14362 1 -4.7697 1.3487 -2.27726 
13591 1 1.45905 4.12 1.29612 
5370 1 -0.455486 2.54648 -2.01351 
3024 1 -3.46754 -6.40794 -0.0612307 
3023 3 1.22212 -0.229962 -0.0655348 
3022 1 0.894711 -0.763746 -5.00901 
15132 1 -4.07913 -1.25586 -0.335362 
19327 1 -2.19388 -2.19342 -1.44049 
13592 3 0.12834 -0.199419 2.80296 
20708 3 -3.07819 -0.869876 0.938398 
3796 1 3.35236 -1.47242 -4.03931 
19374 1 -2.63323 -1.46852 -1.72381 
9176 3 3.39611 -2.47318 -0.769672 
19373 2 3.35567 -2.38948 -1.54276 
19372 1 1.06594 -1.27991 -4.24019 
3783 1 -5.00819 6.78373 -0.339295 
20709 1 -1.67463 -0.586214 2.58658 
2100 1 -1.51471 -3.63044 5.76652 
2099 2 -0.590954 -1.14843 -0.509169 
2098 1 6.81791 -7.79181 1.6005 
9177 1 4.66048 -0.0113827 0.447532 
1050 1 -1.58559 -2.50633 -0.981291 
19033 1 -4.46107 -3.41939 5.7571 
19035 1 -3.06321 -5.80174 -4.79937 
19034 3 -2.70208 2.83488 -3.50262 
2442 1 0.762455 -3.03595 2.33626 
6198 1 1.72693 0.90083 2.16721 
1049 3 -1.1518 1.48953 5.2818 
6197 3 -1.08074 -2.12639 -0.0184539 
1048 1 5.18654 -6.93536 -2.80669 
20622 1 2.77451 -1.83422 -0.409664 
348 1 3.36736 0.361026 -1.10754 
6196 1 2.81979 -4.60936 -1.20523 
6 1 1.44551 2.1051 -7.14684 
12774 1 4.62048 -3.2656 -1.48144 
12773 3 0.57386 -0.363344 2.84804 
15617 2 1.84704 -0.100858 0.68789 
17716 1 0.936753 4.0027 -0.109212 
15618 1 -7.49084 -4.31847 -3.79175 
12772 1 -1.20855 0.0405806 1.89975 
6192 1 -1.5118 -8.2519 4.2647 
15616 1 -2.76655 -0.0875717 -2.81844 
15169 1 -1.78198 1.42961 1.30499 
15170 3 -2.58989 1.22685 -0.329728 
347 3 -3.76617 -1.23546 -0.411601 
6826 1 2.56644 1.31835 -0.397597 
19953 1 3.52643 -3.35813 -0.654928 
19952 3 -3.50361 4.76473 -1.73193 
10620 1 -4.8981 -4.12599 5.17406 
10086 1 6.93431 2.36607 -0.879975 
8571 1 5.41415 3.70952 -1.9684 
10197 1 1.30482 3.43136 1.61419 
14334 1 -2.42367 2.42408 -5.38465 
10085 2 2.52789 5.01137 -1.03779 
10084 1 5.45245 2.36385 1.97548 
5913 1 -1.57491 2.59717 -0.246348 
5912 3 1.38853 0.564366 -0.776666 
3453 1 -1.54371 -0.603488 0.881322 
13773 1 0.820364 2.48115 1.49421 
5433 1 2.02224 -4.36185 1.86239 
5432 2 1.53601 0.769133 -0.915991 
10619 2 -0.973627 4.07968 -0.262481 
667 1 0.978385 -4.173 3.22088 
668 3 1.72083 0.825116 -0.700084 
669 1 1.65946 5.96282 3.57388 
10196 3 1.85981 -2.49839 0.514172 
5431 1 -1.27092 2.50812 0.195544 
5821 1 -6.07723 -0.817489 6.2407 
12955 1 1.4998 -4.38207 0.00889196 
21025 1 -0.880864 -0.116809 4.28494 
10326 1 -0.518236 1.48263 -0.54931 
10325 3 -2.78342 0.366893 -4.19708 
5822 3 0.351631 2.01828 -0.94466 
5823 1 -0.480016 1.5052 9.7607 
3829 1 -1.17605 2.36344 -0.287215 
10195 1 2.11715 -3.55019 -2.80752 
13701 1 2.60027 -0.251673 -0.438352 
16735 1 1.77314 -1.59903 0.0625555 
13700 3 -4.50428 4.77858 -0.822005 
19730 3 2.44865 2.99836 -0.749408 
19731 1 -6.19985 -7.35699 7.04264 
13699 1 -3.7353 -0.0696928 -4.75882 
13559 3 0.0559757 2.17415 -1.0666 
3452 3 2.61124 2.03205 -3.89763 
3451 1 -3.53102 -1.43721 4.451 
13560 1 2.70952 1.98378 -4.22189 
14798 2 1.84526 1.11249 -1.41795 
13772 2 1.42229 -1.43273 4.29932 
13771 1 -4.61099 2.64421 -0.38728 
19366 1 -1.79396 0.654812 4.32586 
19367 2 2.07865 2.29831 -0.201398 
19368 1 2.16245 1.45191 -0.501258 
14508 1 -6.18899 -4.30191 4.83063 
16532 2 -1.62498 0.0902535 1.08134 
16533 1 4.36121 5.00631 4.55953 
3421 1 -0.427722 1.57949 4.68109 
3422 2 -0.429358 1.01914 0.229481 
3423 1 -3.78102 1.14629 -2.53937 
10873 1 5.07527 -6.15586 1.48281 
10874 3 1.97942 1.0204 -0.784994 
10324 1 -3.39825 2.26377 1.37852 
18493 1 5.22842 -0.0806599 0.934942 
10946 3 0.946555 -0.746475 -1.35442 
10875 1 4.35605 0.299287 -3.90726 
10945 1 -0.231592 -2.48528 1.95076 
20325 1 -4.11758 -0.788022 -0.0875328 
20324 3 -4.02696 1.63459 -1.17773 
20323 1 0.817368 -2.72095 1.91231 
18691 1 -0.522617 -1.07732 1.1361 
12956 3 0.33192 1.342 0.942506 
18692 3 4.81161 -2.54936 0.230806 
12957 1 -0.282366 6.11683 0.303886 
3025 1 -1.99575 12.1322 2.69512 
18494 3 -1.82831 -1.39025 0.245994 
19729 1 -0.945524 3.20398 -3.59386 
4450 1 0.8931 1.69735 -3.8602 
8635 1 -7.61894 -5.1103 -1.13234 
20286 1 -5.4271 9.82952 -0.161385 
20285 3 2.66583 0.260516 -0.0240151 
14794 1 0.689782 2.6643 -1.36643 
20284 1 -0.318783 2.70052 -1.25934 
4451 3 -1.16956 -1.98958 -0.903245 
4452 1 2.08762 -4.09301 -4.7809 
2420 3 5.13354 5.06214 0.388079 
349 1 6.67296 -0.1429 0.327382 
1788 1 -4.85768 -2.49224 -7.6411 
14799 1 1.6682 -2.80321 3.9501 
1787 2 -2.3384 6.35269 1.06504 
1786 1 1.9879 1.85313 2.29092 
20838 1 -4.53865 3.87865 -4.79966 
20837 3 -0.0276071 -0.90058 -2.66672 
9298 1 -4.19232 8.05319 -4.85072 
4719 1 -6.11125 0.00913885 1.12882 
10997 3 5.42188 1.66625 -2.24623 
14860 1 3.22585 5.69136 -0.603738 
4718 3 1.99832 1.12523 -0.563605 
14861 2 3.66703 3.15187 -1.20057 
14862 1 -3.82775 2.15979 -2.74399 
11878 1 -1.26626 -6.04527 -0.942797 
11879 3 -1.26301 -0.611837 -0.451916 
4717 1 -3.46546 -2.03786 -0.117386 
11880 1 -3.52967 -0.563005 -2.82932 
9688 1 -3.14855 3.77349 5.14747 
20836 1 2.07982 1.04839 -2.07979 
10998 1 -4.39177 2.54638 3.78575 
9860 3 -1.70573 -0.644991 -0.197166 
12454 1 0.806785 0.693224 0.832486 
12455 3 -1.08693 -0.11044 -3.41097 
12456 1 -0.8078 -4.58688 1.08856 
855 1 5.59475 3.04214 -4.84524 
854 3 -1.40103 3.08287 2.45656 
14843 3 -4.4412 -2.74759 1.42128 
9859 1 -1.22113 -7.30619 -0.423406 
18693 1 5.78383 -0.0474275 -4.36668 
14795 3 -1.54572 2.71665 -1.25802 
10175 3 5.09114 -0.283505 0.331808 
15131 3 0.379042 -0.348827 1.66366 
14844 1 3.24234 1.75562 -0.529872 
14260 1 3.74542 6.05812 0.393832 
14261 3 3.02297 -4.33116 0.990429 
14262 1 6.21253 -3.06606 -7.4291 
10000 1 2.26108 -9.23904 1.38038 
10001 3 -0.690404 -0.71874 3.27427 
10176 1 -0.518644 1.93457 -1.61601 
14796 1 6.32516 -3.41364 0.557662 
10002 1 -0.00254752 -0.0133266 2.69129 
20446 1 1.55737 -0.760759 -1.63927 
10240 1 2.031 -2.02457 -1.51512 
5409 1 1.58169 5.7896 -0.0489133 
16453 1 -0.00675235 1.19833 3.94717 
16454 3 0.371382 3.37501 0.619528 
5408 2 0.261795 -7.1235 -0.224882 
10241 3 1.49553 -0.242199 -0.573046 
3782 2 2.48221 3.37396 -1.98161 
10242 1 -3.04036 -0.162418 0.899985 
4899 1 0.671467 -0.873761 1.17517 
4898 3 -6.73128 -0.533035 -3.54265 
3781 1 -2.31158 4.08463 -12.4123 
19827 1 3.27993 -0.886442 -3.19908 
4897 1 -5.51091 0.952049 3.64683 
8040 1 2.56749 4.54293 4.50988 
8039 3 -0.404572 -2.18014 1.9733 
19826 3 0.470648 -2.7349 0.278752 
12067 1 -5.03542 -0.685574 2.97787 
20621 3 2.9623 -2.25811 -3.91422 
8038 1 -3.08622 4.04505 4.88531 
6816 1 -0.862042 0.757828 3.82516 
20620 1 -4.74728 -4.60929 -3.81321 
14350 1 -3.67005 1.57299 -3.38658 
6815 3 0.403127 2.52963 -1.20315 
15130 1 0.0850061 -0.129322 -2.12268 
12068 3 0.530471 1.00103 9.467 
16630 1 1.27029 0.804363 2.77538 
16631 3 2.29687 -1.31688 0.63352 
5407 1 2.50938 -4.23393 5.06581 
21255 1 1.06584 -3.65368 2.1291 
21254 3 3.47715 2.32984 4.45596 
21253 1 2.80371 -3.77286 -2.56833 
16632 1 1.98547 1.19618 -5.29 
21487 1 -1.54944 -2.55639 0.0289294 
6191 2 -2.07895 -3.58838 1.70242 
19825 1 2.24226 2.44493 1.01925 
6190 1 -7.03168 -4.00835 2.55494 
18429 1 0.687984 -2.81672 6.70068 
11784 1 -3.69087 0.558745 2.28821 
11783 3 -0.127606 1.09379 -2.14792 
18428 3 1.65999 -1.40573 -2.60366 
11782 1 -5.18898 -1.85763 -0.0282258 
18021 1 -2.01877 1.04635 -0.0357523 
14351 3 -0.758165 -2.64653 -3.3706 
6827 3 -0.903674 0.664874 1.93091 
17880 1 -3.109 -6.02774 1.65403 
14333 3 -0.952744 5.21198 -0.823377 
5911 1 -2.30834 -2.32711 -0.456305 
3042 1 0.902775 -1.80711 -0.840999 
6828 1 3.00149 1.37654 -0.551002 
16717 1 -0.927183 -1.42083 0.291164 
16718 2 0.33378 0.239802 2.13404 
16719 1 1.93973 3.75612 -0.644421 
6270 1 1.70758 2.17161 2.23463 
19951 1 -4.12306 -1.53483 -3.51345 
17484 1 -0.537807 -6.48402 1.52435 
17483 2 0.363136 1.68615 -3.34862 
7410 1 1.16828 1.31048 -2.33635 
10618 1 3.07433 -4.24276 1.59157 
5832 1 -0.736611 -0.346555 0.380563 
7409 3 -1.97176 3.18948 0.302801 
5831 3 1.39846 2.17091 -3.44221 
7408 1 -3.33312 -0.707701 -3.09641 
7858 1 1.32958 2.78527 5.79773 
7859 3 -0.267726 1.25567 1.44024 
5830 1 1.75078 7.28134 -2.20056 
12156 1 -3.04958 0.615864 0.393892 
17879 2 1.66675 -1.99607 -1.97125 
14332 1 -3.44742 5.04138 -3.95389 
10963 1 -3.12078 -2.45466 1.02546 
3830 3 1.79796 -1.18026 -4.32806 
3831 1 -2.78077 -2.02282 1.61814 
7950 1 2.36364 1.95616 -5.66246 
7949 3 -2.7111 2.22824 -1.83928 
17878 1 2.72419 -0.650598 -0.834968 
5995 1 -2.53933 -6.73942 -3.30868 
5996 3 0.0180666 1.40833 -0.37485 
927 1 -6.03436 -1.0304 -3.86 
7429 1 1.87586 3.92244 6.49682 
20815 1 0.722687 3.24253 0.612933 
3041 3 0.0475173 -1.28611 4.67136 
10964 3 -4.08498 -1.63954 -0.878191 
20816 3 2.79413 0.538536 -1.20617 
20817 1 -2.96218 2.29215 1.56091 
9358 1 1.14816 -1.81209 -3.34435 
10965 1 -1.09658 0.674789 2.74806 
19287 1 -3.53502 3.33495 2.95162 
3040 1 2.00866 -3.13517 -0.377536 
7431 1 -0.69876 1.91278 5.19895 
7430 3 4.6403 -0.349457 0.530709 
2179 1 -2.31901 -2.98097 -1.48209 
17482 1 5.9159 1.8575 -2.53149 
21279 1 -4.09698 1.2418 -2.42901 
21278 3 0.0573542 3.39401 1.43501 
21277 1 5.72236 -2.0236 -0.941701 
12155 3 -3.14654 -0.127731 -0.0833875 
12154 1 3.02786 4.92102 0.0756282 
21478 1 -2.63882 -0.306951 -4.98921 
6643 1 -1.58098 2.67028 2.01689 
21479 3 0.718515 -1.6644 -1.22741 
18264 1 4.36505 -3.75434 -4.49468 
21480 1 -5.24005 -3.18005 -2.50743 
18263 3 -2.85865 -1.69459 2.47825 
18262 1 6.46088 2.47166 -5.19767 
4800 1 -2.90273 2.23988 -1.88429 
4799 3 -2.49938 1.34149 -0.951897 
7948 1 -3.93397 -3.35454 1.97813 
10042 1 -4.49993 0.903248 -2.15229 
16197 1 5.93591 0.515408 2.59603 
4798 1 -5.00361 0.207515 -1.77407 
18495 1 0.207265 -3.61227 2.34842 
9359 3 -1.43872 -3.08963 0.296532 
9360 1 -1.36005 -1.65027 0.375181 
1120 1 4.50735 6.20697 -4.55368 
1121 3 2.33584 -1.57618 -1.50812 
1122 1 5.25391 0.173488 0.238792 
14830 1 0.180398 4.44457 0.708478 
14831 3 -1.20823 -0.523571 2.19707 
12873 1 -0.234162 1.81397 2.84751 
11580 1 -1.00257 1.97209 -3.29029 
14507 3 -1.48833 4.26674 2.21141 
14506 1 0.0275939 1.52927 -4.22562 
16009 1 -1.45539 7.5259 4.99761 
6644 3 -0.922292 -1.51917 0.998929 
16010 3 -4.20551 0.342661 -0.111196 
6645 1 3.23507 -7.26495 -0.312776 
633 1 6.27195 -6.14584 2.43684 
632 3 0.222269 1.31059 -2.35033 
631 1 -4.48429 0.155835 3.658 
14286 1 -6.60402 -2.03497 0.631119 
16011 1 0.452503 -3.37695 1.26598 
14073 1 2.19952 0.355032 5.28923 
9689 3 -2.25205 -0.629398 1.57961 
2180 3 3.57638 -3.44028 1.8108 
14285 3 -0.425451 -4.29887 1.87864 
853 1 -1.51376 -5.11344 2.23061 
13741 1 -0.734286 -2.78416 -2.66764 
1507 1 -4.70392 1.72646 4.69688 
3026 3 5.57832 0.478985 -2.43007 
3027 1 1.45171 0.624993 -4.78358 
10470 1 3.03731 -2.2109 -0.870438 
10469 3 2.81595 2.671 1.38768 
10468 1 4.11182 -6.30058 2.09956 
12690 1 -7.42796 5.42411 1.83975 
12689 3 3.8532 -0.804348 2.86947 
1508 3 2.2671 0.221001 1.77266 
13742 3 0.897041 0.166952 -0.749391 
15419 3 -0.921814 -3.34904 -5.63956 
14832 1 -1.45602 -5.70272 1.54482 
2764 1 -2.0987 -2.53336 -7.95064 
12520 1 -0.0465286 3.24611 -4.37484 
2765 3 1.82763 -0.532988 -3.15753 
2766 1 9.77345 3.26216 -0.134056 
2694 1 -2.6512 3.80955 -2.57125 
2693 3 -0.723946 -0.662946 1.55458 
2692 1 5.5031 3.28223 -2.9488 
18489 1 0.373016 4.86045 -1.04309 
15420 1 -0.56151 -0.797406 -1.55407 
18504 1 2.22249 5.30647 -0.373536 
11579 2 2.39314 -2.3358 3.39147 
11578 1 3.13984 -2.25921 0.810329 
4686 1 -1.35228 -0.486599 -3.56791 
16455 1 -0.47128 5.9754 -3.78741 
612 1 3.44749 2.24429 -0.46203 
14072 3 3.6686 2.27493 -1.19363 
14071 1 4.38599 -1.49857 3.66215 
20842 1 -3.45484 6.26244 -2.84795 
611 3 0.987112 -0.761417 0.363289 
20843 3 -5.00514 0.510414 1.00014 
610 1 2.43287 -1.35361 3.62981 
10770 1 0.757653 4.4284 -3.79871 
17067 1 -0.670529 1.4638 -0.706984 
9690 1 1.28358 5.78356 -1.02631 
16066 1 1.64099 -2.12951 2.68975 
16067 3 1.78025 1.91035 -2.48284 
16068 1 4.66299 -3.61329 -0.933076 
18649 1 -1.38492 5.80134 3.67937 
17066 3 -1.34684 -0.848526 -1.8005 
18650 3 1.69246 0.980709 0.0909057 
17065 1 5.4368 -0.434156 3.60079 
6814 1 -0.35103 5.81558 -2.47908 
18503 3 1.36763 -0.508436 -2.72187 
13156 1 1.95907 -5.36116 -6.54046 
1509 1 -3.51544 -1.25803 -2.49892 
9472 1 -3.56226 1.46421 3.532 
9473 3 -1.97207 -3.13871 -0.29221 
9474 1 2.33012 2.54844 0.502941 
17706 1 5.44907 3.97411 2.85256 
13157 3 -1.33639 0.941193 0.18996 
17705 3 -1.74951 5.17345 0.820554 
18502 1 -3.47258 -4.27865 1.59695 
9850 1 -0.141399 6.23007 0.310092 
14545 1 0.246619 -1.37156 -2.29875 
17023 1 -2.97668 6.22161 -1.07056 
14546 3 0.758059 0.48077 1.65735 
10769 3 -1.56572 2.14677 0.946413 
10768 1 -2.8041 3.94878 3.00367 
16809 1 3.17764 1.23201 -0.575766 
16808 3 0.0326785 0.146315 -1.81728 
14547 1 3.26188 4.7351 -1.50807 
17265 1 -2.07401 -0.767449 3.90239 
16807 1 -4.69124 -9.37273 3.321 
17264 3 1.58973 0.0227862 0.00124293 
13158 1 -1.39367 1.38064 1.28656 
18019 1 0.456993 5.20472 0.210581 
17024 3 0.0520429 0.056258 2.22282 
17025 1 2.3355 -1.4583 2.03793 
19861 1 0.645243 -7.84674 6.21823 
18020 3 -1.64232 2.399 -1.77104 
19862 3 -7.77253 1.3094 0.85665 
5629 1 1.15252 1.03967 3.16752 
2226 1 1.46629 0.361366 3.92334 
19567 1 -0.048961 1.17882 0.0656614 
19568 2 -1.77211 -3.93354 -1.44647 
6267 1 0.203269 -1.36776 3.42072 
6266 3 2.77539 -0.892107 2.09373 
6269 3 2.0869 3.44953 -1.7045 
6268 1 -4.11018 1.33157 -0.712623 
18004 1 3.66203 0.889779 -0.74414 
18005 3 -0.86357 -1.4446 2.81007 
9264 1 2.71233 -0.555204 0.0581735 
7860 1 -7.78443 1.59154 -5.37279 
13446 1 -0.733038 1.49815 0.395405 
13445 3 -0.172111 0.612812 -1.23679 
13444 1 0.639588 -6.20675 0.0166887 
19569 1 3.20627 -0.98639 2.85622 
19803 1 -9.32888 -1.16421 -2.03769 
5997 1 3.23787 3.88892 -3.48907 
14602 1 -0.669791 0.237004 -0.277101 
14603 3 2.71332 2.32798 -1.66946 
14604 1 -0.986552 1.24387 3.0131 
19802 2 3.26815 0.314758 2.68466 
19801 1 -1.28414 -0.535212 2.432 
15481 1 0.548175 -5.49968 -2.13232 
6265 1 0.196246 1.76732 -2.91726 
19286 3 -0.227802 0.855377 2.21831 
12392 3 -0.56939 -1.9689 -4.21991 
12391 1 -0.161325 -3.30243 -2.2796 
5673 1 -2.57954 3.28926 -3.01551 
18006 1 2.78819 0.920716 -0.738504 
5672 3 2.03397 -4.40767 -2.2619 
19285 1 -2.82352 -3.20664 1.64502 
15226 1 -0.46412 6.25327 4.42483 
15227 3 2.21979 0.515394 4.35531 
5671 1 -2.15744 0.373717 -0.00732291 
20788 1 -0.188178 -0.183004 1.26546 
20789 2 0.232233 -0.411539 0.61114 
6336 1 3.2071 2.60701 5.5147 
16381 1 0.0414755 0.300688 -3.8718 
14548 1 1.13735 0.592335 1.09549 
16382 2 0.318528 -1.67026 -3.62955 
16383 1 1.82282 4.39328 -0.458527 
20790 1 -0.70176 1.17606 1.58725 
6335 2 1.32404 -1.75356 -4.52155 
14549 3 1.58355 -1.17044 0.328225 
926 3 -2.35695 -0.846877 3.82857 
16408 1 -2.9849 -0.347213 -1.78114 
925 1 -2.6899 -0.203023 0.274317 
15768 1 -3.34308 2.15935 -1.47288 
6334 1 2.67052 1.52209 -2.07592 
15767 3 1.27169 0.591495 -1.48643 
15766 1 -2.60411 1.79263 6.13161 
2697 1 2.32825 -1.49682 -1.91861 
16409 3 3.26305 -1.21287 2.12949 
10293 1 -2.84091 -1.48975 -3.13182 
12872 3 -1.53682 1.82496 0.654694 
10043 3 -4.69915 -5.09626 3.72677 
15228 1 -0.707011 -5.96085 -1.22538 
16410 1 5.50525 -3.98402 0.530309 
3052 1 0.86982 -0.841358 2.58294 
10044 1 2.52227 -2.30796 1.19316 
21495 1 -1.57685 0.779359 -0.837917 
21494 3 -0.334851 0.157005 0.174448 
21493 1 2.14736 1.35148 2.18254 
3053 3 0.294134 -2.02354 0.547263 
12093 1 -0.0120353 2.72502 0.0974946 
6082 1 -3.70108 -4.2606 -2.28636 
6083 3 -2.0703 0.692107 -2.32748 
6084 1 1.8593 1.34216 -1.0732 
16030 1 -0.498106 0.709866 2.91195 
2181 1 3.76405 5.34383 -1.92733 
8151 1 -3.47534 -1.46651 -3.68236 
8150 3 1.41308 0.16571 -6.41463 
8149 1 0.082087 0.652495 -3.62545 
6096 1 3.90389 -6.65608 3.50812 
6095 3 -1.29178 -1.88014 -3.43963 
16031 3 1.55117 -3.71317 3.31731 
6094 1 -0.924291 -6.25862 -6.95454 
8487 1 -1.22769 3.41791 1.89999 
16032 1 -5.35659 -5.89131 0.82894 
3529 1 -2.5947 -0.814498 -0.54159 
10292 3 0.217355 -1.334 0.546477 
16196 3 -1.4462 -2.01105 4.66513 
16195 1 0.387949 6.59548 -5.49053 
13257 1 0.951937 0.852138 6.4111 
13256 3 -3.03945 -2.21902 -2.97052 
13255 1 3.84797 -0.133513 -4.93174 
3217 1 -4.13985 1.25733 5.75305 
3218 3 0.396673 2.41721 -0.300517 
10291 1 -1.79943 2.87967 -3.873 
1351 1 4.29753 -4.11423 1.05607 
14284 1 -2.18562 2.86293 -1.66787 
14550 1 0.304968 -1.04179 -3.63161 
18924 1 -0.551493 -0.327323 -4.80465 
12522 1 0.560484 3.90668 2.72463 
18488 3 0.669357 0.0298571 -0.856796 
12092 3 -0.0674006 0.512412 4.29554 
12521 3 4.69643 -2.02189 1.69203 
13743 1 -1.66331 1.4112 -4.61789 
7629 1 -6.08309 -3.40066 3.5881 
7628 3 -1.90965 -2.38875 3.58631 
7627 1 6.58197 -6.1746 -1.72575 
3433 1 4.18615 -4.43175 -6.41953 
3434 3 3.24791 2.02028 1.63476 
12091 1 1.46311 -1.78821 -2.70415 
12420 1 5.51714 -3.32555 -1.08971 
4685 3 3.44637 -0.778607 -0.191073 
4684 1 1.41294 -1.49732 -2.79741 
7957 1 3.2885 4.41479 1.92293 
7958 3 -0.0655198 -2.98997 -2.49677 
7959 1 3.14975 -0.269129 -0.363418 
73 1 -0.73803 -6.46529 2.50857 
74 3 -1.36503 1.91463 -1.60778 
75 1 1.88968 -1.08974 -2.77038 
7755 1 0.241985 1.02103 2.63023 
20844 1 -5.14104 -3.85864 -0.136987 
7754 3 1.81264 -2.85822 -2.32803 
6118 1 3.16516 -2.38495 -4.01858 
6119 3 3.23531 -0.891434 1.86302 
18651 1 1.02447 2.32922 6.12605 
12688 1 -0.549847 -1.87816 3.77285 
14868 1 4.72575 0.296627 -2.35178 
12490 1 1.30329 -2.49699 -2.36293 
12491 3 -2.97699 -0.468324 -1.15728 
12492 1 3.76921 2.70383 5.36238 
2113 1 -4.39199 -3.64436 0.449508 
2114 3 5.57725 -3.06681 2.09573 
2115 1 -4.52181 4.76014 3.34785 
8721 1 5.03659 6.06803 0.818395 
2379 1 3.15076 -1.75837 0.875959 
8720 3 1.36999 -2.18278 -1.82233 
3219 1 -1.96913 1.29852 -4.55704 
4333 1 2.6294 -4.0825 3.31632 
18487 1 -0.0413041 -3.30283 -3.5615 
14867 3 -1.42601 -6.91607 -2.63258 
14866 1 0.326836 1.06681 -3.6306 
10614 1 0.0798337 -1.32844 5.93334 
10613 3 0.760875 0.491226 3.4841 
17704 1 -3.19116 2.83818 -1.88525 
18343 1 -0.350289 -8.85314 5.5791 
10612 1 -0.738991 -3.61009 4.35554 
12306 1 -0.012091 -3.28611 -2.69116 
3435 1 -0.490949 -0.841846 -8.73889 
8863 1 1.73929 -3.4694 1.09183 
6120 1 1.99486 -0.0183347 -1.15677 
12033 1 0.164704 -6.4912 4.22113 
12032 3 -2.56519 0.886179 2.63493 
12031 1 -2.79589 -1.67654 -0.909515 
1564 1 -3.43303 1.05528 -1.90401 
1565 2 0.623739 0.25 3.22332 
8864 3 -0.505317 5.38344 0.305789 
8865 1 -1.15561 -2.4604 -2.46985 
7233 1 0.141726 -0.543346 -1.81205 
19863 1 -0.858911 -0.292274 1.25555 
18344 3 2.91768 -2.06903 0.603488 
8719 1 0.289178 -1.91919 3.16411 
9018 1 -2.89016 -4.73403 0.0322432 
9924 1 -1.79114 -0.636796 -10.4489 
9923 2 -0.266479 -3.61973 -1.62805 
9922 1 2.13364 -2.82415 2.25371 
9017 3 -0.550966 -1.77288 0.97412 
4216 1 -1.69146 3.5957 6.85302 
20541 1 -2.87707 1.72693 2.60826 
15339 1 2.30438 -3.49469 -1.30033 
9263 3 -0.30913 0.537505 1.31647 
9262 1 1.40406 2.32631 -2.09698 
9780 1 -0.130445 -1.17367 -5.27449 
9779 2 4.56867 -1.06834 -0.62685 
9778 1 3.25437 2.59617 0.246167 
15267 1 -1.19537 -0.332825 5.25405 
15266 2 -4.4438 -0.182312 0.782298 
6667 1 1.01649 -1.67037 2.57555 
20540 2 -1.21692 -2.53861 0.640034 
20539 1 4.57606 4.76567 2.12259 
15482 3 -2.44765 -1.1774 2.16112 
15483 1 2.73301 -0.973389 -3.37939 
17472 1 0.750228 3.07821 5.46058 
8512 1 -1.19103 -4.18402 2.28344 
8513 3 0.756258 0.796705 -2.39999 
8514 1 0.377919 3.35431 4.24993 
10348 1 -0.582254 -2.29154 -5.26296 
5595 1 -1.2842 3.57688 -2.77422 
15337 1 -2.1967 6.18743 4.75572 
20923 1 0.375431 2.9416 3.08061 
20924 3 0.993611 1.2559 -5.11301 
20925 1 2.26972 -6.01972 -4.51715 
16459 1 2.96287 4.16384 4.04466 
10349 3 2.61449 -5.66725 -1.2652 
12393 1 0.967286 -0.922093 1.44148 
15338 3 -3.70676 0.426287 -5.29609 
2562 1 -0.991102 1.21658 0.19796 
20329 1 -2.78472 -4.99525 1.42907 
20330 2 0.797611 -2.60882 -0.22523 
20331 1 -0.828781 0.371904 1.43619 
9081 1 4.44594 -1.95455 3.44609 
15265 1 -5.04916 -2.04386 -4.27165 
11331 1 -8.85012 -4.69744 -2.04465 
2696 3 2.91426 0.957832 -1.01292 
11330 3 -0.0932386 -2.70161 -1.17259 
2695 1 -0.12461 -0.833563 11.0869 
13105 1 3.13443 3.42613 -5.35038 
13106 3 -3.39636 -0.921375 0.2506 
17471 3 -2.09796 4.76064 1.31659 
17470 1 -3.7767 -2.91157 2.72267 
13107 1 -2.28311 0.520689 -0.976188 
18328 1 5.23153 -2.42158 10.5147 
18329 3 0.799427 -3.41482 2.36722 
3493 1 -1.51492 -4.38137 2.71981 
2703 1 -6.60767 -2.06259 -1.20638 
3054 1 0.249228 2.30661 4.2989 
16460 3 -1.86395 -0.619493 -4.19229 
2702 3 -3.79794 2.00183 -3.01085 
16461 1 2.14503 1.42798 -2.94607 
16863 1 -3.78219 -4.083 -3.75739 
2701 1 -7.33167 -0.82189 1.6761 
5466 1 -1.5466 1.91477 0.806532 
5465 3 0.577567 1.28435 0.473903 
16862 3 -1.12694 -1.8411 2.50899 
6469 1 -1.68237 -1.35836 1.14938 
6470 2 1.37778 3.00853 2.83179 
2561 2 -1.10827 -1.47611 1.35472 
2560 1 -2.88301 -4.00212 1.50964 
5967 1 3.80552 -5.20923 -3.96284 
5966 3 0.0740986 0.661941 -2.5827 
5965 1 -8.48239 -3.54865 1.9853 
8208 1 -0.531906 4.06952 -0.399622 
7117 1 1.6513 -1.25634 -1.7478 
18923 3 0.78324 -1.29038 1.97395 
18922 1 -0.322058 -2.81832 -1.81761 
10593 1 -5.16482 2.56812 -2.88146 
10592 3 2.51695 1.51813 -0.0798263 
10591 1 -5.72367 4.72006 -3.54519 
7118 3 0.456072 0.24303 0.204798 
7119 1 2.95931 -1.3282 -0.572936 
8207 3 1.83174 -0.521717 -2.57929 
18128 3 -6.41135 1.66245 2.40637 
1352 3 -1.06609 4.30118 -1.13812 
5464 1 -5.72588 2.35477 -4.73562 
18129 1 2.61281 7.31867 3.87499 
2854 1 -4.23572 2.41882 6.26266 
1353 1 -3.79761 -8.50228 2.9224 
18739 1 7.11111 1.34829 0.952664 
18740 3 -1.0182 0.780755 -6.65771 
18741 1 3.51805 1.68363 2.97716 
18127 1 0.411748 -0.724442 4.23586 
3530 3 -2.44496 1.18319 0.923274 
3531 1 -1.09799 -0.923316 -1.58408 
19636 1 2.36414 -3.70092 -7.25224 
19637 3 -1.33603 1.61685 -2.5794 
19638 1 -4.1059 1.82688 -2.62428 
21523 1 3.02763 -1.96575 2.70511 
21524 3 -4.30556 -0.806159 3.65978 
11332 1 3.87784 -2.36401 -5.13662 
9406 1 -0.981263 -3.48046 -3.94667 
8486 3 -1.19423 -1.47651 -2.87614 
8485 1 1.8448 0.977164 5.65843 
2698 1 4.41407 -0.595786 -2.31072 
2699 3 1.52063 1.05862 -2.78623 
2700 1 -2.51718 0.57929 0.558986 
18925 1 -0.383046 -1.44956 -2.94347 
11333 3 4.15468 2.28398 -3.58307 
18926 2 2.01352 -0.563649 -3.75182 
2378 2 -0.0301119 0.973771 -4.58439 
12305 3 -5.17835 -2.26501 1.22479 
9643 1 -0.370271 3.6149 -0.416694 
9819 1 1.56699 3.40882 4.01185 
9407 3 -0.0736553 1.45544 6.18647 
9408 1 -4.99664 4.62071 -3.94387 
6447 1 3.8347 1.30409 -3.16429 
6446 3 0.794159 3.44672 -1.27684 
6445 1 -0.536683 -0.819619 -2.6643 
9818 3 2.54042 0.0606422 1.25146 
3094 1 -4.87229 -1.28075 -1.31008 
9817 1 -1.18673 0.128612 0.365265 
12304 1 3.89486 -7.74423 -2.48967 
18001 1 -8.21155 -3.41818 0.684519 
10210 1 1.80485 3.11226 2.39094 