LAMMPS data file via write_data, version 7 Aug 2019, timestep = 60000000

7113 atoms
3 atom types
6945 bonds
3 bond types
6777 angles
3 angle types

0.0000000000000000e+00 5.0000000000000000e+01 xlo xhi
0.0000000000000000e+00 5.0000000000000000e+01 ylo yhi
0.0000000000000000e+00 5.0000000000000000e+01 zlo zhi

Masses

1 0.25
2 0.5
3 0.5

Bond Coeffs # harmonic

1 6000 0.15
2 2000 0.4
3 2000 0.4

Angle Coeffs # harmonic

1 100 180
2 50 180
3 50 180

Atoms # angle

17670 1 1 2.7225707540513802e+01 2.5774632500790926e+01 6.1075172750617384e+00
14703 1 1 2.7491451738186363e+01 2.5671294226192821e+01 6.9842795341947541e+00
17668 1 1 2.7457817049214675e+01 2.5711993633007712e+01 6.8511740743824099e+00
17669 2 2 2.7349801792093483e+01 2.5762388866276172e+01 6.4941769173731494e+00
14702 2 2 2.7484318386826263e+01 2.5601434909615037e+01 7.3675927323659431e+00
11590 1 1 2.2957404423571298e+01 2.7963747739738412e+01 7.4376252020626881e+00
10879 1 1 2.3158470364550684e+01 2.8364985185820409e+01 6.6007820666079624e+00
10880 2 2 2.3001473537403267e+01 2.8224924690168685e+01 6.9734443154778383e+00
10881 1 1 2.2929623071328486e+01 2.8046262801467467e+01 7.3057578504046550e+00
2906 3 3 2.7693582869220496e+01 2.2843607096321904e+01 8.2576506130146381e+00
12046 1 1 2.4982754829297050e+01 2.3133190206227468e+01 9.1003077227436613e+00
2905 1 1 2.7467188990201990e+01 2.3022998839131027e+01 8.0242454110874313e+00
5503 1 1 2.6599318846830695e+01 2.3782324187038146e+01 8.6882271404294098e+00
5504 3 3 2.6672797275470195e+01 2.3600336833069449e+01 9.0550352323657179e+00
6313 1 1 2.6066122773517158e+01 2.5601591105316732e+01 7.8845843442879620e+00
6314 2 2 2.6215249641179380e+01 2.5451626038562086e+01 8.1961090882753247e+00
6315 1 1 2.6350699564954013e+01 2.5260796360033879e+01 8.5049813948506117e+00
966 1 1 2.7785042104183994e+01 2.5266974193633036e+01 8.7762777002598220e+00
14701 1 1 2.7518305976360114e+01 2.5525886852927254e+01 7.7677511552233112e+00
4045 1 1 2.7542752611868579e+01 2.5487313234628491e+01 7.9172484813879418e+00
9925 1 1 2.6395776118435492e+01 2.5184407521910874e+01 8.6202019110043633e+00
9926 3 3 2.6575890855017359e+01 2.4977347270148996e+01 8.9530960606228707e+00
4046 3 3 2.7631827681051714e+01 2.5413147058352823e+01 8.2111542420078916e+00
12317 3 3 2.7007547265149984e+01 2.5937196080964860e+01 9.1299127145064070e+00
4047 1 1 2.7730285169882251e+01 2.5316476637440925e+01 8.6194721487565111e+00
11592 1 1 2.3250997618952475e+01 2.7509290032463781e+01 8.0194248004757913e+00
2275 1 1 2.3328538039042272e+01 2.7457012937281021e+01 8.1383465790676048e+00
2276 2 2 2.3579960964959628e+01 2.7289919624436553e+01 8.3821119873703935e+00
2277 1 1 2.3860966061417514e+01 2.7183173315449462e+01 8.6133714656777158e+00
15312 1 1 2.4000504002382236e+01 2.7114086548739110e+01 8.7136708946185397e+00
15311 3 3 2.4297121808415575e+01 2.6955520812442877e+01 8.9607289660661689e+00
12278 2 2 2.5730749715457776e+01 2.7289921660640115e+01 9.1837709183793805e+00
17829 1 1 2.6888807709386352e+01 2.6149758517704509e+01 8.6555316643523543e+00
12318 1 1 2.6934037616429762e+01 2.6102731014942492e+01 8.7694693045649750e+00
17828 2 2 2.6710915980956511e+01 2.6363562301797096e+01 8.3638268465485517e+00
17827 1 1 2.6451900922948226e+01 2.6591804211560120e+01 8.0867778924249940e+00
11591 2 2 2.3066646707019725e+01 2.7708359429405128e+01 7.7528643895621379e+00
6108 1 1 2.5505621556897449e+01 2.7802758297519869e+01 9.0900253275149954e+00
12277 1 1 2.5573846898155114e+01 2.7679639582162199e+01 9.0943732838165534e+00
6106 1 1 2.5246658246624566e+01 2.8479015705073479e+01 9.1003329591799300e+00
6107 2 2 2.5378874229778926e+01 2.8158342325497525e+01 9.1191583454000291e+00
12577 1 1 2.7777427326541908e+01 3.0822201561712575e+01 8.8899716240240600e+00
10479 1 1 2.6751603719085193e+01 2.1726028917883863e+01 1.0318483040577828e+01
16348 1 1 2.6927643127374619e+01 2.2918837505856381e+01 1.0383738603975713e+01
16349 2 2 2.7094502755875745e+01 2.2854575899523464e+01 1.0727057799376395e+01
1773 1 1 2.6870603170055912e+01 2.2953306480891360e+01 1.0278862267942271e+01
10478 2 2 2.6804369026246427e+01 2.1625498333729340e+01 1.0744272328762650e+01
15060 1 1 2.7861822770508944e+01 2.1663280754239643e+01 9.7334259339057869e+00
12047 2 2 2.5037545097919089e+01 2.3285317698569713e+01 9.5139030014236905e+00
20546 3 3 2.5477531988723857e+01 2.3580241125556736e+01 1.0328576679334340e+01
20547 1 1 2.5766626326542564e+01 2.3600482396299107e+01 1.0622609653847061e+01
20545 1 1 2.5266818256682924e+01 2.3480578009839661e+01 1.0016693691104839e+01
12048 1 1 2.5200085535504147e+01 2.3444723622042783e+01 9.8867677796908442e+00
15513 1 1 2.5856552844542460e+01 2.3597262687964019e+01 1.0701824436560127e+01
5505 1 1 2.6670393453919615e+01 2.3398736604417323e+01 9.4150282931055749e+00
1771 1 1 2.6691522353204345e+01 2.3325482976256545e+01 9.5612084198461371e+00
1772 2 2 2.6738172387817762e+01 2.3114146884517989e+01 9.9321945994783807e+00
7727 2 2 2.7322570561961754e+01 2.4102735925469037e+01 1.0437594597603178e+01
7726 1 1 2.7072134632813935e+01 2.4264924568402211e+01 1.0101820957044781e+01
18237 1 1 2.6996310301624764e+01 2.4313213561449111e+01 9.9785634203090350e+00
7728 1 1 2.7443764074761219e+01 2.4025259256898760e+01 1.0753963599430460e+01
16507 1 1 2.7749084633408984e+01 2.3536464731385394e+01 9.9771957647680978e+00
13378 1 1 2.5661818343391822e+01 2.5110954576316953e+01 9.6092382409815578e+00
13379 3 3 2.5870199886091115e+01 2.5078638546556224e+01 9.9250713793616381e+00
13380 1 1 2.6123126905732057e+01 2.4998927408742382e+01 1.0198742603158145e+01
8332 1 1 2.6230773477696115e+01 2.4976896251308116e+01 1.0308777863652789e+01
15924 1 1 2.5290896618742345e+01 2.6044915686928046e+01 1.0197519609778476e+01
15923 3 3 2.5336829549334922e+01 2.5902905816800757e+01 1.0564019573323064e+01
18235 1 1 2.6682037034178656e+01 2.4744809424325542e+01 9.4090973072083965e+00
18236 3 3 2.6819056538900242e+01 2.4518671760069537e+01 9.6826152046125120e+00
9927 1 1 2.6634566004281723e+01 2.4803201908638119e+01 9.2722218665271434e+00
17348 3 3 2.7289477105489887e+01 2.5524620065710828e+01 9.9490598763313010e+00
17349 1 1 2.7117983629261289e+01 2.5715396307480251e+01 9.6083211637648365e+00
12316 1 1 2.7085699621289383e+01 2.5775197757472188e+01 9.4737229217657646e+00
17347 1 1 2.7420803567809152e+01 2.5354096140433118e+01 1.0301842535749488e+01
8333 2 2 2.6455562249794660e+01 2.4922880841594665e+01 1.0622106394968993e+01
8430 1 1 2.6628152088537206e+01 2.6016646755611237e+01 1.0701845651564669e+01
3056 2 2 2.7654797781411869e+01 2.5128031039399591e+01 1.0735544584337049e+01
3057 1 1 2.7458204038454671e+01 2.5296857088028847e+01 1.0423713902235420e+01
15310 1 1 2.4551203598716835e+01 2.6884223375380802e+01 9.2425704342296928e+00
4401 1 1 2.4644242563160898e+01 2.6877149040548726e+01 9.3862324381835389e+00
4400 2 2 2.4828032312919575e+01 2.6910644553862209e+01 9.7252895272083553e+00
12279 1 1 2.5866888025659890e+01 2.6957811732265743e+01 9.3330353623308220e+00
17810 3 3 2.6042813387618985e+01 2.6632695432743485e+01 9.6833619291361934e+00
17809 1 1 2.5910072091510056e+01 2.6860855989908980e+01 9.4093388216685057e+00
4399 1 1 2.4994037343652195e+01 2.6998353988905251e+01 1.0096488723502025e+01
3417 1 1 2.5082734305185763e+01 2.7018324220607209e+01 1.0222164603921273e+01
3416 3 3 2.5317302368942549e+01 2.7052852215311013e+01 1.0522109693918058e+01
17811 1 1 2.6238194900774712e+01 2.6396207220794892e+01 9.9817658705822740e+00
8428 1 1 2.6292303217485649e+01 2.6337108085919631e+01 1.0080544472007650e+01
10577 3 3 2.7722371999636458e+01 2.6474344490345587e+01 1.0596755694245724e+01
8429 3 3 2.6457470340732439e+01 2.6176239983547131e+01 1.0400860149033639e+01
9028 1 1 2.7032158265535735e+01 2.7417026303829520e+01 1.0753604715518259e+01
10576 1 1 2.7637064893320719e+01 2.6788314887469536e+01 1.0365359288382169e+01
9030 1 1 2.6551349422010407e+01 2.7777750168165980e+01 1.0156834818292845e+01
9029 3 3 2.6774632570907968e+01 2.7592800490273749e+01 1.0438971355481444e+01
21407 2 2 2.7742453218001096e+01 2.2100517000742524e+01 1.2212655859621428e+01
16350 1 1 2.7240037696546981e+01 2.2696746732401486e+01 1.1045736710461938e+01
10477 1 1 2.6844776508759360e+01 2.1538531840051711e+01 1.1161591374941972e+01
1031 3 3 2.6767320422377338e+01 2.1506458539308024e+01 1.1723657836890217e+01
1030 1 1 2.6739568672966321e+01 2.1451945674392391e+01 1.2148203399657174e+01
1032 1 1 2.6845304251479110e+01 2.1527754046187844e+01 1.1326818772392199e+01
18265 1 1 2.7303456859334315e+01 2.2655655827994256e+01 1.1179968109877708e+01
18266 2 2 2.7438859120362014e+01 2.2574701831159945e+01 1.1529518806482368e+01
21406 1 1 2.7635744393632237e+01 2.2330430825985768e+01 1.1963538482813325e+01
18267 1 1 2.7588352615809466e+01 2.2410743087037446e+01 1.1872478798309242e+01
15512 2 2 2.6164326862935155e+01 2.3597010470688126e+01 1.0899604794535961e+01
12438 1 1 2.6077647329108778e+01 2.4308009701648412e+01 1.1850167137818332e+01
12437 2 2 2.5959457478809313e+01 2.4472959785709278e+01 1.1485618592072314e+01
15511 1 1 2.6412430144803793e+01 2.3570890782203286e+01 1.1188467007546100e+01
5655 1 1 2.7508437419304663e+01 2.3938323421458904e+01 1.0902813713055293e+01
4644 1 1 2.6968315923906346e+01 2.3218027980458874e+01 1.2075207926973905e+01
5836 1 1 2.6901528448322054e+01 2.3281627194081761e+01 1.1981713547212081e+01
5838 1 1 2.6484033176389051e+01 2.3563783338378830e+01 1.1327227893501002e+01
5837 2 2 2.6698683477159381e+01 2.3508765921620281e+01 1.1694085632680821e+01
21507 1 1 2.7264635308511622e+01 2.4400554535171015e+01 1.1899594588602818e+01
19353 1 1 2.7212273392843841e+01 2.4453760813064033e+01 1.1775230432459436e+01
21506 2 2 2.7446344676301205e+01 2.4175844589824177e+01 1.2217629443661414e+01
5654 2 2 2.7681905308529664e+01 2.3743815414975998e+01 1.1201778717473974e+01
5653 1 1 2.7846922705878260e+01 2.3501849059002776e+01 1.1519653704915971e+01
11395 1 1 2.5479464775733739e+01 2.5810720682700282e+01 1.1071791629835605e+01
15922 1 1 2.5446345717393822e+01 2.5835986658427419e+01 1.0934990957809795e+01
12436 1 1 2.5895720197992571e+01 2.4569019952704490e+01 1.1100063371429750e+01
11397 1 1 2.5845015323815598e+01 2.5562738246387294e+01 1.1789777109603186e+01
11396 2 2 2.5634494617020337e+01 2.5743960740406479e+01 1.1465203222265162e+01
16674 1 1 2.5921665569948875e+01 2.5534028751050517e+01 1.1879126630899624e+01
16673 2 2 2.6197188846328100e+01 2.5448801718712019e+01 1.2179091924981032e+01
13555 1 1 2.7705172045984281e+01 2.5396885039844587e+01 1.2267476761852507e+01
3055 1 1 2.7862456973135426e+01 2.4988629195857424e+01 1.1058947522462297e+01
15183 1 1 2.6679257896475054e+01 2.5955240471368541e+01 1.0791892626859871e+01
19352 2 2 2.6989755919521414e+01 2.4669029804412979e+01 1.1468713098594307e+01
8334 1 1 2.6720083056793214e+01 2.4877087456204130e+01 1.0971175755875212e+01
19351 1 1 2.6790056780150678e+01 2.4815749311372574e+01 1.1114288586520882e+01
15182 2 2 2.6866346355136614e+01 2.5813648258579441e+01 1.1166571025970459e+01
15181 1 1 2.7081211903880838e+01 2.5663635621036967e+01 1.1497797456063408e+01
769 1 1 2.7156137574358748e+01 2.5629518764860901e+01 1.1638215241634217e+01
770 2 2 2.7393398664515406e+01 2.5556595578042078e+01 1.1903211358279762e+01
771 1 1 2.7630460238742600e+01 2.5472098644112556e+01 1.2196218841544995e+01
9061 1 1 2.4338344063800236e+01 2.6955559365332860e+01 1.0919570551518747e+01
9062 3 3 2.4520627210616784e+01 2.6962671275244169e+01 1.1242020590423911e+01
9063 1 1 2.4731805658328064e+01 2.6922907573957183e+01 1.1506848582448178e+01
7833 1 1 2.4840632782488782e+01 2.6893395857017133e+01 1.1640564127232279e+01
900 1 1 2.5459832527926299e+01 2.6602560915231788e+01 1.2276818480435447e+01
3415 1 1 2.5571670238948119e+01 2.7072681663673272e+01 1.0854575503665611e+01
14724 1 1 2.5706866582903608e+01 2.7093547377215888e+01 1.0956595834507446e+01
7832 2 2 2.5142832851938774e+01 2.6775858735832479e+01 1.1936871807095541e+01
7831 1 1 2.5382320254614218e+01 2.6664790659302124e+01 1.2196918928718047e+01
14723 2 2 2.5929379683103903e+01 2.7127947449683447e+01 1.1272001196546199e+01
14722 1 1 2.6214217638176088e+01 2.7107162797248577e+01 1.1525249242121060e+01
20082 1 1 2.6325132554722263e+01 2.7073354444779568e+01 1.1608923449608122e+01
8035 1 1 2.7117349615770419e+01 2.7337939396013986e+01 1.0888409876119079e+01
20081 2 2 2.6543349454826014e+01 2.6914277031012574e+01 1.1864419994664766e+01
7530 1 1 2.7591356799525197e+01 2.6953788787715268e+01 1.1655064454706011e+01
8036 2 2 2.7332208626514877e+01 2.7164706654566093e+01 1.1213023597926510e+01
8037 1 1 2.7514409910676431e+01 2.7019235137715167e+01 1.1553755521827030e+01
9751 1 1 2.6861748685697808e+01 2.6597123802577837e+01 1.2213666873520337e+01
20080 1 1 2.6799110204903901e+01 2.6695750322883480e+01 1.2103525301327190e+01
7529 2 2 2.7810320465579920e+01 2.6730768800528995e+01 1.1887368339387079e+01
9673 1 1 2.5380185687536017e+01 2.8450318577926559e+01 1.1443962265732500e+01
9674 3 3 2.5743377981020824e+01 2.8268568428295172e+01 1.1511937845434487e+01
20050 1 1 2.6301817667659780e+01 2.8215536206607453e+01 1.1704176793894796e+01
9675 1 1 2.6148284514556398e+01 2.8244404705720005e+01 1.1640270892140526e+01
17776 1 1 2.5410330057118500e+01 2.7597556407182932e+01 1.2273709670629581e+01
14588 2 2 2.7345214071774240e+01 2.7711304239680420e+01 1.2214672212685540e+01
20052 1 1 2.6983175265084395e+01 2.7928463148132312e+01 1.1971890754559212e+01
20051 2 2 2.6628847746114506e+01 2.8060465332364238e+01 1.1806778233917571e+01
14587 1 1 2.7089748219760267e+01 2.7874644037257109e+01 1.2026950102430431e+01
5746 1 1 2.7470321012109213e+01 2.8845172913346961e+01 1.1112751049818087e+01
5747 2 2 2.7686889660514069e+01 2.8726130096448660e+01 1.1466112140200059e+01
13272 1 1 2.6736611263420912e+01 2.1445500477467068e+01 1.2311741467178969e+01
14673 1 1 2.6800444762959224e+01 2.1411453818514101e+01 1.3272079247981997e+01
13270 1 1 2.6784547962941009e+01 2.1389113705386379e+01 1.3101778965739431e+01
13271 2 2 2.6774254172137912e+01 2.1399512737995600e+01 1.2708869092879763e+01
1453 1 1 2.7661568326426067e+01 2.2346648919590933e+01 1.3526725933962320e+01
259 1 1 2.7580949961336962e+01 2.2431321490722389e+01 1.3420054957265183e+01
14672 2 2 2.6899791229781403e+01 2.1502847716815261e+01 1.3674930366764777e+01
4642 1 1 2.7211449059041264e+01 2.2900208196438285e+01 1.2748320674373215e+01
261 1 1 2.7243266578830639e+01 2.2848465706382736e+01 1.2860466028424669e+01
260 2 2 2.7396462247540970e+01 2.2643176080955492e+01 1.3164206144577706e+01
15769 1 1 2.5629272055391468e+01 2.4373840066693081e+01 1.3074251908172021e+01
15770 3 3 2.5891351926209659e+01 2.4109612210743485e+01 1.3192369122264566e+01
15771 1 1 2.6218946980939990e+01 2.3846445706652446e+01 1.3329216845751267e+01
2878 1 1 2.6339603733031026e+01 2.3760366676412897e+01 1.3385571711586083e+01
4643 2 2 2.7077265074565826e+01 2.3060343680479587e+01 1.2376366206337774e+01
8152 1 1 2.7703355682282940e+01 2.3855269806980321e+01 1.2620085052693952e+01
2879 2 2 2.6644563889780617e+01 2.3626233050391708e+01 1.3595445641637154e+01
18486 1 1 2.7427900294842836e+01 2.4419284813046144e+01 1.3606411539637293e+01
21505 1 1 2.7622560425235658e+01 2.3912742729048858e+01 1.2501437172675104e+01
235 1 1 2.7472283938067182e+01 2.4357878595272467e+01 1.3680384279606262e+01
3263 2 2 2.6213572766646070e+01 2.5903223732546767e+01 1.3201407315678978e+01
3264 1 1 2.6334815072058561e+01 2.5624171036362828e+01 1.3418007485091005e+01
16672 1 1 2.6477113706896613e+01 2.5271265498938583e+01 1.2365829504066870e+01
8824 1 1 2.6566745102705486e+01 2.5194627276833803e+01 1.2440023372889288e+01
18485 2 2 2.7248632184969196e+01 2.4591405957156844e+01 1.3307423881969283e+01
9243 1 1 2.6398506749194045e+01 2.5542819858059701e+01 1.3499452436905640e+01
18484 1 1 2.7097698637978848e+01 2.4776375932856116e+01 1.3018884706045332e+01
8826 1 1 2.7032267262736003e+01 2.4847728301748493e+01 1.2910230994230423e+01
8825 2 2 2.6775623855264286e+01 2.4965956633923131e+01 1.2650007763682494e+01
7325 2 2 2.7276806409900569e+01 2.5813564474422083e+01 1.3236269290807698e+01
7324 1 1 2.7431929881452142e+01 2.5599452363870324e+01 1.3570512747061034e+01
17946 1 1 2.7497667573439244e+01 2.5517210853991973e+01 1.3685563144038236e+01
9242 2 2 2.6581189856092951e+01 2.5345672596365944e+01 1.3785801037936668e+01
17777 3 3 2.5771232168310945e+01 2.7564977688224651e+01 1.2380349643370035e+01
898 1 1 2.5979012767748131e+01 2.6265231241770184e+01 1.2856003757008763e+01
3262 1 1 2.6049874849889701e+01 2.6183596226897059e+01 1.2961088414589081e+01
899 2 2 2.5747958356534017e+01 2.6436945614116880e+01 1.2525614917558402e+01
17778 1 1 2.6104079608554496e+01 2.7556845424740228e+01 1.2523111234643460e+01
1662 1 1 2.6227502349643537e+01 2.7550996877694132e+01 1.2611499613434344e+01
9753 1 1 2.7069671825920810e+01 2.6138680013354577e+01 1.2834472925573300e+01
7326 1 1 2.7129836376639371e+01 2.6048736183514965e+01 1.2933579508632098e+01
9772 1 1 2.6684032072050883e+01 2.6664451396656673e+01 1.3768217585136556e+01
14589 1 1 2.7644544652423090e+01 2.7572679633732754e+01 1.2421932590351425e+01
84 1 1 2.7763530511986922e+01 2.7522044032249465e+01 1.2533518927167339e+01
1661 2 2 2.6493126642554877e+01 2.7465408797007544e+01 1.2824882379528178e+01
243 1 1 2.7510264870322199e+01 2.6737889312932950e+01 1.3690445761257504e+01
9752 2 2 2.6953810980327919e+01 2.6348638317749419e+01 1.2541943284675822e+01
3309 1 1 2.7414415487266094e+01 2.6834669010695311e+01 1.3601591698805588e+01
3308 2 2 2.7204661014834041e+01 2.7092145260317579e+01 1.3363952701227539e+01
3307 1 1 2.6898186341833561e+01 2.7293997018882880e+01 1.3159233011993374e+01
1660 1 1 2.6775975402815220e+01 2.7346319385458091e+01 1.3067613073086244e+01
1821 1 1 2.6690222336870963e+01 2.9058630737469500e+01 1.2624265186655931e+01
1820 2 2 2.6953088912806386e+01 2.8893420947880557e+01 1.2845598938220990e+01
5697 1 1 2.7861238508656950e+01 2.8053510949541593e+01 1.3531897732573507e+01
5695 1 1 2.7383478103472005e+01 2.8589905850734606e+01 1.3070898362442833e+01
1819 1 1 2.7275841249453698e+01 2.8682943950805353e+01 1.3008242527160233e+01
5696 2 2 2.7634878393034452e+01 2.8308910667500307e+01 1.3295740565671029e+01
14671 1 1 2.7023151598064111e+01 2.1418389589852492e+01 1.4034240932779504e+01
17629 1 1 2.7063050149412309e+01 2.1403441595038419e+01 1.4165278277429650e+01
17630 2 2 2.7173671607046529e+01 2.1284521050280599e+01 1.4540931383306059e+01
13758 1 1 2.7454145728802352e+01 2.1284986336655884e+01 1.5027521799378359e+01
17631 1 1 2.7380397676303289e+01 2.1278731322743266e+01 1.4884925561708579e+01
11564 2 2 2.7635960809079403e+01 2.2625489630601052e+01 1.4860344461416059e+01
7294 1 1 2.7342292000077606e+01 2.2845717515474313e+01 1.4492947762433326e+01
11565 1 1 2.7403487778563321e+01 2.2791568288895540e+01 1.4594227693326580e+01
1454 2 2 2.7831295277434005e+01 2.2116752465992942e+01 1.3853813443136133e+01
237 1 1 2.7758026177538067e+01 2.3916641173377798e+01 1.4284291277283639e+01
7295 2 2 2.7130806994320665e+01 2.3059590185862525e+01 1.4205751724611046e+01
7296 1 1 2.6922800064356299e+01 2.3284853540018933e+01 1.3938475908267174e+01
2880 1 1 2.6864253625570150e+01 2.3357617264556662e+01 1.3872845793675271e+01
236 2 2 2.7603196883027675e+01 2.4132082043622109e+01 1.3972443537389474e+01
19019 2 2 2.7334716169021839e+01 2.4416949819118248e+01 1.5330128420750327e+01
7158 1 1 2.7819431689138408e+01 2.3825123400106115e+01 1.4415512303952687e+01
17945 2 2 2.7702084345354780e+01 2.5320454593667243e+01 1.4006868303381426e+01
19018 1 1 2.7149706625514277e+01 2.4570705183743708e+01 1.4996374085898115e+01
20866 1 1 2.7088213696792018e+01 2.4639057977436210e+01 1.4863594729079676e+01
20867 2 2 2.6899906026418403e+01 2.4774987372437650e+01 1.4556952617468070e+01
20868 1 1 2.6736712992392714e+01 2.5048923015010192e+01 1.4233161573139480e+01
9241 1 1 2.6694315623248986e+01 2.5158723997539830e+01 1.4107975613559921e+01
1281 1 1 2.7440093628742485e+01 2.5558520725205359e+01 1.5059143881570725e+01
16264 1 1 2.7339208109129864e+01 2.5621128272036700e+01 1.4959347218312237e+01
16265 2 2 2.7114170698834631e+01 2.5793014694599854e+01 1.4720711192772155e+01
16266 1 1 2.6996079667822031e+01 2.6010276362106971e+01 1.4406787481942269e+01
1280 2 2 2.7667968645705329e+01 2.5444553039122233e+01 1.5326713713487059e+01
13541 2 2 2.7247037871494140e+01 2.7504924861699166e+01 1.4648944485631088e+01
9774 1 1 2.6927650462635540e+01 2.6097990765087957e+01 1.4310494471160007e+01
9773 2 2 2.6742049600564215e+01 2.6343595403491943e+01 1.4080254388995357e+01
13542 1 1 2.7315726137669778e+01 2.7363828401023145e+01 1.5054502452252100e+01
242 2 2 2.7786138849381047e+01 2.6535348026761081e+01 1.3860142805512265e+01
13540 1 1 2.7237295393098957e+01 2.7631083354800236e+01 1.4267541281522707e+01
13757 2 2 2.7590850138516121e+01 2.1284391530066252e+01 1.5443786748871139e+01
4803 1 1 2.7822172327740823e+01 2.1079610659678181e+01 1.5924740652112817e+01
13756 1 1 2.7777103345741878e+01 2.1122395855826490e+01 1.5806777101690923e+01
16726 1 1 2.7541426956494824e+01 2.4152030809847510e+01 1.5793525089373803e+01
19020 1 1 2.7461149337943080e+01 2.4215391572873749e+01 1.5678446760535211e+01
16727 2 2 2.7692950934841544e+01 2.4016015676683441e+01 1.6148957343975365e+01
1279 1 1 2.7858994842427116e+01 2.5305912652859217e+01 1.5627217165852089e+01
19603 1 1 2.7861081182202305e+01 2.2356054700679298e+01 1.7807592392126168e+01
5811 1 1 2.7761015235772650e+01 3.4617064194449284e+01 4.9883428793844963e+01
15794 2 2 2.7593409074559442e+01 3.4957632238372554e+01 4.9530088490063022e+01
15795 1 1 2.7713126651513445e+01 3.4699264802657076e+01 4.9785845726642265e+01
15793 1 1 2.7519390477102661e+01 3.5227176696700468e+01 4.9207921828579295e+01
8670 1 1 2.9577174348590511e+01 2.3836220221316797e+01 6.3707067569002698e+00
6639 1 1 3.0546166415275547e+01 2.3456320144739269e+01 6.3273684288241228e+00
17503 1 1 2.9953566079007032e+01 2.4369504665192160e+01 5.3902614095332648e+00
10343 2 2 3.1633368722456229e+01 2.4041564985494642e+01 6.3855687427368188e+00
10342 1 1 3.1438136446692482e+01 2.4353085423641875e+01 6.1395061737023289e+00
15456 1 1 3.2941315882937857e+01 2.3694323361133179e+01 6.1790398998728975e+00
20670 1 1 3.2956894590659957e+01 2.3734569758089258e+01 6.3222836967207687e+00
15454 1 1 3.2901624799060386e+01 2.3303452358155411e+01 5.5354041988317357e+00
15455 2 2 3.2917058747884248e+01 2.3558286294403860e+01 5.8144949340596384e+00
16242 1 1 2.9997494549714354e+01 2.2706124285039841e+01 7.6305136453168014e+00
16708 1 1 3.0018573953227286e+01 2.2579451974263097e+01 7.7526106853774772e+00
1215 1 1 3.1076570955567256e+01 2.2672240984179549e+01 7.8146370636810314e+00
19773 1 1 3.1110202264694490e+01 2.2590705031072670e+01 7.9328443808121722e+00
13727 2 2 3.2103665626826945e+01 2.2724189270627335e+01 7.6871792754487460e+00
13726 1 1 3.2182600198251400e+01 2.2419169650787129e+01 7.9324186753651613e+00
16241 2 2 2.9936319528178100e+01 2.2994770873505050e+01 7.3283787058076744e+00
1214 2 2 3.0964590064283144e+01 2.2913627279066652e+01 7.5799322211204503e+00
8669 3 3 2.9667808571973552e+01 2.3619001660418281e+01 6.6878988056125932e+00
16240 1 1 2.9838591486506829e+01 2.3265130726003964e+01 7.0568196308029787e+00
8668 1 1 2.9791112633742426e+01 2.3354158460641063e+01 6.9384531026078884e+00
1213 1 1 3.0835682021338336e+01 2.3097819532035818e+01 7.2592372301183659e+00
6637 1 1 3.0802491827838256e+01 2.3148055980059489e+01 7.0901028712786669e+00
6638 3 3 3.0673799065914526e+01 2.3296356883335584e+01 6.7130306942764779e+00
18515 3 3 3.0386540875114662e+01 2.3773130164522783e+01 7.8684759369521133e+00
18514 1 1 3.0435695286892624e+01 2.4037721595935036e+01 7.5897411914695594e+00
12468 1 1 3.0464389007044645e+01 2.4163685124481958e+01 7.4821037975460225e+00
13728 1 1 3.2027396145932926e+01 2.2998577543063039e+01 7.3949667651165827e+00
16584 1 1 3.1997090758114339e+01 2.3119616244103597e+01 7.2773084156778367e+00
10344 1 1 3.1812531182557272e+01 2.3781609743696340e+01 6.5962771572233780e+00
16582 1 1 3.1875769316580147e+01 2.3663775892706752e+01 6.6795925572043666e+00
16583 2 2 3.1942012406965357e+01 2.3356852878663496e+01 6.9855211326832247e+00
13940 2 2 3.1590769771383048e+01 2.4151743732497000e+01 7.8834918350599281e+00
10472 2 2 3.2824609824750780e+01 2.3493479473622799e+01 7.5586445057948479e+00
10473 1 1 3.2755240240980662e+01 2.3384818618718654e+01 7.9372845666601926e+00
20669 2 2 3.2904739234710796e+01 2.3743669086759912e+01 6.6838947223527514e+00
20668 1 1 3.2863295202348404e+01 2.3684229999609713e+01 7.0874594556728630e+00
10471 1 1 3.2869776159772385e+01 2.3650323386078071e+01 7.2252662575049866e+00
12443 2 2 2.9402365198404894e+01 2.1323699848895284e+01 9.5776464388994356e+00
9496 1 1 3.2799498211670887e+01 2.1307755592661128e+01 9.4708157383778317e+00
12444 1 1 2.9284524544210392e+01 2.1571286262273958e+01 9.2762156825773214e+00
14949 1 1 2.8443676638304300e+01 2.2437180520258419e+01 9.4021870886501251e+00
14116 1 1 2.8393451828083723e+01 2.2458042352162931e+01 9.2756731314658207e+00
14117 3 3 2.8209748934770438e+01 2.2550160352396173e+01 8.9611678429159927e+00
16201 1 1 2.9319201668449427e+01 2.2660506592664014e+01 8.7208730289640428e+00
16202 2 2 2.9496934549398905e+01 2.2494294302897412e+01 9.0448435369579236e+00
16203 1 1 2.9550047626660785e+01 2.2418823176428564e+01 9.4263790310853288e+00
7203 1 1 2.9582742949479119e+01 2.2403656269119569e+01 9.5633055304913697e+00
14118 1 1 2.7984817795532916e+01 2.2647938773247770e+01 8.6757834972169121e+00
2907 1 1 2.7914857543243663e+01 2.2701949512947792e+01 8.5514177271545755e+00
16709 2 2 3.0044903558958573e+01 2.2302229384506226e+01 8.0600987482371025e+00
19585 1 1 3.0342670192144805e+01 2.1372888301666169e+01 9.2770699220136343e+00
13165 1 1 3.0308895673423301e+01 2.1425779646502843e+01 9.1521853812722416e+00
16710 1 1 3.0138985647587361e+01 2.2092936529612313e+01 8.4234144992574418e+00
13167 1 1 3.0163061213440923e+01 2.2013727402205085e+01 8.5692251675143574e+00
13166 2 2 3.0230249390770641e+01 2.1714053377346133e+01 8.8339206285445844e+00
19250 2 2 3.0716906803711691e+01 2.2779906184362357e+01 9.2917819129149439e+00
19772 2 2 3.1171684110387602e+01 2.2360639136419067e+01 8.2393877313513251e+00
19251 1 1 3.0793577284802968e+01 2.2597305752144237e+01 9.5795324958607928e+00
19771 1 1 3.1267082581163262e+01 2.2128390005225775e+01 8.6198075794773175e+00
21382 1 1 3.1274765663099490e+01 2.2059237800478179e+01 8.7417692991527236e+00
9312 1 1 3.2202426437793832e+01 2.2314085206356687e+01 8.0304506644792273e+00
2516 2 2 3.2612288895688167e+01 2.1631191255299310e+01 9.1343621690442696e+00
21384 1 1 3.1397932069126046e+01 2.1739708027166269e+01 9.4351317106547743e+00
9311 2 2 3.2336074524487223e+01 2.2082674159713562e+01 8.3207625980209130e+00
21383 2 2 3.1333384456934596e+01 2.1871314891954608e+01 9.0837112636269826e+00
9310 1 1 3.2453929925018137e+01 2.1889824519290364e+01 8.6291259362900341e+00
2517 1 1 3.2487680586488558e+01 2.1821484426869194e+01 8.7363973223314204e+00
10305 1 1 3.1913529436277457e+01 2.2588641348009851e+01 9.3585452320308899e+00
9255 1 1 3.1935027678085408e+01 2.2499401311797349e+01 9.4859917861835683e+00
8566 1 1 3.1439414286117987e+01 2.1654925228755165e+01 9.5646292072751127e+00
10304 2 2 3.1818358247601715e+01 2.2829196541930113e+01 9.0587740059290898e+00
9992 2 2 3.2896988552954731e+01 2.2710971741328333e+01 9.1999549276763837e+00
2515 1 1 3.2773146420902755e+01 2.1384768645637131e+01 9.3589637904434735e+00
9993 1 1 3.2975646499740428e+01 2.2461074247614267e+01 9.5049709135914373e+00
2888 2 2 2.8833751627807828e+01 2.3436100789209362e+01 9.3817487596069427e+00
2889 1 1 2.8798741429068667e+01 2.3413618149422774e+01 9.0024645445783520e+00
18516 1 1 3.0319283947580004e+01 2.3582857307308096e+01 8.1982164645240143e+00
6085 1 1 3.0327516050535657e+01 2.3520222714880269e+01 8.3135273791184634e+00
19249 1 1 3.0568989394255230e+01 2.2985033443812949e+01 9.0136873193437417e+00
6087 1 1 3.0521200040495213e+01 2.3081837853764181e+01 8.9156332084920766e+00
6086 2 2 3.0422876541908810e+01 2.3343718554278205e+01 8.6440813790065629e+00
21499 1 1 3.0119627448204348e+01 2.4053331399985503e+01 9.4056550062995328e+00
17436 1 1 3.1220645334419260e+01 2.4145741585538744e+01 9.1540026726703552e+00
14218 1 1 3.0082637404534662e+01 2.4127650271871254e+01 9.2916498884593040e+00
14219 2 2 2.9975767592103569e+01 2.4317358019221867e+01 8.9573390088858869e+00
4791 1 1 3.1180162219668645e+01 2.4227606533181493e+01 9.0433851326426247e+00
13154 2 2 3.2790626034349458e+01 2.3260330044751765e+01 8.4284605424993888e+00
13939 1 1 3.1558413360686799e+01 2.3901405065846898e+01 8.0550235145210038e+00
17113 1 1 3.1555064879838401e+01 2.3754931873235204e+01 8.1553847852082626e+00
17435 2 2 3.1322351723814979e+01 2.3907349598327091e+01 9.4983233741564526e+00
17114 2 2 3.1607943435897830e+01 2.3472817613276877e+01 8.4206973729067425e+00
10303 1 1 3.1702053556963154e+01 2.3071890669131463e+01 8.7893147826369127e+00
17115 1 1 3.1678948152231662e+01 2.3165623528523881e+01 8.7014861999049486e+00
13019 2 2 3.2367142065620499e+01 2.3765079476222521e+01 9.5547795268854081e+00
13018 1 1 3.2253660157382427e+01 2.4018778394662370e+01 9.2750227790073758e+00
6382 1 1 3.2213045746639622e+01 2.4107323090174120e+01 9.1774081442097035e+00
6383 2 2 3.2124921506569073e+01 2.4373178606699401e+01 8.8712049577459773e+00
13155 1 1 3.2853125105593399e+01 2.3077606356153865e+01 8.7430654885970043e+00
13153 1 1 3.2750718157229628e+01 2.3366623399722666e+01 8.0904083801215787e+00
9991 1 1 3.2865625900634356e+01 2.2978098309828354e+01 8.8532182877119592e+00
9292 1 1 3.0101986767202767e+01 1.9830119096438587e+01 1.1167874691106359e+01
12442 1 1 2.9437385651346858e+01 2.0973458450878766e+01 9.8248160141729990e+00
17736 1 1 2.9442740876046177e+01 2.0839347692506735e+01 9.9176441541200493e+00
17735 3 3 2.9515762616900656e+01 2.0533983732525684e+01 1.0150947436676555e+01
19586 2 2 3.0490782830029232e+01 2.1256511729703202e+01 9.6064337089311795e+00