ITEM: TIMESTEP
60000000
ITEM: NUMBER OF ATOMS
3054
ITEM: BOX BOUNDS pp pp pp
0.0000000000000000e+00 5.0000000000000000e+01
0.0000000000000000e+00 5.0000000000000000e+01
0.0000000000000000e+00 5.0000000000000000e+01
ITEM: ATOMS id type xs ys zs
11916 1 0.186726 0.0747522 0.00637972
11915 3 0.189593 0.0802385 0.0122124
11914 1 0.189627 0.0855358 0.0177596
18243 1 0.189473 0.0876874 0.0205212
18242 2 0.186712 0.0922376 0.026529
12618 1 0.0602629 0.203493 0.0138935
10332 1 0.0771092 0.197162 0.00688541
12616 1 0.074288 0.19821 0.00826772
12617 3 0.0671369 0.200294 0.010437
10331 2 0.0827943 0.195183 0.00244011
12733 1 0.0664646 0.669799 0.000953466
12734 2 0.0717813 0.664236 0.000154272
1714 1 0.246359 0.691235 0.0205805
1716 1 0.248135 0.677231 0.0143725
1715 3 0.247285 0.683809 0.0176328
11142 1 0.0460329 0.749073 0.0258092
11141 2 0.0491804 0.755264 0.0211673
11140 1 0.0524362 0.761287 0.0169357
12826 1 0.18342 0.096091 0.0355679
12827 3 0.181053 0.100339 0.0419158
12828 1 0.181305 0.106718 0.0474985
18241 1 0.184283 0.0948507 0.0332171
11271 1 0.166643 0.150439 0.0323044
11269 1 0.173748 0.161837 0.0410957
11270 3 0.170758 0.15554 0.0377789
13667 2 0.153427 0.420531 0.057062
13666 1 0.146633 0.418379 0.0610677
13668 1 0.159165 0.422543 0.0517631
14666 3 0.187683 0.408808 0.0587304
14667 1 0.180013 0.407903 0.059644
14665 1 0.194278 0.411017 0.0574883
252 1 0.2522 0.451677 0.0363644
16934 2 0.0543254 0.578008 0.061597
18873 1 0.05597 0.589209 0.0611218
16935 1 0.055281 0.586231 0.0609577
18871 1 0.0615225 0.604635 0.0603792
18872 3 0.059032 0.596738 0.0605933
11004 1 0.0627927 0.613421 0.0438677
11003 3 0.0684878 0.616856 0.0475465
11002 1 0.0752108 0.62141 0.0493129
5956 1 0.0135078 0.694383 0.0340386
5957 3 0.0102543 0.700501 0.0375106
5958 1 0.00767948 0.708363 0.0388917
1011 1 0.136742 0.720588 0.0566831
1010 2 0.139853 0.714231 0.0536734
1009 1 0.143168 0.707394 0.0506152
651 1 0.0229886 0.755299 0.0313677
650 3 0.0284847 0.760469 0.035912
649 1 0.0315633 0.765286 0.0403594
5377 1 0.013147 0.12649 0.0889376
15184 1 0.223162 0.334697 0.0672844
15185 2 0.230118 0.329207 0.0666926
15186 1 0.237142 0.325513 0.0666998
16933 1 0.0528915 0.569782 0.0636561
4340 2 0.037269 0.61122 0.0878613
7688 3 0.0402226 0.592692 0.0848055
7689 1 0.0426291 0.585163 0.0830744
7687 1 0.0380751 0.600163 0.0859773
4339 1 0.0373724 0.603005 0.0867932
4341 1 0.0369426 0.620369 0.0863802
19799 3 0.232132 0.0249694 0.11653
19800 1 0.228602 0.0192834 0.120316
19798 1 0.234745 0.0326016 0.114138
9697 1 0.235639 0.0348165 0.113501
9698 2 0.238697 0.0419916 0.111727
9699 1 0.241852 0.0489512 0.109722
5378 2 0.00739954 0.130192 0.093852
5379 1 0.00343704 0.133434 0.101159
20771 3 0.0422098 0.191689 0.11844
20772 1 0.0492364 0.192357 0.121123
20770 1 0.0341366 0.190036 0.117628
18684 1 0.034939 0.333365 0.101196
6368 3 0.0798985 0.336341 0.113728
6367 1 0.0780965 0.32995 0.109955
18682 1 0.0475903 0.342198 0.101237
18683 3 0.0411017 0.337817 0.101441
8379 1 0.0827435 0.344219 0.120929
6369 1 0.082275 0.342003 0.118686
19430 3 0.249813 0.487306 0.11282
19429 1 0.241271 0.484576 0.113747
8128 1 0.179366 0.557027 0.111042
8129 2 0.182602 0.55659 0.104043
8130 1 0.184852 0.556705 0.0960516
14516 2 0.189627 0.601069 0.116932
14517 1 0.184741 0.594947 0.114497
14515 1 0.195059 0.607976 0.117779
17218 1 0.197706 0.609776 0.117738
17220 1 0.210977 0.619403 0.118384
17219 3 0.203699 0.615449 0.11802
5562 1 0.0120313 0.0761332 0.133016
5561 3 0.0156127 0.0707148 0.128318
5560 1 0.0184663 0.0658003 0.123316
19094 3 0.0583237 0.332682 0.138735
19095 1 0.050632 0.333249 0.13646
76 1 0.0701611 0.330976 0.141941
19093 1 0.0669847 0.331502 0.140783
78 1 0.0826104 0.32896 0.151651
77 3 0.0768342 0.329226 0.146244
13097 3 0.166507 0.332618 0.139366
13098 1 0.161997 0.326631 0.142866
8378 2 0.0847991 0.349341 0.125824
8377 1 0.0869878 0.354034 0.131478
13096 1 0.172304 0.337594 0.134835
12789 1 0.156212 0.568552 0.149754
2169 1 0.116804 0.693458 0.151163
1711 1 0.0522529 0.162501 0.161092
1712 3 0.059859 0.164852 0.163154
10274 2 0.0773009 0.169248 0.169635
10273 1 0.0700101 0.167079 0.166108
1713 1 0.067386 0.16654 0.165011
10275 1 0.0820723 0.17363 0.172841
15211 1 0.158853 0.18554 0.176296
15213 1 0.164286 0.193935 0.163658
15212 2 0.161259 0.188727 0.169653
8103 1 0.0718656 0.355397 0.178287
6514 1 0.170043 0.451533 0.178322
6515 2 0.173975 0.449005 0.184659
308 2 0.0605007 0.463968 0.172866
309 1 0.0524109 0.461804 0.173216
307 1 0.0676819 0.467274 0.171126
6205 1 0.15466 0.503255 0.180928
19941 1 0.157181 0.503722 0.182692
6206 2 0.14851 0.502436 0.174686
6207 1 0.143721 0.50161 0.168985
19940 3 0.164595 0.504925 0.184961
12787 1 0.155762 0.567699 0.164692
12788 3 0.155273 0.568319 0.157664
2167 1 0.114443 0.684692 0.162743
2168 2 0.114841 0.688695 0.15598
8102 3 0.0708201 0.35882 0.18549
8101 1 0.0719831 0.364362 0.193644
4277 3 0.184531 0.425538 0.211986
7114 1 0.152695 0.454571 0.212077
7115 2 0.153458 0.459637 0.205621
4276 1 0.182967 0.430383 0.206239
6978 1 0.181689 0.432632 0.204039
6977 3 0.179304 0.438213 0.199323
6976 1 0.1777 0.443366 0.194333
6516 1 0.176783 0.444819 0.191242
7116 1 0.151669 0.465317 0.200027
19939 1 0.172154 0.506148 0.186714
16173 1 0.0925585 0.638395 0.214561
18665 3 0.199491 0.733176 0.190601
18666 1 0.204745 0.728658 0.195652
18664 1 0.195742 0.737428 0.185603
9305 2 0.0865106 0.357059 0.235462
9304 1 0.082986 0.364381 0.232485
9306 1 0.0908875 0.34928 0.238666
15048 1 0.0921445 0.346883 0.240258
15047 3 0.09577 0.340026 0.245213
11801 3 0.18472 0.38683 0.24575
11800 1 0.18815 0.383696 0.239685
4278 1 0.185709 0.42084 0.218205
9518 3 0.159026 0.439483 0.239366
9517 1 0.161129 0.43898 0.231132
405 1 0.157286 0.599739 0.238157
404 3 0.158932 0.602587 0.23162
403 1 0.161914 0.607366 0.225706
16171 1 0.0938097 0.643093 0.231366
16172 2 0.093419 0.639823 0.223152
10271 2 0.252587 0.21431 0.258231
10272 1 0.250526 0.21551 0.266017
533 3 0.174707 0.288441 0.269112
534 1 0.176455 0.280652 0.26654
532 1 0.174112 0.296355 0.271344
15046 1 0.0985586 0.333281 0.248643
11802 1 0.181834 0.391782 0.250169
10227 1 0.126741 0.458097 0.275679
9519 1 0.158783 0.437902 0.246879
2783 3 0.0112104 0.697479 0.275012
2782 1 0.00575873 0.703131 0.274
9705 1 0.135997 0.0372423 0.280001
9704 3 0.135733 0.0365058 0.288507
9703 1 0.134075 0.0359439 0.296481
7983 1 0.22243 0.0743544 0.293129
7981 1 0.229184 0.0833465 0.281349
7982 3 0.225625 0.0786127 0.286729
12372 1 0.183277 0.116299 0.293892
12371 3 0.179852 0.109622 0.293767
12370 1 0.176773 0.102934 0.292154
10225 1 0.119793 0.471757 0.282597
10226 3 0.122386 0.464285 0.279158
17430 1 0.0599233 0.596898 0.304833
2784 1 0.0162838 0.691924 0.27775
13336 1 0.201676 0.0758003 0.32138
13337 2 0.197168 0.0734664 0.315154
13338 1 0.191324 0.0707951 0.309891
6453 1 0.00188615 0.243578 0.322191
12603 1 0.00711083 0.385187 0.324782
12602 2 0.0051418 0.392223 0.326221
12601 1 0.00253715 0.398594 0.330447
15036 1 0.00167778 0.400938 0.331846
17355 1 0.00116232 0.555952 0.323505
17428 1 0.0514 0.587373 0.315801
17429 3 0.0563242 0.591936 0.310382
9433 1 0.176049 0.0587916 0.362109
9435 1 0.16614 0.0626015 0.351588
9434 2 0.170488 0.0613623 0.357047
12938 2 0.199861 0.298972 0.344401
12937 1 0.20215 0.306002 0.341564
12939 1 0.196166 0.293348 0.348373
15665 2 0.12247 0.60705 0.350007
15666 1 0.116593 0.612404 0.350652
15664 1 0.128614 0.601917 0.348732
16597 1 0.114891 0.615013 0.350727
16599 1 0.108627 0.629971 0.349118
1349 2 0.103968 0.639835 0.345612
1348 1 0.107705 0.63275 0.348199
16598 3 0.11135 0.622467 0.350534
7721 3 0.133044 0.638727 0.364191
7720 1 0.131243 0.640891 0.357788
1350 1 0.0985634 0.644612 0.343401
5121 1 0.0236377 0.76466 0.351344
12529 1 0.0415791 0.0567086 0.391263
12530 3 0.0385997 0.054002 0.398259
9459 1 0.183144 0.194123 0.381835
1945 1 0.190346 0.203987 0.369935
1946 3 0.185325 0.210562 0.369744
9458 2 0.186092 0.196361 0.388727
18134 2 0.198005 0.209637 0.399452
18135 1 0.19317 0.203261 0.395695
9457 1 0.191325 0.201116 0.39402
1947 1 0.180521 0.217191 0.371611
10098 1 0.00452586 0.283122 0.386052
4700 3 0.00186105 0.324878 0.395508
3558 1 0.242484 0.372757 0.383257
3557 3 0.237306 0.370656 0.388975
3556 1 0.231543 0.36915 0.394222
18084 1 0.0573437 0.421915 0.375304
18083 3 0.0608781 0.423865 0.382788
18082 1 0.0632935 0.424584 0.391051
7003 1 0.0736277 0.456204 0.392623
7005 1 0.0787465 0.465043 0.379933
7004 2 0.0752125 0.461696 0.387133
20153 2 0.140416 0.497206 0.395517
20152 1 0.139951 0.505359 0.391945
21036 1 0.152206 0.56027 0.397983
9390 1 0.241883 0.603739 0.383497
9388 1 0.249497 0.592651 0.374271
9389 2 0.245643 0.598486 0.378622
16448 2 0.135039 0.636731 0.381632
16447 1 0.134253 0.637821 0.374156
7722 1 0.13389 0.637976 0.371492
16449 1 0.137484 0.638405 0.389438
14966 2 0.075712 0.702063 0.394721
19809 1 0.0811785 0.706467 0.385169
19808 3 0.0846749 0.708775 0.378896
14967 1 0.0797339 0.705259 0.387668
19807 1 0.0895654 0.711466 0.373176
4960 1 0.0329687 0.0454845 0.423039
4961 2 0.0351587 0.0479464 0.415194
12531 1 0.0363985 0.0508693 0.404625
4962 1 0.0356946 0.0501137 0.407006
4176 1 0.212721 0.106792 0.408052
4175 2 0.219091 0.102102 0.408625
4174 1 0.226071 0.0984877 0.408989
18133 1 0.20159 0.216186 0.403388
4701 1 0.00301531 0.331112 0.400434
20154 1 0.142886 0.491881 0.401005
21035 2 0.14984 0.567118 0.400388
21034 1 0.148959 0.574888 0.40154
14965 1 0.0743249 0.700305 0.401869
17308 1 0.192478 0.13029 0.461099
20889 1 0.114011 0.242396 0.447299
20888 2 0.116812 0.250279 0.448499
214 1 0.1227 0.26094 0.451417
20887 1 0.121014 0.2582 0.450672
215 3 0.126175 0.267826 0.452148
15516 1 0.101497 0.305145 0.46088
216 1 0.129976 0.276295 0.450615
18604 1 0.173502 0.300029 0.458177
7534 1 0.253711 0.363933 0.434236
7535 2 0.24764 0.365644 0.439663
7536 1 0.241403 0.368148 0.444676
256 1 0.0438332 0.425011 0.460617
20898 1 0.216219 0.418162 0.461427
20897 3 0.222843 0.419938 0.458626
18117 1 0.243585 0.426379 0.44684
18116 2 0.236727 0.425743 0.450306
18115 1 0.23021 0.424465 0.45424
20896 1 0.228117 0.423256 0.455853
4162 1 0.245863 0.427228 0.445253
4163 2 0.251665 0.431114 0.440987
8565 1 0.236759 0.451504 0.455462
8564 2 0.239166 0.451197 0.448662
8563 1 0.241178 0.45282 0.441536
9722 3 0.0213638 0.511436 0.439418
9721 1 0.0143704 0.506995 0.440949
9723 1 0.0281848 0.513981 0.44088
8958 1 0.21522 0.0507592 0.472998
8957 2 0.211046 0.0546963 0.4674
8956 1 0.20793 0.0588584 0.461962
8034 1 0.00483528 0.0684605 0.479394
17309 3 0.19979 0.127861 0.464553
17310 1 0.206153 0.127757 0.470516
12289 1 0.159431 0.198364 0.487852
10992 1 0.189663 0.206749 0.47325
20318 2 0.177181 0.188433 0.48812
10990 1 0.183184 0.194956 0.483384
20319 1 0.181516 0.19291 0.484778
10991 3 0.186889 0.200547 0.477824
18606 1 0.165361 0.298324 0.471062
18605 3 0.169973 0.299324 0.465091
15515 3 0.101917 0.309142 0.468719
15514 1 0.101545 0.314061 0.47539
257 2 0.0469702 0.431191 0.464063
258 1 0.0514683 0.436514 0.468124
20185 1 0.118361 0.484737 0.483184
20186 2 0.124821 0.481666 0.482236
20187 1 0.131728 0.478321 0.479111
1210 1 0.0120938 0.545108 0.479658
1211 3 0.00913285 0.53895 0.485755
1212 1 0.00690072 0.533267 0.489592
11300 3 0.229132 0.000459994 0.511353
11299 1 0.23064 0.0026527 0.518977
14817 1 0.231514 0.00354307 0.52161
20317 1 0.17455 0.181866 0.49223
12290 2 0.156636 0.199105 0.495862
12291 1 0.152698 0.200266 0.502563
8007 1 0.183348 0.392795 0.513134
8006 2 0.180948 0.398371 0.518173
17508 1 0.0607115 0.50625 0.514052
17507 3 0.061905 0.510508 0.507657
17506 1 0.0631817 0.514757 0.501243
1850 3 0.245478 0.628915 0.504792
1849 1 0.249139 0.626674 0.512582
1851 1 0.241824 0.632125 0.498142
4259 2 0.125497 0.711808 0.522086
4260 1 0.131337 0.710864 0.515095
3580 1 0.249206 0.76012 0.518976
3581 2 0.248174 0.752786 0.519336
3582 1 0.246718 0.746348 0.521873
18049 1 0.218406 0.0016036 0.552076
14815 1 0.235361 0.00819648 0.53698
14816 2 0.232826 0.00579224 0.529825
2996 2 0.00107306 0.257566 0.535129
2995 1 0.00581425 0.262232 0.539934
8005 1 0.17891 0.404019 0.524135
9542 2 0.173677 0.411934 0.528405
9543 1 0.17762 0.405717 0.525698
9541 1 0.169448 0.417365 0.531484
4258 1 0.118502 0.714309 0.52734
3410 2 0.28844 0.120883 0.0249506
3411 1 0.294847 0.118421 0.020709
11617 1 0.273156 0.136942 0.0123006
9318 1 0.272623 0.137379 0.0092031
3409 1 0.283267 0.123732 0.0301957
11618 3 0.272402 0.137028 0.0199026
11619 1 0.273571 0.140137 0.0281106
9317 2 0.272158 0.1381 0.00122461
9240 1 0.307344 0.135878 0.0290116
15776 3 0.466568 0.135516 0.0126796
15777 1 0.462079 0.130269 0.00822287
15775 1 0.47047 0.14121 0.0156889
8594 2 0.520386 0.157894 0.0305009
8595 1 0.513548 0.15517 0.0282382
1568 2 0.557063 0.353255 0.00622816
17929 1 0.481406 0.512756 0.000291458
9942 1 0.413477 0.576442 0.00697785
9941 2 0.416897 0.579613 0.00185451
3719 2 0.520144 0.575051 0.0147385
3720 1 0.523519 0.573445 0.00790276
3718 1 0.517042 0.576686 0.0216923
20950 1 0.4833 0.680648 0.0218984
20951 3 0.487739 0.684859 0.015435
20952 1 0.491053 0.687904 0.00918457
12240 1 0.483275 0.0245647 0.059589
13281 1 0.481804 0.0216458 0.0603737
12238 1 0.489926 0.0381433 0.0532131
12239 3 0.486586 0.0315236 0.0574052
9238 1 0.309492 0.121382 0.0357454
9239 2 0.308944 0.128822 0.0320395
8593 1 0.527786 0.159966 0.0337216
20613 1 0.529065 0.226177 0.0568454
9629 2 0.477199 0.266933 0.03799
9630 1 0.4813 0.261941 0.0360417
9628 1 0.472809 0.273747 0.0401524
251 3 0.25782 0.457177 0.0381851
250 1 0.2626 0.463508 0.0392466
5517 1 0.441447 0.582848 0.0564957
825 1 0.42121 0.644946 0.0596217
13069 1 0.470225 0.697046 0.0378686
13070 3 0.477426 0.700386 0.0348214
13071 1 0.482194 0.705143 0.0328926
13280 2 0.479545 0.014546 0.0622363
13279 1 0.477021 0.00752559 0.0640484
20971 1 0.353682 0.106257 0.0785584
20972 2 0.35194 0.105836 0.0863
17383 1 0.464476 0.109957 0.0881644
17384 2 0.471024 0.10722 0.0884234
17385 1 0.477907 0.10435 0.0873825
12542 3 0.268985 0.210078 0.0830481
12543 1 0.27004 0.202153 0.0840612
12541 1 0.269885 0.218098 0.0825126
20611 1 0.528177 0.220636 0.0714971
20612 2 0.528494 0.222605 0.0631665
18157 1 0.528963 0.338342 0.0880257
7275 1 0.26838 0.541832 0.0894788
4646 2 0.431054 0.566881 0.0667854
4645 1 0.424348 0.56713 0.0686701
5516 2 0.445524 0.581313 0.0635495
5515 1 0.448309 0.58042 0.0707206
4647 1 0.438502 0.567957 0.0640489
3358 1 0.280195 0.627833 0.071059
3360 1 0.292936 0.634046 0.0740779
3359 2 0.286099 0.63131 0.072309
18333 1 0.314342 0.637363 0.0653658
18332 2 0.31975 0.632605 0.0637443
18331 1 0.326605 0.626757 0.0618985
5970 1 0.362873 0.627991 0.078651
5969 3 0.3653 0.624241 0.0726345
5968 1 0.367223 0.619938 0.0661394
824 2 0.421934 0.637284 0.0630688
823 1 0.424509 0.631366 0.0666988
21374 2 0.42994 0.706172 0.0900287
21375 1 0.434245 0.705941 0.0828098
3722 2 0.270568 0.0762139 0.103255
3721 1 0.26306 0.0753059 0.105639
3723 1 0.27817 0.0751715 0.102845
11188 1 0.294255 0.105808 0.102998
11190 1 0.306354 0.116361 0.101761
11189 3 0.299606 0.111234 0.102531
15910 1 0.347613 0.0983491 0.111585
15911 3 0.347688 0.102409 0.104344
20973 1 0.349896 0.105494 0.0938389
15912 1 0.349016 0.104696 0.0964704
19155 1 0.401188 0.147726 0.108796
19154 2 0.394997 0.143661 0.110677
19153 1 0.389072 0.139055 0.113025
16048 1 0.50294 0.141847 0.109339
16049 2 0.510982 0.141092 0.108233
16050 1 0.519772 0.141308 0.10714
2902 1 0.522378 0.141686 0.107365
2903 3 0.530434 0.143437 0.108374
2904 1 0.538535 0.145197 0.109068
1182 1 0.541918 0.146386 0.109309
1181 2 0.549477 0.149281 0.110634
4012 1 0.326742 0.244047 0.11764
4013 3 0.320837 0.242289 0.122799
18158 2 0.532466 0.334422 0.0945718
18159 1 0.538271 0.331594 0.0992113
19431 1 0.256884 0.490954 0.113204
7273 1 0.275285 0.539607 0.104564
7274 3 0.272667 0.542095 0.0959557
19996 1 0.502117 0.550681 0.108489
19997 2 0.507414 0.544698 0.107714
19998 1 0.512508 0.539366 0.108355
16703 3 0.494045 0.558458 0.112899
16704 1 0.488361 0.564974 0.115655
16702 1 0.499728 0.553195 0.109839
21373 1 0.424676 0.707282 0.0963063
4014 1 0.316014 0.240561 0.128792
17973 1 0.474916 0.40555 0.139489
17972 2 0.477304 0.411551 0.144118
17971 1 0.478507 0.417411 0.148463
6763 1 0.478783 0.420312 0.149883
6764 3 0.479742 0.426808 0.153078
1305 1 0.403438 0.0287174 0.177078
1304 3 0.395495 0.0296945 0.174691
16002 1 0.421934 0.0225491 0.178374
16001 2 0.414151 0.0256632 0.179043
16000 1 0.40658 0.0284842 0.177925
1303 1 0.388009 0.0318358 0.173536
10143 1 0.453574 0.239816 0.176637
6765 1 0.481382 0.433937 0.157145
20485 1 0.289831 0.549852 0.17681
20486 2 0.29519 0.550007 0.182435
19645 1 0.428376 0.762888 0.156291
19646 3 0.428264 0.760409 0.163457
19647 1 0.426721 0.757107 0.170918
11546 3 0.336243 0.0434457 0.212326
11547 1 0.333865 0.040614 0.205238
19989 1 0.552989 0.124005 0.193301
19988 2 0.555154 0.13018 0.197958
10141 1 0.453972 0.240585 0.1937
10142 3 0.454242 0.239645 0.184867
18150 1 0.331239 0.263001 0.204305
18149 3 0.328657 0.270543 0.205771
18148 1 0.326359 0.278629 0.206056
17079 1 0.379272 0.303323 0.186439
17077 1 0.38779 0.316784 0.189156
17078 2 0.383731 0.310379 0.187299
6775 1 0.336018 0.339804 0.189568
6776 2 0.338001 0.346397 0.190492
6777 1 0.341477 0.353583 0.193036
16469 3 0.522741 0.347877 0.18825
9910 1 0.513349 0.349002 0.194207
16470 1 0.515766 0.348522 0.192924
9911 2 0.506605 0.350387 0.197096
9912 1 0.500247 0.352007 0.201583
16468 1 0.529649 0.346516 0.184787
3651 1 0.28899 0.395382 0.213685
3650 2 0.290146 0.400092 0.207155
3649 1 0.290265 0.405174 0.201522
16411 1 0.45362 0.479343 0.202464
16412 2 0.454725 0.474228 0.209404
16413 1 0.456487 0.469878 0.21466
20487 1 0.301635 0.551211 0.186535
18454 1 0.37579 0.63838 0.20776
18455 3 0.377732 0.641826 0.201031
18456 1 0.378991 0.64443 0.193495
6990 1 0.310889 0.0454016 0.234091
6989 2 0.308912 0.0532714 0.233928
11545 1 0.341035 0.0465641 0.217057
6988 1 0.309552 0.0613195 0.23386
8840 3 0.493186 0.0958718 0.224571
8839 1 0.485817 0.0968057 0.228108
8841 1 0.501021 0.0978676 0.222716
13076 3 0.459638 0.17613 0.240512
13077 1 0.462363 0.181707 0.235693
13075 1 0.457858 0.169276 0.243563
19804 1 0.263175 0.206478 0.235218
19805 3 0.259519 0.210201 0.240979
7047 1 0.498494 0.273968 0.232297
7045 1 0.502188 0.284651 0.220464
7046 3 0.499236 0.279205 0.226467
18474 1 0.2866 0.360892 0.222163
18473 3 0.293086 0.365432 0.224124
18472 1 0.29914 0.371262 0.225607
2033 2 0.507599 0.628006 0.23442
2034 1 0.513434 0.623221 0.236172
2032 1 0.501147 0.632096 0.231618
8769 1 0.465607 0.678109 0.238998
8768 2 0.46197 0.678853 0.245327
6496 1 0.448287 0.0073164 0.267928
654 1 0.30149 0.0504678 0.264689
653 2 0.295579 0.0468511 0.269263
652 1 0.290157 0.0456951 0.274262
13092 1 0.365111 0.0865993 0.251765
13091 3 0.373145 0.0875467 0.254123
13090 1 0.380977 0.0907133 0.255681
19806 1 0.257176 0.212105 0.248826
10270 1 0.255871 0.2126 0.251822
4111 1 0.345376 0.369588 0.264159
4113 1 0.349587 0.370602 0.249725
4112 2 0.347483 0.36972 0.256642
3915 1 0.311888 0.400309 0.267612
3913 1 0.323482 0.408409 0.256953
3914 3 0.317098 0.404599 0.261239
6711 1 0.315997 0.609115 0.260792
6710 3 0.31902 0.601647 0.261077
6709 1 0.322821 0.59533 0.260757
11409 1 0.363275 0.625697 0.268701
11408 3 0.354635 0.626801 0.268053
11407 1 0.346462 0.627623 0.268132
8767 1 0.459019 0.677108 0.253321
4051 1 0.42786 0.000210298 0.297019
4052 2 0.421341 0.00144505 0.300396
15012 1 0.509129 0.00611073 0.299231
15010 1 0.50154 0.0193373 0.294581
15011 2 0.505512 0.0127138 0.296256
18797 2 0.338467 0.0601631 0.305966
18798 1 0.335059 0.0533006 0.300855
7830 1 0.489706 0.285965 0.279959
7828 1 0.474239 0.282133 0.281972
7829 2 0.482448 0.284255 0.282004
13178 3 0.332749 0.5705 0.283539
13177 1 0.325093 0.569567 0.28667
13179 1 0.338801 0.571284 0.279379
1993 1 0.342573 0.666386 0.306327
1994 3 0.346735 0.671878 0.302894
1995 1 0.350525 0.677233 0.299012
12242 2 0.326972 0.0368925 0.325769
12241 1 0.33277 0.0330419 0.321744
12243 1 0.322154 0.0411551 0.329007
18796 1 0.342371 0.0640506 0.309784
19269 1 0.489702 0.390189 0.323217
19267 1 0.495554 0.383819 0.33573
19268 3 0.491987 0.387293 0.329543
9047 3 0.52398 0.466719 0.335082
9048 1 0.526841 0.466094 0.327167
5362 1 0.538291 0.463048 0.309523
5364 1 0.5282 0.465947 0.32456
5363 2 0.533515 0.464722 0.316502
14115 1 0.521258 0.666044 0.337307
14114 3 0.516805 0.659286 0.333254
14113 1 0.514124 0.652453 0.327766
20121 1 0.284606 0.0907277 0.368811
20120 3 0.290073 0.0921501 0.36264
20119 1 0.295631 0.0940375 0.357075
19138 1 0.384154 0.103305 0.361354
19139 3 0.38945 0.109801 0.363502
19140 1 0.393968 0.116507 0.368342
17382 1 0.413383 0.397844 0.368589
17380 1 0.416301 0.408825 0.357154
17381 2 0.415516 0.402449 0.363697
9046 1 0.520447 0.466255 0.341235
14971 1 0.500096 0.523812 0.360657
16156 1 0.518866 0.52411 0.355054
14973 1 0.5155 0.524295 0.355735
14972 2 0.507595 0.524597 0.358341
16157 3 0.525423 0.523351 0.351435
16158 1 0.532412 0.522634 0.347224
4060 1 0.427308 0.583648 0.361151
4061 2 0.424789 0.590205 0.364956
4062 1 0.424468 0.597813 0.367258
9481 1 0.424213 0.600962 0.368052
20872 1 0.528638 0.641969 0.366982
15932 2 0.27498 0.0902459 0.375027
15931 1 0.282134 0.0904808 0.370618
15933 1 0.267321 0.088803 0.378349
15025 1 0.50065 0.0905817 0.391074
15026 3 0.50482 0.0846136 0.390417
15027 1 0.510429 0.0776794 0.390215
13081 1 0.282672 0.162286 0.389886
13082 2 0.275032 0.164243 0.393313
13083 1 0.268123 0.164785 0.396889
5927 3 0.292042 0.159765 0.385796
5926 1 0.285679 0.161301 0.388396
5928 1 0.298891 0.157837 0.384861
1496 2 0.491572 0.389543 0.380311
1497 1 0.485265 0.38516 0.378006
1495 1 0.49928 0.392406 0.383742
11449 1 0.30987 0.421018 0.378525
11450 3 0.315561 0.416612 0.382944
11451 1 0.320291 0.411564 0.388646
7499 2 0.326583 0.405374 0.395642
7498 1 0.321825 0.410303 0.390345
7563 1 0.268317 0.472831 0.38934
7562 2 0.271216 0.469555 0.395873
16716 1 0.294895 0.47964 0.396917
2580 1 0.427158 0.493776 0.380413
2579 3 0.434324 0.493128 0.378399
2578 1 0.441986 0.491281 0.375682
17216 2 0.556563 0.5585 0.381165
17215 1 0.555503 0.552457 0.377508
9482 3 0.42324 0.608037 0.371276
20483 2 0.544861 0.601939 0.383014
6159 1 0.54179 0.611013 0.378266
20482 1 0.542278 0.608381 0.379381
20484 1 0.54936 0.598121 0.389239
9483 1 0.420212 0.61512 0.375728
6444 1 0.418131 0.63985 0.380627
20873 3 0.53202 0.635053 0.369797
6158 3 0.539189 0.618265 0.376501
6157 1 0.536855 0.626002 0.374283
20874 1 0.535848 0.62823 0.373306
21142 1 0.418218 0.670803 0.399046
6443 2 0.417694 0.646185 0.386134
21144 1 0.417966 0.656227 0.392318
6442 1 0.417366 0.653752 0.390675
21143 3 0.417739 0.663444 0.395701
3724 1 0.356466 0.72786 0.398259
3725 2 0.349881 0.724176 0.398253
3190 1 0.372281 0.715511 0.388411
3191 2 0.368517 0.723069 0.3871
3192 1 0.36582 0.7297 0.385602
20430 1 0.434925 0.727517 0.379261
20428 1 0.421454 0.724808 0.390027
20429 2 0.429006 0.725533 0.384773
9734 2 0.278844 0.000372918 0.414596
9735 1 0.275504 0.00761554 0.412101
12573 1 0.333708 0.0106893 0.405429
12572 2 0.329163 0.0048297 0.403464
3173 3 0.320625 0.280479 0.427458
3174 1 0.324209 0.28592 0.42297
19346 3 0.262852 0.362069 0.426958
19347 1 0.267525 0.361464 0.420177
7500 1 0.32926 0.40041 0.401589
7320 1 0.404644 0.455395 0.426455
7561 1 0.271932 0.466633 0.403004
16715 2 0.300633 0.474856 0.40043
16714 1 0.306842 0.471455 0.404368
7318 1 0.406626 0.469651 0.421958
7319 3 0.406986 0.46282 0.42413
2823 1 0.274616 0.583154 0.428135
16073 3 0.374992 0.602998 0.429206
16074 1 0.369918 0.607532 0.42731
3726 1 0.343942 0.719249 0.399705
12265 1 0.404453 0.738338 0.419757
12267 1 0.401587 0.752828 0.427766
12266 2 0.40174 0.745369 0.423063
13602 1 0.401575 0.755469 0.429393
17182 1 0.264972 0.102803 0.455978
17183 2 0.260777 0.0982863 0.459904
17855 2 0.448835 0.165014 0.456839
17854 1 0.447103 0.172057 0.460522
17856 1 0.449684 0.157275 0.453071
3172 1 0.315254 0.275348 0.430759
19345 1 0.256173 0.363108 0.431975
13674 1 0.465933 0.40706 0.456016
13673 2 0.459468 0.411086 0.45687
21016 1 0.451517 0.416335 0.458922
13672 1 0.453548 0.414757 0.458335
4164 1 0.257726 0.432987 0.435834
11939 3 0.300146 0.472701 0.456617
11940 1 0.295898 0.474443 0.450224
2822 3 0.278404 0.577663 0.430543
2821 1 0.279676 0.570738 0.434065
16072 1 0.380978 0.598206 0.431036
13601 3 0.400271 0.76296 0.432482
17184 1 0.255453 0.0942364 0.46454
16419 1 0.269726 0.370354 0.489175
16418 3 0.272246 0.376956 0.491351
4383 1 0.428271 0.367988 0.464287
4382 3 0.432666 0.368495 0.47101
4381 1 0.43846 0.367844 0.476933
21018 1 0.440629 0.425066 0.464311
21017 3 0.446627 0.421341 0.461955
11938 1 0.303373 0.471195 0.463186
16681 1 0.401713 0.702647 0.491719
19334 2 0.301835 0.0200987 0.515722
19335 1 0.306991 0.0162828 0.510472
19333 1 0.296862 0.0246766 0.519563
5798 2 0.405556 0.265218 0.519235
5799 1 0.399921 0.272195 0.518569
5632 1 0.398171 0.274279 0.518752
5797 1 0.409916 0.259368 0.518741
5634 1 0.394404 0.28914 0.521095
5633 3 0.395703 0.281338 0.519902
16417 1 0.27582 0.383458 0.495517
11070 1 0.272345 0.526247 0.503853
11069 3 0.273749 0.534169 0.501822
11068 1 0.274406 0.541782 0.501574
16683 1 0.396187 0.709508 0.504515
16682 3 0.398698 0.705192 0.49916
19934 3 0.34612 0.766013 0.505771
19935 1 0.351004 0.764384 0.511038
18648 1 0.288383 0.0353009 0.550626
9327 1 0.399526 0.231168 0.550656
9326 2 0.392307 0.227852 0.552616
10362 1 0.369954 0.246746 0.5367
10360 1 0.384256 0.249091 0.539291
10361 3 0.377325 0.248753 0.536806
9902 2 0.466108 0.355708 0.551616
9903 1 0.458513 0.354115 0.552014
9901 1 0.473551 0.355837 0.55217
6787 1 0.452957 0.492906 0.532155
6789 1 0.43745 0.502899 0.529662
6788 2 0.445358 0.497833 0.53
13370 3 0.384727 0.565199 0.541471
13371 1 0.377055 0.565369 0.544677
17826 1 0.393833 0.565672 0.537539
13369 1 0.391579 0.565818 0.53825
17825 2 0.400788 0.56451 0.535282
17824 1 0.408088 0.561307 0.531778
17566 1 0.260091 0.68256 0.549862
15421 1 0.326151 0.711375 0.551679
15422 3 0.333531 0.710235 0.550356
16768 1 0.342679 0.709216 0.546369
15423 1 0.339953 0.709775 0.547389
16769 3 0.350009 0.708614 0.54196
16770 1 0.355483 0.708771 0.537232
13438 1 0.123423 0.932124 0.00463274
13440 1 0.127585 0.946586 0.00488768
13439 3 0.126111 0.939687 0.0039166
15239 2 0.133111 0.864635 0.0535149
15238 1 0.13787 0.860198 0.0495093
15240 1 0.126186 0.86908 0.055069
17733 1 0.0695552 0.864202 0.0743668
15433 1 0.0883106 0.848648 0.0717674
15434 3 0.0840897 0.844039 0.0677788
15435 1 0.0789736 0.839309 0.064095
4651 1 0.103473 0.869459 0.0673827
17731 1 0.0848357 0.8671 0.0712085
4653 1 0.0876239 0.867783 0.0704329
17732 2 0.0768941 0.866365 0.0728482
4652 3 0.0954358 0.868738 0.0686743
1683 1 0.00354824 0.791659 0.170588
1682 3 0.000891521 0.785479 0.169127
1072 1 0.135064 0.85805 0.184392
1074 1 0.13294 0.859202 0.168222
1073 2 0.133196 0.859385 0.176903
6739 1 0.0882323 0.937481 0.177493
6740 2 0.0912494 0.934746 0.184281
20479 1 0.0435227 0.869256 0.211816
8454 1 0.102105 0.922178 0.206415
8453 2 0.0983068 0.925214 0.199948
8452 1 0.0951492 0.929036 0.193349
6741 1 0.0944719 0.930403 0.190869
20480 2 0.041164 0.868892 0.218799
20481 1 0.0373648 0.868416 0.225589
5343 1 0.0635083 0.83225 0.294353
5342 3 0.0570137 0.834457 0.298126
5341 1 0.0511083 0.838347 0.301934
4239 1 0.0487272 0.840193 0.303013
4237 1 0.036608 0.849432 0.306222
4238 2 0.0430152 0.845899 0.305421
8252 3 0.0283894 0.91935 0.283691
8251 1 0.034926 0.9149 0.285335
8253 1 0.0224621 0.924001 0.282952
7874 2 0.0446812 0.909164 0.287794
7873 1 0.052098 0.906082 0.28906
7875 1 0.0373397 0.913491 0.285857
21502 1 0.138142 0.831622 0.329359
9109 1 0.139299 0.829068 0.329015
9110 3 0.142341 0.822378 0.328223
6756 1 0.132883 0.862048 0.321692
21504 1 0.134176 0.845751 0.326554
6755 3 0.133522 0.855546 0.323134
6754 1 0.133601 0.848128 0.325756
21503 2 0.135913 0.838758 0.329603
5120 2 0.0240199 0.767988 0.358202
5119 1 0.0223093 0.77012 0.365698
9303 1 0.00444806 0.902977 0.429212
4607 2 0.0288181 0.968197 0.521613
4606 1 0.0281495 0.97664 0.520218
4608 1 0.033193 0.961739 0.523497
13627 1 0.0350001 0.959424 0.524276
13628 3 0.0414691 0.953925 0.525627
13629 1 0.0483874 0.951528 0.526656
20781 1 0.307859 0.776744 0.00614358
20780 3 0.316314 0.774917 0.00878928
20820 1 0.326662 0.772142 0.0113259
20779 1 0.32356 0.772865 0.0107575
20818 1 0.34118 0.767412 0.0157474
20819 3 0.334366 0.769818 0.0132026
16330 1 0.167276 0.936631 0.0078394
16331 2 0.165938 0.943688 0.00431041
16332 1 0.164468 0.95071 0.000446654
431 2 0.518165 0.795794 0.0578727
430 1 0.512116 0.792359 0.0613617
432 1 0.524198 0.801068 0.0551905
14068 1 0.310318 0.938758 0.084384
14069 2 0.304375 0.938119 0.0904543
10883 2 0.253303 0.797063 0.100916
10882 1 0.259856 0.794516 0.105744
10884 1 0.247953 0.801724 0.0966491
5325 1 0.149899 0.85806 0.114693
5324 3 0.152405 0.850196 0.115509
5323 1 0.156878 0.843101 0.1152
18769 1 0.407223 0.929399 0.116976
14070 1 0.299789 0.937147 0.0962943
18687 1 0.328826 0.78715 0.140397
18686 3 0.32603 0.792855 0.136964
18685 1 0.320949 0.799179 0.133114
16023 1 0.485367 0.784944 0.151289
18771 1 0.397446 0.928113 0.131495
18770 2 0.402377 0.928471 0.124266
16021 1 0.48607 0.793835 0.166722
16022 3 0.485068 0.789541 0.159342
15820 1 0.205485 0.839269 0.177786
15821 2 0.211892 0.844248 0.176651
15822 1 0.217979 0.848377 0.175752
17203 1 0.526444 0.936365 0.173908
17204 2 0.527939 0.942898 0.17895
17205 1 0.530012 0.949568 0.183548
721 1 0.29854 0.987372 0.164464
722 2 0.298374 0.993161 0.168689
723 1 0.299896 0.999873 0.173603
758 2 0.30967 0.946799 0.209545
759 1 0.307422 0.947302 0.202078
14819 2 0.461244 0.971605 0.214255
14820 1 0.465058 0.972307 0.206492
11538 1 0.295725 0.772799 0.233516
11537 3 0.300868 0.776465 0.227428
11536 1 0.304203 0.780384 0.222685
4579 1 0.389633 0.816936 0.236648
4580 2 0.394248 0.813623 0.241763
6153 1 0.211274 0.887715 0.225176
6152 3 0.208673 0.885595 0.23269
6151 1 0.206822 0.879811 0.238953
757 1 0.312494 0.947163 0.217365
12700 1 0.45818 0.975428 0.224323
14818 1 0.458657 0.97411 0.221718
12701 3 0.455788 0.980461 0.23018