ITEM: TIMESTEP
60000000
ITEM: NUMBER OF ENTRIES
2265
ITEM: BOX BOUNDS pp pp pp
0 50
0 50
0 50
ITEM: ENTRIES c_binfo[1] c_binfo[2] c_binfo[3] 
3 11915 11916 
3 11914 11915 
1 11914 18243 
2 18242 18243 
1 10332 12616 
3 12616 12617 
3 12617 12618 
2 10331 10332 
2 12733 12734 
2 12734 12735 
3 1714 1715 
3 1715 1716 
2 11141 11142 
2 11140 11141 
3 12826 12827 
1 12826 18241 
3 12827 12828 
2 18241 18242 
3 11269 11270 
3 11270 11271 
2 13667 13668 
2 13666 13667 
3 14666 14667 
3 14665 14666 
2 16934 16935 
1 16935 18873 
3 18871 18872 
3 18872 18873 
3 11003 11004 
3 11002 11003 
3 5956 5957 
3 5957 5958 
2 1010 1011 
2 1009 1010 
3 650 651 
3 649 650 
2 5377 5378 
2 15184 15185 
2 15185 15186 
2 16933 16934 
2 4340 4341 
3 7688 7689 
3 7687 7688 
2 4339 4340 
1 4339 7687 
3 19799 19800 
3 19798 19799 
2 9697 9698 
1 9697 19798 
2 9698 9699 
2 5378 5379 
3 20771 20772 
3 20770 20771 
3 6368 6369 
3 6367 6368 
3 18682 18683 
3 18683 18684 
1 6369 8379 
3 19430 19431 
3 19429 19430 
2 8128 8129 
2 8129 8130 
2 14516 14517 
2 14515 14516 
1 14515 17218 
3 17218 17219 
3 17219 17220 
3 5561 5562 
3 5560 5561 
3 19094 19095 
3 76 77 
1 76 19093 
3 19093 19094 
3 77 78 
3 13097 13098 
2 8378 8379 
2 8377 8378 
3 13096 13097 
3 1711 1712 
3 1712 1713 
2 10274 10275 
2 10273 10274 
1 1713 10273 
2 15211 15212 
2 15212 15213 
2 6514 6515 
2 6515 6516 
2 308 309 
2 307 308 
2 6205 6206 
1 6205 19941 
2 6206 6207 
3 19940 19941 
3 12787 12788 
3 12788 12789 
2 2167 2168 
2 2168 2169 
3 8102 8103 
3 8101 8102 
3 4277 4278 
2 7114 7115 
2 7115 7116 
3 4276 4277 
1 4276 6978 
3 6977 6978 
3 6976 6977 
1 6516 6976 
3 19939 19940 
3 18665 18666 
3 18664 18665 
2 9305 9306 
2 9304 9305 
1 9306 15048 
3 15047 15048 
3 11801 11802 
3 11800 11801 
3 9518 9519 
3 9517 9518 
3 404 405 
3 403 404 
2 16171 16172 
2 16172 16173 
2 10271 10272 
3 533 534 
3 532 533 
3 15046 15047 
3 2783 2784 
3 2782 2783 
3 9704 9705 
3 9703 9704 
3 7981 7982 
3 7982 7983 
3 12371 12372 
3 12370 12371 
3 10225 10226 
3 10226 10227 
2 13336 13337 
2 13337 13338 
2 12602 12603 
2 12601 12602 
1 12601 15036 
3 17428 17429 
3 17429 17430 
2 9433 9434 
2 9434 9435 
2 12938 12939 
2 12937 12938 
2 15665 15666 
1 15666 16597 
2 15664 15665 
3 16597 16598 
2 1349 1350 
2 1348 1349 
1 1348 16599 
3 16598 16599 
3 7721 7722 
3 7720 7721 
3 12529 12530 
3 12530 12531 
3 1945 1946 
3 1946 1947 
2 9458 9459 
2 18134 18135 
2 9457 9458 
1 9457 18135 
3 4700 4701 
3 3557 3558 
3 3556 3557 
3 18083 18084 
3 18082 18083 
2 7003 7004 
2 7004 7005 
2 20153 20154 
2 20152 20153 
2 9388 9389 
2 9389 9390 
2 16448 16449 
2 16447 16448 
1 7722 16447 
2 14966 14967 
3 19808 19809 
1 14967 19809 
3 19807 19808 
2 4960 4961 
2 4961 4962 
1 4962 12531 
2 4175 4176 
2 4174 4175 
2 18133 18134 
2 21035 21036 
2 21034 21035 
2 14965 14966 
3 17308 17309 
2 20888 20889 
3 214 215 
1 214 20887 
2 20887 20888 
3 215 216 
3 18604 18605 
2 7534 7535 
1 7534 19345 
2 7535 7536 
2 256 257 
3 20897 20898 
2 18116 18117 
2 18115 18116 
1 18115 20896 
3 20896 20897 
2 4162 4163 
1 4162 18117 
2 4163 4164 
2 8564 8565 
2 8563 8564 
3 9722 9723 
3 9721 9722 
2 8957 8958 
2 8956 8957 
3 17309 17310 
2 12289 12290 
2 20318 20319 
3 10990 10991 
1 10990 20319 
3 10991 10992 
3 18605 18606 
3 15515 15516 
3 15514 15515 
2 257 258 
2 20185 20186 
2 20186 20187 
3 1210 1211 
3 1211 1212 
3 11300 11301 
3 11299 11300 
1 11299 14817 
2 20317 20318 
2 12290 12291 
2 8006 8007 
3 17507 17508 
3 17506 17507 
3 1850 1851 
3 1849 1850 
2 4259 4260 
2 3580 3581 
2 3581 3582 
2 18049 18050 
2 14815 14816 
2 14816 14817 
2 2996 2997 
2 2995 2996 
2 8005 8006 
1 8005 9543 
2 9542 9543 
2 9541 9542 
2 4258 4259 
2 3410 3411 
3 11617 11618 
1 9318 11617 
2 3409 3410 
3 11618 11619 
2 9317 9318 
3 15776 15777 
3 15775 15776 
2 8594 8595 
2 1568 1569 
3 17929 17930 
2 9941 9942 
2 3719 3720 
2 3718 3719 
3 20950 20951 
3 20951 20952 
1 12240 13281 
3 12238 12239 
3 12239 12240 
2 9238 9239 
2 9239 9240 
2 8593 8594 
2 9629 9630 
2 9628 9629 
3 251 252 
3 250 251 
3 13069 13070 
3 13070 13071 
2 13280 13281 
2 13279 13280 
2 20971 20972 
2 20972 20973 
2 17383 17384 
2 17384 17385 
3 12542 12543 
3 12541 12542 
2 20611 20612 
2 20612 20613 
2 18157 18158 
2 4646 4647 
2 4645 4646 
2 5516 5517 
2 5515 5516 
2 3358 3359 
2 3359 3360 
2 18332 18333 
2 18331 18332 
3 5969 5970 
3 5968 5969 
2 824 825 
2 823 824 
2 21374 21375 
2 3722 3723 
2 3721 3722 
3 11188 11189 
3 11189 11190 
3 15910 15911 
3 15911 15912 
1 15912 20973 
2 19154 19155 
2 19153 19154 
2 16048 16049 
2 16049 16050 
3 2902 2903 
1 2902 16050 
3 2903 2904 
1 1182 2904 
2 1181 1182 
3 4012 4013 
3 4013 4014 
2 18158 18159 
3 7273 7274 
3 7274 7275 
2 19996 19997 
2 19997 19998 
3 16703 16704 
3 16702 16703 
1 16702 19996 
2 21373 21374 
2 17972 17973 
2 17971 17972 
3 6763 6764 
1 6763 17971 
3 6764 6765 
1 1305 16000 
3 1304 1305 
2 16001 16002 
2 16000 16001 
3 1303 1304 
2 20485 20486 
2 20486 20487 
3 19645 19646 
3 19646 19647 
3 11546 11547 
2 19988 19989 
3 10141 10142 
3 10142 10143 
3 18149 18150 
3 18148 18149 
2 17077 17078 
2 17078 17079 
2 6775 6776 
2 6776 6777 
3 16469 16470 
2 9910 9911 
1 9910 16470 
2 9911 9912 
3 16468 16469 
2 3650 3651 
2 3649 3650 
2 16411 16412 
2 16412 16413 
3 18454 18455 
3 18455 18456 
2 6989 6990 
3 11545 11546 
2 6988 6989 
3 8840 8841 
3 8839 8840 
3 13076 13077 
3 13075 13076 
3 19804 19805 
3 19805 19806 
3 7045 7046 
3 7046 7047 
3 18473 18474 
3 18472 18473 
2 2033 2034 
2 2032 2033 
2 8768 8769 
2 6496 6497 
2 653 654 
2 652 653 
3 13091 13092 
3 13090 13091 
2 10270 10271 
1 10270 19806 
2 4111 4112 
2 4112 4113 
3 3913 3914 
3 3914 3915 
3 6710 6711 
3 6709 6710 
3 11408 11409 
3 11407 11408 
2 8767 8768 
2 4051 4052 
2 4052 4053 
2 15010 15011 
2 15011 15012 
2 18797 18798 
2 7828 7829 
2 7829 7830 
3 13178 13179 
3 13177 13178 
3 1993 1994 
3 1994 1995 
2 12242 12243 
2 12241 12242 
2 18796 18797 
3 19267 19268 
3 19268 19269 
3 9047 9048 
2 5362 5363 
1 5364 9048 
2 5363 5364 
3 14114 14115 
3 14113 14114 
3 20120 20121 
3 20119 20120 
3 19138 19139 
3 19139 19140 
2 17380 17381 
2 17381 17382 
3 9046 9047 
2 14971 14972 
3 16156 16157 
1 14973 16156 
2 14972 14973 
3 16157 16158 
2 4060 4061 
2 4061 4062 
1 4062 9481 
3 9481 9482 
3 20872 20873 
2 15932 15933 
2 15931 15932 
1 15931 20121 
3 15025 15026 
3 15026 15027 
2 13081 13082 
2 13082 13083 
3 5927 5928 
3 5926 5927 
1 5926 13081 
2 1496 1497 
2 1495 1496 
3 11449 11450 
3 11450 11451 
2 7499 7500 
2 7498 7499 
1 7498 11451 
2 7562 7563 
3 2579 2580 
3 2578 2579 
2 17216 17217 
2 17215 17216 
3 9482 9483 
2 20483 20484 
1 6159 20482 
2 20482 20483 
3 20873 20874 
3 6158 6159 
3 6157 6158 
1 6157 20874 
3 21142 21143 
2 6443 6444 
2 6442 6443 
1 6442 21144 
3 21143 21144 
2 3724 3725 
2 3725 3726 
2 3190 3191 
2 3191 3192 
2 20428 20429 
2 20429 20430 
2 9734 9735 
2 12572 12573 
3 3173 3174 
3 19346 19347 
2 7561 7562 
2 16715 16716 
2 16714 16715 
3 7318 7319 
3 7319 7320 
3 16073 16074 
2 12265 12266 
1 12267 13602 
2 12266 12267 
2 17182 17183 
2 17183 17184 
2 17855 17856 
2 17854 17855 
3 3172 3173 
3 19345 19346 
2 13673 13674 
3 21016 21017 
2 13672 13673 
1 13672 21016 
3 11939 11940 
3 2822 2823 
3 2821 2822 
3 16072 16073 
3 13601 13602 
3 16418 16419 
3 4382 4383 
3 4381 4382 
3 21017 21018 
3 11938 11939 
3 16681 16682 
2 19334 19335 
2 19333 19334 
2 5798 5799 
3 5632 5633 
1 5632 5799 
2 5797 5798 
3 5633 5634 
3 16417 16418 
3 11069 11070 
3 11068 11069 
3 16682 16683 
3 19934 19935 
2 9326 9327 
3 10360 10361 
3 10361 10362 
2 9902 9903 
2 9901 9902 
2 6787 6788 
2 6788 6789 
3 13370 13371 
3 13369 13370 
1 13369 17826 
2 17825 17826 
2 17824 17825 
3 17566 17567 
3 15421 15422 
3 15422 15423 
3 16768 16769 
1 15423 16768 
3 16769 16770 
3 13438 13439 
3 13439 13440 
2 15239 15240 
2 15238 15239 
3 15433 15434 
3 15434 15435 
3 4651 4652 
2 17731 17732 
1 4653 17731 
2 17732 17733 
3 4652 4653 
3 1682 1683 
2 1072 1073 
2 1073 1074 
2 6739 6740 
2 6740 6741 
2 20479 20480 
2 8453 8454 
2 8452 8453 
1 6741 8452 
2 20480 20481 
3 5342 5343 
3 5341 5342 
1 4239 5341 
2 4237 4238 
2 4238 4239 
3 8252 8253 
3 8251 8252 
2 7874 7875 
2 7873 7874 
1 7875 8251 
2 21502 21503 
3 9109 9110 
1 9109 21502 
3 9110 9111 
3 6755 6756 
3 6754 6755 
1 6754 21504 
2 21503 21504 
2 5120 5121 
2 5119 5120 
2 4607 4608 
2 4606 4607 
1 4608 13627 
3 13627 13628 
3 13628 13629 
3 20780 20781 
3 20779 20780 
1 20779 20820 
3 20818 20819 
3 20819 20820 
2 16330 16331 
2 16331 16332 
2 431 432 
2 430 431 
2 14068 14069 
2 14069 14070 
2 10883 10884 
2 10882 10883 
3 5324 5325 
3 5323 5324 
2 18769 18770 
3 18686 18687 
3 18685 18686 
2 18770 18771 
3 16021 16022 
3 16022 16023 
2 15820 15821 
2 15821 15822 
2 17203 17204 
2 17204 17205 
2 721 722 
2 722 723 
2 758 759 
2 14819 14820 
3 11537 11538 
3 11536 11537 
2 4579 4580 
2 4580 4581 
3 6152 6153 
3 6151 6152 
2 757 758 
3 12700 12701 
1 12700 14818 
2 14818 14819 
3 12701 12702 
3 9737 9738 
3 21554 21555 
3 21553 21554 
3 5650 5651 
3 5651 5652 
3 598 599 
2 6497 6498 
3 9736 9737 
2 3590 3591 
2 3589 3590 
3 599 600 
3 12347 12348 
1 9111 12346 
3 12346 12347 
2 20635 20636 
2 20636 20637 
3 8470 8471 
3 5543 5544 
3 5542 5543 
2 16523 16524 
2 16522 16523 
3 8471 8472 
2 5374 5375 
2 5375 5376 
3 4954 4955 
1 4956 5376 
3 4955 4956 
3 11999 12000 
3 11998 11999 
3 4357 4358 
3 4358 4359 
3 15866 15867 
3 15865 15866 
2 9733 9734 
2 12571 12572 
3 13600 13601 
2 11669 11670 
2 11668 11669 
3 2320 2321 
3 2321 2322 
3 19435 19436 
3 19436 19437 
3 19933 19934 
3 20944 20945 
3 20945 20946 
3 9112 9113 
1 9112 11301 
3 9113 9114 
2 1561 1562 
2 1562 1563 
3 4091 4092 
2 12868 12869 
2 12869 12870 
2 18050 18051 
3 17683 17684 
3 17684 17685 
3 3835 3836 
3 18647 18648 
3 18646 18647 
3 1085 1086 
3 1084 1085 
3 16502 16503 
2 9325 9326 
1 9325 16501 
3 16501 16502 
3 3836 3837 
2 12844 12845 
2 12845 12846 
1 9972 12844 
2 19283 19284 
2 19282 19283 
2 18725 18726 
2 6211 6212 
2 6212 6213 
3 12974 12975 
3 12973 12974 
3 19871 19872 
2 17554 17555 
1 17556 19870 
3 19870 19871 
2 17555 17556 
2 19783 19784 
2 19784 19785 
3 8222 8223 
3 8221 8222 
3 1922 1923 
3 1921 1922 
2 18724 18725 
2 4627 4628 
3 17618 17619 
3 17617 17618 
2 4628 4629 
3 10069 10070 
3 10070 10071 
3 536 537 
3 535 536 
3 11384 11385 
3 11383 11384 
1 11383 17955 
2 17942 17943 
2 17941 17942 
2 17954 17955 
2 17953 17954 
3 3329 3330 
3 3328 3329 
1 3328 4627 
3 10430 10431 
3 9445 9446 
2 17624 17625 
2 17623 17624 
3 9446 9447 
2 20915 20916 
3 21106 21107 
3 21107 21108 
3 10015 10016 
2 20914 20915 
2 1255 1256 
2 1256 1257 
3 10016 10017 
3 7532 7533 
3 7531 7532 
3 9715 9716 
3 9716 9717 
3 4282 4283 
1 4282 8505 
3 4283 4284 
3 12218 12219 
3 12217 12218 
3 1310 1311 
3 1309 1310 
1 1309 9297 
2 9295 9296 
2 9296 9297 
2 8503 8504 
2 8504 8505 
2 2786 2787 
2 2785 2786 
3 5366 5367 
3 5365 5366 
3 12382 12383 
3 12383 12384 
2 16150 16151 
2 16151 16152 
2 7136 7137 
2 7135 7136 
2 11699 11700 
2 12659 12660 
2 12658 12659 
3 10700 10701 
3 10699 10700 
2 9893 9894 
3 10540 10541 
2 9892 9893 
1 9892 10540 
3 10541 10542 
2 7175 7176 
2 15989 15990 
2 15988 15989 
2 7174 7175 
1 7174 15988 
2 4528 4529 
2 4529 4530 
3 1384 1385 
3 1385 1386 
2 21322 21323 
2 21323 21324 
3 12613 12614 
3 12614 12615 
2 11698 11699 
1 11698 12613 
2 3568 3569 
2 3569 3570 
2 15928 15929 
2 15929 15930 
1 15930 16864 
3 16864 16865 
3 16865 16866 
3 13795 13796 
3 1735 1736 
3 3995 3996 
2 18382 18383 
2 18974 18975 
2 18383 18384 
1 18384 18975 
3 10429 10430 
3 14405 14406 
3 14404 14405 
1 4995 7440 
2 7438 7439 
2 7439 7440 
2 9095 9096 
2 9094 9095 
3 20741 20742 
2 15134 15135 
2 15133 15134 
3 20740 20741 
2 12379 12380 
2 12380 12381 
3 13796 13797 
3 1736 1737 
2 9031 9032 
2 9032 9033 
3 3994 3995 
1 3994 18411 
3 19889 19890 
3 19888 19889 
2 18410 18411 
2 18409 18410 
1 18409 19888 
3 4994 4995 
3 4993 4994 
1 4993 5056 
3 5056 5057 
3 5057 5058 
3 11849 11850 
1 11850 19141 
3 11848 11849 
2 19141 19142 
2 19142 19143 
1 12381 19954 
3 19954 19955 
3 19955 19956 
2 15221 15222 
2 8083 8084 
2 8084 8085 
3 7522 7523 
2 14032 14033 
2 14033 14034 
2 6439 6440 
2 6440 6441 
2 15220 15221 
3 20975 20976 
3 20974 20975 
2 18467 18468 
2 18466 18467 
3 506 507 
3 505 506 
2 10862 10863 
2 10861 10862 
2 3619 3620 
2 3620 3621 
3 7523 7524 
3 5240 5241 
3 5239 5240 
1 5239 14034 
2 12019 12020 
2 12020 12021 
3 5426 5427 
3 3127 3128 
3 3128 3129 
3 6392 6393 
3 6391 6392 
3 16541 16542 
3 16540 16541 
3 7765 7766 
3 7766 7767 
1 7767 12021 
2 14939 14940 
2 14938 14939 
3 5425 5426 
1 5425 14938 
3 8027 8028 
3 8026 8027 
3 3137 3138 
2 10988 10989 
2 10987 10988 
3 3136 3137 
1 3136 10987 
3 20462 20463 
3 20461 20462 
3 9086 9087 
3 9085 9086 
2 19727 19728 
3 3370 3371 
3 3371 3372 
2 19726 19727 
2 13288 13289 
3 5933 5934 
2 13289 13290 
3 5932 5933 
2 19823 19824 
2 19822 19823 
2 11177 11178 
2 11176 11177 
3 16220 16221 
3 7990 7991 
3 7991 7992 
3 19165 19166 
2 9781 9782 
2 9782 9783 
3 10855 10856 
3 10856 10857 
3 6115 6116 
1 6115 7290 
3 7289 7290 
3 7288 7289 
3 6116 6117 
3 8344 8345 
3 8345 8346 
2 3847 3848 
3 16219 16220 
3 20230 20231 
1 20230 21115 
3 20231 20232 
3 16084 16085 
2 20998 20999 
1 16086 20998 
3 16085 16086 
2 20999 21000 
3 19166 19167 
2 16103 16104 
1 10239 16102 
2 16102 16103 
3 7322 7323 
1 7098 7323 
2 7096 7097 
2 7097 7098 
3 7321 7322 
2 1762 1763 
2 1763 1764 
2 13025 13026 
2 13024 13025 
1 3615 13024 
2 3614 3615 
2 3613 3614 
2 13886 13887 
2 13885 13886 
3 15691 15692 
3 15692 15693 
3 18553 18554 
2 3103 3104 
2 3104 3105 
2 2147 2148 
2 3731 3732 
2 2146 2147 
2 3730 3731 
2 15349 15350 
2 15350 15351 
3 17005 17006 
3 17006 17007 
2 3848 3849 
3 3572 3573 
2 4661 4662 
2 21115 21116 
2 21116 21117 
3 3571 3572 
1 3571 21117 
2 4660 4661 
2 10238 10239 
2 10237 10238 
2 9181 9182 
2 9182 9183 
3 6346 6347 
1 6346 9183 
3 6347 6348 
3 18554 18555 
2 3655 3656 
2 3656 3657 
2 6292 6293 
2 6293 6294 
2 19564 19565 
2 19565 19566 
3 8749 8750 
3 8750 8751 
2 6595 6596 
1 6595 8751 
2 15808 15809 
3 18110 18111 
3 18109 18110 
2 382 383 
2 383 384 
2 11900 11901 
2 11899 11900 
2 11245 11246 
1 11247 15412 
2 11246 11247 
3 15412 15413 
3 15413 15414 
2 10705 10706 
1 10705 11284 
3 11284 11285 
2 10706 10707 
3 11285 11286 
3 13054 13055 
3 13055 13056 
3 17323 17324 
3 17324 17325 
2 2924 2925 
2 2923 2924 
3 13987 13988 
3 13988 13989 
2 6596 6597 
2 15809 15810 
2 3959 3960 
2 3958 3959 
3 16160 16161 
3 16159 16160 
2 7079 7080 
2 7078 7079 
2 9316 9317 
2 10330 10331 
1 10330 20847 
3 20846 20847 
3 20845 20846 
2 14062 14063 
2 14063 14064 
2 12065 12066 
2 12064 12065 
3 20749 20750 
3 11209 11210 
3 11210 11211 
3 20750 20751 
3 18598 18599 
3 18599 18600 
3 1859 1860 
3 1858 1859 
3 17930 17931 
2 3197 3198 
1 1860 3198 
2 3196 3197 
1 3196 9201 
2 9199 9200 
3 8053 8054 
1 8053 9199 
2 9200 9201 
3 8054 8055 
2 9940 9941 
3 19270 19271 
1 17568 19573 
2 19573 19574 
3 17567 17568 
2 19574 19575 
2 4649 4650 
3 19271 19272 
2 4648 4649 
1 4648 19272 
3 12823 12824 
3 12824 12825 
2 10166 10167 
3 16283 16284 
3 4090 4091 
2 10165 10166 
3 14710 14711 
3 14711 14712 
2 7450 7451 
2 7451 7452 
2 15572 15573 
2 15571 15572 
2 13997 13998 
2 19663 19664 
2 19664 19665 
3 16282 16283 
3 2323 2324 
3 2324 2325 
2 18973 18974 
3 18290 18291 
3 18289 18290 
2 13996 13997 
1 13996 18289 
3 4351 4352 
2 13669 13670 
3 14746 14747 
3 9790 9791 
3 9791 9792 
3 13817 13818 
3 13816 13817 
3 6925 6926 
3 6926 6927 
2 17228 17229 
2 17227 17228 
3 5186 5187 
3 5185 5186 
3 13084 13085 
3 13085 13086 
3 3682 3683 
3 3683 3684 
3 4352 4353 
2 13670 13671 
2 12323 12324 
2 12322 12323 
1 12322 14748 
3 14747 14748 
2 12898 12899 
2 12899 12900 
2 20516 20517 
1 11406 20517 
2 20515 20516 
2 3592 3593 
1 3592 13818 
2 3593 3594 
1 6927 19572 
2 19570 19571 
2 19571 19572 
3 9763 9764 
2 14758 14759 
2 14759 14760 
3 1283 1284 
3 12161 12162 
2 13862 13863 
3 11405 11406 
2 13861 13862 
3 11404 11405 
1 11404 13861 
3 9764 9765 
2 6032 6033 
2 6031 6032 
2 13229 13230 
2 13228 13229 
3 1282 1283 
3 12160 12161 
2 15641 15642 
2 15640 15641 
2 11224 11225 
2 11225 11226 
3 1961 1962 
3 14279 14280 
3 14278 14279 
3 7490 7491 
3 7489 7490 
2 12596 12597 
2 12595 12596 
3 13027 13028 
3 13028 13029 
3 19652 19653 
3 19651 19652 
2 14684 14685 
2 14683 14684 
3 1960 1961 
1 1960 18172 
2 18172 18173 
2 18173 18174 
1 1839 14280 
2 1838 1839 
2 2474 2475 
2 1837 1838 
1 1837 2475 
2 18167 18168 
3 18935 18936 
3 18934 18935 
2 18166 18167 
2 8759 8760 
2 8758 8759 
2 2473 2474 
3 4241 4242 
3 4240 4241 
3 20000 20001 
3 19999 20000 
2 5864 5865 
2 5863 5864 
3 18601 18602 
3 18602 18603 
3 20420 20421 
3 20419 20420 
1 2388 18936 
3 2386 2387 
3 2387 2388 
2 3341 3342 
2 14003 14004 
2 14002 14003 
2 7025 7026 
3 2852 2853 
3 2851 2852 
1 2851 14004 
2 15472 15473 
3 19144 19145 
3 19145 19146 
2 15473 15474 
3 6026 6027 
2 3340 3341 
1 3340 15484 
2 15484 15485 
2 15485 15486 
3 15877 15878 
3 9149 9150 
3 19156 19157 
3 19157 19158 
2 7024 7025 
1 7024 19158 
3 9148 9149 
3 6025 6026 
2 3242 3243 
2 3241 3242 
3 11378 11379 
3 11377 11378 
2 11797 11798 
2 11798 11799 
2 10376 10377 
2 10375 10376 
3 15878 15879 
3 18995 18996 
2 16552 16553 
1 16552 18996 
2 16553 16554 
2 12767 12768 
2 12766 12767 
3 18994 18995 
3 19529 19530 
3 19528 19529 
2 6341 6342 
2 6340 6341 
1 6340 16332 
3 983 984 
3 982 983 
2 1567 1568 
3 21283 21284 
3 21284 21285 
2 18232 18233 
2 18233 18234 
1 5667 7083 
3 5666 5667 
3 5665 5666 
3 7081 7082 
3 7082 7083 
2 19883 19884 
2 19882 19883 
3 6884 6885 
3 6883 6884 
2 1180 1181 
1 1180 6883 
2 13328 13329 
2 13327 13328 
2 19987 19988 
2 21002 21003 
3 19717 19718 
1 19717 21003 
2 21001 21002 
3 19718 19719 
3 4949 4950 
3 4948 4949 
1 1017 4950 
2 1016 1017 
2 1015 1016 
2 14753 14754 
2 14752 14753 
2 20797 20798 
2 20798 20799 
3 1066 1067 
3 1067 1068 
2 8744 8745 
1 8745 19389 
2 19388 19389 
1 1068 19387 
2 19387 19388 
2 8743 8744 
3 13484 13485 
2 3278 3279 
2 3277 3278 
2 8173 8174 
2 8174 8175 
3 12728 12729 
3 12727 12728 
3 8410 8411 
3 8411 8412 
3 15449 15450 
3 15448 15449 
2 14314 14315 
2 14315 14316 
2 6422 6423 
2 6421 6422 
2 14803 14804 
2 14804 14805 
3 13483 13484 
3 4030 4031 
1 4030 14805 
3 4031 4032 
1 4032 8898 
2 14933 14934 
2 14932 14933 
2 8897 8898 
2 8896 8897 
2 8582 8583 
2 8581 8582 
3 9373 9374 
3 9374 9375 
2 12097 12098 
2 12098 12099 
3 18913 18914 
3 19252 19253 
3 19253 19254 
2 9499 9500 
2 9500 9501 
3 18914 18915 
3 13436 13437 
3 13435 13436 
3 12328 12329 
3 12329 12330 
2 11293 11294 
2 11294 11295 
3 3878 3879 
3 3877 3878 
2 10979 10980 
3 13480 13481 
3 13481 13482 
2 6005 6006 
3 6284 6285 
3 6283 6284 
1 6006 6283 
3 628 629 
3 629 630 
2 10666 10667 
2 10667 10668 
2 3815 3816 
2 3814 3815 
2 19532 19533 
2 19531 19532 
1 9147 19531 
3 9145 9146 
3 9146 9147 
2 6782 6783 
2 6781 6782 
1 6781 12094 
2 12094 12095 
2 14564 14565 
2 14563 14564 
2 10978 10979 
2 6004 6005 
1 6004 15009 
3 15008 15009 
3 15007 15008 
3 13259 13260 
3 13258 13259 
3 19162 19163 
3 19163 19164 
3 19460 19461 
3 17287 17288 
3 10025 10026 
3 10024 10025 
1 10024 12096 
2 12095 12096 
3 5042 5043 
3 5041 5042 
3 18269 18270 
3 19520 19521 
1 18270 19519 
3 19519 19520 
3 18268 18269 
3 9959 9960 
3 9958 9959 
3 19459 19460 
1 8775 19459 
2 20258 20259 
3 8774 8775 
3 8773 8774 
1 8773 20259 
2 20257 20258 
3 12589 12590 
1 12589 20257 
3 17288 17289 
3 11815 11816 
3 11816 11817 
2 11542 11543 
2 11543 11544 
2 16397 16398 
2 16396 16397 
3 6451 6452 
3 12590 12591 
3 6452 6453 
3 10295 10296 
3 10294 10295 
2 8362 8363 
2 8363 8364 
2 4454 4455 
2 4453 4454 
3 15035 15036 
3 15034 15035 
3 18581 18582 
3 18580 18581 
1 18580 20044 
2 20044 20045 
2 20045 20046 
3 14287 14288 
3 14288 14289 
2 10097 10098 
2 10096 10097 
2 18856 18857 
3 9133 9134 
3 9134 9135 
3 2867 2868 
3 2866 2867 
3 18802 18803 
2 14089 14090 
1 14089 18804 
3 18803 18804 
2 14090 14091 
2 968 969 
2 967 968 
2 8183 8184 
2 8182 8183 
3 15055 15056 
3 15056 15057 
2 18857 18858 
3 4699 4700 
1 4699 18858 
2 5801 5802 
2 5800 5801 
3 14716 14717 
3 14717 14718 
2 9217 9218 
2 9218 9219 
2 14870 14871 
2 14869 14870 
2 1463 1464 
2 1462 1463 
3 14059 14060 
3 14060 14061 
1 20829 21183 
2 20828 20829 
2 20827 20828 
3 15352 15353 
1 14061 17461 
2 17461 17462 
2 17462 17463 
3 8032 8033 
1 8032 19612 
3 19612 19613 
3 19613 19614 
3 16358 16359 
3 16357 16358 
2 18782 18783 
2 2437 2438 
2 2438 2439 
3 17260 17261 
3 17261 17262 
3 12445 12446 
3 12446 12447 
2 20938 20939 
2 20939 20940 
3 17026 17027 
1 17026 20940 
3 17027 17028 
2 16619 16620 
2 16618 16619 
1 16618 17028 
3 15353 15354 
3 8033 8034 
2 12257 12258 
2 12256 12257 
1 12256 12982 
3 12982 12983 
3 13792 13793 
2 18781 18782 
3 18521 18522 
2 20071 20072 
3 18520 18521 
1 18520 20071 
2 20072 20073 
2 12184 12185 
1 12184 20073 
2 12185 12186 
3 18121 18122 
3 18122 18123 
3 12983 12984 
3 13793 13794 
3 11458 11459 
1 11458 11557 
3 11558 11559 
3 11557 11558 
3 21217 21218 
3 21218 21219 
3 10312 10313 
3 21089 21090 
3 21088 21089 
2 18511 18512 
1 18511 21088 
3 11459 11460 
3 20663 20664 
3 20662 20663 
3 10313 10314 
3 10252 10253 
3 10253 10254 
2 4253 4254 
2 9970 9971 
2 16493 16494 
2 9971 9972 
2 16492 16493 
3 11336 11337 
3 11335 11336 
3 21245 21246 
2 6256 6257 
1 6256 18513 
2 6257 6258 
2 18512 18513 
2 9091 9092 
2 9092 9093 
3 3109 3110 
3 3110 3111 
2 10072 10073 
2 10073 10074 
3 1847 1848 
2 8894 8895 
3 1846 1847 
1 1846 8893 
2 8893 8894 
2 21511 21512 
2 21512 21513 
2 4067 4068 
2 4066 4067 
2 14899 14900 
2 14900 14901 
2 4252 4253 
2 16504 16505 
2 16505 16506 
2 16922 16923 
2 16921 16922 
1 5664 21244 
3 5662 5663 
1 5662 14427 
3 5663 5664 
3 21244 21245 
3 5183 5184 
3 5182 5183 
1 5182 9093 
3 1042 1043 
1 1042 19815 
3 1043 1044 
2 19814 19815 
2 19942 19943 
2 19943 19944 
1 7497 16356 
3 7495 7496 
3 7496 7497 
2 14755 14756 
2 14756 14757 
3 14426 14427 
3 14425 14426 
2 10951 10952 
2 11290 11291 
2 11291 11292 
2 10372 10373 
2 19813 19814 
2 6521 6522 
2 6520 6521 
1 1572 6520 
2 1571 1572 
2 1570 1571 
3 14944 14945 
3 14945 14946 
2 16355 16356 
2 16354 16355 
3 3863 3864 
3 3862 3863 
2 9572 9573 
2 20777 20778 
2 20776 20777 
2 10952 10953 
3 14150 14151 
3 14149 14150 
2 10373 10374 
3 2945 2946 
3 2944 2945 
1 879 13551 
2 878 879 
3 13550 13551 
3 13549 13550 
3 7303 7304 
3 7304 7305 
2 877 878 
3 12481 12482 
3 5114 5115 
3 5113 5114 
1 5113 12481 
3 8350 8351 
3 8351 8352 
3 12482 12483 
3 10121 10122 
2 4223 4224 
2 4222 4223 
1 4222 10122 
2 14726 14727 
2 14725 14726 
3 21157 21158 
3 21158 21159 
1 11835 21159 
2 11834 11835 
2 11833 11834 
3 10120 10121 
1 10120 11833 
3 9871 9872 
3 9872 9873 
2 1684 1685 
3 2240 2241 
3 19394 19395 
3 20077 20078 
3 20078 20079 
3 11473 11474 
3 11474 11475 
3 8098 8099 
2 6290 6291 
2 6289 6290 
3 8099 8100 
2 1685 1686 
2 11857 11858 
1 1686 11857 
2 3845 3846 
2 11858 11859 
3 2239 2240 
3 3224 3225 
3 3223 3224 
3 19393 19394 
2 19181 19182 
2 19180 19181 
3 19747 19748 
2 20084 20085 
2 20083 20084 
2 16294 16295 
2 16295 16296 
2 3844 3845 
3 14921 14922 
3 14920 14921 
3 19706 19707 
2 511 512 
1 511 19705 
2 512 513 
3 19705 19706 
1 513 20085 
3 2402 2403 
3 2401 2402 
3 19748 19749 
2 20194 20195 
2 20195 20196 
3 18460 18461 
2 16165 16166 
1 16165 18462 
3 18461 18462 
2 16166 16167 
2 13778 13779 
2 4877 4878 
2 4876 4877 
2 13777 13778 
2 9278 9279 
2 9277 9278 
3 19682 19683 
2 16882 16883 
2 13447 13448 
2 13448 13449 
1 13491 16882 
3 13490 13491 
2 12086 12087 
3 13489 13490 
2 12085 12086 
1 12085 13489 
3 6956 6957 
3 6955 6956 
3 13034 13035 
1 12495 13033 
3 13033 13034 
3 12494 12495 
3 12493 12494 
2 6745 6746 
1 6745 13068 
3 13067 13068 
2 14134 14135 
2 14135 14136 
3 13066 13067 
1 13066 14136 
2 14551 14552 
2 14552 14553 
2 11501 11502 
1 11502 19681 
2 11500 11501 
3 19681 19682 
2 16883 16884 
3 10391 10392 
2 2491 2492 
3 10390 10391 
1 2493 10390 
2 2492 2493 
2 7328 7329 
2 6746 6747 
2 7327 7328 
2 15040 15041 
3 15569 15570 
3 5843 5844 
1 5844 15568 
3 5842 5843 
3 15568 15569 
2 15041 15042 
3 13789 13790 
3 13790 13791 
1 3864 13791 
3 2585 2586 
2 9571 9572 
1 2586 9571 
3 2584 2585 
3 15772 15773 
3 3062 3063 
3 3061 3062 
3 1997 1998 
2 8366 8367 
3 1996 1997 
1 1996 8365 
2 8365 8366 
2 12874 12875 
3 20900 20901 
3 20899 20900 
3 4435 4436 
1 4435 20899 
3 4436 4437 
3 17674 17675 
3 17675 17676 
2 14623 14624 
2 14624 14625 
3 17516 17517 
3 17515 17516 
3 1273 1274 
1 1273 20245 
1 12876 20247 
2 20246 20247 
2 20245 20246 
2 12875 12876 
2 7517 7518 
3 1274 1275 
1 1275 7516 
2 7516 7517 
3 10928 10929 
3 10927 10928 
3 16931 16932 
3 16930 16931 
3 4745 4746 
3 4744 4745 
3 13516 13517 
3 13517 13518 
2 410 411 
2 409 410 
3 14023 14024 
3 9583 9584 
3 9584 9585 
2 14053 14054 
2 11768 11769 
2 11767 11768 
3 14024 14025 
3 21301 21302 
3 21302 21303 
2 14054 14055 
3 5015 5016 
2 8858 8859 
2 10595 10596 
2 10594 10595 
2 20357 20358 
2 20356 20357 
2 17033 17034 
2 17032 17033 
1 16974 17032 
3 16973 16974 
3 16972 16973 
2 227 228 
2 226 227 
2 3280 3281 
2 3281 3282 
1 3282 17034 
3 19123 19124 
3 19124 19125 
2 17480 17481 
2 17479 17480 
3 21164 21165 
3 21163 21164 
2 2489 2490 
2 2488 2489 
2 20744 20745 
2 20743 20744 
2 5717 5718 
3 80 81 
1 81 5718 
2 7270 7271 
3 79 80 
1 79 7272 
2 7271 7272 
2 5716 5717 
3 17693 17694 
3 9887 9888 
3 9886 9887 
3 9743 9744 
3 9742 9743 
2 587 588 
2 586 587 
2 3484 3485 
1 3486 15411 
2 3485 3486 
2 15410 15411 
2 15409 15410 
2 13244 13245 
2 13243 13244 
3 12158 12159 
3 12157 12158 
3 4952 4953 
3 4951 4952 
3 6325 6326 
3 20690 20691 
3 20689 20690 
3 20965 20966 
3 20966 20967 
2 16111 16112 
1 11886 16111 
2 11885 11886 
2 16112 16113 
2 11884 11885 
2 2344 2345 
2 2345 2346 
3 14704 14705 
3 14705 14706 
3 18761 18762 
3 18760 18761 
2 10532 10533 
2 10531 10532 
3 6326 6327 
3 13928 13929 
3 13927 13928 
2 11054 11055 
2 11053 11054 
3 4895 4896 
2 8875 8876 
1 4896 8875 
2 8876 8877 
3 4894 4895 
1 5211 6744 
2 5210 5211 
3 6742 6743 
1 6742 9987 
3 6743 6744 
2 5209 5210 
3 1681 1682 
3 9985 9986 
3 9986 9987 
3 13948 13949 
3 13949 13950 
2 7412 7413 
2 7255 7256 
2 7256 7257 
2 7666 7667 
2 7411 7412 
1 7411 7666 
2 7667 7668 
2 14396 14397 
2 14395 14396 
1 13929 14397 
3 6349 6350 
3 9035 9036 
3 9034 9035 
3 19766 19767 
3 19765 19766 
2 550 551 
2 551 552 
2 1864 1865 
2 1865 1866 
3 1909 1910 
3 1910 1911 
3 9341 9342 
2 4331 4332 
2 4330 4331 
3 9340 9341 
3 18187 18188 
3 18188 18189 
2 3311 3312 
2 2635 2636 
2 14597 14598 
2 14596 14597 
2 1096 1097 
2 1097 1098 
2 2636 2637 
3 19066 19067 
3 19067 19068 
3 10696 10697 
1 10696 19066 
3 10697 10698 
2 14629 14630 
2 14630 14631 
3 15461 15462 
3 15460 15461 
3 19945 19946 
3 19946 19947 
3 4184 4185 
2 8395 8396 
2 8396 8397 
2 10463 10464 
2 10462 10463 
3 4183 4184 
2 244 245 
2 245 246 
2 20188 20189 
1 20188 21516 
2 20189 20190 
2 21514 21515 
2 21515 21516 
3 9727 9728 
3 9728 9729 
3 21076 21077 
1 9729 21076 
1 2433 21078 
3 21077 21078 
3 2432 2433 
3 2431 2432 
2 17398 17399 
2 17399 17400 
2 11984 11985 
2 11983 11984 
3 5758 5759 
3 5759 5760 
3 7214 7215 
3 7213 7214 
2 7790 7791 
2 7789 7790 
2 9586 9587 
2 9587 9588 
3 3760 3761 
3 3761 3762 
3 1930 1931 
1 1930 9826 
3 1931 1932 
2 9826 9827 
2 9827 9828 
3 13373 13374 
3 13372 13373 
2 4177 4178 
2 4178 4179 
3 11614 11615 
3 11615 11616 
3 16429 16430 
3 16430 16431 
3 4732 4733 
3 4733 4734 
1 2940 4732 
2 17107 17108 
1 4734 17107 
2 2939 2940 
2 2938 2939 
1 2938 16429 
2 18773 18774 
2 18772 18773 
2 17108 17109 
3 9830 9831 
3 9829 9830 
3 19306 19307 
3 19307 19308 
3 11483 11484 
3 11482 11483 
3 5014 5015 
3 9461 9462 
3 9460 9461 
2 8857 8858 
1 8857 9460 
2 8608 8609 
2 8609 8610 
3 6350 6351 
3 2711 2712 
2 17278 17279 
3 6724 6725 
1 6724 17278 
3 6725 6726 
3 1202 1203 
3 16385 16386 
2 15068 15069 
3 2710 2711 
3 15736 15737 
3 15737 15738 
2 17279 17280 
3 1201 1202 
3 16384 16385 
3 2096 2097 
3 2095 2096 
1 2095 6285 
2 15067 15068 
3 14180 14181 
3 14179 14180 
2 850 851 
1 850 14181 
2 15298 15299 
2 15299 15300 
3 12427 12428 
3 12428 12429 
1 12429 15300 
2 10816 10817 
2 10817 10818 
1 10818 13131 
2 13130 13131 
2 13129 13130 
2 1441 1442 
3 17354 17355 
3 17353 17354 
3 19966 19967 
3 19967 19968 
3 15967 15968 
2 1442 1443 
3 6016 6017 
3 6017 6018 
2 851 852 
3 12889 12890 
2 2351 2352 
2 2350 2351 
1 2350 12891 
3 12890 12891 
2 1027 1028 
1 1027 15969 
3 15968 15969 
2 1028 1029 
3 12434 12435 
3 12433 12434 
2 4756 4757 
2 4757 4758 
2 2914 2915 
2 2915 2916 
2 734 735 
2 733 734 
3 15697 15698 
3 15698 15699 
2 3310 3311 
1 3310 16363 
2 16363 16364 
2 16364 16365 
1 105 16365 
3 104 105 
3 23 24 
3 22 23 
3 103 104 
3 19762 19763 
2 3475 3476 
2 3476 3477 
3 11566 11567 
3 19763 19764 
2 18347 18348 
2 18346 18347 
3 11567 11568 
3 20089 20090 
3 20090 20091 
3 4025 4026 
3 4024 4025 
1 4024 4485 
2 4484 4485 
2 4483 4484 
3 9301 9302 
3 9302 9303 
3 9413 9414 
3 9412 9413 
2 21181 21182 
2 21182 21183 
3 2756 2757 
3 2755 2756 
2 20593 20594 
2 20594 20595 
2 18340 18341 
2 18341 18342 
3 7715 7716 
3 7714 7715 
3 9362 9363 
3 11687 11688 
3 11686 11687 
3 14611 14612 
3 14612 14613 
3 1418 1419 
3 9361 9362 
3 1417 1418 
3 11809 11810 
3 11810 11811 
2 6761 6762 
2 6760 6761 
2 8816 8817 
2 8815 8816 
3 18571 18572 
1 18571 20724 
3 18572 18573 
2 7723 7724 
2 7724 7725 
2 12538 12539 
2 17419 17420 
2 12539 12540 
3 2849 2850 
3 2848 2849 
3 15667 15668 
3 15668 15669 
2 20723 20724 
2 20722 20723 
2 6112 6113 
1 6112 7725 
2 6113 6114 
2 17420 17421 
2 17791 17792 
2 17792 17793 
3 1759 1760 
3 1760 1761 
3 1105 1106 
1 1107 3472 
3 3472 3473 
3 1106 1107 
3 3473 3474 
1 3474 17835 
2 17834 17835 
2 17833 17834 
3 10889 10890 
3 10888 10889 
3 13277 13278 
3 13276 13277 
2 38 39 
2 37 38 
2 19858 19859 
2 19859 19860 
2 2333 2334 