ITEM: TIMESTEP
0
ITEM: NUMBER OF ATOMS
3678
ITEM: BOX BOUNDS pp pp pp
0.0000000000000000e+00 5.0000000000000000e+01
0.0000000000000000e+00 5.0000000000000000e+01
0.0000000000000000e+00 5.0000000000000000e+01
ITEM: ATOMS id type 
4 1 
5 3 
6 1 
7 1 
8 3 
9 1 
64 1 
65 3 
66 1 
247 1 
248 2 
249 1 
361 1 
362 3 
363 1 
427 1 
428 3 
429 1 
1267 1 
1268 2 
1269 1 
1270 1 
1271 3 
1272 1 
1327 1 
1328 3 
1329 1 
1501 1 
1502 3 
1503 1 
1507 1 
1508 3 
1509 1 
1564 1 
1565 2 
1566 1 
1627 1 
1628 3 
1629 1 
2224 1 
2225 3 
2226 1 
2227 1 
2228 2 
2229 1 
2230 1 
2231 3 
2232 1 
2524 1 
2525 3 
2526 1 
2581 1 
2582 2 
2583 1 
3250 1 
3251 2 
3252 1 
3367 1 
3368 3 
3369 1 
3421 1 
3422 2 
3423 1 
3424 1 
3425 3 
3426 1 
3487 1 
3488 3 
3489 1 
3667 1 
3668 3 
3669 1 
4324 1 
4325 3 
4326 1 
4384 1 
4385 2 
4386 1 
4447 1 
4448 2 
4449 1 
4450 1 
4451 3 
4452 1 
4561 1 
4562 2 
4563 1 
4570 1 
4571 3 
4572 1 
4621 1 
4622 3 
4623 1 
4684 1 
4685 3 
4686 1 
4750 1 
4751 3 
4752 1 
5464 1 
5465 3 
5466 1 
5710 1 
5711 3 
5712 1 
5821 1 
5822 3 
5823 1 
5824 1 
5825 3 
5826 1 
5830 1 
5831 3 
5832 1 
5944 1 
5945 3 
5946 1 
5947 1 
5948 2 
5949 1 
6001 1 
6002 3 
6003 1 
6667 1 
6668 3 
6669 1 
6790 1 
6791 3 
6792 1 
6910 1 
6911 3 
6912 1 
7084 1 
7085 3 
7086 1 
7207 1 
7208 3 
7209 1 
7750 1 
7751 2 
7752 1 
7861 1 
7862 3 
7863 1 
7864 1 
7865 3 
7866 1 
7870 1 
7871 3 
7872 1 
7927 1 
7928 3 
7929 1 
8110 1 
8111 3 
8112 1 
8164 1 
8165 3 
8166 1 
8281 1 
8282 3 
8283 1 
8290 1 
8291 3 
8292 1 
9010 1 
9011 2 
9012 1 
9064 1 
9065 3 
9066 1 
10030 1 
10031 3 
10032 1 
10084 1 
10085 2 
10086 1 
10201 1 
10202 2 
10203 1 
10204 1 
10205 2 
10206 1 
10210 1 
10211 3 
10212 1 
10321 1 
10322 3 
10323 1 
10324 1 
10325 3 
10326 1 
73 1 
74 3 
75 1 
196 1 
197 2 
198 1 
493 1 
494 3 
495 1 
1159 1 
1160 3 
1161 1 
1522 1 
1523 2 
1524 1 
1582 1 
1583 3 
1584 1 
1633 1 
1634 3 
1635 1 
2302 1 
2303 2 
2304 1 
2353 1 
2354 2 
2355 1 
2362 1 
2363 3 
2364 1 
2419 1 
2420 3 
2421 1 
2542 1 
2543 3 
2544 1 
3433 1 
3434 3 
3435 1 
3436 1 
3437 2 
3438 1 
3493 1 
3494 3 
3495 1 
3499 1 
3500 3 
3501 1 
4333 1 
4334 3 
4335 1 
4396 1 
4397 3 
4398 1 
4459 1 
4460 3 
4461 1 
4513 1 
4514 3 
4515 1 
4639 1 
4640 2 
4641 1 
4753 1 
4754 2 
4755 1 
4813 1 
4814 3 
4815 1 
4873 1 
4874 3 
4875 1 
5479 1 
5480 3 
5481 1 
5593 1 
5594 3 
5595 1 
5596 1 
5597 3 
5598 1 
5779 1 
5780 2 
5781 1 
5782 1 
5783 2 
5784 1 
6919 1 
6920 3 
6921 1 
6922 1 
6923 3 
6924 1 
7042 1 
7043 3 
7044 1 
7753 1 
7754 3 
7755 1 
7876 1 
7877 2 
7878 1 
7936 1 
7937 3 
7938 1 
7996 1 
7997 3 
7998 1 
8116 1 
8117 2 
8118 1 
8119 1 
8120 3 
8121 1 
9016 1 
9017 3 
9018 1 
9079 1 
9080 3 
9081 1 
9082 1 
9083 2 
9084 1 
9202 1 
9203 3 
9204 1 
9259 1 
9260 3 
9261 1 
9262 1 
9263 3 
9264 1 
9319 1 
9320 2 
9321 1 
9976 1 
9977 3 
9978 1 
10033 1 
10034 3 
10035 1 
10042 1 
10043 3 
10044 1 
10093 1 
10094 3 
10095 1 
10099 1 
10100 2 
10101 1 
10102 1 
10103 3 
10104 1 
10219 1 
10220 2 
10221 1 
10339 1 
10340 3 
10341 1 
10456 1 
10457 3 
10458 1 
10522 1 
10523 3 
10524 1 
31 1 
32 3 
33 1 
94 1 
95 3 
96 1 
274 1 
275 3 
276 1 
394 1 
395 3 
396 1 
1228 1 
1229 3 
1230 1 
1294 1 
1295 3 
1296 1 
1351 1 
1352 3 
1353 1 
1411 1 
1412 2 
1413 1 
1591 1 
1592 2 
1593 1 
1651 1 
1652 3 
1653 1 
2245 1 
2246 3 
2247 1 
2254 1 
2255 3 
2256 1 
2554 1 
2555 3 
2556 1 
3268 1 
3269 2 
3270 1 
3331 1 
3332 3 
3333 1 
3451 1 
3452 3 
3453 1 
3688 1 
3689 3 
3690 1 
4408 1 
4409 2 
4410 1 
4411 1 
4412 3 
4413 1 
4471 1 
4472 3 
4473 1 
4525 1 
4526 3 
4527 1 
4531 1 
4532 3 
4533 1 
4711 1 
4712 3 
4713 1 
4771 1 
4772 3 
4773 1 
4774 1 
4775 2 
4776 1 
4825 1 
4826 3 
4827 1 
4831 1 
4832 3 
4833 1 
4834 1 
4835 3 
4836 1 
5671 1 
5672 3 
5673 1 
5911 1 
5912 3 
5913 1 
5965 1 
5966 3 
5967 1 
5971 1 
5972 3 
5973 1 
6811 1 
6812 3 
6813 1 
6814 1 
6815 3 
6816 1 
6868 1 
6869 2 
6870 1 
6985 1 
6986 3 
6987 1 
7105 1 
7106 3 
7107 1 
7165 1 
7166 3 
7167 1 
7168 1 
7169 3 
7170 1 
7225 1 
7226 2 
7227 1 
7231 1 
7232 3 
7233 1 
7948 1 
7949 3 
7950 1 
7954 1 
7955 3 
7956 1 
8011 1 
8012 3 
8013 1 
8965 1 
8966 2 
8967 1 
8968 1 
8969 3 
8970 1 
9205 1 
9206 3 
9207 1 
9208 1 
9209 3 
9210 1 
9265 1 
9266 3 
9267 1 
10051 1 
10052 3 
10053 1 
10168 1 
10169 2 
10170 1 
10174 1 
10175 3 
10176 1 
10228 1 
10229 2 
10230 1 
10291 1 
10292 3 
10293 1 
10348 1 
10349 3 
10350 1 
10351 1 
10352 3 
10353 1 
10465 1 
10466 2 
10467 1 
10468 1 
10469 3 
10470 1 
10474 1 
10475 3 
10476 1 
10534 1 
10535 3 
10536 1 
163 1 
164 3 
165 1 
343 1 
344 3 
345 1 
346 1 
347 3 
348 1 
397 1 
398 3 
399 1 
1426 1 
1427 3 
1428 1 
1477 1 
1478 3 
1479 1 
1597 1 
1598 3 
1599 1 
1606 1 
1607 3 
1608 1 
2317 1 
2318 3 
2319 1 
2377 1 
2378 2 
2379 1 
2440 1 
2441 3 
2442 1 
2560 1 
2561 2 
2562 1 
3217 1 
3218 3 
3219 1 
3226 1 
3227 3 
3228 1 
3286 1 
3287 3 
3288 1 
3583 1 
3584 3 
3585 1 
3706 1 
3707 2 
3708 1 
4363 1 
4364 2 
4365 1 
4366 1 
4367 3 
4368 1 
4420 1 
4421 2 
4422 1 
4597 1 
4598 2 
4599 1 
4663 1 
4664 2 
4665 1 
4717 1 
4718 3 
4719 1 
4840 1 
4841 3 
4842 1 
4897 1 
4898 3 
4899 1 
5557 1 
5558 3 
5559 1 
5737 1 
5738 3 
5739 1 
5980 1 
5981 3 
5982 1 
6043 1 
6044 3 
6045 1 
6817 1 
6818 2 
6819 1 
6826 1 
6827 3 
6828 1 
6940 1 
6941 2 
6942 1 
7117 1 
7118 3 
7119 1 
7240 1 
7241 3 
7242 1 
7780 1 
7781 3 
7782 1 
7957 1 
7958 3 
7959 1 
8020 1 
8021 2 
8022 1 
8023 1 
8024 2 
8025 1 
8077 1 
8078 3 
8079 1 
8206 1 
8207 3 
8208 1 
8257 1 
8258 3 
8259 1 
8977 1 
8978 3 
8979 1 
9220 1 
9221 3 
9222 1 
9346 1 
9347 3 
9348 1 
9997 1 
9998 2 
9999 1 
10000 1 
10001 3 
10002 1 
10126 1 
10127 3 
10128 1 
10180 1 
10181 3 
10182 1 
10240 1 
10241 3 
10242 1 
10366 1 
10367 3 
10368 1 
10537 1 
10538 2 
10539 1 
49 1 
50 3 
51 1 
109 1 
110 3 
111 1 
112 1 
113 3 
114 1 
169 1 
170 3 
171 1 
238 1 
239 3 
240 1 
349 1 
350 3 
351 1 
472 1 
473 3 
474 1 
475 1 
476 3 
477 1 
529 1 
530 3 
531 1 
1429 1 
1430 3 
1431 1 
1498 1 
1499 3 
1500 1 
1549 1 
1550 3 
1551 1 
1612 1 
1613 3 
1614 1 
2509 1 
2510 3 
2511 1 
2569 1 
2570 3 
2571 1 
3238 1 
3239 3 
3240 1 
3529 1 
3530 3 
3531 1 
3595 1 
3596 3 
3597 1 
3712 1 
3713 3 
3714 1 
3715 1 
3716 2 
3717 1 
4372 1 
4373 3 
4374 1 
4429 1 
4430 3 
4431 1 
4678 1 
4679 3 
4680 1 
4735 1 
4736 3 
4737 1 
4792 1 
4793 3 
4794 1 
4798 1 
4799 3 
4800 1 
4858 1 
4859 3 
4860 1 
4912 1 
4913 2 
4914 1 
5509 1 
5510 3 
5511 1 
5629 1 
5630 3 
5631 1 
5692 1 
5693 2 
5694 1 
5698 1 
5699 3 
5700 1 
5878 1 
5879 3 
5880 1 
5995 1 
5996 3 
5997 1 
6769 1 
6770 3 
6771 1 
6832 1 
6833 3 
6834 1 
6952 1 
6953 3 
6954 1 
7009 1 
7010 3 
7011 1 
7075 1 
7076 3 
7077 1 
7195 1 
7196 3 
7197 1 
7855 1 
7856 3 
7857 1 
7858 1 
7859 3 
7860 1 
7909 1 
7910 3 
7911 1 
7918 1 
7919 3 
7920 1 
7978 1 
7979 3 
7980 1 
8038 1 
8039 3 
8040 1 
8149 1 
8150 3 
8151 1 
8212 1 
8213 2 
8214 1 
8989 1 
8990 3 
8991 1 
8995 1 
8996 3 
8997 1 
8998 1 
8999 2 
9000 1 
9175 1 
9176 3 
9177 1 
9298 1 
9299 2 
9300 1 
9355 1 
9356 2 
9357 1 
9358 1 
9359 3 
9360 1 
10195 1 
10196 3 
10197 1 
10258 1 
10259 3 
10260 1 
10432 1 
10433 2 
10434 1 
10552 1 
10553 2 
10554 1 
10555 1 
10556 3 
10557 1 
547 1 
548 2 
549 1 
604 1 
605 3 
606 1 
610 1 
611 3 
612 1 
667 1 
668 3 
669 1 
841 1 
842 3 
843 1 
844 1 
845 2 
846 1 
1687 1 
1688 3 
1689 1 
1801 1 
1802 2 
1803 1 
2047 1 
2048 2 
2049 1 
2050 1 
2051 3 
2052 1 
2164 1 
2165 3 
2166 1 
2650 1 
2651 2 
2652 1 
2701 1 
2702 3 
2703 1 
2764 1 
2765 3 
2766 1 
2767 1 
2768 2 
2769 1 
3007 1 
3008 3 
3009 1 
3124 1 
3125 3 
3126 1 
3781 1 
3782 2 
3783 1 
3784 1 
3785 3 
3786 1 
3787 1 
3788 2 
3789 1 
3907 1 
3908 3 
3909 1 
3961 1 
3962 3 
3963 1 
3967 1 
3968 3 
3969 1 
4084 1 
4085 3 
4086 1 
4087 1 
4088 3 
4089 1 
4921 1 
4922 3 
4923 1 
5047 1 
5048 2 
5049 1 
5101 1 
5102 3 
5103 1 
5104 1 
5105 3 
5106 1 
5224 1 
5225 3 
5226 1 
5344 1 
5345 2 
5346 1 
5347 1 
5348 2 
5349 1 
5401 1 
5402 2 
5403 1 
5407 1 
5408 2 
5409 1 
6064 1 
6065 2 
6066 1 
6067 1 
6068 3 
6069 1 
6124 1 
6125 3 
6126 1 
6130 1 
6131 3 
6132 1 
6190 1 
6191 2 
6192 1 
6310 1 
6311 3 
6312 1 
6370 1 
6371 3 
6372 1 
6547 1 
6548 3 
6549 1 
6607 1 
6608 3 
6609 1 
6610 1 
6611 3 
6612 1 
7621 1 
7622 3 
7623 1 
7627 1 
7628 3 
7629 1 
7681 1 
7682 3 
7683 1 
8590 1 
8591 2 
8592 1 
8644 1 
8645 3 
8646 1 
8650 1 
8651 3 
8652 1 
8701 1 
8702 3 
8703 1 
8710 1 
8711 3 
8712 1 
8821 1 
8822 3 
8823 1 
8827 1 
8828 2 
8829 1 
9487 1 
9488 3 
9489 1 
9604 1 
9605 2 
9606 1 
9724 1 
9725 3 
9726 1 
9850 1 
9851 3 
9852 1 
10561 1 
10562 3 
10563 1 
10630 1 
10631 3 
10632 1 
10690 1 
10691 3 
10692 1 
10741 1 
10742 3 
10743 1 
10810 1 
10811 3 
10812 1 
10921 1 
10922 3 
10923 1 
11047 1 
11048 3 
11049 1 
739 1 
740 3 
741 1 
796 1 
797 3 
798 1 
853 1 
854 3 
855 1 
862 1 
863 3 
864 1 
919 1 
920 3 
921 1 
1696 1 
1697 3 
1698 1 
1702 1 
1703 3 
1704 1 
1822 1 
1823 3 
1824 1 
1939 1 
1940 2 
1941 1 
2053 1 
2054 3 
2055 1 
2056 1 
2057 3 
2058 1 
2113 1 
2114 3 
2115 1 
2179 1 
2180 3 
2181 1 
2656 1 
2657 3 
2658 1 
2722 1 
2723 3 
2724 1 
2836 1 
2837 3 
2838 1 
2959 1 
2960 3 
2961 1 
3022 1 
3023 3 
3024 1 
3796 1 
3797 3 
3798 1 
3919 1 
3920 3 
3921 1 
3979 1 
3980 2 
3981 1 
4216 1 
4217 3 
4218 1 
4219 1 
4220 2 
4221 1 
4996 1 
4997 3 
4998 1 
6082 1 
6083 3 
6084 1 
6133 1 
6134 3 
6135 1 
6139 1 
6140 3 
6141 1 
6196 1 
6197 3 
6198 1 
6253 1 
6254 3 
6255 1 
6259 1 
6260 2 
6261 1 
6379 1 
6380 3 
6381 1 
6433 1 
6434 3 
6435 1 
6436 1 
6437 3 
6438 1 
6499 1 
6500 3 
6501 1 
6502 1 
6503 3 
6504 1 
6553 1 
6554 3 
6555 1 
6613 1 
6614 3 
6615 1 
7282 1 
7283 2 
7284 1 
7453 1 
7454 3 
7455 1 
7459 1 
7460 3 
7461 1 
7579 1 
7580 3 
7581 1 
7702 1 
7703 2 
7704 1 
8419 1 
8420 3 
8421 1 
8719 1 
8720 3 
8721 1 
8722 1 
8723 3 
8724 1 
8782 1 
8783 3 
8784 1 
8842 1 
8843 3 
8844 1 
9493 1 
9494 3 
9495 1 
9559 1 
9560 2 
9561 1 
9562 1 
9563 3 
9564 1 
9676 1 
9677 2 
9678 1 
9679 1 
9680 3 
9681 1 
9856 1 
9857 3 
9858 1 
9859 1 
9860 3 
9861 1 
9922 1 
9923 2 
9924 1 
10573 1 
10574 2 
10575 1 
10582 1 
10583 3 
10584 1 
10633 1 
10634 3 
10635 1 
10873 1 
10874 3 
10875 1 
10996 1 
10997 3 
10998 1 
568 1 
569 3 
570 1 
631 1 
632 3 
633 1 
925 1 
926 3 
927 1 
934 1 
935 3 
936 1 
1048 1 
1049 3 
1050 1 
1705 1 
1706 3 
1707 1 
1708 1 
1709 3 
1710 1 
1768 1 
1769 2 
1770 1 
1891 1 
1892 3 
1893 1 
1948 1 
1949 3 
1950 1 
2071 1 
2072 3 
2073 1 
2188 1 
2189 3 
2190 1 
2194 1 
2195 3 
2196 1 
2854 1 
2855 3 
2856 1 
2908 1 
2909 2 
2910 1 
3025 1 
3026 3 
3027 1 
3031 1 
3032 3 
3033 1 
3094 1 
3095 3 
3096 1 
3148 1 
3149 2 
3150 1 
3154 1 
3155 3 
3156 1 
3805 1 
3806 3 
3807 1 
3928 1 
3929 2 
3930 1 
4165 1 
4166 3 
4167 1 
4291 1 
4292 3 
4293 1 
5008 1 
5009 3 
5010 1 
5194 1 
5195 3 
5196 1 
5251 1 
5252 3 
5253 1 
5314 1 
5315 3 
5316 1 
5368 1 
5369 3 
5370 1 
5371 1 
5372 2 
5373 1 
5431 1 
5432 2 
5433 1 
5434 1 
5435 3 
5436 1 
6088 1 
6089 3 
6090 1 
6094 1 
6095 3 
6096 1 
6265 1 
6266 3 
6267 1 
6268 1 
6269 3 
6270 1 
6334 1 
6335 2 
6336 1 
6445 1 
6446 3 
6447 1 
6448 1 
6449 3 
6450 1 
6454 1 
6455 2 
6456 1 
7408 1 
7409 3 
7410 1 
7468 1 
7469 3 
7470 1 
7471 1 
7472 2 
7473 1 
7474 1 
7475 3 
7476 1 
7525 1 
7526 3 
7527 1 
7594 1 
7595 2 
7596 1 
8485 1 
8486 3 
8487 1 
8611 1 
8612 3 
8613 1 
8788 1 
8789 3 
8790 1 
8845 1 
8846 3 
8847 1 
8848 1 
8849 2 
8850 1 
8851 1 
8852 3 
8853 1 
9508 1 
9509 3 
9510 1 
9514 1 
9515 3 
9516 1 
9574 1 
9575 3 
9576 1 
9688 1 
9689 3 
9690 1 
9865 1 
9866 3 
9867 1 
9928 1 
9929 3 
9930 1 
10585 1 
10586 3 
10587 1 
10591 1 
10592 3 
10593 1 
10648 1 
10649 3 
10650 1 
10768 1 
10769 3 
10770 1 
10774 1 
10775 2 
10776 1 
10825 1 
10826 3 
10827 1 
10945 1 
10946 3 
10947 1 
11008 1 
11009 2 
11010 1 
646 1 
647 3 
648 1 
697 1 
698 3 
699 1 
820 1 
821 3 
822 1 
940 1 
941 2 
942 1 
1057 1 
1058 3 
1059 1 
1120 1 
1121 3 
1122 1 
1780 1 
1781 2 
1782 1 
1786 1 
1787 2 
1788 1 
1840 1 
1841 3 
1842 1 
1843 1 
1844 3 
1845 1 
1906 1 
1907 3 
1908 1 
1963 1 
1964 3 
1965 1 
2020 1 
2021 3 
2022 1 
2086 1 
2087 2 
2088 1 
2143 1 
2144 3 
2145 1 
2683 1 
2684 3 
2685 1 
2737 1 
2738 2 
2739 1 
2857 1 
2858 3 
2859 1 
2980 1 
2981 2 
2982 1 
2986 1 
2987 2 
2988 1 
3040 1 
3041 3 
3042 1 
3160 1 
3161 2 
3162 1 
3883 1 
3884 3 
3885 1 
3886 1 
3887 3 
3888 1 
3940 1 
3941 3 
3942 1 
4006 1 
4007 2 
4008 1 
4057 1 
4058 3 
4059 1 
4243 1 
4244 3 
4245 1 
4300 1 
4301 2 
4302 1 
4306 1 
4307 3 
4308 1 
5026 1 
5027 3 
5028 1 
5137 1 
5138 3 
5139 1 
5140 1 
5141 2 
5142 1 
5203 1 
5204 2 
5205 1 
5263 1 
5264 3 
5265 1 
5380 1 
5381 2 
5382 1 
5446 1 
5447 3 
5448 1 
6100 1 
6101 3 
6102 1 
6160 1 
6161 3 
6162 1 
6220 1 
6221 3 
6222 1 
6277 1 
6278 2 
6279 1 
6286 1 
6287 3 
6288 1 
6343 1 
6344 3 
6345 1 
6400 1 
6401 3 
6402 1 
6403 1 
6404 2 
6405 1 
6577 1 
6578 3 
6579 1 
6643 1 
6644 3 
6645 1 
7360 1 
7361 2 
7362 1 
7486 1 
7487 3 
7488 1 
7543 1 
7544 3 
7545 1 
7597 1 
7598 3 
7599 1 
7660 1 
7661 3 
7662 1 
8437 1 
8438 3 
8439 1 
8440 1 
8441 2 
8442 1 
8443 1 
8444 2 
8445 1 
8446 1 
8447 3 
8448 1 
8863 1 
8864 3 
8865 1 
9406 1 
9407 3 
9408 1 
9523 1 
9524 3 
9525 1 
9643 1 
9644 3 
9645 1 
9700 1 
9701 2 
9702 1 
9817 1 
9818 3 
9819 1 
9823 1 
9824 3 
9825 1 
9883 1 
9884 3 
9885 1 
9937 1 
9938 3 
9939 1 
9946 1 
9947 2 
9948 1 
10603 1 
10604 2 
10605 1 
10606 1 
10607 3 
10608 1 
10717 1 
10718 3 
10719 1 
10843 1 
10844 3 
10845 1 
10906 1 
10907 3 
10908 1 
10963 1 
10964 3 
10965 1 
592 1 
593 2 
594 1 
718 1 
719 2 
720 1 
889 1 
890 2 
891 1 
1732 1 
1733 3 
1734 1 
1855 1 
1856 2 
1857 1 
1918 1 
1919 3 
1920 1 
1978 1 
1979 3 
1980 1 
2029 1 
2030 3 
2031 1 
2089 1 
2090 3 
2091 1 
2098 1 
2099 2 
2100 1 
2215 1 
2216 3 
2217 1 
2692 1 
2693 3 
2694 1 
2695 1 
2696 3 
2697 1 
2698 1 
2699 3 
2700 1 
2749 1 
2750 3 
2751 1 
2758 1 
2759 3 
2760 1 
2869 1 
2870 2 
2871 1 
2992 1 
2993 3 
2994 1 
3052 1 
3053 3 
3054 1 
3175 1 
3176 3 
3177 1 
3829 1 
3830 3 
3831 1 
4075 1 
4076 3 
4077 1 
4129 1 
4130 2 
4131 1 
4978 1 
4979 3 
4980 1 
5152 1 
5153 2 
5154 1 
5215 1 
5216 3 
5217 1 
5398 1 
5399 2 
5400 1 
5458 1 
5459 2 
5460 1 
6118 1 
6119 3 
6120 1 
6172 1 
6173 3 
6174 1 
6409 1 
6410 3 
6411 1 
6469 1 
6470 2 
6471 1 
6478 1 
6479 3 
6480 1 
6535 1 
6536 2 
6537 1 
6538 1 
6539 2 
6540 1 
6592 1 
6593 3 
6594 1 
7315 1 
7316 2 
7317 1 
7429 1 
7430 3 
7431 1 
7435 1 
7436 3 
7437 1 
7552 1 
7553 3 
7554 1 
7618 1 
7619 3 
7620 1 
7732 1 
7733 3 
7734 1 
8509 1 
8510 2 
8511 1 
8512 1 
8513 3 
8514 1 
8518 1 
8519 2 
8520 1 
8569 1 
8570 2 
8571 1 
8578 1 
8579 2 
8580 1 
8635 1 
8636 3 
8637 1 
8638 1 
8639 3 
8640 1 
8695 1 
8696 3 
8697 1 
8755 1 
8756 3 
8757 1 
9409 1 
9410 2 
9411 1 
9472 1 
9473 3 
9474 1 
9778 1 
9779 2 
9780 1 
10612 1 
10613 3 
10614 1 
10615 1 
10616 3 
10617 1 
10618 1 
10619 2 
10620 1 
10795 1 
10796 3 
10797 1 
10849 1 
10850 3 
10851 1 
10918 1 
10919 2 
10920 1 
11161 1 
11162 3 
11163 1 
11464 1 
11465 2 
11466 1 
12067 1 
12068 3 
12069 1 
12304 1 
12305 3 
12306 1 
12307 1 
12308 2 
12309 1 
12310 1 
12311 2 
12312 1 
12421 1 
12422 3 
12423 1 
12487 1 
12488 3 
12489 1 
12490 1 
12491 3 
12492 1 
12547 1 
12548 3 
12549 1 
12607 1 
12608 3 
12609 1 
13204 1 
13205 3 
13206 1 
13267 1 
13268 3 
13269 1 
13390 1 
13391 2 
13392 1 
13444 1 
13445 3 
13446 1 
13501 1 
13502 3 
13503 1 
14221 1 
14222 2 
14223 1 
14284 1 
14285 3 
14286 1 
14290 1 
14291 3 
14292 1 
14350 1 
14351 3 
14352 1 
14407 1 
14408 3 
14409 1 
14521 1 
14522 2 
14523 1 
15364 1 
15365 3 
15366 1 
15481 1 
15482 3 
15483 1 
15607 1 
15608 3 
15609 1 
15661 1 
15662 2 
15663 1 
15670 1 
15671 3 
15672 1 
15730 1 
15731 2 
15732 1 
16381 1 
16382 2 
16383 1 
16390 1 
16391 3 
16392 1 
16570 1 
16571 2 
16572 1 
16621 1 
16622 3 
16623 1 
16630 1 
16631 3 
16632 1 
17401 1 
17402 3 
17403 1 
17410 1 
17411 2 
17412 1 
17470 1 
17471 3 
17472 1 
17590 1 
17591 3 
17592 1 
17650 1 
17651 2 
17652 1 
17704 1 
17705 3 
17706 1 
17707 1 
17708 2 
17709 1 
18367 1 
18368 2 
18369 1 
18370 1 
18371 3 
18372 1 
18427 1 
18428 3 
18429 1 
18487 1 
18488 3 
18489 1 
18841 1 
18842 3 
18843 1 
19444 1 
19445 3 
19446 1 
19450 1 
19451 3 
19452 1 
19561 1 
19562 3 
19563 1 
19567 1 
19568 2 
19569 1 
19801 1 
19802 2 
19803 1 
19861 1 
19862 3 
19863 1 
20521 1 
20522 3 
20523 1 
20701 1 
20702 3 
20703 1 
20707 1 
20708 3 
20709 1 
20884 1 
20885 2 
20886 1 
21004 1 
21005 3 
21006 1 
21007 1 
21008 3 
21009 1 
11173 1 
11174 2 
11175 1 
11179 1 
11180 3 
11181 1 
11182 1 
11183 3 
11184 1 
12073 1 
12074 3 
12075 1 
12082 1 
12083 2 
12084 1 
12253 1 
12254 3 
12255 1 
12259 1 
12260 3 
12261 1 
12262 1 
12263 3 
12264 1 
12319 1 
12320 2 
12321 1 
12619 1 
12620 2 
12621 1 
12622 1 
12623 3 
12624 1 
13156 1 
13157 3 
13158 1 
13159 1 
13160 3 
13161 1 
13333 1 
13334 3 
13335 1 
13339 1 
13340 3 
13341 1 
13576 1 
13577 2 
13578 1 
14293 1 
14294 3 
14295 1 
14362 1 
14363 3 
14364 1 
14476 1 
14477 3 
14478 1 
14602 1 
14603 3 
14604 1 
15313 1 
15314 3 
15315 1 
15373 1 
15374 3 
15375 1 
15439 1 
15440 3 
15441 1 
15616 1 
15617 2 
15618 1 
15619 1 
15620 3 
15621 1 
15622 1 
15623 3 
15624 1 
15733 1 
15734 3 
15735 1 
16342 1 
16343 2 
16344 1 
16399 1 
16400 2 
16401 1 
16402 1 
16403 3 
16404 1 
16453 1 
16454 3 
16455 1 
16456 1 
16457 3 
16458 1 
16459 1 
16460 3 
16461 1 
16633 1 
16634 3 
16635 1 
17482 1 
17483 2 
17484 1 
17713 1 
17714 3 
17715 1 
17716 1 
17717 3 
17718 1 
17722 1 
17723 3 
17724 1 
18379 1 
18380 2 
18381 1 
18493 1 
18494 3 
18495 1 
18502 1 
18503 3 
18504 1 
18556 1 
18557 2 
18558 1 
18616 1 
18617 3 
18618 1 
18619 1 
18620 3 
18621 1 
18733 1 
18734 3 
18735 1 
18739 1 
18740 3 
18741 1 
18853 1 
18854 3 
18855 1 
19456 1 
19457 3 
19458 1 
19516 1 
19517 3 
19518 1 
19636 1 
19637 3 
19638 1 
19693 1 
19694 3 
19695 1 
20536 1 
20537 3 
20538 1 
20539 1 
20540 2 
20541 1 
20602 1 
20603 3 
20604 1 
20713 1 
20714 3 
20715 1 
20836 1 
20837 3 
20838 1 
20842 1 
20843 3 
20844 1 
21022 1 
21023 3 
21024 1 
11365 1 
11366 2 
11367 1 
11428 1 
11429 3 
11430 1 
12091 1 
12092 3 
12093 1 
12145 1 
12146 2 
12147 1 
12154 1 
12155 3 
12156 1 
12325 1 
12326 3 
12327 1 
12334 1 
12335 3 
12336 1 
12391 1 
12392 3 
12393 1 
12454 1 
12455 3 
12456 1 
12574 1 
12575 2 
12576 1 
13225 1 
13226 3 
13227 1 
13345 1 
13346 2 
13347 1 
13465 1 
13466 3 
13467 1 
13591 1 
13592 3 
13593 1 
13594 1 
13595 2 
13596 1 
14248 1 
14249 3 
14250 1 
14251 1 
14252 3 
14253 1 
14545 1 
14546 3 
14547 1 
14548 1 
14549 3 
14550 1 
14608 1 
14609 3 
14610 1 
15334 1 
15335 2 
15336 1 
15505 1 
15506 2 
15507 1 
15508 1 
15509 3 
15510 1 
15634 1 
15635 2 
15636 1 
15748 1 
15749 2 
15750 1 
15754 1 
15755 3 
15756 1 
16345 1 
16346 3 
16347 1 
16408 1 
16409 3 
16410 1 
16528 1 
16529 3 
16530 1 
16531 1 
16532 2 
16533 1 
17491 1 
17492 2 
17493 1 
17608 1 
17609 3 
17610 1 
17611 1 
17612 3 
17613 1 
17665 1 
17666 3 
17667 1 
17725 1 
17726 3 
17727 1 
17788 1 
17789 3 
17790 1 
18394 1 
18395 3 
18396 1 
18451 1 
18452 3 
18453 1 
18628 1 
18629 2 
18630 1 
18691 1 
18692 3 
18693 1 
18808 1 
18809 2 
18810 1 
18874 1 
18875 3 
18876 1 
19465 1 
19466 2 
19467 1 
19474 1 
19475 3 
19476 1 
19708 1 
19709 3 
19710 1 
19714 1 
19715 2 
19716 1 
19825 1 
19826 3 
19827 1 
19831 1 
19832 3 
19833 1 
20671 1 
20672 3 
20673 1 
20728 1 
20729 3 
20730 1 
20788 1 
20789 2 
20790 1 
20854 1 
20855 3 
20856 1 
20908 1 
20909 3 
20910 1 
20968 1 
20969 3 
20970 1 
21025 1 
21026 2 
21027 1 
11260 1 
11261 3 
11262 1 
12166 1 
12167 2 
12168 1 
12286 1 
12287 3 
12288 1 
12337 1 
12338 3 
12339 1 
12403 1 
12404 3 
12405 1 
12520 1 
12521 3 
12522 1 
12583 1 
12584 3 
12585 1 
12640 1 
12641 3 
12642 1 
13180 1 
13181 2 
13182 1 
13186 1 
13187 3 
13188 1 
13246 1 
13247 3 
13248 1 
13363 1 
13364 3 
13365 1 
13417 1 
13418 3 
13419 1 
13420 1 
13421 2 
13422 1 
13546 1 
13547 3 
13548 1 
14260 1 
14261 3 
14262 1 
14263 1 
14264 3 
14265 1 
14266 1 
14267 2 
14268 1 
14377 1 
14378 3 
14379 1 
14380 1 
14381 3 
14382 1 
14386 1 
14387 2 
14388 1 
14446 1 
14447 3 
14448 1 
14506 1 
14507 3 
14508 1 
14617 1 
14618 2 
14619 1 
14626 1 
14627 3 
14628 1 
15337 1 
15338 3 
15339 1 
15520 1 
15521 3 
15522 1 
15577 1 
15578 3 
15579 1 
15580 1 
15581 3 
15582 1 
15586 1 
15587 3 
15588 1 
15646 1 
15647 3 
15648 1 
15700 1 
15701 3 
15702 1 
15763 1 
15764 3 
15765 1 
15766 1 
15767 3 
15768 1 
16366 1 
16367 2 
16368 1 
16486 1 
16487 3 
16488 1 
16663 1 
16664 3 
16665 1 
16717 1 
16718 2 
16719 1 
17326 1 
17327 3 
17328 1 
17386 1 
17387 3 
17388 1 
17560 1 
17561 3 
17562 1 
17797 1 
17798 3 
17799 1 
17806 1 
17807 3 
17808 1 
18400 1 
18401 3 
18402 1 
18403 1 
18404 2 
18405 1 
18406 1 
18407 3 
18408 1 
18586 1 
18587 3 
18588 1 
18826 1 
18827 3 
18828 1 
18880 1 
18881 2 
18882 1 
18886 1 
18887 3 
18888 1 
19537 1 
19538 3 
19539 1 
19606 1 
19607 3 
19608 1 
19666 1 
19667 3 
19668 1 
19843 1 
19844 3 
19845 1 
19906 1 
19907 3 
19908 1 
20620 1 
20621 3 
20622 1 
20857 1 
20858 3 
20859 1 
20860 1 
20861 3 
20862 1 
20923 1 
20924 3 
20925 1 
11215 1 
11216 3 
11217 1 
11329 1 
11330 3 
11331 1 
11332 1 
11333 3 
11334 1 
11338 1 
11339 3 
11340 1 
12175 1 
12176 3 
12177 1 
12178 1 
12179 2 
12180 1 
12418 1 
12419 3 
12420 1 
12475 1 
12476 3 
12477 1 
13252 1 
13253 3 
13254 1 
13255 1 
13256 3 
13257 1 
13315 1 
13316 3 
13317 1 
13375 1 
13376 3 
13377 1 
13492 1 
13493 3 
13494 1 
13498 1 
13499 3 
13500 1 
13558 1 
13559 3 
13560 1 
13618 1 
13619 3 
13620 1 
14332 1 
14333 3 
14334 1 
14335 1 
14336 3 
14337 1 
14572 1 
14573 2 
14574 1 
14632 1 
14633 3 
14634 1 
14695 1 
14696 3 
14697 1 
15418 1 
15419 3 
15420 1 
15535 1 
15536 3 
15537 1 
15589 1 
15590 3 
15591 1 
15595 1 
15596 3 
15597 1 
15652 1 
15653 3 
15654 1 
15712 1 
15713 2 
15714 1 
15715 1 
15716 3 
15717 1 
15778 1 
15779 3 
15780 1 
16549 1 
16550 3 
16551 1 
16675 1 
16676 3 
16677 1 
16735 1 
16736 2 
16737 1 
17329 1 
17330 3 
17331 1 
17509 1 
17510 3 
17511 1 
17575 1 
17576 3 
17577 1 
17578 1 
17579 3 
17580 1 
17749 1 
17750 3 
17751 1 
17755 1 
17756 3 
17757 1 
17818 1 
17819 3 
17820 1 
18415 1 
18416 2 
18417 1 
18469 1 
18470 3 
18471 1 
18649 1 
18650 3 
18651 1 
18832 1 
18833 2 
18834 1 
18835 1 
18836 2 
18837 1 
18898 1 
18899 3 
18900 1 
19489 1 
19490 3 
19491 1 
19552 1 
19553 2 
19554 1 
19615 1 
19616 2 
19617 1 
19678 1 
19679 3 
19680 1 
19729 1 
19730 3 
19731 1 
20632 1 
20633 3 
20634 1 
20638 1 
20639 3 
20640 1 
20692 1 
20693 3 
20694 1 
20695 1 
20696 3 
20697 1 
20698 1 
20699 2 
20700 1 
20752 1 
20753 3 
20754 1 
20755 1 
20756 3 
20757 1 
20812 1 
20813 2 
20814 1 
20815 1 
20816 3 
20817 1 
20875 1 
20876 2 
20877 1 
20929 1 
20930 3 
20931 1 
20935 1 
20936 3 
20937 1 
20992 1 
20993 3 
20994 1 
21052 1 
21053 2 
21054 1 
11581 1 
11582 3 
11583 1 
11647 1 
11648 3 
11649 1 
11827 1 
11828 3 
11829 1 
11947 1 
11948 2 
11949 1 
12007 1 
12008 2 
12009 1 
12724 1 
12725 3 
12726 1 
12730 1 
12731 3 
12732 1 
12781 1 
12782 3 
12783 1 
12847 1 
12848 3 
12849 1 
13621 1 
13622 2 
13623 1 
13624 1 
13625 3 
13626 1 
13690 1 
13691 3 
13692 1 
13741 1 
13742 3 
13743 1 
13750 1 
13751 2 
13752 1 
13864 1 
13865 3 
13866 1 
13921 1 
13922 3 
13923 1 
13981 1 
13982 3 
13983 1 
14050 1 
14051 2 
14052 1 
14164 1 
14165 3 
14166 1 
14821 1 
14822 3 
14823 1 
14824 1 
14825 3 
14826 1 
14830 1 
14831 3 
14832 1 
14881 1 
14882 3 
14883 1 
15121 1 
15122 3 
15123 1 
15130 1 
15131 3 
15132 1 
15850 1 
15851 3 
15852 1 
16024 1 
16025 3 
16026 1 
16027 1 
16028 3 
16029 1 
16030 1 
16031 3 
16032 1 
16204 1 
16205 3 
16206 1 
16261 1 
16262 2 
16263 1 
16807 1 
16808 3 
16809 1 
16861 1 
16862 3 
16863 1 
16870 1 
16871 3 
16872 1 
16927 1 
16928 3 
16929 1 
16981 1 
16982 3 
16983 1 
17044 1 
17045 3 
17046 1 
17047 1 
17048 3 
17049 1 
17110 1 
17111 2 
17112 1 
17221 1 
17222 3 
17223 1 
17947 1 
17948 3 
17949 1 
17950 1 
17951 3 
17952 1 
18001 1 
18002 3 
18003 1 
18004 1 
18005 3 
18006 1 
18010 1 
18011 2 
18012 1 
18061 1 
18062 3 
18063 1 
18067 1 
18068 3 
18069 1 
18124 1 
18125 2 
18126 1 
18127 1 
18128 3 
18129 1 
18247 1 
18248 3 
18249 1 
18250 1 
18251 3 
18252 1 
18907 1 
18908 2 
18909 1 
18961 1 
18962 3 
18963 1 
19327 1 
19328 3 
19329 1 
19390 1 
19391 3 
19392 1 
19924 1 
19925 2 
19926 1 
19930 1 
19931 2 
19932 1 
20107 1 
20108 3 
20109 1 
20284 1 
20285 3 
20286 1 
20287 1 
20288 3 
20289 1 
20344 1 
20345 3 
20346 1 
20350 1 
20351 3 
20352 1 
20464 1 
20465 3 
20466 1 
21061 1 
21062 3 
21063 1 
21124 1 
21125 3 
21126 1 
21184 1 
21185 2 
21186 1 
21241 1 
21242 3 
21243 1 
21247 1 
21248 3 
21249 1 
21487 1 
21488 3 
21489 1 
11773 1 
11774 3 
11775 1 
11779 1 
11780 2 
11781 1 
11782 1 
11783 3 
11784 1 
11953 1 
11954 3 
11955 1 
11962 1 
11963 2 
11964 1 
12013 1 
12014 3 
12015 1 
12673 1 
12674 3 
12675 1 
12739 1 
12740 3 
12741 1 
12793 1 
12794 3 
12795 1 
12802 1 
12803 3 
12804 1 
12856 1 
12857 2 
12858 1 
13633 1 
13634 3 
13635 1 
13693 1 
13694 3 
13695 1 
13699 1 
13700 3 
13701 1 
13813 1 
13814 3 
13815 1 
13822 1 
13823 3 
13824 1 
14839 1 
14840 2 
14841 1 
14842 1 
14843 3 
14844 1 
14893 1 
14894 3 
14895 1 
14956 1 
14957 3 
14958 1 
15082 1 
15083 3 
15084 1 
15139 1 
15140 2 
15141 1 
15193 1 
15194 2 
15195 1 
15196 1 
15197 3 
15198 1 
15253 1 
15254 3 
15255 1 
15262 1 
15263 3 
15264 1 
15856 1 
15857 2 
15858 1 
15916 1 
15917 3 
15918 1 
16033 1 
16034 2 
16035 1 
16093 1 
16094 3 
16095 1 
16213 1 
16214 3 
16215 1 
16816 1 
16817 3 
16818 1 
16822 1 
16823 2 
16824 1 
17002 1 
17003 3 
17004 1 
17053 1 
17054 3 
17055 1 
17056 1 
17057 3 
17058 1 
17122 1 
17123 3 
17124 1 
17836 1 
17837 3 
17838 1 
17839 1 
17840 2 
17841 1 
17842 1 
17843 2 
17844 1 
18013 1 
18014 3 
18015 1 
18019 1 
18020 3 
18021 1 
18022 1 
18023 3 
18024 1 
18076 1 
18077 3 
18078 1 
18193 1 
18194 3 
18195 1 
18196 1 
18197 2 
18198 1 
18202 1 
18203 3 
18204 1 
18262 1 
18263 3 
18264 1 
18922 1 
18923 3 
18924 1 
18976 1 
18977 3 
18978 1 
18979 1 
18980 3 
18981 1 
19033 1 
19034 3 
19035 1 
19096 1 
19097 2 
19098 1 
19219 1 
19220 3 
19221 1 
19402 1 
19403 3 
19404 1 
19936 1 
19937 3 
19938 1 
20002 1 
20003 2 
20004 1 
20053 1 
20054 3 
20055 1 
20122 1 
20123 3 
20124 1 
20182 1 
20183 3 
20184 1 
20239 1 
20240 3 
20241 1 
20242 1 
20243 3 
20244 1 
20359 1 
20360 2 
20361 1 
21136 1 
21137 3 
21138 1 
21253 1 
21254 3 
21255 1 
21433 1 
21434 3 
21435 1 
21493 1 
21494 3 
21495 1 
21556 1 
21557 3 
21558 1 
11548 1 
11549 3 
11550 1 
11551 1 
11552 3 
11553 1 
11611 1 
11612 3 
11613 1 
11965 1 
11966 2 
11967 1 
12025 1 
12026 3 
12027 1 
12031 1 
12032 3 
12033 1 
12034 1 
12035 3 
12036 1 
12688 1 
12689 3 
12690 1 
12694 1 
12695 3 
12696 1 
12871 1 
12872 3 
12873 1 
12925 1 
12926 3 
12927 1 
12988 1 
12989 2 
12990 1 
12994 1 
12995 3 
12996 1 
13105 1 
13106 3 
13107 1 
13708 1 
13709 3 
13710 1 
13771 1 
13772 2 
13773 1 
13831 1 
13832 3 
13833 1 
14071 1 
14072 3 
14073 1 
14788 1 
14789 3 
14790 1 
14794 1 
14795 3 
14796 1 
14974 1 
14975 3 
14976 1 
15085 1 
15086 2 
15087 1 
15094 1 
15095 3 
15096 1 
15145 1 
15146 3 
15147 1 
15265 1 
15266 2 
15267 1 
15268 1 
15269 3 
15270 1 
15871 1 
15872 3 
15873 1 
15874 1 
15875 3 
15876 1 
16285 1 
16286 2 
16287 1 
16288 1 
16289 3 
16290 1 
16825 1 
16826 3 
16827 1 
17008 1 
17009 2 
17010 1 
17011 1 
17012 3 
17013 1 
17065 1 
17066 3 
17067 1 
17245 1 
17246 3 
17247 1 
17254 1 
17255 3 
17256 1 
17974 1 
17975 3 
17976 1 
18031 1 
18032 3 
18033 1 
18034 1 
18035 3 
18036 1 
18088 1 
18089 2 
18090 1 
18328 1 
18329 3 
18330 1 
18925 1 
18926 2 
18927 1 
18931 1 
18932 2 
18933 1 
19048 1 
19049 3 
19050 1 
19051 1 
19052 3 
19053 1 
19105 1 
19106 2 
19107 1 
19171 1 
19172 2 
19173 1 
19285 1 
19286 3 
19287 1 
19288 1 
19289 2 
19290 1 
19408 1 
19409 3 
19410 1 
19951 1 
19952 3 
19953 1 
20014 1 
20015 2 
20016 1 
20125 1 
20126 3 
20127 1 
20368 1 
20369 3 
20370 1 
20431 1 
20432 3 
20433 1 
21205 1 
21206 3 
21207 1 
21574 1 
21575 3 
21576 1 
11623 1 
11624 2 
11625 1 
11866 1 
11867 3 
11868 1 
12037 1 
12038 3 
12039 1 
12757 1 
12758 3 
12759 1 
12877 1 
12878 2 
12879 1 
12940 1 
12941 3 
12942 1 
13063 1 
13064 3 
13065 1 
13900 1 
13901 3 
13902 1 
14140 1 
14141 3 
14142 1 
14797 1 
14798 2 
14799 1 
14860 1 
14861 2 
14862 1 
14863 1 
14864 3 
14865 1 
14866 1 
14867 3 
14868 1 
15043 1 
15044 3 
15045 1 
15103 1 
15104 3 
15105 1 
15106 1 
15107 2 
15108 1 
15160 1 
15161 3 
15162 1 
15166 1 
15167 3 
15168 1 
15217 1 
15218 3 
15219 1 
15223 1 
15224 3 
15225 1 
15226 1 
15227 3 
15228 1 
15283 1 
15284 3 
15285 1 
15817 1 
15818 3 
15819 1 
15943 1 
15944 3 
15945 1 
15997 1 
15998 3 
15999 1 
16003 1 
16004 3 
16005 1 
16057 1 
16058 3 
16059 1 
16066 1 
16067 3 
16068 1 
16120 1 
16121 3 
16122 1 
16177 1 
16178 3 
16179 1 
16180 1 
16181 3 
16182 1 
16183 1 
16184 3 
16185 1 
16186 1 
16187 3 
16188 1 
16237 1 
16238 2 
16239 1 
16297 1 
16298 3 
16299 1 
16837 1 
16838 3 
16839 1 
16963 1 
16964 3 
16965 1 
17023 1 
17024 3 
17025 1 
17140 1 
17141 3 
17142 1 
17200 1 
17201 3 
17202 1 
17263 1 
17264 3 
17265 1 
18100 1 
18101 2 
18102 1 
18223 1 
18224 3 
18225 1 
18283 1 
18284 2 
18285 1 
18343 1 
18344 3 
18345 1 
19063 1 
19064 3 
19065 1 
19117 1 
19118 3 
19119 1 
19177 1 
19178 2 
19179 1 
19237 1 
19238 3 
19239 1 
19300 1 
19301 3 
19302 1 
19366 1 
19367 2 
19368 1 
19420 1 
19421 2 
19422 1 
20023 1 
20024 3 
20025 1 
20086 1 
20087 3 
20088 1 
20266 1 
20267 3 
20268 1 
20323 1 
20324 3 
20325 1 
20383 1 
20384 3 
20385 1 
20386 1 
20387 3 
20388 1 
20443 1 
20444 3 
20445 1 
20446 1 
20447 3 
20448 1 
21160 1 
21161 3 
21162 1 
21277 1 
21278 3 
21279 1 
21523 1 
21524 3 
21525 1 
21586 1 
21587 3 
21588 1 
11578 1 
11579 2 
11580 1 
11635 1 
11636 3 
11637 1 
11692 1 
11693 3 
11694 1 
11758 1 
11759 3 
11760 1 
11812 1 
11813 3 
11814 1 