ITEM: TIMESTEP
60000000
ITEM: NUMBER OF ENTRIES
2986
ITEM: BOX BOUNDS pp pp pp
0 50
0 50
0 50
ITEM: ENTRIES c_binfo[1] c_binfo[2] c_binfo[3] 
2 457 458 
2 458 459 
3 15814 15815 
3 15815 15816 
3 19261 19262 
2 4318 4319 
1 4318 15816 
3 16889 16890 
3 16888 16889 
2 17474 17475 
3 14744 14745 
3 7133 7134 
1 7134 18612 
3 7132 7133 
3 16321 16322 
3 16322 16323 
3 14312 14313 
1 18057 20518 
3 14311 14312 
2 11887 11888 
1 11887 14311 
2 20518 20519 
2 15464 15465 
2 20519 20520 
3 1861 1862 
1 1863 20520 
3 1862 1863 
3 3403 3404 
1 3403 8866 
2 15463 15464 
3 3118 3119 
1 3118 15463 
3 3119 3120 
3 17923 17924 
3 17924 17925 
3 3404 3405 
3 8866 8867 
1 3405 11136 
3 8867 8868 
3 9127 9128 
1 9127 17923 
3 9128 9129 
3 1379 1380 
1 1380 9129 
3 19505 19506 
3 1378 1379 
1 1378 2682 
3 2681 2682 
3 2680 2681 
2 7433 7434 
2 7432 7433 
1 7432 16389 
2 17473 17474 
2 12665 12666 
2 12664 12665 
2 5606 5607 
2 19013 19014 
2 7541 7542 
1 7542 19014 
3 14743 14744 
2 7540 7541 
1 7540 14743 
2 20791 20792 
1 20791 21457 
2 21458 21459 
2 21457 21458 
2 9770 9771 
2 9769 9770 
1 4824 9769 
2 18611 18612 
2 4823 4824 
2 4822 4823 
1 4822 18610 
2 18610 18611 
2 16859 16860 
2 16858 16859 
1 16858 17050 
2 17050 17051 
3 328 329 
1 328 7251 
2 7250 7251 
3 329 330 
1 330 16323 
3 1757 1758 
2 1447 1448 
1 1447 1758 
3 1756 1757 
2 1366 1367 
1 1366 16761 
1 4587 16759 
3 16760 16761 
3 16759 16760 
3 4585 4586 
3 4586 4587 
2 12517 12518 
1 12517 15799 
2 15800 15801 
2 15799 15800 
2 6181 6182 
1 6181 12340 
2 17159 17160 
2 11888 11889 
2 6182 6183 
1 6183 11889 
2 18056 18057 
2 18055 18056 
2 14884 14885 
1 14884 18055 
2 14885 14886 
1 14886 17160 
2 2281 2282 
1 2281 13614 
1 15465 18765 
2 2282 2283 
2 18764 18765 
2 18763 18764 
1 2283 18763 
2 3464 3465 
2 1540 1541 
1 1540 8973 
1 3465 18817 
2 3463 3464 
1 3463 16788 
2 11134 11135 
2 8971 8972 
1 8971 11134 
2 8972 8973 
2 16786 16787 
1 16786 17925 
2 16787 16788 
2 15458 15459 
1 12930 15459 
2 11135 11136 
2 11380 11381 
3 12929 12930 
3 12928 12929 
1 12928 19506 
2 9502 9503 
2 9503 9504 
2 11131 11132 
1 11131 12486 
2 11132 11133 
2 12485 12486 
2 12484 12485 
1 12484 20793 
1 3246 16387 
2 16387 16388 
2 3245 3246 
2 3244 3245 
1 3244 15630 
2 16388 16389 
2 18947 18948 
2 18946 18947 
2 15985 15986 
1 15985 18946 
3 556 557 
1 556 18948 
1 558 12666 
3 557 558 
2 3871 3872 
1 3871 10749 
2 3872 3873 
1 3873 5605 
2 5605 5606 
2 13664 13665 
2 10748 10749 
2 10747 10748 
1 10747 20653 
2 19012 19013 
2 13807 13808 
1 13807 19012 
2 13808 13809 
2 13663 13664 
1 13663 13809 
1 7806 12342 
2 6233 6234 
2 20792 20793 
2 11248 11249 
1 2310 11248 
1 9771 14488 
1 6234 14490 
2 14489 14490 
2 14488 14489 
2 11249 11250 
2 17563 17564 
1 3315 17563 
2 3314 3315 
2 17051 17052 
2 2309 2310 
2 2308 2309 
1 2308 17052 
2 4730 4731 
2 4729 4730 
2 1276 1277 
1 1276 4729 
2 3313 3314 
1 3313 18819 
2 21118 21119 
2 15005 15006 
2 7249 7250 
1 15006 21118 
1 1278 7249 
2 1277 1278 
2 16190 16191 
2 15004 15005 
1 1449 15004 
2 21119 21120 
2 1448 1449 
2 5495 5496 
2 5494 5495 
1 5494 18531 
1 417 1033 
3 416 417 
3 415 416 
1 415 8400 
2 1033 1034 
2 8398 8399 
2 8399 8400 
2 7111 7112 
2 3283 3284 
1 3283 13848 
2 3284 3285 
1 3285 12519 
3 13847 13848 
2 12518 12519 
2 7804 7805 
1 7804 9597 
2 7805 7806 
2 12341 12342 
2 12340 12341 
2 17158 17159 
1 7614 17158 
2 7613 7614 
2 7612 7613 
1 7612 11229 
2 17392 17393 
2 11228 11229 
2 17816 17817 
2 7639 7640 
1 7639 17392 
2 7640 7641 
1 7641 13612 
2 13612 13613 
2 13613 13614 
2 18547 18548 
2 2530 2531 
1 2530 13398 
2 18818 18819 
2 9646 9647 
1 9646 18547 
2 18817 18818 
2 9647 9648 
2 338 339 
1 1542 9648 
2 1541 1542 
2 337 338 
1 337 14301 
2 13397 13398 
2 15457 15458 
1 15457 16792 
2 16792 16793 
1 9750 16191 
1 339 16794 
2 16793 16794 
2 5854 5855 
1 5854 13782 
2 13781 13782 
2 9749 9750 
2 5855 5856 
2 11381 11382 
2 1367 1368 
1 5856 11382 
2 9748 9749 
1 1368 9748 
2 9755 9756 
1 9756 11457 
2 9754 9755 
1 9754 10941 
2 11456 11457 
2 11455 11456 
3 14371 14372 
3 14372 14373 
1 10038 16051 
2 10037 10038 
2 10036 10037 
1 10036 14373 
2 15244 15245 
1 15244 16803 
2 15245 15246 
1 9504 15246 
2 17657 17658 
2 17656 17657 
1 2790 17656 
2 2789 2790 
2 2788 2789 
1 2788 11133 
2 5237 5238 
2 5236 5237 
1 5236 11824 
1 5238 15628 
2 11824 11825 
2 16802 16803 
2 15628 15629 
2 15629 15630 
2 21295 21296 
2 20629 20630 
1 20629 21295 
2 21296 21297 
2 20630 20631 
2 16801 16802 
2 16336 16337 
1 16336 16801 
2 8807 8808 
2 15986 15987 
1 15987 21297 
2 9331 9332 
2 4843 4844 
1 4843 9331 
2 4844 4845 
1 4845 8806 
2 8806 8807 
2 9332 9333 
1 3015 10309 
2 3014 3015 
2 10309 10310 
2 3013 3014 
2 10310 10311 
2 14792 14793 
2 14791 14792 
1 14791 20655 
2 20654 20655 
2 10402 10403 
1 10402 14793 
1 4626 15150 
2 20653 20654 
2 3164 3165 
2 4624 4625 
2 4625 4626 
1 3165 4624 
1 15909 19692 
2 3163 3164 
1 3163 13665 
2 19691 19692 
1 1023 15784 
2 15784 15785 
2 3950 3951 
2 6232 6233 
1 6232 10800 
2 1022 1023 
2 1021 1022 
1 1021 10798 
2 10798 10799 
2 10799 10800 
2 21358 21359 
2 3949 3950 
1 3949 14095 
2 14095 14096 
2 21359 21360 
2 1051 1052 
1 1051 21358 
1 3951 21202 
2 21202 21203 
2 21203 21204 
1 11250 21204 
2 1052 1053 
1 1053 17565 
2 17564 17565 
2 14810 14811 
2 14809 14810 
1 14809 17157 
1 4731 13384 
2 18788 18789 
2 9121 9122 
1 9121 18789 
2 9122 9123 
2 13384 13385 
2 13385 13386 
1 13386 14811 
2 3740 3741 
1 3741 4764 
2 18787 18788 
1 18787 21120 
2 3739 3740 
2 4763 4764 
2 4762 4763 
1 4762 16189 
2 16006 16007 
2 11218 11219 
1 11218 16006 
2 11219 11220 
2 16007 16008 
2 16189 16190 
1 11220 18529 
2 18529 18530 
2 11917 11918 
2 18530 18531 
2 6625 6626 
1 6625 11917 
2 6626 6627 
3 5129 5130 
2 6917 6918 
1 6918 10249 
2 6916 6917 
1 6916 7113 
2 7112 7113 
2 16885 16886 
2 5212 5213 
1 5212 16885 
2 5213 5214 
2 16886 16887 
2 15907 15908 
2 9595 9596 
1 9595 15907 
2 15908 15909 
2 9596 9597 
1 5214 13846 
3 13846 13847 
1 6432 16815 
2 16814 16815 
2 6431 6432 
1 13566 13980 
2 13565 13566 
2 16813 16814 
2 11227 11228 
1 11227 16813 
2 18085 18086 
2 17393 17394 
2 18086 18087 
1 17394 18087 
1 16905 18085 
2 13979 13980 
2 13564 13565 
1 13564 17815 
2 17815 17816 
2 18548 18549 
2 20476 20477 
2 14017 14018 
1 14017 20476 
2 14018 14019 
1 14019 18549 
2 8554 8555 
2 3991 3992 
1 3991 8554 
2 5884 5885 
2 1012 1013 
1 1012 5884 
2 20477 20478 
2 3992 3993 
2 5885 5886 
1 3993 14299 
2 14300 14301 
2 14299 14300 
2 3467 3468 
1 555 3468 
2 3466 3467 
1 3466 18025 
1 2532 5886 
2 2531 2532 
1 7740 11934 
2 554 555 
1 18639 19275 
2 19274 19275 
2 553 554 
1 553 13780 
2 13780 13781 
2 11933 11934 
2 19273 19274 
2 10939 10940 
1 10939 19273 
2 7739 7740 
2 13367 13368 
2 16052 16053 
1 6627 13368 
1 7122 16329 
2 10940 10941 
2 7121 7122 
2 7120 7121 
1 7120 16053 
2 13366 13367 
2 16051 16052 
2 1034 1035 
1 1035 13366 
2 14651 14652 
2 14650 14651 
2 3413 3414 
2 11398 11399 
2 11399 11400 
2 8018 8019 
2 9880 9881 
1 9880 13587 
2 9881 9882 
2 8017 8018 
2 14615 14616 
1 9882 13249 
2 13249 13250 
1 1596 14614 
2 13250 13251 
1 13251 17658 
2 14614 14615 
2 1595 1596 
2 1789 1790 
1 1789 13647 
1 3414 17352 
2 17351 17352 
2 17350 17351 
1 16338 17350 
2 16337 16338 
2 1594 1595 
1 1594 11826 
2 11825 11826 
1 1791 16765 
2 16765 16766 
2 1790 1791 
2 4391 4392 
2 16766 16767 
2 4390 4391 
1 2025 4390 
1 16767 20631 
2 2024 2025 
2 2023 2024 
1 2023 8808 
2 7742 7743 
2 7741 7742 
1 7741 16174 
1 7743 17086 
2 16174 16175 
2 17086 17087 
2 17087 17088 
1 9123 17088 
2 8063 8064 
2 8062 8063 
3 6011 6012 
1 6012 8062 
3 6010 6011 
1 6010 10311 
2 20201 20202 
1 3273 20200 
2 3272 3273 
2 3271 3272 
1 3271 10404 
2 20200 20201 
2 15275 15276 
2 10403 10404 
2 14429 14430 
1 7707 14430 
2 14428 14429 
1 14428 15148 
2 15148 15149 
2 15149 15150 
2 19690 19691 
2 3575 3576 
1 3576 19690 
2 3574 3575 
1 3574 15276 
1 6576 13429 
2 9115 9116 
1 9115 16107 
2 13429 13430 
2 16106 16107 
2 16105 16106 
1 15786 16105 
2 15785 15786 
2 7748 7749 
2 7292 7293 
2 13430 13431 
2 7747 7748 
2 6214 6215 
1 6214 7747 
1 13431 14097 
2 6215 6216 
2 14096 14097 
1 6216 21360 
1 687 7419 
2 686 687 
2 12295 12296 
1 9009 12295 
2 17156 17157 
2 17155 17156 
2 685 686 
1 685 17155 
2 9008 9009 
2 7291 7292 
1 7291 20040 
1 1590 3739 
2 9007 9008 
2 13088 13089 
2 1588 1589 
1 1588 9007 
2 1589 1590 
2 13087 13088 
1 5814 13087 
2 5813 5814 
2 9335 9336 
2 21020 21021 
2 5812 5813 
1 5812 16008 
2 5906 5907 
2 5905 5906 
1 5905 11919 
1 5907 21021 
2 11918 11919 
1 1641 10512 
2 1640 1641 
2 1639 1640 
1 1639 13735 
2 13735 13736 
2 13736 13737 
3 5128 5129 
1 5128 13737 
2 10249 10250 
3 20306 20307 
2 10250 10251 
3 20305 20306 
1 10251 20305 
2 167 168 
2 166 167 
1 166 7867 
2 7867 7868 
2 4265 4266 
2 7868 7869 
1 7869 16887 
2 4264 4265 
1 4264 13234 
2 13234 13235 
2 1166 1167 
2 13235 13236 
2 4379 4380 
2 6430 6431 
1 6430 13236 
2 1165 1166 
1 1165 6184 
1 4380 17538 
1 6186 16903 
2 6184 6185 
2 6185 6186 
2 16903 16904 
2 17537 17538 
2 13978 13979 
1 13978 17536 
2 16904 16905 
2 4958 4959 
2 4957 4958 
1 4957 7587 
2 7586 7587 
2 7585 7586 
1 7585 20478 
2 17536 17537 
1 3267 10345 
2 20039 20040 
2 8555 8556 
2 10345 10346 
1 8556 20038 
1 1014 5221 
2 5222 5223 
2 10346 10347 
2 20038 20039 
2 1013 1014 
1 2529 5223 
2 5221 5222 
2 18025 18026 
2 4313 4314 
2 18026 18027 
2 8945 8946 
1 9336 19611 
2 19610 19611 
1 4314 8946 
1 10347 18027 
2 8944 8945 
1 8944 11749 
1 13320 18892 
2 18637 18638 
1 18637 19609 
2 13318 13319 
1 13318 16327 
2 18638 18639 
2 13319 13320 
2 16327 16328 
2 11932 11933 
2 19609 19610 
2 4312 4313 
1 4312 11932 
2 18892 18893 
2 16427 16428 
2 16426 16427 
2 14908 14909 
1 14908 19756 
1 14910 16426 
2 16328 16329 
2 14909 14910 
1 14652 16428 
2 12638 12639 
2 12637 12638 
2 11317 11318 
1 11317 12637 
2 11318 11319 
2 3412 3413 
1 3412 12639 
2 8122 8123 
1 8122 15978 
1 8250 18942 
3 18941 18942 
3 8249 8250 
3 13841 13842 
3 13840 13841 
2 6877 6878 
1 6877 18501 
2 18500 18501 
2 19385 19386 
2 19384 19385 
2 6878 6879 
1 6879 13585 
2 13585 13586 
2 13586 13587 
2 6691 6692 
2 6692 6693 
1 6693 20928 
1 1545 6691 
1 15201 21147 
2 20927 20928 
2 21146 21147 
2 21145 21146 
2 1544 1545 
2 20489 20490 
1 15000 20490 
2 14999 15000 
2 20488 20489 
2 13645 13646 
1 13645 20488 
2 1543 1544 
1 1543 14616 
2 8123 8124 
1 8124 13933 
2 13933 13934 
2 13934 13935 
2 13646 13647 
2 17680 17681 
2 2989 2990 
1 2989 17680 
2 2990 2991 
2 17681 17682 
1 2991 16176 
1 4392 13935 
2 16175 16176 
2 4682 4683 
1 1461 4683 
2 4681 4682 
1 4681 4939 
2 1460 1461 
2 4939 4940 
2 1459 1460 
1 1459 8064 
3 8248 8249 
1 8248 19003 
2 19003 19004 
2 19004 19005 
2 7757 7758 
1 7758 10080 
2 10079 10080 
2 10078 10079 
2 7705 7706 
1 7705 10078 
2 6886 6887 
1 6886 12061 
2 6893 6894 
2 12061 12062 
2 7706 7707 
2 4168 4169 
1 4168 20202 
2 14297 14298 
2 14296 14297 
1 14296 19438 
2 19438 19439 
2 19439 19440 
1 9117 19440 
1 6894 15274 
2 15274 15275 
2 12139 12140 
1 12139 15498 
2 9116 9117 
2 12140 12141 
2 15199 15200 
2 15200 15201 
2 6574 6575 
1 6574 15199 
2 8674 8675 
1 8674 12141 
2 8675 8676 
1 7749 8676 
2 4787 4788 
2 4786 4787 
1 4786 14599 
2 14599 14600 
1 3087 14367 
2 6575 6576 
2 3086 3087 
2 3085 3086 
1 3085 18813 
2 14600 14601 
2 3229 3230 
1 3229 11391 
2 7417 7418 
1 7417 14601 
2 18812 18813 
2 11390 11391 
2 18811 18812 
2 3230 3231 
1 7293 18811 
2 7418 7419 
2 12296 12297 
2 12502 12503 
2 11728 11729 
1 11728 12502 
2 11729 11730 
1 3231 12297 
2 12917 12918 
2 12916 12917 
2 3553 3554 
1 3553 12916 
1 5052 11730 
1 8475 12918 
2 12503 12504 
2 9334 9335 
2 5051 5052 
2 8474 8475 
2 10567 10568 
2 6866 6867 
1 6867 10567 
2 10568 10569 
2 8473 8474 
1 8473 9334 
2 6865 6866 
1 6865 21019 
2 21019 21020 
2 17378 17379 
1 10569 13284 
2 5050 5051 
1 5050 13089 
2 10511 10512 
2 8747 8748 
1 8748 10510 
2 10510 10511 
2 8746 8747 
1 8746 10246 
2 10246 10247 
2 10247 10248 
2 6887 6888 
1 6888 6892 
2 6892 6893 
1 8241 13908 
2 15956 15957 
2 8240 8241 
2 8239 8240 
1 168 8239 
2 5614 5615 
1 5614 15957 
2 15955 15956 
2 5728 5729 
1 5728 15955 
1 20253 20580 
2 20252 20253 
2 5729 5730 
2 19046 19047 
2 19045 19046 
2 20579 20580 
2 12271 12272 
1 12271 19045 
2 20251 20252 
1 4266 5730 
2 20578 20579 
2 2041 2042 
1 2041 19047 
1 1167 20578 
2 2042 2043 
2 21475 21476 
2 7879 7880 
1 7879 21475 
2 7880 7881 
2 21476 21477 
1 2043 4378 
2 11038 11039 
1 11038 21477 
2 4378 4379 
2 2528 2529 
2 14360 14361 
2 14359 14360 
2 2527 2528 
1 2527 14359 
1 9273 14361 
2 10588 10589 
1 10588 17821 
2 9272 9273 
2 17821 17822 
2 10589 10590 
2 5690 5691 
1 4959 7881 
2 18728 18729 
2 5689 5690 
1 5689 8461 
2 17822 17823 
2 3265 3266 
1 3265 17823 
2 3266 3267 
2 1388 1389 
2 1387 1388 
1 1387 11586 
2 8461 8462 
1 8463 18729 
2 8462 8463 
1 1389 11751 
2 11749 11750 
2 11750 11751 
2 5563 5564 
1 5563 17379 
1 2793 9670 
2 9670 9671 
2 5564 5565 
2 2792 2793 
2 2791 2792 
1 2791 3064 
2 17377 17378 
2 3064 3065 
1 5565 18894 
1 15675 19758 
2 15674 15675 
2 15673 15674 
1 15673 16977 
2 16976 16977 
1 9672 14125 
2 18893 18894 
2 9671 9672 
2 19756 19757 
2 19757 19758 
2 14110 14111 
2 7051 7052 
1 7051 11319 
2 7052 7053 
2 15206 15207 
2 15205 15206 
1 15207 21291 
2 15977 15978 
2 21289 21290 
2 15976 15977 
1 15976 21289 
2 8641 8642 
1 8641 13842 
2 8642 8643 
3 18940 18941 
1 14112 17698 
3 17698 17699 
3 17699 17700 
2 12458 12459 
2 18499 18500 
2 12457 12458 
1 12457 18499 
1 17700 20926 
2 1718 1719 
1 1719 13123 
2 13123 13124 
2 14111 14112 
2 20926 20927 
1 5985 11344 
2 11344 11345 
2 5984 5985 
2 11345 11346 
2 5983 5984 
1 5983 14998 
2 13124 13125 
1 13125 21145 
2 21290 21291 
2 14998 14999 
2 4688 4689 
1 4689 20022 
2 4687 4688 
1 4687 8929 
2 8929 8930 
2 20021 20022 
2 7307 7308 
2 20020 20021 
2 4940 4941 
1 17682 20020 
2 8525 8526 
2 8524 8525 
1 7308 8524 
1 4941 8526 
2 5485 5486 
1 5485 12600 
2 5486 5487 
1 5487 6714 
2 21392 21393 
2 1717 1718 
1 1717 7764 
1 2718 14298 
2 2716 2717 
1 2716 21391 
2 2717 2718 
2 21391 21392 
3 11479 11480 
1 11479 18814 
2 12062 12063 
2 18814 18815 
1 1833 8880 
2 1832 1833 
2 18815 18816 
2 15497 15498 
2 15496 15497 
1 15496 18816 
1 4788 16603 
2 16603 16604 
2 583 584 
1 583 4707 
2 1831 1832 
1 1831 16605 
2 16604 16605 
2 12233 12234 
1 585 14365 
2 584 585 
2 14365 14366 
2 14366 14367 
1 12234 18541 
2 18541 18542 
2 12232 12233 
1 7608 12232 
2 11389 11390 
2 12599 12600 
2 12598 12599 
1 12504 12598 
2 7606 7607 
1 7606 11389 
2 7607 7608 
2 19057 19058 
1 15378 19057 
2 15377 15378 
2 19058 19059 
2 15376 15377 
1 3555 15376 
2 3554 3555 
2 9989 9990 
1 9990 13282 
2 13282 13283 
2 13283 13284 
2 9988 9989 
1 9988 10267 
2 10267 10268 
2 17885 17886 
2 17884 17885 
1 11640 17884 
2 16855 16856 
2 10840 10841 
1 10840 16855 
2 16856 16857 
1 10248 16857 
2 10841 10842 
2 5615 5616 
2 17794 17795 
2 15367 15368 
1 15367 17794 
2 17795 17796 
1 1365 5616 
2 4510 4511 
2 793 794 
1 793 4510 
2 2119 2120 
1 2119 17796 
2 1364 1365 
2 794 795 
2 15368 15369 
2 1363 1364 
1 2121 20251 
2 2120 2121 
1 795 12273 
2 18526 18527 
1 11040 18526 
2 18527 18528 
2 12272 12273 
2 913 914 
1 913 18528 
2 914 915 
2 4262 4263 
2 4261 4262 
1 4261 13005 
2 11039 11040 
2 9271 9272 
1 9271 10866 
2 10864 10865 
1 10864 15744 
2 10865 10866 
2 15743 15744 
2 5360 5361 
2 15742 15743 
1 5361 15415 
2 15415 15416 
2 15416 15417 
1 4809 5691 
2 4808 4809 
2 4807 4808 
2 2368 2369 
1 2368 4807 
1 10590 15417 
2 16879 16880 
1 16879 17892 
2 2369 2370 
2 17891 17892 
2 2294 2295 
2 8186 8187 
2 2293 2294 
1 2293 8187 
2 16880 16881 
1 4251 17886 
2 11585 11586 
2 11584 11585 
1 11584 16881 
2 18311 18312 
2 2233 2234 
1 2233 18312 
2 8692 8693 
2 643 644 
1 643 8694 
2 4249 4250 
1 4249 17377 
2 18310 18311 
1 3066 18310 
2 4250 4251 
2 3065 3066 
2 19426 19427 
2 19427 19428 
2 17737 17738 
1 17737 19426 
2 17738 17739 
1 8955 17739 
2 8693 8694 
1 267 8692 
2 16975 16976 
1 16975 19428 
3 1333 1334 
1 1333 14110 
3 1334 1335 
2 2605 2606 
1 2605 19039 
2 19039 19040 
3 19597 19598 
3 19598 19599 
2 18463 18464 
1 18463 19599 
2 6394 6395 
1 6394 7762 
2 376 377 
1 376 18645 
2 10061 10062 
2 7762 7763 
2 6395 6396 
2 377 378 
2 18118 18119 
2 18119 18120 
1 378 18118 
1 8931 18120 
2 8930 8931 
2 7306 7307 
2 6871 6872 
1 6871 7306 
2 5282 5283 
2 19040 19041 
2 6872 6873 
1 6873 19041 
2 16253 16254 
2 16252 16253 
2 6712 6713 
1 6712 16254 
1 5283 16252 
2 6713 6714 
2 18464 18465 
1 3861 13296 
2 13295 13296 
2 13294 13295 
1 13294 21456 
2 12236 12237 
1 10062 15468 
3 11480 11481 
2 7763 7764 
1 8199 12237 
2 8198 8199 
2 8197 8198 
1 8197 11481 
2 8879 8880 
2 15467 15468 
2 15466 15467 
2 8878 8879 
1 8878 15466 
2 6317 6318 
2 4706 4707 
2 6316 6317 
1 6316 8145 
2 1690 1691 
1 1690 7090 
2 4705 4706 
1 4705 8143 
2 8144 8145 
2 8143 8144 
2 7090 7091 
2 1691 1692 
2 7091 7092 
2 2653 2654 
1 2653 16278 
1 1692 18543 
2 16277 16278 
2 18542 18543 
2 20093 20094 
2 7372 7373 
1 7372 20094 
2 20092 20093 
2 16276 16277 
2 15136 15137 
1 15136 20092 
2 7373 7374 
2 4255 4256 
1 4255 16276 
2 4256 4257 
2 21455 21456 
2 21454 21455 
1 10269 21454 
1 7374 19059 
2 9730 9731 
2 487 488 
1 487 9730 
2 488 489 
2 9731 9732 
1 489 11638 
2 12776 12777 
2 10268 10269 
2 11638 11639 
2 13264 13265 
2 13265 13266 
1 9834 13264 
2 9833 9834 
2 11639 11640 
2 9832 9833 
1 9832 10842 
1 12777 13266 
2 4511 4512 
1 6507 18244 
2 6461 6462 
1 4512 6462 
2 5641 5642 
1 5641 19720 
2 19721 19722 
2 19720 19721 
2 5642 5643 
2 18244 18245 
2 6506 6507 
2 18245 18246 
2 6460 6461 
1 6460 7239 
2 13003 13004 
1 915 19722 
1 5259 6633 
2 6632 6633 
2 6631 6632 
2 6013 6014 
1 6013 6631 
2 5258 5259 
2 5257 5258 
1 5257 15742 
2 6505 6506 
1 6505 13003 
2 13004 13005 
2 5359 5360 
1 4257 5359 
2 11423 11424 
2 11422 11423 
2 9685 9686 
1 9687 11422 
2 9686 9687 
2 13976 13977 
1 11424 17248 
1 2370 9685 
2 13975 13976 
1 13975 18180 
2 17248 17249 
1 2295 21099 
2 21098 21099 
2 21097 21098 
2 17890 17891 
2 7027 7028 
1 7027 17890 
2 7028 7029 
1 7029 13977 
2 9955 9956 
1 8052 9955 
2 6023 6024 
1 6024 21097 
3 8051 8052 
1 9159 16062 
2 8704 8705 
1 8704 10815 
2 9956 9957 
2 9158 9159 
2 9157 9158 
2 8953 8954 
1 8953 9157 
2 2234 2235 
1 2235 9957 
2 8705 8706 
2 8954 8955 
2 266 267 
2 265 266 
1 265 8706 
2 2606 2607 
2 9745 9746 
1 9745 15033 
2 10060 10061 
1 9747 10060 
2 18643 18644 
2 18644 18645 
2 4432 4433 
2 4433 4434 
1 3777 4434 
2 9746 9747 
1 7110 14566 
2 14566 14567 
2 3776 3777 
2 14567 14568 
2 3392 3393 
1 3393 5281 
2 3391 3392 
1 3391 14568 
2 5281 5282 
2 16499 16500 
2 1306 1307 
1 1306 18465 
2 16498 16499 
2 1307 1308 
1 13356 16498 
2 13354 13355 
2 13355 13356 
2 3859 3860 
1 3859 13354 
2 3860 3861 
1 1725 13698 
2 1723 1724 
1 1723 7993 
2 7993 7994 
2 1724 1725 
1 6318 16758 
2 836 837 
2 835 836 
1 835 16756 
2 16757 16758 
2 16756 16757 
1 9090 21561 
2 3775 3776 
1 3775 7092 
2 21560 21561 
2 21559 21560 
1 2655 21559 
2 18191 18192 
2 13855 13856 
1 13855 18192 
2 2654 2655 
2 5356 5357 
2 18190 18191 
2 13856 13857 
1 2577 5356 
2 9089 9090 
2 5357 5358 
1 15138 18190 
2 15137 15138 
2 8810 8811 
2 8809 8810 
1 8809 11298 
1 8811 15598 
2 2576 2577 
2 2575 2576 
1 2575 18178 
2 18178 18179 
2 7994 7995 
1 7995 12775 
2 12775 12776 
2 11297 11298 
1 9732 11296 
2 11296 11297 
2 6058 6059 
1 6058 17167 
3 17167 17168 
3 17168 17169 
2 16060 16061 
1 16060 17169 
2 16061 16062 
3 11491 11492 
1 1755 11491 
2 1754 1755 
3 11492 11493 
2 1753 1754 
1 1753 6015 
1 11493 13725 
2 6014 6015 
2 10109 10110 
1 10110 17250 
2 10108 10109 
1 7188 10108 
2 17249 17250 
2 18179 18180 
2 14008 14009 
2 14009 14010 
2 6073 6074 
1 6073 14010 
2 6074 6075 
2 20528 20529 
3 6298 6299 
1 6298 20527 
2 20527 20528 
1 13962 14008 
2 8200 8201 
3 3895 3896 
1 3895 8200 
2 6022 6023 
1 6022 6075 
1 2898 20529 
3 8050 8051 
2 2896 2897 
1 2896 8050 
2 2897 2898 
3 3896 3897 
1 18987 19660 
2 10814 10815 
2 10813 10814 
1 10813 19662 
2 19660 19661 
2 19661 19662 
3 7109 7110 
3 7108 7109 
2 19588 19589 
1 16500 19588 
2 19589 19590 
2 11498 11499 
3 13696 13697 
3 13697 13698 
1 11499 15600 
1 12357 13857 
2 12355 12356 
2 12356 12357 
3 2128 2129 
1 2128 3351 
2 3350 3351 
2 9088 9089 
2 3349 3350 
1 3349 9088 
3 2129 2130 
2 4778 4779 
2 6835 6836 
2 11497 11498 
2 4777 4778 
1 4777 11497 
1 5358 6837 
2 6836 6837 
3 15598 15599 
3 15599 15600 
3 12964 12965 
3 12965 12966 
2 6059 6060 
1 6060 12966 
3 3398 3399 
3 3397 3398 
1 3397 11313 
3 11312 11313 
3 11311 11312 
2 7186 7187 
1 7186 11311 
3 10654 10655 
1 10654 14206 
2 7187 7188 
3 14207 14208 
3 14206 14207 
2 13960 13961 
1 13960 14208 
2 13961 13962 
3 6299 6300 
3 5087 5088 
3 5086 5087 
1 5086 13039 
3 13039 13040 
3 18986 18987 
3 173 174 
3 172 173 
1 172 18985 
3 18985 18986 
1 3897 13041 
3 13040 13041 
3 541 542 
1 541 4779 
1 543 19857 
3 542 543 
3 19855 19856 
1 459 19855 
3 10655 10656 
3 19856 19857 
2 6361 6362 
2 19477 19478 
3 11446 11447 
1 11446 19477 
3 11447 11448 
3 7898 7899 
3 7897 7898 
3 11437 11438 
2 2947 2948 
1 2947 18303 
2 2948 2949 
2 18302 18303 
1 4464 9366 
2 4463 4464 
1 6363 18301 
2 6362 6363 
2 18301 18302 
2 9365 9366 
3 19510 19511 
2 9364 9365 
1 9364 19512 
3 19511 19512 
3 15022 15023 
1 4725 15022 
2 20327 20328 
1 12537 20328 
3 14155 14156 
3 12536 12537 
1 7899 12535 
3 12535 12536 
3 743 744 
1 744 17136 
3 14156 14157 
3 17135 17136 
3 17134 17135 
3 15382 15383 
1 15382 21232 
3 21232 21233 
3 21233 21234 
3 15383 15384 
3 19504 19505 
3 20270 20271 
2 19478 19479 
1 1038 19479 
2 1037 1038 
2 1036 1037 
1 1036 20271 
3 18431 18432 
3 18430 18431 
1 5721 18430 
3 4759 4760 
1 4759 14400 
3 17548 17549 
3 17549 17550 
3 5720 5721 
1 14157 15024 
3 15023 15024 
3 5719 5720 
1 5719 17550 
1 4602 5755 
3 5755 5756 
3 4601 4602 
3 4600 4601 
1 4600 11439 
3 19702 19703 
3 19703 19704 
3 10397 10398 
3 10396 10397 
1 10396 19704 
1 10398 14800 
3 19043 19044 
3 9451 9452 
1 9451 19044 
3 9452 9453 
1 5391 9531 
2 9530 9531 
2 9529 9530 
3 4760 4761 
1 4761 8983 
3 8983 8984 
3 11438 11439 
3 8984 8985 
3 19583 19584 
3 19582 19583 
1 19582 20626 
3 6307 6308 
1 6307 19702 
3 6308 6309 
3 1204 1205 
1 1204 21420 
3 21418 21419 
3 21419 21420 
1 2949 19921 
2 8264 8265 
2 19922 19923 
3 3394 3395 
1 3394 6282 
2 3710 3711 
2 3709 3710 
1 3396 3709 
3 3395 3396 
2 923 924 
2 19921 19922 
2 8263 8264 
1 8263 19923 
2 6842 6843 
1 6843 16438 
1 924 2416 
2 2416 2417 
1 2418 4462 
2 4462 4463 
2 2417 2418 
2 1075 1076 
1 1075 15444 
2 1076 1077 
2 16439 16440 
2 16438 16439 
2 15443 15444 
2 12361 12362 
1 12361 20326 
2 20326 20327 
2 4724 4725 
1 12363 16440 
2 12362 12363 
2 15442 15443 
2 4723 4724 
1 4723 15442 
1 2973 16594 
2 16594 16595 
2 16595 16596 
1 13875 16596 
2 2972 2973 
2 2971 2972 
2 14462 14463 
3 742 743 
1 742 18106 
2 5705 5706 
1 5706 19231 
2 19231 19232 
2 18106 18107 
2 18107 18108 
2 14461 14462 
1 14461 18108 
2 5704 5705 
1 5704 19846 
2 18785 18786 
2 19232 19233 
2 13396 13397 
1 13396 14463 
1 5508 18786 
2 5507 5508 
2 5506 5507 
1 5506 15384 
3 20269 20270 
1 3711 20269 
3 6148 6149 
1 6150 7395 
3 6149 6150 
2 21367 21368 
2 19424 19425 
1 17235 21367 
2 21368 21369 
1 2481 18432 
2 2479 2480 
1 2479 19425 
2 2480 2481 
3 14399 14400 
3 14398 14399 
1 14398 21369 
2 2824 2825 
2 2825 2826 
1 2664 2824 
3 5756 5757 
3 2663 2664 
3 2662 2663 
1 2662 5757 
2 17068 17069 
2 15214 15215 
1 15214 17068 
2 15215 15216 
1 14802 15216 
1 18597 20064 
2 20063 20064 
3 14801 14802 
3 14800 14801 
3 19042 19043 
1 19042 19233 
2 16123 16124 
3 6965 6966 
1 3912 16123 
3 3911 3912 
3 3910 3911 
1 3910 6966 
3 6964 6965 
3 15757 15758 
3 5390 5391 
2 13868 13869 
2 13867 13868 
1 13395 13867 
3 13394 13395 
3 13393 13394 
3 5389 5390 
1 5389 13393 
3 15758 15759 
3 11239 11240 
3 17093 17094 
3 17092 17093 
1 17092 20628 
1 17094 17970 
3 18596 18597 
3 18595 18596 
1 1206 18595 
3 20627 20628 
3 20626 20627 
3 1205 1206 
2 4936 4937 
2 2719 2720 
1 2719 4675 
2 9610 9611 
1 9610 16914 
1 6939 16912 
3 16912 16913 
2 6280 6281 
1 6280 14437 
2 14437 14438 
2 14438 14439 
1 9291 14439 
2 6281 6282 
2 6938 6939 
2 6937 6938 
1 6937 8265 
3 16913 16914 
2 4540 4541 
1 4540 13569 
2 922 923 
2 4675 4676 
2 46 47 
1 46 922 
2 4676 4677 
1 48 4677 
2 2384 2385 
2 47 48 
2 2383 2384 
1 2383 12138 
2 6841 6842 
1 6841 17817 
2 2627 2628 
2 15446 15447 
1 2628 19378 
2 19378 19379 
2 19379 19380 
1 1077 12136 
2 12136 12137 
2 12137 12138 
1 15447 21048 
2 21047 21048 
2 15001 15002 
1 15001 17467 
2 13873 13874 
1 13873 19380 
2 13874 13875 
2 8905 8906 
1 8905 10416 
2 10414 10415 
1 10414 19848 
2 19847 19848 
2 10415 10416 
2 17467 17468 
1 801 3318 
2 19846 19847 
2 18784 18785 
2 7679 7680 
2 7678 7679 
1 7678 18784 
1 7680 17469 
2 17468 17469 
2 16898 16899 
2 7738 7739 
1 7738 9798 
2 3317 3318 
2 3316 3317 
1 3316 7404 
3 5975 5976 
2 9797 9798 
1 5976 8659 
3 8659 8660 
2 9796 9797 
2 1040 1041 
2 15611 15612 
2 16897 16898 
1 15612 16897 
2 1039 1040 
1 1039 9796 
2 15610 15611 
1 15610 15759 
2 11080 11081 
3 8660 8661 
2 4721 4722 
1 4722 20556 
2 4720 4721 
1 4720 7393 
2 7394 7395 
2 7393 7394 
2 20555 20556 
2 19423 19424 
2 13568 13569 
2 2248 2249 
1 2248 13567 
2 13567 13568 
2 17234 17235 
1 2250 19423 
2 2249 2250 
2 17233 17234 
2 4063 4064 
1 4063 17233 
2 4064 4065 
1 4065 16446 
2 15656 15657 
1 2826 3771 
2 3770 3771 
2 15655 15656 
2 3769 3770 
1 3769 15655 
2 7229 7230 
2 7228 7229 
1 7228 12555 
2 12554 12555 
2 13412 13413 
2 17069 17070 
2 21046 21047 
1 17070 21046 
2 17539 17540 
1 3204 17539 
2 20062 20063 
2 12553 12554 
1 12553 20062 
2 3203 3204 
2 3202 3203 
1 3202 16125 
2 17540 17541 
1 6156 17866 
2 20920 20921 
2 16124 16125 
2 7403 7404 
2 7402 7403 
1 7402 13869 
2 1720 1721 
1 1720 4938 
1 1722 20920 
2 1721 1722 
2 17866 17867 
2 17867 17868 
1 17868 18673 
3 18673 18674 
3 18674 18675 
1 11241 18675 
2 7889 7890 
1 7890 15841 
3 11240 11241 
2 7888 7889 
1 597 17179 
2 17179 17180 
1 978 9328 
2 595 596 
1 595 17968 
2 17968 17969 
2 596 597 
2 17969 17970 
2 977 978 
2 976 977 
1 976 12508 
2 12508 12509 
1 8163 13413 
2 8162 8163 
2 8161 8162 
2 12509 12510 
1 3612 9073 
2 3611 3612 
2 4937 4938 
2 3610 3611 
2 9073 9074 
1 10683 20514 
3 10681 10682 
3 10682 10683 
2 20513 20514 
1 6915 14977 
2 14977 14978 
2 6914 6915 
2 6913 6914 
2 14978 14979 
1 14979 19071 
2 1093 1094 
1 1093 14469 
2 14468 14469 
2 14467 14468 
1 9612 21538 
2 10381 10382 
1 10381 21540 
2 21539 21540 
2 21538 21539 
2 9611 9612 
2 9289 9290 
1 9289 14467 
2 16483 16484 
2 16484 16485 
1 2721 16485 
2 3616 3617 
1 3616 4542 
2 1312 1313 
1 1312 16483 
1 2358 15544 
2 4541 4542 
2 3617 3618 
1 3618 20865 
2 2720 2721 
2 2357 2358 
2 9290 9291 
2 1619 1620 
2 2356 2357 
2 1618 1619 
1 1618 2356 
2 11354 11355 
1 8238 17626 
2 17626 17627 
2 8237 8238 
1 1620 2385 
1 9762 11355 
2 17627 17628 
2 9761 9762 
2 8495 8496 
2 8494 8495 
1 8494 15553 
2 15553 15554 
2 9760 9761 
1 9760 15445 
2 2626 2627 
1 2626 17628 
1 8496 8907 
2 15445 15446 
2 10835 10836 
2 10834 10835 
2 799 800 
1 799 10834 
2 800 801 
2 15002 15003 
2 8491 8492 
1 8491 15003 
2 5383 5384 
1 5383 10836 
2 8492 8493 
1 8493 9618 
2 8906 8907 
1 9897 11436 
2 11435 11436 
2 11434 11435 
1 4935 11434 
2 4934 4935 
2 8003 8004 
1 8004 14127 
2 4933 4934 
1 4933 16899 
2 8002 8003 
1 8002 9166 
2 9166 9167 
2 13657 13658 
1 6561 13657 
2 9167 9168 
3 6560 6561 
3 6559 6560 
1 6559 15843 
2 13658 13659 
3 5974 5975 
1 5974 9168 
1 18 42 
2 17 18 
2 11081 11082 
2 16 17 
1 16 11082 
2 5536 5537 
1 5536 20097 
2 20096 20097 
2 5537 5538 
2 6322 6323 
1 6322 20572 
2 20572 20573 
2 20573 20574 
1 5538 20554 
2 16444 16445 
1 16444 20574 
2 20554 20555 
2 6323 6324 
2 16445 16446 
2 10610 10611 
2 10609 10610 
1 10245 10609 
2 10244 10245 
1 3954 7797 
2 3953 3954 
2 10243 10244 
1 10243 15657 
2 179 180 
1 9663 10611 
2 14257 14258 
1 14257 20577 
2 20576 20577 
1 180 6606 
2 6605 6606 
2 18199 18200 
2 6604 6605 
1 6604 7230 
2 14258 14259 
2 18200 18201 
1 981 18199 
2 980 981 
1 14259 17541 
1 9078 20922 
2 9077 9078 
2 9076 9077 
2 6586 6587 
1 6586 9076 
2 979 980 
1 979 13411 
2 6587 6588 
2 13411 13412 
2 662 663 
2 6155 6156 
1 663 6154 
2 17119 17120 
1 17119 19336 
2 19336 19337 
2 6154 6155 
2 661 662 
1 661 5322 
2 19337 19338 
2 316 317 
1 316 19338 
2 317 318 
2 6958 6959 
2 20921 20922 
2 6959 6960 
3 15842 15843 
3 15841 15842 
2 3952 3953 
1 3952 17181 
2 17180 17181 
2 4588 4589 
1 4588 8256 
2 4589 4590 
1 4590 9330 
2 9329 9330 
2 9950 9951 
2 9949 9950 
2 9328 9329 
1 3048 9949 
2 17458 17459 
2 14158 14159 
1 14158 17458 
2 14159 14160 
2 3047 3048 
2 3046 3047 
1 3046 20512 
2 12679 12680 
2 20512 20513 
1 9075 14160 
2 2818 2819 
1 2818 7774 
2 7774 7775 
2 7775 7776 
2 2819 2820 
2 9074 9075 
2 2872 2873 
1 2872 12790 
2 12790 12791 
1 990 16894 
2 16894 16895 
1 10383 16896 
2 16895 16896 
2 989 990 
2 19070 19071 
2 1094 1095 
2 10382 10383 
2 12791 12792 
1 1095 12792 
2 1867 1868 
1 1867 4375 
2 1868 1869 
1 1314 1869 
2 4375 4376 
2 1313 1314 
2 371 372 
2 17770 17771 
2 370 371 
1 370 17770 
1 372 20863 
2 20863 20864 
2 15544 15545 
2 4577 4578 
2 4576 4577 
1 4576 15546 
2 15545 15546 
2 15551 15552 
1 4578 5230 
2 18950 18951 
2 20864 20865 
2 15550 15551 
1 15550 16606 
2 8236 8237 
2 11353 11354 
1 5592 11353 
2 5590 5591 
1 5590 18951 
2 5591 5592 
1 6603 13428 
2 6602 6603 
2 7699 7700 
1 7699 8236 
2 13427 13428 
2 7700 7701 
1 7701 15552 
2 9616 9617 
1 9616 18727 
2 18727 18728 
2 15554 15555 
2 13426 13427 
1 13426 15555 
2 11941 11942 
2 11942 11943 
2 11794 11795 
1 11794 11941 
2 11795 11796 
1 5385 11943 
2 5384 5385 
2 9896 9897 
2 9895 9896 
1 9895 20830 
2 20830 20831 
2 20831 20832 
2 6127 6128 
1 6127 20832 
2 11968 11969 
1 11968 19497 
2 11969 11970 
2 9617 9618 
2 19000 19001 
1 19000 21339 
1 5619 13659 
2 5618 5619 