ITEM: TIMESTEP
60000000
ITEM: NUMBER OF ATOMS
3678
ITEM: BOX BOUNDS pp pp pp
0.0000000000000000e+00 5.0000000000000000e+01
0.0000000000000000e+00 5.0000000000000000e+01
0.0000000000000000e+00 5.0000000000000000e+01
ITEM: ATOMS id type xs ys zs
19421 2 0.552322 0.167917 0.520313
19422 1 0.543704 0.165696 0.521558
8023 1 0.534594 0.178344 0.521098
15732 1 0.529701 0.144195 0.536907
3787 1 0.557051 0.147031 0.539144
11466 1 0.555849 0.149278 0.539126
15731 2 0.52828 0.149822 0.543477
9998 2 0.505709 0.183382 0.551547
9999 1 0.49916 0.180412 0.547219
1803 1 0.530187 0.15763 0.55083
6043 1 0.554846 0.166197 0.550859
11464 1 0.545972 0.160367 0.538422
11465 2 0.551893 0.155157 0.539214
15730 1 0.529472 0.156222 0.549227
8024 2 0.536641 0.181131 0.528919
1939 1 0.525447 0.193717 0.529674
1940 2 0.525874 0.198288 0.53567
14292 1 0.536912 0.211625 0.553038
14290 1 0.530072 0.204538 0.542528
19490 3 0.545347 0.187602 0.543467
19489 1 0.549033 0.190815 0.550463
1941 1 0.528844 0.203339 0.540879
14291 3 0.534687 0.208528 0.547261
8025 1 0.540029 0.184101 0.534606
19491 1 0.541782 0.185082 0.537211
2683 1 0.549984 0.192164 0.553112
18900 1 0.556142 0.23159 0.548021
6405 1 0.528162 0.238891 0.545573
18898 1 0.543064 0.223985 0.542622
18899 3 0.549617 0.228205 0.544836
6403 1 0.536349 0.251797 0.549708
6404 2 0.531248 0.245959 0.547017
19908 1 0.473681 0.143573 0.565363
19907 3 0.479514 0.147606 0.56826
19906 1 0.484708 0.152244 0.572543
3930 1 0.486346 0.153688 0.574364
18125 2 0.525382 0.139079 0.574909
18126 1 0.519596 0.13289 0.575017
18124 1 0.531031 0.143924 0.575167
10648 1 0.533007 0.145829 0.575327
10649 3 0.537569 0.153428 0.575436
798 1 0.428819 0.184618 0.580896
18196 1 0.429616 0.183949 0.583596
2650 1 0.458439 0.177035 0.576156
2651 2 0.458894 0.181676 0.582641
4639 1 0.474402 0.173646 0.582891
20698 1 0.489566 0.178225 0.569575
7996 1 0.492147 0.178103 0.570702
20699 2 0.482299 0.178904 0.566339
3929 2 0.489877 0.157839 0.579799
20700 1 0.473758 0.178451 0.565398
18089 2 0.508851 0.157786 0.564898
18088 1 0.503814 0.157106 0.559078
18090 1 0.514045 0.160421 0.571969
6577 1 0.515606 0.16175 0.574057
6578 3 0.520383 0.163781 0.579389
7997 3 0.4983 0.178356 0.57508
7998 1 0.505527 0.180217 0.578779
18358 1 0.508586 0.18122 0.579693
18359 3 0.514901 0.184416 0.583438
10650 1 0.543197 0.159184 0.578221
15756 1 0.545424 0.160794 0.579461
15198 1 0.535707 0.169607 0.563778
15197 3 0.537656 0.175012 0.569607
15196 1 0.540924 0.179953 0.575708
15755 3 0.550967 0.165414 0.583738
1801 1 0.535088 0.167935 0.56163
14364 1 0.542377 0.181347 0.578059
1802 2 0.532945 0.162374 0.556214
6044 3 0.556846 0.169563 0.557049
846 1 0.422827 0.213696 0.56708
845 2 0.424039 0.209989 0.574716
844 1 0.426324 0.207695 0.582111
796 1 0.422753 0.187599 0.565719
797 3 0.426617 0.186518 0.572864
7909 1 0.495668 0.196258 0.568105
7910 3 0.499604 0.199777 0.574354
7911 1 0.504784 0.203393 0.578961
20859 1 0.507108 0.204669 0.580693
2195 3 0.520129 0.194732 0.55865
20930 3 0.507806 0.212918 0.560548
2196 1 0.52573 0.198075 0.562462
9997 1 0.512742 0.187063 0.554445
20929 1 0.503333 0.210091 0.554715
2194 1 0.514609 0.188442 0.55525
9564 1 0.527588 0.199316 0.564705
2684 3 0.552051 0.194839 0.561205
9563 3 0.529935 0.202116 0.570441
9562 1 0.534041 0.205982 0.575813
19329 1 0.535428 0.207325 0.577484
14363 3 0.54695 0.186055 0.583764
2685 1 0.555349 0.197849 0.567813
21007 1 0.538384 0.213419 0.555452
19328 3 0.538775 0.212106 0.582156
20278 1 0.556474 0.198862 0.569537
20931 1 0.512529 0.217723 0.565772
20707 1 0.500574 0.229018 0.580767
8259 1 0.514605 0.219374 0.566753
8258 3 0.520577 0.22484 0.569913
8257 1 0.526417 0.228399 0.574556
21008 3 0.541992 0.218509 0.561691
21009 1 0.546456 0.222369 0.56661
6370 1 0.548114 0.223185 0.568917
2440 1 0.528522 0.229634 0.576773
8638 1 0.550356 0.246485 0.56328
2441 3 0.533492 0.232318 0.581846
6371 3 0.552753 0.227071 0.575228
17718 1 0.521486 0.255417 0.573819
8639 3 0.553797 0.248477 0.569642
17717 3 0.527426 0.258042 0.579415
33 1 0.473355 0.121149 0.602383
32 3 0.479616 0.122607 0.607284
8569 1 0.508104 0.108707 0.60981
8570 2 0.514034 0.11289 0.614383
4301 2 0.545459 0.122533 0.601206
4300 1 0.543421 0.115085 0.60503
31 1 0.4855 0.12393 0.613187
5403 1 0.476996 0.134833 0.589096
5402 2 0.480531 0.140369 0.594978
5401 1 0.48529 0.144437 0.599903
9000 1 0.487255 0.145815 0.600898
8999 2 0.492729 0.150137 0.605126
16531 1 0.471253 0.147478 0.614529
10795 1 0.499498 0.12434 0.593577
10796 3 0.503304 0.128544 0.597916
17650 1 0.522103 0.129082 0.588976
10797 1 0.507551 0.133172 0.604412
21027 1 0.508415 0.135003 0.606843
21026 2 0.510701 0.139746 0.613588
3333 1 0.511912 0.151492 0.595988
17651 2 0.525504 0.131971 0.596765
17652 1 0.528616 0.135147 0.603923
16737 1 0.52948 0.136073 0.606711
16736 2 0.532863 0.139791 0.613109
17715 1 0.545195 0.131645 0.595084
4302 1 0.545247 0.129186 0.596606
361 1 0.542461 0.15121 0.599087
362 3 0.546031 0.154266 0.603677
17714 3 0.54735 0.13792 0.58994
17713 1 0.5493 0.144084 0.585868
18197 2 0.432136 0.183343 0.591376
18198 1 0.435936 0.182243 0.597761
6537 1 0.437978 0.181736 0.600366
6536 2 0.44365 0.180896 0.605276
6535 1 0.450233 0.180962 0.60996
14797 1 0.45249 0.181162 0.612257
5373 1 0.456712 0.168644 0.598271
5372 2 0.463503 0.171239 0.601102
4640 2 0.479427 0.180539 0.586919
5371 1 0.468169 0.174878 0.604554
15661 1 0.470803 0.176136 0.605429
15662 2 0.477654 0.179325 0.60937
15663 1 0.484395 0.182052 0.612042
10996 1 0.487087 0.183333 0.613429
4641 1 0.485914 0.185723 0.590607
3928 1 0.493516 0.162362 0.584739
13692 1 0.495328 0.164502 0.587035
6579 1 0.525233 0.166809 0.585569
8998 1 0.496367 0.156079 0.610143
3332 3 0.515542 0.157447 0.600525
3331 1 0.52026 0.160717 0.605828
13691 3 0.500064 0.168182 0.593406
13690 1 0.505755 0.172165 0.598827
1161 1 0.507917 0.174249 0.600742
1160 3 0.51211 0.179073 0.605691
1159 1 0.51697 0.184224 0.610788
10947 1 0.4979 0.158464 0.611557
8637 1 0.522247 0.161813 0.608223
14842 1 0.518397 0.185614 0.61215
10339 1 0.526972 0.168013 0.587984
10340 3 0.531425 0.172281 0.593287
10341 1 0.534475 0.176646 0.598539
12262 1 0.53651 0.17845 0.600813
12263 3 0.541269 0.18241 0.605452
363 1 0.55109 0.158224 0.608585
2421 1 0.552604 0.160247 0.610806
8636 3 0.52698 0.165274 0.613257
15754 1 0.556505 0.168425 0.588537
6813 1 0.427616 0.206746 0.584448
6812 3 0.431604 0.204001 0.590786
2652 1 0.460338 0.186181 0.589641
12310 1 0.460698 0.187633 0.591751
12311 2 0.462786 0.191327 0.598406
6811 1 0.435939 0.20308 0.59662
547 1 0.437825 0.203026 0.599228
548 2 0.442959 0.202348 0.606644
549 1 0.446934 0.202491 0.613603
12312 1 0.465731 0.194668 0.604593
9300 1 0.467678 0.196357 0.606446
9299 2 0.472661 0.20118 0.610507
64 1 0.488207 0.187456 0.591903
3798 1 0.48839 0.206244 0.592509
3797 3 0.492617 0.211417 0.594288
65 3 0.493565 0.191417 0.595955
20858 3 0.512812 0.209062 0.584932
18360 1 0.520365 0.188155 0.58722
5368 1 0.522289 0.189786 0.589084
66 1 0.498841 0.194049 0.599947
19518 1 0.50161 0.195127 0.601211
19517 3 0.508573 0.198847 0.603232
19516 1 0.513133 0.203098 0.608396
20857 1 0.517199 0.213334 0.589609
9175 1 0.518407 0.215738 0.591188
9861 1 0.51482 0.204959 0.610769
5369 3 0.5274 0.194012 0.594093
12264 1 0.544775 0.187314 0.610878
10174 1 0.546014 0.188859 0.612686
14362 1 0.550572 0.191335 0.588721
13591 1 0.551803 0.192743 0.59069
5370 1 0.530238 0.197947 0.599834
3024 1 0.531724 0.199365 0.601741
3023 3 0.534457 0.203711 0.607062
3022 1 0.538545 0.207233 0.61236
15132 1 0.540782 0.208871 0.613828
19327 1 0.542593 0.216361 0.587038
13592 3 0.555306 0.19702 0.597384
20708 3 0.504488 0.232529 0.584701
3796 1 0.497366 0.216795 0.598948
19374 1 0.498729 0.219281 0.600944
9176 3 0.521372 0.220877 0.595573
19373 2 0.502218 0.225322 0.605419
19372 1 0.505424 0.229959 0.61115
3783 1 0.507101 0.231466 0.612973
20709 1 0.509164 0.237641 0.589577
2100 1 0.511051 0.239738 0.591421
2099 2 0.515994 0.242707 0.595976
2098 1 0.520966 0.247478 0.599775
9177 1 0.524586 0.224696 0.60187
1050 1 0.525183 0.225739 0.604076
19033 1 0.544177 0.217846 0.589612
19035 1 0.552528 0.222845 0.60179
19034 3 0.548296 0.22085 0.595709
2442 1 0.537953 0.23692 0.586999
6198 1 0.539237 0.238055 0.589257
1049 3 0.53058 0.229252 0.609368
6197 3 0.543919 0.241533 0.595123
1048 1 0.535176 0.233229 0.613505
20622 1 0.536929 0.235021 0.614882
348 1 0.549913 0.246995 0.603109
6196 1 0.548133 0.245023 0.601281
6 1 0.553906 0.224109 0.603548
12774 1 0.522899 0.24962 0.601593
12773 3 0.526518 0.253585 0.606454
15617 2 0.540927 0.263125 0.591199
17716 1 0.532987 0.259544 0.584634
15618 1 0.535112 0.260944 0.586571
12772 1 0.531208 0.257728 0.61019
6192 1 0.533378 0.260025 0.612283
15616 1 0.546716 0.266694 0.596518
15169 1 0.548635 0.268278 0.598206
15170 3 0.553727 0.272689 0.602438
347 3 0.554343 0.251057 0.607079
6826 1 0.534772 0.0841553 0.644174
19953 1 0.457505 0.119563 0.63782
19952 3 0.458163 0.122005 0.645214
10620 1 0.483983 0.119995 0.638302
10086 1 0.524282 0.093423 0.625307
8571 1 0.517459 0.118522 0.620275
10197 1 0.518861 0.121086 0.62175
14334 1 0.517112 0.122359 0.642708
10085 2 0.528058 0.0979529 0.630928
10084 1 0.532112 0.10439 0.635002
5913 1 0.533441 0.105999 0.636285
5912 3 0.536132 0.111609 0.642048
3453 1 0.543793 0.122895 0.622119
13773 1 0.453686 0.15343 0.620151
5433 1 0.487384 0.124764 0.615634
5432 2 0.491807 0.127758 0.622064
10619 2 0.484465 0.126474 0.643551
667 1 0.486634 0.143397 0.619734
668 3 0.49065 0.148276 0.625132
669 1 0.494753 0.152068 0.631241
10196 3 0.522195 0.127193 0.625582
5431 1 0.496806 0.129895 0.628719
5821 1 0.499084 0.130679 0.631202
12955 1 0.496344 0.153944 0.633987
21025 1 0.51329 0.144831 0.619514
10326 1 0.51477 0.146632 0.621582
10325 3 0.518835 0.15102 0.627931
5822 3 0.503356 0.1333 0.637031
5823 1 0.509485 0.136724 0.642468
3829 1 0.51069 0.137749 0.644639
10195 1 0.524572 0.132784 0.630448
13701 1 0.526146 0.134565 0.63323
16735 1 0.53682 0.143832 0.618145
13700 3 0.53145 0.138334 0.639511
19730 3 0.542055 0.150546 0.625598
19731 1 0.538307 0.145755 0.62047
13699 1 0.535267 0.141968 0.644872
13559 3 0.556348 0.140586 0.63954
3452 3 0.548706 0.127371 0.627159
3451 1 0.552442 0.132253 0.631813
13560 1 0.553269 0.134538 0.633721
14798 2 0.457295 0.183889 0.617307
13772 2 0.454395 0.157939 0.625409
13771 1 0.455687 0.164737 0.630129
19366 1 0.455906 0.166796 0.631953
19367 2 0.45672 0.173611 0.636952
19368 1 0.457573 0.18072 0.642307
14508 1 0.458324 0.182723 0.644064
16532 2 0.473151 0.155036 0.616543
16533 1 0.47651 0.161168 0.620488
3421 1 0.477754 0.163129 0.622578
3422 2 0.480856 0.168188 0.628034
3423 1 0.485657 0.173708 0.631452
10873 1 0.48759 0.175679 0.633201
10874 3 0.492823 0.179563 0.638497
10324 1 0.522207 0.156602 0.63288
18493 1 0.523533 0.158777 0.634794
10946 3 0.501848 0.163305 0.615843
10875 1 0.495928 0.183795 0.643834
10945 1 0.505799 0.167373 0.620709
20325 1 0.507701 0.169053 0.622775
20324 3 0.511822 0.174229 0.627441
20323 1 0.514957 0.178948 0.633256
18691 1 0.515958 0.180944 0.635901
12956 3 0.49981 0.158643 0.639166
18692 3 0.519658 0.185416 0.64098
12957 1 0.504111 0.163145 0.643962
3025 1 0.49725 0.185415 0.645758
18494 3 0.526117 0.164405 0.640922
19729 1 0.544853 0.155557 0.630941
4450 1 0.546589 0.157458 0.632798
8635 1 0.530365 0.169462 0.619376
20286 1 0.531371 0.170775 0.621382
20285 3 0.534616 0.175174 0.626506
14794 1 0.539952 0.181536 0.633512
20284 1 0.53855 0.179744 0.631771
4451 3 0.549224 0.163547 0.638048
4452 1 0.55321 0.167532 0.643437
2420 3 0.55537 0.167391 0.616576
349 1 0.554768 0.169442 0.645533
1788 1 0.448754 0.202161 0.616204
14799 1 0.462906 0.18603 0.62231
1787 2 0.453233 0.203114 0.622965
1786 1 0.457865 0.204702 0.627652
20838 1 0.459426 0.205526 0.630251
20837 3 0.463527 0.209656 0.637734
9298 1 0.477958 0.205114 0.615515
4719 1 0.480333 0.206269 0.616727
10997 3 0.49385 0.187304 0.616959
14860 1 0.465258 0.186942 0.623877
4718 3 0.484747 0.211011 0.61964
14861 2 0.47155 0.189256 0.630168
14862 1 0.478282 0.192894 0.635466
11878 1 0.480568 0.194387 0.63675
11879 3 0.486386 0.200023 0.640087
4717 1 0.489647 0.215801 0.623276
11880 1 0.490128 0.205643 0.643538
9688 1 0.491787 0.207914 0.644634
20836 1 0.467439 0.215565 0.641436
10998 1 0.499966 0.192213 0.619805
9860 3 0.516975 0.209919 0.615613
12454 1 0.501294 0.194251 0.62195
12455 3 0.504719 0.197725 0.628056
12456 1 0.507705 0.200854 0.633537
855 1 0.509215 0.202249 0.635887
854 3 0.513775 0.205502 0.641231
14843 3 0.523219 0.190508 0.617345
9859 1 0.519258 0.215368 0.621608
18693 1 0.525086 0.190486 0.645338
14795 3 0.54394 0.186487 0.639079
10175 3 0.549968 0.19237 0.618076
15131 3 0.546187 0.212746 0.618238
14844 1 0.527363 0.194541 0.622013
14260 1 0.528724 0.195668 0.623589
14261 3 0.532418 0.19931 0.629442
14262 1 0.537796 0.203726 0.633687
10000 1 0.539256 0.205957 0.635397
10001 3 0.542229 0.210759 0.640162
10176 1 0.555708 0.197081 0.623575
14796 1 0.548502 0.190541 0.644053
10002 1 0.546222 0.214951 0.645752
20446 1 0.557136 0.198583 0.625728
10240 1 0.491774 0.217693 0.624422
5409 1 0.48912 0.240387 0.624475
16453 1 0.46918 0.217566 0.64249
16454 3 0.473609 0.223955 0.64568
5408 2 0.493684 0.246736 0.627855
10241 3 0.496966 0.222893 0.627536
3782 2 0.511434 0.235677 0.618103
10242 1 0.501097 0.227399 0.631349
4899 1 0.502333 0.229088 0.633367
4898 3 0.507108 0.233736 0.63841
3781 1 0.516148 0.240552 0.622774
19827 1 0.518177 0.242448 0.624743
4897 1 0.509877 0.237676 0.644728
8040 1 0.519921 0.21745 0.623905
8039 3 0.523872 0.223122 0.628658
19826 3 0.523368 0.246364 0.628281
12067 1 0.551493 0.220218 0.62599
20621 3 0.541643 0.240015 0.619396
8038 1 0.52805 0.227519 0.634047
6816 1 0.53 0.22903 0.636262
20620 1 0.545116 0.245606 0.623285
14350 1 0.546924 0.247063 0.624963
6815 3 0.535878 0.233376 0.641499
15130 1 0.550143 0.218178 0.623862
12068 3 0.555256 0.224476 0.631681
16630 1 0.520589 0.276128 0.631798
16631 3 0.515029 0.272787 0.627619
5407 1 0.497444 0.25094 0.633001
21255 1 0.499196 0.252572 0.635224
21254 3 0.503091 0.257908 0.640563
21253 1 0.508006 0.261752 0.644821
16632 1 0.509675 0.267502 0.623187
21487 1 0.522665 0.276972 0.633424
6191 2 0.536391 0.265401 0.617647
19825 1 0.527691 0.251161 0.632096
6190 1 0.541101 0.269467 0.621794
18429 1 0.542881 0.27139 0.622911
11784 1 0.529715 0.252771 0.633731
11783 3 0.534354 0.256759 0.638442
18428 3 0.549228 0.277493 0.627279
11782 1 0.538553 0.261626 0.642708
18021 1 0.540654 0.263049 0.644435
14351 3 0.552341 0.250336 0.630557
6827 3 0.537042 0.0893257 0.649391
17880 1 0.497269 0.119214 0.664676
14333 3 0.52084 0.123712 0.650314
5911 1 0.538912 0.116078 0.646032
3042 1 0.540899 0.118183 0.647693
6828 1 0.538685 0.0954298 0.65408
16717 1 0.538926 0.0971885 0.656165
16718 2 0.539677 0.101922 0.662307
16719 1 0.54078 0.10596 0.668147
6270 1 0.541238 0.107728 0.671095
19951 1 0.460203 0.125091 0.653379
17484 1 0.455823 0.148765 0.65955
17483 2 0.461553 0.152899 0.655368
7410 1 0.461094 0.126613 0.655929
10618 1 0.485265 0.1326 0.648818
5832 1 0.485941 0.135244 0.650374
7409 3 0.464629 0.130986 0.661308
5831 3 0.48842 0.141284 0.654589
7408 1 0.464869 0.135971 0.666135
7858 1 0.465554 0.137958 0.668561
7859 3 0.467425 0.142911 0.673603
5830 1 0.488362 0.148073 0.656938
12156 1 0.488161 0.151005 0.658405
17879 2 0.501943 0.124283 0.667532
14332 1 0.524923 0.127089 0.656067
10963 1 0.526013 0.128494 0.658767
3830 3 0.513586 0.142535 0.650705
3831 1 0.516248 0.147014 0.65612
7950 1 0.517388 0.148611 0.658343
7949 3 0.520234 0.153238 0.664226
17878 1 0.505953 0.129869 0.670904
5995 1 0.507002 0.132026 0.6722
5996 3 0.509853 0.139124 0.67634
927 1 0.503331 0.152976 0.674531
7429 1 0.556746 0.140301 0.669611
20815 1 0.536315 0.143532 0.64726
3041 3 0.546175 0.123875 0.651824
10964 3 0.528205 0.132467 0.663723
20816 3 0.540452 0.148273 0.652297
20817 1 0.544662 0.152968 0.657825
9358 1 0.54603 0.154146 0.66032
10965 1 0.53111 0.137898 0.669592
19287 1 0.531892 0.139806 0.671705
3040 1 0.550036 0.129492 0.656462
7431 1 0.551303 0.13141 0.658294
7430 3 0.553887 0.13711 0.66303
2179 1 0.461777 0.184824 0.669471
17482 1 0.466496 0.160363 0.653302
21279 1 0.467729 0.163429 0.653234
21278 3 0.472 0.169673 0.651916
21277 1 0.475315 0.177183 0.651457
12155 3 0.488448 0.158743 0.660882
12154 1 0.489464 0.165915 0.663785
21478 1 0.490144 0.168779 0.665195
6643 1 0.476293 0.179985 0.651741
21479 3 0.49269 0.176333 0.66802
18264 1 0.505216 0.16438 0.645842
21480 1 0.496811 0.182792 0.671143
18263 3 0.507527 0.169145 0.651816
18262 1 0.511687 0.173962 0.656585
4800 1 0.513202 0.175618 0.658337
4799 3 0.516823 0.179787 0.66263
7948 1 0.524065 0.158329 0.669309
10042 1 0.525242 0.160441 0.671671
16197 1 0.497866 0.184806 0.672907
4798 1 0.520746 0.184424 0.668235
18495 1 0.531806 0.167419 0.646612
9359 3 0.548634 0.157899 0.666589
9360 1 0.551408 0.161576 0.672822
1120 1 0.533236 0.168766 0.648235
1121 3 0.537101 0.172467 0.653801
1122 1 0.539948 0.176292 0.659408
14830 1 0.540844 0.177989 0.661956
14831 3 0.54336 0.182577 0.668265
12873 1 0.55281 0.162701 0.674991
11580 1 0.426489 0.215194 0.664657
14507 3 0.460438 0.188482 0.64929
14506 1 0.46235 0.194816 0.653936
16009 1 0.463617 0.197322 0.655168
6644 3 0.478398 0.187133 0.654574
16010 3 0.465729 0.203847 0.658978
6645 1 0.480691 0.1925 0.658487
633 1 0.482083 0.19442 0.660163
632 3 0.486015 0.200498 0.664317
631 1 0.489492 0.204838 0.668888
14286 1 0.490661 0.206454 0.671017
16011 1 0.468805 0.210294 0.66287
14073 1 0.469981 0.212906 0.663899
9689 3 0.495399 0.213631 0.648675
2180 3 0.467751 0.189212 0.673871
14285 3 0.493308 0.210361 0.676154
853 1 0.519468 0.208821 0.647369
13741 1 0.521842 0.186121 0.670233
1507 1 0.521071 0.210383 0.649501
3026 3 0.500712 0.190527 0.651384
3027 1 0.503865 0.195502 0.656694
10470 1 0.505361 0.197307 0.658032
10469 3 0.50884 0.202992 0.66137
10468 1 0.512883 0.207534 0.665817
12690 1 0.51452 0.209094 0.668111
12689 3 0.518303 0.213302 0.67318
1508 3 0.524713 0.214766 0.654646
13742 3 0.52537 0.190282 0.675934
15419 3 0.553836 0.195663 0.65212
14832 1 0.545347 0.185983 0.673854
2764 1 0.526709 0.192097 0.64755
12520 1 0.546811 0.187764 0.67654
2765 3 0.530542 0.194287 0.653083
2766 1 0.53426 0.198214 0.659479
2694 1 0.536029 0.199504 0.661684
2693 3 0.540094 0.203617 0.666451
2692 1 0.543556 0.208119 0.67188
18489 1 0.545166 0.210155 0.674187
15420 1 0.550276 0.191872 0.646063
18504 1 0.54778 0.215968 0.647553
11579 2 0.433146 0.216709 0.669329
11578 1 0.439893 0.218389 0.674396
4686 1 0.442373 0.219186 0.675827
16455 1 0.478104 0.230437 0.648369
612 1 0.480155 0.232839 0.650049
14072 3 0.473872 0.219912 0.665439
14071 1 0.479133 0.22491 0.667985
20842 1 0.480885 0.226591 0.669273
611 3 0.486002 0.237555 0.653585
20843 3 0.484647 0.231002 0.673757
610 1 0.49012 0.242448 0.6568
10770 1 0.491658 0.244557 0.658288
17067 1 0.510729 0.239198 0.647057
9690 1 0.499197 0.21958 0.654426
16066 1 0.500505 0.221583 0.656883
16067 3 0.502366 0.226334 0.662823
16068 1 0.506907 0.22915 0.668044
18649 1 0.509528 0.230541 0.669854
17066 3 0.514076 0.242801 0.653897
18650 3 0.51465 0.235115 0.673597
17065 1 0.519885 0.247023 0.658489
6814 1 0.541433 0.237215 0.646066
18503 3 0.552328 0.218855 0.652389
13156 1 0.543009 0.238852 0.647379
1509 1 0.528451 0.220358 0.658701
9472 1 0.530122 0.222016 0.660531
9473 3 0.534533 0.227012 0.664702
9474 1 0.538459 0.234007 0.668655
17706 1 0.540206 0.236301 0.670142
13157 3 0.54801 0.244001 0.651337
17705 3 0.544763 0.240321 0.674563
18502 1 0.555926 0.221504 0.658723
9850 1 0.557231 0.222829 0.660551
14545 1 0.509953 0.263004 0.646298
17023 1 0.521687 0.248677 0.659862
14546 3 0.515183 0.266752 0.650016
10769 3 0.49557 0.250198 0.662181
10768 1 0.5007 0.254788 0.665142
16809 1 0.503039 0.256803 0.666187
16808 3 0.508403 0.26264 0.671295
14547 1 0.520256 0.27149 0.654692
17265 1 0.521724 0.27276 0.655816
16807 1 0.513001 0.266487 0.67536
17264 3 0.526699 0.277651 0.659859
13158 1 0.552872 0.248577 0.655981
18019 1 0.551338 0.271791 0.653108
17024 3 0.527167 0.252726 0.664421
17025 1 0.532958 0.257418 0.667305
19861 1 0.535208 0.259082 0.668288
18020 3 0.546542 0.268018 0.647807
19862 3 0.540977 0.262824 0.671966
5629 1 0.552848 0.272995 0.654663
2226 1 0.55487 0.250798 0.657817
19567 1 0.48428 0.114285 0.683371
19568 2 0.488247 0.119291 0.688436
6267 1 0.525011 0.110205 0.691607
6266 3 0.524992 0.116959 0.69574
6269 3 0.542041 0.111869 0.677851
6268 1 0.543948 0.116142 0.683788
18004 1 0.545124 0.117972 0.686076
18005 3 0.546485 0.123634 0.691859
9264 1 0.456578 0.136017 0.703967
7860 1 0.470078 0.147671 0.678693
13446 1 0.47151 0.149044 0.680663
13445 3 0.47627 0.152282 0.685922
13444 1 0.482075 0.154147 0.691147
19569 1 0.492214 0.124713 0.693026
19803 1 0.493912 0.127377 0.693965
5997 1 0.513535 0.143374 0.682109
14602 1 0.515235 0.145005 0.684357
14603 3 0.519368 0.149464 0.690059
14604 1 0.52272 0.154706 0.695098
19802 2 0.497841 0.133289 0.697326
19801 1 0.500815 0.138256 0.702278
15481 1 0.502417 0.140615 0.704363
6265 1 0.526434 0.123833 0.698224
19286 3 0.535151 0.143015 0.678449
12392 3 0.552421 0.134442 0.706586
12391 1 0.548959 0.129877 0.700049
5673 1 0.52745 0.126976 0.699186
18006 1 0.548252 0.128325 0.697957
5672 3 0.529276 0.13388 0.702043
19285 1 0.539116 0.147905 0.68509
15226 1 0.540369 0.149897 0.687593
15227 3 0.543452 0.154717 0.691987
5671 1 0.53081 0.139586 0.705708
20788 1 0.456498 0.162251 0.680433
20789 2 0.461014 0.167203 0.684211
6336 1 0.484306 0.155351 0.692737
16381 1 0.481834 0.178611 0.698577
14548 1 0.484119 0.180583 0.699641
16382 2 0.475503 0.175074 0.694192
16383 1 0.469613 0.172615 0.690499
20790 1 0.466866 0.171175 0.689058
6335 2 0.490918 0.15842 0.697388
14549 3 0.490963 0.184361 0.701021
926 3 0.505861 0.160532 0.677513
16408 1 0.52305 0.1566 0.696885
925 1 0.50745 0.166723 0.681819
15768 1 0.508059 0.16866 0.683509
6334 1 0.495713 0.162004 0.700859
15767 3 0.511259 0.1754 0.687382
15766 1 0.514999 0.180747 0.691976
2697 1 0.497859 0.16342 0.702411
16409 3 0.524607 0.162897 0.702195
10293 1 0.51607 0.183184 0.694001
12872 3 0.556702 0.168332 0.680584
10043 3 0.528053 0.165082 0.677107
15228 1 0.544589 0.159447 0.696861
16410 1 0.527488 0.168666 0.70671
3052 1 0.545906 0.161733 0.698684
10044 1 0.532302 0.169584 0.682287
21495 1 0.533655 0.171151 0.684145
21494 3 0.537839 0.175303 0.689634
21493 1 0.54125 0.180843 0.694145
3053 3 0.55057 0.166532 0.703833
12093 1 0.54265 0.183 0.695246
6082 1 0.452913 0.193217 0.688525
6083 3 0.455775 0.197492 0.694249
6084 1 0.460458 0.202975 0.69761
16030 1 0.462435 0.204677 0.698691
2181 1 0.47285 0.19314 0.678439
8151 1 0.473924 0.194603 0.680679
8150 3 0.477753 0.198922 0.686728
8149 1 0.48195 0.203499 0.691852
6096 1 0.48347 0.204856 0.693642
6095 3 0.487851 0.208535 0.698458
16031 3 0.468353 0.208855 0.702401
6094 1 0.492425 0.212338 0.703692
8487 1 0.494475 0.214318 0.705166
16032 1 0.472354 0.214352 0.705717
3529 1 0.472903 0.216514 0.707323
10292 3 0.51996 0.187834 0.69958
16196 3 0.49932 0.189653 0.678728
16195 1 0.503137 0.194864 0.684157
13257 1 0.50459 0.197211 0.686444
13256 3 0.508594 0.202092 0.690708
13255 1 0.512639 0.206987 0.695796
3217 1 0.513979 0.209127 0.697725
3218 3 0.517685 0.214366 0.702474
10291 1 0.524287 0.192996 0.704442
1351 1 0.525644 0.194772 0.706586
14284 1 0.496697 0.216252 0.682254
14550 1 0.496869 0.189564 0.7053
18924 1 0.498567 0.191011 0.706952
12522 1 0.555057 0.197175 0.685618
18488 3 0.54819 0.215504 0.679799
12092 3 0.546138 0.187614 0.700929
12521 3 0.55086 0.192101 0.681214
13743 1 0.527766 0.194539 0.68149
7629 1 0.528916 0.196401 0.683642
7628 3 0.532105 0.202215 0.689227
7627 1 0.536665 0.205703 0.693484
3433 1 0.538279 0.207205 0.695151
3434 3 0.54367 0.212494 0.700068
12091 1 0.548647 0.193774 0.705941
12420 1 0.556916 0.199112 0.687836
4685 3 0.448503 0.221743 0.679241
4684 1 0.455794 0.223689 0.68278
7957 1 0.458427 0.224408 0.683658
7958 3 0.465127 0.226345 0.687358
7959 1 0.470518 0.229443 0.691114
73 1 0.472807 0.230557 0.692893
74 3 0.479933 0.234551 0.696157
75 1 0.486329 0.236747 0.700852
7755 1 0.48841 0.237847 0.702539
20844 1 0.488655 0.237268 0.678598
7754 3 0.493304 0.242444 0.707078
6118 1 0.490607 0.239498 0.680251
6119 3 0.495168 0.243351 0.684364
18651 1 0.519726 0.241198 0.678086
12688 1 0.52174 0.21754 0.679155
14868 1 0.523409 0.218749 0.680909
12490 1 0.498108 0.218419 0.684098
12491 3 0.50302 0.223064 0.687556
12492 1 0.506858 0.227371 0.692733
2113 1 0.508527 0.229649 0.694163
2114 3 0.512528 0.236106 0.696617
2115 1 0.515726 0.239789 0.701078
8721 1 0.521705 0.24284 0.679903
2379 1 0.517307 0.24205 0.7028
8720 3 0.525407 0.24694 0.684831
3219 1 0.522915 0.219375 0.707178
4333 1 0.554021 0.22238 0.686505
18487 1 0.552956 0.220679 0.68469
14867 3 0.527982 0.222171 0.686168
14866 1 0.532543 0.224914 0.69064
10614 1 0.534135 0.226402 0.691976
10613 3 0.539205 0.231512 0.696523
17704 1 0.549642 0.243999 0.678737
18343 1 0.551438 0.245327 0.68023
10612 1 0.542515 0.235497 0.701987
12306 1 0.543234 0.237518 0.704053
3435 1 0.546993 0.217695 0.706162
8863 1 0.515283 0.267994 0.676712
6120 1 0.500195 0.248902 0.688097
12033 1 0.501678 0.251962 0.689895
12032 3 0.505396 0.257311 0.693781
12031 1 0.50982 0.263821 0.696916
1564 1 0.511116 0.265732 0.698586
1565 2 0.515501 0.269442 0.704453
8864 3 0.52122 0.271841 0.680994
8865 1 0.526242 0.276097 0.686162
7233 1 0.527699 0.277516 0.687831
19863 1 0.54566 0.266733 0.676744
18344 3 0.555153 0.250338 0.685995
8719 1 0.530431 0.251118 0.69048
9018 1 0.547899 0.26904 0.678187
9924 1 0.531795 0.252623 0.692623
9923 2 0.535783 0.258325 0.696976
9922 1 0.540201 0.263537 0.701695
9017 3 0.553643 0.273348 0.68134
4216 1 0.541311 0.265818 0.703956
20541 1 0.499448 0.121514 0.711987
15339 1 0.538906 0.122195 0.728272
9263 3 0.462056 0.140707 0.710368
9262 1 0.467826 0.143732 0.714293
9780 1 0.470554 0.144698 0.71586
9779 2 0.477143 0.146734 0.720033
9778 1 0.483279 0.148063 0.721599
15267 1 0.486014 0.149176 0.722126
15266 2 0.492683 0.152755 0.723962
6667 1 0.468527 0.133284 0.736163
20540 2 0.505149 0.126206 0.715395
20539 1 0.511279 0.130325 0.719232
15482 3 0.506274 0.145913 0.709599
15483 1 0.511744 0.150545 0.714874
17472 1 0.512866 0.152845 0.716772
8512 1 0.513197 0.131732 0.721346
8513 3 0.517743 0.135794 0.726071
8514 1 0.520989 0.141883 0.731533
10348 1 0.523032 0.144046 0.733321
5595 1 0.550772 0.137444 0.736336
15337 1 0.549014 0.134976 0.73518
20923 1 0.531818 0.141665 0.707551
20924 3 0.534602 0.146884 0.712318
20925 1 0.537966 0.151815 0.716414
16459 1 0.539226 0.153645 0.718637
10349 3 0.528011 0.148846 0.737873
12393 1 0.556924 0.139258 0.709429
15338 3 0.543014 0.128922 0.730777
2562 1 0.47174 0.185565 0.715424
20329 1 0.47744 0.168038 0.725611
20330 2 0.481397 0.172134 0.731798
20331 1 0.484476 0.17821 0.735217
9081 1 0.486293 0.180354 0.73663
15265 1 0.497761 0.157372 0.727283
11331 1 0.499767 0.159566 0.728971
2696 3 0.502652 0.167626 0.707503
11330 3 0.504318 0.164492 0.735545
2695 1 0.507204 0.171772 0.712322
13105 1 0.508656 0.173248 0.713933
13106 3 0.511283 0.179843 0.719312
17471 3 0.517699 0.158608 0.721158
17470 1 0.521016 0.163226 0.726791
13107 1 0.515363 0.184447 0.724095
18328 1 0.522304 0.164911 0.729013
18329 3 0.525388 0.168686 0.734591
3493 1 0.556081 0.172971 0.710857
2703 1 0.528438 0.170763 0.709314
3054 1 0.554821 0.170649 0.708572
16460 3 0.542293 0.158623 0.72371
2702 3 0.530562 0.175325 0.714838
16461 1 0.546243 0.16345 0.728195
16863 1 0.547343 0.165467 0.730955
2701 1 0.534531 0.180107 0.720417
5466 1 0.536048 0.181545 0.722628
5465 3 0.539586 0.185372 0.727611
16862 3 0.550959 0.169201 0.735825
6469 1 0.467262 0.189201 0.72996
6470 2 0.468645 0.191723 0.737944
2561 2 0.477289 0.190445 0.717489
2560 1 0.480602 0.197009 0.719287
5967 1 0.482421 0.199579 0.720307
5966 3 0.486929 0.20434 0.724422
5965 1 0.490551 0.209335 0.729444
8208 1 0.492305 0.210906 0.731216
7117 1 0.517159 0.186328 0.726367
18923 3 0.503652 0.196375 0.711579
18922 1 0.50633 0.202344 0.71681
10593 1 0.507635 0.204605 0.719084
10592 3 0.512107 0.209785 0.723533
10591 1 0.515671 0.21487 0.726407
7118 3 0.520364 0.190032 0.732385
7119 1 0.524142 0.193568 0.737807
8207 3 0.496525 0.21589 0.7367
18128 3 0.552367 0.200999 0.714414
1352 3 0.529493 0.198847 0.712709
5464 1 0.542573 0.190726 0.732926
18129 1 0.549187 0.195489 0.708035
2854 1 0.544239 0.192671 0.735122
1353 1 0.532566 0.202375 0.718725
18739 1 0.534164 0.204837 0.720911
18740 3 0.536924 0.209183 0.725685
18741 1 0.540731 0.214324 0.731171
18127 1 0.557247 0.203921 0.719334
3530 3 0.475488 0.221252 0.712028
3531 1 0.478657 0.226028 0.718223
19636 1 0.479841 0.227469 0.720368
19637 3 0.482982 0.231538 0.726674
19638 1 0.486127 0.236417 0.73053
21523 1 0.487459 0.238275 0.732327
21524 3 0.491679 0.243924 0.735922
11332 1 0.516808 0.217108 0.728453
9406 1 0.524785 0.221366 0.709222
8486 3 0.499078 0.219455 0.708711
8485 1 0.504012 0.224556 0.713827
2698 1 0.505075 0.226623 0.715748
2699 3 0.507112 0.231131 0.720717
2700 1 0.510366 0.23639 0.725496
18925 1 0.511532 0.239002 0.728122
11333 3 0.519854 0.221644 0.733737
18926 2 0.514768 0.245166 0.733141
2378 2 0.520424 0.247291 0.708128
12305 3 0.546228 0.242347 0.709935
9643 1 0.542272 0.216785 0.733793
9819 1 0.548515 0.218554 0.708408
9407 3 0.528691 0.225892 0.713561
9408 1 0.531909 0.23065 0.719142
6447 1 0.53308 0.232424 0.72183
6446 3 0.535954 0.237187 0.727056
6445 1 0.540187 0.241147 0.732536
9818 3 0.552203 0.222704 0.714455
3094 1 0.54181 0.243332 0.734636
9817 1 0.556521 0.226888 0.720652
12304 1 0.548852 0.247251 0.714473
18001 1 0.515254 0.274377 0.737335
10210 1 0.522356 0.274641 0.711895
7753 1 0.497549 0.248309 0.711651
13752 1 0.498747 0.250256 0.713919
13751 2 0.501606 0.254744 0.718991
13750 1 0.504863 0.260724 0.72379
4597 1 0.505735 0.262691 0.725577
4598 2 0.508992 0.267788 0.73109
18927 1 0.518558 0.250713 0.737475
4599 1 0.51386 0.272573 0.73522
1566 1 0.520733 0.273191 0.709725
2377 1 0.523922 0.251069 0.713634