ITEM: TIMESTEP
60000000
ITEM: NUMBER OF ENTRIES
4581
ITEM: BOX BOUNDS pp pp pp
0 50
0 50
0 50
ITEM: ENTRIES c_binfo[1] c_binfo[2] c_binfo[3] 
2 18850 18851 
3 5602 5603 
1 5602 18850 
3 5603 5604 
2 581 582 
2 580 581 
2 18851 18852 
1 5268 18852 
2 5267 5268 
2 5266 5267 
1 5266 20544 
2 20543 20544 
2 2563 2564 
2 16534 16535 
2 11695 11696 
1 11695 17962 
3 4349 4350 
2 3737 3738 
2 3736 3737 
1 3736 4350 
3 4348 4349 
3 6997 6998 
1 582 10597 
2 21461 21462 
2 21460 21461 
2 15331 15332 
1 15331 21460 
2 15332 15333 
3 14176 14177 
3 14177 14178 
2 13031 13032 
2 14233 14234 
2 17915 17916 
2 14234 14235 
2 20542 20543 
2 10597 10598 
2 10598 10599 
1 10599 13030 
2 13030 13031 
2 2564 2565 
1 2565 4098 
2 4097 4098 
2 7396 7397 
2 4096 4097 
1 4096 17533 
2 1693 1694 
1 1693 7396 
2 7397 7398 
1 7398 20542 
3 5099 5100 
3 5098 5099 
2 13163 13164 
1 13164 17964 
3 19507 19508 
3 19508 19509 
1 19509 19887 
3 2726 2727 
3 2725 2726 
1 2725 3300 
3 20597 20598 
3 20596 20597 
1 16482 20596 
3 16481 16482 
2 17962 17963 
3 21599 21600 
3 21598 21599 
2 16535 16536 
1 16536 21598 
2 17963 17964 
3 16168 16169 
3 16169 16170 
1 16170 20599 
2 17926 17927 
2 17927 17928 
3 790 791 
1 790 3624 
3 791 792 
2 3623 3624 
1 17802 17928 
2 17801 17802 
1 3738 17017 
2 17800 17801 
3 15526 15527 
1 15526 17800 
2 18418 18419 
3 6998 6999 
2 6529 6530 
1 6529 6999 
2 6530 6531 
2 6466 6467 
1 6466 6531 
2 20372 20373 
1 2616 15333 
1 11442 20371 
3 17017 17018 
3 11440 11441 
1 11440 13684 
3 17018 17019 
2 7546 7547 
1 7546 17019 
2 7547 7548 
3 11441 11442 
2 20371 20372 
2 2615 2616 
2 15961 15962 
2 15962 15963 
2 130 131 
1 14235 17305 
2 17305 17306 
1 13032 19899 
2 19898 19899 
2 19897 19898 
2 17306 17307 
1 9426 19897 
1 2259 17307 
2 17533 17534 
2 2614 2615 
1 2614 9522 
2 17534 17535 
1 13965 17535 
2 9521 9522 
2 13964 13965 
3 895 896 
1 895 17082 
3 17081 17082 
3 17080 17081 
2 11324 11325 
1 5100 8451 
2 11323 11324 
1 11323 15937 
2 17914 17915 
1 522 17914 
2 521 522 
2 520 521 
1 520 14458 
2 14458 14459 
3 8450 8451 
3 8449 8450 
2 12914 12915 
2 13162 13163 
2 15322 15323 
2 15323 15324 
2 12749 12750 
2 12748 12749 
1 12748 15322 
2 9049 9050 
1 9049 14088 
2 14087 14088 
1 9051 13162 
2 9050 9051 
2 12913 12914 
1 12913 14214 
3 14941 14942 
3 14942 14943 
3 1133 1134 
3 1132 1133 
1 1132 3691 
3 19886 19887 
3 19885 19886 
1 19885 21238 
3 21238 21239 
3 3691 3692 
2 1663 1664 
1 1663 8449 
2 1664 1665 
3 3298 3299 
1 3298 19344 
3 3299 3300 
2 6235 6236 
1 6235 16480 
3 19343 19344 
3 4343 4344 
1 11106 14913 
2 11104 11105 
2 11105 11106 
3 4342 4343 
1 4342 15081 
1 4344 21600 
3 6758 6759 
3 21239 21240 
3 6757 6758 
3 20599 20600 
3 20600 20601 
1 5457 20601 
3 5456 5457 
3 16480 16481 
2 6236 6237 
1 6237 13858 
2 13858 13859 
2 3622 3623 
1 3622 10518 
2 10517 10518 
3 15527 15528 
2 8869 8870 
1 8869 15528 
2 10516 10517 
2 1249 1250 
1 1249 10516 
2 8870 8871 
1 4281 18420 
2 18419 18420 
2 4280 4281 
2 12721 12722 
2 12722 12723 
2 1885 1886 
1 1885 12723 
2 1886 1887 
1 7548 13410 
2 13408 13409 
1 13408 14827 
2 13409 13410 
2 13685 13686 
2 12451 12452 
1 12451 13686 
2 1250 1251 
2 13684 13685 
2 12452 12453 
1 8871 13477 
2 13477 13478 
2 6163 6164 
2 6164 6165 
1 2646 15963 
2 131 132 
1 132 6562 
3 6562 6563 
2 2645 2646 
2 2644 2645 
1 2644 12189 
2 12188 12189 
3 6563 6564 
2 1285 1286 
1 1285 6564 
2 6467 6468 
1 6468 15798 
2 15797 15798 
2 8383 8384 
1 8383 9424 
2 15796 15797 
2 8384 8385 
2 9424 9425 
2 9425 9426 
2 2258 2259 
2 2257 2258 
1 2257 19816 
2 14827 14828 
2 14828 14829 
2 9520 9521 
1 9520 14374 
2 14374 14375 
2 14375 14376 
2 10306 10307 
1 10306 14376 
2 10307 10308 
3 896 897 
3 6488 6489 
3 6487 6488 
1 897 6487 
2 20809 20810 
2 20810 20811 
2 2921 2922 
2 2920 2921 
1 2920 18439 
2 18439 18440 
2 18440 18441 
2 15937 15938 
2 9569 9570 
2 9568 9569 
1 9568 15939 
2 15938 15939 
2 14459 14460 
3 19816 19817 
1 14460 18151 
2 18151 18152 
2 18152 18153 
3 19817 19818 
1 7002 18153 
2 14213 14214 
2 14212 14213 
1 13881 15324 
2 14086 14087 
2 13963 13964 
1 13963 18226 
2 18226 18227 
2 18227 18228 
1 18228 18919 
2 18919 18920 
2 13880 13881 
2 4603 4604 
1 4603 14086 
2 18920 18921 
2 911 912 
1 912 14212 
3 12424 12425 
1 12424 14943 
3 12425 12426 
1 12426 16255 
2 16255 16256 
2 16256 16257 
3 3692 3693 
1 3693 17994 
2 17993 17994 
1 1665 16782 
3 19342 19343 
2 16781 16782 
2 9185 9186 
2 14911 14912 
1 9186 14911 
2 14912 14913 
2 16780 16781 
2 7555 7556 
1 7555 16780 
2 13969 13970 
1 13969 19342 
2 13970 13971 
2 4604 4605 
1 4605 14173 
1 11094 13879 
2 13879 13880 
3 15080 15081 
3 15079 15080 
1 390 15079 
2 389 390 
2 388 389 
1 388 13143 
2 14173 14174 
2 11093 11094 
2 14918 14919 
2 14917 14918 
1 8319 14917 
2 8356 8357 
1 8356 13972 
2 8357 8358 
2 13972 13973 
2 3043 3044 
1 3043 21240 
2 3044 3045 
1 3045 12678 
2 12677 12678 
2 17662 17663 
3 5455 5456 
1 5455 17664 
2 17663 17664 
2 2828 2829 
1 6759 8358 
2 13973 13974 
2 2983 2984 
1 2983 13971 
1 2829 17662 
2 13859 13860 
1 13860 15327 
2 15326 15327 
2 9184 9185 
2 2984 2985 
2 15325 15326 
1 15325 15838 
2 10669 10670 
2 10670 10671 
3 11036 11037 
3 17887 17888 
3 17888 17889 
2 14275 14276 
1 14275 17889 
2 15983 15984 
2 578 579 
2 577 578 
1 577 20535 
2 20534 20535 
2 4279 4280 
1 4279 4846 
2 4846 4847 
2 4847 4848 
2 9920 9921 
1 1887 10788 
3 11035 11036 
2 10787 10788 
2 10786 10787 
1 10786 13293 
1 9921 11035 
1 4872 4944 
2 4871 4872 
2 4870 4871 
1 1251 4870 
2 13478 13479 
2 2590 2591 
1 2590 13479 
2 2591 2592 
2 4943 4944 
1 2592 3385 
1 6165 20017 
2 20017 20018 
2 21271 21272 
1 17598 21073 
2 21073 21074 
2 21272 21273 
2 20018 20019 
1 9666 21273 
2 17597 17598 
2 17596 17597 
2 12685 12686 
1 12685 17596 
2 12187 12188 
1 12187 20439 
2 12686 12687 
1 4848 8307 
2 20438 20439 
2 20437 20438 
2 13912 13913 
1 13912 20437 
2 8306 8307 
2 13913 13914 
1 5877 15796 
2 13292 13293 
2 4609 4610 
1 4609 8385 
2 5876 5877 
2 5875 5876 
1 5875 16753 
2 16753 16754 
2 16754 16755 
2 16078 16079 
1 11352 16078 
2 11351 11352 
2 11350 11351 
1 11350 14829 
2 8605 8606 
1 8605 15250 
2 1141 1142 
1 1141 12453 
2 1142 1143 
1 1143 5919 
1 10308 12633 
2 12632 12633 
2 5918 5919 
2 8606 8607 
2 15250 15251 
1 8607 10657 
2 10658 10659 
2 10657 10658 
1 1440 6489 
2 1438 1439 
1 1438 5022 
2 1439 1440 
2 5021 5022 
1 4638 20019 
2 4637 4638 
2 4636 4637 
2 1054 1055 
1 1054 4636 
2 1055 1056 
2 9665 9666 
2 1286 1287 
1 1287 19255 
2 19255 19256 
2 19256 19257 
1 12834 19257 
1 9570 17439 
2 6680 6681 
1 678 6681 
2 4610 4611 
1 4611 11089 
2 11089 11090 
2 6679 6680 
1 6679 19818 
2 7001 7002 
2 7000 7001 
1 7000 7192 
2 7192 7193 
2 11090 11091 
2 7193 7194 
2 677 678 
2 12631 12632 
2 2690 2691 
2 2689 2690 
1 2689 9720 
2 5962 5963 
2 5963 5964 
1 5964 18921 
2 3115 3116 
1 3115 5962 
2 6019 6020 
1 6019 12631 
2 910 911 
1 910 2691 
2 8927 8928 
2 8926 8927 
1 7386 8928 
1 16257 20878 
2 20407 20408 
2 16960 16961 
2 16961 16962 
1 16962 19525 
2 19525 19526 
2 20878 20879 
2 20879 20880 
2 19526 19527 
1 8304 18441 
2 17438 17439 
2 17437 17438 
2 8303 8304 
2 17992 17993 
1 1902 17992 
2 3838 3839 
1 3838 8302 
2 8302 8303 
2 1901 1902 
2 1900 1901 
1 1900 10191 
2 11650 11651 
1 11650 17437 
2 7556 7557 
2 20105 20106 
1 7557 20106 
2 20104 20105 
1 10140 19626 
1 17043 20104 
2 10139 10140 
1 7194 14182 
2 19625 19626 
2 19624 19625 
2 11092 11093 
1 11092 19624 
2 13142 13143 
2 13141 13142 
1 5847 13141 
2 14174 14175 
1 14175 16909 
2 16909 16910 
2 16910 16911 
2 5846 5847 
1 5172 7768 
2 5171 5172 
2 9980 9981 
2 6650 6651 
2 20408 20409 
2 5170 5171 
1 6651 8317 
1 7380 20409 
2 7379 7380 
2 8318 8319 
2 8317 8318 
2 1936 1937 
1 1936 20880 
2 12676 12677 
1 12676 19743 
2 18859 18860 
1 18859 19741 
2 19741 19742 
2 19742 19743 
2 18860 18861 
2 2827 2828 
1 2827 15142 
2 15142 15143 
2 10190 10191 
1 2466 9184 
2 2465 2466 
2 5132 5133 
2 2464 2465 
1 2464 5131 
2 15838 15839 
2 15839 15840 
2 20065 20066 
1 2985 20065 
2 5131 5132 
2 20066 20067 
2 6271 6272 
1 6271 20067 
2 15241 15242 
1 12300 15241 
1 10671 11103 
2 5845 5846 
1 5845 5931 
2 11102 11103 
2 11101 11102 
2 856 857 
1 856 11101 
2 15242 15243 
2 15982 15983 
2 20533 20534 
2 10831 10832 
1 10831 20533 
2 19901 19902 
2 19900 19901 
2 9919 9920 
1 9919 19900 
2 17440 17441 
1 17440 19902 
2 14276 14277 
1 13953 15897 
2 13952 13953 
2 13951 13952 
1 13951 14277 
2 4942 4943 
1 4942 5910 
2 3385 3386 
2 3386 3387 
1 3387 14835 
3 12076 12077 
1 12076 16377 
2 6049 6050 
1 6049 7852 
2 21074 21075 
1 138 15982 
2 137 138 
2 136 137 
1 136 6051 
2 6050 6051 
2 17441 17442 
2 16376 16377 
2 16375 16376 
1 10833 16375 
2 10832 10833 
1 5871 7279 
2 7279 7280 
2 8305 8306 
2 7280 7281 
1 7281 8305 
1 13914 16312 
1 16755 21037 
2 21037 21038 
2 16079 16080 
2 5908 5909 
2 13291 13292 
1 1425 5908 
2 11560 11561 
1 11560 13291 
2 11561 11562 
2 11443 11444 
1 11443 11562 
2 21038 21039 
1 2937 21400 
2 2936 2937 
2 2935 2936 
1 2935 16080 
2 21400 21401 
2 1424 1425 
2 11444 11445 
2 14834 14835 
2 5909 5910 
2 5917 5918 
1 5917 15340 
2 15340 15341 
2 15341 15342 
1 2262 15342 
2 18458 18459 
2 9916 9917 
1 9916 18459 
2 9664 9665 
1 9664 9918 
2 9917 9918 
2 14645 14646 
2 14644 14645 
1 14644 19242 
1 14646 21075 
1 1056 16126 
3 7852 7853 
1 1959 3804 
2 12833 12834 
1 2187 16314 
2 16312 16313 
2 16313 16314 
2 12832 12833 
1 12832 19713 
2 3803 3804 
2 3802 3803 
2 10580 10581 
2 676 677 
1 676 3802 
1 11214 21039 
2 11213 11214 
1 10581 10663 
1 10665 11091 
2 10664 10665 
2 10663 10664 
2 18566 18567 
1 10659 18567 
1 8046 18678 
2 17038 17039 
1 17038 18565 
2 9719 9720 
1 3117 8925 
2 18565 18566 
2 6020 6021 
1 1254 9718 
2 9718 9719 
2 18677 18678 
1 6021 18676 
2 18676 18677 
2 1253 1254 
2 3116 3117 
2 1252 1253 
1 1252 12562 
2 9107 9108 
2 9106 9107 
2 2159 2160 
2 2158 2159 
1 2158 9106 
2 5020 5021 
1 2160 5020 
1 9108 14914 
2 21584 21585 
2 16126 16127 
2 21583 21584 
1 4071 19527 
2 16127 16128 
1 16128 21583 
2 4070 4071 
2 3839 3840 
2 11651 11652 
2 19712 19713 
2 19711 19712 
2 6778 6779 
1 6778 19711 
1 13746 17317 
2 14012 14013 
1 3840 14013 
1 11652 13744 
2 13744 13745 
2 13745 13746 
2 14011 14012 
1 14011 16140 
2 17317 17318 
2 8923 8924 
2 14182 14183 
2 7243 7244 
2 4916 4917 
1 3213 7243 
2 14183 14184 
1 4917 14184 
2 3212 3213 
2 3211 3212 
1 3211 10138 
2 10138 10139 
2 17042 17043 
2 8924 8925 
1 13362 16911 
2 13360 13361 
1 13360 14244 
2 13361 13362 
2 14243 14244 
1 10974 13128 
3 16145 16146 
3 16144 16145 
2 9023 9024 
1 9024 16146 
2 9022 9023 
1 9022 11304 
1 4575 8781 
2 9979 9980 
2 7385 7386 
2 8780 8781 
2 8779 8780 
2 7384 7385 
1 7384 8779 
2 14764 14765 
2 9236 9237 
2 7378 7379 
2 4069 4070 
2 1288 1289 
1 1288 7378 
2 2753 2754 
1 1938 15678 
2 15676 15677 
1 15676 19363 
1 1290 9237 
2 1289 1290 
2 15677 15678 
2 19363 19364 
2 2752 2753 
1 2752 4069 
2 6649 6650 
1 6649 14764 
2 19364 19365 
2 18260 18261 
1 18261 18861 
1 2127 10183 
1 10185 10189 
2 1937 1938 
2 10184 10185 
2 10183 10184 
2 10189 10190 
1 8574 16279 
2 8573 8574 
1 5133 16281 
2 16279 16280 
2 1742 1743 
2 6272 6273 
1 6177 6273 
2 17041 17042 
1 1743 17041 
2 16280 16281 
2 6176 6177 
2 6175 6176 
1 6175 16878 
2 13127 13128 
1 15243 21564 
2 19229 19230 
2 5930 5931 
2 8728 8729 
2 5929 5930 
1 5929 19230 
2 21563 21564 
1 858 8728 
2 857 858 
1 20382 21562 
2 21562 21563 
2 8729 8730 
2 14324 14325 
2 14323 14324 
1 14323 15895 
2 15895 15896 
2 12245 12246 
2 15896 15897 
3 12077 12078 
1 5808 5898 
2 5807 5808 
2 5806 5807 
1 5806 7059 
2 5897 5898 
3 8560 8561 
1 8560 14325 
2 5869 5870 
1 5869 21594 
2 21593 21594 
2 5870 5871 
2 5896 5897 
1 5896 17442 
3 421 422 
1 421 14169 
2 14168 14169 
2 14167 14168 
1 11445 14167 
2 12409 12410 
2 1423 1424 
1 1423 12409 
2 12410 12411 
2 8167 8168 
1 8167 12411 
2 21571 21572 
2 14833 14834 
2 4966 4967 
1 4966 14833 
2 4967 4968 
2 18790 18791 
2 2260 2261 
1 2260 18790 
1 4968 9142 
2 9142 9143 
2 2261 2262 
1 609 12816 
2 12815 12816 
2 21572 21573 
2 12814 12815 
1 12814 21571 
2 2141 2142 
2 2140 2141 
1 2140 7854 
2 4486 4487 
1 4486 12078 
3 7853 7854 
2 4487 4488 
2 19240 19241 
2 7816 7817 
1 7816 19240 
1 4488 12934 
2 12934 12935 
2 19241 19242 
1 450 2142 
2 2185 2186 
1 2185 13713 
2 13712 13713 
2 15053 15054 
2 13711 13712 
1 13711 14838 
2 21592 21593 
1 15054 20310 
1 14322 21592 
2 20309 20310 
2 1958 1959 
2 2186 2187 
2 21401 21402 
2 20308 20309 
2 9577 9578 
1 9577 21402 
2 9578 9579 
1 3936 10579 
2 10579 10580 
1 9579 16069 
2 3935 3936 
2 11212 11213 
1 11212 20308 
2 18791 18792 
2 15788 15789 
2 15787 15788 
2 8044 8045 
1 8044 15787 
2 8045 8046 
2 10930 10931 
1 10930 17040 
2 10931 10932 
2 17039 17040 
2 12562 12563 
2 14914 14915 
2 21103 21104 
1 108 21103 
2 21104 21105 
2 7817 7818 
2 18457 18458 
1 18457 21105 
1 13119 21585 
2 13118 13119 
2 13117 13118 
2 5848 5849 
1 5848 13117 
2 2449 2450 
1 2449 7818 
2 8765 8766 
2 1957 1958 
1 1957 19122 
2 8764 8765 
2 19121 19122 
1 6780 8764 
1 8766 16992 
2 190 191 
1 190 17319 
2 19120 19121 
2 17318 17319 
1 17073 19120 
2 6779 6780 
2 3934 3935 
1 3934 5331 
2 4915 4916 
2 12532 12533 
1 504 12532 
2 503 504 
2 502 503 
1 502 4915 
2 5174 5175 
1 1677 5175 
2 1676 1677 
2 12533 12534 
2 1675 1676 
1 1675 8923 
2 12563 12564 
2 8242 8243 
1 8242 12564 
2 8243 8244 
2 14242 14243 
1 1239 14242 
2 1238 1239 
2 1237 1238 
1 1237 6663 
3 20332 20333 
3 20333 20334 
1 8340 20332 
2 14915 14916 
2 4574 4575 
2 6676 6677 
1 6676 14916 
2 6677 6678 
2 4573 4574 
2 1162 1163 
1 1162 4573 
1 6678 7269 
2 1163 1164 
2 16139 16140 
2 5849 5850 
1 285 2754 
2 284 285 
2 283 284 
1 283 3673 
2 3673 3674 
1 5676 15792 
2 5674 5675 
1 5674 16138 
1 14043 19365 
2 5675 5676 
2 16138 16139 
2 3674 3675 
2 191 192 
2 19217 19218 
2 2125 2126 
1 2125 19218 
2 2126 2127 
2 19216 19217 
1 192 6364 
2 6364 6365 
2 4132 4133 
1 4132 19216 
2 5774 5775 
2 7244 7245 
2 5773 5774 
1 5773 8572 
2 5893 5894 
2 8572 8573 
1 7245 7941 
2 5770 5771 
1 5770 5893 
2 5771 5772 
2 7940 7941 
2 5894 5895 
2 7939 7940 
1 7939 8097 
2 1741 1742 
1 1741 5772 
2 5551 5552 
1 5551 13126 
1 7356 19228 
1 1209 7354 
2 7354 7355 
2 7355 7356 
2 19228 19229 
2 17116 17117 
2 5552 5553 
1 5553 17116 
2 17117 17118 
2 20381 20382 
2 13126 13127 
2 12244 12245 
1 12244 15952 
2 15952 15953 
3 17174 17175 
2 7058 7059 
2 7057 7058 
1 7057 17934 
3 8561 8562 
3 422 423 
1 8562 16893 
2 16892 16893 
2 16891 16892 
1 16891 17175 
1 423 14691 
3 160 161 
1 160 13608 
3 13607 13608 
3 13606 13607 
1 13606 15954 
2 15953 15954 
2 8168 8169 
1 8169 17935 
3 17935 17936 
3 17936 17937 
3 2513 2514 
2 9143 9144 
3 2512 2513 
1 2512 9144 
1 2514 13486 
2 608 609 
3 13486 13487 
2 17932 17933 
2 7984 7985 
1 7984 17932 
2 448 449 
1 448 3547 
2 449 450 
3 17173 17174 
2 12935 12936 
1 12936 17242 
2 17242 17243 
2 17243 17244 
2 17933 17934 
1 16341 17173 
1 7335 17244 
3 14690 14691 
2 15052 15053 
2 115 116 
1 115 15052 
2 3998 3999 
2 14321 14322 
1 3999 14320 
2 14320 14321 
2 116 117 
3 14689 14690 
1 2676 14689 
2 3997 3998 
1 3997 20011 
2 16069 16070 
2 16070 16071 
2 15380 15381 
1 15381 16071 
1 15789 16464 
2 16463 16464 
1 11280 18792 
2 607 608 
1 607 3181 
2 3181 3182 
2 3182 3183 
2 17639 17640 
2 11279 11280 
2 11278 11279 
1 11278 17640 
2 8680 8681 
1 8680 10932 
2 8681 8682 
1 762 8682 
2 761 762 
2 3767 3768 
3 7477 7478 
1 3768 7477 
2 3547 3548 
2 107 108 
2 106 107 
1 106 17523 
2 3548 3549 
1 3549 18561 
2 3766 3767 
2 2450 2451 
1 2451 11722 
2 11722 11723 
2 11723 11724 
1 11724 19032 
1 11073 21150 
1 117 3550 
2 3550 3551 
2 14837 14838 
2 16991 16992 
2 21149 21150 
2 21148 21149 
2 14836 14837 
1 14836 21148 
2 17072 17073 
2 17071 17072 
2 322 323 
1 322 17071 
2 323 324 
2 3551 3552 
1 324 5857 
2 5173 5174 
1 5173 16836 
2 5330 5331 
2 5329 5330 
1 5329 9943 
2 9944 9945 
2 9943 9944 
2 16834 16835 
1 16834 17643 
2 16835 16836 
2 3028 3029 
1 3028 16462 
2 16462 16463 
2 17642 17643 
2 3029 3030 
1 8244 15280 
2 15280 15281 
2 17599 17600 
1 15282 17599 
2 15281 15282 
2 17600 17601 
2 17614 17615 
1 17614 18447 
3 12556 12557 
1 12556 21510 
3 21509 21510 
3 21508 21509 
3 4507 4508 
1 4507 21508 
3 4508 4509 
2 17522 17523 
2 17521 17522 
1 12882 17521 
2 7268 7269 
2 12881 12882 
2 7267 7268 
1 7267 15925 
2 707 708 
2 16990 16991 
2 4837 4838 
1 4837 16990 
1 10545 19029 
1 5850 10543 
2 10543 10544 
2 10544 10545 
2 15791 15792 
2 15790 15791 
2 706 707 
1 706 15790 
2 4838 4839 
1 4839 18046 
2 18046 18047 
2 19031 19032 
2 6365 6366 
2 2446 2447 
1 2446 6366 
2 2447 2448 
1 12003 12534 
2 4073 4074 
1 4074 5895 
2 12001 12002 
1 12001 12117 
2 12002 12003 
2 8096 8097 
2 8095 8096 
2 7204 7205 
1 7204 8095 
2 7205 7206 
2 6662 6663 
2 1208 1209 
2 17615 17616 
1 5082 17616 
2 7925 7926 
2 7924 7925 
1 4977 7924 
2 6661 6662 
1 6661 20503 
2 20503 20504 
2 20504 20505 
1 7926 17118 
2 20149 20150 
2 1207 1208 
1 1207 20149 
2 18313 18314 
2 18314 18315 
3 161 162 
1 162 18984 
2 18983 18984 
2 3694 3695 
1 3694 17937 
1 4005 13488 
3 13487 13488 
2 7985 7986 
2 10546 10547 
1 7986 10546 
2 10547 10548 
2 16340 16341 
2 16339 16340 
2 8597 8598 
1 8376 8598 
2 8596 8597 
1 8596 16339 
2 11764 11765 
1 11764 18982 
2 1138 1139 
1 1138 20013 
2 20011 20012 
2 18982 18983 
2 20012 20013 
2 2675 2676 
2 2674 2675 
1 1020 2674 
2 1019 1020 
2 1018 1019 
1 1018 3003 
2 15379 15380 
2 4004 4005 
2 3695 3696 
2 10642 10643 
1 10642 15379 
1 3696 13147 
2 13147 13148 
2 10643 10644 
2 18701 18702 
2 18700 18701 
1 13242 18700 
2 13241 13242 
2 13148 13149 
2 4003 4004 
1 4003 7405 
2 17638 17639 
1 3183 5386 
2 13240 13241 
1 13240 17638 
2 5386 5387 
2 5387 5388 
2 5179 5180 
1 5179 5388 
2 5180 5181 
3 7478 7479 
3 18074 18075 
3 18073 18074 
3 2962 2963 
1 2962 18073 
1 10548 18216 
2 18560 18561 
2 18559 18560 
1 12672 18559 
3 18215 18216 
3 18214 18215 
1 18214 20028 
2 21533 21534 
2 7334 7335 
2 7333 7334 
1 7333 21532 
2 21532 21533 
2 11659 11660 
2 11071 11072 
1 11071 11659 
2 1139 1140 
2 11072 11073 
2 11660 11661 
1 1140 15502 
1 2619 21534 
1 3552 11952 
2 11951 11952 
2 11950 11951 
2 826 827 
1 826 11950 
2 5857 5858 
2 5144 5145 
1 2340 9945 
1 10644 11113 
2 5143 5144 
2 2338 2339 
1 2338 5143 
2 11114 11115 
2 11113 11114 
2 2339 2340 
1 3030 11077 
2 11077 11078 
2 11078 11079 
2 1117 1118 
1 1117 11079 
2 21467 21468 
1 1785 21466 
2 760 761 
1 760 17131 
2 17131 17132 
2 17132 17133 
2 7783 7784 
1 7783 17601 
2 7784 7785 
1 17133 21423 
1 5277 7785 
2 21466 21467 
1 7479 12717 
3 17845 17846 
2 12716 12717 
2 12715 12716 
1 12715 17845 
3 17846 17847 
1 6861 9169 
3 9169 9170 
3 6859 6860 
3 6860 6861 
2 12671 12672 
2 12670 12671 
2 12880 12881 
1 12880 14001 
3 14000 14001 
3 3754 3755 
1 3754 12670 
3 13999 14000 
1 13999 21201 
2 751 752 
1 751 11661 
2 19030 19031 
2 6541 6542 
1 6541 19030 
2 6542 6543 
1 6543 9429 
2 21140 21141 
2 18047 18048 
1 18048 21139 
2 21139 21140 
3 9428 9429 
1 2448 4816 
1 5145 19081 
2 5858 5859 
2 4816 4817 
1 5859 9120 
2 4817 4818 
2 9119 9120 
2 12526 12527 
1 12526 18954 
2 12527 12528 
2 12115 12116 
1 12115 12528 
2 17641 17642 
1 183 17641 
2 12116 12117 
2 6251 6252 
2 6250 6251 
1 6250 7206 
2 182 183 
2 181 182 
1 181 18640 
2 18640 18641 
2 4976 4977 
1 18534 20505 
2 5080 5081 
1 5080 15981 
2 5081 5082 
2 9787 9788 
1 9787 18532 
2 18532 18533 
2 18533 18534 
2 9788 9789 
2 15980 15981 
2 15979 15980 
1 13734 15979 
2 4975 4976 
1 4975 5092 
2 5092 5093 
3 5936 5937 
3 20525 20526 
1 14775 20524 
3 20524 20525 
3 5935 5936 
1 5935 20526 
2 8375 8376 
2 11765 11766 
1 11766 15721 
1 15723 18766 
2 15722 15723 
2 15721 15722 
2 14774 14775 
2 14773 14774 
2 18766 18767 
2 3002 3003 
1 4311 9837 
2 9836 9837 
2 4310 4311 
2 7405 7406 
2 4309 4310 
1 4309 13149 
2 7406 7407 
2 1339 1340 
1 1339 7407 
2 1340 1341 
1 5181 7426 
2 7426 7427 
2 7427 7428 
2 19579 19580 
1 7428 19579 
3 17210 17211 
3 17209 17210 
3 15013 15014 
1 15013 17209 
2 8374 8375 
3 4946 4947 
3 9638 9639 
3 20027 20028 
1 4947 9639 
3 4945 4946 
1 4945 8374 
3 2161 2162 
1 2161 2617 
2 15502 15503 
2 18767 18768 
3 2617 2618 
3 2618 2619 
2 15503 15504 
1 9069 15504 
3 9068 9069 
2 3001 3002 
1 3001 4329 
2 827 828 
2 4328 4329 
1 828 2077 
2 2077 2078 
2 2078 2079 
2 18958 18959 
2 4327 4328 
1 4327 7144 
1 4482 18958 
2 18959 18960 
2 4481 4482 
2 6820 6821 
1 6820 18702 
2 6821 6822 
2 4480 4481 
1 4480 11115 
2 1118 1119 
2 2398 2399 
1 2398 6822 
1 1119 2863 
2 2399 2400 
2 2863 2864 
2 2864 2865 
2 19265 19266 
2 21422 21423 
2 19264 19265 
1 19170 19264 
2 20353 20354 
2 17146 17147 
1 17146 20353 
2 20354 20355 
2 484 485 
1 484 1783 
2 1784 1785 
2 21421 21422 
1 20355 21421 
2 1783 1784 
2 19169 19170 
2 19168 19169 
2 6697 6698 
1 6697 19168 
3 15964 15965 
3 2963 2964 
1 2964 10288 
3 10288 10289 
3 10289 10290 
1 10290 15964 
3 13754 13755 
3 15965 15966 
3 5074 5075 
1 5074 9171 
3 9170 9171 
3 18098 18099 
3 5734 5735 
1 5734 13755 
3 20026 20027 
3 5735 5736 
3 2162 2163 
3 3755 3756 
1 3756 18099 
1 5736 20026 
1 2163 20049 
2 752 753 
1 753 21229 
3 21229 21230 
3 21230 21231 
1 1320 21231 
3 2192 2193 
3 9067 9068 
1 2733 9067 
1 69 2193 
2 19081 19082 
2 124 125 
1 124 2079 
2 68 69 
2 18953 18954 
2 9118 9119 
2 67 68 
1 67 9118 
1 2298 19083 
2 2297 2298 
2 19082 19083 
2 2296 2297 
1 2296 12523 
2 125 126 
1 2865 14569 
2 14569 14570 
2 18641 18642 
2 15517 15518 
1 15517 18642 
2 15518 15519 
2 6352 6353 
1 6352 15519 
2 13381 13382 
2 7915 7916 
1 7915 13381 
2 13382 13383 
1 9789 11050 
2 485 486 
2 5276 5277 
2 11050 11051 
2 5275 5276 
1 5275 13383 
2 13733 13734 
2 13732 13733 
1 13732 19903 
2 19903 19904 
2 19904 19905 
1 486 2559 
1 1341 12505 
2 12505 12506 
2 12506 12507 
2 7651 7652 
1 7651 19581 
2 7652 7653 
2 19580 19581 
3 15014 15015 
3 9637 9638 
1 9637 10209 
3 17632 17633 
3 17633 17634 
1 16302 17634 
3 16300 16301 
1 16300 18768 
3 16301 16302 
3 15566 15567 
3 14038 14039 
1 14038 15567 
1 7146 15565 
3 15565 15566 
2 7145 7146 
2 7144 7145 
2 9835 9836 
2 151 152 
1 151 9835 
2 152 153 
1 18960 21288 
1 153 15727 
2 15727 15728 
2 15728 15729 
2 21287 21288 
2 14092 14093 
1 6036 14092 
1 2400 6034 
2 6034 6035 
2 6035 6036 
1 17148 21442 
2 21442 21443 
2 17147 17148 
3 5744 5745 
1 5745 6699 
2 6698 6699 
3 19354 19355 
2 6640 6641 
1 6640 17587 
3 13753 13754 
1 13753 19354 
3 17587 17588 
3 10208 10209 
3 7570 7571 
1 7570 17632 
3 4037 4038 
3 10207 10208 
1 10207 17589 
3 17588 17589 
3 20048 20049 
3 4036 4037 
1 4036 20047 
3 20047 20048 
3 2191 2192 
1 2191 10425 
3 559 560 
1 559 6808 
3 2732 2733 
3 560 561 
1 561 2731 
3 2731 2732 
1 10440 19995 
3 10439 10440 
3 6808 6809 
2 17444 17445 
3 10438 10439 
1 126 10438 
1 12525 17445 
3 12523 12524 
2 21286 21287 
1 1446 21286 
3 12524 12525 
2 1445 1446 
2 6353 6354 
2 21443 21444 
2 14570 14571 
2 3193 3194 
1 3193 14571 
2 15019 15020 
2 7916 7917 
2 3194 3195 
2 15020 15021 
1 7917 15021 
2 2557 2558 
2 2558 2559 
2 7387 7388 
1 7387 19905 
2 7388 7389 
3 3508 3509 
1 3508 15729 
1 3510 16705 
3 16705 16706 
3 3509 3510 
2 14093 14094 
3 5743 5744 
3 13060 13061 
2 6641 6642 
1 6642 13060 
3 7571 7572 
3 20009 20010 
1 7572 20008 
3 20008 20009 
3 14930 14931 
3 16513 16514 
1 16513 20787 
3 14039 14040 
3 19993 19994 
3 16706 16707 
1 14040 16515 
3 16514 16515 
3 19994 19995 
3 14929 14930 
1 14929 19993 
2 1444 1445 
1 1444 1560 
2 12743 12744 
3 20399 20400 
1 10629 12744 
3 1559 1560 
3 1558 1559 
1 1558 20400 
3 6419 6420 
1 6420 15019 
2 12742 12743 
1 12742 14094 
3 6418 6419 
1 6418 12948 
2 10754 10755 
3 10723 10724 
1 10723 10755 
3 10724 10725 
3 5125 5126 
3 5126 5127 
1 5127 10725 
3 20786 20787 
3 20785 20786 
1 12720 13561 
1 1830 13563 
3 13561 13562 
2 1829 1830 
3 13562 13563 
2 1828 1829 
1 1828 16707 
3 5986 5987 
1 5986 18661 
3 10627 10628 
3 10628 10629 
1 5988 10627 
3 5987 5988 
1 756 9003 
3 9002 9003 
3 9001 9002 
2 755 756 
2 754 755 
1 754 2410 
1 2412 21013 
2 2411 2412 
2 2410 2411 
3 11083 11084 
3 18443 18444 
3 18442 18443 
3 21013 21014 
3 21014 21015 
2 5018 5019 
2 5017 5018 
1 5017 21015 
2 11696 11697 
2 14927 14928 
3 11084 11085 
1 11085 16669 
3 16669 16670 
2 14668 14669 
1 14668 16671 
3 16670 16671 
2 14926 14927 
1 14928 20373 
3 3560 3561 
3 3559 3560 
1 3559 17103 
2 17102 17103 
2 17101 17102 
1 18444 21496 
2 21497 21498 
2 21496 21497 
1 1266 18309 
3 1265 1266 
2 18308 18309 
2 11599 11600 
1 11599 21498 
3 1264 1265 
2 20717 20718 
2 20716 20717 
2 13990 13991 
1 13990 20716 
2 13991 13992 
1 5019 20718 
3 3865 3866 
2 7630 7631 
1 2460 7630 
2 7631 7632 
2 14669 14670 
2 2459 2460 
1 7848 14670 
2 14029 14030 
1 14029 17101 
2 7847 7848 
2 14030 14031 
2 8137 8138 
1 8137 14031 
2 8138 8139 
2 1694 1695 
2 5521 5522 
1 5521 18000 
2 5522 5523 
1 1695 5523 
1 11601 12915 
2 18307 18308 
2 15061 15062 
1 15061 18307 
2 15062 15063 
1 1398 15063 
2 11600 11601 
2 1397 1398 
3 11116 11117 
3 9283 9284 
1 9283 13992 
1 3867 16512 
3 3866 3867 
1 7836 9285 
3 16511 16512 
3 9284 9285 
2 20059 20060 
2 20060 20061 
3 14846 14847 
3 14845 14846 
3 9815 9816 
3 9814 9815 
2 2458 2459 
1 2458 5539 
3 5539 5540 
3 5540 5541 
2 13615 13616 
1 5541 13615 
2 13616 13617 
2 15251 15252 
2 7846 7847 
1 7846 10011 
1 8139 8328 
2 17999 18000 
2 10010 10011 
2 10009 10010 
1 10009 12199 
3 12199 12200 
3 12200 12201 
2 8327 8328 
1 15252 17998 
2 17998 17999 
3 17144 17145 
3 17143 17144 
1 8544 17145 
2 8326 8327 
2 4594 4595 
1 4594 8326 
2 1396 1397 
1 1396 14925 
2 14924 14925 
2 14923 14924 
1 14923 21328 
2 21328 21329 
3 11117 11118 
1 3858 11118 
2 3857 3858 
2 3856 3857 
1 3856 9613 
2 232 233 
1 232 15361 
2 15361 15362 
2 2876 2877 
3 16510 16511 
2 233 234 
1 234 16510 
3 7835 7836 
3 7834 7835 
1 7834 16926 
2 16925 16926 
2 2875 2876 
1 2875 12400 
1 7068 20061 
1 2877 7066 
3 7066 7067 
3 7067 7068 
2 14485 14486 
1 14485 16516 
3 16517 16518 
3 16516 16517 
2 469 470 
1 469 14847 
2 11042 11043 
1 11043 15016 
2 470 471 
2 20957 20958 
2 20956 20957 
1 471 20956 
2 11041 11042 
1 11041 14512 
3 15016 15017 
3 15017 15018 
2 14486 14487 
1 993 13617 
2 992 993 
2 991 992 
1 991 13719 
1 12201 14197 
1 14199 15705 
2 14197 14198 
2 14198 14199 
2 13718 13719 
3 8543 8544 
3 8542 8543 
1 8542 8982 
2 8981 8982 
2 4595 4596 
2 21329 21330 
1 4596 7711 
2 7711 7712 
2 7712 7713 
1 7713 15475 
2 15475 15476 
3 9613 9614 
2 2000 2001 
1 2001 9615 
3 9614 9615 
2 8980 8981 
1 8980 12126 
3 301 302 
2 16924 16925 
2 1528 1529 
1 1528 16924 
2 12400 12401 
1 21195 21330 
2 21194 21195 
2 21193 21194 
2 16907 16908 
1 1530 19878 
2 19877 19878 
1 15363 16908 
2 15362 15363 
2 1529 1530 
2 12850 12851 
1 12850 21193 
2 16906 16907 
2 10972 10973 
1 10972 16906 
2 14648 14649 
2 14647 14648 
3 302 303 
1 303 14649 
2 19879 19880 
2 19880 19881 
1 14514 19879 
2 12299 12300 
2 14512 14513 
2 2743 2744 
1 2743 12402 
2 12401 12402 
2 2744 2745 
2 14513 14514 
2 12298 12299 
1 12298 20958 
2 15704 15705 
2 15703 15704 
1 8061 15703 
2 8060 8061 
2 9952 9953 
1 9952 13717 
2 13717 13718 
2 9953 9954 
1 9954 21573 
2 8059 8060 
1 2610 8059 
2 15476 15477 
1 11853 15477 
2 11852 11853 
2 11851 11852 
2 1999 2000 
1 1999 13122 
2 13121 13122 
2 12125 12126 
2 12124 12125 
1 7236 12124 
2 7235 7236 
2 10973 10974 
2 19876 19877 
1 19876 20265 
2 14779 14780 
2 13120 13121 
1 13120 14779 
2 12851 12852 
1 12852 18744 
2 18743 18744 
2 20264 20265 
1 16353 20263 
2 20263 20264 
2 14780 14781 
2 21308 21309 
2 21307 21308 
1 2745 21309 
2 14950 14951 
1 14950 21307 
2 2609 2610 
2 2608 2609 
1 2608 14422 
2 14422 14423 
2 14423 14424 
2 6619 6620 
1 6619 11851 
2 6620 6621 
2 4903 4904 
1 4903 6621 
2 3079 3080 
1 3079 20851 
2 20851 20852 
2 20852 20853 
2 3080 3081 
2 7234 7235 
1 7234 20853 
2 6928 6929 
1 6928 18445 
2 16352 16353 
2 4904 4905 
2 18742 18743 
1 14781 16555 
2 16555 16556 
2 16556 16557 
2 91 92 
1 91 16557 
1 6930 18742 
2 16351 16352 
1 16351 18696 
2 18445 18446 
2 6929 6930 
1 13878 20502 
2 14951 14952 
2 13877 13878 
2 18695 18696 
2 13876 13877 
1 13876 14952 
2 18694 18695 
1 5007 18694 
1 5199 14424 
2 5198 5199 
2 5197 5198 
1 5197 8872 
2 8872 8873 
2 8873 8874 
2 20290 20291 
1 3081 20290 
2 18446 18447 
2 17489 17490 
1 17490 17496 
2 92 93 
2 20291 20292 
2 17488 17489 
1 4905 17488 
1 93 2413 
2 2413 2414 
2 2414 2415 
1 2415 18868 
1 10422 20292 
2 5006 5007 
2 5005 5006 
1 5005 8115 
2 8114 8115 
2 8113 8114 
1 8113 19188 
2 7931 7932 
2 11755 11756 
2 7930 7931 
1 7930 8874 
2 11756 11757 
1 7932 19266 
2 18868 18869 
2 18869 18870 
2 10421 10422 
2 10420 10421 
1 10420 12865 
2 12865 12866 
2 12866 12867 
2 17495 17496 
2 17494 17495 
1 17494 21468 
2 748 749 
1 748 18870 
2 3445 3446 
1 3445 19186 
2 19186 19187 
2 19187 19188 
2 3446 3447 
2 749 750 
1 5445 12867 
2 5444 5445 
2 5443 5444 
1 5443 17416 
2 17416 17417 
2 17417 17418 
1 2004 3447 
1 750 13306 
3 13306 13307 
3 13307 13308 
1 13308 13450 
2 13450 13451 
2 13451 13452 
1 13452 16471 
2 16471 16472 
2 7768 7769 
2 11302 11303 
1 11302 13185 
2 11303 11304 
2 7769 7770 
1 1200 16789 
2 1199 1200 
2 1198 1199 
1 1198 7770 
2 16789 16790 
2 9235 9236 
1 9235 16869 
3 8339 8340 
3 10651 10652 
2 13184 13185 
2 13183 13184 
1 13183 16639 
1 1164 10651 
3 5791 5792 
3 5792 5793 
2 16790 16791 
1 10806 19483 
2 16868 16869 
2 16867 16868 
1 2484 16867 
2 2483 2484 
2 2482 2483 
1 2482 11854 
3 11854 11855 
2 16639 16640 
2 19483 19484 
2 19484 19485 
2 10763 10764 
1 10494 20583 
3 10493 10494 
3 10492 10493 
1 10492 16641 
2 10805 10806 
2 16640 16641 
2 10915 10916 
1 6459 10915 
2 10916 10917 
1 10917 16791 
3 6458 6459 
3 314 315 
3 313 314 
1 315 13207 
3 8338 8339 
3 2779 2780 
1 2779 8338 
3 2780 2781 
1 2781 21484 
3 21484 21485 
1 9768 10653 
3 9767 9768 
3 9766 9767 
3 10652 10653 
3 7900 7901 
1 7900 9766 
3 20234 20235 
3 20233 20234 
3 21485 21486 
1 2715 10933 
2 10933 10934 