ITEM: TIMESTEP
60000000
ITEM: NUMBER OF ATOMS
7113
ITEM: BOX BOUNDS pp pp pp
0.0000000000000000e+00 5.0000000000000000e+01
0.0000000000000000e+00 5.0000000000000000e+01
0.0000000000000000e+00 5.0000000000000000e+01
ITEM: ATOMS id type xs ys zs
17670 1 0.544514 0.515493 0.12215
14703 1 0.549829 0.513426 0.139686
17668 1 0.549156 0.51424 0.137023
17669 2 0.546996 0.515248 0.129884
14702 2 0.549686 0.512029 0.147352
11590 1 0.459148 0.559275 0.148753
10879 1 0.463169 0.5673 0.132016
10880 2 0.460029 0.564498 0.139469
10881 1 0.458592 0.560925 0.146115
2906 3 0.553872 0.456872 0.165153
12046 1 0.499655 0.462664 0.182006
2905 1 0.549344 0.46046 0.160485
5503 1 0.531986 0.475646 0.173765
5504 3 0.533456 0.472007 0.181101
6313 1 0.521322 0.512032 0.157692
6314 2 0.524305 0.509033 0.163922
6315 1 0.527014 0.505216 0.1701
966 1 0.555701 0.505339 0.175526
14701 1 0.550366 0.510518 0.155355
4045 1 0.550855 0.509746 0.158345
9925 1 0.527916 0.503688 0.172404
9926 3 0.531518 0.499547 0.179062
4046 3 0.552637 0.508263 0.164223
12317 3 0.540151 0.518744 0.182598
4047 1 0.554606 0.50633 0.172389
11592 1 0.46502 0.550186 0.160388
2275 1 0.466571 0.54914 0.162767
2276 2 0.471599 0.545798 0.167642
2277 1 0.477219 0.543663 0.172267
15312 1 0.48001 0.542282 0.174273
15311 3 0.485942 0.53911 0.179215
12278 2 0.514615 0.545798 0.183675
17829 1 0.537776 0.522995 0.173111
12318 1 0.538681 0.522055 0.175389
17828 2 0.534218 0.527271 0.167277
17827 1 0.529038 0.531836 0.161736
11591 2 0.461333 0.554167 0.155057
6108 1 0.510112 0.556055 0.181801
12277 1 0.511477 0.553593 0.181887
6106 1 0.504933 0.56958 0.182007
6107 2 0.507577 0.563167 0.182383
12577 1 0.555549 0.616444 0.177799
10479 1 0.535032 0.434521 0.20637
16348 1 0.538553 0.458377 0.207675
16349 2 0.54189 0.457092 0.214541
1773 1 0.537412 0.459066 0.205577
10478 2 0.536087 0.43251 0.214885
15060 1 0.557236 0.433266 0.194669
12047 2 0.500751 0.465706 0.190278
20546 3 0.509551 0.471605 0.206572
20547 1 0.515333 0.47201 0.212452
20545 1 0.505336 0.469612 0.200334
12048 1 0.504002 0.468894 0.197735
15513 1 0.517131 0.471945 0.214036
5505 1 0.533408 0.467975 0.188301
1771 1 0.53383 0.46651 0.191224
1772 2 0.534763 0.462283 0.198644
7727 2 0.546451 0.482055 0.208752
7726 1 0.541443 0.485298 0.202036
18237 1 0.539926 0.486264 0.199571
7728 1 0.548875 0.480505 0.215079
16507 1 0.554982 0.470729 0.199544
13378 1 0.513236 0.502219 0.192185
13379 3 0.517404 0.501573 0.198501
13380 1 0.522463 0.499979 0.203975
8332 1 0.524615 0.499538 0.206176
15924 1 0.505818 0.520898 0.20395
15923 3 0.506737 0.518058 0.21128
18235 1 0.533641 0.494896 0.188182
18236 3 0.536381 0.490373 0.193652
9927 1 0.532691 0.496064 0.185444
17348 3 0.54579 0.510492 0.198981
17349 1 0.54236 0.514308 0.192166
12316 1 0.541714 0.515504 0.189474
17347 1 0.548416 0.507082 0.206037
8333 2 0.529111 0.498458 0.212442
8430 1 0.532563 0.520333 0.214037
3056 2 0.553096 0.502561 0.214711
3057 1 0.549164 0.505937 0.208474
15310 1 0.491024 0.537684 0.184851
4401 1 0.492885 0.537543 0.187725
4400 2 0.496561 0.538213 0.194506
12279 1 0.517338 0.539156 0.186661
17810 3 0.520856 0.532654 0.193667
17809 1 0.518201 0.537217 0.188187
4399 1 0.499881 0.539967 0.20193
3417 1 0.501655 0.540366 0.204443
3416 3 0.506346 0.541057 0.210442
17811 1 0.524764 0.527924 0.199635
8428 1 0.525846 0.526742 0.201611
10577 3 0.554447 0.529487 0.211935
8429 3 0.529149 0.523525 0.208017
9028 1 0.540643 0.548341 0.215072
10576 1 0.552741 0.535766 0.207307
9030 1 0.531027 0.555555 0.203137
9029 3 0.535493 0.551856 0.208779
21407 2 0.554849 0.44201 0.244253
16350 1 0.544801 0.453935 0.220915
10477 1 0.536896 0.430771 0.223232
1031 3 0.535346 0.430129 0.234473
1030 1 0.534791 0.429039 0.242964
1032 1 0.536906 0.430555 0.226536
18265 1 0.546069 0.453113 0.223599
18266 2 0.548777 0.451494 0.23059
21406 1 0.552715 0.446609 0.239271
18267 1 0.551767 0.448215 0.23745
15512 2 0.523287 0.47194 0.217992
12438 1 0.521553 0.48616 0.237003
12437 2 0.519189 0.489459 0.229712
15511 1 0.528249 0.471418 0.223769
5655 1 0.550169 0.478766 0.218056
4644 1 0.539366 0.464361 0.241504
5836 1 0.538031 0.465633 0.239634
5838 1 0.529681 0.471276 0.226545
5837 2 0.533974 0.470175 0.233882
21507 1 0.545293 0.488011 0.237992
19353 1 0.544245 0.489075 0.235505
21506 2 0.548927 0.483517 0.244353
5654 2 0.553638 0.474876 0.224036
5653 1 0.556938 0.470037 0.230393
11395 1 0.509589 0.516214 0.221436
15922 1 0.508927 0.51672 0.2187
12436 1 0.517914 0.49138 0.222001
11397 1 0.5169 0.511255 0.235796
11396 2 0.51269 0.514879 0.229304
16674 1 0.518433 0.510681 0.237583
16673 2 0.523944 0.508976 0.243582
13555 1 0.554103 0.507938 0.24535
3055 1 0.557249 0.499773 0.221179
15183 1 0.533585 0.519105 0.215838
19352 2 0.539795 0.493381 0.229374
8334 1 0.534402 0.497542 0.219424
19351 1 0.535801 0.496315 0.222286
15182 2 0.537327 0.516273 0.223331
15181 1 0.541624 0.513273 0.229956
769 1 0.543123 0.51259 0.232764
770 2 0.547868 0.511132 0.238064
771 1 0.552609 0.509442 0.243924
9061 1 0.486767 0.539111 0.218391
9062 3 0.490413 0.539253 0.22484
9063 1 0.494636 0.538458 0.230137
7833 1 0.496813 0.537868 0.232811
900 1 0.509197 0.532051 0.245536
3415 1 0.511433 0.541454 0.217092
14724 1 0.514137 0.541871 0.219132
7832 2 0.502857 0.535517 0.238737
7831 1 0.507646 0.533296 0.243938
14723 2 0.518588 0.542559 0.22544
14722 1 0.524284 0.542143 0.230505
20082 1 0.526503 0.541467 0.232178
8035 1 0.542347 0.546759 0.217768
20081 2 0.530867 0.538286 0.237288
7530 1 0.551827 0.539076 0.233101
8036 2 0.546644 0.543294 0.22426
8037 1 0.550288 0.540385 0.231075
9751 1 0.537235 0.531942 0.244273
20080 1 0.535982 0.533915 0.242071
7529 2 0.556206 0.534615 0.237747
9673 1 0.507604 0.569006 0.228879
9674 3 0.514868 0.565371 0.230239
20050 1 0.526036 0.564311 0.234084
9675 1 0.522966 0.564888 0.232805
17776 1 0.508207 0.551951 0.245474
14588 2 0.546904 0.554226 0.244293
20052 1 0.539664 0.558569 0.239438
20051 2 0.532577 0.561209 0.236136
14587 1 0.541795 0.557493 0.240539
5746 1 0.549406 0.576903 0.222255
5747 2 0.553738 0.574523 0.229322
13272 1 0.534732 0.42891 0.246235
14673 1 0.536009 0.428229 0.265442
13270 1 0.535691 0.427782 0.262036
13271 2 0.535485 0.42799 0.254177
1453 1 0.553231 0.446933 0.270535
259 1 0.551619 0.448626 0.268401
14672 2 0.537996 0.430057 0.273499
4642 1 0.544229 0.458004 0.254966
261 1 0.544865 0.456969 0.257209
260 2 0.547929 0.452864 0.263284
15769 1 0.512585 0.487477 0.261485
15770 3 0.517827 0.482192 0.263847
15771 1 0.524379 0.476929 0.266584
2878 1 0.526792 0.475207 0.267711
4643 2 0.541545 0.461207 0.247527
8152 1 0.554067 0.477105 0.252402
2879 2 0.532891 0.472525 0.271909
18486 1 0.548558 0.488386 0.272128
21505 1 0.552451 0.478255 0.250029
235 1 0.549446 0.487158 0.273608
3263 2 0.524271 0.518064 0.264028
3264 1 0.526696 0.512483 0.26836
16672 1 0.529542 0.505425 0.247317
8824 1 0.531335 0.503893 0.2488
18485 2 0.544973 0.491828 0.266148
9243 1 0.52797 0.510856 0.269989
18484 1 0.541954 0.495528 0.260378
8826 1 0.540645 0.496955 0.258205
8825 2 0.535512 0.499319 0.253
7325 2 0.545536 0.516271 0.264725
7324 1 0.548639 0.511989 0.27141
17946 1 0.549953 0.510344 0.273711
9242 2 0.531624 0.506913 0.275716
17777 3 0.515425 0.5513 0.247607
898 1 0.51958 0.525305 0.25712
3262 1 0.520997 0.523672 0.259222
899 2 0.514959 0.528739 0.250512
17778 1 0.522082 0.551137 0.250462
1662 1 0.52455 0.55102 0.25223
9753 1 0.541393 0.522774 0.256689
7326 1 0.542597 0.520975 0.258672
9772 1 0.533681 0.533289 0.275364
14589 1 0.552891 0.551454 0.248439
84 1 0.555271 0.550441 0.25067
1661 2 0.529863 0.549308 0.256498
243 1 0.550205 0.534758 0.273809
9752 2 0.539076 0.526973 0.250839
3309 1 0.548288 0.536693 0.272032
3308 2 0.544093 0.541843 0.267279
3307 1 0.537964 0.54588 0.263185
1660 1 0.53552 0.546926 0.261352
1821 1 0.533804 0.581173 0.252485
1820 2 0.539062 0.577868 0.256912
5697 1 0.557225 0.56107 0.270638
5695 1 0.54767 0.571798 0.261418
1819 1 0.545517 0.573659 0.260165
5696 2 0.552698 0.566178 0.265915
14671 1 0.540463 0.428368 0.280685
17629 1 0.541261 0.428069 0.283306
17630 2 0.543473 0.42569 0.290819
13758 1 0.549083 0.4257 0.30055
17631 1 0.547608 0.425575 0.297699
11564 2 0.552719 0.45251 0.297207
7294 1 0.546846 0.456914 0.289859
11565 1 0.54807 0.455831 0.291885
1454 2 0.556626 0.442335 0.277076
237 1 0.555161 0.478333 0.285686
7295 2 0.542616 0.461192 0.284115
7296 1 0.538456 0.465697 0.27877
2880 1 0.537285 0.467152 0.277457
236 2 0.552064 0.482642 0.279449
19019 2 0.546694 0.488339 0.306603
7158 1 0.556389 0.476502 0.28831
17945 2 0.554042 0.506409 0.280137
19018 1 0.542994 0.491414 0.299927
20866 1 0.541764 0.492781 0.297272
20867 2 0.537998 0.4955 0.291139
20868 1 0.534734 0.500978 0.284663
9241 1 0.533886 0.503174 0.28216
1281 1 0.548802 0.51117 0.301183
16264 1 0.546784 0.512423 0.299187
16265 2 0.542283 0.51586 0.294414
16266 1 0.539922 0.520206 0.288136
1280 2 0.553359 0.508891 0.306534
13541 2 0.544941 0.550098 0.292979
9774 1 0.538553 0.52196 0.28621
9773 2 0.534841 0.526872 0.281605
13542 1 0.546315 0.547277 0.30109
242 2 0.555723 0.530707 0.277203
13540 1 0.544746 0.552622 0.285351
13757 2 0.551817 0.425688 0.308876
4803 1 0.556443 0.421592 0.318495
13756 1 0.555542 0.422448 0.316136
16726 1 0.550829 0.483041 0.315871
19020 1 0.549223 0.484308 0.313569
16727 2 0.553859 0.48032 0.322979
1279 1 0.55718 0.506118 0.312544
19603 1 0.557222 0.447121 0.356152
5811 1 0.55522 0.692341 0.997669
15794 2 0.551868 0.699153 0.990602
15795 1 0.554263 0.693985 0.995717
15793 1 0.550388 0.704544 0.984158
8670 1 0.591543 0.476724 0.127414
6639 1 0.610923 0.469126 0.126547
17503 1 0.599071 0.48739 0.107805
10343 2 0.632667 0.480831 0.127711
10342 1 0.628763 0.487062 0.12279
15456 1 0.658826 0.473886 0.123581
20670 1 0.659138 0.474691 0.126446
15454 1 0.658032 0.466069 0.110708
15455 2 0.658341 0.471166 0.11629
16242 1 0.59995 0.454122 0.15261
16708 1 0.600371 0.451589 0.155052
1215 1 0.621531 0.453445 0.156293
19773 1 0.622204 0.451814 0.158657
13727 2 0.642073 0.454484 0.153744
13726 1 0.643652 0.448383 0.158648
16241 2 0.598726 0.459895 0.146568
1214 2 0.619292 0.458273 0.151599
8669 3 0.593356 0.47238 0.133758
16240 1 0.596772 0.465303 0.141136
8668 1 0.595822 0.467083 0.138769
1213 1 0.616714 0.461956 0.145185
6637 1 0.61605 0.462961 0.141802
6638 3 0.613476 0.465927 0.134261
18515 3 0.607731 0.475463 0.15737
18514 1 0.608714 0.480754 0.151795
12468 1 0.609288 0.483274 0.149642
13728 1 0.640548 0.459972 0.147899
16584 1 0.639942 0.462392 0.145546
10344 1 0.636251 0.475632 0.131926
16582 1 0.637515 0.473276 0.133592
16583 2 0.63884 0.467137 0.13971
13940 2 0.631815 0.483035 0.15767
10472 2 0.656492 0.46987 0.151173
10473 1 0.655105 0.467696 0.158746
20669 2 0.658095 0.474873 0.133678
20668 1 0.657266 0.473685 0.141749
10471 1 0.657396 0.473006 0.144505
12443 2 0.588047 0.426474 0.191553
9496 1 0.65599 0.426155 0.189416
12444 1 0.58569 0.431426 0.185524
14949 1 0.568874 0.448744 0.188044
14116 1 0.567869 0.449161 0.185513
14117 3 0.564195 0.451003 0.179223
16201 1 0.586384 0.45321 0.174417
16202 2 0.589939 0.449886 0.180897
16203 1 0.591001 0.448376 0.188528
7203 1 0.591655 0.448073 0.191266
14118 1 0.559696 0.452959 0.173516
2907 1 0.558297 0.454039 0.171028
16709 2 0.600898 0.446045 0.161202
19585 1 0.606853 0.427458 0.185541
13165 1 0.606178 0.428516 0.183044
16710 1 0.60278 0.441859 0.168468
13167 1 0.603261 0.440275 0.171385
13166 2 0.604605 0.434281 0.176678
19250 2 0.614338 0.455598 0.185836
19772 2 0.623434 0.447213 0.164788
19251 1 0.615872 0.451946 0.191591
19771 1 0.625342 0.442568 0.172396
21382 1 0.625495 0.441185 0.174835
9312 1 0.644049 0.446282 0.160609
2516 2 0.652246 0.432624 0.182687
21384 1 0.627959 0.434794 0.188703
9311 2 0.646721 0.441653 0.166415
21383 2 0.626668 0.437426 0.181674
9310 1 0.649079 0.437796 0.172583
2517 1 0.649754 0.43643 0.174728
10305 1 0.638271 0.451773 0.187171
9255 1 0.638701 0.449988 0.18972
8566 1 0.628788 0.433099 0.191293
10304 2 0.636367 0.456584 0.181175
9992 2 0.65794 0.454219 0.183999
2515 1 0.655463 0.427695 0.187179
9993 1 0.659513 0.449221 0.190099
2888 2 0.576675 0.468722 0.187635
2889 1 0.575975 0.468272 0.180049
18516 1 0.606386 0.471657 0.163964
6085 1 0.60655 0.470404 0.166271
19249 1 0.61138 0.459701 0.180274
6087 1 0.610424 0.461637 0.178313
6086 2 0.608458 0.466874 0.172882
21499 1 0.602393 0.481067 0.188113
17436 1 0.624413 0.482915 0.18308
14218 1 0.601653 0.482553 0.185833
14219 2 0.599515 0.486347 0.179147
4791 1 0.623603 0.484552 0.180868
13154 2 0.655813 0.465207 0.168569
13939 1 0.631168 0.478028 0.1611
17113 1 0.631101 0.475099 0.163108
17435 2 0.626447 0.478147 0.189966
17114 2 0.632159 0.469456 0.168414
10303 1 0.634041 0.461438 0.175786
17115 1 0.633579 0.463312 0.17403
13019 2 0.647343 0.475302 0.191096
13018 1 0.645073 0.480376 0.1855
6382 1 0.644261 0.482146 0.183548
6383 2 0.642498 0.487464 0.177424
13155 1 0.657063 0.461552 0.174861
13153 1 0.655014 0.467332 0.161808
9991 1 0.657313 0.459562 0.177064
9292 1 0.60204 0.396602 0.223357
12442 1 0.588748 0.419469 0.196496
17736 1 0.588855 0.416787 0.198353
17735 3 0.590315 0.41068 0.203019
19586 2 0.609816 0.42513 0.192129
17734 1 0.59299 0.40707 0.209228
9294 1 0.594187 0.405316 0.211511
9293 2 0.597771 0.400425 0.217011
2933 2 0.614499 0.416075 0.207339
19587 1 0.611196 0.421438 0.197962
2932 1 0.611691 0.419996 0.200916
2934 1 0.616855 0.411968 0.213433
19671 1 0.617841 0.410424 0.215365
19670 2 0.621178 0.407014 0.222101
8568 1 0.63593 0.423876 0.202702
9324 1 0.63738 0.42215 0.204048
9323 2 0.641449 0.416385 0.208585
9322 1 0.643695 0.412964 0.215377
5338 1 0.644845 0.411362 0.218083
9497 2 0.657815 0.422396 0.195897
14948 2 0.571863 0.4465 0.194958
14947 1 0.574807 0.442922 0.201452
2434 1 0.576053 0.441148 0.203976
2435 2 0.579765 0.438028 0.209147
2436 1 0.583162 0.435162 0.216147
12993 1 0.584363 0.433016 0.219169
5498 2 0.567268 0.455503 0.21878
11309 2 0.589961 0.454563 0.219418
18721 1 0.55884 0.432676 0.21271
18722 2 0.560852 0.430883 0.219958
15058 1 0.558437 0.432854 0.210018
15059 2 0.557628 0.433772 0.201844
15685 1 0.606082 0.434068 0.221263
17208 1 0.616944 0.450717 0.193887
7202 2 0.594754 0.44638 0.198392
7968 1 0.604864 0.435993 0.219324
17207 2 0.620352 0.447327 0.20035
7201 1 0.596987 0.443021 0.204548
7966 1 0.597806 0.441784 0.206917
7967 2 0.60193 0.43933 0.213412
9803 2 0.615372 0.455217 0.221834
17206 1 0.62262 0.442704 0.207081
3904 1 0.623287 0.441285 0.209626
3905 2 0.625677 0.436655 0.215353
8567 2 0.631725 0.428165 0.197063
3906 1 0.628522 0.432292 0.22103
9254 2 0.640984 0.445563 0.196184
12582 1 0.653363 0.432697 0.219917
4336 1 0.652108 0.434472 0.217098
9253 1 0.644506 0.440938 0.201927
4337 2 0.648166 0.437081 0.211155
4338 1 0.645809 0.439522 0.204252
9455 2 0.638644 0.455758 0.218417
21033 1 0.629893 0.430952 0.223001
19110 1 0.658829 0.456968 0.211635
3916 1 0.571367 0.487914 0.204697
5497 1 0.563861 0.460257 0.212707
2887 1 0.579068 0.468113 0.195188
4866 1 0.580421 0.46777 0.198509
4864 1 0.585779 0.462143 0.211727
4865 2 0.583562 0.466258 0.205238
2314 1 0.577023 0.478415 0.219046
3918 1 0.576426 0.479666 0.21665
3917 2 0.573775 0.483539 0.210711
16509 1 0.562943 0.461968 0.210137
11310 1 0.58701 0.460118 0.213814
16508 2 0.559537 0.466373 0.205383
21500 2 0.603691 0.476164 0.193995
9804 1 0.611513 0.459609 0.215696
21501 1 0.605806 0.471864 0.199118
15813 1 0.599664 0.48148 0.216413
20506 1 0.61091 0.460664 0.213528
20508 1 0.606483 0.469904 0.201557
20507 2 0.608196 0.464563 0.207223
15615 1 0.600958 0.479478 0.218322
4197 1 0.620982 0.479603 0.217044
19929 1 0.619726 0.481375 0.214435
15812 2 0.595273 0.487067 0.211774
4196 2 0.624001 0.475139 0.222542
19928 2 0.617793 0.486167 0.208163
17434 1 0.628301 0.47297 0.196553
3346 1 0.629144 0.471195 0.198472
13020 1 0.649528 0.47003 0.196443
5851 1 0.650017 0.468265 0.198382
9456 1 0.636868 0.460187 0.211716
3348 1 0.635946 0.461672 0.20928
5853 1 0.657048 0.458312 0.209533
3347 2 0.631912 0.466081 0.204174
5852 2 0.653131 0.463401 0.204082
4018 1 0.64434 0.481708 0.214902
19962 1 0.644773 0.480221 0.217458
4019 2 0.641329 0.485749 0.209586
2566 1 0.658491 0.488077 0.202135
4404 1 0.660055 0.486441 0.204162
1342 1 0.6033 0.39569 0.226123
5627 2 0.610053 0.386393 0.248816
5628 1 0.607584 0.388584 0.243079
1344 1 0.607448 0.390165 0.240192
5626 1 0.613664 0.384224 0.25433
1343 2 0.606184 0.392676 0.233434
1776 1 0.630195 0.392219 0.241641
12712 1 0.631107 0.39016 0.243783
5261 2 0.649211 0.395286 0.237302
5262 1 0.651908 0.391458 0.243656
12713 2 0.63364 0.385494 0.250385
2929 1 0.652825 0.3895 0.246267
2930 2 0.656068 0.384724 0.253017
7903 1 0.564096 0.426602 0.229774
12991 1 0.590138 0.425172 0.230102
7904 3 0.566954 0.422087 0.236971
7905 1 0.570688 0.418184 0.242629
20056 1 0.571906 0.416977 0.244573
20057 2 0.575508 0.412731 0.250113
19918 1 0.591661 0.423461 0.232443
19919 2 0.594103 0.418932 0.237759
19920 1 0.596386 0.413479 0.243408
4534 1 0.597671 0.41139 0.245635
15687 1 0.612909 0.423967 0.234239
19463 2 0.617165 0.416851 0.241536
19462 1 0.619492 0.412634 0.24706
19524 1 0.620288 0.411155 0.248955
19464 1 0.613889 0.422268 0.236597
1774 1 0.624831 0.400396 0.230675
19669 1 0.623963 0.402171 0.228369
4535 2 0.600937 0.407388 0.25243
19523 2 0.623042 0.406976 0.255433
5339 2 0.646185 0.406466 0.224211
15501 1 0.660058 0.421518 0.233684
1775 2 0.627764 0.396963 0.235736
5260 1 0.647793 0.399996 0.231395
5340 1 0.647105 0.401804 0.229797
16713 1 0.639407 0.421381 0.235875
16712 2 0.642482 0.416631 0.241389
16711 1 0.644197 0.412018 0.247657
5818 1 0.644894 0.41055 0.250065
21031 1 0.637874 0.422686 0.234112
21032 2 0.633204 0.4271 0.228236
12580 1 0.658639 0.423246 0.231193
12992 2 0.586611 0.42827 0.224906
18723 1 0.562802 0.427757 0.226957
5499 1 0.570452 0.452611 0.224968
6228 1 0.571682 0.451138 0.227401
6227 2 0.574578 0.446905 0.233656
6226 1 0.578574 0.441363 0.238788
2833 1 0.579962 0.439663 0.240769
2834 2 0.582993 0.435028 0.247388
15782 2 0.568012 0.453907 0.254121
412 1 0.559374 0.435948 0.252605
2835 1 0.587097 0.431269 0.254085
21408 1 0.55872 0.438317 0.250013
15686 2 0.609818 0.429044 0.227756
9802 1 0.617567 0.450709 0.228034
11308 1 0.59302 0.451619 0.225833
15260 2 0.592522 0.455262 0.254713
20076 1 0.618582 0.449272 0.230162
21153 1 0.594095 0.450303 0.228125
21152 2 0.597314 0.446805 0.234739
20075 2 0.621958 0.444683 0.236104
21151 1 0.601148 0.443063 0.241914
12030 1 0.602368 0.441526 0.245198
12029 2 0.604918 0.438331 0.251416
13262 2 0.616679 0.454842 0.254248
12028 1 0.607908 0.432569 0.255922
9454 1 0.640222 0.451985 0.224877
9138 1 0.640902 0.45065 0.227128
12581 2 0.655071 0.427751 0.226149
20074 1 0.626591 0.440797 0.241376
3108 1 0.628177 0.439221 0.243412
4852 1 0.656327 0.428024 0.254733
4407 1 0.655426 0.429117 0.252389
3107 2 0.630799 0.435164 0.249182
9137 2 0.644179 0.446421 0.233622
9136 1 0.646675 0.441127 0.239424
4405 1 0.647935 0.439729 0.241482
4406 2 0.651966 0.434568 0.246457
14273 2 0.636985 0.456658 0.250544
3106 1 0.633605 0.430113 0.254459
270 1 0.55832 0.468598 0.232705
2315 2 0.580902 0.474775 0.224609
15259 1 0.589968 0.458515 0.248245
15783 1 0.565566 0.45937 0.247493
268 1 0.564869 0.460939 0.245754
19786 1 0.588457 0.460113 0.245544
2316 1 0.582332 0.470512 0.23251
19788 1 0.583243 0.468889 0.234745
19787 2 0.586247 0.463821 0.239503
10828 1 0.572957 0.480228 0.250924
10564 1 0.574713 0.479002 0.253434
269 2 0.562269 0.46456 0.239705
10829 2 0.569605 0.484518 0.244677
15614 2 0.602802 0.474481 0.225201
13261 1 0.613741 0.458416 0.247423
4618 1 0.612181 0.459682 0.245237
15613 1 0.606202 0.469237 0.230834
4619 2 0.608575 0.463164 0.238594
4620 1 0.607294 0.467179 0.232864
19212 1 0.622443 0.479789 0.246513
8436 1 0.599914 0.477532 0.251339
17224 1 0.623547 0.478167 0.248658
19211 2 0.61759 0.484228 0.239932
8435 2 0.596017 0.48279 0.245594
15489 1 0.600864 0.476344 0.253695
8434 1 0.592423 0.487026 0.240428
10894 1 0.640466 0.485293 0.23941
19961 2 0.646675 0.475431 0.224255
14274 1 0.633491 0.460857 0.244827
4195 1 0.627073 0.471513 0.228664
16680 1 0.658563 0.460463 0.242972
15 1 0.632545 0.462423 0.242485
13 1 0.62829 0.470166 0.231026
19960 1 0.651343 0.471122 0.229763
16679 2 0.65606 0.46416 0.237002
14 2 0.631099 0.466417 0.237008
11468 2 0.645046 0.480029 0.248195
16678 1 0.65274 0.469199 0.231746
11469 1 0.646855 0.47549 0.254706
11467 1 0.641871 0.483538 0.242038
8718 1 0.659623 0.458338 0.244636
9984 1 0.623422 0.362418 0.28144
4144 1 0.624039 0.3611 0.283581
18552 1 0.648498 0.358773 0.284733
1381 1 0.649165 0.35629 0.286635
18551 2 0.647145 0.364204 0.278456
20135 2 0.590205 0.396373 0.27841
480 1 0.614447 0.383394 0.256764
20136 1 0.593392 0.39452 0.286082
479 2 0.616873 0.379355 0.263284
478 1 0.618867 0.374653 0.267973
9982 1 0.619761 0.372743 0.270022
9983 2 0.621334 0.367262 0.275836
20098 1 0.611253 0.392713 0.276369
14245 1 0.61032 0.394596 0.273858
20099 2 0.615425 0.389298 0.28211
20100 1 0.618269 0.385674 0.287564
11576 2 0.658689 0.382391 0.28394
18550 1 0.643951 0.36975 0.27245
14238 1 0.634179 0.394503 0.277353
7921 1 0.634762 0.392949 0.279645
1317 1 0.643238 0.371579 0.270315
12714 1 0.636823 0.382026 0.256853
1315 1 0.637475 0.380688 0.259029
1316 2 0.640367 0.377009 0.265469
20826 1 0.655892 0.390156 0.276491
11575 1 0.656966 0.387964 0.278308
20825 2 0.653013 0.395017 0.27117
2931 1 0.658427 0.379149 0.258296
7922 2 0.637609 0.387568 0.28544
883 1 0.659757 0.377456 0.26071
20058 1 0.577742 0.408605 0.256716
20134 1 0.586233 0.39891 0.271978
523 1 0.584642 0.400046 0.269639
525 1 0.578615 0.406807 0.258988
524 2 0.581873 0.403181 0.264105
19493 2 0.568091 0.422953 0.273957
19492 1 0.571899 0.418452 0.280468
3448 1 0.573646 0.41662 0.28297
19494 1 0.56525 0.426825 0.267811
17340 1 0.594747 0.422534 0.267839
3628 1 0.595643 0.420637 0.269584
17339 2 0.591893 0.426872 0.262032
3629 2 0.597848 0.416561 0.274746
4536 1 0.603989 0.402579 0.258291
3630 1 0.600029 0.411877 0.280261
14246 2 0.607731 0.399385 0.267553
14247 1 0.605998 0.40195 0.261212
5578 1 0.616644 0.420753 0.267848
20650 1 0.617738 0.419128 0.269806
20651 2 0.620523 0.416335 0.275801
20652 1 0.622808 0.412073 0.281869
5579 2 0.614182 0.425491 0.262578
1240 1 0.623513 0.410815 0.284627
7611 1 0.600957 0.410683 0.282167
7610 2 0.604029 0.406953 0.287657
4853 2 0.658483 0.424177 0.261796
14237 2 0.63121 0.398825 0.270764
20824 1 0.649575 0.399616 0.264459
5820 1 0.648696 0.401018 0.262577
19522 1 0.626783 0.404177 0.261475
14236 1 0.628214 0.402747 0.263775
5819 2 0.646211 0.405987 0.256653
8041 1 0.640914 0.41981 0.270021
12855 1 0.639336 0.421293 0.267882
8042 2 0.642785 0.416213 0.276483
8043 1 0.644298 0.4119 0.282994
12854 2 0.635844 0.424405 0.261608
15165 1 0.645002 0.410036 0.285539
17338 1 0.588408 0.430035 0.256212
414 1 0.56366 0.428533 0.265344
7102 1 0.561347 0.437333 0.285913
413 2 0.56037 0.431804 0.258737
15781 1 0.570044 0.449247 0.259492
20562 1 0.571304 0.447455 0.261699
20561 2 0.575899 0.443091 0.267852
9467 2 0.585504 0.434904 0.281955
20560 1 0.58019 0.438993 0.273688
9468 1 0.581655 0.43794 0.275595
1455 1 0.560175 0.438746 0.283496
18590 2 0.57227 0.455155 0.285433
5580 1 0.609423 0.430537 0.257376
13263 1 0.618602 0.451433 0.26157
15261 1 0.594402 0.450741 0.261229
6078 1 0.619569 0.450368 0.264034
11485 1 0.595395 0.449616 0.263387
11486 2 0.599922 0.445565 0.269114
18680 2 0.607981 0.435758 0.283081
11487 1 0.603522 0.441484 0.275024
18681 1 0.604734 0.440277 0.276973
6077 2 0.623587 0.44499 0.269309
9812 2 0.596084 0.455284 0.287779
14272 1 0.638822 0.452004 0.256096
6076 1 0.626503 0.440689 0.274998
18904 1 0.627565 0.439477 0.277434
12853 1 0.634405 0.428392 0.256327
3232 1 0.654445 0.430229 0.286828
21130 1 0.65319 0.431961 0.284629
5752 1 0.639869 0.450258 0.258039
18905 2 0.629698 0.433373 0.283115
21131 2 0.649723 0.437601 0.27899
5753 2 0.643068 0.446547 0.263703
21132 1 0.647222 0.441562 0.272446
5754 1 0.645851 0.442809 0.269656
7094 2 0.639269 0.455465 0.286316
6355 1 0.591191 0.461112 0.279968
13652 2 0.563956 0.464772 0.272783
18589 1 0.56872 0.459403 0.280252
10565 2 0.578696 0.475272 0.259305
13651 1 0.567112 0.461005 0.278336
6356 2 0.588039 0.465969 0.273682
6357 1 0.582947 0.469329 0.268245
10566 1 0.581239 0.471209 0.265418
21266 2 0.573639 0.482997 0.278675
21267 1 0.575906 0.479219 0.284604
21265 1 0.570074 0.487455 0.272663
13653 1 0.562079 0.467941 0.266347
20985 1 0.57747 0.477613 0.287495
8154 1 0.560914 0.469101 0.263856
8153 2 0.557766 0.474224 0.258238
16810 1 0.621348 0.485886 0.277186
9813 1 0.591864 0.459617 0.281733
15429 1 0.615244 0.457871 0.28302
4714 1 0.614207 0.459337 0.280678
15488 2 0.603431 0.472533 0.259986
4715 2 0.611072 0.464311 0.275423
4716 1 0.606729 0.467207 0.269566
15487 1 0.605746 0.468533 0.267373
18719 2 0.598936 0.484664 0.281685
16811 2 0.62408 0.481067 0.282617
18720 1 0.603457 0.480121 0.28744
17225 2 0.625785 0.474999 0.256924
13114 1 0.620178 0.48703 0.275172
640 1 0.648443 0.474141 0.257195
7093 1 0.634864 0.458489 0.279716
4516 1 0.633619 0.459781 0.277337
4517 2 0.631458 0.464456 0.27074
21370 1 0.656882 0.466793 0.271361
17226 1 0.628725 0.470167 0.262644
4518 1 0.629392 0.468646 0.264805
642 1 0.655769 0.468205 0.269689
641 2 0.651878 0.471767 0.263034
1323 1 0.645152 0.481769 0.27599
1322 2 0.649957 0.478397 0.281826
2238 1 0.64339 0.483203 0.273777
1321 1 0.653697 0.473982 0.287879
21371 2 0.659582 0.461781 0.276973
2237 2 0.639179 0.48746 0.268128
9345 1 0.649588 0.329857 0.310885
11356 1 0.649434 0.327349 0.313615
9344 2 0.649231 0.335324 0.305126
4145 2 0.625589 0.356953 0.29055
4146 1 0.625912 0.352671 0.297471
14889 1 0.626031 0.351521 0.299772
5638 1 0.621983 0.364918 0.318278
14888 2 0.626528 0.346892 0.307177
14887 1 0.627054 0.343945 0.313901
10131 1 0.627324 0.342324 0.316871
9343 1 0.649566 0.341619 0.298839
1383 1 0.649773 0.343343 0.29688
1382 2 0.649292 0.349833 0.292312
19442 2 0.644522 0.364924 0.314122
19441 1 0.646737 0.359878 0.320046
16946 2 0.577336 0.379363 0.297709
16947 1 0.586389 0.37788 0.2954
2199 1 0.569781 0.392651 0.318512
16945 1 0.568554 0.378647 0.299888
2198 2 0.566119 0.396061 0.311755
20569 1 0.594131 0.393295 0.288842
6275 2 0.59303 0.393531 0.31645
20570 2 0.596205 0.387836 0.294738
18435 1 0.618687 0.38368 0.290178
20571 1 0.596759 0.381969 0.300646
8413 1 0.597115 0.37986 0.303078
8414 2 0.597584 0.374905 0.30937
18434 2 0.619478 0.378456 0.296429
18433 1 0.620536 0.374733 0.303455
5640 1 0.620932 0.372591 0.306333
10966 1 0.61353 0.395084 0.312535
8415 1 0.599212 0.371953 0.316502
2599 1 0.612567 0.396607 0.310024
5639 2 0.619806 0.368921 0.313039
15343 1 0.599984 0.37065 0.319263
10967 2 0.615469 0.391642 0.318409
11577 1 0.660195 0.376277 0.289118
19443 1 0.643457 0.369012 0.307643
7923 1 0.639351 0.380834 0.290304
15870 1 0.64028 0.37836 0.292515
15868 1 0.642938 0.370455 0.305096
15869 2 0.64131 0.373365 0.298242
17029 1 0.656107 0.391123 0.310344
4851 1 0.657351 0.389204 0.312041
16849 1 0.635632 0.39092 0.312663
17030 2 0.653613 0.395656 0.305489
16850 2 0.633247 0.395602 0.307059
17898 1 0.636593 0.389699 0.314789
10233 1 0.6603 0.373881 0.291284
3449 2 0.578369 0.413051 0.289025
2197 1 0.561932 0.397714 0.306374
6274 1 0.590267 0.398084 0.3095
18537 1 0.589615 0.399777 0.307104
18536 2 0.587284 0.404074 0.302106
18535 1 0.584439 0.407592 0.296849
3450 1 0.582303 0.409184 0.294843
18780 1 0.576286 0.421959 0.312674
18779 2 0.573709 0.4253 0.305376
13332 1 0.57709 0.421026 0.31495
11011 1 0.594564 0.423221 0.304343
16081 1 0.595784 0.421875 0.306478
16082 2 0.598109 0.419507 0.313452
2600 2 0.610312 0.399905 0.303452
7609 1 0.606316 0.403645 0.294172
2601 1 0.607553 0.40244 0.296849
12861 1 0.615752 0.420173 0.306203
1222 1 0.616778 0.418648 0.30849
1223 2 0.619212 0.413789 0.315766
12860 2 0.613308 0.424714 0.298643
16083 1 0.600005 0.414185 0.319872
11012 2 0.592697 0.426742 0.296935
1241 2 0.626823 0.407369 0.291233
1242 1 0.629654 0.403226 0.298412
16851 1 0.630517 0.401412 0.300845
17031 1 0.65064 0.399561 0.299483
15163 1 0.649641 0.401069 0.297556
15164 2 0.647319 0.406268 0.29131
13275 1 0.640587 0.420431 0.303912
639 1 0.641523 0.418808 0.305885
638 2 0.645259 0.414357 0.312422
13274 2 0.637714 0.424473 0.297719
637 1 0.647798 0.410716 0.319229
3234 1 0.660335 0.420181 0.29709
3233 2 0.657444 0.425306 0.291404
6647 2 0.562813 0.443936 0.311052
9466 1 0.587694 0.432894 0.288715
18778 1 0.569298 0.429271 0.299197
18591 1 0.576404 0.450684 0.291621
7104 1 0.567589 0.43037 0.296934
9244 1 0.577919 0.449234 0.293865
20677 1 0.585832 0.441075 0.309056
9245 2 0.581665 0.446409 0.299872
9246 1 0.584597 0.442958 0.305713
7103 2 0.563587 0.433841 0.291592
11013 1 0.588916 0.431359 0.291407
20678 2 0.588851 0.437728 0.316297
6646 1 0.566018 0.44064 0.31722
6648 1 0.559393 0.448553 0.305609
11563 1 0.557737 0.449871 0.302849
15428 2 0.618583 0.453576 0.288298
12859 1 0.610044 0.42778 0.291227
18679 1 0.609708 0.429234 0.288797
15427 1 0.620712 0.448845 0.294677
9811 1 0.598252 0.450715 0.294578
3168 1 0.599412 0.448753 0.296842
11844 1 0.607257 0.43999 0.310679
3167 2 0.602774 0.444557 0.302885
17620 1 0.621456 0.446942 0.296812
3166 1 0.605976 0.441313 0.308825
17621 2 0.62408 0.442606 0.302893
11843 2 0.611097 0.435537 0.316453
17622 1 0.62748 0.438591 0.308715
18906 1 0.632472 0.429284 0.289229
13273 1 0.634033 0.427682 0.291511
7095 1 0.642825 0.449855 0.291664
13389 1 0.628528 0.437473 0.310614
16208 2 0.656507 0.432287 0.312071
16207 1 0.653253 0.436439 0.306505
19593 1 0.651732 0.437881 0.303975
19591 1 0.644717 0.44731 0.294013
19592 2 0.648645 0.442843 0.299174
18361 1 0.647295 0.45556 0.317543
13388 2 0.632472 0.434689 0.316903
16209 1 0.66019 0.427371 0.318262
16978 1 0.646127 0.457642 0.315296
7157 2 0.559677 0.473028 0.294281
5478 1 0.575144 0.481854 0.313145
1738 1 0.565168 0.46879 0.301458
1739 2 0.568972 0.465491 0.306915
7156 1 0.563611 0.470144 0.299327
20984 2 0.582938 0.474874 0.293761
20983 1 0.587616 0.471817 0.299292
20617 1 0.58888 0.470653 0.301924
54 1 0.57642 0.481074 0.315516