ITEM: TIMESTEP
0
ITEM: NUMBER OF ATOMS
759
ITEM: BOX BOUNDS pp pp pp
0.0000000000000000e+00 5.0000000000000000e+01
0.0000000000000000e+00 5.0000000000000000e+01
0.0000000000000000e+00 5.0000000000000000e+01
ITEM: ATOMS id type 
1147 1 
1148 3 
1149 1 
1390 1 
1391 3 
1392 1 
3304 1 
3305 3 
3306 1 
3364 1 
3365 3 
3366 1 
3607 1 
3608 3 
3609 1 
4444 1 
4445 3 
4446 1 
5461 1 
5462 2 
5463 1 
5650 1 
5651 3 
5652 1 
6901 1 
6902 2 
6903 1 
7807 1 
7808 3 
7809 1 
8950 1 
8951 3 
8952 1 
10021 1 
10022 3 
10023 1 
10327 1 
10328 3 
10329 1 
436 1 
437 3 
438 1 
2299 1 
2300 3 
2301 1 
3253 1 
3254 3 
3255 1 
3439 1 
3440 3 
3441 1 
3733 1 
3734 3 
3735 1 
4522 1 
4523 3 
4524 1 
5656 1 
5657 3 
5658 1 
5959 1 
5960 3 
5961 1 
6793 1 
6794 2 
6795 1 
6799 1 
6800 3 
6801 1 
7942 1 
7943 2 
7944 1 
8293 1 
8294 2 
8295 1 
9013 1 
9014 3 
9015 1 
10279 1 
10280 3 
10281 1 
1234 1 
1235 3 
1236 1 
1414 1 
1415 3 
1416 1 
2251 1 
2252 3 
2253 1 
3748 1 
3749 3 
3750 1 
4414 1 
4415 3 
4416 1 
6934 1 
6935 3 
6936 1 
7168 1 
7169 3 
7170 1 
8014 1 
8015 3 
8016 1 
8188 1 
8189 3 
8190 1 
8914 1 
8915 3 
8916 1 
100 1 
101 2 
102 1 
1180 1 
1181 2 
1182 1 
1480 1 
1481 3 
1482 1 
2500 1 
2501 3 
2502 1 
3586 1 
3587 3 
3588 1 
3646 1 
3647 3 
3648 1 
4543 1 
4544 2 
4545 1 
4780 1 
4781 3 
4782 1 
4783 1 
4784 3 
4785 1 
4906 1 
4907 3 
4908 1 
5683 1 
5684 3 
5685 1 
6880 1 
6881 3 
6882 1 
6883 1 
6884 3 
6885 1 
7126 1 
7127 3 
7128 1 
7246 1 
7247 3 
7248 1 
8203 1 
8204 3 
8205 1 
9337 1 
9338 3 
9339 1 
10006 1 
10007 3 
10008 1 
10297 1 
10298 3 
10299 1 
1192 1 
1193 3 
1194 1 
1669 1 
1670 2 
1671 1 
2455 1 
2456 3 
2457 1 
3535 1 
3536 3 
3537 1 
4855 1 
4856 3 
4857 1 
6949 1 
6950 3 
6951 1 
7969 1 
7970 3 
7971 1 
907 1 
908 3 
909 1 
1090 1 
1091 3 
1092 1 
2104 1 
2105 3 
2106 1 
2110 1 
2111 3 
2112 1 
2704 1 
2705 3 
2706 1 
2707 1 
2708 3 
2709 1 
6241 1 
6242 3 
6243 1 
8341 1 
8342 3 
8343 1 
8530 1 
8531 3 
8532 1 
11044 1 
11045 3 
11046 1 
1933 1 
1934 3 
1935 1 
2902 1 
2903 3 
2904 1 
2956 1 
2957 3 
2958 1 
3076 1 
3077 2 
3078 1 
3082 1 
3083 3 
3084 1 
3976 1 
3977 3 
3978 1 
5113 1 
5114 3 
5115 1 
5233 1 
5234 3 
5235 1 
5293 1 
5294 3 
5295 1 
8479 1 
8480 3 
8481 1 
8539 1 
8540 2 
8541 1 
9793 1 
9794 3 
9795 1 
9799 1 
9800 3 
9801 1 
9913 1 
9914 2 
9915 1 
10636 1 
10637 3 
10638 1 
11056 1 
11057 3 
11058 1 
11062 1 
11063 3 
11064 1 
1045 1 
1046 2 
1047 1 
1111 1 
1112 2 
1113 1 
2974 1 
2975 3 
2976 1 
3091 1 
3092 3 
3093 1 
3808 1 
3809 3 
3810 1 
3985 1 
3986 3 
3987 1 
3988 1 
3989 3 
3990 1 
7348 1 
7349 3 
7350 1 
8671 1 
8672 3 
8673 1 
8854 1 
8855 3 
8856 1 
9385 1 
9386 2 
9387 1 
9634 1 
9635 3 
9636 1 
11005 1 
11006 2 
11007 1 
1003 1 
1004 3 
1005 1 
2146 1 
2147 2 
2148 1 
2806 1 
2807 3 
2808 1 
3826 1 
3827 3 
3828 1 
4000 1 
4001 3 
4002 1 
6580 1 
6581 3 
6582 1 
7300 1 
7301 3 
7302 1 
8737 1 
8738 3 
8739 1 
8797 1 
8798 3 
8799 1 
9397 1 
9398 3 
9399 1 
589 1 
590 3 
591 1 
658 1 
659 3 
660 1 
1069 1 
1070 3 
1071 1 
2218 1 
2219 2 
2220 1 
3112 1 
3113 3 
3114 1 
7369 1 
7370 3 
7371 1 
10672 1 
10673 3 
10674 1 
10675 1 
10676 3 
10677 1 
10735 1 
10736 2 
10737 1 
10858 1 
10859 3 
10860 1 
11029 1 
11030 2 
11031 1 
11167 1 
11168 3 
11169 1 
12127 1 
12128 3 
12129 1 
12481 1 
12482 3 
12483 1 
16684 1 
16685 2 
16686 1 
20881 1 
20882 3 
20883 1 
12133 1 
12134 3 
12135 1 
12313 1 
12314 3 
12315 1 
12439 1 
12440 3 
12441 1 
13399 1 
13400 3 
13401 1 
13516 1 
13517 3 
13518 1 
13519 1 
13520 3 
13521 1 
15559 1 
15560 3 
15561 1 
16576 1 
16577 2 
16578 1 
17296 1 
17297 3 
17298 1 
17299 1 
17300 2 
17301 1 
17359 1 
17360 3 
17361 1 
17542 1 
17543 3 
17544 1 
17719 1 
17720 2 
17721 1 
18436 1 
18437 3 
18438 1 
18799 1 
18800 3 
18801 1 
20656 1 
20657 3 
20658 1 
20719 1 
20720 3 
20721 1 
11368 1 
11369 3 
11370 1 
12448 1 
12449 3 
12450 1 
13414 1 
13415 3 
13416 1 
13474 1 
13475 3 
13476 1 
13534 1 
13535 3 
13536 1 
14305 1 
14306 2 
14307 1 
15385 1 
15386 2 
15387 1 
15751 1 
15752 3 
15753 1 
16651 1 
16652 3 
16653 1 
18625 1 
18626 2 
18627 1 
18754 1 
18755 3 
18756 1 
19768 1 
19769 3 
19770 1 
12157 1 
12158 3 
12159 1 
13423 1 
13424 3 
13425 1 
14620 1 
14621 3 
14622 1 
14680 1 
14681 3 
14682 1 
15403 1 
15404 3 
15405 1 
15523 1 
15524 3 
15525 1 
16423 1 
16424 2 
16425 1 
16543 1 
16544 3 
16545 1 
16660 1 
16661 3 
16662 1 
17740 1 
17741 3 
17742 1 
18583 1 
18584 3 
18585 1 
19546 1 
19547 3 
19548 1 
19840 1 
19841 3 
19842 1 
20986 1 
20987 2 
20988 1 
11152 1 
11153 3 
11154 1 
11275 1 
11276 3 
11277 1 
12292 1 
12293 3 
12294 1 
12652 1 
12653 3 
12654 1 
14509 1 
14510 3 
14511 1 
14575 1 
14576 3 
14577 1 
16372 1 
16373 3 
16374 1 
17569 1 
17570 3 
17571 1 
17758 1 
17759 3 
17760 1 
18412 1 
18413 3 
18414 1 
18598 1 
18599 3 
18600 1 
19735 1 
19736 3 
19737 1 
20758 1 
20759 2 
20760 1 
20869 1 
20870 2 
20871 1 
13804 1 
13805 2 
13806 1 
13924 1 
13925 3 
13926 1 
14047 1 
14048 3 
14049 1 
16147 1 
16148 3 
16149 1 
18964 1 
18965 3 
18966 1 
19990 1 
19991 3 
19992 1 
20164 1 
20165 3 
20166 1 
21304 1 
21305 3 
21306 1 
21544 1 
21545 3 
21546 1 
11893 1 
11894 3 
11895 1 
13102 1 
13103 3 
13104 1 
13642 1 
13643 3 
13644 1 
14122 1 
14123 2 
14124 1 
14713 1 
14714 3 
14715 1 
14953 1 
14954 2 
14955 1 
14962 1 
14963 3 
14964 1 
15073 1 
15074 3 
15075 1 
15202 1 
15203 3 
15204 1 
15973 1 
15974 3 
15975 1 
16222 1 
16223 3 
16224 1 
18079 1 
18080 3 
18081 1 
19036 1 
19037 3 
19038 1 
20299 1 
20300 3 
20301 1 
21133 1 
21134 3 
21135 1 
11608 1 
11609 3 
11610 1 
13654 1 
13655 3 
13656 1 
13828 1 
13829 3 
13830 1 
14851 1 
14852 2 
14853 1 
15805 1 
15806 2 
15807 1 
15991 1 
15992 3 
15993 1 
16048 1 
16049 2 
16050 1 
16291 1 
16292 3 
16293 1 
17194 1 
17195 3 
17196 1 
18094 1 
18095 3 
18096 1 
18208 1 
18209 3 
18210 1 
19174 1 
19175 3 
19176 1 
20254 1 
20255 3 
20256 1 
20434 1 
20435 3 
20436 1 
21325 1 
21326 3 
21327 1 
21388 1 
21389 3 
21390 1 
11743 1 
11744 3 
11745 1 
11803 1 
11804 3 
11805 1 
12040 1 
12041 2 
12042 1 
12043 1 
12044 3 
12045 1 
12997 1 
12998 3 
12999 1 
13837 1 
13838 3 
13839 1 
14077 1 
14078 3 
14079 1 
14137 1 
14138 3 
14139 1 
14806 1 
14807 3 
14808 1 
14986 1 
14987 3 
14988 1 
15886 1 
15887 3 
15888 1 
17917 1 
17918 2 
17919 1 
18220 1 
18221 3 
18222 1 
19243 1 
19244 3 
19245 1 
19957 1 
19958 3 
19959 1 
21343 1 
21344 3 
21345 1 
11752 1 
11753 3 
11754 1 
12838 1 
12839 3 
12840 1 
15835 1 
15836 2 
15837 1 
15898 1 
15899 3 
15900 1 
16075 1 
16076 3 
16077 1 
16309 1 
16310 3 
16311 1 
17875 1 
17876 2 
17877 1 
18169 1 
18170 2 
18171 1 
20032 1 
20033 3 
20034 1 
20218 1 
20219 3 
20220 1 
20455 1 
20456 3 
20457 1 
