ITEM: TIMESTEP
80000000
ITEM: NUMBER OF ATOMS
15018
ITEM: BOX BOUNDS pp pp pp
0.0000000000000000e+00 5.0000000000000000e+01
0.0000000000000000e+00 5.0000000000000000e+01
0.0000000000000000e+00 5.0000000000000000e+01
ITEM: ATOMS id type vx vy vz 
1335 1 3.28939 7.46685 -1.03354 
11523 1 -8.24347 2.81419 -0.514079 
9549 1 0.501262 -4.38776 0.267937 
6081 1 0.411213 -3.82242 2.86659 
11522 2 -1.79891 0.642901 -1.08343 
11521 1 -5.53939 3.72866 -0.982641 
6080 3 -0.579204 1.65079 -3.20384 
5604 1 -9.25103 -2.98015 -0.0777337 
4348 1 1.05166 -1.66355 -0.255727 
5603 3 2.58131 -0.797234 0.129306 
5602 1 -2.25891 3.69002 3.40282 
18850 1 0.242073 -1.24634 5.6019 
14926 1 2.25812 -0.181182 -2.32456 
18851 2 -1.56501 -4.99755 0.961341 
18852 1 6.28318 -2.98739 2.87328 
5268 1 -2.31899 -0.660796 7.0956 
18442 1 0.663537 2.40342 -1.48187 
17143 1 -0.67924 4.16324 -1.32785 
17144 3 -0.102287 -1.55616 0.108791 
4349 3 -0.426384 1.22291 2.57964 
4350 1 1.12836 -3.98596 9.14069 
3736 1 0.399631 0.886528 -5.41038 
11816 3 -1.99088 -2.85723 1.85362 
11815 1 -7.27631 -3.33274 -1.28731 
10862 2 -0.5878 1.95404 -1.63315 
10863 1 1.1824 1.23478 0.243781 
11817 1 -0.108728 0.171098 1.1303 
3737 2 1.18941 0.0401333 -0.597798 
3738 1 -3.19633 -3.58324 4.1001 
17017 1 3.27947 -1.08426 -3.46745 
6997 1 2.67769 -6.30953 -3.76466 
17018 3 3.71993 -0.641766 -4.27134 
792 1 3.49732 -5.01756 -2.05915 
17927 2 -2.1596 -2.73439 -1.36506 
17926 1 3.88884 -2.32741 -0.780295 
580 1 0.517087 -2.08506 2.60526 
21462 1 2.05546 -0.577794 -0.272569 
21461 2 0.462259 1.2545 -2.62155 
21460 1 3.11851 1.02742 -1.81764 
581 2 -5.40929 -3.3838 3.02147 
15331 1 -2.36719 6.81669 -0.181347 
20372 2 -0.98864 -2.60635 -5.3642 
20371 1 -0.585519 0.902822 -2.00636 
11442 1 5.52053 -2.55804 -3.06835 
5267 2 2.3644 -0.680165 3.82201 
5266 1 -4.51923 1.3816 -0.302764 
20544 1 -1.6913 -0.824071 -1.26923 
20543 2 -1.55977 1.59193 0.691349 
14927 2 -0.989489 -3.93624 0.881456 
14928 1 -3.73569 -1.72655 0.543463 
20373 1 3.86604 -1.56798 0.266828 
10313 3 0.887604 0.243912 0.302617 
10314 1 0.540416 -5.692 -1.17143 
11696 2 -0.67443 -0.961514 -1.30283 
11695 1 -2.42408 -1.93903 1.10503 
17962 1 -2.62027 -1.43356 4.9351 
11697 1 -3.78905 0.0742504 -6.46206 
17963 2 0.163381 -1.96053 -0.684057 
18443 3 0.310593 0.012963 -4.14664 
21496 1 -4.13133 1.71713 -0.252968 
18444 1 -2.08132 -1.75467 3.18012 
21497 2 5.56831 -0.064921 -2.14616 
21498 1 7.53929 -4.40185 4.94877 
17145 1 0.152481 3.50739 2.27491 
8544 1 2.13653 -2.94308 -5.47625 
8543 3 4.67499 -2.32819 2.3774 
8982 1 -1.57688 -5.73908 -5.4469 
8542 1 -1.00561 0.846239 4.97195 
8981 2 1.13315 -2.04364 1.60646 
10861 1 4.24254 -0.504489 -7.54767 
12615 1 -1.346 4.19002 0.581136 
19663 1 -3.17055 4.30469 -2.56629 
11698 1 4.57429 1.18686 2.19729 
6998 3 -2.07462 -2.70216 -0.961017 
6999 1 2.88491 -1.8683 0.269454 
6529 1 -1.46575 -0.368137 -3.44232 
6530 2 0.255206 6.00524 -5.46174 
6531 1 6.15565 1.4154 -3.91679 
6466 1 0.126319 -2.53413 -3.73526 
12614 3 -0.34794 -1.62616 -2.13289 
12613 1 -2.2936 -4.00093 3.91363 
17019 1 -4.81476 -4.21372 2.32862 
7546 1 -4.488 0.17879 -1.24156 
7547 2 -4.5317 1.01722 -0.281511 
7548 1 -3.89761 -1.71679 -5.457 
13410 1 -1.04802 0.863683 1.26009 
791 3 -3.08856 0.725856 -2.33053 
790 1 0.554259 -1.91069 -4.57698 
3624 1 2.88948 1.95843 2.12892 
3623 2 1.31142 -6.62834 3.28655 
17800 1 -0.207467 3.65751 -1.81484 
15526 1 -0.356529 0.596464 -3.20363 
17801 2 -2.61493 2.31695 -0.141747 
17928 1 -0.579925 -0.786448 -4.24776 
17802 1 1.77449 -6.37504 1.41422 
16524 1 2.04654 3.58125 3.26128 
16522 1 0.514664 3.50561 1.77985 
16523 2 -0.680212 1.27283 -3.1519 
14233 1 -3.14172 8.18017 -0.559831 
12089 2 -1.0216 1.10402 -0.199819 
12090 1 -1.74253 -4.59539 -4.52745 
582 1 -3.20319 -4.07887 3.03532 
10597 1 -5.51948 -0.126279 3.03915 
10598 2 -1.51872 3.13538 -1.89303 
10599 1 2.60449 -0.663591 -3.14199 
13030 1 -2.13307 -1.7696 -5.78353 
15332 2 0.012669 -3.07858 1.1963 
2615 2 1.15241 -1.13613 -0.516346 
2616 1 4.40128 0.687355 -2.84529 
15333 1 -4.15642 0.568349 0.785279 
2563 1 -5.81982 0.816393 -1.18278 
2614 1 0.261659 -0.825185 -3.0498 
20542 1 -2.10628 2.54464 -5.38273 
11441 3 1.08659 -1.66373 2.61758 
7632 1 -3.37025 -0.0742872 -2.63441 
13685 2 0.396299 3.57432 0.613855 
13684 1 5.04251 -3.61198 1.36066 
11440 1 -0.799448 -2.44819 -1.05759 
13686 1 -1.81716 2.82983 1.51095 
7398 1 1.95482 4.73018 0.471421 
7397 2 -0.050787 2.84932 4.56641 
7396 1 1.12188 4.69426 -1.33391 
1693 1 0.235449 3.2994 -5.00727 
1694 2 -2.94759 0.167284 -1.25659 
12451 1 -3.52241 6.61548 -0.0971404 
7630 1 1.36388 0.832624 -4.26044 
2460 1 1.40605 -3.57858 0.662017 
2459 2 -1.59391 0.244638 1.34248 
7631 2 3.8926 -2.39441 0.158791 
20635 1 5.57072 -3.95277 1.08034 
20637 1 1.69268 2.78055 5.18016 
20636 2 -0.0442574 -1.19954 0.589376 
15421 1 3.65276 -1.69947 -1.65561 
5098 1 4.1916 -3.13609 -6.02355 
16535 2 0.988373 -1.71949 -1.99732 
10312 1 0.116671 -1.94278 -6.08967 
16534 1 -0.237394 0.203195 -2.24214 
11670 1 -1.39124 0.52757 -1.73721 
11669 2 -1.67613 -1.00452 2.65388 
4097 2 -0.66623 0.763156 -5.40095 
2564 2 -2.44733 0.989096 -0.122939 
2565 1 5.8896 6.54925 -7.77697 
4098 1 1.24699 -2.16861 -5.54091 
17964 1 0.409954 -4.59121 -1.18541 
13164 1 4.63851 1.54752 3.72124 
13163 2 -2.45951 -2.39777 2.15017 
13162 1 -4.333 0.759107 -2.68302 
9051 1 -1.30627 -0.456022 -4.20174 
11599 1 -5.17888 5.95259 1.24976 
11600 2 -2.37391 2.8639 2.23337 
11601 1 -3.89342 -0.974464 2.23911 
12915 1 -0.692698 5.62889 0.892727 
17103 1 -1.07111 1.47289 -1.7738 
17102 2 -4.82819 1.49078 -2.1613 
3559 1 3.15058 5.42742 1.88011 
3560 3 0.680581 2.42499 -3.55001 
12914 2 0.323823 1.40931 0.895942 
12124 1 -0.913581 4.18203 -1.61871 
8980 1 -4.10069 -1.98244 2.59164 
12126 1 7.51332 -1.9924 -3.07758 
12125 2 -0.826487 0.398056 -0.475017 
7236 1 1.12835 -7.15414 -2.16211 
19665 1 -1.90431 -0.961415 4.9658 
19664 2 1.61184 5.69341 4.41075 
132 1 -1.85904 3.53151 8.6364 
131 2 -2.37006 -3.12819 -2.18851 
130 1 -1.22494 0.550351 1.43374 
6562 1 -1.55045 5.50837 -0.776752 
15961 1 3.73927 -9.20676 2.05988 
15962 2 4.91034 0.0490504 2.19943 
15963 1 2.81326 0.392214 -6.41581 
2646 1 -3.43487 -1.54505 -2.43152 
2645 2 -0.995297 -4.43937 1.52114 
14234 2 -0.952959 1.00281 2.73964 
14235 1 0.932686 5.82647 -7.14564 
17305 1 -2.09609 2.67374 -2.83869 
11699 2 -5.27788 1.77601 1.53892 
11700 1 1.03864 -6.0823 -4.39075 
12721 1 -0.714388 -0.445915 2.13522 
12722 2 -0.59485 -1.35114 -3.09443 
12723 1 5.04216 -0.527917 -0.425463 
6467 2 -0.25314 -2.7506 -1.41818 
6468 1 2.56568 3.79949 -5.65799 
15798 1 -1.66408 -1.13018 -5.69757 
15797 2 3.88002 -3.83825 -2.16071 
1885 1 -5.38219 0.461832 -1.91746 
14829 1 1.08079 1.97644 1.31938 
11350 1 3.12837 1.94005 -2.70543 
13409 2 1.24011 2.5437 1.19109 
13408 1 2.40386 -3.51759 -0.083026 
14827 1 -0.0757024 0.661479 1.40902 
14828 2 2.24982 -5.10858 -0.175935 
3622 1 1.28768 -4.95336 -5.58471 
10518 1 -1.51204 -3.88671 -2.41646 
10517 2 -3.37924 -1.48787 0.183976 
10516 1 -4.75455 1.60868 -1.13746 
1249 1 -2.31426 -0.451577 -3.57386 
1250 2 1.67685 -0.440153 0.333974 
15527 3 3.71012 1.05836 -2.56646 
8869 1 -3.96002 1.17967 -5.24632 
8870 2 2.18514 0.877851 1.12173 
15528 1 1.443 5.12625 -3.44965 
8871 1 -0.785965 5.03949 3.06584 
13477 1 8.45464 -0.600201 -2.21493 
17979 1 0.0565158 2.40821 3.68228 
5936 3 2.06589 3.86299 -0.849801 
5937 1 1.70444 -5.29447 3.59927 
15558 1 0.167721 1.25157 -1.88521 
15557 3 -2.52934 -2.32409 -0.209198 
15556 1 3.1797 -5.85712 -0.378426 
4330 1 -1.06345 -2.76197 -0.206087 
12088 1 5.63693 -3.38507 -3.77402 
4331 2 -0.571122 -2.90982 0.925194 
17307 1 1.68996 -6.41944 0.22758 
17306 2 0.657922 3.30576 2.52217 
17915 2 -2.13804 3.56551 1.69038 
17914 1 -0.634861 2.62205 7.03338 
522 1 -0.588369 1.2405 -4.1547 
4332 1 -2.55026 -2.82827 8.81738 
11325 1 -2.7632 1.59461 0.239333 
11324 2 -3.50542 -1.12142 1.44028 
521 2 -0.874544 -0.128962 -1.7899 
17916 1 -9.48555 2.4997 2.12698 
2259 1 2.68203 2.00791 -1.59282 
13031 2 1.57839 -4.53211 1.73267 
13032 1 1.44943 -2.24861 -1.64901 
19899 1 0.908525 1.32915 -0.630098 
19898 2 0.389483 -0.148379 -1.17481 
9522 1 -5.51181 -4.94873 3.48786 
19897 1 -1.17011 0.247021 5.05032 
9426 1 -0.348172 -2.15039 -6.72808 
12452 2 -0.213131 -2.18956 -5.44421 
1141 1 -1.51273 -2.12193 -1.98155 
12453 1 -1.42858 2.01263 -1.30158 
1142 2 2.12737 0.437224 -2.42241 
9521 2 2.03292 3.44028 2.40615 
9520 1 -2.37962 -1.06522 3.82433 
14374 1 -8.21061 -2.0976 0.27277 
14375 2 -2.16383 -3.00737 -1.6464 
1695 1 -0.416479 4.31785 -4.64229 
5523 1 3.30916 6.78002 7.47389 
5522 2 0.753252 2.79619 1.27995 
5521 1 0.976096 8.28176 1.13559 
18000 1 0.0691282 2.56987 7.05003 
2458 1 -5.75436 1.833 1.79639 
5539 1 0.794591 -2.81005 -2.97192 
5540 3 -0.290773 -2.83506 -0.348462 
13615 1 3.24217 -4.72961 -0.266935 
5541 1 -1.0746 0.836282 -1.18912 
13616 2 2.08542 0.890435 1.88878 
20851 1 -5.75402 -0.394472 0.1078 
3079 1 -1.07935 2.58982 -1.4368 
11293 1 7.06141 0.307954 3.4749 
11295 1 -5.53589 -1.38728 2.2228 
11294 2 1.0372 1.14205 -1.10248 
3322 1 -0.147031 1.1652 -1.83732 
3323 3 2.63887 -1.21084 -2.15196 
3324 1 0.453775 -5.12807 3.94975 
14478 1 -6.67378 -5.73814 -0.339284 
14477 3 0.339457 0.686891 -0.891331 
14476 1 -6.7605 1.0759 -0.496905 
5099 3 4.42998 -0.849374 0.0076496 
2727 1 2.11803 -5.19395 3.05689 
5100 1 -4.378 3.97765 -2.07831 
8451 1 -2.33476 0.978817 0.554162 
8450 3 -1.6615 4.79538 3.46668 
11668 1 -1.00083 5.15621 4.833 
8449 1 -9.71696 3.29145 5.79181 
12749 2 -2.50857 -0.26284 1.89182 
12750 1 2.20688 -0.507112 -3.36907 
1663 1 8.03686 -2.53195 1.62822 
4096 1 1.52808 -3.3741 -0.389047 
17533 1 0.732173 0.337345 0.246962 
17534 2 1.32862 2.205 -1.9618 
17535 1 3.09642 0.61448 1.88395 
13965 1 -0.468956 0.407674 -6.08254 
9050 2 -2.69952 4.01849 -0.0667583 
9049 1 -5.80674 2.9784 -2.01814 
14088 1 -1.85876 -4.6599 1.90039 
14087 2 1.98754 -4.19137 1.30444 
14086 1 -2.58454 7.08975 -0.833979 
17101 1 0.716657 0.151824 1.28247 
14029 1 -0.546183 -2.63649 -0.653138 
14030 2 3.20176 1.17282 1.99153 
14213 2 0.814384 0.755182 0.821737 
12913 1 2.70439 -0.981841 -5.93148 
14214 1 3.01146 3.40764 -0.30174 
14212 1 -2.66358 -3.69631 -4.55347 
14031 1 -5.20875 -3.84584 -0.0404309 
8137 1 -3.22019 1.02238 2.70414 
8138 2 -1.20764 0.499274 2.8954 
912 1 2.61267 3.34719 12.8488 
1396 1 -2.23563 -3.19402 1.26959 
14925 1 -2.11913 3.32109 1.44106 
14924 2 -1.77644 0.624345 -4.41195 
1397 2 -1.49093 -1.73601 -0.385542 
7235 2 0.425559 3.00896 0.435906 
11083 1 -4.33051 -2.56566 -2.67289 
20852 2 -0.463994 1.27933 4.15388 
20853 1 0.304922 -1.839 -3.90458 
7234 1 2.24903 -1.13139 1.44318 
9614 3 -3.69694 -1.26558 0.558449 
9615 1 3.09813 1.09519 -3.72147 
2001 1 0.334043 -0.444114 -0.646823 
9613 1 -1.03357 -6.57591 -0.789813 
3856 1 -2.91152 -1.61249 5.76439 
11085 1 -5.39273 -0.0666272 -4.30878 
16669 1 -2.70548 -1.74214 -11.7711 
16670 3 -1.32328 -1.66195 -0.474677 
11084 3 -1.82287 -2.03242 -5.95606 
15486 1 3.39884 0.697672 0.158468 
15485 2 -1.91357 1.14343 -1.30229 
3340 1 -3.5017 -0.597661 -2.96501 
3341 2 2.30451 -0.4326 -1.74151 
15484 1 0.537782 -8.07442 1.18436 
11037 1 0.54784 0.331886 -1.58486 
11036 3 2.30858 -2.43057 2.33435 
11035 1 3.77304 -0.207151 5.59203 
18418 1 3.40792 -2.67715 -1.35594 
17887 1 0.175746 -2.93669 -4.82128 
17888 3 1.32668 -3.6897 1.07121 
17889 1 -0.252338 8.21816 -4.20495 
14275 1 1.80871 4.64472 -1.5491 
18419 2 1.62564 -4.26122 0.534645 
18420 1 0.0320782 -8.0698 1.55724 
4281 1 -0.0605943 5.79125 -0.523049 
12687 1 1.88121 8.37584 3.94829 
6164 2 -4.71579 -0.473726 0.231019 
6163 1 5.68394 5.08103 -3.82533 
6563 3 2.5641 1.58184 2.27411 
2644 1 -7.89024 -0.937771 -1.49616 
12189 1 -3.12273 5.52508 -3.06266 
12188 2 -1.1109 0.0117669 2.76586 
12187 1 -0.519649 3.07294 -1.46893 
20439 1 0.175914 -0.932992 -4.1112 
6564 1 2.21072 1.90876 0.508694 
1285 1 -0.000370255 5.38673 -3.55979 
1286 2 -2.57614 2.13254 3.54394 
4280 2 -3.99856 -3.38352 0.649907 
1886 2 -3.24017 -1.1533 1.0231 
15796 1 0.623754 -0.339066 -0.348408 
5877 1 -1.10945 8.09416 -0.640117 
5876 2 -0.115845 0.24642 -2.70326 
5875 1 -5.71615 -0.136367 -2.9984 
16753 1 1.57943 -0.0335071 -2.38347 
1887 1 -2.45245 7.60563 3.74378 
10788 1 0.847893 4.91717 -2.40307 
10787 2 -0.613673 -2.05158 -4.71031 
11352 1 1.36941 -2.34876 -1.77842 
16078 1 3.01419 -7.83947 -2.12888 
11351 2 -1.04626 0.0249672 -2.20754 
1251 1 -2.15284 -6.26993 -3.08762 
4871 2 1.76154 2.49777 1.3311 
4872 1 -2.1392 0.615594 -1.07961 
4870 1 2.70279 -2.41453 7.35719 
4944 1 2.34107 -3.17065 5.00873 
16079 2 -0.986913 0.665351 -2.75776 
16080 1 -2.73063 0.0483557 -0.0748079 
13478 2 3.29476 0.342945 2.2804 
13479 1 -0.129315 0.0871022 -0.304563 
2590 1 -3.96952 0.73458 2.83323 
2591 2 -5.49064 -1.52411 -3.91811 
17082 1 0.0455041 -0.88731 1.06256 
895 1 2.32993 -1.82042 0.564463 
17080 1 -1.1493 -2.72805 3.71152 
17978 3 4.99934 -0.745219 -4.50523 
17977 1 -2.39261 3.86913 -2.1238 
17081 3 3.8273 -4.34449 -0.906974 
2922 1 -2.91127 3.21464 -3.68968 
11323 1 2.61135 -3.2845 7.74783 
15937 1 -3.95466 -3.64542 -1.46642 
520 1 -6.18936 -2.06912 6.36824 
2258 2 -1.08294 1.3471 1.72339 
2257 1 1.91229 -3.18804 2.52606 
19816 1 -3.92285 1.06114 1.42283 
19817 3 0.54768 0.601958 3.43199 
15938 2 -0.28193 0.693609 0.71313 
15939 1 5.77799 -4.74827 1.20584 
9568 1 0.307129 1.72162 -0.0284798 
14458 1 -3.20285 -0.225695 3.48359 
19818 1 -3.36132 5.62294 -4.24612 
14459 2 -2.31697 -3.05828 -0.747062 
14460 1 0.0366289 2.14833 1.06323 
18151 1 0.475277 -3.26223 3.83175 
9425 2 -0.236281 -0.340952 -4.92598 
9424 1 2.16403 -0.151444 -0.59852 
8383 1 -1.36165 -3.62913 -1.37729 
8384 2 2.42793 1.2088 3.80715 
1143 1 -4.91259 2.90142 1.21728 
5919 1 1.34314 -2.75774 -4.26062 
5918 2 2.02434 1.14175 6.56038 
5917 1 -3.62274 -2.44869 2.73447 
15340 1 -0.474493 -4.73256 -0.420369 
17999 2 1.32988 0.38701 1.55403 
14376 1 -0.94702 -2.82003 -0.134381 
10306 1 1.28405 -2.67668 -2.11834 
10307 2 0.681618 1.43192 -0.302557 
10308 1 1.56335 -4.97506 -0.248387 
12633 1 0.855801 -4.95005 -0.86548 
17998 1 -0.471632 -2.0349 2.99442 
15252 1 4.15654 3.3688 1.8554 
15251 2 -1.11068 2.83134 -4.10178 
15250 1 -5.38247 -5.20164 -6.14627 
13617 1 1.79291 0.353779 -2.63299 
993 1 0.477858 -2.49122 -0.299496 
992 2 -2.36139 -0.892944 -0.523629 
991 1 5.30495 -0.547601 0.00590347 
3080 2 -3.16189 -1.92633 2.46828 
3081 1 4.377 -0.261151 5.72822 
20290 1 -2.68424 1.14397 -0.661951 
13719 1 -6.06623 -4.28319 -2.31083 
20291 2 1.95984 -2.54192 -0.232873 
5716 1 3.74743 5.2922 -4.76808 
81 1 1.61007 0.68814 2.16296 
5718 1 -0.175323 1.08107 5.23812 
14700 1 6.40575 0.820728 -0.368502 
14699 3 0.275502 -0.0249612 2.22031 
19885 1 -6.87203 -3.84691 1.7572 
14698 1 1.44726 -2.1339 0.201772 
14941 1 4.31304 -2.53649 2.90985 
14942 3 1.83072 0.348026 0.184774 
21238 1 1.34963 -3.19658 2.72598 
5717 2 -5.34689 -1.47881 2.84109 
19886 3 -0.327462 -1.51123 -2.70469 
1134 1 -2.51726 -2.84529 0.610384 
1133 3 -2.76668 -1.7546 -1.44006 
2726 3 4.22639 2.53408 0.335769 
1132 1 5.10118 5.40819 -0.336857 
3691 1 -1.64599 -2.5232 -2.75111 
3692 3 -2.3606 1.38967 -2.0548 
3299 3 1.35341 -0.72654 -2.44532 
2725 1 0.713157 -0.739515 -2.60212 
3300 1 -0.188562 -0.0356312 0.625036 
19344 1 -2.9647 -2.75611 3.753 
3298 1 2.58111 -0.25113 4.07886 
12748 1 -5.34996 2.64243 0.0993114 
15322 1 9.15713 0.703223 -1.92865 
1664 2 -1.72487 -1.82651 1.64244 
1665 1 2.71397 -10.2046 -3.90764 
16782 1 -2.55397 -0.408658 3.60743 
16781 2 1.36138 -1.28678 2.16906 
15323 2 -5.07968 -0.311792 -0.978425 
11104 1 1.40843 -0.273927 3.44706 
13964 2 2.11475 -1.40839 -2.05848 
13963 1 2.81951 0.716169 1.15685 
18226 1 0.17905 -4.17382 2.43138 
18227 2 -3.04653 3.45881 -1.95456 
18228 1 -3.24865 0.547463 -1.63377 
18919 1 -0.577959 5.62926 1.56917 
4603 1 -0.74047 3.38555 -4.36112 
15324 1 1.33903 1.37507 0.306226 
13881 1 1.44021 -2.81731 -8.65884 
13880 2 2.98381 4.41904 -1.10894 
4604 2 0.0246237 0.862483 -6.82442 
4605 1 -2.90508 5.27552 1.21206 
14173 1 -4.59795 -5.72278 0.614017 
14174 2 -0.0161804 -1.61801 0.36147 
21329 2 1.32725 -1.35986 -1.31708 
2690 2 -1.57502 -1.76921 1.35084 
2691 1 2.9567 -0.234754 4.33329 
910 1 -0.0474848 -1.27721 -4.34804 
911 2 2.68255 5.03934 4.55748 
8139 1 -6.57487 2.702 -6.08431 
8328 1 -3.28702 2.20452 -4.76134 
21328 1 0.056458 -4.58327 0.222302 
14923 1 0.387177 3.71398 -5.15235 
21330 1 -4.52993 1.06294 0.245132 
21195 1 -2.80062 -3.07426 0.605838 
8327 2 -0.929088 -2.09226 3.48193 
8326 1 3.7401 -1.69749 -0.512898 
4594 1 4.32902 -5.41872 1.43699 
2000 2 -1.11901 -3.23511 -3.41751 
14669 2 0.461284 1.36995 -1.81688 
14670 1 -1.97026 1.80257 0.563539 
14668 1 -3.52687 -3.6636 1.54324 
16671 1 4.83533 -5.08467 -3.19052 
7848 1 2.45908 5.41362 2.34004 
3849 1 -3.09212 3.94192 -6.70945 
3848 2 -2.55805 -3.82389 -0.674229 
15983 2 0.0734327 -2.65966 2.3983 
15984 1 -2.45024 -6.0524 2.69079 
15982 1 1.89149 4.74019 1.46551 
3847 1 -3.42702 -7.94325 -0.425659 
3342 1 0.718166 4.88359 -3.30495 
19901 2 1.84185 0.366274 2.20858 
19900 1 -4.78331 1.08044 -0.236484 
9919 1 2.72818 1.11568 1.86696 
579 1 -10.2688 -0.260994 3.39624 
578 2 -0.570635 2.35729 1.84965 
577 1 -2.66987 -0.417485 1.76615 
20535 1 -8.42595 0.288199 -7.70995 
20534 2 0.477653 1.6578 -2.99718 
9921 1 -5.81615 -6.38694 -5.13676 
9920 2 -2.97359 -0.319121 0.682273 
14277 1 -3.11664 -2.10125 -0.912879 
14276 2 1.04711 1.2434 1.91326 
13951 1 -5.82308 0.0277841 4.03912 
13952 2 2.41179 1.94652 0.415049 
1311 1 7.18169 2.32724 4.18722 
12686 2 2.01583 1.16407 -0.137371 
21271 1 -6.64837 -5.17737 -3.63504 
21272 2 -0.311022 -0.161628 -2.74406 
6165 1 -0.759516 -0.656012 3.18913 
20017 1 4.81874 -6.26699 -0.412737 
12685 1 -5.8315 1.64989 9.59043 
17596 1 1.06851 -0.14311 -3.41448 
20018 2 0.0374053 -0.742806 -1.65839 
17597 2 2.19213 0.226106 -1.84879 
17598 1 -1.17279 2.86153 -1.11509 
20438 2 -2.86815 -0.594026 0.648684 
20437 1 -6.90226 -1.49946 -3.36839 
13912 1 1.24123 -4.87083 -1.62623 
13913 2 -2.10624 -0.733112 -4.62759 
13914 1 4.38616 -1.08805 -2.74513 
21073 1 -0.986825 -1.08993 -3.27481 
16312 1 -4.21615 -2.14249 3.07917 
10786 1 -0.692621 0.00929102 -0.625672 
13293 1 1.84029 -9.97735 -0.077735 
4279 1 1.51659 4.99263 2.58345 
4848 1 0.971022 5.97379 1.60428 
4846 1 2.25673 -5.57302 2.07125 
4847 2 2.37858 -0.561423 -3.59772 
16754 2 -2.25012 0.0468937 3.35986 
13291 1 -2.77793 -2.93959 -0.790483 
13292 2 0.588945 1.2636 -4.61612 
11560 1 -0.272061 -5.23395 2.31167 
16755 1 -2.65119 0.690946 -3.17056 
21037 1 1.96288 2.48034 1.30311 
21038 2 -2.09428 3.71698 -1.61077 
8307 1 -1.93042 -1.88646 -0.855231 
21039 1 -1.67753 2.01264 -2.93797 
4943 2 -2.06614 -5.14673 0.0446992 
2935 1 4.25302 5.96168 0.532565 
5909 2 -4.36012 0.922177 -1.07194 
5910 1 -4.71111 -2.81101 -0.258375 
4942 1 0.612255 -4.13872 -6.88239 
5908 1 0.696665 -0.419714 -0.998361 
2936 2 1.44018 1.42112 0.00988421 
2937 1 -1.37323 -0.335323 -3.36875 
21400 1 -0.408208 2.50409 0.686618 
21401 2 -2.9358 -2.19376 -2.25842 
2592 1 4.42743 -2.60251 2.16754 
3385 1 1.73556 6.4344 -0.60303 
3386 2 4.26294 3.30262 -3.08304 
3387 1 -9.52383 7.55464 2.6536 
14835 1 -3.96561 -3.85181 2.46126 
1310 3 -0.400636 1.14632 -3.30503 
1309 1 1.18728 1.03172 -4.35992 
9297 1 1.57081 -1.56375 4.51507 
6487 1 5.1931 7.2262 -2.85303 
897 1 4.63565 3.36786 -2.4985 
896 3 0.558383 -0.128884 1.67908 
6489 1 2.11202 3.85341 2.89156 
6488 3 1.46888 0.283897 2.76997 
2921 2 -2.19725 3.09828 1.46868 
20019 1 -4.02419 5.98854 0.549466 
4638 1 -1.56022 1.21557 0.230803 
2920 1 -2.21305 4.10296 -0.347376 
18439 1 -4.57188 -0.00415888 -0.265527 
18440 2 2.23023 -2.74311 -1.33677 
18441 1 -1.76193 -4.34725 -4.21317 
8304 1 1.18914 -3.09243 3.40504 
4637 2 -2.28717 -0.100956 1.45467 
1287 1 -1.54554 0.271929 0.767831 
9569 2 -0.423739 -2.14965 0.000581961 
19255 1 6.56887 0.730745 2.95805 
6679 1 -4.36827 2.37842 -1.51756 
9570 1 3.52211 3.50408 6.79855 
19256 2 4.34174 -5.13838 2.56177 
19257 1 -6.41508 -4.70536 -5.50809 
12834 1 1.60299 0.230851 3.43454 
12833 2 1.47445 0.437482 -3.88421 
17439 1 -2.60679 6.49981 1.64915 
6680 2 0.584281 2.00734 1.53199 
17438 2 2.11535 0.106196 -0.420419 
17437 1 -1.05422 -0.645316 3.00512 
11650 1 4.14977 0.857288 -1.6267 
6681 1 -3.56536 0.98097 -3.78705 
678 1 10.0024 -0.768501 1.20589 
677 2 -1.27393 -1.57149 -0.153556 
18152 2 2.42453 3.4171 0.384394 
8385 1 -1.33006 0.916101 -1.02841 
4609 1 -0.703968 3.03264 0.0937207 
4610 2 -4.65995 -0.399851 1.0805 
4611 1 0.0121438 0.400732 2.21595 
11089 1 -1.41309 -2.0494 -0.0949103 
7002 1 -3.12382 -2.57346 0.406688 
18153 1 1.48417 2.33031 -0.947917 
15341 2 1.49583 -0.978367 3.84887 
2260 1 1.32914 2.07745 -0.680158 
18790 1 3.08912 -2.69109 -0.449989 
2262 1 1.36271 -5.74401 5.62289 
15342 1 0.874198 2.74597 -2.58375 
2261 2 -3.42587 -0.423653 1.40651 
12632 2 4.78392 -3.65352 1.08835 
6019 1 1.3655 -0.0371686 2.79335 
12631 1 -4.91283 -2.26223 1.29309 
6020 2 -2.36043 8.71496 -0.86968 
6021 1 -2.01798 -1.85847 -0.0881454 
8605 1 1.52723 0.0558803 4.61809 
8606 2 -3.90381 -0.325064 4.17015 
18676 1 -2.19059 1.4752 -3.89929 
8607 1 -2.97408 5.75818 -2.3107 
10657 1 5.99046 -0.758489 -7.00112 
9953 2 -1.02183 -1.49466 -0.128318 
13717 1 -3.52023 0.979185 -3.1848 
9952 1 0.880745 -3.12636 1.81738 
13718 2 1.02238 1.32176 1.48119 
10658 2 -0.769613 -2.22812 -3.17126 
20292 1 -3.59004 -3.55247 3.14012 
10422 1 3.94872 2.42448 2.74616 
10421 2 -1.9382 3.21958 4.27643 
10420 1 -2.71937 -2.76187 -2.08374 
12865 1 -1.22 -1.17384 0.412502 
9954 1 1.58588 -1.24012 -2.22366 
12866 2 2.63585 2.69148 0.0300804 
79 1 -0.705137 -5.09073 4.47593 
7272 1 3.59454 2.76973 5.73769 
14943 1 -1.27161 -2.12327 5.22151 
7271 2 2.91268 2.02638 2.11837 
80 3 0.810429 -0.387426 -0.636382 
12424 1 1.00205 1.2847 -3.22247 
12425 3 0.0353559 -1.20455 0.252373 
7270 1 -0.260824 -0.103266 2.41484 
3044 2 1.0371 -2.55766 -1.55995 
3693 1 5.70694 -3.65129 2.74845 
21239 3 2.94711 0.871196 1.52878 
3043 1 -0.265633 1.34333 1.46644 
17994 1 0.307118 1.91599 -3.91934 
12426 1 -1.62353 -0.750898 2.6256 
16255 1 -0.968985 -7.08772 -0.477915 
16256 2 3.35848 1.31276 0.691442 
17993 2 -2.56783 -1.49236 0.949119 
17992 1 1.66737 0.516218 -5.87641 
1902 1 2.65298 0.71408 1.76328 
21240 1 0.00808039 3.22627 5.56409 
1901 2 6.02374 -0.341187 1.70475 
19343 3 -1.06689 1.30922 2.34309 
12678 1 -2.66341 -2.52481 -0.0870562 
3045 1 0.388601 3.40558 4.3197 
16780 1 2.75227 3.11905 -1.238 
7555 1 -3.9399 1.31891 -2.33826 
7556 2 0.713062 2.56829 -0.600388 
7557 1 -4.84696 -4.61026 -5.1662 
20106 1 -3.44922 2.74939 -2.53236 
20105 2 -0.055928 1.49231 -1.10425 
19342 1 4.74439 2.07744 -4.25555 
13969 1 -3.91492 2.572 5.01318 
7001 2 -0.569279 -2.0885 -3.31441 
7000 1 3.47584 -0.360298 -0.48588 
18921 1 3.36419 -7.97753 -1.55186 
5964 1 -7.63287 -2.64004 1.2535 
18920 2 0.375721 -1.93068 1.92048 
5963 2 4.42401 -0.948266 0.379861 
13879 1 1.42961 1.64629 2.27968 
11094 1 0.0552558 3.89685 0.463459 
11093 2 0.0663814 -1.3495 -0.0126866 
19624 1 -4.89218 -1.06061 0.0470623 
11092 1 3.63378 0.520212 -4.55254 
14175 1 -1.46122 -2.43497 3.94226 
16909 1 -2.9189 -5.34418 2.15132 
7192 1 -1.64505 -0.253153 1.95874 
1253 2 2.60005 -1.43612 -2.05478 
2689 1 -1.52109 4.45978 3.19523 
9720 1 -3.42083 -4.0624 -3.17437 
1254 1 1.9106 -4.68837 0.198773 
9718 1 -0.176856 4.79644 -3.25682 
9719 2 0.188545 2.38857 1.28475 
16910 2 -2.74018 3.19066 -0.561011 
16911 1 -1.51602 -3.95759 -1.45377 
13362 1 6.36204 -2.06327 -3.30648 
12852 1 3.67571 0.118422 -6.39521 
21194 2 2.35801 -0.925763 -5.58724 
12851 2 0.649368 -0.57557 0.361863 
18744 1 0.520321 -6.18743 6.03019 
12850 1 1.61865 -2.86435 3.1594 
21193 1 4.04116 -6.66512 5.44391 
14781 1 -2.85859 0.0493325 -2.60526 
4595 2 -0.299923 0.709539 0.522836 
4596 1 0.513292 -1.6401 5.09885 
7713 1 -0.380257 2.41894 -9.11367 
15475 1 1.96942 5.59876 -1.14363 
7711 1 1.55987 0.618289 -4.20831 
7712 2 -3.03001 -0.853685 1.1671 
7847 2 0.946811 4.56737 1.6306 
10011 1 0.13141 -6.88156 1.57749 
7846 1 -1.47113 0.0347447 0.343452 
10010 2 0.604469 -4.07487 -0.579253 
16555 1 0.195655 -0.319064 1.44969 
10009 1 -2.94667 -5.43619 -2.51848 
138 1 4.15785 1.37967 -3.04248 
6050 2 1.85583 -1.91687 2.08081 
137 2 3.83971 0.856245 1.23376 
136 1 -5.09487 -1.28024 1.74223 
6051 1 -2.62352 1.15891 3.741 
19902 1 1.82993 6.87611 0.0832133 
17440 1 -0.615327 4.27105 -8.26556 
17441 2 -2.30735 1.04227 1.40884 
17442 1 4.65675 1.41848 0.0612553 
5896 1 3.62179 -2.43409 -0.957928 
13953 1 -4.63908 -6.09003 -1.94729 
15895 1 2.02721 1.35801 -5.42403 
15896 2 -2.1454 1.10845 1.62726 
15897 1 1.20199 3.38798 3.35276 
14323 1 4.07242 -2.64715 -0.689569 
307 1 3.68211 2.23785 -4.01576 
12245 2 1.08405 1.96648 0.783841 
309 1 -1.24968 6.89653 -3.25973 
12246 1 1.84058 -1.07168 -0.16918 
308 2 -0.322766 0.510334 -2.46271 
9918 1 -5.55697 -5.4951 -0.417001 
21273 1 0.527806 4.33404 -2.43733 
9666 1 -0.208725 6.26071 -9.54546 
9665 2 2.31174 -0.193306 1.03398 
9664 1 -1.18651 0.789211 -3.13781 
2186 2 -2.70383 1.38601 2.26369 
16375 1 2.44324 4.02884 4.02357 
10831 1 3.93925 0.117969 -3.76712 
20533 1 -0.546655 -3.74307 -0.717851 
10832 2 -1.11736 -2.19161 1.69292 
10833 1 3.73103 4.57475 5.5174 
21074 2 1.99697 -0.89171 -5.22407 
14645 2 4.22936 1.55208 -1.40551 
14646 1 -0.112235 -1.24791 7.40098 
21075 1 -2.72503 0.472758 -1.57082 
16313 2 3.92919 -1.15545 -1.00981 
16314 1 2.06366 -0.865598 -0.338212 
2187 1 5.36643 -1.01997 2.34829 
11445 1 2.85385 -3.26222 -2.14286 
20309 2 -0.593379 -1.93616 0.74946 
11561 2 1.68996 0.485992 -0.986917 
11214 1 -2.70373 1.68749 -5.90365 
8305 1 -3.09733 -0.412816 4.00239 
7281 1 -5.19552 1.71445 -2.7918 
8306 2 3.35414 0.0795742 1.70647 
7280 2 0.118374 -3.1944 2.13881 
11562 1 -0.518495 6.30032 4.53774 
11443 1 -1.69504 -3.82992 1.27607 
20308 1 1.76233 1.05984 2.43521 
11212 1 1.20392 0.809464 -0.0887038 
11213 2 -0.0367269 -2.14818 0.663132 
11444 2 -2.8439 -0.283853 1.8985 
7279 1 -3.32197 -6.91367 -2.21932 
1425 1 1.65801 4.18289 7.24973 
12410 2 3.06601 1.95139 -1.98418 
1424 2 -2.01083 -1.02269 2.47885 
1423 1 7.14364 1.80619 -3.76035 
12409 1 0.319441 -1.05295 -1.70686 
16069 1 1.56343 2.96802 0.913324 
9579 1 0.993083 -1.12673 0.627588 
9578 2 -0.228999 0.318858 4.53281 
21402 1 -3.4017 3.68096 1.7691 
9577 1 -5.93156 -2.5504 -0.263517 
14834 2 2.22341 1.35641 3.17929 
9296 2 -2.44636 -6.53113 4.66225 
9142 1 -4.52984 -5.30583 3.98951 
9295 1 4.68819 0.0926771 2.53564 
4647 1 3.45093 4.08214 3.85204 
4968 1 -2.13041 -1.261 0.801237 
4966 1 -0.594831 2.98115 0.109315 
14833 1 5.82058 6.85481 -0.214032 
4967 2 -2.78928 -4.59248 0.226931 
4645 1 2.71342 3.05887 -0.233721 
21264 1 -3.81095 -5.71539 -1.60178 
4646 2 6.456 -1.81225 0.774619 
1440 1 -4.41896 -1.90396 6.54391 
1439 2 -1.74825 -0.595722 3.42257 
16960 1 -0.304851 5.3981 -7.69327 
16961 2 -1.29087 -3.64362 4.22394 
3840 1 0.610009 -5.92174 -1.55007 
5022 1 4.2864 -2.1353 1.83642 
5021 2 -1.79718 -1.46056 1.67341 
1438 1 3.12636 -2.20299 -4.17917 
16126 1 -5.18033 1.98038 -2.71626 
4636 1 1.51908 -6.70142 0.937356 
1054 1 0.446538 0.815055 -0.277795 
1055 2 1.61993 0.822754 2.21878 
19525 1 1.40131 1.37476 -2.91117 
16962 1 -2.18264 -4.56447 -5.7198 
1056 1 0.964157 -0.726859 -2.23668 
8303 2 2.25527 0.628544 1.72636 
19526 2 0.856303 0.406271 -1.19893 
8302 1 -5.52699 1.80199 5.37871 
3838 1 1.00725 6.41529 -0.214304 
3839 2 0.855141 1.83507 -1.61222 
12832 1 -3.11963 4.21547 1.63944 
11651 2 1.52501 -1.59496 1.92024 
19713 1 0.329933 6.03224 -1.15705 
6778 1 5.05001 5.08465 -1.31463 
19712 2 1.27607 3.70185 -1.51905 
19711 1 2.51757 -3.08107 4.90833 
13744 1 -0.297916 0.512195 -1.10417 
11652 1 -7.62733 4.49341 -0.633718 
13745 2 2.06228 -2.99385 1.18752 
10663 1 -0.798509 -0.975518 -2.14832 
10581 1 -2.67827 6.49108 3.42585 
1959 1 3.40231 -3.76148 4.99244 
676 1 0.109012 -4.28771 -1.39534 
3802 1 0.349355 4.35014 0.355637 
3803 2 2.95819 1.76276 -0.131652 
3804 1 -4.638 -2.79821 -1.42031 
11090 2 3.53735 1.24523 1.75087 
11091 1 0.0331015 4.08447 -1.46065 
10665 1 -0.442751 1.39286 3.86553 
10664 2 0.625461 -0.24466 2.81355 
11280 1 2.92607 -3.76266 3.60237 
18791 2 0.97493 -0.200549 -4.0145 
11279 2 1.08836 1.03125 -2.81844 
18792 1 -0.909403 -6.67947 6.21674 
18678 1 3.38998 -1.42727 -0.329042 
8046 1 2.33043 3.28998 0.285626 
18677 2 2.30626 -2.70408 -0.299874 
8045 2 -2.27895 -5.17715 0.991934 
12815 2 -0.446632 -0.0608308 0.47658 
12814 1 0.828282 8.23775 3.13611 
21571 1 -1.69063 0.364589 2.1065 
5443 1 -1.11994 3.97078 -6.3444 
21572 2 0.961867 -2.52005 -0.61611 
21573 1 -3.22909 -5.89097 6.72965 
10659 1 -1.42401 2.79866 1.38227 
17038 1 -1.49112 0.616787 0.430065 
18565 1 4.56558 4.31826 -2.19245 
18567 1 0.187201 1.14606 -4.44825 
18566 2 1.47412 3.21307 2.73958 
12867 1 -1.79849 -3.25799 1.79982 
5444 2 2.58383 -0.64164 1.93502 
5445 1 2.78959 3.88511 4.34155 
17416 1 -4.62982 0.72579 -2.89935 
7380 1 -8.5948 -0.382041 1.47717 
16144 1 -0.593846 0.29816 -0.302579 
14919 1 2.81502 -9.59966 -1.41669 
16145 3 4.91962 1.56707 5.10626 
20407 1 -1.71542 1.16075 -2.29079 
14917 1 8.5868 5.42269 -0.141443 
14918 2 -1.87866 2.15011 0.394419 
8319 1 0.626784 2.72511 -5.35102 
20408 2 2.22209 -1.37053 -1.00222 
20409 1 7.27294 0.962867 -3.898 
12676 1 2.59235 5.0447 2.82804 
19743 1 -5.8918 -0.105965 -0.382523 
8318 2 0.426038 -2.5137 1.86785 
16257 1 1.74524 5.90454 -3.34203 
1936 1 -4.04508 -1.04473 1.71444 
20878 1 -1.31099 -4.07966 -3.17986 
20879 2 -1.03155 -1.89982 0.4643 
20880 1 -0.287023 4.34328 -2.37935 
12677 2 3.13649 -4.08924 -1.81609 
19742 2 -3.37634 3.96248 -2.63755 
1900 1 -5.38497 2.75225 -3.17799 
10191 1 1.18218 -2.50959 -2.14038 
10190 2 -0.614808 -2.66889 5.08697 
10189 1 -1.88086 3.06667 -4.91694 
10185 1 6.55137 -4.02945 -0.271592 
20104 1 7.44632 -2.2023 -0.159526 
17043 1 -2.50438 1.54472 -2.01678 
17042 2 -2.86797 0.892972 -1.89047 
1743 1 5.01735 1.27454 -3.84778 
17041 1 -2.45235 -1.6724 -0.978192 
8925 1 3.95175 -6.52988 2.3267 