ITEM: TIMESTEP
80000000
ITEM: NUMBER OF ATOMS
3930
ITEM: BOX BOUNDS pp pp pp
0.0000000000000000e+00 5.0000000000000000e+01
0.0000000000000000e+00 5.0000000000000000e+01
0.0000000000000000e+00 5.0000000000000000e+01
ITEM: ATOMS id type vx vy vz 
2650 1 -3.42767 7.40261 6.16323 
846 1 0.0943952 0.543273 -2.43464 
845 2 -0.861433 0.0462008 4.00403 
20707 1 -3.46137 -0.0746075 -5.72409 
18285 1 1.74603 1.66969 0.453783 
18284 2 0.410573 -1.55007 -1.41051 
17718 1 -0.154671 6.75909 -2.40016 
18283 1 -1.99328 -1.88947 -3.24929 
5944 1 -1.18252 -2.19714 -0.63602 
5427 1 -0.34265 4.31741 -0.690112 
5426 3 1.64447 -0.496786 -1.29577 
8023 1 -1.99312 1.91823 4.04255 
8024 2 -0.267587 -3.68768 0.588351 
20700 1 3.81102 4.66556 -0.902732 
19908 1 2.57221 -5.61396 3.32486 
9999 1 -0.366634 1.45784 -7.49818 
9998 2 -2.13472 -5.80664 -2.0407 
1939 1 -3.3335 -0.548711 -2.17452 
14290 1 -4.32171 1.17229 -3.71145 
1940 2 0.272316 -0.315855 0.986909 
1941 1 -2.11709 2.46681 3.29471 
18973 1 -5.37423 1.58139 -0.10732 
18974 2 0.177228 2.82558 -2.15125 
18975 1 2.58911 0.671115 4.72992 
18384 1 -6.23521 -3.0071 0.625325 
5372 2 -1.70247 0.32104 -1.7594 
5373 1 6.09134 -0.266457 4.81363 
18383 2 1.05085 -3.58997 -2.9129 
5371 1 0.102027 3.97801 1.08796 
4639 1 -0.0691522 1.75543 -0.425119 
4640 2 1.34644 -0.682519 2.31677 
7911 1 -2.15014 1.98846 -0.0766166 
20859 1 4.68958 -4.5822 -3.16716 
7909 1 -2.8975 0.936547 2.23613 
7910 3 0.952749 -0.110622 3.3618 
3798 1 -9.19209 2.20409 -1.47572 
21007 1 5.55571 -0.140858 2.29331 
14292 1 -0.239032 -3.37675 -4.51804 
14291 3 -0.435883 -3.82766 -2.90076 
20929 1 0.014024 -4.25241 -5.73088 
20930 3 -5.76783 -1.89125 -0.111434 
20931 1 1.50148 7.5281 4.40702 
8259 1 -0.543332 6.25703 -1.41451 
8258 3 -8.25222 -1.36384 -1.6145 
796 1 2.29636 -2.44176 0.684377 
797 3 7.89789 0.155298 -0.585207 
798 1 0.229605 0.51212 1.26111 
18196 1 -6.73725 -4.92894 6.60591 
18197 2 -1.88662 3.4102 -0.360616 
844 1 -6.08242 3.88514 -2.04846 
6813 1 4.38483 0.287317 -0.57451 
18198 1 2.58464 0.861022 -0.578698 
6537 1 4.60921 -6.46933 2.72546 
6535 1 4.27732 1.20157 0.904223 
6536 2 0.861918 4.18619 3.43753 
6812 3 5.21587 -0.701022 1.55892 
14797 1 -3.24213 -0.569135 -0.490616 
15661 1 -0.258255 -0.279225 -1.97836 
2651 2 -1.98354 -4.70733 -4.17608 
2652 1 -6.01842 0.214296 2.84378 
12310 1 1.28882 -1.40455 -4.11183 
9299 2 7.89499 2.19161 -1.85238 
12312 1 2.308 4.41144 4.43374 
12311 2 3.5366 -0.0830558 -0.0797901 
9300 1 -4.71174 -0.643103 7.38654 
3718 1 -7.25436 3.58014 4.61498 
3719 2 -1.72046 3.20222 -0.757585 
3797 3 -3.70039 -1.28254 -4.02906 
3796 1 1.95204 1.48058 -3.13328 
19373 2 -1.82759 0.433901 -1.42744 
19374 1 1.03955 -2.22086 1.31938 
19372 1 -2.97314 1.22132 -1.23336 
3720 1 -0.593194 -2.66068 0.221598 
3783 1 8.72979 -5.65048 5.01078 
2440 1 -3.4951 -4.63436 -1.27989 
8257 1 -5.32853 1.14524 2.7712 
20708 3 -7.53389 0.336631 1.81514 
20709 1 -0.792989 1.43066 7.75138 
2100 1 2.05656 0.64387 0.0191764 
2099 2 0.58289 2.20714 0.182008 
2098 1 3.77616 4.15811 -3.73879 
2441 3 -1.74923 -0.705869 -0.214249 
2442 1 1.46288 -0.353053 -1.80475 
6198 1 -2.14898 -3.13398 -0.616751 
13773 1 -3.35618 -0.291984 4.79779 
13772 2 5.55401 0.90252 -0.377506 
14508 1 1.49799 -0.94704 3.29889 
6811 1 -3.69774 -3.99309 5.46321 
19366 1 5.7377 3.93046 -1.69353 
13771 1 -4.58749 -3.15223 1.58452 
547 1 -7.98719 0.389728 -0.201035 
19367 2 -2.70062 -2.89684 -2.25493 
19368 1 5.36915 -5.56325 -0.198845 
548 2 1.89898 1.94386 -1.09376 
549 1 5.06966 -0.986294 6.80538 
1788 1 2.60686 1.06175 -0.529302 
1787 2 0.0423101 -1.42742 -2.72833 
5409 1 4.29063 1.9718 1.85188 
5408 2 0.732475 0.143205 -3.67078 
21254 3 -1.43009 -3.90076 0.606082 
10073 2 -2.38753 -4.41612 1.22767 
10074 1 -1.72617 5.20345 7.01983 
10072 1 0.475824 -3.99154 -4.68963 
21255 1 -1.62262 -3.0616 -3.0845 
5407 1 0.564343 2.63876 3.84249 
16632 1 -2.04001 3.89351 0.497934 
3782 2 -3.1354 -1.55073 1.81609 
12774 1 2.74949 -2.8125 4.53425 
17717 3 1.09647 1.82887 -2.3472 
17716 1 5.79826 -4.6145 2.98446 
15618 1 1.6829 -0.777551 -3.23754 
6191 2 3.38579 -0.30551 0.345449 
12772 1 -4.85284 2.65979 -3.15008 
6192 1 2.73576 2.29848 0.513413 
12773 3 1.81837 -1.22279 -2.614 
16631 3 1.61423 -2.87341 1.50299 
15617 2 -1.0072 -0.494963 0.201642 
6190 1 0.832288 0.634334 -0.869698 
6082 1 -2.33001 -0.795292 0.289727 
17517 1 -4.03211 -0.647895 -4.689 
6083 3 -3.19321 1.78643 -2.99187 
12372 1 -2.28185 1.14993 -0.840244 
12371 3 -0.839903 0.663852 2.20188 
12370 1 -0.0477991 -5.58497 -0.701498 
6940 1 5.67387 6.95771 -4.77969 
6941 2 1.10537 3.30407 3.10799 
21253 1 -2.64861 -1.58625 2.42734 
6942 1 3.32609 0.400187 4.01654 
5945 3 -0.262222 -1.38339 0.467791 
15169 1 3.87063 1.78834 -5.98367 
16630 1 4.31463 -0.23076 0.0741664 
5946 1 -3.22852 -5.80309 0.0118382 
18469 1 -2.87547 5.10237 -3.6392 
21489 1 0.777925 -0.665087 1.31423 
18470 3 -3.00513 2.82179 -1.45147 
21487 1 1.50552 1.77078 6.40457 
15616 1 0.863343 -2.35295 1.59081 
21488 3 2.24146 3.275 -1.97698 
8847 1 7.73574 -7.83479 3.64893 
13205 3 -0.305509 0.809991 2.12223 
18471 1 0.23253 2.34479 1.35251 
13206 1 0.914245 4.09497 0.717555 
19474 1 0.413523 0.170996 2.66173 
6450 1 -3.40974 -3.3718 0.529136 
19476 1 -0.892049 -1.94608 -0.423558 
19475 3 -2.44805 2.3749 -1.70049 
15777 1 2.11237 -2.94633 0.226303 
6449 3 0.0290585 -0.122928 -2.25243 
6448 1 -3.01906 1.21527 -0.534917 
14939 2 -0.0391941 1.11414 2.76799 
14938 1 -2.82637 0.468853 4.79558 
5425 1 -4.24169 3.3285 0.235778 
14940 1 -0.275022 2.46016 5.66644 
15732 1 3.6157 0.124556 0.756871 
15731 2 -1.63754 -3.31763 -1.54161 
15730 1 -5.35982 6.13124 0.174431 
8025 1 3.19568 2.66738 0.340591 
3930 1 1.92185 1.18355 -2.26827 
19906 1 2.56881 -2.13432 -2.5599 
18088 1 1.58538 0.650338 1.34695 
19907 3 -4.08916 -1.21956 -2.00064 
20699 2 2.47821 -0.897187 1.26596 
1803 1 -0.868912 0.47842 0.179887 
7996 1 -0.368003 2.55987 -0.572679 
1802 2 -1.4593 -0.4591 1.62245 
1801 1 4.09434 -3.88185 11.6246 
15198 1 -6.50309 -1.77441 -0.392483 
15197 3 -1.44897 -4.02069 1.34643 
7997 3 -5.04127 5.67896 -0.513662 
20698 1 2.65133 -4.273 -0.947186 
19491 1 -2.11634 -4.46951 3.84745 
19490 3 -0.378593 -3.22495 1.37466 
19489 1 -6.95601 4.96243 0.794281 
2683 1 -3.42728 3.65887 -2.64564 
2684 3 2.12012 -4.42586 0.142006 
2195 3 -1.96569 -0.392739 -0.734743 
2194 1 6.0668 2.11953 -0.973077 
9997 1 -0.559815 -0.26176 2.37616 
10620 1 -4.50409 0.157501 2.38481 
10619 2 -0.438166 2.7789 1.22119 
7536 1 2.34601 -6.69273 5.75498 
5402 2 0.217448 -5.52483 -3.46048 
5401 1 4.93802 -3.55733 1.3216 
9000 1 -3.4653 -1.03204 2.47906 
8999 2 2.16764 -0.414145 0.708388 
7535 2 1.22681 0.0766336 3.68796 
7534 1 -4.25944 0.573538 -4.03214 
19345 1 -1.40055 -1.36075 -0.347913 
18382 1 2.64536 1.7295 4.05507 
16531 1 4.01069 2.57049 8.14421 
5403 1 0.942351 -3.66944 -0.517182 
64 1 -0.758227 1.15777 -2.09143 
3929 2 3.74701 3.83266 1.14671 
15662 2 -3.55032 -1.795 -4.49073 
3928 1 8.85221 -6.07892 2.69799 
13692 1 1.69782 3.07675 -0.456985 
13691 3 -0.786529 0.955883 -0.425416 
13690 1 5.57825 -5.64346 -0.270068 
8998 1 -0.814085 0.237366 1.27196 
10947 1 -2.44264 -6.13267 -0.89196 
15663 1 7.11387 4.27712 -2.77656 
4641 1 3.6006 -0.128942 -4.02782 
20858 3 -1.23209 -0.397764 -0.00854017 
1161 1 -0.410739 0.63028 -0.101957 
7998 1 5.14363 0.935272 -0.18188 
18358 1 2.9585 -2.58453 -0.3967 
18359 3 0.0951564 1.84496 -2.78396 
18360 1 -2.13363 -1.46196 -2.74009 
5368 1 4.7762 -1.07104 -2.02952 
5369 3 2.90043 1.21099 -2.04709 
65 3 0.314791 4.46465 0.915405 
1160 3 -2.01345 -2.08294 -4.69892 
5370 1 1.31016 4.73667 1.55211 
2196 1 -7.41709 -2.70239 3.62688 
9564 1 -1.85811 -5.65676 -2.88158 
9562 1 0.710616 4.18386 -3.519 
19329 1 -9.14693 7.4386 2.60035 
19328 3 -0.942728 -0.255401 1.61983 
9563 3 -6.29932 3.13424 -2.04568 
15196 1 6.38208 -1.04098 -9.48716 
2685 1 2.96496 5.42537 2.37564 
17484 1 0.833939 4.40592 1.16898 
17483 2 1.71681 -0.272321 -1.37223 
16533 1 4.23017 0.603187 0.46424 
3421 1 -5.12382 -1.23252 2.30009 
3422 2 -0.691491 1.45757 -2.01024 
17482 1 2.59854 7.39756 -3.62596 
21279 1 -2.3439 2.51208 -7.82114 
21278 3 -0.187683 -2.05896 -0.600357 
21277 1 -4.91544 -3.6047 -3.02011 
3423 1 -1.86475 -2.04045 -4.99259 
16532 2 -3.16172 -3.26353 2.53442 
14799 1 -1.87196 1.78563 -1.65211 
14798 2 -0.160656 -1.67015 -3.05821 
10996 1 -2.99935 -2.77822 -0.865128 
14860 1 2.86131 -2.23787 -3.5391 
14861 2 -2.65506 -1.62265 1.81547 
10997 3 -2.25497 2.59934 -0.0668149 
10998 1 4.59976 -6.73485 -1.89067 
12454 1 -4.02817 0.130585 -2.70698 
12455 3 1.19267 -1.19312 -0.661776 
4719 1 -1.52063 1.2844 2.21344 
9298 1 -2.20943 6.29074 5.49507 
66 1 -0.709084 -2.61092 -1.21045 
19518 1 -1.25347 8.7166 -8.8756 
20857 1 0.608482 -8.58628 -1.30749 
19517 3 3.17849 -5.28971 0.522042 
19516 1 -2.48166 -4.8613 2.64152 
9861 1 0.861611 -2.30598 3.34875 
9860 3 -2.04802 0.470647 -1.0281 
9859 1 -1.97272 -3.11024 1.39905 
9175 1 1.54658 -2.0762 2.15998 
12456 1 -0.991714 -4.69279 -13.9638 
19327 1 2.96291 -2.59224 -1.00991 
3024 1 2.03701 -0.976393 6.67634 
9176 3 -0.125274 -1.7665 0.171541 
19033 1 0.507891 6.53598 2.9059 
9177 1 -3.53663 0.270056 2.17191 
1050 1 1.59886 3.11409 -6.41601 
1049 3 -2.37357 1.8831 -0.376091 
1048 1 3.56196 1.6267 -1.78713 
19034 3 1.62137 -0.823646 2.52731 
3023 3 0.0317146 -1.74824 -2.23375 
3022 1 0.714285 1.49199 4.02939 
15132 1 -4.73791 -2.33573 -0.942651 
6197 3 0.772183 -0.340671 3.15043 
11580 1 -1.4165 1.20563 5.02556 
6643 1 7.13706 1.12423 -0.936887 
11579 2 -1.25611 2.61992 -0.126378 
14506 1 -2.37438 -4.666 -2.80819 
16009 1 6.65577 -4.12377 -4.48192 
16010 3 1.10635 1.9543 3.38432 
14507 3 -1.44957 -2.91075 0.339527 
4718 3 0.391046 0.616958 -1.07946 
14862 1 -2.34052 -3.65956 1.03758 
11878 1 10.1815 2.9404 -1.17223 
16011 1 0.432948 5.30257 1.86027 
14073 1 -2.83849 0.500194 0.257507 
11879 3 -1.94806 2.48909 2.20865 
20836 1 -1.47954 -5.65232 -0.941467 
16453 1 -3.62942 -2.19878 -2.37306 
14072 3 1.30884 -1.26222 -1.0191 
20837 3 0.926463 0.63699 -1.91733 
16454 3 2.15396 -0.677831 -0.391549 
20838 1 2.28553 -0.457519 2.23862 
1786 1 0.229484 3.68178 -1.819 
8040 1 3.88675 -5.43967 -2.84027 
4717 1 -0.665626 -0.769151 0.703062 
10240 1 -3.93655 -7.04637 0.509611 
10241 3 -1.9869 -1.80941 -0.828995 
10242 1 -1.76043 -7.67845 -1.51972 
4899 1 -1.23917 3.12823 -1.61154 
4898 3 -1.03162 1.40805 2.98104 
4897 1 -1.55887 -6.92679 -1.90299 
17067 1 -1.2793 2.83215 3.13421 
19827 1 3.20479 0.123841 -2.73424 
3781 1 5.36587 -7.02182 4.20744 
14545 1 -3.43161 3.33833 2.63456 
20622 1 -0.849076 -5.9117 3.57232 
8039 3 5.36947 0.866762 -0.42353 
19826 3 -3.50568 -1.20682 2.04037 
19825 1 0.497046 -2.3536 0.966723 
11784 1 3.7696 3.29369 -0.141024 
20621 3 -0.713825 -0.995269 0.596809 
20620 1 2.72508 -1.21484 -2.84667 
14350 1 -2.57572 -2.02471 0.925748 
11783 3 -1.49719 -0.543836 0.880152 
18429 1 -3.24798 3.94469 6.3699 
3531 1 6.10519 2.89301 -2.48129 
3530 3 -0.129292 2.42711 -0.104165 
16032 1 0.938009 -3.47492 5.13781 
3529 1 4.8284 -3.20512 0.914451 
16031 3 -2.51967 0.596754 2.70427 
16030 1 -2.00089 4.9064 -2.3462 
6084 1 1.44964 0.466613 0.90499 
17516 3 -7.05809 -1.60653 2.05297 
4013 3 -1.51094 -0.417473 1.91694 
16455 1 3.29665 2.59799 1.90796 
17265 1 -6.68872 0.578466 -5.79951 
14547 1 1.03143 1.65954 -1.54596 
612 1 -2.17133 0.244759 -3.19583 
611 3 0.596649 1.57628 1.99317 
610 1 0.63328 -2.95159 -5.15372 
10770 1 2.49367 -1.30575 0.987324 
14546 3 0.750785 3.24162 2.39694 
17264 3 -5.77671 -1.16232 -2.10891 
4012 1 -0.992557 -3.57256 -5.96252 
17515 1 4.91983 2.74076 -1.07008 
11636 3 0.551726 -2.67956 -2.7744 
11782 1 2.00259 -3.68075 4.70806 
18021 1 -4.20631 -3.54851 5.78734 
18020 3 2.68094 -0.414154 0.226068 
18019 1 -0.867703 0.0094699 1.3812 
17263 1 -1.72622 -6.50555 -1.24032 
5629 1 5.07165 -0.759103 1.72009 
11635 1 1.76715 0.185117 5.53148 
1842 1 1.69776 10.8532 7.63281 
8845 1 -0.790346 0.318822 1.45406 
8846 3 4.29564 1.95474 1.55969 
19461 1 -1.39551 2.52986 5.8981 
19460 3 0.55476 -4.93453 -4.76384 
9946 1 4.62569 2.25514 -7.38197 
9947 2 -3.69151 -1.3493 -5.04575 
9948 1 -2.0217 -5.93373 -2.49751 
13080 1 -3.54359 -4.88249 1.25343 
14551 1 1.49664 -0.299036 -7.41135 
14552 2 1.13037 2.87814 -3.65863 
13082 2 -1.30907 1.06254 4.83873 
13083 1 -2.52324 -4.27949 3.41572 
14553 1 -1.08817 -0.948333 3.37754 
5926 1 -3.08897 0.189518 6.99595 
13081 1 4.27623 -2.88385 0.371481 
5927 3 -0.820501 2.79663 -0.526661 
32 3 -0.87461 1.26894 4.3869 
10795 1 6.95653 0.163859 -7.99226 
10796 3 2.41969 1.90434 0.437691 
31 1 -3.21322 -6.19123 3.90955 
5433 1 -3.09783 -0.67779 -5.32348 
4237 1 0.529768 -1.55924 3.7701 
4238 2 2.72831 1.87226 -1.51616 
10797 1 2.9477 -0.26356 -3.94578 
18089 2 -4.14448 -1.26908 -1.47767 
18090 1 -0.595326 5.1408 2.00699 
6577 1 -0.926388 0.660285 3.81009 
18126 1 3.5421 -3.72207 0.332238 
18125 2 -2.37461 2.76415 2.0665 
18124 1 -1.82119 -4.44814 -0.244628 
10648 1 -2.46509 -0.613443 -1.60189 
4239 1 -3.06205 -3.39764 -5.76851 
5341 1 6.43971 -1.71873 -7.99469 
5342 3 -0.133631 -4.85114 -4.46195 
6578 3 -1.28354 4.2724 1.01617 
10649 3 2.49284 -4.30733 -1.18811 
6043 1 3.61671 -3.52482 -1.61046 
6044 3 -3.03819 -2.86991 -5.12516 
6045 1 -6.61655 5.80514 5.78704 
2838 1 -3.92376 -3.68736 5.01867 
2837 3 -1.99048 -0.44648 4.0283 
13079 3 -1.61176 -0.534852 -3.73396 
13078 1 -4.10262 -4.31116 -1.84363 
21349 1 -4.35978 -8.18004 -3.82652 
21350 3 1.55805 0.827609 -0.724265 
21351 1 -1.76579 -4.48505 -1.04764 
20244 1 4.70152 0.225151 -6.28942 
2866 1 3.30886 4.40525 1.9758 
19346 3 -0.973992 1.84169 -1.04949 
19347 1 3.4375 -1.30038 2.18275 
667 1 -2.0098 2.26145 3.12905 
2867 3 1.4581 -3.92085 5.35841 
5432 2 0.814819 -2.66038 1.64193 
21027 1 3.19113 -2.23525 4.29997 
3333 1 -4.89206 -0.700366 -5.2384 
10946 3 -3.22248 0.915948 -2.51353 
3332 3 1.03305 0.749628 2.52824 
10945 1 -7.80404 3.04799 -2.15254 
21026 2 3.2855 1.02726 2.94896 
21025 1 7.11079 1.95817 0.622362 
10326 1 -0.982269 4.69742 0.685293 
10325 3 -0.00913518 -4.10836 -1.48883 
3331 1 0.35134 -1.18649 0.679553 
8637 1 1.2768 -5.98393 0.2085 
6579 1 3.32851 -0.546823 2.10574 
10339 1 -1.71741 -4.644 -5.82166 
10340 3 0.961132 -3.13752 4.59235 
8636 3 3.25682 2.33123 -9.31856e-05 
10341 1 0.856978 5.73215 10.8211 
12262 1 7.16668 2.52096 3.24453 
12263 3 4.40809 -0.0994214 -1.05607 
14364 1 -3.78252 -3.59123 1.80198 
2836 1 -1.19632 5.83626 6.21427 
10650 1 5.74757 0.581101 -0.742551 
15756 1 6.19198 -1.95628 -0.575652 
14363 3 3.56902 -1.3198 1.69496 
14362 1 2.58581 2.07963 -3.111 
13591 1 3.03396 2.31253 0.184344 
13592 3 -0.88201 -0.663238 -1.26892 
15755 3 2.16184 -0.460453 4.95326 
15754 1 2.37972 2.04469 -1.18467 
8782 1 -3.6748 5.25352 -2.89348 
8783 3 0.400454 0.62005 -2.54099 
13593 1 1.23315 4.42665 1.37658 
12264 1 6.4678 2.18557 0.775242 
741 1 -0.17562 3.69419 7.6674 
19953 1 -0.874978 3.14944 3.13999 
19952 3 -1.58182 0.771407 -3.91299 
19951 1 -0.230964 -5.69867 7.614 
7410 1 0.370408 -1.52781 -1.60334 
7409 3 0.348795 -1.71669 1.41528 
7408 1 -0.910232 -4.07553 -8.27408 
7858 1 3.28628 -8.3786 5.672 
10873 1 -3.12663 2.59735 0.700776 
10618 1 2.68898 -5.78708 4.93028 
5832 1 2.60898 -0.0353089 -0.876771 
5831 3 2.0972 9.29096 0.104145 
5830 1 -3.32566 -2.97664 -2.1146 
12156 1 -7.75663 0.299264 4.25081 
12155 3 -0.752715 0.977721 2.64927 
12154 1 -3.66022 -2.23738 -1.5409 
21478 1 0.450124 -4.71827 -1.25985 
668 3 4.09319 3.91353 3.77429 
669 1 -4.00358 0.943714 -13.5352 
2868 1 7.08532 -5.8653 0.581964 
78 1 4.50993 0.627389 -0.459896 
20325 1 -4.62866 2.59517 0.908764 
10874 3 -5.48425 -4.75945 -0.567286 
10875 1 4.72989 -1.7001 3.23479 
3025 1 5.96405 -0.58723 -1.64678 
12955 1 -7.55004 -0.636645 -3.6797 
20324 3 -0.12184 -2.19721 0.171719 
3026 3 4.63318 3.83646 -1.95015 
20323 1 -0.252381 1.91565 -9.21265 
18691 1 1.33573 -3.81753 -0.288219 
18692 3 3.89311 5.93513 -0.41554 
12956 3 -4.51317 -0.143899 -2.02074 
3027 1 -1.10607 0.860464 1.82738 
1159 1 -0.960349 -0.930926 -3.69669 
14842 1 2.30943 0.16909 -4.23191 
855 1 2.38528 1.49654 -4.82575 
8635 1 0.520726 3.78589 0.197684 
20286 1 1.9849 -4.13317 0.479097 
14843 3 1.58211 -2.9859 0.360664 
14844 1 -1.6649 3.51624 -3.12077 
14260 1 -1.18916 -1.1571 1.49104 
14261 3 4.21706 -0.367647 4.00486 
18693 1 -2.25766 -3.92855 3.23832 
2764 1 5.32232 3.01479 1.30509 
854 3 2.31515 0.332798 -2.35519 
2765 3 -0.313237 0.902494 2.11316 
20285 3 -1.19696 -3.41992 2.49783 
14262 1 4.40738 -4.17413 2.53114 
10000 1 -2.15818 -5.11004 1.95013 
10174 1 -4.03625 2.29761 1.20449 
15131 3 -0.821459 -0.865962 3.56282 
10175 3 -3.11541 0.656222 -0.618055 
10176 1 -1.96134 0.51948 -2.92475 
20446 1 -1.9352 -6.71682 0.922447 
20447 3 2.31886 4.34123 -0.197329 
15130 1 4.03877 -1.97863 -1.72312 
20448 1 1.05536 -0.341804 -3.95845 
12067 1 -0.50061 4.04836 0.561047 
14068 1 -6.19632 1.16529 0.386366 
6644 3 3.8958 1.12144 0.771019 
4686 1 -2.50133 0.934491 -1.58193 
11578 1 2.25993 -3.86811 -3.71146 
4685 3 -0.0943327 3.40937 2.70477 
2179 1 -2.00542 -4.3582 -1.64551 
2180 3 -1.98624 2.01242 0.439873 
2181 1 -4.15654 1.00395 -2.38186 
8151 1 -1.02379 3.15211 2.6155 
21479 3 1.37509 0.640952 4.90891 
10470 1 -0.532954 -5.94233 -0.992812 
11880 1 2.30907 -4.58972 -0.518986 
9688 1 2.00726 -5.15197 3.75825 
6645 1 8.50384 6.46793 7.19498 
633 1 -1.85633 -3.09786 -8.96934 
632 3 -0.948245 1.26748 5.3237 
631 1 -4.11185 1.37333 5.71499 
14286 1 2.09495 -3.10946 5.69122 
10469 3 -0.101272 -2.1362 2.27837 
9689 3 -5.74311 0.409027 0.423001 
10468 1 5.31048 3.68345 0.184381 
14285 3 4.24561 1.12792 -0.274184 
14284 1 1.58974 -0.818303 -0.905203 
12690 1 -0.604436 -2.49871 -1.68691 
9690 1 2.29945 0.650921 2.72254 
16066 1 -1.23317 0.58241 -2.03678 
12689 3 4.9555 0.879724 1.15316 
853 1 2.79616 0.767806 0.348096 
1507 1 0.322676 0.584402 -5.90741 
1508 3 1.74155 -1.61926 0.0922369 
1509 1 3.75129 -3.67733 -4.27941 
9472 1 -4.86741 -1.32764 4.93553 
9473 3 0.678982 0.2432 -2.35559 
16067 3 -3.66129 -3.31117 0.0767181 
8038 1 -1.91737 4.44936 -2.98451 
9474 1 1.82857 7.06738 1.58298 
6816 1 -0.485986 4.40626 -8.7031 
6815 3 0.554322 1.91421 2.99317 
10001 3 -0.918241 -4.00996 0.470286 
6814 1 -0.426225 -3.90219 -3.58318 
13156 1 -2.99902 -0.165594 -1.13556 
10002 1 8.06093 -0.840942 1.33285 
18504 1 -0.768802 1.17053 2.44797 
18503 3 1.93914 -0.172716 -2.10077 
13157 3 1.18609 -2.89675 -0.509313 
18502 1 -0.322397 2.22449 5.06905 
9850 1 6.08623 -3.77031 1.17567 
17706 1 -2.62039 4.78668 -5.41817 
9851 3 0.0648764 1.16206 -1.09229 
12068 3 0.828741 -0.74698 0.0769753 
14069 2 1.9032 -0.811467 0.747852 
14070 1 4.52319 4.27051 9.19168 
2562 1 -1.41123 0.35162 -0.412665 
2561 2 -3.21402 -2.97919 1.78569 
4684 1 0.0342654 -0.21042 -3.18316 
7957 1 5.297 2.65292 -3.71596 
2560 1 -0.781489 8.21257 3.56026 
5967 1 1.69302 3.86847 4.29744 
7755 1 -0.639825 1.08496 -4.94965 
14071 1 0.553066 -0.335639 -2.95081 
20842 1 -1.46923 -4.10845 -2.27654 
7958 3 1.25142 0.872379 0.395328 
7959 1 0.255326 2.24787 1.76716 
73 1 2.72565 4.80592 4.9176 
75 1 -3.07433 4.56454 -0.147945 
20843 3 -2.09334 -0.756158 -2.21288 
6118 1 -1.63369 2.0806 -2.17652 
20844 1 4.66841 -2.70254 0.696393 
12490 1 1.36911 2.64885 -4.10743 
12491 3 -4.55271 -4.57145 2.95541 
74 3 0.563542 0.146141 -1.78637 
10769 3 1.13884 0.106053 -0.119121 
12033 1 -2.09199 -3.11742 1.61991 
6119 3 -2.99652 -5.7857 0.436979 
16068 1 5.04035 2.20851 1.27248 
18649 1 -1.11044 0.326998 -4.14513 
18650 3 3.35022 -2.87394 -6.70311 
18651 1 1.19366 -1.10891 -0.132525 
8721 1 1.79819 -1.86627 1.72717 
6120 1 2.31191 1.62409 -0.630998 
10768 1 0.160087 4.09451 2.32729 
8720 3 1.28836 -0.175929 0.0321927 
17066 3 -0.976091 -5.27666 1.58986 
17065 1 -2.3244 0.538105 -1.43733 
17705 3 3.43732 1.64168 3.92114 
17023 1 2.33339 -3.17251 0.0519329 
17025 1 0.227046 -4.09296 1.37363 
17024 3 -0.893828 5.01935 2.62834 
13158 1 0.208152 -1.60035 -3.5978 
17704 1 -4.14913 3.19746 -6.23793 
18343 1 -2.2417 3.05103 0.550853 
18344 3 -0.36536 5.1651 -0.740725 
19861 1 -1.68492 0.170935 -3.36135 
2226 1 -7.52512 6.97671 1.70884 
8775 1 -4.28562 -4.09108 -5.8244 
19459 1 -2.48038 6.64869 -1.52617 
10575 1 -5.41202 3.79244 -7.09952 
10574 2 -1.34072 -1.28824 -2.17816 
2980 1 -0.388227 -0.640443 -4.43233 
19708 1 -4.05833 2.90762 2.21966 
12858 1 -4.06435 -4.8886 3.17362 
10573 1 5.38486 -3.61877 3.32889 
12857 2 -1.80736 1.20611 1.30086 
2981 2 0.375114 -2.42701 3.18714 
2982 1 0.0466962 4.63235 1.2259 
33 1 -3.84081 -8.7578 -1.02531 
8570 2 1.77395 3.79498 -1.70214 
8569 1 2.50789 5.56182 -1.09201 
8571 1 0.574779 1.45414 1.78516 
10197 1 1.50953 -5.50995 -0.204202 
10196 3 2.18568 3.98532 0.933355 
17650 1 -1.99192 -1.35014 6.93975 
17651 2 2.94631 -3.13253 7.25564 
17652 1 3.86941 2.33544 -3.85192 
16737 1 5.51082 -1.34068 -2.86388 
984 1 -2.43936 -2.15816 -4.13058 
16736 2 -2.19454 -6.07528 -0.328705 
8774 3 3.55278 -3.93063 0.0535431 
8773 1 3.3548 1.5119 -2.41311 
20259 1 -2.71102 -1.28163 5.55443 
7857 1 -5.1566 -1.15641 -8.80043 
982 1 1.89909 5.51748 2.07185 
983 3 -2.26353 0.733516 -0.339083 
7856 3 -0.394751 2.47567 -0.464195 
20258 2 0.869961 4.05114 3.64236 
17938 1 2.57495 -11.5292 6.3991 
12856 1 8.9867 -0.998854 5.0504 
20257 1 -1.62005 -3.60079 -4.81387 
12589 1 3.38568 -7.3229 -1.26295 
20992 1 -1.48815 -2.57817 -2.36028 
12590 3 2.02821 1.90615 -0.597802 
20993 3 1.83405 3.36508 2.9768 
20994 1 -1.76196 -3.00254 -2.63831 
20243 3 1.95652 -2.19478 4.55544 
5822 3 -3.78992 1.82502 4.59922 
5431 1 3.62914 -1.59155 -3.05991 
5821 1 2.04443 -2.2215 3.43149 
5823 1 -3.44149 1.81531 -4.89995 
3829 1 -1.97485 -0.155756 0.264696 
10195 1 0.128562 3.96613 1.83218 
13701 1 1.87812 2.13719 3.2056 
16735 1 -6.30666 -1.58243 3.2822 
10324 1 3.965 -1.01849 1.16037 
13700 3 2.89915 -2.81595 3.8713 
13699 1 -1.86194 2.02503 4.61507 
20815 1 0.347325 -0.320537 -4.71069 
18493 1 -0.799014 -4.92419 -2.2977 
19731 1 -0.812778 -0.0597485 -7.95236 
20816 3 -1.30994 -1.70097 -2.30902 
20817 1 -2.32231 -3.42019 0.339343 
5343 1 4.42544 -3.51222 -1.64956 
361 1 -1.07246 4.36419 -0.856814 
19730 3 2.11837 2.88616 0.914939 
7855 1 -5.96887 -2.83802 0.0672941 
18061 1 0.201119 -1.0741 2.39856 
19729 1 0.996455 6.69345 -0.25889 
4450 1 4.33163 -5.68409 1.06941 
4451 3 0.78651 1.16678 4.09155 
362 3 -0.477066 -2.72118 4.47022 
363 1 -0.81399 -1.68061 -11.6448 
2421 1 -2.17372 -4.57446 1.73609 
18062 3 -2.35137 -0.535108 -0.915067 
2420 3 1.57224 -0.109308 -1.92852 
12591 1 3.38891 0.586186 3.6574 
8712 1 5.642 1.85482 2.66818 
4858 1 0.230338 -0.0226953 -5.72204 
4859 3 2.21362 -2.11429 -0.326668 
4860 1 -0.0751905 -4.03466 -2.60591 
18063 1 6.00555 1.77198 -2.74577 
2419 1 -4.31491 0.00489728 -0.42967 
3830 3 -1.1018 0.737999 -0.370701 
77 3 -4.55544 2.47534 -3.2082 
76 1 -0.024866 5.25689 2.61858 
19093 1 -0.0218502 -1.53047 3.00712 
19094 3 -0.25791 2.04536 -2.6572 
19095 1 1.15414 2.28902 4.92172 
927 1 -8.10557 4.28674 -2.15356 
18494 3 -3.05823 1.00831 0.672456 
3831 1 0.465657 3.71831 -6.60438 
12957 1 0.908622 4.0122 1.86472 
18264 1 7.09229 -4.11956 -1.89796 
18263 3 0.0247018 2.65218 -1.20734 
7950 1 2.36386 3.583 2.6137 
7949 3 3.76897 0.554073 2.78905 
7948 1 2.58161 -3.24175 3.41673 
18262 1 -3.82756 0.308261 4.96561 
10042 1 1.41761 -0.841979 -1.33003 
18495 1 2.40707 1.82841 3.30115 
1120 1 1.70217 1.78703 2.20242 
4452 1 3.43275 -2.40942 1.80277 
349 1 0.570343 -4.36097 0.0827994 
1121 3 1.01486 1.03188 1.43626 
1122 1 -0.345204 3.52609 2.4571 
20284 1 -4.78929 0.103533 -0.919135 
14830 1 -1.078 -1.15087 4.01169 
14831 3 5.08762 3.08032 -0.756544 
350 3 1.73213 0.117621 5.02793 
14794 1 -4.49381 -5.89296 2.33976 
351 1 -4.97594 -1.90836 -2.50884 
4087 1 -0.0795917 0.226128 -1.36794 
15162 1 0.342071 -3.11067 -3.88585 
14795 3 2.41247 -0.904769 -4.31435 
14293 1 2.11792 -6.29969 -4.18796 
14796 1 -5.03861 -2.29892 2.84656 
14295 1 -1.42065 1.46759 -4.12305 
14294 3 -4.26431 -1.09738 -3.28199 
15420 1 2.20574 2.92245 3.23854 
16549 1 4.02158 -4.66037 1.61389 
4088 3 -0.117558 0.472643 3.47985 
4089 1 -1.75518 1.44696 -0.861709 
16550 3 -5.87395 0.454316 1.27075 
20788 1 -3.91045 -0.202437 4.28365 
9264 1 -5.9928 -1.44451 -0.95591 
9263 3 -1.81204 2.40612 -5.26211 
9262 1 -2.47024 7.0375 5.41197 
9780 1 -3.32958 -8.66002 4.43989 
8150 3 2.4282 -1.02062 -1.12476 
7859 3 1.99138 1.31274 -3.61162 
16383 1 -1.32727 3.70039 -4.43896 
7860 1 5.06981 -7.03697 -6.01182 
13446 1 -8.55664 5.11456 1.43883 
13445 3 1.67828 -2.19592 -0.80617 
16382 2 -1.09821 -1.84406 -1.02639 
16381 1 -4.80605 -0.228088 2.60102 
14548 1 -5.53688 -1.2926 0.319014 
13444 1 -2.517 3.39692 0.362641 
14549 3 -3.0613 -0.413064 0.113358 
6336 1 3.46463 3.26198 5.14295 
21480 1 1.88364 -0.185358 3.28142 
4800 1 2.94788 -3.21631 -3.65701 
926 3 4.54435 -0.42862 -2.40194 
16197 1 -3.83643 -2.72667 -4.40349 
16196 3 -1.28301 -1.52207 1.47641 
16195 1 -6.35643 -0.0633396 0.701368 
13257 1 2.66684 -0.878381 2.14226 
13256 3 -4.58074 -4.28629 2.91664 
925 1 -2.31537 -1.66209 -2.55008 
15768 1 -3.67349 1.27725 2.64161 
4799 3 -3.05311 1.95713 -3.56675 
15767 3 0.29367 1.01667 1.90431 
12688 1 5.36104 -1.68009 -0.290534 
4798 1 -5.62099 -2.60814 -5.66995 
2766 1 3.89643 0.26237 2.61963 
2694 1 -6.18748 1.96957 -0.470997 
13741 1 4.24997 0.967001 1.25708 
14868 1 3.14129 -3.21006 3.16609 
13742 3 -5.29161 3.539 1.00118 
13743 1 -4.80094 2.82295 3.47962 
7629 1 -1.90508 -3.43829 4.53872 
14832 1 -4.30491 -1.57251 -2.22449 
12520 1 2.43259 -3.06562 1.83822 
2693 3 5.77908 3.68379 -0.667003 
2692 1 -2.78598 -3.73668 -1.97226 
18489 1 2.96732 -2.70505 -7.0839 
12521 3 -0.956872 2.85875 3.4622 
14867 3 3.16405 -0.577239 2.306 
18488 3 -5.38943 2.09972 -2.41033 
15419 3 2.75484 -3.01602 -6.64122 
15418 1 1.75008 4.26931 1.64702 
6001 1 -0.556021 0.251947 0.392274 
6002 3 4.55323 2.00104 -1.54594 
6003 1 -1.06757 2.13679 -5.07241 
18487 1 1.67658 0.635611 -2.14361 
12522 1 3.28134 2.22959 2.77406 
12420 1 6.3765 1.70775 -1.98531 
4333 1 1.55697 2.56616 -0.151601 
1057 1 -0.109618 0.418102 4.50171 
20789 2 -2.08504 0.810237 -0.83182 
20790 1 -2.50173 -0.338788 1.6547 
14248 1 3.82102 7.09321 -0.501818 
8206 1 -0.179548 -5.66694 -9.42555 
8149 1 1.2356 1.31927 5.24072 
8208 1 4.94648 0.487556 1.58168 
5966 3 0.0632863 0.477305 5.10385 
5965 1 -1.26413 8.37438 -2.05412 
8207 3 0.995639 -0.94851 -2.43246 
6096 1 0.827849 -3.43733 -3.86099 
6095 3 -0.749847 -0.590753 -0.686628 
12492 1 1.71831 -1.13377 0.220939 
14550 1 -2.62193 -3.31639 -2.22028 
13255 1 0.391869 -4.89105 -1.87558 
18924 1 -6.5952 -2.34412 -0.885702 
6094 1 -0.683327 0.784093 -1.1619 
3217 1 -1.99184 -1.64331 -2.0277 
8487 1 -2.69589 1.02215 -1.18526 
18923 3 0.403438 -2.1537 -1.85265 
8486 3 1.81078 1.72934 -1.73739 
8485 1 -5.70171 -0.245447 2.55803 
3218 3 1.32538 0.215799 3.94201 
14249 3 -3.59209 -1.80204 -2.83622 
2698 1 0.391369 -2.67395 0.315143 
9408 1 4.57544 0.989693 10.691 
2115 1 -0.726398 -1.49153 0.25029 
2113 1 1.22327 -1.33978 0.597572 
3219 1 0.207647 -0.183069 1.28262 
9406 1 3.26016 5.36451 -3.99631 
7628 3 -1.36093 1.49635 1.28906 
14866 1 -1.69977 4.50964 0.444459 
10614 1 -1.7744 3.2147 1.17053 
10613 3 1.00069 -1.80218 -1.55454 
10612 1 -0.527805 3.04219 0.328282 
2114 3 5.15571 -2.75679 -1.24584 
9407 3 -1.12883 -4.49558 -4.77511 
7627 1 -1.06568 2.51972 12.3583 
3433 1 -0.794551 1.18429 -4.18183 
3434 3 2.89753 2.71922 2.87436 
2379 1 2.87028 -3.61396 2.29648 
7543 1 -0.880579 -4.01171 -3.20285 
13546 1 -0.664638 1.0745 0.0342839 
12306 1 -1.58228 2.37874 -7.46381 
12305 3 -1.80592 2.45599 1.71231 
18345 1 -0.741406 -0.9898 5.6141 
7544 3 -1.33597 1.23419 1.18836 
4334 3 -1.48217 3.64692 -0.157409 
7545 1 -2.7446 0.525281 0.435176 
4335 1 1.41855 -1.49511 5.69115 
10084 1 -2.97045 4.74205 -14.2335 
10086 1 -1.33969 1.0221 7.278 
10085 2 1.89843 -2.9461 0.49036 
5913 1 4.30844 -2.00911 -4.7917 
5912 3 -1.10754 -0.257757 0.794447 
3963 1 -8.43103 -3.85055 2.90521 
3453 1 1.01963 -3.8078 -5.97717 
3452 3 3.37945 -1.06453 1.42714 
12988 1 0.0558235 -1.50404 -0.24271 
12989 2 1.47927 -0.934651 -1.29794 
12694 1 -7.75464 -3.75558 1.40295 
12695 3 0.881929 -2.43248 0.00708876 
12696 1 -1.18136 -4.96413 6.3749 
10552 1 -3.54852 1.18591 -2.12581 
10553 2 3.2413 2.09757 4.04637 
10554 1 1.28559 -3.82945 -0.427073 
14334 1 -4.76544 2.92984 2.62493 
14333 3 -1.2511 -4.05091 2.16445 
14332 1 1.09542 0.278999 3.60844 
10963 1 2.25638 -2.44453 -8.64512 
5911 1 -2.85766 8.42523 0.512382 
9358 1 2.42491 1.00623 -9.49573 
3042 1 3.65494 0.712631 -2.18173 
3041 3 4.54939 0.530774 -0.563272 
3040 1 1.09968 -1.19669 -1.00916 
7431 1 -1.63152 2.58532 1.12081 
7430 3 3.21688 1.02937 -0.494707 
7429 1 -1.45901 -2.95717 -6.32571 
18963 1 -1.44687 0.958148 -2.43479 
3451 1 -4.3993 -4.65393 6.087 
13560 1 -4.16258 -2.99876 -0.648797 
10964 3 -0.907532 3.81777 1.34431 
3962 3 1.27322 1.5562 2.33043 
13559 3 0.544943 -4.86704 -0.675807 
13558 1 1.65095 1.61923 -0.504866 
4833 1 5.66126 3.28152 6.82585 
4832 3 1.26372 -0.363424 0.921045 
12990 1 -3.04134 -1.94464 -0.0487886 
3961 1 4.87087 -1.40467 0.72067 
18036 1 2.5404 -0.0956947 -0.695623 
18035 3 -0.0186958 1.68523 0.0289632 
18034 1 -3.32792 -4.30338 1.37518 
10921 1 -0.162223 -1.56733 1.52643 
10922 3 0.458002 0.30929 1.83707 
7872 1 -1.79064 0.550663 6.78555 
7871 3 3.92507 4.58608 4.47065 
8011 1 -0.189568 -0.991078 -1.26907 
4293 1 -2.78382 6.99166 -5.44158 
8012 3 3.4914 -0.769618 -1.81589 
8013 1 -0.950362 -1.27 -1.35058 
16927 1 -5.22395 4.19521 -8.28885 
16928 3 -6.26304 1.01183 0.51601 
16929 1 3.18593 0.174026 2.91076 
3124 1 -4.4621 7.98852 -2.22997 
7870 1 -0.626718 -3.22922 2.67827 
4292 3 -1.55985 0.498539 3.62158 
17880 1 0.367599 -0.142965 -2.85784 
17879 2 -2.31155 -3.86405 -0.380073 
17878 1 1.14468 4.81007 0.0641497 
5995 1 -2.41105 -0.0302203 1.61412 
5996 3 -2.47859 1.95851 0.505642 
5997 1 5.43984 -0.0740533 0.417347 
10043 3 -2.80379 0.365459 2.69707 
10965 1 -6.25882 -4.51912 -2.45982 
19287 1 0.689783 -2.66161 1.154 
19286 3 2.0622 -1.00141 -3.68812 
19285 1 3.1459 -4.28535 1.69922 