LAMMPS data file via write_data, version 7 Aug 2019, timestep = 80000000

15018 atoms
3 atom types
14730 bonds
3 bond types
14442 angles
3 angle types

0.0000000000000000e+00 5.0000000000000000e+01 xlo xhi
0.0000000000000000e+00 5.0000000000000000e+01 ylo yhi
0.0000000000000000e+00 5.0000000000000000e+01 zlo zhi

Masses

1 0.25
2 0.5
3 0.5

Bond Coeffs # harmonic

1 6000 0.15
2 2000 0.4
3 2000 0.4

Angle Coeffs # harmonic

1 100 180
2 50 180
3 50 180

Atoms # angle

1335 1 1 1.7500429542922045e+00 3.0840311393891138e+01 2.8732673183116730e-02
11523 1 1 3.0522090634540997e+00 3.3028149202445320e+01 3.2781073995188187e-01
9549 1 1 3.0441868110815906e+00 3.2946316074543773e+01 2.2523822658004314e-01
6081 1 1 3.2375384150852495e+00 3.3732633440013821e+01 9.7952808451190654e-01
11522 2 2 3.1088218589223153e+00 3.3320490225725152e+01 5.9890705161895519e-01
11521 1 1 3.1891633319765176e+00 3.3607560480627548e+01 8.5107338824770962e-01
6080 3 3 3.3590223958754488e+00 3.3952247963492084e+01 1.3077869579874506e+00
5604 1 1 6.7528670078108792e+00 3.1948918792409334e+01 2.8496671620741574e+00
4348 1 1 5.7425110356843732e+00 2.8476397913374427e+01 4.6161232054480195e+00
5603 3 3 6.6603191280497578e+00 3.2152018703836141e+01 3.1894151319264683e+00
5602 1 1 6.6737695343138634e+00 3.2343537098495503e+01 3.5704088055917440e+00
18850 1 1 6.7070965611714337e+00 3.2417053481359545e+01 3.7030768860113428e+00
14926 1 1 8.2753535190759386e+00 3.1777962250679408e+01 4.4505043654502678e+00
18851 2 2 6.8241893253404191e+00 3.2577645943682015e+01 4.0549599697312608e+00
18852 1 1 6.9291705268418617e+00 3.2625809098582380e+01 4.4710697723788027e+00
5268 1 1 6.9584826351278499e+00 3.2622245805862505e+01 4.6207991143435532e+00
18442 1 1 6.2478998256660345e+00 3.3915702070009523e+01 4.7073202046708715e+00
17143 1 1 7.9803820250760698e+00 3.4053411975997911e+01 4.2942008010227184e+00
17144 3 3 8.1490944768122855e+00 3.3780943214338087e+01 4.5830302347815470e+00
4349 3 3 5.8496711928078104e+00 2.8865290122727579e+01 4.8356861397181294e+00
4350 1 1 5.8822456681249591e+00 2.9148256914355851e+01 5.0905899917442188e+00
3736 1 1 5.9020017989805869e+00 2.9254834640677629e+01 5.2093921981407512e+00
11816 3 3 4.8483042262305229e+00 2.9380500458689220e+01 5.6796170853244856e+00
11815 1 1 4.6344029611844366e+00 2.9161203831170791e+01 5.4252847777930420e+00
10862 2 2 3.9425635347745445e+00 2.9554627019624700e+01 6.1212720632648114e+00
10863 1 1 4.0877685612614183e+00 2.9817077846538332e+01 5.8516731939779554e+00
11817 1 1 5.0820389305389497e+00 2.9590997837669207e+01 5.9949539549142008e+00
3737 2 2 5.9778157858425942e+00 2.9554897949442207e+01 5.5031043270940359e+00
3738 1 1 6.0602696695021967e+00 2.9824311368057625e+01 5.8029971520596542e+00
17017 1 1 6.0977813362139139e+00 2.9902532676395023e+01 5.8999332702363283e+00
6997 1 1 5.1282050735636782e+00 2.9676803202348470e+01 6.1003689088027429e+00
17018 3 3 6.1813252422396294e+00 3.0128954148311859e+01 6.1639692550628009e+00
792 1 1 7.5448444029110364e+00 2.9463984231440776e+01 6.3083534139069197e+00
17927 2 2 8.0506296559046273e+00 3.0591841796141598e+01 6.2408366892805480e+00
17926 1 1 7.8167505364630143e+00 3.0563179757967212e+01 5.9036765644678209e+00
580 1 1 4.8575524871712750e+00 3.1324636852115432e+01 5.6859364111284991e+00
21462 1 1 5.8674665904491992e+00 3.1768417929449527e+01 5.1909762303010334e+00
21461 2 2 5.9162024774436057e+00 3.1941431927902464e+01 5.5115731993332462e+00
21460 1 1 5.9067656305087413e+00 3.2089625171962247e+01 5.8839376463084534e+00
581 2 2 4.9841725591070007e+00 3.1458987932622367e+01 6.1033167985826760e+00
15331 1 1 5.8869409409485476e+00 3.2130713205072695e+01 6.0465477249710275e+00
20372 2 2 7.5607954269344244e+00 3.1320698923221819e+01 5.4657328032408614e+00
20371 1 1 7.3088423609664783e+00 3.1256170326000039e+01 5.8113480607888119e+00
11442 1 1 7.2390323190433064e+00 3.1223670170290546e+01 5.9491299506721989e+00
5267 2 2 6.9268971212859141e+00 3.2535226649622530e+01 5.0011583634810250e+00
5266 1 1 6.9067117644355678e+00 3.2421544196392070e+01 5.4411400775935874e+00
20544 1 1 6.9244751426036562e+00 3.2388877152271291e+01 5.5859739846381133e+00
20543 2 2 7.0162868282024666e+00 3.2293164825714712e+01 5.9749156834738724e+00
14927 2 2 8.1349081859758545e+00 3.1566981319100865e+01 4.7635434842829740e+00
14928 1 1 7.9155390148387479e+00 3.1390867928475760e+01 5.0195488464944100e+00
20373 1 1 7.8294202007611426e+00 3.1347165496755434e+01 5.1278183598491713e+00
10313 3 3 4.1633895281165616e+00 3.3525582690482608e+01 6.0238173188525721e+00
10314 1 1 4.1481091745327614e+00 3.3333967620279886e+01 5.6767364465535115e+00
11696 2 2 5.0611801386626638e+00 3.3165334089486905e+01 5.2903206868319552e+00
11695 1 1 5.1737871440800474e+00 3.3281725897637472e+01 5.6582047812534242e+00
17962 1 1 5.2190334098797804e+00 3.3346954041666287e+01 5.8128576659003741e+00
11697 1 1 4.9252587400060959e+00 3.3122923802028645e+01 4.9101252697598117e+00
17963 2 2 5.2863576854817804e+00 3.3476096821792751e+01 6.1955225272656165e+00
18443 3 3 6.2908692826707755e+00 3.3646636350661744e+01 5.0698544774100025e+00
21496 1 1 6.3397491105070909e+00 3.3330843409093355e+01 5.5713430335416199e+00
18444 1 1 6.3316375053467393e+00 3.3387286393249823e+01 5.4096109032424611e+00
21497 2 2 6.3563151122714299e+00 3.3240938827556334e+01 5.8963565104768731e+00
21498 1 1 6.3654832945597857e+00 3.3114384918582367e+01 6.2738649465282430e+00
17145 1 1 8.2440851158101012e+00 3.3509707973769139e+01 4.8706451123588064e+00
8544 1 1 8.3044142364355711e+00 3.3382908762139436e+01 4.9847839831930214e+00
8543 3 3 8.3216927926090669e+00 3.3103290239531859e+01 5.2961779905416266e+00
8982 1 1 8.3217062687397583e+00 3.2956230171318381e+01 5.8283648793955551e+00
8542 1 1 8.3361622333025966e+00 3.2986220371937087e+01 5.6622495928272638e+00
8981 2 2 8.3741591185140134e+00 3.2880475210029786e+01 6.1843668799330880e+00
10861 1 1 3.9121115277607150e+00 2.9209223192070521e+01 6.3607957849996204e+00
12615 1 1 6.4813792753473436e+00 2.9378870265627850e+01 6.8095266911665151e+00
19663 1 1 7.3399948324201478e+00 2.9079497154337361e+01 7.8156479657491529e+00
11698 1 1 6.1249582488948278e+00 2.9561035807577163e+01 7.6735417834765549e+00
6998 3 3 5.2308928819735128e+00 2.9904597198469929e+01 6.4468662071577825e+00
6999 1 1 5.2190299125847757e+00 3.0124692421017770e+01 6.7881283465198274e+00
6529 1 1 5.2110551125512847e+00 3.0202578749281152e+01 6.9071680669481017e+00
6530 2 2 5.2076946213189563e+00 3.0351960946793692e+01 7.3105429386469796e+00
6531 1 1 5.2700599838158331e+00 3.0458594963928526e+01 7.7253564446053078e+00
6466 1 1 5.2718066121887537e+00 3.0477109790497135e+01 7.8715312727448010e+00
12614 3 3 6.3493312760242935e+00 2.9448123981779048e+01 7.1695045175093783e+00
12613 1 1 6.1771624765244999e+00 2.9538024926088003e+01 7.5302387487327644e+00
17019 1 1 6.2167346708327429e+00 3.0354890803385274e+01 6.4789091564294239e+00
7546 1 1 6.2285695293777774e+00 3.0423862703743527e+01 6.5961501111618492e+00
7547 2 2 6.2138901040389447e+00 3.0563755361674772e+01 7.0071217504689862e+00
7548 1 1 6.2139976505572116e+00 3.0606256359123012e+01 7.3832191094006507e+00
13410 1 1 6.2315212539076335e+00 3.0644284391683534e+01 7.5305201291957404e+00
791 3 3 7.4571955266614145e+00 2.9646989792784744e+01 6.6135004024763155e+00
790 1 1 7.4034027128439401e+00 2.9775979080336747e+01 6.9854455071720958e+00
3624 1 1 7.3583287062794609e+00 2.9823978585272084e+01 7.1320285177027420e+00
3623 2 2 7.2288640680835163e+00 2.9963181732831874e+01 7.5258764599022587e+00
17800 1 1 8.3008432581878910e+00 3.0630608663021192e+01 7.4325466673510290e+00
15526 1 1 8.2996794369936158e+00 3.0568082822554416e+01 7.5651585864143849e+00
17801 2 2 8.2839442238126946e+00 3.0707467569660597e+01 7.0862136000620932e+00
17928 1 1 8.1703261932477371e+00 3.0592065266966639e+01 6.5371386100989541e+00
17802 1 1 8.1951165854685595e+00 3.0621236571448350e+01 6.7027206648999025e+00
16524 1 1 3.1358153930216575e+00 3.1448266611496535e+01 6.9436357179291885e+00
16522 1 1 3.2862874080483442e+00 3.1452359943951301e+01 7.7653819790368521e+00
16523 2 2 3.1944827397660611e+00 3.1448817579072692e+01 7.3681215883102915e+00
14233 1 1 4.3944512647098239e+00 3.1008250424394291e+01 7.5268612758833875e+00
12089 2 2 4.1621818855988844e+00 3.1790065378622028e+01 7.5873224064715981e+00
12090 1 1 4.0946514330671580e+00 3.1712549916770605e+01 7.2132614255799625e+00
582 1 1 5.0273353516807369e+00 3.1534108829714398e+01 6.4990573753359389e+00
10597 1 1 5.0455025066650219e+00 3.1553324273808318e+01 6.6303672592543208e+00
10598 2 2 5.0945754035468340e+00 3.1562908885239349e+01 6.9819343277301993e+00
10599 1 1 5.1476103480997306e+00 3.1526386279254762e+01 7.3830491754652039e+00
13030 1 1 5.1693749372154905e+00 3.1525194123947248e+01 7.5501789576865406e+00
15332 2 2 5.8952578213766369e+00 3.2127118091876511e+01 6.4142846603127435e+00
2615 2 2 6.0254137778726884e+00 3.2088547538891063e+01 7.3818088488349831e+00
2616 1 1 5.9143789098582644e+00 3.2118135584004555e+01 6.9809965983015605e+00
15333 1 1 5.8761161988705650e+00 3.2126202856665174e+01 6.8177417458866154e+00
2563 1 1 4.7301931663562691e+00 3.2438575246523953e+01 6.4880744070374110e+00
2614 1 1 6.0485291791301847e+00 3.2047440821398375e+01 7.7478879228615929e+00
20542 1 1 7.0477234233585540e+00 3.2314123659488928e+01 6.3667745959456132e+00
11441 3 3 7.1404695257832129e+00 3.1256805642352095e+01 6.3362987007149831e+00
7632 1 1 7.6510344892536191e+00 3.1940100006218216e+01 6.3682906626119893e+00
13685 2 2 7.2018212357701286e+00 3.1364227850805030e+01 7.2938740531715691e+00
13684 1 1 7.1900773463744141e+00 3.1367605150060406e+01 6.8999522622399239e+00
11440 1 1 7.1623025353189300e+00 3.1346482531914472e+01 6.7591596597136592e+00
13686 1 1 7.0784998518392088e+00 3.1367642563887067e+01 7.6800782841095510e+00
7398 1 1 7.0721267582885607e+00 3.2333563302299829e+01 6.5107302434393226e+00
7397 2 2 7.1066759893278810e+00 3.2364921035795135e+01 6.8807571442622946e+00
7396 1 1 7.1534569830948564e+00 3.2333413464277108e+01 7.2801896783614479e+00
1693 1 1 7.1689567500815086e+00 3.2311707669468596e+01 7.4321445287508778e+00
1694 2 2 7.2009446744114305e+00 3.2322262811269034e+01 7.8568120550078664e+00
12451 1 1 7.0450725074922218e+00 3.1364729752409030e+01 7.8470386925000701e+00
7630 1 1 8.1012439434074786e+00 3.1726404061346354e+01 7.0602596501886552e+00
2460 1 1 8.1589824468385377e+00 3.1698327777674137e+01 7.1850796947079330e+00
2459 2 2 8.2541025894718505e+00 3.1646328437497534e+01 7.5325260623143508e+00
7631 2 2 7.9140659292739857e+00 3.1827646873230432e+01 6.6441969980463638e+00
20635 1 1 9.5540424391570902e+00 3.1652048065020157e+01 6.9309391320007228e+00
20637 1 1 9.2540445199706838e+00 3.1686677619393123e+01 7.6731813265878346e+00
20636 2 2 9.4252173722836421e+00 3.1713878854462486e+01 7.3512959987594080e+00
15421 1 1 2.5663371495071772e+00 3.4039356710836238e+01 7.6730172881859806e+00
5098 1 1 2.6395448154920724e+00 3.3961106616581894e+01 7.7647254367803633e+00
16535 2 2 4.2005364846433304e+00 3.3994124990472024e+01 6.8339072641978804e+00
10312 1 1 4.1510561466317615e+00 3.3695095840942507e+01 6.3557125331327278e+00
16534 1 1 4.1441056099933222e+00 3.3787527263903222e+01 6.4904525517921874e+00
11670 1 1 4.1590306113878555e+00 3.2940183804141782e+01 7.7578973649462162e+00
11669 2 2 4.3020075749318538e+00 3.3270207239299580e+01 7.8620087731772381e+00
4097 2 2 5.1677219343418148e+00 3.2618598639134305e+01 7.7271662249102562e+00
2564 2 2 4.8994629878618774e+00 3.2582449300000754e+01 6.8356926300302421e+00
2565 1 1 5.0663329026398447e+00 3.2622254883764477e+01 7.1875674361322153e+00
4098 1 1 5.1099216734495156e+00 3.2624634289565243e+01 7.3108434243264373e+00
17964 1 1 5.3156585467020765e+00 3.3589398129221806e+01 6.5738677281461033e+00
13164 1 1 5.3412324064747736e+00 3.3607522640117267e+01 6.7447758362593904e+00
13163 2 2 5.3803004745085738e+00 3.3664848241175186e+01 7.1491294644655214e+00
13162 1 1 5.4418509047700319e+00 3.3692357171892212e+01 7.5529494592206072e+00
9051 1 1 5.4447567556585774e+00 3.3712322160821081e+01 7.6960192406950414e+00
11599 1 1 6.3498333725690577e+00 3.3078889095801294e+01 6.4354030828782314e+00
11600 2 2 6.2690722754032961e+00 3.3055390179077676e+01 6.8312949123514111e+00
11601 1 1 6.2089160613222534e+00 3.3051358649831322e+01 7.2405257974273152e+00
12915 1 1 6.1935159937375257e+00 3.3073409867494789e+01 7.4005985376953500e+00
17103 1 1 7.2640644801753025e+00 3.4039434246422111e+01 7.1883786218454917e+00
17102 2 2 7.2309982194100701e+00 3.3906063753059620e+01 7.5767832676413311e+00
3559 1 1 7.2924245109635990e+00 3.4079260667196614e+01 7.0468610390211612e+00
3560 3 3 7.3842192758310494e+00 3.4057859557740542e+01 6.6388716893201520e+00
12914 2 2 6.2098903149025908e+00 3.3044435409022455e+01 7.8456104758232206e+00
12124 1 1 8.3707640324061057e+00 3.2871081015769676e+01 7.5627107257057649e+00
8980 1 1 8.3725010804813564e+00 3.2861353768937136e+01 6.5532924363328533e+00
12126 1 1 8.3682168910828096e+00 3.2890812329480966e+01 6.7360127469895330e+00
12125 2 2 8.3462811705168747e+00 3.2944172299550623e+01 7.1309316378996233e+00
7236 1 1 8.3803544977242055e+00 3.2839909315853966e+01 7.7264004291197503e+00
19665 1 1 6.6853081529186076e+00 2.8889853610519509e+01 8.1259036207191162e+00
19664 2 2 7.0132803176438410e+00 2.9021121394273550e+01 7.9831097362068952e+00
132 1 1 3.4266526555796890e+00 3.0621315679173065e+01 9.1087378852518111e+00
131 2 2 3.4413598594661634e+00 3.0548911631333208e+01 8.7078943349213009e+00
130 1 1 3.4477551674121991e+00 3.0527780677937436e+01 8.3248558437667022e+00
6562 1 1 3.3978228472209762e+00 3.0638572635259223e+01 9.2699882745241009e+00
15961 1 1 4.4257462393735629e+00 2.9825104555641374e+01 7.9338513068227439e+00
15962 2 2 4.3037258822614266e+00 2.9948460377333653e+01 8.2758721793854466e+00
15963 1 1 4.2001331643079141e+00 2.9980790779109459e+01 8.6855420321237276e+00
2646 1 1 4.1613109504043688e+00 3.0006244657709924e+01 8.8114201370970964e+00
2645 2 2 4.1436592052393628e+00 3.0025005573754594e+01 9.2448615774556497e+00
14234 2 2 4.3748366779807331e+00 3.0916084388400240e+01 7.9675991702489384e+00
14235 1 1 4.3870267499970623e+00 3.0897824810757843e+01 8.3567257543110891e+00
17305 1 1 4.3648127818527875e+00 3.0911681830445318e+01 8.4821803970679905e+00
11699 2 2 6.0542858886929656e+00 2.9624080332864679e+01 8.0347456759134577e+00
11700 1 1 6.0223860987988225e+00 2.9683112951473525e+01 8.3922643897657014e+00
12721 1 1 6.0002829250114189e+00 2.9681167785663753e+01 8.5265924662765364e+00
12722 2 2 5.9144576174242562e+00 2.9710848714409192e+01 8.9118832485369452e+00
12723 1 1 5.8905340077084709e+00 2.9734629318309899e+01 9.3002337317101986e+00
6467 2 2 5.2916376862764949e+00 3.0527176841181902e+01 8.2988401604943860e+00
6468 1 1 5.2859700165728691e+00 3.0494898966039610e+01 8.6664416202681309e+00
15798 1 1 5.2755857669507078e+00 3.0504904313796775e+01 8.8335470276015737e+00
15797 2 2 5.2824181043762124e+00 3.0585275765407669e+01 9.2781917351882033e+00
1885 1 1 5.9122873438217622e+00 2.9742798728549932e+01 9.4627649633552213e+00
14829 1 1 6.2496723156826777e+00 3.0965163770101615e+01 9.1953614258084695e+00
11350 1 1 6.2477077230566529e+00 3.0960638575407135e+01 9.3359499395036973e+00
13409 2 2 6.2602044265243038e+00 3.0733932223330196e+01 7.9550051535620891e+00
13408 1 1 6.2401586882760718e+00 3.0803588632105676e+01 8.3338897768103468e+00
14827 1 1 6.2343808182451559e+00 3.0842149957929976e+01 8.4533607657524623e+00
14828 2 2 6.2779751613180261e+00 3.0906367599688878e+01 8.7840651908061052e+00
3622 1 1 7.1923735290444002e+00 3.0109555064457407e+01 7.9112752343114137e+00
10518 1 1 7.1688859678474470e+00 3.0146339895075069e+01 8.0320556289860789e+00
10517 2 2 7.0567973278229896e+00 3.0227670209763414e+01 8.4569888351592279e+00
10516 1 1 7.0451610222647449e+00 3.0220104720679021e+01 8.8250911181313931e+00
1249 1 1 7.0340532333894705e+00 3.0229953215998677e+01 8.9861190432074185e+00
1250 2 2 6.9892910695370363e+00 3.0168683678275993e+01 9.3860212185494447e+00
15527 3 3 8.2536643780605932e+00 3.0449573719767539e+01 7.9258952440119739e+00
8869 1 1 8.2723435434666968e+00 3.0292605823484237e+01 8.4919314550077214e+00
8870 2 2 8.2699321794090661e+00 3.0211643490711975e+01 8.8444009452226862e+00
15528 1 1 8.2927017966223175e+00 3.0331936853460146e+01 8.3196738493082023e+00
8871 1 1 8.2644047124015341e+00 3.0159980000600918e+01 9.2394100344604482e+00
13477 1 1 8.2610490538155048e+00 3.0170802529670361e+01 9.4229165523299869e+00
17979 1 1 2.0655206762305509e-01 3.2049658908916740e+01 9.4135329657509548e+00
5936 3 3 9.8148291636377394e-03 3.2344752357386263e+01 9.0121203615536771e+00
5937 1 1 1.3709544602094714e-01 3.2119576381571854e+01 9.2910698954288815e+00
15558 1 1 2.7950391622598425e+00 3.1075894855774408e+01 9.2294676376655662e+00
15557 3 3 2.4874295450294266e+00 3.1248766270236398e+01 9.1156552834140978e+00
15556 1 1 2.1750226652525173e+00 3.1444196403417287e+01 9.0100361415581656e+00
4330 1 1 3.3386318512627819e+00 3.1467757477687414e+01 7.9176666504326700e+00
12088 1 1 4.2404313759400303e+00 3.1863128352655380e+01 8.0085052118466233e+00
4331 2 2 3.4543542349531546e+00 3.1511701461953116e+01 8.3100531112118823e+00
17307 1 1 4.5025801190519488e+00 3.1104342440120565e+01 9.2353820139572882e+00
17306 2 2 4.4344314804269560e+00 3.1001129381124485e+01 8.8391538140565906e+00
17915 2 2 4.3505947936296456e+00 3.1988265205201532e+01 8.5121945982213312e+00
17914 1 1 4.4545687953707827e+00 3.2019572210921645e+01 8.8799503505291693e+00
522 1 1 4.4686466392249073e+00 3.2044838465023574e+01 9.0203602989893916e+00
4332 1 1 3.5126079435515813e+00 3.1627112516082271e+01 8.6559792406605514e+00
11325 1 1 3.5449853914175149e+00 3.1670878088776593e+01 8.7960926738817076e+00
11324 2 2 3.5562057395820528e+00 3.1763048736297730e+01 9.2026110281127025e+00
521 2 2 4.4937766132972250e+00 3.2130578145098482e+01 9.3902461421518524e+00
17916 1 1 4.2812501322158019e+00 3.1915436911502432e+01 8.1372527920086366e+00
2259 1 1 4.4968004763434370e+00 3.1124553584113720e+01 9.3882041373145686e+00
13031 2 2 5.2210452436812478e+00 3.1523909601086103e+01 7.9384830690646062e+00
13032 1 1 5.2543686153776941e+00 3.1535758134409743e+01 8.3291325775683998e+00
19899 1 1 5.2824589417919388e+00 3.1544533923816651e+01 8.4625554439707962e+00
19898 2 2 5.3961709570822585e+00 3.1551144434479781e+01 8.7802364082035300e+00
9522 1 1 6.0819900388872226e+00 3.2053883222397914e+01 7.9116996459107147e+00
19897 1 1 5.4647448526538813e+00 3.1540971054110717e+01 9.1510997455108303e+00
9426 1 1 5.4698171031899214e+00 3.1537977983398733e+01 9.2883663401186372e+00
12452 2 2 7.0703062337531657e+00 3.1350746078850602e+01 8.2566363039399384e+00
1141 1 1 7.0792615084479626e+00 3.1311475546931575e+01 8.8390258713829670e+00
12453 1 1 7.0461147448861645e+00 3.1316918933312628e+01 8.6849273819791151e+00
1142 2 2 7.1708535578402905e+00 3.1273801136118990e+01 9.2378222967609283e+00
9521 2 2 6.1864400628866081e+00 3.2114723577108826e+01 8.3284609322723657e+00
9520 1 1 6.2728755991163059e+00 3.2120858590829421e+01 8.6967180016535330e+00
14374 1 1 6.3017702111664837e+00 3.2117154974898995e+01 8.8368052097176637e+00
14375 2 2 6.4123043403940319e+00 3.2113171026603730e+01 9.2274696921519013e+00
1695 1 1 7.2742104352155703e+00 3.2289255870695470e+01 8.2220018986768313e+00
5523 1 1 7.2836631125311264e+00 3.2303390608274192e+01 8.3844477635192654e+00
5522 2 2 7.3250956887680667e+00 3.2342798949346744e+01 8.7271521305769202e+00
5521 1 1 7.3601575917090400e+00 3.2236441722616917e+01 9.1227583469239661e+00
18000 1 1 7.3857234066237485e+00 3.2219934207526222e+01 9.2888974693711983e+00
2458 1 1 8.2972967679336822e+00 3.1598371246929439e+01 7.9510999178392545e+00
5539 1 1 8.2996469323679882e+00 3.1604837856423654e+01 8.0737543264411897e+00
5540 3 3 8.2595244448181422e+00 3.1579907381573655e+01 8.4644912302342181e+00
13615 1 1 8.1932732042022458e+00 3.1602476780076881e+01 8.9610710285935724e+00
5541 1 1 8.2031301027940664e+00 3.1611009176426570e+01 8.8098231082010745e+00
13616 2 2 8.1558980471407772e+00 3.1528887226835128e+01 9.3455008597435860e+00
20851 1 1 8.4924154918624399e+00 3.2497289197246388e+01 9.2746594613351050e+00
3079 1 1 8.5203963264948666e+00 3.2471979575348492e+01 9.4301050287164525e+00
11293 1 1 1.0104814502480659e+01 3.1494766803440218e+01 9.0184507042903252e+00
11295 1 1 9.9389968037886671e+00 3.2167513967747198e+01 9.3177825819995750e+00
11294 2 2 1.0042842713115437e+01 3.1817641666591090e+01 9.1659911543989878e+00
3322 1 1 7.3855466496450339e-01 3.2812323329029795e+01 7.9296272806856329e+00
3323 3 3 8.2489508587035332e-01 3.2831463435792806e+01 8.3162269088748246e+00
3324 1 1 9.9437363968043291e-01 3.2959639843366844e+01 8.6503270978094839e+00
14478 1 1 1.0521990148875175e+00 3.3027025574547672e+01 8.7928708184006030e+00
14477 3 3 1.2587247059138158e+00 3.3238803769349872e+01 9.0996026254902738e+00
14476 1 1 1.5543150874541698e+00 3.3414910785394099e+01 9.3143964791932348e+00
5099 3 3 2.8373941771101125e+00 3.3753000873012013e+01 8.0603402692200223e+00
2727 1 1 1.6403437441616968e+00 3.3491425048196135e+01 9.4017617947614713e+00
5100 1 1 2.9875088404763614e+00 3.3540600658499315e+01 8.3906675283371079e+00
8451 1 1 3.0451578759726177e+00 3.3445567049800403e+01 8.5425422072689905e+00
8450 3 3 3.1603375453390172e+00 3.3406593365560937e+01 8.8886757207605100e+00
11668 1 1 4.5548966707643350e+00 3.3589233160340136e+01 7.9572299849978778e+00
8449 1 1 3.2346369793442040e+00 3.3287656772078805e+01 9.2790295631314894e+00
12749 2 2 4.4519336585554505e+00 3.3328261398050103e+01 9.2112878927683983e+00
12750 1 1 4.4851409199232428e+00 3.3361903855510178e+01 8.8160603857715021e+00
1663 1 1 3.2646800587460176e+00 3.3263109227506774e+01 9.4227133157588465e+00
4096 1 1 5.2746277083699731e+00 3.2589104777855553e+01 8.1508205275942629e+00
17533 1 1 5.2932754355157607e+00 3.2590643150375094e+01 8.2759370193752364e+00
17534 2 2 5.3581361042442657e+00 3.2610826593806863e+01 8.6497899194963654e+00
17535 1 1 5.4900539787390734e+00 3.2721161595029322e+01 8.9826183921530482e+00
13965 1 1 5.5300676633729688e+00 3.2752381548829007e+01 9.1135167532027932e+00
9050 2 2 5.3366237210902954e+00 3.3776409514441887e+01 8.0617552667956041e+00
9049 1 1 5.3638316729579714e+00 3.3825105228994460e+01 8.4089601656889297e+00
14088 1 1 5.3782678950886176e+00 3.3831656581676427e+01 8.5501714636065280e+00
14087 2 2 5.4743352283876581e+00 3.3809366031765293e+01 8.9915258645545695e+00
14086 1 1 5.5157920051495717e+00 3.3823785916332575e+01 9.4157349919487991e+00
17101 1 1 7.2264023271765945e+00 3.3710162681026382e+01 7.9444193699559245e+00
14029 1 1 7.2466479231577612e+00 3.3635820411828306e+01 8.0812840639893384e+00
14030 2 2 7.3359975916527738e+00 3.3499642534980204e+01 8.4288904567729226e+00
14213 2 2 6.4050728865965709e+00 3.3005795765746790e+01 8.7530404441422096e+00
12913 1 1 6.2685493171175928e+00 3.3001766094460166e+01 8.2278874542491014e+00
14214 1 1 6.2986716134163174e+00 3.2984218771218337e+01 8.3750242132100716e+00
14212 1 1 6.4835384457927443e+00 3.2925975980102081e+01 9.1949212647036820e+00
14031 1 1 7.4461589412788625e+00 3.3373361365207124e+01 8.7360959900482058e+00
8137 1 1 7.4872414327033372e+00 3.3340774267598697e+01 8.8664901599428454e+00
8138 2 2 7.5452612811427970e+00 3.3244751384306376e+01 9.2242990917628731e+00
912 1 1 6.5202739404052261e+00 3.2908694029975784e+01 9.3478716568241058e+00
1396 1 1 6.4517639179345680e+00 3.3982820193816018e+01 8.8570197989153581e+00
14925 1 1 6.4995545693781862e+00 3.3979443707433433e+01 9.0024010800676297e+00
14924 2 2 6.6446215684961469e+00 3.4027964960564766e+01 9.3859191077818576e+00
1397 2 2 6.3586521486133423e+00 3.4058799087553453e+01 8.4478236236011135e+00
7235 2 2 8.3246253254871014e+00 3.2750507653778037e+01 8.1217317203585218e+00
11083 1 1 9.1507620955086537e+00 3.3568708959551792e+01 8.0745598554724598e+00
20852 2 2 8.4024786298534071e+00 3.2588643605863908e+01 8.9163837326915498e+00
20853 1 1 8.3530192461464576e+00 3.2676364541264086e+01 8.5589082343301968e+00
7234 1 1 8.3498948438639768e+00 3.2707302698419376e+01 8.4340414093876852e+00
9614 3 3 8.3196311146828759e+00 3.4065913886471634e+01 8.6931360359951402e+00
9615 1 1 8.2956020836014499e+00 3.4074940594549986e+01 9.0681854820608567e+00
2001 1 1 8.3030330429344907e+00 3.4069160400663520e+01 9.2154987311621284e+00
9613 1 1 8.4106230694447479e+00 3.4062096400010077e+01 8.2944251670422595e+00
3856 1 1 8.4704590907461377e+00 3.4068340696132061e+01 8.1447618784903906e+00
11085 1 1 9.4301039063606620e+00 3.3351609402140269e+01 8.7968905741933980e+00
16669 1 1 9.4425651389848539e+00 3.3338936677689851e+01 8.9152362553754134e+00
16670 3 3 9.4883672162122235e+00 3.3359324063152506e+01 9.2892689603363330e+00
11084 3 3 9.3405830551266771e+00 3.3430476562940775e+01 8.3869210342335894e+00
15486 1 1 3.7966439052232079e+00 2.8770223632075695e+01 9.5236117277285430e+00
15485 2 2 3.7514797393923769e+00 2.8939898347860076e+01 9.8770349123446035e+00
3340 1 1 3.7724379958280680e+00 2.9145158635186768e+01 1.0362039472207940e+01
3341 2 2 3.8572952564234018e+00 2.9250463005121368e+01 1.0806287574957448e+01
15484 1 1 3.7431756748215643e+00 2.9118721030545238e+01 1.0244783180163108e+01
11037 1 1 4.8619696082175334e+00 2.8308722056350621e+01 1.0221751385514139e+01
11036 3 3 4.7700871313665392e+00 2.8387157495476465e+01 1.0573606406773187e+01
11035 1 1 4.6726280008243712e+00 2.8394719618038749e+01 1.0925100155142784e+01
18418 1 1 4.9762963320190998e+00 2.9143545452839298e+01 9.6236708968283118e+00
17887 1 1 5.7691510468843665e+00 2.8445282789789577e+01 1.0116231705106230e+01
17888 3 3 5.7406919284924509e+00 2.8455344248304865e+01 1.0517893866429327e+01
17889 1 1 5.6885612876565794e+00 2.8483816042829293e+01 1.0931282880731711e+01
14275 1 1 5.6954350114196268e+00 2.8510458332179660e+01 1.1058130119080712e+01
18419 2 2 4.8911202772918081e+00 2.9285754400423755e+01 9.9620778370278842e+00
18420 1 1 4.9683309611589550e+00 2.9341762497138003e+01 1.0364094237344110e+01
4281 1 1 4.9733354198127078e+00 2.9381426196306588e+01 1.0536936786858982e+01
12687 1 1 2.6898211345006366e+00 2.9664960773830060e+01 1.0945781628438031e+01
6164 2 2 1.9925181607360649e+00 3.0473985905379848e+01 1.0915376234424635e+01
6163 1 1 1.8866728965882498e+00 3.0322369401115530e+01 1.0564234597149364e+01
6563 3 3 3.4421938470159805e+00 3.0739890338972089e+01 9.7072786850569255e+00
2644 1 1 4.1960016162942706e+00 3.0116938430765675e+01 9.6589692495660930e+00
12189 1 1 4.2253300361515294e+00 3.0173897448858273e+01 9.8044093622777755e+00
12188 2 2 4.2245720126532671e+00 3.0246058946629621e+01 1.0226711996494211e+01
12187 1 1 4.2633257487362188e+00 3.0293460826161418e+01 1.0645256944938541e+01
20439 1 1 4.2736998568397642e+00 3.0280009136404402e+01 1.0800732875923838e+01
6564 1 1 3.4615397499822409e+00 3.0814113063941310e+01 1.0104819772571519e+01
1285 1 1 3.4549333305095717e+00 3.0837987073483525e+01 1.0256932541968077e+01
1286 2 2 3.4819708905257927e+00 3.0924610128029070e+01 1.0671571036915067e+01
4280 2 2 4.9172729183363719e+00 2.9461293808600406e+01 1.0931905919437410e+01
1886 2 2 5.9962512828081955e+00 2.9758440833073603e+01 9.8848279904281871e+00
15796 1 1 5.3064896004390558e+00 3.0560176604996538e+01 9.6752451282758010e+00
5877 1 1 5.3151675924652340e+00 3.0532796625355758e+01 9.8363796025132544e+00
5876 2 2 5.3341627345444431e+00 3.0504419393261287e+01 1.0259917878596587e+01
5875 1 1 5.3181675035390219e+00 3.0477233871138466e+01 1.0605220883287473e+01
16753 1 1 5.3111477636881039e+00 3.0500236802739426e+01 1.0741479293975324e+01
1887 1 1 6.0264123545378672e+00 2.9754372564336641e+01 1.0324199042782046e+01
10788 1 1 6.0059701677904780e+00 2.9770428541020141e+01 1.0468609350363211e+01
10787 2 2 5.9383086884134233e+00 2.9775631801355246e+01 1.0830671076026967e+01
11352 1 1 6.2892428429789327e+00 3.0974297808746460e+01 1.0136185112516603e+01
16078 1 1 6.2900774231049521e+00 3.0963274117184579e+01 1.0274781258427119e+01
11351 2 2 6.2439361005628582e+00 3.0920187312848235e+01 9.7408698882243900e+00
1251 1 1 6.9080954056087078e+00 3.0147810747966275e+01 9.7401700754316494e+00
4871 2 2 6.8963450313954535e+00 3.0142554294846775e+01 1.0340138989031031e+01
4872 1 1 6.8929871647097860e+00 3.0119464505309082e+01 1.0716028290771071e+01
4870 1 1 6.8917866102899001e+00 3.0148665462404729e+01 9.9014381187046947e+00
4944 1 1 6.8855492423344193e+00 3.0115905708007006e+01 1.0855716772802262e+01
16079 2 2 6.2908658787325180e+00 3.0921148672576546e+01 1.0678062577146106e+01
16080 1 1 6.2730751095610975e+00 3.0954385914514706e+01 1.1053255686452436e+01
13478 2 2 8.2355380041642796e+00 3.0215747181135736e+01 9.8152713378490191e+00
13479 1 1 8.1291160962063369e+00 3.0220327528441704e+01 1.0222413553521889e+01
2590 1 1 8.0699160653100783e+00 3.0217691555619403e+01 1.0365518719920876e+01
2591 2 2 7.9368889797306243e+00 3.0224491557026759e+01 1.0773698183176345e+01
17082 1 1 9.8853097370126364e-01 3.1641262749625461e+01 1.0799798551806797e+01
895 1 1 1.0182631526171730e+00 3.1604044345541979e+01 1.0947553636483287e+01
17080 1 1 7.0699001850627063e-01 3.1786506427389245e+01 1.0106946330850002e+01
17978 3 3 3.7949974863665087e-01 3.1885658201669564e+01 9.6878784089548287e+00
17977 1 1 6.2082313959234336e-01 3.1805507807910111e+01 1.0012801243860595e+01
17081 3 3 9.0819516041554083e-01 3.1727851857139569e+01 1.0421178713562480e+01
2922 1 1 2.7427979227310026e+00 3.1449285719342008e+01 1.0681940368658548e+01
11323 1 1 3.5885110934699469e+00 3.1804124422405021e+01 9.5940650987182767e+00
15937 1 1 3.6158795816824338e+00 3.1823856730813652e+01 9.7352518687052534e+00
520 1 1 4.5592900053995953e+00 3.2202151525100909e+01 9.7610033289726488e+00
2258 2 2 4.5807093648237034e+00 3.1161820602496707e+01 9.7521195340221905e+00
2257 1 1 4.5930524650215139e+00 3.1256472886557351e+01 1.0131771831960879e+01
19816 1 1 4.5618652207327983e+00 3.1267286241785364e+01 1.0265583493254175e+01