ITEM: TIMESTEP
80000000
ITEM: NUMBER OF ATOMS
759
ITEM: BOX BOUNDS pp pp pp
0.0000000000000000e+00 5.0000000000000000e+01
0.0000000000000000e+00 5.0000000000000000e+01
0.0000000000000000e+00 5.0000000000000000e+01
ITEM: ATOMS id type xs ys zs
12439 1 0.741319 0.654913 0.00309302
15523 1 0.730845 0.670538 0.000352335
12441 1 0.732266 0.669054 0.000609725
10008 1 0.743227 0.652678 0.00368245
12440 3 0.736694 0.661916 0.00165023
2148 1 0.711856 0.701506 0.921817
2147 2 0.713878 0.700412 0.929976
7168 1 0.68612 0.703991 0.936891
2146 1 0.715847 0.698388 0.938203
18599 3 0.676065 0.634359 0.951801
18598 1 0.670219 0.630151 0.953375
15898 1 0.701633 0.631047 0.96798
15899 3 0.706523 0.624153 0.96913
16311 1 0.699695 0.633346 0.96793
6243 1 0.744448 0.612114 0.95397
6242 3 0.739575 0.618081 0.954172
6241 1 0.734886 0.623264 0.952313
20436 1 0.732912 0.624749 0.951654
20435 3 0.727549 0.631388 0.950745
11276 3 0.6804 0.653239 0.969145
18600 1 0.683968 0.636498 0.949674
7944 1 0.688659 0.663666 0.94952
436 1 0.706892 0.65027 0.94999
100 1 0.704686 0.65164 0.949745
102 1 0.691 0.660846 0.949387
101 2 0.697619 0.655257 0.948441
437 3 0.71384 0.645998 0.949223
7943 2 0.683599 0.670657 0.949434
16310 3 0.69367 0.639035 0.967461
16309 1 0.688236 0.644983 0.968962
1091 3 0.745364 0.637361 0.963914
8738 3 0.742721 0.668899 0.96654
438 1 0.720631 0.641564 0.949137
20434 1 0.722905 0.638856 0.949153
1092 1 0.740466 0.642164 0.963697
18800 3 0.719055 0.662731 0.962571
3985 1 0.738553 0.643672 0.96341
3986 3 0.732904 0.648256 0.963209
3987 1 0.726482 0.653626 0.96259
18801 1 0.724035 0.656327 0.962714
18799 1 0.71465 0.669382 0.961239
17194 1 0.647348 0.705175 0.954564
14808 1 0.649946 0.702992 0.95463
14807 3 0.65489 0.697826 0.953906
3092 3 0.668673 0.683697 0.951511
14806 1 0.660953 0.692102 0.952877
3091 1 0.663269 0.688942 0.952744
3093 1 0.675624 0.67864 0.949948
7942 1 0.678022 0.676656 0.949213
18169 1 0.713163 0.671637 0.960224
1416 1 0.689246 0.698374 0.953417
18170 2 0.708449 0.678337 0.957844
18171 1 0.70261 0.683416 0.956088
1414 1 0.700598 0.686014 0.956328
1415 3 0.694872 0.691934 0.954705
18210 1 0.687565 0.700427 0.953067
13399 1 0.744931 0.699806 0.96562
7809 1 0.746257 0.697469 0.965591
1194 1 0.71471 0.70444 0.964118
1193 3 0.71873 0.698582 0.964596
1192 1 0.724151 0.69209 0.964909
11030 2 0.73011 0.682677 0.965693
8737 1 0.736923 0.674968 0.966862
11029 1 0.734698 0.676986 0.96652
11031 1 0.725781 0.689205 0.964829
13829 3 0.741183 0.56392 0.988261
19174 1 0.711867 0.59924 0.985369
1669 1 0.745829 0.591404 0.99601
19175 3 0.716767 0.592299 0.985042
1670 2 0.740603 0.597726 0.994648
12838 1 0.743025 0.59191 0.972441
15753 1 0.740919 0.593946 0.971952
19176 1 0.721273 0.585415 0.984741
15752 3 0.733933 0.598982 0.971686
13828 1 0.735387 0.56886 0.987986
8539 1 0.73287 0.571378 0.987575
8540 2 0.727178 0.576529 0.986601
8541 1 0.722868 0.582841 0.984921
3113 3 0.675863 0.634751 0.981937
3112 1 0.68268 0.628983 0.982541
11154 1 0.709654 0.601506 0.985847
6580 1 0.684751 0.627019 0.982596
11153 3 0.703652 0.608358 0.986896
11152 1 0.697984 0.613897 0.98598
6582 1 0.696051 0.616273 0.985536
6581 3 0.690485 0.621571 0.983943
20034 1 0.708187 0.630784 0.993139
15900 1 0.712567 0.618536 0.969814
14511 1 0.70999 0.628592 0.99331
21327 1 0.745632 0.62173 0.997302
21326 3 0.739462 0.627287 0.997555
8799 1 0.731919 0.635252 0.997148
21325 1 0.734442 0.633001 0.997609
1671 1 0.73542 0.603803 0.993014
4002 1 0.714888 0.616525 0.969838
10675 1 0.733531 0.606137 0.99224
15751 1 0.728247 0.603649 0.970763
4000 1 0.725696 0.605973 0.970824
14510 3 0.715235 0.622556 0.992192
10677 1 0.723167 0.615414 0.99126
10676 3 0.728511 0.61092 0.991974
14509 1 0.721203 0.617168 0.991099
4001 3 0.719996 0.610982 0.97095
17571 1 0.736036 0.624011 0.975751
7248 1 0.733826 0.626048 0.975195
7247 3 0.728055 0.631383 0.97568
17570 3 0.741425 0.619423 0.976878
4416 1 0.64861 0.67033 0.987598
4415 3 0.654935 0.664138 0.985912
8480 3 0.668704 0.666562 0.970072
11277 1 0.674967 0.658042 0.969221
8479 1 0.672869 0.660174 0.969345
3114 1 0.670355 0.640108 0.981903
2958 1 0.668398 0.642138 0.982267
2957 3 0.663712 0.648857 0.983505
2956 1 0.659534 0.655281 0.985151
4414 1 0.658131 0.657783 0.985587
10280 3 0.677719 0.664039 0.989453
10279 1 0.673871 0.670536 0.989902
5683 1 0.709395 0.662856 0.994579
15405 1 0.707114 0.665191 0.994436
20033 3 0.703729 0.63639 0.992399
15404 3 0.700051 0.668926 0.994341
11275 1 0.686065 0.646917 0.969157
12135 1 0.696017 0.667866 0.973158
20032 1 0.698217 0.642771 0.991853
2707 1 0.695706 0.644444 0.991271
2709 1 0.684957 0.656263 0.988872
10281 1 0.683115 0.658495 0.988446
3305 3 0.700902 0.659267 0.974122
3304 1 0.697266 0.665381 0.973176
2708 3 0.690324 0.650116 0.990435
3306 1 0.705601 0.65338 0.9752
14620 1 0.707834 0.651307 0.97559
5684 3 0.714225 0.657498 0.994511
14621 3 0.714505 0.645915 0.976166
5685 1 0.71937 0.652025 0.996028
8797 1 0.721199 0.649075 0.996914
8798 3 0.725938 0.641306 0.996836
1235 3 0.742563 0.649749 0.982369
7246 1 0.722789 0.638295 0.976401
14622 1 0.720785 0.64046 0.976491
11044 1 0.722378 0.668853 0.980612
11045 3 0.72841 0.663133 0.981451
11046 1 0.73452 0.657517 0.981849
1236 1 0.736959 0.655263 0.982011
14986 1 0.646758 0.67288 0.987955
20457 1 0.620541 0.700649 0.98976
15887 3 0.643016 0.694203 0.971527
15886 1 0.638102 0.700867 0.972472
9399 1 0.636141 0.702588 0.972547
16374 1 0.634075 0.687034 0.989394
16373 3 0.629778 0.693128 0.98851
14988 1 0.63563 0.685188 0.989236
16372 1 0.623558 0.698345 0.989007
14987 3 0.640366 0.679265 0.988947
11745 1 0.649612 0.70126 0.990215
15888 1 0.648173 0.687785 0.971937
21544 1 0.650115 0.685281 0.972232
3988 1 0.682575 0.693288 0.992677
1934 3 0.666575 0.702119 0.973123
1935 1 0.672949 0.696954 0.973477
7301 3 0.667824 0.679132 0.990465
3735 1 0.675731 0.694786 0.973402
3989 3 0.677617 0.699517 0.991589
3828 1 0.651405 0.699171 0.990158
3826 1 0.661106 0.686799 0.99193
8481 1 0.663063 0.67321 0.970694
7300 1 0.672038 0.672848 0.989546
3734 3 0.682177 0.690139 0.973216
21545 3 0.654739 0.679597 0.973457
21546 1 0.66085 0.675124 0.971282
7302 1 0.66279 0.684974 0.991444
3827 3 0.656302 0.692941 0.990954
13423 1 0.697674 0.700289 0.976729
16652 3 0.713219 0.692087 0.99765
12134 3 0.691545 0.674622 0.973026
9795 1 0.707699 0.684012 0.979003
3733 1 0.686154 0.683653 0.973313
12133 1 0.68745 0.680954 0.973278
15403 1 0.694248 0.674573 0.993373
9793 1 0.699278 0.698186 0.9773
5959 1 0.709465 0.682035 0.978739
2974 1 0.683829 0.690175 0.992452
2975 3 0.68799 0.683739 0.992086
9794 3 0.703706 0.691233 0.978761
2976 1 0.692282 0.676846 0.993339
11608 1 0.70697 0.700538 0.996797
16653 1 0.708709 0.69852 0.996862
15525 1 0.720505 0.68271 0.999721
15204 1 0.745394 0.677627 0.985934
5961 1 0.720108 0.671379 0.980237
16651 1 0.718009 0.685926 0.99914
12999 1 0.734619 0.691916 0.984465
14577 1 0.723028 0.704291 0.984519
5960 3 0.714916 0.676985 0.978425
15203 3 0.74084 0.683754 0.984498
15202 1 0.7368 0.689667 0.984667
12997 1 0.724861 0.702487 0.984867
12998 3 0.730121 0.698 0.985192
15524 3 0.725242 0.677513 0.999733
7170 1 0.695172 0.716451 0.931117
7169 3 0.689601 0.710734 0.933839
8671 1 0.593046 0.71225 0.966787
8672 3 0.593522 0.710713 0.959475
1113 1 0.616899 0.72589 0.955436
1111 1 0.604753 0.737117 0.957108
1112 2 0.610951 0.731775 0.955587
8673 1 0.595135 0.706816 0.951898
13924 1 0.619526 0.723975 0.955192
13926 1 0.631905 0.716503 0.954095
13925 3 0.6258 0.720038 0.955417
17196 1 0.634677 0.714654 0.953644
17195 3 0.640656 0.709584 0.953233
8014 1 0.632697 0.734636 0.968268
4446 1 0.635248 0.732692 0.968927
2106 1 0.646141 0.737927 0.953447
18208 1 0.675595 0.712596 0.954465
16545 1 0.673587 0.714335 0.954999
16544 3 0.667192 0.719523 0.956485
16543 1 0.661295 0.724979 0.957126
2104 1 0.658918 0.727061 0.957079
2105 3 0.652812 0.733278 0.955064
18413 3 0.680117 0.734315 0.951215
18209 3 0.682941 0.706537 0.952863
19842 1 0.712655 0.706706 0.963338
19841 3 0.708275 0.711671 0.960048
11753 3 0.695811 0.724571 0.95313
19840 1 0.703609 0.717887 0.95614
11752 1 0.701383 0.71979 0.954741
11754 1 0.688836 0.728898 0.951229
18414 1 0.68646 0.73034 0.951133
12129 1 0.742511 0.735311 0.968579
13400 3 0.740481 0.707641 0.965555
4857 1 0.743971 0.732826 0.968821
13401 1 0.735196 0.713894 0.966425
8204 3 0.716498 0.735737 0.961703
8205 1 0.721175 0.730507 0.962932
1480 1 0.722823 0.728339 0.963406
1481 3 0.727686 0.722395 0.965158
1482 1 0.733316 0.71639 0.966678
11062 1 0.643999 0.739875 0.952743
11064 1 0.632933 0.750544 0.953946
11063 3 0.638658 0.744968 0.951822
8016 1 0.61894 0.743609 0.964645
8015 3 0.625987 0.738937 0.965905
11370 1 0.660781 0.756968 0.954691
12654 1 0.662562 0.754794 0.954392
18412 1 0.675616 0.738893 0.952507
12652 1 0.673422 0.741002 0.953106
12653 3 0.66733 0.748411 0.953933
11369 3 0.656275 0.762456 0.956068
5652 1 0.681382 0.755307 0.945408
11368 1 0.652298 0.770243 0.958288
8203 1 0.71097 0.741483 0.960844
5651 3 0.686457 0.753972 0.951663
17361 1 0.708785 0.743116 0.960415
17360 3 0.701713 0.747774 0.960332
17359 1 0.695545 0.750856 0.957085
5650 1 0.692998 0.751858 0.955609
16148 3 0.71232 0.769322 0.959014
16149 1 0.717651 0.762944 0.962057
4524 1 0.719472 0.760771 0.963122
4523 3 0.724758 0.755123 0.963921
12127 1 0.732057 0.747149 0.965698
4522 1 0.729897 0.749034 0.965403
12128 3 0.73833 0.741322 0.967562
17876 2 0.552592 0.798325 0.95059
17875 1 0.555713 0.793387 0.955895
13839 1 0.556608 0.791823 0.957546
13838 3 0.560934 0.787552 0.962733
13837 1 0.567592 0.785652 0.967805
14713 1 0.613591 0.797497 0.964743
14714 3 0.616407 0.790822 0.968083
12040 1 0.659313 0.802083 0.950717
16077 1 0.675627 0.787978 0.95603
13804 1 0.673387 0.789619 0.95521
13806 1 0.661426 0.800206 0.950568
13805 2 0.667471 0.795749 0.952187
16076 3 0.680766 0.783509 0.960047
16075 1 0.686038 0.779336 0.964496
15973 1 0.695846 0.790525 0.94827
15974 3 0.700909 0.78478 0.952223
15975 1 0.705451 0.77832 0.955251
16147 1 0.707218 0.77602 0.956807
11007 1 0.687769 0.777584 0.966316
17877 1 0.549846 0.804209 0.946347
12042 1 0.646711 0.813646 0.953015
12041 2 0.6532 0.808391 0.951226
14682 1 0.558329 0.864432 0.960345
16223 3 0.561588 0.855279 0.966164
16222 1 0.559382 0.861917 0.96159
14681 3 0.554321 0.870288 0.955895
14680 1 0.552306 0.876966 0.950954
3586 1 0.578961 0.731618 0.981027
17719 1 0.575681 0.733278 0.980634
3587 3 0.585225 0.727131 0.982419
20656 1 0.604114 0.718101 0.972673
20657 3 0.612836 0.717092 0.971688
13655 3 0.597963 0.714889 0.987848
3588 1 0.591347 0.722748 0.98446
13654 1 0.593042 0.721101 0.985132
13656 1 0.60444 0.711828 0.99014
20455 1 0.607065 0.709923 0.990825
20456 3 0.613993 0.705994 0.990676
11744 3 0.6453 0.707959 0.988945
20658 1 0.619314 0.712995 0.973346
4445 3 0.640027 0.726501 0.971243
5294 3 0.620987 0.735145 0.987311
9397 1 0.622515 0.711342 0.973355
4444 1 0.645852 0.721043 0.972081
11743 1 0.64023 0.713328 0.988523
6949 1 0.63863 0.715183 0.988888
6950 3 0.632401 0.720826 0.988848
5295 1 0.625624 0.729004 0.988508
6951 1 0.627403 0.726999 0.98865
3748 1 0.645577 0.738376 0.988045
13104 1 0.647737 0.73635 0.987735
18438 1 0.648309 0.719265 0.972284
9398 3 0.629905 0.707203 0.972994
3990 1 0.671494 0.70679 0.992481
9799 1 0.669753 0.708946 0.992643
1933 1 0.660577 0.707338 0.972556
18436 1 0.65899 0.71004 0.972457
18437 3 0.654878 0.715541 0.972933
4781 3 0.676931 0.733478 0.993102
9800 3 0.666067 0.715649 0.992378
9801 1 0.661133 0.722029 0.990681
13102 1 0.659365 0.724592 0.990123
13103 3 0.65296 0.730384 0.98791
9634 1 0.674368 0.727426 0.973676
19735 1 0.672826 0.729763 0.973348
19736 3 0.66757 0.736508 0.972711
9635 3 0.679048 0.720688 0.974687
4782 1 0.681572 0.727 0.992082
13424 3 0.692967 0.707263 0.976312
9636 1 0.684671 0.715014 0.975217
13425 1 0.68697 0.712442 0.97558
20881 1 0.693964 0.713185 0.996672
20882 3 0.688541 0.719118 0.995245
11610 1 0.695843 0.710711 0.997156
20883 1 0.683475 0.724847 0.992501
14575 1 0.71195 0.715529 0.980435
20256 1 0.710281 0.717708 0.979461
20255 3 0.705698 0.724281 0.978739
20254 1 0.700487 0.729104 0.978358
19036 1 0.698738 0.731367 0.977854
19037 3 0.69374 0.73724 0.9772
11609 3 0.700829 0.705802 0.997173
14576 3 0.717105 0.710815 0.982481
15561 1 0.745825 0.712433 0.988193
15560 3 0.739228 0.716533 0.987081
19768 1 0.730363 0.724496 0.985966
15559 1 0.732438 0.722517 0.986368
19769 3 0.724974 0.73088 0.98432
19770 1 0.720829 0.737267 0.982997
16425 1 0.582633 0.756118 0.978347
17721 1 0.562442 0.74464 0.979074
17720 2 0.568668 0.73895 0.981282
16424 2 0.590135 0.75372 0.980598
5293 1 0.616166 0.741021 0.985972
1069 1 0.59969 0.750834 0.984156
16423 1 0.59721 0.751274 0.983484
1071 1 0.613825 0.742947 0.985747
1070 3 0.607112 0.747666 0.985448
2300 3 0.609437 0.768468 0.986124
2301 1 0.615765 0.764334 0.988655
1149 1 0.618105 0.7627 0.989466
13519 1 0.632139 0.768014 0.972203
660 1 0.634451 0.76576 0.972707
3749 3 0.639253 0.743439 0.989743
659 3 0.640364 0.761353 0.972312
3750 1 0.632818 0.748413 0.99024
7128 1 0.644383 0.770844 0.990997
1147 1 0.630808 0.750056 0.990505
1148 3 0.625196 0.756506 0.991503
658 1 0.64611 0.756124 0.972741
17758 1 0.648557 0.754195 0.972656
1392 1 0.646385 0.768446 0.990676
19737 1 0.661114 0.741721 0.973457
4780 1 0.672312 0.740262 0.994398
17760 1 0.659642 0.743275 0.973299
18584 3 0.666322 0.766226 0.975585
8190 1 0.670299 0.742661 0.994721
17759 3 0.653768 0.747705 0.972846
1045 1 0.674847 0.757993 0.975206
18583 1 0.672262 0.759775 0.975085
1046 2 0.680855 0.752412 0.975815
1391 3 0.652908 0.761835 0.991009
8189 3 0.664294 0.748069 0.994593
8188 1 0.658486 0.753951 0.993382
1390 1 0.656936 0.756504 0.992582
1047 1 0.686575 0.746121 0.976541
4907 3 0.701873 0.761073 0.980436
19038 1 0.6884 0.743742 0.976611
2111 3 0.713438 0.745626 0.981883
2110 1 0.708494 0.751183 0.982028
4906 1 0.70618 0.753717 0.981971
4908 1 0.698264 0.765588 0.977922
11005 1 0.696625 0.767544 0.976285
10327 1 0.739865 0.743107 0.987763
10328 3 0.745713 0.738747 0.988386
2112 1 0.718534 0.740003 0.982249
11805 1 0.737515 0.744951 0.987226
11804 3 0.733144 0.75164 0.984843
11803 1 0.728731 0.758846 0.983456
21133 1 0.727132 0.761412 0.982776
21134 3 0.72292 0.766787 0.981797
13414 1 0.569594 0.785636 0.969798
13415 3 0.57598 0.784066 0.973044
13416 1 0.583301 0.781385 0.975468
5461 1 0.585542 0.780016 0.976624
14955 1 0.579799 0.797312 0.987756
14954 2 0.585528 0.793127 0.989782
3076 1 0.577714 0.79913 0.987039
2299 1 0.60298 0.771393 0.98356
5463 1 0.600448 0.772363 0.982495
5462 2 0.592837 0.775884 0.979563
14953 1 0.592798 0.789917 0.991403
20759 2 0.602761 0.78681 0.993594
20760 1 0.595606 0.789019 0.991836
20758 1 0.609842 0.784505 0.993716
19548 1 0.612197 0.783761 0.994003
14715 1 0.620718 0.783999 0.96974
13521 1 0.622284 0.781089 0.969964
13520 3 0.627491 0.774823 0.971078
7127 3 0.638585 0.775727 0.993499
8950 1 0.645807 0.785738 0.977361
16662 1 0.631248 0.799216 0.982829
16660 1 0.64375 0.787829 0.977943
16661 3 0.638416 0.794244 0.981449
7126 1 0.631688 0.778147 0.994183
19546 1 0.628969 0.779304 0.994213
19547 3 0.620683 0.782179 0.994649
6903 1 0.628597 0.80102 0.983262
18585 1 0.660439 0.772177 0.975696
8951 3 0.651424 0.779899 0.976392
8952 1 0.657574 0.774438 0.975973
7369 1 0.710848 0.791656 0.977232
7370 3 0.713956 0.785205 0.979706
11006 2 0.691727 0.771899 0.97154
21135 1 0.718702 0.77436 0.980884
7371 1 0.717156 0.776937 0.98032
4545 1 0.567527 0.831557 0.978192
9387 1 0.580654 0.815293 0.998945
3078 1 0.570274 0.810755 0.983664
3077 2 0.572492 0.804772 0.98482
2220 1 0.569856 0.813019 0.983311
2219 2 0.568582 0.82135 0.981458
2218 1 0.56853 0.828992 0.979379
9386 2 0.588239 0.818257 0.997567
16684 1 0.611997 0.809546 0.986595
16686 1 0.598693 0.817787 0.993305
9385 1 0.596228 0.818171 0.994978
16685 2 0.606094 0.814363 0.988765
6901 1 0.614367 0.807845 0.986
6902 2 0.621705 0.80424 0.984814
4543 1 0.564763 0.845756 0.971725
16224 1 0.563667 0.848793 0.969969
4544 2 0.565847 0.839131 0.975312
15805 1 0.852292 0.530186 0.0162919
8293 1 0.854093 0.527806 0.0163059
8294 2 0.858488 0.520866 0.0158134
8295 1 0.865116 0.51458 0.0138009
10737 1 0.867625 0.512804 0.0126822
10736 2 0.873199 0.507747 0.0114612
15806 2 0.847632 0.535998 0.0155236
1182 1 0.884818 0.534665 0.00843836
1181 2 0.889362 0.527913 0.00731553
10735 1 0.879518 0.502874 0.0122649
6883 1 0.894858 0.519615 0.00445691
1180 1 0.89309 0.522121 0.00557414
6884 3 0.899659 0.513962 0.00160249
18095 3 0.791649 0.575491 0.00260269
18094 1 0.796605 0.56885 0.0018366
7350 1 0.798485 0.566428 0.00146358
16578 1 0.80931 0.551755 0.00255823
7349 3 0.802929 0.560915 0.00155346
7348 1 0.807845 0.554463 0.00186952
14124 1 0.829308 0.56171 0.0117059
17742 1 0.815449 0.574679 0.0111059
14122 1 0.817698 0.572397 0.0111064
14123 2 0.824247 0.567958 0.010713
20871 1 0.830675 0.559614 0.0120244
20870 2 0.835884 0.552664 0.0137446
16577 2 0.81302 0.544084 0.00461738
16576 1 0.814556 0.536696 0.00481503
20869 1 0.840804 0.545251 0.0146684
15807 1 0.842444 0.542505 0.0147977
16048 1 0.864324 0.567845 0.0127756
3648 1 0.862906 0.570338 0.0126213
16049 2 0.868003 0.560846 0.0101211
16050 1 0.871819 0.553397 0.00942326
2904 1 0.883472 0.537164 0.00914505
2902 1 0.873399 0.550683 0.00922118
2903 3 0.877917 0.542947 0.00934693
20299 1 0.774703 0.595461 0.00299613
6881 3 0.767801 0.604626 0.00131599
6882 1 0.772647 0.598186 0.00303455
6880 1 0.761836 0.609618 7.52871e-06
15073 1 0.75911 0.611481 0.000193395
18096 1 0.787214 0.581401 0.00461172
20300 3 0.779143 0.588883 0.00299835
9337 1 0.804243 0.588659 0.0101649
9338 3 0.799605 0.59444 0.00952974
21305 3 0.78696 0.60925 0.0093316
21304 1 0.791881 0.603288 0.00939944
9339 1 0.794108 0.601049 0.00905506
20301 1 0.784749 0.583654 0.00445201
17740 1 0.806407 0.58626 0.0103318
21306 1 0.782183 0.614995 0.00782624
2457 1 0.830135 0.611964 0.00931943
17741 3 0.811353 0.581125 0.0111397
2456 3 0.834732 0.606634 0.00992774
2455 1 0.83977 0.600626 0.0106638
15837 1 0.84107 0.598172 0.0107443
10023 1 0.82824 0.615005 0.00808505
3647 3 0.858574 0.577399 0.0117608
3646 1 0.853988 0.58329 0.0132392
15836 2 0.84679 0.592116 0.01177
15835 1 0.851966 0.585576 0.0131736
20987 2 0.866819 0.598652 0.0147395
20988 1 0.861274 0.604139 0.0156455
12043 1 0.859643 0.607108 0.0158008
20986 1 0.871549 0.592823 0.0141566
12044 3 0.854918 0.614407 0.0152351
18625 1 0.873619 0.590266 0.0142666
18627 1 0.883283 0.576496 0.0142137
18626 2 0.879698 0.583777 0.0138241
6795 1 0.796078 0.575782 0.960857
8342 3 0.753652 0.60384 0.958057
8343 1 0.746919 0.609542 0.954598
907 1 0.773169 0.586092 0.963811
8341 1 0.759893 0.599567 0.960139
909 1 0.761907 0.597663 0.960858
908 3 0.766809 0.591841 0.962889
15992 3 0.774238 0.612281 0.968189
15993 1 0.779282 0.606587 0.967262
21344 3 0.785446 0.598024 0.967277
21345 1 0.780997 0.604394 0.966792
21343 1 0.790309 0.591999 0.966362
6793 1 0.792207 0.589466 0.966177
6794 2 0.795013 0.581896 0.964479
6885 1 0.905549 0.510205 0.998534
13830 1 0.746831 0.55894 0.988411
2251 1 0.749295 0.55696 0.988651
2252 3 0.755779 0.551346 0.98885
11895 1 0.762525 0.56377 0.974843
11894 3 0.760115 0.57135 0.975367
5114 3 0.766249 0.570481 0.994902
5113 1 0.772919 0.565352 0.99465
12481 1 0.77458 0.563538 0.994613
2253 1 0.763135 0.546908 0.990004
12482 3 0.779501 0.557497 0.993001
14853 1 0.793685 0.55485 0.971704
13518 1 0.799294 0.539782 0.98815
13517 3 0.793919 0.545027 0.989724
12483 1 0.785321 0.551849 0.99244
13516 1 0.787763 0.549864 0.991767
14852 2 0.79233 0.561792 0.976397
14851 1 0.789928 0.568821 0.979809
19957 1 0.788863 0.571535 0.980189
16293 1 0.847554 0.572376 0.979529
15385 1 0.845087 0.573441 0.978515
16292 3 0.854675 0.56901 0.982276
17919 1 0.864889 0.565261 0.984664
16291 1 0.862138 0.566594 0.983783
17918 2 0.872135 0.562711 0.987742
14048 3 0.904083 0.556227 0.980994
9913 1 0.895149 0.557508 0.984987
14049 1 0.897841 0.557126 0.983223
17917 1 0.879263 0.561137 0.989384
9915 1 0.882426 0.559914 0.989904
9914 2 0.888284 0.557927 0.989593
14047 1 0.911181 0.55481 0.978192
11893 1 0.755734 0.578171 0.974441
5235 1 0.747379 0.589291 0.995727
12840 1 0.75393 0.580516 0.974293
12839 3 0.749555 0.586484 0.974145
5115 1 0.760057 0.576351 0.994921
5233 1 0.75781 0.57839 0.995178
18964 1 0.776599 0.614622 0.986329
3441 1 0.748839 0.612171 0.978588
5234 3 0.752032 0.583222 0.995825
10298 3 0.768629 0.591706 0.982775
3440 3 0.755675 0.606485 0.982183
10297 1 0.763483 0.598001 0.983003
3439 1 0.761451 0.600456 0.982527
10299 1 0.775543 0.586279 0.983425
19959 1 0.777801 0.584126 0.983104
17569 1 0.746911 0.614169 0.977692
3535 1 0.80953 0.609088 0.996411
12158 3 0.809456 0.584045 0.991328
12157 1 0.803941 0.589431 0.989605
18965 3 0.782985 0.610571 0.987389
19958 3 0.784279 0.578345 0.981982
3976 1 0.803423 0.613201 0.975262
19243 1 0.806166 0.611125 0.975688
7969 1 0.790207 0.603077 0.987304
7970 3 0.795369 0.596726 0.987844
7971 1 0.801582 0.591285 0.989034
18966 1 0.788216 0.605125 0.987264
3536 3 0.804445 0.615733 0.995234
12159 1 0.815489 0.579423 0.994811
1005 1 0.823144 0.595974 0.996841
19245 1 0.817413 0.600098 0.977423
15386 2 0.838108 0.578195 0.977302
591 1 0.838987 0.606163 0.984379
13475 3 0.824387 0.592857 0.977637
590 3 0.83389 0.612699 0.984024
14307 1 0.825408 0.59319 0.996826
14305 1 0.834164 0.582005 0.995219
1004 3 0.817327 0.601375 0.997522
15387 1 0.83167 0.584059 0.97757
13476 1 0.829509 0.586681 0.977485
13474 1 0.819422 0.598205 0.977431
14306 2 0.830123 0.587377 0.997243
19244 3 0.812175 0.605878 0.977289
1003 1 0.811634 0.606682 0.996485
17300 2 0.86394 0.606757 0.993693
8530 1 0.855837 0.613999 0.994946
17301 1 0.857499 0.612068 0.994593
17299 1 0.87067 0.602216 0.99521
6936 1 0.756514 0.640034 0.00384866
10006 1 0.754215 0.642378 0.00349422
6935 3 0.761227 0.635298 0.00486182
6934 1 0.767589 0.630319 0.00501146
20218 1 0.769217 0.628591 0.00534802
20219 3 0.775614 0.62339 0.00672581
10007 3 0.749223 0.64773 0.00401528
19992 1 0.804755 0.643937 0.00260124
2806 1 0.806882 0.641767 0.00347854
20220 1 0.779738 0.617036 0.00732296
10672 1 0.836604 0.637362 0.0142486
10673 3 0.831531 0.644498 0.0128431
2808 1 0.816619 0.630663 0.00519515
10021 1 0.818557 0.628367 0.00473486
2807 3 0.8116 0.636553 0.00509994
12292 1 0.837772 0.635118 0.0143055
10022 3 0.8235 0.621795 0.00639218
12293 3 0.842391 0.628597 0.0138828
12294 1 0.847955 0.622582 0.0138115
12045 1 0.85002 0.620256 0.0137571
19991 3 0.800152 0.649099 6.13696e-05
8855 3 0.807718 0.669996 0.00416576
8856 1 0.804228 0.677145 0.00162289
14964 1 0.803346 0.679654 0.000865391
10674 1 0.8274 0.650362 0.0120973
21388 1 0.815557 0.662576 0.00582138
21389 3 0.820905 0.656812 0.00798008
21390 1 0.82538 0.652237 0.0111217
8854 1 0.813657 0.66445 0.00503289
15991 1 0.767617 0.617874 0.967942
3808 1 0.76541 0.619835 0.967687
1090 1 0.750459 0.631959 0.965505
3810 1 0.752821 0.629766 0.965782
3809 3 0.758972 0.624108 0.966991
3253 1 0.750927 0.661419 0.966099
3254 3 0.755971 0.65569 0.966124
3255 1 0.76231 0.651456 0.967465
8739 1 0.748802 0.663677 0.96591
12313 1 0.764451 0.649425 0.968082
14139 1 0.770672 0.672314 0.969503
14138 3 0.764673 0.677345 0.969438
7808 3 0.750923 0.68996 0.965824
14137 1 0.758378 0.682387 0.967958
7807 1 0.756229 0.684555 0.967349
4855 1 0.754548 0.72269 0.969061
20164 1 0.756659 0.7203 0.96943
4856 3 0.749195 0.728169 0.969226
14077 1 0.774343 0.617158 0.985983
2500 1 0.750341 0.641467 0.983913
12314 3 0.769956 0.645078 0.970066
12315 1 0.775898 0.640228 0.971398
2501 3 0.756035 0.635369 0.984019
14078 3 0.769504 0.622438 0.985741
14079 1 0.764446 0.62809 0.985498
2502 1 0.762325 0.630316 0.985124
3366 1 0.772817 0.646868 0.988992
1234 1 0.748256 0.643957 0.983332
15075 1 0.748113 0.620504 0.997958
15074 3 0.753913 0.616369 0.999949
3977 3 0.797466 0.617928 0.974034
3537 1 0.7991 0.621414 0.994392
13535 3 0.784362 0.632956 0.972551
13536 1 0.778338 0.638334 0.972096
3365 3 0.778283 0.641504 0.991226
13534 1 0.790098 0.626849 0.972982
3364 1 0.784716 0.636121 0.992509
4785 1 0.786824 0.633902 0.993508
4783 1 0.797134 0.623299 0.994184
4784 3 0.792467 0.628956 0.994158
3978 1 0.792458 0.624087 0.973124
9014 3 0.80578 0.63778 0.980232
9013 1 0.800517 0.644129 0.977602
2706 1 0.798295 0.646223 0.97687
589 1 0.827571 0.618431 0.983142
17296 1 0.824941 0.620144 0.982824
9015 1 0.811497 0.63234 0.98173
17298 1 0.813629 0.630485 0.982322
17297 3 0.81907 0.625131 0.983281
10636 1 0.833179 0.638921 0.991799
10637 3 0.839179 0.634071 0.992701
11056 1 0.830551 0.640931 0.991314
11057 3 0.824535 0.646311 0.989713
8531 3 0.849884 0.619244 0.995897
10638 1 0.842666 0.62725 0.994179
8532 1 0.84418 0.625376 0.994929
11169 1 0.771294 0.649043 0.988381
18756 1 0.773239 0.670659 0.970203
17543 3 0.751008 0.666524 0.987323
11167 1 0.757802 0.658439 0.988266
11168 3 0.764258 0.65473 0.987859
17542 1 0.755816 0.660228 0.988107
18221 3 0.774281 0.675875 0.990085
17544 1 0.747213 0.674564 0.986484
18755 3 0.78014 0.666308 0.972953
18220 1 0.780168 0.670787 0.991147
6801 1 0.781987 0.668617 0.992101
18754 1 0.786214 0.660589 0.974377
19990 1 0.793979 0.653675 0.997924
6799 1 0.79199 0.655741 0.997069
2704 1 0.788123 0.657967 0.974583
6800 3 0.78754 0.661541 0.994612
2705 3 0.793472 0.651588 0.975516
10860 1 0.805997 0.670153 0.982919
3609 1 0.80844 0.668 0.983298
10859 3 0.798699 0.674716 0.980472
10858 1 0.793013 0.679409 0.980423
11058 1 0.820166 0.652591 0.987708
3608 3 0.813865 0.662171 0.98587
3607 1 0.81835 0.655427 0.987103
18222 1 0.768697 0.682164 0.988869
3084 1 0.747721 0.710626 0.988502
3083 3 0.753683 0.704561 0.987626
8914 1 0.76899 0.708622 0.972735
3082 1 0.758491 0.698709 0.986311
13642 1 0.760036 0.696003 0.986436
8915 3 0.775928 0.702492 0.975062
13644 1 0.767073 0.684387 0.988619
13643 3 0.763321 0.690327 0.98739
12448 1 0.778055 0.708188 0.993884
20166 1 0.767158 0.710277 0.971914
20721 1 0.792874 0.695351 0.99758
14962 1 0.794612 0.692907 0.998454
14963 3 0.800052 0.686107 0.999509
5656 1 0.782709 0.694667 0.977032
20720 3 0.786912 0.700199 0.996538
5657 3 0.785779 0.688195 0.978592
8916 1 0.781508 0.696771 0.976624
5658 1 0.790468 0.681494 0.979993
20719 1 0.7805 0.705815 0.994168
10329 1 0.752028 0.733567 0.988339
12450 1 0.766421 0.717899 0.994429
18079 1 0.753971 0.731063 0.988414
18080 3 0.759319 0.725724 0.990891
20165 3 0.762108 0.715132 0.970035
18081 1 0.764365 0.719827 0.993857
12449 3 0.7721 0.713117 0.994367
