ITEM: TIMESTEP
80000000
ITEM: NUMBER OF ATOMS
15018
ITEM: BOX BOUNDS pp pp pp
0.0000000000000000e+00 5.0000000000000000e+01
0.0000000000000000e+00 5.0000000000000000e+01
0.0000000000000000e+00 5.0000000000000000e+01
ITEM: ATOMS id type xs ys zs
1335 1 0.0350009 0.616806 0.000574653
11523 1 0.0610442 0.660563 0.00655621
9549 1 0.0608837 0.658926 0.00450476
6081 1 0.0647508 0.674653 0.0195906
11522 2 0.0621764 0.66641 0.0119781
11521 1 0.0637833 0.672151 0.0170215
6080 3 0.0671804 0.679045 0.0261557
5604 1 0.135057 0.638978 0.0569933
4348 1 0.11485 0.569528 0.0923225
5603 3 0.133206 0.64304 0.0637883
5602 1 0.133475 0.646871 0.0714082
18850 1 0.134142 0.648341 0.0740615
14926 1 0.165507 0.635559 0.0890101
18851 2 0.136484 0.651553 0.0810992
18852 1 0.138583 0.652516 0.0894214
5268 1 0.13917 0.652445 0.092416
18442 1 0.124958 0.678314 0.0941464
17143 1 0.159608 0.681068 0.085884
17144 3 0.162982 0.675619 0.0916606
4349 3 0.116993 0.577306 0.0967137
4350 1 0.117645 0.582965 0.101812
3736 1 0.11804 0.585097 0.104188
11816 3 0.0969661 0.58761 0.113592
11815 1 0.0926881 0.583224 0.108506
10862 2 0.0788513 0.591093 0.122425
10863 1 0.0817554 0.596342 0.117033
11817 1 0.101641 0.59182 0.119899
3737 2 0.119556 0.591098 0.110062
3738 1 0.121205 0.596486 0.11606
17017 1 0.121956 0.598051 0.117999
6997 1 0.102564 0.593536 0.122007
17018 3 0.123627 0.602579 0.123279
792 1 0.150897 0.58928 0.126167
17927 2 0.161013 0.611837 0.124817
17926 1 0.156335 0.611264 0.118074
580 1 0.097151 0.626493 0.113719
21462 1 0.117349 0.635368 0.10382
21461 2 0.118324 0.638829 0.110231
21460 1 0.118135 0.641793 0.117679
581 2 0.0996835 0.62918 0.122066
15331 1 0.117739 0.642614 0.120931
20372 2 0.151216 0.626414 0.109315
20371 1 0.146177 0.625123 0.116227
11442 1 0.144781 0.624473 0.118983
5267 2 0.138538 0.650705 0.100023
5266 1 0.138134 0.648431 0.108823
20544 1 0.13849 0.647778 0.111719
20543 2 0.140326 0.645863 0.119498
14927 2 0.162698 0.63134 0.0952709
14928 1 0.158311 0.627817 0.100391
20373 1 0.156588 0.626943 0.102556
10313 3 0.0832678 0.670512 0.120476
10314 1 0.0829622 0.666679 0.113535
11696 2 0.101224 0.663307 0.105806
11695 1 0.103476 0.665635 0.113164
17962 1 0.104381 0.666939 0.116257
11697 1 0.0985052 0.662458 0.0982025
17963 2 0.105727 0.669522 0.12391
18443 3 0.125817 0.672933 0.101397
21496 1 0.126795 0.666617 0.111427
18444 1 0.126633 0.667746 0.108192
21497 2 0.127126 0.664819 0.117927
21498 1 0.12731 0.662288 0.125477
17145 1 0.164882 0.670194 0.0974129
8544 1 0.166088 0.667658 0.0996957
8543 3 0.166434 0.662066 0.105924
8982 1 0.166434 0.659125 0.116567
8542 1 0.166723 0.659724 0.113245
8981 2 0.167483 0.65761 0.123687
10861 1 0.0782422 0.584184 0.127216
12615 1 0.129628 0.587577 0.136191
19663 1 0.1468 0.58159 0.156313
11698 1 0.122499 0.591221 0.153471
6998 3 0.104618 0.598092 0.128937
6999 1 0.104381 0.602494 0.135763
6529 1 0.104221 0.604052 0.138143
6530 2 0.104154 0.607039 0.146211
6531 1 0.105401 0.609172 0.154507
6466 1 0.105436 0.609542 0.157431
12614 3 0.126987 0.588962 0.14339
12613 1 0.123543 0.59076 0.150605
17019 1 0.124335 0.607098 0.129578
7546 1 0.124571 0.608477 0.131923
7547 2 0.124278 0.611275 0.140142
7548 1 0.12428 0.612125 0.147664
13410 1 0.12463 0.612886 0.15061
791 3 0.149144 0.59294 0.13227
790 1 0.148068 0.59552 0.139709
3624 1 0.147167 0.59648 0.142641
3623 2 0.144577 0.599264 0.150518
17800 1 0.166017 0.612612 0.148651
15526 1 0.165994 0.611362 0.151303
17801 2 0.165679 0.614149 0.141724
17928 1 0.163407 0.611841 0.130743
17802 1 0.163902 0.612425 0.134054
16524 1 0.0627163 0.628965 0.138873
16522 1 0.0657257 0.629047 0.155308
16523 2 0.0638897 0.628976 0.147362
14233 1 0.087889 0.620165 0.150537
12089 2 0.0832436 0.635801 0.151746
12090 1 0.081893 0.634251 0.144265
582 1 0.100547 0.630682 0.129981
10597 1 0.10091 0.631066 0.132607
10598 2 0.101892 0.631258 0.139639
10599 1 0.102952 0.630528 0.147661
13030 1 0.103387 0.630504 0.151004
15332 2 0.117905 0.642542 0.128286
2615 2 0.120508 0.641771 0.147636
2616 1 0.118288 0.642363 0.13962
15333 1 0.117522 0.642524 0.136355
2563 1 0.0946039 0.648772 0.129761
2614 1 0.120971 0.640949 0.154958
20542 1 0.140954 0.646282 0.127335
11441 3 0.142809 0.625136 0.126726
7632 1 0.153021 0.638802 0.127366
13685 2 0.144036 0.627285 0.145877
13684 1 0.143802 0.627352 0.137999
11440 1 0.143246 0.62693 0.135183
13686 1 0.14157 0.627353 0.153602
7398 1 0.141443 0.646671 0.130215
7397 2 0.142134 0.647298 0.137615
7396 1 0.143069 0.646668 0.145604
1693 1 0.143379 0.646234 0.148643
1694 2 0.144019 0.646445 0.157136
12451 1 0.140901 0.627295 0.156941
7630 1 0.162025 0.634528 0.141205
2460 1 0.16318 0.633967 0.143702
2459 2 0.165082 0.632927 0.150651
7631 2 0.158281 0.636553 0.132884
20635 1 0.191081 0.633041 0.138619
20637 1 0.185081 0.633734 0.153464
20636 2 0.188504 0.634278 0.147026
15421 1 0.0513267 0.680787 0.15346
5098 1 0.0527909 0.679222 0.155295
16535 2 0.0840107 0.679882 0.136678
10312 1 0.0830211 0.673902 0.127114
16534 1 0.0828821 0.675751 0.129809
11670 1 0.0831806 0.658804 0.155158
11669 2 0.0860402 0.665404 0.15724
4097 2 0.103354 0.652372 0.154543
2564 2 0.0979893 0.651649 0.136714
2565 1 0.101327 0.652445 0.143751
4098 1 0.102198 0.652493 0.146217
17964 1 0.106313 0.671788 0.131477
13164 1 0.106825 0.67215 0.134896
13163 2 0.107606 0.673297 0.142983
13162 1 0.108837 0.673847 0.151059
9051 1 0.108895 0.674246 0.15392
11599 1 0.126997 0.661578 0.128708
11600 2 0.125381 0.661108 0.136626
11601 1 0.124178 0.661027 0.144811
12915 1 0.12387 0.661468 0.148012
17103 1 0.145281 0.680789 0.143768
17102 2 0.14462 0.678121 0.151536
3559 1 0.145848 0.681585 0.140937
3560 3 0.147684 0.681157 0.132777
12914 2 0.124198 0.660889 0.156912
12124 1 0.167415 0.657422 0.151254
8980 1 0.16745 0.657227 0.131066
12126 1 0.167364 0.657816 0.13472
12125 2 0.166926 0.658883 0.142619
7236 1 0.167607 0.656798 0.154528
19665 1 0.133706 0.577797 0.162518
19664 2 0.140266 0.580422 0.159662
132 1 0.0685331 0.612426 0.182175
131 2 0.0688272 0.610978 0.174158
130 1 0.0689551 0.610556 0.166497
6562 1 0.0679565 0.612771 0.1854
15961 1 0.0885149 0.596502 0.158677
15962 2 0.0860745 0.598969 0.165517
15963 1 0.0840027 0.599616 0.173711
2646 1 0.0832262 0.600125 0.176228
2645 2 0.0828732 0.6005 0.184897
14234 2 0.0874967 0.618322 0.159352
14235 1 0.0877405 0.617956 0.167135
17305 1 0.0872963 0.618234 0.169644
11699 2 0.121086 0.592482 0.160695
11700 1 0.120448 0.593662 0.167845
12721 1 0.120006 0.593623 0.170532
12722 2 0.118289 0.594217 0.178238
12723 1 0.117811 0.594693 0.186005
6467 2 0.105833 0.610544 0.165977
6468 1 0.105719 0.609898 0.173329
15798 1 0.105512 0.610098 0.176671
15797 2 0.105648 0.611706 0.185564
1885 1 0.118246 0.594856 0.189255
14829 1 0.124993 0.619303 0.183907
11350 1 0.124954 0.619213 0.186719
13409 2 0.125204 0.614679 0.1591
13408 1 0.124803 0.616072 0.166678
14827 1 0.124688 0.616843 0.169067
14828 2 0.12556 0.618127 0.175681
3622 1 0.143847 0.602191 0.158226
10518 1 0.143378 0.602927 0.160641
10517 2 0.141136 0.604553 0.16914
10516 1 0.140903 0.604402 0.176502
1249 1 0.140681 0.604599 0.179722
1250 2 0.139786 0.603374 0.18772
15527 3 0.165073 0.608991 0.158518
8869 1 0.165447 0.605852 0.169839
8870 2 0.165399 0.604233 0.176888
15528 1 0.165854 0.606639 0.166393
8871 1 0.165288 0.6032 0.184788
13477 1 0.165221 0.603416 0.188458
17979 1 0.00413104 0.640993 0.188271
5936 3 0.000196297 0.646895 0.180242
5937 1 0.00274191 0.642392 0.185821
15558 1 0.0559008 0.621518 0.184589
15557 3 0.0497486 0.624975 0.182313
15556 1 0.0435005 0.628884 0.180201
4330 1 0.0667726 0.629355 0.158353
12088 1 0.0848086 0.637263 0.16017
4331 2 0.0690871 0.630234 0.166201
17307 1 0.0900516 0.622087 0.184708
17306 2 0.0886886 0.620023 0.176783
17915 2 0.0870119 0.639765 0.170244
17914 1 0.0890914 0.640391 0.177599
522 1 0.0893729 0.640897 0.180407
4332 1 0.0702522 0.632542 0.17312
11325 1 0.0708997 0.633418 0.175922
11324 2 0.0711241 0.635261 0.184052
521 2 0.0898755 0.642612 0.187805
17916 1 0.085625 0.638309 0.162745
2259 1 0.089936 0.622491 0.187764
13031 2 0.104421 0.630478 0.15877
13032 1 0.105087 0.630715 0.166583
19899 1 0.105649 0.630891 0.169251
19898 2 0.107923 0.631023 0.175605
9522 1 0.12164 0.641078 0.158234
19897 1 0.109295 0.630819 0.183022
9426 1 0.109396 0.63076 0.185767
12452 2 0.141406 0.627015 0.165133
1141 1 0.141585 0.62623 0.176781
12453 1 0.140922 0.626338 0.173699
1142 2 0.143417 0.625476 0.184756
9521 2 0.123729 0.642294 0.166569
9520 1 0.125458 0.642417 0.173934
14374 1 0.126035 0.642343 0.176736
14375 2 0.128246 0.642263 0.184549
1695 1 0.145484 0.645785 0.16444
5523 1 0.145673 0.646068 0.167689
5522 2 0.146502 0.646856 0.174543
5521 1 0.147203 0.644729 0.182455
18000 1 0.147714 0.644399 0.185778
2458 1 0.165946 0.631967 0.159022
5539 1 0.165993 0.632097 0.161475
5540 3 0.16519 0.631598 0.16929
13615 1 0.163865 0.63205 0.179221
5541 1 0.164063 0.63222 0.176196
13616 2 0.163118 0.630578 0.18691
20851 1 0.169848 0.649946 0.185493
3079 1 0.170408 0.64944 0.188602
11293 1 0.202096 0.629895 0.180369
11295 1 0.19878 0.64335 0.186356
11294 2 0.200857 0.636353 0.18332
3322 1 0.0147711 0.656246 0.158593
3323 3 0.0164979 0.656629 0.166325
3324 1 0.0198875 0.659193 0.173007
14478 1 0.021044 0.660541 0.175857
14477 3 0.0251745 0.664776 0.181992
14476 1 0.0310863 0.668298 0.186288
5099 3 0.0567479 0.67506 0.161207
2727 1 0.0328069 0.669829 0.188035
5100 1 0.0597502 0.670812 0.167813
8451 1 0.0609032 0.668911 0.170851
8450 3 0.0632068 0.668132 0.177774
11668 1 0.0910979 0.671785 0.159145
8449 1 0.0646927 0.665753 0.185581
12749 2 0.0890387 0.666565 0.184226
12750 1 0.0897028 0.667238 0.176321
1663 1 0.0652936 0.665262 0.188454
4096 1 0.105493 0.651782 0.163016
17533 1 0.105866 0.651813 0.165519
17534 2 0.107163 0.652217 0.172996
17535 1 0.109801 0.654423 0.179652
13965 1 0.110601 0.655048 0.18227
9050 2 0.106732 0.675528 0.161235
9049 1 0.107277 0.676502 0.168179
14088 1 0.107565 0.676633 0.171003
14087 2 0.109487 0.676187 0.179831
14086 1 0.110316 0.676476 0.188315
17101 1 0.144528 0.674203 0.158888
14029 1 0.144933 0.672716 0.161626
14030 2 0.14672 0.669993 0.168578
14213 2 0.128101 0.660116 0.175061
12913 1 0.125371 0.660035 0.164558
14214 1 0.125973 0.659684 0.1675
14212 1 0.129671 0.65852 0.183898
14031 1 0.148923 0.667467 0.174722
8137 1 0.149745 0.666815 0.17733
8138 2 0.150905 0.664895 0.184486
912 1 0.130405 0.658174 0.186957
1396 1 0.129035 0.679656 0.17714
14925 1 0.129991 0.679589 0.180048
14924 2 0.132892 0.680559 0.187718
1397 2 0.127173 0.681176 0.168956
7235 2 0.166493 0.65501 0.162435
11083 1 0.183015 0.671374 0.161491
20852 2 0.16805 0.651773 0.178328
20853 1 0.16706 0.653527 0.171178
7234 1 0.166998 0.654146 0.168681
9614 3 0.166393 0.681318 0.173863
9615 1 0.165912 0.681499 0.181364
2001 1 0.166061 0.681383 0.18431
9613 1 0.168212 0.681242 0.165889
3856 1 0.169409 0.681367 0.162895
11085 1 0.188602 0.667032 0.175938
16669 1 0.188851 0.666779 0.178305
16670 3 0.189767 0.667186 0.185785
11084 3 0.186812 0.66861 0.167738
15486 1 0.0759329 0.575404 0.190472
15485 2 0.0750296 0.578798 0.197541
3340 1 0.0754488 0.582903 0.207241
3341 2 0.0771459 0.585009 0.216126
15484 1 0.0748635 0.582374 0.204896
11037 1 0.0972394 0.566174 0.204435
11036 3 0.0954017 0.567743 0.211472
11035 1 0.0934526 0.567894 0.218502
18418 1 0.0995259 0.582871 0.192473
17887 1 0.115383 0.568906 0.202325
17888 3 0.114814 0.569107 0.210358
17889 1 0.113771 0.569676 0.218626
14275 1 0.113909 0.570209 0.221163
18419 2 0.0978224 0.585715 0.199242
18420 1 0.0993666 0.586835 0.207282
4281 1 0.0994667 0.587629 0.210739
12687 1 0.0537964 0.593299 0.218916
6164 2 0.0398504 0.60948 0.218308
6163 1 0.0377335 0.606447 0.211285
6563 3 0.0688439 0.614798 0.194146
2644 1 0.08392 0.602339 0.193179
12189 1 0.0845066 0.603478 0.196088
12188 2 0.0844914 0.604921 0.204534
12187 1 0.0852665 0.605869 0.212905
20439 1 0.085474 0.6056 0.216015
6564 1 0.0692308 0.616282 0.202096
1285 1 0.0690987 0.61676 0.205139
1286 2 0.0696394 0.618492 0.213431
4280 2 0.0983455 0.589226 0.218638
1886 2 0.119925 0.595169 0.197697
15796 1 0.10613 0.611204 0.193505
5877 1 0.106303 0.610656 0.196728
5876 2 0.106683 0.610088 0.205198
5875 1 0.106363 0.609545 0.212104
16753 1 0.106223 0.610005 0.21483
1887 1 0.120528 0.595087 0.206484
10788 1 0.120119 0.595409 0.209372
10787 2 0.118766 0.595513 0.216613
11352 1 0.125785 0.619486 0.202724
16078 1 0.125802 0.619265 0.205496
11351 2 0.124879 0.618404 0.194817
1251 1 0.138162 0.602956 0.194803
4871 2 0.137927 0.602851 0.206803
4872 1 0.13786 0.602389 0.214321
4870 1 0.137836 0.602973 0.198029
4944 1 0.137711 0.602318 0.217114
16079 2 0.125817 0.618423 0.213561
16080 1 0.125462 0.619088 0.221065
13478 2 0.164711 0.604315 0.196305
13479 1 0.162582 0.604407 0.204448
2590 1 0.161398 0.604354 0.20731
2591 2 0.158738 0.60449 0.215474
17082 1 0.0197706 0.632825 0.215996
895 1 0.0203653 0.632081 0.218951
17080 1 0.0141398 0.63573 0.202139
17978 3 0.00758999 0.637713 0.193758
17977 1 0.0124165 0.63611 0.200256
17081 3 0.0181639 0.634557 0.208424
2922 1 0.054856 0.628986 0.213639
11323 1 0.0717702 0.636082 0.191881
15937 1 0.0723176 0.636477 0.194705
520 1 0.0911858 0.644043 0.19522
2258 2 0.0916142 0.623236 0.195042
2257 1 0.091861 0.625129 0.202635
19816 1 0.0912373 0.625346 0.205312
19817 3 0.090677 0.626269 0.213188
15938 2 0.0735033 0.638336 0.202987
15939 1 0.0733147 0.638699 0.210192
9568 1 0.0730479 0.639148 0.212663
14458 1 0.0920569 0.644521 0.197835
19818 1 0.0903586 0.626686 0.220256
14459 2 0.0946631 0.646117 0.20566
14460 1 0.0960393 0.64802 0.212325
18151 1 0.0962346 0.647967 0.215571
9425 2 0.111042 0.631834 0.194534
9424 1 0.11162 0.633157 0.202708
8383 1 0.11146 0.633194 0.20541
8384 2 0.110639 0.633363 0.214056
1143 1 0.143932 0.624278 0.19254
5919 1 0.144403 0.624235 0.195251
5918 2 0.144557 0.623127 0.203785
5917 1 0.145058 0.622506 0.211404
15340 1 0.145358 0.622605 0.214
17999 2 0.147462 0.643252 0.193508
14376 1 0.12969 0.641217 0.191809
10306 1 0.130292 0.640908 0.194735
10307 2 0.130121 0.638607 0.203168
10308 1 0.130224 0.63789 0.211506
12633 1 0.129937 0.637864 0.214809
17998 1 0.148526 0.642607 0.200926
15252 1 0.148967 0.642074 0.203969
15251 2 0.149848 0.641858 0.21196
15250 1 0.152078 0.641225 0.219362
13617 1 0.164188 0.629623 0.194441
993 1 0.164881 0.629164 0.197262
992 2 0.16621 0.629028 0.205348
991 1 0.167413 0.626846 0.213344
3080 2 0.171258 0.649125 0.19701
3081 1 0.173915 0.648713 0.205063
20290 1 0.174671 0.648427 0.20828
13719 1 0.167858 0.626524 0.216888
20291 2 0.175593 0.646312 0.216115
5716 1 0.00093806 0.681074 0.201503
81 1 0.00844562 0.676152 0.217937
5718 1 0.00737806 0.676542 0.214761
14700 1 0.00830578 0.658064 0.190236
14699 3 0.0101821 0.656949 0.198027
19885 1 0.0290696 0.679611 0.215165
14698 1 0.0139171 0.657965 0.20556
14941 1 0.0146436 0.658097 0.208369
14942 3 0.0190201 0.658065 0.216929
21238 1 0.03061 0.67925 0.217785
5717 2 0.00418694 0.678209 0.208033
19886 3 0.0259117 0.681396 0.208108
1134 1 0.0332014 0.654882 0.193562
1133 3 0.0354341 0.654834 0.201328
2726 3 0.0390855 0.673416 0.192304
1132 1 0.0382675 0.655447 0.208118
3691 1 0.0398697 0.656035 0.210989
3692 3 0.0447466 0.658185 0.217152
3299 3 0.0503073 0.67522 0.207426
2725 1 0.0435702 0.675248 0.197708
3300 1 0.0454203 0.675607 0.200476
19344 1 0.0548071 0.67758 0.216839
3298 1 0.0533042 0.676983 0.214312
12748 1 0.0898562 0.666939 0.192178
15322 1 0.0902654 0.666956 0.195233
1664 2 0.0687249 0.664068 0.196544
1665 1 0.0701843 0.664048 0.204719
16782 1 0.0706899 0.66409 0.207786
16781 2 0.0718312 0.662483 0.215331
15323 2 0.0921285 0.666247 0.202709
11104 1 0.0787274 0.680239 0.198587
13964 2 0.111904 0.655209 0.190598
13963 1 0.111717 0.656061 0.198271
18226 1 0.111823 0.655853 0.20088
18227 2 0.112964 0.655547 0.20912
18228 1 0.114528 0.654447 0.215962
18919 1 0.115231 0.654311 0.218837
4603 1 0.11083 0.67634 0.191302
15324 1 0.0924284 0.665974 0.210267
13881 1 0.0933025 0.666004 0.212969
13880 2 0.0961359 0.668589 0.219668
4604 2 0.11143 0.675563 0.19937
4605 1 0.113666 0.676533 0.207084
14173 1 0.113992 0.676553 0.210368
14174 2 0.115532 0.67605 0.217829
21329 2 0.140307 0.680729 0.204197
2690 2 0.134737 0.657538 0.214454
2691 1 0.134796 0.65869 0.206725
910 1 0.133962 0.658794 0.203553
911 2 0.131839 0.658122 0.195241
8139 1 0.152144 0.663904 0.192096
8328 1 0.152438 0.66376 0.1948
21328 1 0.137126 0.680399 0.19723
14923 1 0.136172 0.680367 0.194855
21330 1 0.141536 0.679441 0.21173
21195 1 0.142357 0.679643 0.214569
8327 2 0.154484 0.662443 0.203068
8326 1 0.154815 0.662715 0.211413
4594 1 0.154854 0.662501 0.213899
2000 2 0.16685 0.681505 0.192083
14669 2 0.187207 0.665221 0.205052
14670 1 0.185996 0.664929 0.213447
14668 1 0.188732 0.665992 0.196082
16671 1 0.189361 0.666553 0.193348
7848 1 0.185493 0.665019 0.216345
3849 1 0.0571577 0.554801 0.23265
3848 2 0.0588918 0.563138 0.235926
15983 2 0.051864 0.583644 0.242059
15984 1 0.0503135 0.584026 0.23427
15982 1 0.0530347 0.584046 0.250473
3847 1 0.0599206 0.570861 0.236543
3342 1 0.0770127 0.585902 0.223824
19901 2 0.0909022 0.574898 0.246746
19900 1 0.0916234 0.574068 0.239338
9919 1 0.0920412 0.573227 0.236443
579 1 0.0769486 0.586075 0.226996
578 2 0.0756375 0.586393 0.2349
577 1 0.0750092 0.587651 0.241976
20535 1 0.0750626 0.588346 0.244899
20534 2 0.0758376 0.588888 0.252198
9921 1 0.0930978 0.568734 0.221266
9920 2 0.0926114 0.570677 0.228574
14277 1 0.113472 0.573046 0.237518
14276 2 0.113417 0.571147 0.229528
13951 1 0.113042 0.573871 0.240502
13952 2 0.113165 0.576071 0.248381
1311 1 0.16935 0.587292 0.229755
12686 2 0.0567879 0.597609 0.224209
21271 1 0.0377385 0.603062 0.243546
21272 2 0.0369551 0.601491 0.252017
6165 1 0.0432911 0.612917 0.224007
20017 1 0.0446064 0.614599 0.226497
12685 1 0.0593842 0.600945 0.231595
17596 1 0.060382 0.602116 0.234804
20018 2 0.0473267 0.617726 0.23274
17597 2 0.0618155 0.605115 0.241308
17598 1 0.0626561 0.608013 0.249424
20438 2 0.0856939 0.606101 0.223995
20437 1 0.0843566 0.60592 0.231423
13912 1 0.08409 0.606304 0.234262
13913 2 0.0819048 0.607786 0.242187
13914 1 0.0825772 0.609219 0.250213
21073 1 0.0627855 0.608118 0.252326
16312 1 0.0827063 0.609789 0.2524
10786 1 0.118343 0.596875 0.223792
13293 1 0.11846 0.59723 0.226882
4279 1 0.0971987 0.590021 0.226134
4848 1 0.0954478 0.59304 0.244211
4846 1 0.0966787 0.59074 0.228627
4847 2 0.0965114 0.592086 0.236682
16754 2 0.106767 0.613293 0.222958
13291 1 0.117719 0.598264 0.243166
13292 2 0.118515 0.597688 0.234699
11560 1 0.11801 0.598295 0.246117
16755 1 0.106644 0.615105 0.229902
21037 1 0.106217 0.615141 0.233049
21038 2 0.104586 0.614861 0.240892
8307 1 0.0962374 0.593166 0.24742
21039 1 0.105267 0.616186 0.250054
4943 2 0.13756 0.601784 0.22528
2935 1 0.125657 0.619121 0.223504
5909 2 0.13815 0.600662 0.244473
5910 1 0.137604 0.600977 0.236649
4942 1 0.137711 0.601687 0.233989
5908 1 0.138384 0.601516 0.252516
2936 2 0.1259 0.618827 0.230938
2937 1 0.126702 0.618272 0.238735
21400 1 0.127263 0.618334 0.241449
21401 2 0.127975 0.618483 0.249955
2592 1 0.157312 0.605366 0.222785
3385 1 0.15736 0.605327 0.225974
3386 2 0.157479 0.605962 0.233392
3387 1 0.158164 0.605774 0.241705
14835 1 0.158482 0.605687 0.244815
1310 3 0.169862 0.588941 0.23739
1309 1 0.172629 0.591517 0.245908
9297 1 0.173169 0.592391 0.248616
6487 1 0.0226508 0.625148 0.235475
897 1 0.0222682 0.626187 0.232228
896 3 0.0213091 0.629263 0.225439
6489 1 0.0266984 0.62079 0.251106
6488 3 0.0248463 0.622929 0.243531
2921 2 0.0530577 0.633637 0.221703
20019 1 0.0481171 0.619907 0.240633
4638 1 0.0488517 0.620758 0.243839
2920 1 0.0538506 0.636497 0.229059
18439 1 0.0542711 0.637033 0.231958
18440 2 0.0555885 0.637593 0.239184
18441 1 0.0566061 0.639889 0.247594
8304 1 0.0572367 0.639727 0.250721
4637 2 0.0509299 0.621962 0.251463
1287 1 0.069909 0.620303 0.221916
9569 2 0.0727947 0.641221 0.221249
19255 1 0.0696254 0.62083 0.224847
6679 1 0.0902772 0.626705 0.223138
9570 1 0.0722246 0.642273 0.229556
19256 2 0.0689299 0.622686 0.231944
19257 1 0.069368 0.623987 0.239991
12834 1 0.069788 0.624337 0.243111
12833 2 0.0710957 0.625553 0.250958
17439 1 0.0729569 0.642374 0.233212
6680 2 0.0906261 0.627191 0.232177
17438 2 0.0747489 0.644583 0.241313
17437 1 0.0766596 0.646675 0.248441
11650 1 0.0776397 0.647266 0.251519
6681 1 0.091467 0.628799 0.240052
678 1 0.0918373 0.629951 0.243202
677 2 0.0921047 0.632013 0.250428
18152 2 0.096547 0.647501 0.223022
8385 1 0.109952 0.634409 0.221883
4609 1 0.109375 0.635217 0.224904
4610 2 0.108872 0.63644 0.234087
4611 1 0.111617 0.634321 0.2424
11089 1 0.111943 0.634389 0.245259
7002 1 0.0957829 0.650242 0.234004
18153 1 0.0960845 0.649553 0.230899
15341 2 0.146875 0.621762 0.221782
2260 1 0.145795 0.620702 0.24832
18790 1 0.145639 0.621053 0.251392
2262 1 0.146479 0.620284 0.231852
15342 1 0.146741 0.620796 0.228994
2261 2 0.145824 0.62044 0.239808
12632 2 0.130303 0.638784 0.222556
6019 1 0.131791 0.639129 0.233008
12631 1 0.131699 0.639061 0.23053
6020 2 0.132887 0.638663 0.240275
6021 1 0.133999 0.638663 0.248583
8605 1 0.152748 0.64154 0.222606
8606 2 0.153512 0.642594 0.230452
18676 1 0.133938 0.638541 0.252051
8607 1 0.155481 0.641148 0.239405
10657 1 0.155793 0.640729 0.242899
9953 2 0.166318 0.623334 0.244549
13717 1 0.167901 0.624865 0.233494
9952 1 0.167052 0.624403 0.23693
13718 2 0.167805 0.626244 0.225544
10658 2 0.155404 0.639759 0.249704
20292 1 0.178128 0.643382 0.223073
10422 1 0.178787 0.642561 0.226146
10421 2 0.179246 0.641664 0.234582
10420 1 0.179468 0.640994 0.24213
12865 1 0.179746 0.640802 0.245122
9954 1 0.16693 0.620794 0.252557
12866 2 0.179816 0.638933 0.252498
79 1 0.0145164 0.677055 0.23223
7272 1 0.0156405 0.677095 0.235261
14943 1 0.0238678 0.660069 0.223651
7271 2 0.0197464 0.677954 0.242664
80 3 0.0109623 0.676769 0.225464
12424 1 0.0258283 0.65982 0.226149
12425 3 0.0288321 0.659334 0.232768
7270 1 0.0229572 0.677279 0.250924
3044 2 0.0429774 0.678716 0.241642
3693 1 0.0477391 0.659475 0.223963
21239 3 0.0347786 0.678576 0.224151
3043 1 0.0392233 0.67784 0.234109
17994 1 0.0494019 0.659655 0.226877
12426 1 0.0332294 0.659424 0.23945
16255 1 0.0344865 0.659185 0.241751
16256 2 0.0382933 0.65866 0.248874
17993 2 0.053858 0.659578 0.234201
17992 1 0.0574837 0.660993 0.241064
1902 1 0.0584565 0.661539 0.243959
21240 1 0.0379809 0.677858 0.231231
1901 2 0.0607731 0.663273 0.250952
19343 3 0.0579281 0.678665 0.224425
12678 1 0.0459443 0.677783 0.251742
3045 1 0.0449589 0.678004 0.248619
16780 1 0.0752922 0.662438 0.222923
7555 1 0.0764656 0.662423 0.225386
7556 2 0.0793784 0.664262 0.232792
7557 1 0.0802934 0.666285 0.240151
20106 1 0.0813497 0.666969 0.242875
20105 2 0.0852604 0.668584 0.250275
19342 1 0.0617507 0.680363 0.230798
13969 1 0.0627531 0.681042 0.233552
7001 2 0.0961077 0.65127 0.242168
7000 1 0.0974486 0.651663 0.24946
18921 1 0.119082 0.656262 0.234727
5964 1 0.119084 0.656576 0.237107
18920 2 0.117478 0.655018 0.226601
5963 2 0.119762 0.656953 0.244518
13879 1 0.0991753 0.670835 0.227092
11094 1 0.100384 0.671637 0.229758
11093 2 0.104059 0.673181 0.236059
19624 1 0.106703 0.672106 0.247076
11092 1 0.106045 0.6724 0.243899
14175 1 0.120035 0.675656 0.224731
16909 1 0.121115 0.675863 0.227785
7192 1 0.098343 0.651747 0.252343
1253 2 0.143031 0.659391 0.250802
2689 1 0.134664 0.657244 0.221714
9720 1 0.134773 0.657125 0.224877
1254 1 0.140788 0.65994 0.243025
9718 1 0.140115 0.659644 0.240014
9719 2 0.136503 0.658484 0.232263
16910 2 0.124834 0.675783 0.235859
16911 1 0.127022 0.675449 0.243787
13362 1 0.1278 0.675387 0.246523
12852 1 0.150487 0.679536 0.249347
21194 2 0.143578 0.678376 0.222903
12851 2 0.147381 0.680277 0.241321
18744 1 0.151302 0.678644 0.252475
12850 1 0.145654 0.680019 0.233335
21193 1 0.145169 0.679404 0.230224
14781 1 0.168531 0.681458 0.236656
4595 2 0.1569 0.662329 0.221628
4596 1 0.15892 0.662791 0.22874
7713 1 0.162419 0.665112 0.246364
15475 1 0.163407 0.664607 0.249566
7711 1 0.15946 0.662971 0.231227
7712 2 0.160738 0.664036 0.238294
7847 2 0.1843 0.665401 0.224567
10011 1 0.183553 0.665186 0.236389
7846 1 0.18389 0.665179 0.232567
10010 2 0.184218 0.664504 0.24349
16555 1 0.169326 0.681739 0.239719
10009 1 0.186942 0.663677 0.252326
138 1 0.0535433 0.583812 0.253371
6050 2 0.0575556 0.587686 0.278735
137 2 0.0543219 0.582495 0.261232
136 1 0.0567289 0.584712 0.268926
6051 1 0.0573034 0.585583 0.271358
19902 1 0.0906114 0.574926 0.254456
17440 1 0.0900674 0.575267 0.258173
17441 2 0.0882282 0.575879 0.265708
17442 1 0.0866458 0.577135 0.274175
5896 1 0.0863181 0.576922 0.276765
13953 1 0.113417 0.577024 0.256174
15895 1 0.112529 0.579426 0.273514
15896 2 0.11315 0.579792 0.265922
15897 1 0.112917 0.577603 0.259101
14323 1 0.112514 0.579121 0.277002
307 1 0.130714 0.58218 0.253648
12245 2 0.136567 0.582079 0.280122
309 1 0.135543 0.58114 0.26863
12246 1 0.136116 0.580959 0.272243
308 2 0.134017 0.581345 0.26108
9918 1 0.0434429 0.603069 0.279556
21273 1 0.0365378 0.602371 0.259261
9666 1 0.037292 0.602298 0.262399
9665 2 0.0401264 0.602547 0.269977
9664 1 0.0428783 0.603248 0.276727
2186 2 0.085508 0.612411 0.278882
16375 1 0.0766999 0.594391 0.281126
10831 1 0.0757456 0.589622 0.262589
20533 1 0.0751761 0.589891 0.259778
10832 2 0.0763842 0.590959 0.270482
10833 1 0.0764862 0.593565 0.277807
21074 2 0.0624346 0.607163 0.259538
14645 2 0.0629521 0.609823 0.278548
14646 1 0.0638914 0.607323 0.270609
21075 1 0.0636252 0.607075 0.267667
16313 2 0.0836725 0.611042 0.259736
16314 1 0.0847511 0.611538 0.26771
2187 1 0.0850125 0.611547 0.271133
11445 1 0.120853 0.598573 0.281961
20309 2 0.107207 0.615942 0.280317
11561 2 0.118844 0.598051 0.254068
11214 1 0.10559 0.616041 0.253172
8305 1 0.0982716 0.592555 0.263763
7281 1 0.0986127 0.5931 0.267001
8306 2 0.0977587 0.593357 0.256027
7280 2 0.098286 0.594228 0.27417
11562 1 0.118864 0.598369 0.263114
11443 1 0.118967 0.598798 0.265687
20308 1 0.107294 0.614519 0.271143
11212 1 0.107121 0.615126 0.268033
11213 2 0.10626 0.615632 0.26116
11444 2 0.120083 0.598474 0.274518
7279 1 0.0991694 0.595624 0.282285
1425 1 0.138224 0.601335 0.254917
12410 2 0.139251 0.603041 0.283673
1424 2 0.137397 0.601544 0.263077
1423 1 0.137794 0.602797 0.271414
12409 1 0.137992 0.603026 0.274831
16069 1 0.127046 0.619049 0.277913
9579 1 0.126897 0.618648 0.275379
9578 2 0.126845 0.618082 0.267826
21402 1 0.127136 0.618123 0.257551
9577 1 0.126782 0.617802 0.260349
14834 2 0.158806 0.604906 0.252936
9296 2 0.174939 0.594683 0.256493
9142 1 0.158303 0.59441 0.279791
9295 1 0.176296 0.599305 0.262687
4647 1 0.176663 0.600286 0.26553
4968 1 0.157886 0.595589 0.277146
4966 1 0.160445 0.601752 0.26334
14833 1 0.160169 0.602846 0.260513
4967 2 0.158733 0.598995 0.270585
4645 1 0.18174 0.601394 0.280269
21264 1 0.182726 0.601445 0.282785
4646 2 0.179129 0.601758 0.272845
1440 1 0.0276555 0.620738 0.253881
1439 2 0.0299633 0.62101 0.261547
16960 1 0.0245259 0.640573 0.255732
16961 2 0.0288604 0.64214 0.262185
3840 1 0.0611801 0.647572 0.283933
5022 1 0.0329385 0.620325 0.272748
5021 2 0.0343677 0.620266 0.280704
1438 1 0.0323452 0.62068 0.269432
16126 1 0.0498799 0.62717 0.279755
4636 1 0.0510791 0.623261 0.25996
1054 1 0.0511964 0.623817 0.263139
1055 2 0.0504988 0.625396 0.270025
19525 1 0.0335219 0.641657 0.272401
16962 1 0.0324609 0.641633 0.269923
1056 1 0.0497599 0.62637 0.277214
8303 2 0.0578563 0.640539 0.259187
19526 2 0.0366555 0.642322 0.279849
8302 1 0.0571178 0.64252 0.266868
3838 1 0.057868 0.64318 0.269923
3839 2 0.0603745 0.645643 0.275997
12832 1 0.0714428 0.626956 0.259154
11651 2 0.0786021 0.648293 0.259338
19713 1 0.0718211 0.627357 0.261737
6778 1 0.0752253 0.632749 0.280221
19712 2 0.0731871 0.629055 0.27005
19711 1 0.0745064 0.632046 0.277192
13744 1 0.0797056 0.649418 0.270374
11652 1 0.0789913 0.648948 0.267073
13745 2 0.0807114 0.649879 0.277948
10663 1 0.112431 0.635942 0.279136
10581 1 0.112395 0.636155 0.282307
1959 1 0.0955213 0.635286 0.279682
676 1 0.0929835 0.633472 0.258019
3802 1 0.0930891 0.633442 0.261296
3803 2 0.09414 0.634931 0.269566
3804 1 0.0953097 0.635306 0.276236
11090 2 0.113868 0.634275 0.253814
11091 1 0.113786 0.634628 0.261212
10665 1 0.113745 0.63516 0.264033
10664 2 0.112887 0.636394 0.271465
11280 1 0.148491 0.62159 0.269248
18791 2 0.146792 0.622103 0.258013
11279 2 0.148364 0.621836 0.276749
18792 1 0.148083 0.621974 0.266115
18678 1 0.137088 0.639905 0.267926
8046 1 0.13772 0.640899 0.271009
18677 2 0.134981 0.639666 0.259219
8045 2 0.138793 0.641602 0.278694
12815 2 0.170658 0.621594 0.283264
12814 1 0.168359 0.62109 0.275964
21571 1 0.167574 0.621491 0.272757
5443 1 0.180935 0.64145 0.280972
21572 2 0.168112 0.620733 0.265347
21573 1 0.167132 0.620361 0.255628
10659 1 0.155843 0.640358 0.257689
17038 1 0.160616 0.64146 0.279043
18565 1 0.159893 0.641178 0.275988
18567 1 0.156512 0.640619 0.260269
18566 2 0.158883 0.64144 0.268163
12867 1 0.179401 0.639691 0.260911
5444 2 0.180262 0.642319 0.272519
5445 1 0.179834 0.640429 0.263928
17416 1 0.181374 0.640798 0.28433
7380 1 0.0206473 0.658973 0.280471
16144 1 0.0106999 0.675975 0.272361
14919 1 0.0240176 0.677668 0.253648
16145 3 0.0109108 0.677486 0.279913
20407 1 0.0160793 0.664942 0.262955
14917 1 0.0289387 0.679603 0.268744
14918 2 0.0268534 0.679067 0.260355
8319 1 0.0295037 0.679653 0.271454
20408 2 0.0168051 0.66185 0.270155
20409 1 0.0196374 0.659867 0.277338
12676 1 0.0502785 0.680151 0.26662
19743 1 0.0511157 0.680837 0.269135
8318 2 0.032501 0.680303 0.28025
16257 1 0.0410308 0.659183 0.256773
1936 1 0.0438221 0.660189 0.278681
20878 1 0.0419668 0.659651 0.25977
20879 2 0.0429498 0.660399 0.268189
20880 1 0.0437019 0.660182 0.275723
12677 2 0.0477373 0.678315 0.259623
19742 2 0.0524965 0.68155 0.277214
1900 1 0.0627295 0.664157 0.258669
10191 1 0.0636801 0.664731 0.26158
10190 2 0.0650462 0.66536 0.270084
10189 1 0.0673082 0.667015 0.276635
10185 1 0.0674035 0.66766 0.279914
20104 1 0.0866219 0.669081 0.258131
17043 1 0.0872135 0.669319 0.261617
17042 2 0.0881329 0.66953 0.270819
1743 1 0.0888619 0.670339 0.282794