ITEM: TIMESTEP
80000000
ITEM: NUMBER OF ATOMS
1893
ITEM: BOX BOUNDS pp pp pp
0.0000000000000000e+00 5.0000000000000000e+01
0.0000000000000000e+00 5.0000000000000000e+01
0.0000000000000000e+00 5.0000000000000000e+01
ITEM: ATOMS id type vx vy vz 
20840 2 2.78274 0.803013 -3.28594 
20839 1 1.23 -0.888444 3.26238 
20841 1 -2.23355 -1.58445 2.76786 
9722 3 -0.454654 -0.578581 -1.12581 
9723 1 5.31121 0.203794 -4.61928 
9721 1 2.02054 2.05688 2.5555 
17793 1 2.67308 2.97007 1.53897 
17791 1 2.39271 -11.1568 -0.646761 
17792 2 -5.20091 1.32216 0.108705 
21469 1 -5.52223 -4.53361 -0.190295 
21471 1 -3.17658 -0.568892 -1.54969 
21470 3 -1.69869 4.86541 -1.85488 
1562 2 2.23843 -0.790237 3.67527 
1563 1 2.81527 4.67342 -1.30918 
1561 1 -0.505293 -0.721108 -0.142217 
1201 1 -0.0153105 -1.4649 -1.80228 
1203 1 -5.47308 -5.37706 3.78624 
1202 3 0.529845 0.313956 -4.9964 
11686 1 0.562277 5.34299 -4.20275 
11687 3 -0.421054 1.14379 3.80443 
11688 1 1.33924 1.89307 -2.63119 
8309 2 -1.664 4.08006 -0.91548 
8308 1 -5.10364 -5.31965 -3.66234 
9519 1 -4.57213 1.45838 -5.01854 
9518 3 0.0334308 -0.173319 5.18418 
9517 1 5.22437 -2.01282 4.76598 
8767 1 0.0768843 -4.27367 -2.34223 
8310 1 -0.561096 -0.636148 1.14757 
628 1 -3.39851 0.30292 2.07322 
629 3 1.94834 2.02107 0.00919374 
3915 1 1.25097 0.942843 2.239 
3914 3 -3.24398 -3.56946 -6.3503 
19762 1 0.135933 2.84332 -0.874637 
19763 3 1.36656 3.7945 -3.09475 
19764 1 -2.22039 -1.08126 -0.863487 
11292 1 5.65841 1.95495 -1.71876 
11291 2 4.24327 0.691555 2.53312 
11290 1 -1.51518 -1.92457 -2.05062 
6112 1 2.65826 5.12601 -3.19542 
7725 1 -1.87668 -2.13062 -1.52958 
6113 2 2.67547 0.670405 4.52577 
6114 1 0.0111363 -7.64455 -5.85494 
7724 2 -2.95119 -0.754871 5.7994 
7723 1 2.4534 4.75798 1.69538 
8768 2 -0.420768 -0.460693 -2.57409 
8769 1 0.734466 0.320082 -1.64154 
384 1 4.29545 3.24138 -4.75432 
383 2 -0.299655 -4.08579 1.33346 
382 1 -3.93375 3.52738 -0.721315 
3913 1 0.0837806 -1.23461 4.55318 
6452 3 3.10717 2.07901 1.79926 
6453 1 -1.25665 2.79759 3.09447 
6451 1 3.07585 1.29755 -2.70064 
16947 1 -3.61326 -1.58562 5.16791 
16946 2 1.26926 9.35711 -0.273296 
16945 1 -1.76062 4.21421 -1.60675 
9765 1 7.16971 3.27145 0.907892 
9764 3 1.75891 2.03482 -1.36953 
9763 1 -6.46739 5.00314 -9.9822 
19651 1 -0.917106 6.01218 6.3926 
13056 1 2.10206 -0.226044 6.33213 
13055 3 -4.51424 -0.081328 0.130355 
13054 1 -4.33483 -1.84973 4.26436 
18770 2 3.29366 1.59983 -3.20934 
18771 1 2.39479 3.84706 -3.55831 
15139 1 1.93324 5.46879 6.57335 
18769 1 -0.0864638 -0.183652 -4.15613 
18233 2 0.668425 -1.49936 0.593246 
18232 1 -1.70673 0.670699 -2.18609 
18234 1 -0.171097 -1.47877 5.27494 
20972 2 -1.72023 0.764115 3.0077 
20971 1 10.0941 0.996885 -1.21573 
19652 3 -0.274925 2.79686 -2.51698 
19653 1 -4.94479 1.59721 4.56915 
15140 2 3.87791 -0.207738 0.774564 
15141 1 -0.546782 0.641506 -1.51616 
12735 1 -1.74386 3.05247 -1.47288 
12733 1 -1.79688 5.10335 1.40035 
12734 2 -3.77128 -0.75928 -1.17034 
11400 1 2.61057 1.41898 -4.34138 
15912 1 3.86076 -2.57953 1.12583 
20973 1 -3.95678 -3.61411 -2.74876 
15910 1 -1.50998 -0.435776 5.04429 
15911 3 2.35488 -0.675983 -2.59563 
14032 1 -12.1872 -3.90182 -2.95943 
18331 1 3.79312 -0.413867 3.06699 
18333 1 -2.73973 -0.508828 2.33869 
18332 2 2.30219 -0.774804 -1.20301 
4240 1 3.4379 -2.66645 1.08384 
4241 3 -0.303062 -0.409457 -4.70295 
4242 1 3.34008 0.766933 -0.0702913 
19068 1 1.67863 1.86166 -4.41589 
19066 1 -2.18785 -2.18057 -2.94219 
6017 3 0.81283 -3.41244 -3.70326 
6018 1 3.04153 0.959562 2.93126 
19067 3 2.27369 -2.72356 1.75721 
13998 1 3.22113 -0.502072 -0.0522919 
6016 1 -1.2264 0.626135 0.286539 
13997 2 0.82723 2.81723 -3.05674 
11398 1 1.98124 -3.40235 1.46005 
11399 2 -6.89437 1.22778 3.88392 
9979 1 -0.948519 1.5818 3.80052 
9981 1 1.38012 -0.234681 0.805652 
9980 2 -0.532322 0.414105 -2.72571 
20462 3 4.44344 -1.84624 -0.157345 
20463 1 -1.25893 0.0292644 2.30608 
20461 1 -5.04075 -5.91724 -1.14918 
9744 1 2.80132 1.37605 1.37654 
9743 3 -1.53925 -2.19995 -1.76103 
9742 1 -1.7076 -1.4578 4.55834 
14033 2 -3.90756 2.17078 -2.21323 
5240 3 -0.403988 2.04598 1.83047 
5239 1 -2.63008 1.09862 -5.95752 
14034 1 -1.38027 1.66017 5.95879 
5241 1 -2.28686 8.27597 -7.18334 
16282 1 0.403934 1.10206 -4.64891 
10696 1 4.75447 5.29387 0.480385 
10697 3 -0.820413 1.74605 0.663616 
10698 1 -0.997646 -0.718568 0.946066 
13996 1 -4.14268 -10.6137 1.90558 
18289 1 1.69105 -2.25194 3.97853 
18290 3 -2.0215 -2.10944 2.8375 
18291 1 -6.36388 -3.49929 -2.67083 
3878 3 3.33086 -1.70839 0.559973 
3877 1 3.56171 1.50359 -0.374913 
3879 1 -0.00642598 2.18751 -6.77392 
16284 1 -3.80253 -2.34026 -5.55039 
16283 3 -2.91909 1.22242 5.18696 
18572 3 -3.54117 0.500168 2.31388 
17325 1 -7.82694 5.48056 2.01373 
20723 2 0.297759 -3.18433 -1.26602 
20722 1 -7.93587 -2.14801 -1.24681 
20724 1 0.391554 -3.46742 1.551 
18571 1 -4.03509 -3.94471 -0.340005 
10165 1 -7.00803 -4.64045 8.4985 
10166 2 5.50195 -6.17673 0.590372 
6213 1 -0.239947 -5.58062 -3.60456 
8253 1 -3.07826 2.53697 3.33762 
8252 3 2.06031 -1.81423 0.844795 
4745 3 -1.63912 2.08262 1.27488 
4746 1 -3.96357 2.94619 -3.45037 
16161 1 0.305608 5.33695 -4.5175 
16160 3 -1.92145 3.53216 -2.24509 
16159 1 -0.763694 -0.438934 0.551051 
18573 1 1.83913 0.938685 0.594711 
10882 1 -5.84946 -5.63321 -2.28354 
10883 2 4.46 -0.940278 3.17926 
10884 1 -2.26932 -2.46596 -2.86584 
10167 1 -6.01719 -2.44268 5.99704 
16620 1 -0.976011 0.86266 -5.67183 
6211 1 0.74158 -0.752949 -0.49548 
6212 2 -2.42049 1.75388 -3.3101 
10270 1 5.88372 5.06562 5.81409 
19806 1 2.16437 -1.12594 2.39449 
19805 3 -2.77991 -2.71794 -1.85339 
19804 1 -2.06287 -3.52937 -0.180697 
10271 2 -1.31128 1.06175 -0.475832 
10272 1 -2.12682 3.63707 2.57046 
10252 1 1.8649 1.50704 -1.86139 
10254 1 2.90155 6.7273 -1.54924 
10253 3 2.47712 -0.263284 0.907492 
18914 3 0.633473 -2.32869 0.235386 
18913 1 0.975573 -1.53047 2.74821 
18915 1 -0.995453 6.52629 2.11303 
11756 2 -3.24285 0.367846 0.24647 
11755 1 -3.41108 3.99123 0.406346 
8174 2 0.219416 2.00368 3.02505 
8173 1 -4.05274 -5.80983 -4.99574 
11757 1 -2.23059 5.87691 1.46854 
16296 1 -1.83929 -3.18422 1.53413 
16295 2 -3.35814 1.14849 -3.88904 
16294 1 0.511225 -2.93478 -1.84982 
1463 2 2.66368 4.12495 -3.29448 
1464 1 0.761886 5.22435 0.184448 
1462 1 -5.36502 -6.18749 4.65537 
14002 1 0.286362 1.02517 -4.23485 
14003 2 -0.726658 -0.291279 4.09164 
14004 1 -0.318911 -4.03027 -1.71737 
2851 1 -5.26451 1.22131 3.75994 
2852 3 1.99403 -3.7491 -0.498626 
19420 1 -5.70319 2.62088 3.51408 
19421 2 -0.237557 -4.66558 -2.6856 
19422 1 0.064198 2.37536 -1.64125 
6990 1 -4.74228 0.730564 0.107553 
6403 1 1.53569 -4.17021 3.80433 
9141 1 -3.47962 2.85821 -4.49689 
6405 1 -0.763801 2.04517 1.86613 
6404 2 1.72704 -3.30743 2.58433 
9140 2 2.61867 -0.0585431 -1.94307 
9139 1 -1.28845 3.04695 -2.9884 
16619 2 -6.24937 -3.86178 -3.62316 
20940 1 -4.1087 -2.64507 3.08224 
17026 1 0.919019 3.07951 1.03947 
17027 3 -2.75827 -1.22761 3.56533 
17028 1 -6.76263 -5.45385 -2.31432 
16618 1 2.99807 -5.37379 -0.0987961 
8642 2 -0.921619 2.36109 -1.77059 
8641 1 -3.07839 -1.70581 6.7379 
13842 1 3.28436 5.21814 -1.92466 
8643 1 -3.80402 0.0181329 4.8672 
9027 1 3.66221 -4.69458 1.6863 
9026 2 1.69744 -4.75715 4.33073 
9025 1 -1.00208 -0.0994219 5.33242 
15330 1 0.779323 2.40909 -5.60554 
15329 3 -0.851255 -2.31127 1.58248 
15328 1 -3.4606 5.63187 7.7339 
5526 1 -1.88336 4.80878 -0.390908 
5525 3 -1.21125 0.171926 -6.09374 
5524 1 4.30595 -3.30753 8.67553 
13682 3 -3.12646 7.34937 -4.20061 
13681 1 -1.27825 0.0160984 9.64458 
13683 1 -0.850048 0.367034 1.97518 
8175 1 -4.79666 -0.163491 -1.26456 
21218 3 -8.49668 1.8005 -3.61888 
21217 1 -3.39416 -7.42013 3.90899 
21219 1 -0.314306 3.63109 -0.924399 
18110 3 0.208525 -1.10261 0.126083 
18109 1 -1.31748 -3.61157 -1.06967 
653 2 -4.07717 -0.707115 -2.18007 
652 1 -2.82664 1.13825 3.93593 
654 1 -0.973897 -3.54594 -2.77031 
2853 1 -3.31761 0.680841 2.76778 
15669 1 -3.09322 -2.50195 -1.59345 
15668 3 2.06637 1.24134 -0.372851 
15667 1 -3.64652 3.35819 -5.28675 
15068 2 -0.181796 -3.68681 1.70718 
15069 1 -3.93986 6.41004 4.83635 
15067 1 4.92506 0.906989 4.39357 
14251 1 3.80032 4.84096 -5.82206 
6989 2 -1.07912 -0.42835 2.6466 
6988 1 0.944778 -2.00027 -0.115898 
20938 1 -0.996713 -5.11809 -8.80403 
20939 2 -1.75168 1.88252 -0.0864724 
18347 2 3.92807 0.0497443 1.3145 
18346 1 1.12796 0.0973968 1.85602 
18348 1 2.4755 -0.984445 0.380981 
14405 3 0.16632 -0.209281 0.0802466 
14404 1 0.927422 -2.39056 -3.59035 
14406 1 0.87823 -3.26721 1.84053 
1838 2 -4.19045 0.323113 1.14578 
1837 1 -0.721948 4.05081 -0.522839 
2474 2 -0.461846 3.83182 -1.69659 
2473 1 -0.794405 -7.25646 1.49402 
12597 1 -0.310402 3.11174 -0.151655 
2475 1 0.571877 1.97085 -2.04434 
12596 2 -3.62117 -2.99081 -0.45792 
9792 1 2.83395 -0.549177 -4.08323 
14253 1 -4.64632 -3.12632 -5.17216 
9791 3 -2.03912 4.07813 0.353096 
14252 3 -0.694531 3.52192 2.13964 
17625 1 -2.5276 3.51014 -0.86767 
5366 3 -2.49127 -5.59198 -1.01231 
5365 1 -5.94775 2.52215 0.737865 
16702 1 1.50355 7.79815 -0.117194 
16704 1 6.57509 1.8352 -4.03744 
16703 3 -1.68379 -0.300306 1.39367 
19996 1 0.177325 -4.13626 0.0970587 
19998 1 1.81027 3.21204 1.68395 
19997 2 2.65425 -1.49496 -0.192964 
13988 3 -2.14233 3.24895 3.18606 
13987 1 -0.229205 -4.97549 5.6262 
3173 3 -7.34102 -2.5436 -0.387685 
3174 1 2.90768 0.0736525 1.73494 
3172 1 1.08123 2.55382 -2.82409 
12595 1 0.420061 2.97127 -2.11723 
9790 1 5.19803 -4.58806 6.50682 
19437 1 -6.16136 -1.04546 -2.90396 
19436 3 -3.01637 4.07762 -2.06916 
19435 1 4.98249 4.20618 -1.93646 
17623 1 2.611 1.43697 4.2813 
17624 2 -1.86607 2.95201 0.199529 
11938 1 -1.7907 2.46354 2.41092 
11939 3 -4.27479 -0.318664 1.88157 
11940 1 -0.50037 6.58022 2.6085 
5367 1 3.5113 -3.18831 -0.785097 
11377 1 4.06513 0.0532025 -3.68387 
11378 3 5.19047 -1.96198 3.82563 
11379 1 1.95007 6.24652 -4.36131 
20077 1 -2.49511 0.196647 -8.43742 
20078 3 2.7096 -0.848322 0.953444 
20079 1 -0.176687 1.57839 3.05552 
10374 1 -4.35665 -0.442719 -3.12711 
10373 2 -4.51959 -3.133 2.35061 
10372 1 -1.42814 1.94897 -5.65721 
18122 3 2.53897 2.82005 -0.437565 
18123 1 0.717275 5.83338 -5.62137 
18121 1 -7.21664 2.47388 4.74786 
2322 1 -1.15744 4.82444 -0.769521 
2321 3 -0.244129 -0.143495 4.67839 
2320 1 5.37827 2.70179 4.15978 
12079 1 2.63732 -5.74349 -3.32632 
8170 1 -1.65736 -3.16899 -1.9266 
12080 2 0.655561 -0.889787 1.85899 
8171 2 0.0455913 1.51113 -2.40077 
8172 1 -0.608141 -1.87385 1.1533 
18781 1 -2.24636 1.75197 2.21077 
1735 1 1.26918 1.96405 5.94195 
1736 3 0.98876 1.02559 1.99284 
12984 1 -0.511766 -3.40757 -4.18314 
12257 2 4.9698 0.599259 -1.5602 
12258 1 0.263683 -2.79931 -0.497227 
12983 3 -4.22617 -0.314383 0.549852 
12256 1 1.31931 -0.766379 -2.37179 
12982 1 0.975436 -2.6551 3.34591 
691 1 2.62784 4.86997 1.79421 
692 3 1.32479 4.8598 -2.0087 
693 1 5.90095 -0.658582 5.16228 
4661 2 0.0884456 -2.29133 -1.52375 
4660 1 -1.09371 -3.51178 2.90525 
4662 1 -0.0280429 4.5758 -6.70673 
1108 1 -2.36084 -0.934647 1.3592 
1110 1 -4.77666 -1.18258 -1.60063 
1109 2 -0.0292823 -0.408665 0.498411 
12081 1 1.6839 -8.63729 2.06109 
8470 1 -1.57486 -2.024 -0.0656183 
2821 1 2.76927 -3.41593 -1.31611 
8472 1 1.75717 0.528254 -5.20874 
8471 3 -0.549798 1.15224 -1.21001 
18782 2 -4.55962 0.416309 -4.02036 
18783 1 1.86014 -1.79438 -1.27568 
1737 1 2.35016 -7.62974 -6.18135 
2995 1 -4.15882 4.53763 -5.90377 
2997 1 -0.745121 0.603535 1.65306 
2996 2 1.13524 2.93732 -1.01258 
11877 1 0.860878 0.876828 -0.357126 
11876 3 -4.96761 3.4121 -0.0570326 
11875 1 0.393664 2.99892 1.62403 
13279 1 0.0132932 0.839183 -2.92143 
13280 2 2.8401 3.2347 2.64675 
12238 1 -4.1219 0.752674 2.84112 
13281 1 2.81632 4.03061 -2.97253 
12240 1 1.18548 -3.76333 2.30686 
12239 3 3.42026 0.919867 0.8704 
13066 1 1.00165 -0.836888 -0.823098 
6745 1 -4.88487 3.65024 2.09692 
6747 1 -4.36331 -5.08061 0.0895693 
6746 2 -2.05419 0.750403 -0.634025 
13067 3 0.658458 -2.5325 2.14569 
13068 1 -2.99904 -4.02442 0.394531 
7656 1 0.215593 1.42179 2.04184 
15933 1 2.78246 0.122215 -0.378142 
15932 2 -0.992022 -3.23375 4.05951 
15931 1 2.24672 -5.44583 0.126399 
20121 1 -1.58977 2.41416 4.57567 
20120 3 1.7768 -2.12057 -1.5965 
20119 1 5.91156 -1.21535 -0.672153 
2822 3 1.62091 3.75975 -1.64428 
2823 1 1.48008 2.73767 1.68778 
5362 1 -2.28242 -1.72525 -0.840746 
5363 2 -1.69779 2.28791 3.06113 
5364 1 -2.53521 -1.05815 -3.31 
9048 1 -2.89469 5.87334 -4.97662 
9047 3 -1.28839 -1.77987 0.808836 
9046 1 -0.40368 -7.64405 -0.17304 
20420 3 2.57787 -0.11157 0.666589 
20421 1 -4.4076 0.815735 1.93772 
17355 1 3.79863 8.16124 0.201142 
17354 3 -1.49294 -2.72922 2.00119 
4877 2 -1.87003 -1.83582 0.698623 
4878 1 -7.48251 1.46457 -1.8863 
4876 1 -2.86888 -4.26079 -2.35281 
14134 1 -0.388335 3.99425 0.787814 
14135 2 0.904895 -1.76365 0.879465 
14136 1 -2.10586 -1.18777 -0.203823 
7655 2 3.67204 1.63034 5.83208 
7654 1 -3.55997 -2.6719 -7.74963 
20196 1 -2.37768 1.75008 -2.01319 
7005 1 2.62941 -4.21827 -1.11915 
7004 2 -1.27271 -3.18453 2.05079 
7003 1 7.20308 -0.949 -2.00793 
4352 3 1.75139 -1.32147 0.730045 
4353 1 -3.71598 4.93758 -1.37185 
4351 1 0.228153 -0.143451 4.45025 
9327 1 -0.933893 0.0703636 -0.483336 
16501 1 4.47459 0.602433 9.02035 
9325 1 -1.64054 -2.89621 2.41279 
9326 2 0.00106801 0.166186 -1.73441 
16502 3 -0.719293 0.202815 3.29819 
16503 1 1.96976 2.28276 2.1043 
3409 1 2.54822 -0.87575 0.0229125 
20419 1 -0.617232 0.0804548 2.02389 
17353 1 -0.959091 2.56286 2.05278 
13671 1 -2.88526 -5.41417 2.3928 
14316 1 -5.09689 -2.35043 5.62485 
14314 1 2.63986 -6.10084 -1.69532 
14315 2 0.855219 -2.1667 2.03915 
20195 2 3.58914 2.85459 -0.333342 
20194 1 3.1493 0.324002 1.66247 
12529 1 2.28636 -6.56201 0.101145 
12530 3 0.531272 -0.359641 -1.17484 
4954 1 5.09135 -3.46999 -1.89781 
4955 3 -0.984368 2.5315 -1.46537 
4956 1 -1.87801 7.04351 6.1062 
5376 1 3.63736 7.01043 2.26482 
15448 1 -1.30133 -6.43613 -5.28086 
16385 3 3.54855 0.00814414 0.536774 
16384 1 2.81494 -2.37714 4.81258 
16386 1 4.23121 1.453 3.02853 
409 1 1.26594 -2.51767 0.714966 
410 2 -0.548701 1.71209 -0.433636 
411 1 0.533203 1.50378 1.47938 
19943 2 -1.5818 1.43243 2.86501 
19944 1 -0.991438 1.06441 1.49718 
19942 1 1.83644 8.00794 -2.5967 
15450 1 -2.88437 -0.567781 2.45315 
15449 3 -1.52681 3.16215 0.520523 
5183 3 -0.780395 -1.48646 -1.1064 
9093 1 4.46417 -3.14228 -5.49557 
5182 1 2.59016 2.03681 -4.31355 
19261 1 -3.5623 -1.42033 1.65783 
19263 1 -9.84755 0.803906 2.90279 
19262 3 3.23192 -4.44651 0.469605 
9092 2 -0.271314 -1.7607 -2.82456 
9091 1 -6.76537 -3.41251 -4.15154 
13541 2 -0.253824 0.626109 -1.10726 
13540 1 5.14939 -2.04545 -3.66157 
13542 1 6.54968 -0.941695 2.73301 
10015 1 2.95357 1.00534 -0.780369 
10016 3 2.25759 2.56917 0.395959 
15736 1 -3.943 2.95922 0.950413 
15738 1 -5.95456 -1.9004 0.785499 
15737 3 -0.619107 -4.81994 -1.61083 
5184 1 -3.75665 -1.05226 -1.68211 
1081 1 -1.58634 -2.15594 3.76056 
1083 1 -5.12629 -0.638482 -5.55567 
1082 3 -0.950753 3.8103 -0.431319 
10017 1 -7.76662 1.06115 1.01386 
12097 1 -1.83429 -0.439939 0.0750768 
12098 2 0.529499 1.62891 1.71423 
12099 1 3.02612 -4.76952 -0.715534 
1945 1 -3.23251 6.3717 -4.0338 
1946 3 -3.95077 -6.11893 2.09194 
1947 1 2.64806 -3.74393 9.12633 
10889 3 -2.24558 0.00041867 -1.22098 
10890 1 -2.40966 5.81422 1.21141 
10888 1 -1.16789 -4.3166 -0.0298517 
19308 1 6.31905 0.0857318 -2.36898 
19307 3 -2.21961 1.20596 2.57063 
19306 1 5.30555 7.44033 -2.33554 
17452 1 -6.08723 -2.71112 1.48105 
17453 2 -0.357426 -2.89322 -1.50518 
17454 1 -4.85338 -0.868449 7.9276 
288 1 -1.2793 1.33593 -0.807949 
287 3 -1.713 -1.74676 -1.33819 
10953 1 -2.95322 3.87137 -3.94684 
11901 1 1.08098 4.01149 -1.75799 
11900 2 -1.52707 -2.84678 1.05633 
11899 1 -4.31886 1.22364 0.76932 
10952 2 -2.01311 -0.767619 -3.40357 
2332 1 -4.35447 -7.13147 0.996843 
2333 2 -0.531491 -9.38289 -0.391653 
2334 1 -1.76417 -1.72473 1.04027 
6787 1 4.45908 4.05191 -1.51362 
14758 1 -0.709368 0.44411 2.43777 
14759 2 -3.0761 0.234589 3.56063 
6789 1 -0.801403 1.21215 -0.692798 
6788 2 1.36319 -1.571 -0.226495 
14760 1 -0.685463 -3.33807 -1.20486 
14063 2 -0.157797 -0.176745 -2.40595 
14064 1 2.23279 -8.87705 1.33504 
286 1 -9.00445 -4.30576 1.32279 
6687 1 -2.82305 -5.12205 -1.11435 
6686 2 2.00605 0.504523 0.0232562 
6685 1 5.08845 -0.948638 2.39549 
16092 1 4.08639 4.30827 2.1509 
10951 1 1.18925 -0.300607 -4.96929 
13435 1 4.34999 -2.11644 1.2257 
13436 3 3.69106 -5.22154 0.309078 
12265 1 2.28908 -1.62496 -1.22161 
13602 1 -3.74381 -0.00432091 -5.94667 
12267 1 0.474256 -2.9731 4.1398 
12266 2 1.82313 -1.36947 0.180491 
16091 3 -3.4016 1.19737 -1.93329 
16090 1 -3.02043 -7.47307 -1.35843 
13437 1 6.06038 0.934613 3.37983 
13601 3 2.65487 3.20348 -0.10778 
13600 1 -7.07226 2.64896 0.488981 
20811 1 -1.42088 -3.71076 -0.976815 
20810 2 -2.15796 -0.223466 2.67243 
20809 1 -1.23877 -2.67471 0.246374 
19571 2 1.92842 -0.76662 -2.25832 
19572 1 -3.47481 -3.07117 4.54169 
6927 1 0.28333 -1.88096 -0.966108 
6925 1 -3.74795 3.81764 2.32931 
6926 3 4.34051 0.322093 -5.3003 
19570 1 -2.54107 3.4144 -2.46541 
8610 1 0.282063 0.765434 0.535178 
8608 1 4.96371 4.20003 -1.11731 
8609 2 2.12327 0.994889 1.66282 
7873 1 -1.65683 -6.36953 2.04044 
7874 2 -1.19806 -0.698465 -0.670168 
7875 1 -2.24214 -5.37144 3.23956 
8251 1 8.4629 -3.0026 -4.84166 
12825 1 0.355888 -4.26943 2.101 
12824 3 -1.84348 -0.619548 -3.31562 
12823 1 0.165751 1.06596 7.77391 
7976 2 0.878354 -4.62478 -2.04524 
7975 1 -2.22273 -2.82568 8.15419 
19726 1 -0.956532 -3.75928 2.79068 
19727 2 1.24982 -0.2229 1.71486 
19728 1 6.93022 -4.1492 -2.45013 
7977 1 0.733621 -1.74214 0.823126 
17733 1 -0.264425 -1.96041 -0.484671 
14933 2 1.79215 -1.23693 -0.856016 
14934 1 0.798292 -4.45848 -3.55361 
14932 1 -1.71528 -5.60889 -4.54228 
4300 1 -4.73891 1.79865 2.18179 
17715 1 4.76732 -2.6297 4.26866 
4302 1 -4.1619 0.703767 -0.502745 
4301 2 -2.17589 1.85715 -0.865282 
13841 3 5.19124 -0.452159 -1.69323 
13840 1 -2.88883 -0.379441 -2.54092 
4651 1 -3.96297 -2.83969 7.71447 
17731 1 0.118839 2.28361 1.34202 
4653 1 3.16287 -0.188651 0.0612596 
4652 3 0.719408 1.51217 1.64024 
17732 2 0.0487904 3.6605 -0.723687 
14024 3 -2.33984 0.577232 0.118349 
14023 1 -0.000225498 -4.59118 0.27473 
14025 1 3.92867 12.1335 2.60486 
21018 1 7.29801 -3.17072 -0.667528 
21017 3 2.83863 1.26161 -0.498837 
21016 1 -1.66974 -2.94213 6.02549 
13672 1 -12.3797 0.12305 -4.93006 
13673 2 2.82923 -3.23056 -2.12013 
20705 3 -1.21473 -0.35361 -2.10983 
10753 1 -3.13309 4.72977 -1.65108 
3200 3 1.09102 3.2818 1.67725 
3199 1 0.920956 -9.6112 -0.477965 
3201 1 -3.80905 6.76864 -2.6332 
17713 1 1.35575 -3.14214 -7.41739 
17714 3 -0.926409 3.25288 -3.74247 
3799 1 -9.26679 -4.77885 0.31646 
3800 3 -0.392716 -1.62081 -1.27968 
13989 1 0.982809 2.1231 -5.02441 
17481 1 -1.23163 -2.03791 0.827289 
17480 2 3.2322 -1.73136 1.58891 
17479 1 -0.752884 0.765291 7.74082 
11616 1 2.63393 -1.30832 -6.32166 
11615 3 0.858785 -0.880641 -1.12375 
12019 1 -2.45431 -1.9318 -3.45894 
12020 2 1.84737 -0.589471 0.708565 
12021 1 2.47992 4.05659 -2.36301 
7767 1 0.472431 -5.70946 -2.54229 
13674 1 0.586467 -1.25661 0.547541 
5377 1 -0.449967 8.19907 1.50967 
20706 1 -6.06896 0.0502448 -2.09935 
5379 1 -0.875238 -1.74609 -0.785515 
5378 2 2.61021 2.12574 1.01717 
10754 2 -2.21823 0.0213191 -1.61417 
7720 1 -1.42466 -0.2533 0.503091 
7721 3 -0.525009 1.15514 2.20143 
20689 1 -1.09059 -0.242987 0.0882378 
20690 3 1.91767 -4.3297 -2.14067 
5126 3 -4.19028 -3.09463 -2.66338 
10723 1 3.03048 -0.948381 -3.58486 
10755 1 1.92787 5.04285 -2.17919 
5127 1 -4.16592 -3.93656 -0.363182 
10724 3 -1.50376 1.18388 -2.62346 
10725 1 2.65828 2.75867 1.32585 
3801 1 -2.10673 -0.524805 3.08086 
1969 1 -0.275211 -2.08273 -2.10164 
1971 1 -2.5687 1.95009 2.427 
1970 3 -2.19967 -0.945912 1.28806 
5515 1 -5.58756 0.898867 0.0452988 
5516 2 -0.880132 0.385864 -2.69453 
5517 1 4.64428 -6.20776 3.33898 
11614 1 -1.17157 0.377725 5.73619 
7765 1 0.879615 0.0919232 -2.98617 
7766 3 -1.6691 2.77638 -2.41899 
20873 3 0.900983 2.94271 0.895086 
20872 1 1.58441 -4.35619 1.79655 
16448 2 -5.30903 1.23928 0.0151655 
16449 1 2.43636 2.29161 -5.35014 
16447 1 -2.38883 -1.24256 3.38005 
7722 1 3.22717 -0.46629 0.513613 
20691 1 -5.35043 -0.712006 3.40667 
5125 1 -1.23705 0.38055 3.40256 
4952 3 0.00250378 0.580129 2.49546 
4951 1 1.10232 4.52314 -2.45913 
3063 1 3.00037 5.0258 1.74934 
4953 1 7.79119 2.39419 -2.12724 
15211 1 -0.461419 -4.88066 5.98215 
15212 2 1.2774 -1.11923 -0.613199 
15213 1 1.71093 -4.69622 0.36936 
2033 2 -1.61294 1.81734 0.839812 
2034 1 1.79493 4.75404 -2.07577 
2032 1 1.08815 0.897247 2.89437 
1995 1 -2.05215 1.70064 -2.56418 
3062 3 0.417545 2.05787 -4.59317 
3061 1 1.98125 -3.20346 -0.727462 
1993 1 2.67414 1.96716 4.1953 
1994 3 -1.87389 -2.77539 1.77915 
19514 2 0.907501 -2.91569 6.2916 
19515 1 -5.85054 -0.529451 -1.9995 
19513 1 5.50399 0.115508 -1.89395 
1384 1 4.34503 -3.27223 7.08789 
19872 1 0.932219 1.92274 7.56076 
19871 3 1.04066 -0.019879 1.14725 
17556 1 -1.197 1.82706 3.27487 
19870 1 -4.39268 0.42986 1.87467 
2850 1 1.36275 -4.16 -1.88813 
2848 1 2.47164 9.86749 1.26709 
2849 3 -2.18656 3.3578 -2.95821 
1761 1 0.433186 0.516459 -3.00382 
1386 1 -5.88881 1.51071 -3.69984 
1385 3 0.745894 -1.9909 -1.815 
4696 1 -2.74703 0.489169 -4.82831 
4697 3 3.1402 0.337519 -0.4801 
17554 1 -0.696505 1.77388 -3.49016 
17555 2 5.07052 2.11994 0.954714 
39 1 -0.0398331 -1.22356 -0.0279968 
38 2 2.05036 -1.62522 0.568953 
37 1 1.03223 1.64195 7.06688 
4698 1 -0.296312 -2.92438 0.560878 
1760 3 -1.26838 1.25025 1.80619 
1759 1 1.09516 -2.38026 7.98098 
12499 1 0.82668 -4.81189 1.84453 
12500 2 -4.15081 -3.14542 1.50057 
10929 1 2.22495 -3.00582 5.01896 
3410 2 -4.6668 -0.0521796 2.91844 
3411 1 4.832 1.17436 0.402446 
6292 1 -8.57555 -0.239635 0.136473 
8395 1 -2.14826 -0.024238 -2.07747 
8397 1 2.93673 1.02372 3.15702 
8396 2 0.855677 -4.434 -1.50353 
6293 2 0.0224649 1.79391 -0.314693 
6294 1 -0.321315 -0.0724994 -5.8883 
7079 2 2.37201 -4.33902 -5.43073 
7078 1 -0.591185 4.49443 -2.09379 
2774 3 -1.67203 1.19318 1.59764 
2773 1 2.82651 -2.24274 -4.24851 
9217 1 7.75406 3.86686 3.27504 
9218 2 1.61142 0.170482 1.78224 
9219 1 -2.78338 0.866704 -5.02987 
2775 1 -0.209938 -7.52704 0.464212 
19823 2 -0.199925 -4.01264 4.80356 
19822 1 0.780276 5.33033 -0.789094 
7080 1 0.447199 3.98635 5.58781 
13670 2 -0.907623 2.50175 0.38558 
13669 1 1.07148 -2.5691 7.78092 
20481 1 1.85191 3.70921 -5.5404 
20480 2 3.04406 -0.594549 -1.16649 
20479 1 -3.12282 -3.72162 -0.433529 
11547 1 -0.0879409 -0.216991 3.85939 
11545 1 -3.78825 3.88485 7.93959 
11546 3 -2.3388 1.79142 2.74604 
4960 1 1.56862 3.08485 -3.21461 
4962 1 4.56222 1.60636 4.07329 
4961 2 2.71944 6.28687 -1.06235 
12531 1 -1.96344 -2.55219 -1.20542 
6032 2 1.07256 1.39555 -4.36401 
6031 1 7.25883 -3.24793 5.06491 
6033 1 6.14255 -0.782065 0.129797 
10666 1 0.81932 -8.48457 1.6539 
17507 3 -0.418848 -4.96825 -3.93663 
17506 1 1.80036 3.52693 1.9638 
17508 1 2.37423 5.13036 0.684758 
14921 3 -0.389365 0.49704 3.76011 
11800 1 -1.43785 6.29375 -0.647256 
11801 3 -2.59091 0.223078 -2.72858 
11802 1 3.73873 1.5977 -1.66887 
14920 1 -2.81537 1.75178 -2.7343 
15699 1 -0.887833 9.20775 5.31662 
15698 3 0.666028 -3.06971 1.626 
15697 1 -5.07408 0.767408 0.705488 
10668 1 3.04493 -2.9414 2.69843 
10667 2 -0.104622 0.188229 -0.209523 
16888 1 -2.94252 -2.53964 5.24816 
16889 3 -2.3165 1.43199 -1.91307 
16890 1 -5.80275 -13.3241 0.245305 
18462 1 1.40262 2.61769 -2.02538 
16165 1 -1.94447 3.50295 -0.205064 
18461 3 0.489108 -1.32232 -2.72035 
18460 1 3.58642 3.43866 -0.486458 
16166 2 1.63995 2.05953 -2.11579 
16167 1 -4.97389 3.1495 0.81177 
14922 1 -0.175048 1.70634 -5.02457 
14965 1 0.0316001 0.568833 0.886189 
14966 2 -0.391489 -2.12447 -2.44188 
19809 1 3.79374 6.49849 3.76638 
14967 1 -4.67011 1.63292 1.57603 
19807 1 1.94726 -0.142377 -0.935617 
19808 3 0.537342 -5.04453 -0.674297 
5943 1 0.0889341 2.58956 5.76287 
16845 1 -2.51111 6.08831 0.0942781 
16843 1 -1.72246 -1.22302 0.223838 
16844 2 -2.80576 3.54904 -0.1548 
5941 1 -1.27551 -5.14784 0.730951 
5942 3 -1.22501 0.526178 -2.63958 
18313 1 -5.73592 -2.62592 -4.39868 
18315 1 1.69886 -2.31586 -4.35659 
18314 2 0.693669 -0.0833313 1.52151 
4105 1 9.92344 2.26654 0.718682 
8840 3 -1.14837 -0.752732 -3.04174 
8839 1 3.89943 1.5487 -1.96642 
8841 1 1.81849 -2.17607 -4.28632 
4107 1 3.33249 2.90203 3.65308 
4106 3 1.58766 0.961868 -1.37468 
15821 2 2.58267 -1.79165 2.98954 
15822 1 2.3403 -3.17011 -2.40046 
3241 1 3.48166 1.71607 -3.51 
7021 1 -3.064 0.134918 -3.17133 
3242 2 -0.793853 1.15542 -0.219956 
3243 1 -1.33239 2.16485 4.14629 
11262 1 -4.3081 2.49453 4.47666 
15820 1 -2.30748 -0.134996 0.0569832 
8595 1 -1.59479 -2.42596 -7.40913 
8593 1 9.70437 4.7222 0.872545 
8594 2 3.9342 0.0355883 0.319336 
7023 1 4.85837 -0.681038 3.08566 
7022 2 0.786361 5.8102 -0.891171 
6392 3 -4.97492 1.15644 -1.09151 
6391 1 -2.23839 4.6652 2.01585 
6393 1 -0.968568 3.70172 3.49811 
2228 2 -0.804324 -2.47895 2.02377 
2227 1 1.98234 3.25367 0.332035 
2229 1 2.01479 4.9527 5.57601 
9303 1 -4.66657 -7.02111 1.10348 
11142 1 0.298392 1.5922 -1.2222 
15186 1 -0.58233 -1.1571 -3.15745 
11140 1 0.670147 3.14403 1.33281 
11141 2 0.724211 1.11827 -1.33874 
7318 1 -0.574829 3.42376 -0.109963 
7320 1 -4.67298 -7.7075 -2.90555 
7319 3 0.704837 5.01628 -0.0184033 
7413 1 5.1815 -0.640049 -3.68358 
10706 2 0.962374 4.77892 0.741734 
10707 1 0.0791704 2.19884 1.71791 
10705 1 -3.07801 -4.09322 0.973296 
11284 1 -0.422 3.43111 2.13434 
11286 1 0.9649 0.131223 -2.784 
11285 3 -1.6914 -1.29511 0.625557 
9036 1 -2.90841 5.99258 6.66519 
9035 3 -1.26142 6.33705 -2.71811 
9034 1 4.0757 3.05455 -1.41783 
9302 3 2.52689 -5.63321 -0.661713 
9301 1 2.05489 -1.12492 3.17637 
15185 2 -0.267594 -3.77203 -1.68708 
15184 1 0.897001 4.08054 7.7427 
17421 1 0.598908 -1.80138 -4.49495 
9814 1 -4.69185 -6.86164 -0.670305 
9815 3 1.98801 1.02634 0.948107 
9816 1 2.93264 -5.80384 -5.41178 
4252 1 -7.09614 4.26654 -1.19985 
7668 1 -0.831231 2.98971 5.02476 
7412 2 -3.42874 4.44178 -1.28324 
7667 2 -0.298483 -0.937352 -1.48261 
7666 1 2.80213 -3.49585 3.70955 
7411 1 -2.35215 -7.07322 -0.0901517 
14665 1 1.64658 5.75307 1.64782 
14667 1 2.7934 5.36832 0.0906123 
14666 3 0.867993 2.50512 -0.220375 
17419 1 4.63701 0.60395 3.31363 
17420 2 1.06177 -3.90425 0.522464 
5958 1 -5.15793 -0.312319 5.88163 
4253 2 2.01141 -2.16145 -3.69832 
4254 1 -4.20147 7.15913 -0.37629 
7532 3 2.73464 0.0760462 1.53233 
7531 1 -5.12956 -1.43087 0.819618 
7533 1 -1.11011 -1.79887 -2.45714 
14611 1 -6.36962 -4.41326 0.126599 
12571 1 -5.9863 -0.550978 -1.60809 
10360 1 -2.56648 -2.51245 5.37005 
10362 1 4.77465 6.43903 1.59756 
10361 3 -3.09504 2.11923 -1.50121 
14612 3 -4.21076 1.62864 0.400255 
14613 1 -0.548412 2.00446 -0.42483 
9903 1 2.95667 1.4001 -2.06516 
9902 2 -3.01107 1.04619 -1.15193 
9901 1 -0.950343 4.29299 2.29397 
16419 1 3.63164 -0.54483 2.82372 
16418 3 2.41833 3.03417 -4.78823 
16417 1 5.69817 -4.30163 2.51045 
5957 3 0.339464 0.479516 -0.819026 
5956 1 -4.14566 1.13981 0.721295 
5934 1 -4.07911 3.01652 7.04064 
5933 3 1.91951 -1.94542 -0.880181 
5665 1 -2.05532 -1.59864 4.39137 
5666 3 -1.09252 -2.38557 4.79363 
5667 1 2.2791 4.35342 0.295106 
7083 1 3.12178 -3.48682 1.08763 
7081 1 4.47586 -0.0817458 8.51917 
7082 3 -0.0986834 -0.448545 -0.322113 
9174 1 -10.3215 -7.43356 2.41127 
9173 3 0.989914 0.335601 1.96884 
9172 1 -5.54067 3.41717 -1.19207 
20152 1 -0.137483 0.332971 -3.51526 
20153 2 0.324785 -2.56068 1.97463 
12572 2 1.37798 -2.34886 3.20916 
12573 1 2.76616 -2.27748 -3.14055 
20154 1 3.93969 0.869005 -1.05727 
15877 1 1.8944 0.782702 -1.00707 
15878 3 -0.39109 0.874683 1.53594 
15879 1 2.39689 -3.4334 2.83414 
14629 1 5.0779 3.75711 -2.86842 
14630 2 -2.09147 -1.83317 0.278258 
14631 1 -4.89152 -9.02659 -4.4837 
19162 1 5.14939 -4.1282 3.54599 
9304 1 2.11175 -1.75382 3.42139 
9305 2 0.465366 2.00887 -4.66918 
9306 1 -2.31527 1.40036 -3.01079 
15048 1 3.71657 -4.73416 -2.83975 
15047 3 -3.0325 -2.17106 3.00487 
20751 1 0.956277 0.497652 3.68772 
20750 3 3.07285 -0.884655 -1.95997 
20749 1 -1.78189 2.92004 3.04636 
5932 1 -4.67579 -2.33258 3.93536 
15046 1 -0.669568 3.98423 0.73879 
18628 1 6.44285 2.22301 3.08789 
18629 2 5.83592 0.298278 -1.11419 
18630 1 -2.91021 -4.84092 -2.53987 
533 3 -1.67609 -3.18381 -0.924262 
532 1 6.93953 -0.146483 8.32444 
534 1 -2.4279 2.4087 0.5934 
15111 1 -0.475895 1.64105 0.70647 
15109 1 3.91639 0.733097 0.484839 
15110 3 3.08812 0.960721 -1.63869 
15640 1 1.17141 -5.95086 -6.49527 
15642 1 -4.41243 -1.40304 2.17295 
15641 2 -2.54765 -3.46792 -3.28436 
3726 1 2.59654 -3.4608 4.40465 
3725 2 -2.88428 1.21602 -0.357784 
3724 1 -2.88199 -3.39618 3.53381 
19284 1 -4.92822 0.984709 -8.14674 
4067 2 -4.42148 -2.21732 -0.0448217 
4066 1 -2.09313 0.763012 -2.04298 
2946 1 5.07938 -2.43963 -4.81502 
2945 3 -0.212497 2.49207 -2.13217 
2944 1 5.6311 1.64273 -0.826578 
20743 1 -0.245101 -2.46489 -3.67298 
4175 2 -1.38433 -0.205059 -1.23569 
20745 1 2.92248 4.73689 -6.21719 
4176 1 2.83544 -0.249023 4.3874 
20744 2 0.913741 4.87057 -2.44301 
4174 1 -0.629519 -0.655434 4.01179 
1256 2 1.79573 0.338149 2.60948 
1255 1 0.658374 -0.758534 1.01266 
1257 1 -0.145711 1.25562 -8.15986 
14625 1 0.658436 -3.34118 0.0926377 
14623 1 0.958368 -0.591991 -3.81442 
14624 2 -3.70624 0.393968 -0.339675 
3279 1 -1.33771 -2.49917 -4.68251 
3278 2 -2.3543 0.0334343 -2.87234 
3277 1 -1.00027 3.27173 4.44893 
6783 1 0.33515 -3.83772 0.993034 
19282 1 -0.49465 3.30605 -0.786811 
19283 2 -3.85844 -1.87403 1.12355 
4068 1 -3.4741 -3.66114 0.642401 
13092 1 -2.49395 -6.25024 -6.72782 
13091 3 1.74166 -1.77027 -0.295396 
13090 1 1.74854 1.74002 3.14967 
14683 1 5.93719 -0.922929 -3.34547 
14685 1 -3.11226 -3.72361 -3.76809 
14684 2 -0.902271 -0.0926336 -1.61079 
21034 1 2.21535 6.11917 -3.53344 
21035 2 0.470054 -2.8825 -2.15123 
21036 1 1.9726 -0.027016 -0.505998 
12755 3 0.8153 2.92793 1.10963 