ITEM: TIMESTEP
80000000
ITEM: NUMBER OF ENTRIES
14730
ITEM: BOX BOUNDS pp pp pp
0 50
0 50
0 50
ITEM: ENTRIES c_binfo[1] c_binfo[2] c_binfo[3] 
1 9549 11523 
1 6081 11521 
2 11522 11523 
2 11521 11522 
3 6080 6081 
3 4348 4349 
3 5603 5604 
3 5602 5603 
1 5602 18850 
2 18850 18851 
2 14926 14927 
2 18851 18852 
1 5268 18852 
3 18442 18443 
3 17143 17144 
3 17144 17145 
3 4349 4350 
2 3736 3737 
1 3736 4350 
3 11816 11817 
3 11815 11816 
2 10862 10863 
2 3737 3738 
1 3738 17017 
3 17017 17018 
3 6997 6998 
1 6997 11817 
3 17018 17019 
2 17927 17928 
2 17926 17927 
2 580 581 
2 21461 21462 
2 21460 21461 
2 581 582 
2 15331 15332 
1 15331 21460 
2 20372 20373 
2 20371 20372 
1 11442 20371 
2 5267 5268 
2 5266 5267 
1 5266 20544 
2 20543 20544 
2 14927 14928 
1 14928 20373 
3 10313 10314 
2 11696 11697 
2 11695 11696 
1 11695 17962 
2 17962 17963 
2 17963 17964 
3 18443 18444 
2 21496 21497 
1 18444 21496 
2 21497 21498 
1 8544 17145 
3 8543 8544 
3 8542 8543 
1 8542 8982 
2 8981 8982 
2 10861 10862 
2 19663 19664 
2 11698 11699 
1 11698 12613 
3 6998 6999 
2 6529 6530 
1 6529 6999 
2 6530 6531 
2 6466 6467 
1 6466 6531 
3 12614 12615 
3 12613 12614 
2 7546 7547 
1 7546 17019 
2 7547 7548 
1 7548 13410 
3 791 792 
3 790 791 
1 790 3624 
2 3623 3624 
2 17800 17801 
3 15526 15527 
1 15526 17800 
2 17801 17802 
1 17802 17928 
2 16522 16523 
2 16523 16524 
2 14233 14234 
2 12089 12090 
1 582 10597 
2 10597 10598 
2 10598 10599 
1 10599 13030 
2 13030 13031 
2 15332 15333 
2 2615 2616 
1 2616 15333 
2 2563 2564 
2 2614 2615 
1 2614 9522 
2 20542 20543 
3 11441 11442 
2 13685 13686 
2 13684 13685 
3 11440 11441 
1 11440 13684 
1 7398 20542 
2 7397 7398 
2 7396 7397 
2 1693 1694 
1 1693 7396 
2 1694 1695 
2 12451 12452 
1 12451 13686 
2 7630 7631 
1 2460 7630 
2 2459 2460 
2 7631 7632 
2 20635 20636 
2 20636 20637 
3 15421 15422 
3 5098 5099 
1 5098 15421 
2 16535 16536 
3 10312 10313 
1 10312 16534 
2 16534 16535 
2 11669 11670 
2 4097 4098 
2 2564 2565 
1 2565 4098 
1 13164 17964 
2 13163 13164 
2 13162 13163 
1 9051 13162 
2 11599 11600 
1 11599 21498 
2 11600 11601 
1 11601 12915 
2 17102 17103 
3 3559 3560 
1 3559 17103 
3 3560 3561 
2 12914 12915 
2 12124 12125 
2 8980 8981 
1 8980 12126 
2 12125 12126 
1 7236 12124 
2 19664 19665 
1 132 6562 
2 131 132 
2 130 131 
3 6562 6563 
2 15961 15962 
2 15962 15963 
1 2646 15963 
2 2645 2646 
2 14234 14235 
1 14235 17305 
2 17305 17306 
2 11699 11700 
1 11700 12721 
2 12721 12722 
2 12722 12723 
2 6467 6468 
1 6468 15798 
2 15797 15798 
2 1885 1886 
1 1885 12723 
2 11350 11351 
1 11350 14829 
2 13409 13410 
2 13408 13409 
1 13408 14827 
2 14827 14828 
2 14828 14829 
2 3622 3623 
1 3622 10518 
2 10517 10518 
2 10516 10517 
2 1249 1250 
1 1249 10516 
2 1250 1251 
3 15527 15528 
2 8869 8870 
1 8869 15528 
2 8870 8871 
1 8871 13477 
2 13477 13478 
3 5936 5937 
1 5937 17979 
3 15557 15558 
3 15556 15557 
2 4330 4331 
1 4330 16522 
2 12088 12089 
1 12088 17916 
2 4331 4332 
2 17306 17307 
2 17915 17916 
2 17914 17915 
1 522 17914 
1 4332 11325 
2 11324 11325 
2 521 522 
1 2259 17307 
2 13031 13032 
1 13032 19899 
2 19898 19899 
2 19897 19898 
1 9426 19897 
2 12452 12453 
2 1141 1142 
1 1141 12453 
2 1142 1143 
2 9521 9522 
2 9520 9521 
1 9520 14374 
2 14374 14375 
2 14375 14376 
1 1695 5523 
2 5522 5523 
2 5521 5522 
1 5521 18000 
2 2458 2459 
1 2458 5539 
3 5539 5540 
3 5540 5541 
2 13615 13616 
1 5541 13615 
2 13616 13617 
2 20851 20852 
2 3079 3080 
1 3079 20851 
2 11293 11294 
2 11294 11295 
3 3322 3323 
3 3323 3324 
1 3324 14478 
3 14477 14478 
3 14476 14477 
3 5099 5100 
1 2727 14476 
1 5100 8451 
3 8450 8451 
2 11668 11669 
3 8449 8450 
2 12749 12750 
2 1663 1664 
1 1663 8449 
2 4096 4097 
1 4096 17533 
2 17533 17534 
2 17534 17535 
1 13965 17535 
2 9050 9051 
2 9049 9050 
1 9049 14088 
2 14087 14088 
2 14086 14087 
2 17101 17102 
2 14029 14030 
1 14029 17101 
2 14030 14031 
2 14213 14214 
2 12913 12914 
1 12913 14214 
2 14212 14213 
2 8137 8138 
1 8137 14031 
2 8138 8139 
1 912 14212 
2 1396 1397 
1 1396 14925 
2 14924 14925 
2 1397 1398 
2 7235 7236 
3 11083 11084 
2 20852 20853 
2 7234 7235 
1 7234 20853 
3 9614 9615 
1 2001 9615 
3 9613 9614 
2 3856 3857 
1 3856 9613 
1 11085 16669 
3 16669 16670 
3 16670 16671 
3 11084 11085 
2 15485 15486 
2 3340 3341 
1 3340 15484 
2 3341 3342 
2 15484 15485 
3 11036 11037 
3 11035 11036 
2 18418 18419 
3 17887 17888 
3 17888 17889 
2 14275 14276 
1 14275 17889 
2 18419 18420 
1 4281 18420 
2 6164 6165 
2 6163 6164 
3 6563 6564 
2 2644 2645 
1 2644 12189 
2 12188 12189 
2 12187 12188 
1 12187 20439 
2 1285 1286 
1 1285 6564 
2 1286 1287 
2 4280 4281 
2 1886 1887 
2 15796 15797 
1 5877 15796 
2 5876 5877 
2 5875 5876 
1 5875 16753 
2 16753 16754 
1 1887 10788 
2 10787 10788 
1 11352 16078 
2 16078 16079 
2 11351 11352 
1 1251 4870 
2 4871 4872 
1 4872 4944 
2 4870 4871 
2 16079 16080 
2 13478 13479 
2 2590 2591 
1 2590 13479 
2 2591 2592 
3 895 896 
1 895 17082 
3 17080 17081 
1 17080 17977 
3 17978 17979 
3 17977 17978 
3 17081 17082 
2 11323 11324 
1 11323 15937 
2 15937 15938 
2 520 521 
1 520 14458 
2 2258 2259 
2 2257 2258 
1 2257 19816 
3 19816 19817 
3 19817 19818 
2 15938 15939 
2 9568 9569 
1 9568 15939 
2 14458 14459 
2 14459 14460 
1 14460 18151 
2 18151 18152 
2 9425 9426 
2 9424 9425 
2 8383 8384 
1 8383 9424 
2 8384 8385 
1 1143 5919 
2 5918 5919 
2 5917 5918 
1 5917 15340 
2 15340 15341 
2 17999 18000 
2 10306 10307 
1 10306 14376 
2 10307 10308 
1 10308 12633 
2 17998 17999 
1 15252 17998 
2 15251 15252 
2 15250 15251 
1 993 13617 
2 992 993 
2 991 992 
1 991 13719 
2 3080 3081 
1 3081 20290 
2 20290 20291 
2 20291 20292 
2 5716 5717 
1 81 5718 
3 14699 14700 
3 19885 19886 
1 19885 21238 
3 14698 14699 
1 14698 14941 
3 14941 14942 
3 14942 14943 
3 21238 21239 
2 5717 5718 
3 19886 19887 
3 1133 1134 
3 2726 2727 
3 1132 1133 
1 1132 3691 
3 3691 3692 
3 3692 3693 
3 3299 3300 
3 2725 2726 
1 2725 3300 
3 3298 3299 
1 3298 19344 
2 12748 12749 
1 12748 15322 
2 15322 15323 
2 1664 1665 
1 1665 16782 
2 16781 16782 
2 15323 15324 
2 11104 11105 
2 13964 13965 
2 13963 13964 
1 13963 18226 
2 18226 18227 
2 18227 18228 
1 18228 18919 
2 18919 18920 
2 4603 4604 
1 4603 14086 
1 13881 15324 
2 13880 13881 
2 4604 4605 
1 4605 14173 
2 14173 14174 
2 14174 14175 
2 21329 21330 
2 2690 2691 
2 910 911 
1 910 2691 
2 911 912 
1 8139 8328 
2 21328 21329 
2 14923 14924 
1 14923 21328 
1 21195 21330 
2 8327 8328 
2 8326 8327 
2 4594 4595 
1 4594 8326 
2 2000 2001 
2 14669 14670 
2 14668 14669 
1 14668 16671 
1 7848 14670 
2 3848 3849 
2 15983 15984 
2 15982 15983 
2 3847 3848 
2 19901 19902 
2 19900 19901 
2 9919 9920 
1 9919 19900 
1 579 3342 
2 578 579 
2 577 578 
1 577 20535 
2 20534 20535 
1 9921 11035 
2 9920 9921 
2 14276 14277 
2 13951 13952 
1 13951 14277 
2 13952 13953 
2 12686 12687 
2 21271 21272 
2 21272 21273 
1 6165 20017 
2 20017 20018 
2 12685 12686 
1 12685 17596 
2 17596 17597 
2 20018 20019 
2 17597 17598 
1 17598 21073 
2 20438 20439 
2 20437 20438 
2 13912 13913 
1 13912 20437 
2 13913 13914 
1 13914 16312 
2 21073 21074 
2 16312 16313 
2 10786 10787 
1 10786 13293 
2 4279 4280 
1 4279 4846 
1 4848 8307 
2 4846 4847 
2 4847 4848 
2 16754 16755 
2 13291 13292 
2 13292 13293 
2 11560 11561 
1 11560 13291 
1 16755 21037 
2 21037 21038 
2 21038 21039 
2 4943 4944 
2 2935 2936 
1 2935 16080 
2 5909 5910 
2 4942 4943 
1 4942 5910 
2 5908 5909 
2 2936 2937 
1 2937 21400 
2 21400 21401 
2 21401 21402 
1 2592 3385 
2 3385 3386 
2 3386 3387 
1 3387 14835 
3 1310 1311 
3 1309 1310 
1 1309 9297 
3 6487 6488 
1 897 6487 
3 896 897 
3 6488 6489 
2 2921 2922 
1 4638 20019 
2 2920 2921 
1 2920 18439 
2 18439 18440 
2 18440 18441 
1 8304 18441 
2 4637 4638 
1 1287 19255 
2 9569 9570 
2 19255 19256 
2 6679 6680 
1 6679 19818 
1 9570 17439 
2 19256 19257 
1 12834 19257 
2 12833 12834 
2 6680 6681 
2 17438 17439 
2 17437 17438 
2 11650 11651 
1 11650 17437 
1 678 6681 
2 677 678 
2 18152 18153 
2 4609 4610 
1 4609 8385 
2 4610 4611 
1 4611 11089 
2 11089 11090 
1 7002 18153 
2 15341 15342 
2 2260 2261 
1 2260 18790 
2 18790 18791 
1 2262 15342 
2 2261 2262 
2 12632 12633 
2 6019 6020 
1 6019 12631 
2 12631 12632 
2 6020 6021 
1 6021 18676 
2 8605 8606 
1 8605 15250 
2 8606 8607 
2 18676 18677 
1 8607 10657 
2 10657 10658 
2 9953 9954 
2 13717 13718 
2 9952 9953 
1 9952 13717 
2 13718 13719 
2 10658 10659 
1 10422 20292 
2 10421 10422 
2 10420 10421 
1 10420 12865 
2 12865 12866 
1 9954 21573 
2 12866 12867 
3 79 80 
1 79 7272 
2 7271 7272 
3 80 81 
3 12424 12425 
1 12424 14943 
3 12425 12426 
2 7270 7271 
1 7270 14919 
2 3044 3045 
1 3693 17994 
3 21239 21240 
2 3043 3044 
1 3043 21240 
1 12426 16255 
2 16255 16256 
2 16256 16257 
2 17993 17994 
2 17992 17993 
1 1902 17992 
2 1901 1902 
3 19343 19344 
1 3045 12678 
2 16780 16781 
2 7555 7556 
1 7555 16780 
2 7556 7557 
1 7557 20106 
2 20105 20106 
3 19342 19343 
2 13969 13970 
1 13969 19342 
2 7001 7002 
2 7000 7001 
1 7000 7192 
1 5964 18921 
2 18920 18921 
2 5963 5964 
2 13879 13880 
1 11094 13879 
2 11093 11094 
2 19624 19625 
2 11092 11093 
1 11092 19624 
1 14175 16909 
2 16909 16910 
2 7192 7193 
2 1253 1254 
2 2689 2690 
1 2689 9720 
1 1254 9718 
2 9718 9719 
2 9719 9720 
2 16910 16911 
1 13362 16911 
1 12852 18744 
2 21194 21195 
2 12851 12852 
2 12850 12851 
1 12850 21193 
2 21193 21194 
1 14781 16555 
2 4595 4596 
1 4596 7711 
1 7713 15475 
2 15475 15476 
2 7711 7712 
2 7712 7713 
2 7847 7848 
2 7846 7847 
1 7846 10011 
2 10010 10011 
2 16555 16556 
2 10009 10010 
1 10009 12199 
1 138 15982 
2 6050 6051 
2 137 138 
2 136 137 
1 136 6051 
2 17440 17441 
1 17440 19902 
2 17441 17442 
2 5896 5897 
1 5896 17442 
1 13953 15897 
2 15895 15896 
2 15896 15897 
2 14323 14324 
1 14323 15895 
2 307 308 
2 12245 12246 
1 309 12246 
2 308 309 
1 9666 21273 
2 9665 9666 
2 9664 9665 
1 9664 9918 
2 2186 2187 
2 16375 16376 
2 10831 10832 
1 10831 20533 
2 20533 20534 
2 10832 10833 
1 10833 16375 
2 21074 21075 
2 14645 14646 
1 14646 21075 
2 16313 16314 
1 2187 16314 
1 11445 14167 
2 20309 20310 
2 11561 11562 
1 11214 21039 
2 8305 8306 
1 7281 8305 
2 8306 8307 
2 7280 7281 
2 11443 11444 
1 11443 11562 
2 20308 20309 
2 11212 11213 
1 11212 20308 
2 11213 11214 
2 11444 11445 
2 7279 7280 
1 1425 5908 
2 12410 12411 
2 1424 1425 
2 1423 1424 
1 1423 12409 
2 12409 12410 
2 16069 16070 
1 9579 16069 
2 9578 9579 
2 9577 9578 
1 9577 21402 
2 14834 14835 
2 9296 9297 
2 9142 9143 
2 9295 9296 
1 4647 9295 
1 4968 9142 
2 4966 4967 
1 4966 14833 
2 14833 14834 
2 4967 4968 
2 4645 4646 
1 4645 21264 
2 4646 4647 
1 1440 6489 
2 1439 1440 
2 16960 16961 
2 16961 16962 
1 3840 14013 
2 5021 5022 
2 1438 1439 
1 1438 5022 
2 16126 16127 
2 4636 4637 
2 1054 1055 
1 1054 4636 
2 1055 1056 
2 19525 19526 
1 16962 19525 
1 1056 16126 
2 8303 8304 
2 19526 19527 
2 8302 8303 
2 3838 3839 
1 3838 8302 
2 3839 3840 
2 12832 12833 
1 12832 19713 
2 11651 11652 
2 6778 6779 
1 6778 19711 
2 19712 19713 
2 19711 19712 
2 13744 13745 
1 11652 13744 
2 13745 13746 
2 10663 10664 
1 10581 10663 
1 1959 3804 
2 676 677 
1 676 3802 
2 3802 3803 
2 3803 3804 
2 11090 11091 
1 10665 11091 
2 10664 10665 
1 11280 18792 
2 18791 18792 
2 11279 11280 
1 8046 18678 
2 18677 18678 
2 8045 8046 
2 12815 12816 
2 12814 12815 
1 12814 21571 
2 21571 21572 
2 5443 5444 
1 5443 17416 
2 21572 21573 
1 10659 18567 
2 17038 17039 
1 17038 18565 
2 18565 18566 
2 18566 18567 
2 5444 5445 
1 5445 12867 
2 17416 17417 
1 7380 20409 
3 16144 16145 
3 16145 16146 
2 20407 20408 
2 14917 14918 
2 14918 14919 
1 8319 14917 
2 20408 20409 
2 12676 12677 
1 12676 19743 
2 8318 8319 
1 16257 20878 
2 1936 1937 
1 1936 20880 
2 20878 20879 
2 20879 20880 
2 12677 12678 
2 19742 19743 
2 1900 1901 
1 1900 10191 
2 10190 10191 
2 10189 10190 
1 10185 10189 
2 20104 20105 
1 17043 20104 
2 17042 17043 
1 1743 17041 
2 17041 17042 
1 3117 8925 
2 3211 3212 
1 3211 10138 
2 3116 3117 
2 5962 5963 
2 3115 3116 
1 3115 5962 
2 19625 19626 
2 7193 7194 
1 7194 14182 
2 14182 14183 
2 14183 14184 
2 10138 10139 
2 10139 10140 
1 10140 19626 
2 8242 8243 
1 8242 12564 
2 8924 8925 
2 18743 18744 
2 1252 1253 
1 1252 12562 
2 13360 13361 
1 13360 14244 
2 14243 14244 
2 13361 13362 
1 1239 14242 
2 12563 12564 
2 14242 14243 
2 12562 12563 
1 93 2413 
1 6930 18742 
2 2413 2414 
2 18742 18743 
2 6929 6930 
2 11852 11853 
2 11851 11852 
2 15476 15477 
1 11853 15477 
2 92 93 
2 91 92 
1 91 16557 
1 12201 14197 
3 12199 12200 
2 14198 14199 
2 14197 14198 
3 12200 12201 
2 8927 8928 
2 8926 8927 
3 7853 7854 
3 7852 7853 
2 6049 6050 
1 6049 7852 
2 5806 5807 
1 5806 7059 
2 5807 5808 
1 5808 5898 
2 5897 5898 
3 8560 8561 
1 8560 14325 
3 8561 8562 
1 8562 16893 
2 14324 14325 
2 15953 15954 
3 13606 13607 
1 13606 15954 
2 15952 15953 
2 12244 12245 
1 12244 15952 
2 2140 2141 
1 2140 7854 
2 9916 9917 
1 9916 18459 
2 18458 18459 
2 18457 18458 
1 18457 21105 
1 7386 8928 
2 9917 9918 
2 2141 2142 
3 12077 12078 
3 12076 12077 
1 12076 16377 
2 19241 19242 
2 19240 19241 
2 7816 7817 
1 7816 19240 
2 13712 13713 
2 13711 13712 
1 13711 14838 
2 16376 16377 
2 7817 7818 
2 2185 2186 
1 2185 13713 
2 14644 14645 
1 14644 19242 
2 14837 14838 
2 5869 5870 
1 5869 21594 
2 15053 15054 
1 15054 20310 
2 5870 5871 
2 21593 21594 
2 15052 15053 
2 115 116 
1 115 15052 
2 14168 14169 
2 116 117 
1 5871 7279 
2 14167 14168 
3 422 423 
3 421 422 
1 421 14169 
3 17935 17936 
1 8169 17935 
2 8168 8169 
2 8167 8168 
1 8167 12411 
3 2512 2513 
1 2512 9144 
3 2513 2514 
1 2514 13486 
2 608 609 
2 9143 9144 
2 3181 3182 
2 607 608 
1 607 3181 
3 13486 13487 
2 14869 14870 
2 14870 14871 
2 21262 21263 
1 14871 21262 
2 21263 21264 
2 17855 17856 
2 17854 17855 
2 3484 3485 
1 3484 17854 
1 2160 5020 
2 5020 5021 
2 2159 2160 
2 2158 2159 
1 2158 9106 
2 9106 9107 
1 16128 21583 
2 21583 21584 
2 21584 21585 
2 4070 4071 
2 4069 4070 
2 2752 2753 
1 2752 4069 
1 4071 19527 
2 9107 9108 
2 16127 16128 
2 2753 2754 
1 13119 21585 
2 14012 14013 
1 6780 8764 
2 8764 8765 
2 8765 8766 
1 8766 16992 
2 14011 14012 
1 14011 16140 
2 16139 16140 
2 6779 6780 
1 13746 17317 
2 19121 19122 
2 19120 19121 
2 1957 1958 
1 1957 19122 
2 10580 10581 
2 10579 10580 
1 3936 10579 
2 3935 3936 
2 1958 1959 
1 17073 19120 
1 15381 16071 
2 16070 16071 
2 15380 15381 
2 15379 15380 
2 10642 10643 
1 10642 15379 
2 17639 17640 
2 15788 15789 
1 15789 16464 
2 15787 15788 
2 8044 8045 
1 8044 15787 
2 16463 16464 
2 17638 17639 
2 13240 13241 
1 13240 17638 
2 3934 3935 
1 3934 5331 
2 11278 11279 
1 11278 17640 
2 17039 17040 
1 609 12816 
2 13241 13242 
2 10931 10932 
2 10930 10931 
1 10930 17040 
2 17417 17418 
2 8680 8681 
1 8680 10932 
2 8060 8061 
2 10594 10595 
1 9024 16146 
2 7378 7379 
2 1288 1289 
1 1288 7378 
2 9023 9024 
2 1289 1290 
1 1290 9237 
2 11303 11304 
2 7379 7380 
2 9022 9023 
1 9022 11304 
2 8317 8318 
1 6651 8317 
2 6650 6651 
1 1938 15678 
2 15677 15678 
2 15676 15677 
1 15676 19363 
2 19363 19364 
2 1937 1938 
2 6649 6650 
1 6649 14764 
2 17318 17319 
2 190 191 
1 190 17319 
2 10183 10184 
1 2127 10183 
2 2126 2127 
2 2125 2126 
1 2125 19218 
2 191 192 
2 1742 1743 
2 1741 1742 
1 1741 5772 
2 10184 10185 
2 17317 17318 
2 503 504 
2 4916 4917 
2 4915 4916 
2 502 503 
1 502 4915 
2 3212 3213 
2 5771 5772 
2 5770 5771 
1 5770 5893 
2 5893 5894 
1 3213 7243 
2 7243 7244 
2 7244 7245 
1 4917 14184 
1 7245 7941 
2 8923 8924 
2 8243 8244 
2 15280 15281 
2 15281 15282 
1 15282 17599 
2 17599 17600 
2 1676 1677 
1 1677 5175 
2 1675 1676 
1 1675 8923 
1 8244 15280 
2 1237 1238 
1 1237 6663 
2 6662 6663 
2 1238 1239 
2 6661 6662 
1 6661 20503 
1 2415 18868 
2 18868 18869 
2 4904 4905 
2 4903 4904 
1 4903 6621 
2 6620 6621 
2 17614 17615 
1 17614 18447 
2 18446 18447 
2 18445 18446 
2 17615 17616 
2 6619 6620 
1 6619 11851 
2 18869 18870 
2 6928 6929 
1 6928 18445 
2 2414 2415 
1 14199 15705 
2 15703 15704 
1 8061 15703 
2 15704 15705 
2 748 749 
1 748 18870 
2 3766 3767 
2 7058 7059 
2 7057 7058 
1 7057 17934 
2 17933 17934 
2 17932 17933 
2 7984 7985 
1 7984 17932 
2 16892 16893 
3 17174 17175 
2 16891 16892 
1 16891 17175 
3 17173 17174 
1 16341 17173 
1 162 18984 
3 13607 13608 
3 161 162 
3 160 161 
1 160 13608 
2 7385 7386 
1 4575 8781 
2 7384 7385 
1 7384 8779 
2 8779 8780 
2 8780 8781 
2 18808 18809 
2 21104 21105 
2 21103 21104 
1 108 21103 
2 107 108 
2 106 107 
1 106 17523 
1 450 2142 
2 449 450 
2 4486 4487 
1 4486 12078 
2 448 449 
1 448 3547 
2 3547 3548 
2 4487 4488 
1 4488 12934 
2 12934 12935 
2 12935 12936 
2 2449 2450 
1 2449 7818 
2 2450 2451 
1 2451 11722 
2 11722 11723 
1 12936 17242 
2 21592 21593 
2 14836 14837 
1 14836 21148 
2 21148 21149 
2 21149 21150 
1 14322 21592 
2 14320 14321 
2 14321 14322 
1 3999 14320 
1 117 3550 
2 3550 3551 
1 11073 21150 
2 3998 3999 
2 3551 3552 
1 3552 11952 
3 17936 17937 
1 423 14691 
3 14690 14691 
3 14689 14690 
1 2676 14689 
2 2675 2676 
2 11114 11115 
2 3694 3695 
1 3694 17937 
2 3695 3696 
1 3696 13147 
2 13147 13148 
3 13487 13488 
1 4005 13488 
2 18701 18702 
2 6820 6821 
1 6820 18702 
2 4004 4005 
2 6821 6822 
1 13242 18700 
2 18700 18701 
2 3182 3183 
1 3183 5386 
2 5387 5388 
2 5386 5387 
2 5179 5180 
1 5179 5388 
2 4574 4575 
2 3485 3486 
1 3486 15411 
2 15410 15411 
2 15409 15410 
1 9108 14914 
2 14914 14915 
2 14915 14916 
2 6676 6677 
1 6676 14916 
2 13118 13119 
1 285 2754 
2 13117 13118 
2 5848 5849 
1 5848 13117 
2 284 285 
2 283 284 
1 283 3673 
2 3673 3674 
2 5849 5850 
2 16991 16992 
2 16990 16991 
2 4837 4838 
1 4837 16990 
2 4838 4839 
2 6364 6365 
2 17072 17073 
2 17071 17072 
2 322 323 
1 322 17071 
2 323 324 
1 324 5857 
2 10643 10644 
1 10644 11113 
2 11113 11114 
2 5330 5331 
2 5329 5330 
1 5329 9943 
2 9943 9944 
2 16462 16463 
2 3028 3029 
1 3028 16462 
2 3029 3030 
1 3030 11077 
2 11077 11078 
2 9944 9945 
2 761 762 
1 762 8682 
2 8681 8682 
2 760 761 
1 760 17131 
2 8059 8060 
1 2610 8059 
2 2609 2610 
2 2608 2609 
1 2608 14422 
2 14422 14423 
2 10595 10596 
2 10237 10238 
1 10237 10596 
2 10238 10239 
1 10239 16102 
2 16102 16103 
2 11302 11303 
1 11302 13185 
2 9236 9237 
2 9235 9236 
1 9235 16869 
2 16868 16869 
2 19364 19365 
1 14043 19365 
2 14042 14043 
2 14041 14042 
1 14041 14205 
1 192 6364 
2 5674 5675 
1 5674 16138 
2 16138 16139 
2 5675 5676 
1 5676 15792 
2 19217 19218 
2 19216 19217 
2 4132 4133 
1 4132 19216 
2 4133 4134 
1 4134 19701 
2 6365 6366 
2 2446 2447 
1 2446 6366 
2 12533 12534 
1 12003 12534 
1 504 12532 
2 12532 12533 
2 5894 5895 
1 4074 5895 
2 4073 4074 
2 4072 4073 
1 4072 13468 
2 7940 7941 
2 7939 7940 
1 7939 8097 
2 5174 5175 
2 16834 16835 
1 16834 17643 
2 5173 5174 
1 5173 16836 
2 16835 16836 
2 20503 20504 
2 20504 20505 
2 8096 8097 
1 18534 20505 
2 18533 18534 
2 17600 17601 
1 4905 17488 
2 17488 17489 
2 7784 7785 
2 7783 7784 
1 7783 17601 
1 17490 17496 
2 17489 17490 
1 5082 17616 
2 5081 5082 
2 5080 5081 
1 5080 15981 
1 13308 13450 
1 750 13306 
2 749 750 
3 13307 13308 
3 13306 13307 
2 13450 13451 
2 3767 3768 
3 7478 7479 
3 7477 7478 
1 3768 7477 
2 19813 19814 
2 7985 7986 
2 10547 10548 
1 7986 10546 
2 10546 10547 
1 10548 18216 
2 8597 8598 
2 8596 8597 
1 8596 16339 
2 16339 16340 
2 16340 16341 
1 11766 15721 
2 11765 11766 
2 11764 11765 
1 11764 18982 
2 15721 15722 
2 18983 18984 
2 18982 18983 
1 7479 12717 
1 1413 4129 
2 1412 1413 
2 1411 1412 
1 1411 18810 
2 18809 18810 
2 17522 17523 
2 19814 19815 
2 17521 17522 
1 12882 17521 
2 12881 12882 
2 4129 4130 
2 11723 11724 
2 18560 18561 
2 18559 18560 
2 3548 3549 
1 3549 18561 
2 17242 17243 
2 17243 17244 
1 7335 17244 
2 7334 7335 
1 11724 19032 
1 12672 18559 
2 3997 3998 
1 3997 20011 
2 20011 20012 
2 20012 20013 
2 1138 1139 
1 1138 20013 
2 11659 11660 
2 11660 11661 
2 11072 11073 
2 11071 11072 
1 11071 11659 
2 11951 11952 
2 751 752 
1 751 11661 
2 11950 11951 
2 826 827 
1 826 11950 
2 827 828 
2 2674 2675 
2 1018 1019 
1 1018 3003 
1 1020 2674 
2 1019 1020 
2 4480 4481 
1 4480 11115 
2 4481 4482 
1 4482 18958 
2 18958 18959 
2 18959 18960 
2 13148 13149 
2 4309 4310 
1 4309 13149 
2 4310 4311 
1 4311 9837 
2 3002 3003 
1 828 2077 
2 4003 4004 
1 4003 7405 
2 1339 1340 
1 1339 7407 
2 7406 7407 
2 1340 1341 
2 7405 7406 
2 2398 2399 
1 2398 6822 
2 2399 2400 
1 2400 6034 
2 6034 6035 
2 5180 5181 
1 5181 7426 
2 7426 7427 
2 7427 7428 
1 7428 19579 
3 20332 20333 
2 4573 4574 
2 1162 1163 
1 1162 4573 
1 8895 15409 
1 1164 10651 
3 10651 10652 
2 1163 1164 
3 10652 10653 
2 6677 6678 
1 6678 7269 
2 7268 7269 
2 7267 7268 
1 7267 15925 
3 15925 15926 
2 3674 3675 
2 10544 10545 
1 10545 19029 
1 4839 18046 
2 18046 18047 
2 19028 19029 
2 19031 19032 
1 5850 10543 
2 10543 10544 
2 19030 19031 
2 6541 6542 
1 6541 19030 
2 18047 18048 
1 18048 21139 
2 21139 21140 
2 21140 21141 
2 5857 5858 
2 5858 5859 
1 5859 9120 
2 9119 9120 
1 2340 9945 
2 2338 2339 
1 2338 5143 
2 2339 2340 
2 5143 5144 
2 11078 11079 
2 1117 1118 
1 1117 11079 
2 1118 1119 
2 5144 5145 
1 1119 2863 
2 17131 17132 
2 17132 17133 
1 17133 21423 
2 21422 21423 
2 14423 14424 
2 8872 8873 
2 5198 5199 
1 5199 14424 
2 5197 5198 
1 5197 8872 
2 8894 8895 
2 16103 16104 
3 1846 1847 
1 1846 8893 
2 8893 8894 
1 5421 5793 
3 5791 5792 
1 5791 16104 
3 5792 5793 
3 1847 1848 
2 16867 16868 
1 2484 16867 
3 11854 11855 
2 2482 2483 
1 2482 11854 
3 11855 11856 
2 2483 2484 
1 3675 5881 
2 5881 5882 
2 5882 5883 
3 892 893 
1 892 5883 
2 14204 14205 
2 14203 14204 
1 10935 14203 
2 15791 15792 
2 10934 10935 
2 15790 15791 
2 706 707 
1 706 15790 
2 707 708 
1 708 21321 
2 19700 19701 
2 19699 19700 
2 4582 4583 
1 4582 19699 
2 4583 4584 
2 2447 2448 
2 12002 12003 
2 13468 13469 
1 2448 4816 
2 4816 4817 
2 4817 4818 
2 12001 12002 
1 12001 12117 
2 13469 13470 
1 342 13470 
2 341 342 
2 12116 12117 
2 12115 12116 
1 12115 12528 
2 340 341 
1 340 16902 
2 181 182 
1 181 18640 
2 182 183 
2 17642 17643 
2 17641 17642 
1 183 17641 
2 8095 8096 
2 7204 7205 
1 7204 8095 
2 7205 7206 
2 6250 6251 
1 6250 7206 
2 6251 6252 
2 18532 18533 
2 9787 9788 
1 9787 18532 
2 9788 9789 
1 9789 11050 
2 17495 17496 
2 11050 11051 
2 15980 15981 
2 17494 17495 
1 17494 21468 
2 13382 13383 
1 5277 7785 
2 5276 5277 
2 5275 5276 
1 5275 13383 
2 15979 15980 
1 13734 15979 
2 13733 13734 
2 13732 13733 
1 13732 19903 
2 19903 19904 
2 11051 11052 
2 21466 21467 
1 1785 21466 
2 21467 21468 
2 16472 16473 
2 16471 16472 
1 13452 16471 
2 13451 13452 
3 18074 18075 
3 18073 18074 
3 4946 4947 
3 4945 4946 
1 4945 8374 
3 18214 18215 
1 18214 20028 
3 18215 18216 
2 8374 8375 
1 4947 9639 
2 8375 8376 
1 8376 8598 
2 18767 18768 
2 15722 15723 
1 15723 18766 
2 18766 18767 
2 12716 12717 
2 12715 12716 
1 12715 17845 
3 4508 4509 
3 17845 17846 
3 17846 17847 
3 6860 6861 
3 6859 6860 
3 1042 1043 
1 1042 19815 
3 1043 1044 
1 1044 6859 
2 4130 4131 
3 2053 2054 
1 2053 4131 
3 2054 2055 
1 3756 18099 
3 20027 20028 
2 12671 12672 
2 7333 7334 
1 7333 21532 
2 21532 21533 
2 12670 12671 
3 3754 3755 
1 3754 12670 
3 3755 3756 
2 21533 21534 
1 2619 21534 
3 2618 2619 
1 9069 15504 
2 1139 1140 
2 15503 15504 
1 1140 15502 
2 15502 15503 
2 752 753 
1 753 21229 
2 2077 2078 
2 2078 2079 
2 124 125 
1 124 2079 
2 125 126 
2 7144 7145 
2 4327 4328 
1 4327 7144 
2 4328 4329 
2 3001 3002 
1 3001 4329 
1 18960 21288 
1 1446 21286 
2 21286 21287 
2 21287 21288 
2 151 152 
1 151 9835 
2 9836 9837 
2 9835 9836 
2 12506 12507 
2 152 153 
1 1341 12505 
2 12505 12506 
2 6035 6036 
2 14093 14094 
2 14092 14093 
1 6036 14092 
2 7651 7652 
1 7651 19581 
2 19580 19581 
2 19579 19580 
2 7652 7653 
3 11458 11459 
1 11458 11557 
3 11459 11460 
3 7901 7902 
1 9768 10653 
3 9767 9768 
3 9766 9767 
3 7900 7901 
1 7900 9766 
3 11558 11559 
3 11557 11558 
2 12880 12881 
1 12880 14001 
1 2055 11598 
3 15926 15927 
3 14000 14001 
1 2661 15927 
3 13999 14000 
1 13999 21201 
3 2660 2661 
3 2659 2660 
1 2659 12100 
3 2642 2643 
1 2643 14470 
3 14470 14471 
3 21200 21201 
3 12100 12101 
1 4080 9427 
3 2641 2642 
1 2641 19027 
2 19027 19028 
3 9427 9428 
2 6542 6543 
3 9428 9429 
1 6543 9429 
3 2404 2405 
1 2404 21141 
3 21229 21230 
3 21230 21231 
3 2405 2406 
1 2406 9391 
3 9391 9392 
3 9392 9393 
2 9118 9119 
2 67 68 
1 67 9118 
1 69 2193 
2 68 69 
3 2192 2193 
1 2298 19083 
1 5145 19081 
2 19081 19082 
2 19082 19083 
2 2863 2864 
2 17147 17148 
2 2864 2865 
1 2865 14569 
2 14569 14570 
2 17146 17147 
1 17146 20353 
2 14570 14571 
2 21421 21422 
2 20353 20354 
1 20355 21421 
2 20354 20355 
2 1783 1784 
2 485 486 
2 8873 8874 
1 7932 19266 
2 7930 7931 
1 7930 8874 
2 7931 7932 
1 486 2559 
2 484 485 
1 484 1783 
2 1784 1785 
1 4152 14200 
3 14200 14201 
3 8339 8340 
3 7811 7812 
3 3187 3188 
3 8338 8339 
3 5420 5421 
3 2780 2781 
3 2779 2780 
1 2779 8338 
1 1848 20233 
3 5419 5420 
1 3189 5419 
3 20233 20234 
3 20234 20235 
1 7812 20235 
1 8340 20332 
3 3188 3189 
3 6895 6896 
1 6895 10107 
3 14471 14472 
3 20375 20376 
3 893 894 
3 10105 10106 
1 894 10105 
3 10106 10107 
1 11856 20376 
3 3209 3210 
1 4584 6093 
2 10933 10934 
1 2715 10933 
2 21320 21321 
3 2713 2714 
1 2713 3210 
3 2714 2715 
2 21319 21320 
3 14144 14145 
3 14143 14144 
1 14143 21319 
3 10435 10436 
1 10435 14145 
3 8521 8522 
1 8521 16900 
2 16900 16901 
2 16901 16902 
3 8522 8523 
3 962 963 
3 961 962 
1 961 6091 
3 6091 6092 
3 6092 6093 
2 18640 18641 
2 155 156 
2 18953 18954 
2 18952 18953 
2 12527 12528 
2 12526 12527 
1 12526 18954 
1 3321 6252 
1 156 3319 
2 3319 3320 
2 3320 3321 
2 18641 18642 
2 15517 15518 
1 15517 18642 
2 15518 15519 
1 5310 18952 
2 7916 7917 
1 7917 15021 
2 7915 7916 
1 7915 13381 
2 13381 13382 
1 8691 13872 
2 8689 8690 
1 8689 11052 
2 7387 7388 
1 7387 19905 
2 8690 8691 
2 19904 19905 
3 4151 4152 
2 7388 7389 
1 7389 9649 
2 17672 17673 
2 17671 17672 
1 16473 17671 
3 4150 4151 
1 4150 17673 
3 2963 2964 
3 2962 2963 
1 2962 18073 
3 9638 9639 
3 9637 9638 
1 9637 10209 
3 10208 10209 
3 16301 16302 
1 16302 17634 
3 17633 17634 
3 16300 16301 
1 16300 18768 
3 17632 17633 
3 16244 16245 
3 16243 16244 
1 16243 20389 
3 20389 20390 
3 20390 20391 
3 10288 10289 
3 10289 10290 
3 9169 9170 
1 2964 10288 
1 6861 9169 
3 9170 9171 
3 5074 5075 
1 5074 9171 
1 16245 17847 
3 5735 5736 
3 5734 5735 
1 5734 13755 
3 13754 13755 
3 2161 2162 
1 2161 2617 
3 2162 2163 
1 2163 20049 
3 2617 2618 
3 18098 18099 
3 18097 18098 
1 5736 20026 
3 7060 7061 
1 7060 18097 
3 20026 20027 
3 9067 9068 
1 2733 9067 
3 2732 2733 
3 9068 9069 
3 15566 15567 
3 14038 14039 
1 14038 15567 
3 2731 2732 
3 15565 15566 
1 7146 15565 
3 10438 10439 
2 15728 15729 
3 3508 3509 
1 3508 15729 
3 3509 3510 
3 10439 10440 
1 10440 19995 
2 15727 15728 
2 7145 7146 
1 126 10438 
3 19994 19995 
2 1445 1446 
1 153 15727 
3 10628 10629 
2 12743 12744 
1 10629 12744 
3 10627 10628 
2 12742 12743 
1 12742 14094 
2 17216 17217 
2 17215 17216 
1 7653 17215 
3 21508 21509 
3 21509 21510 
3 12556 12557 
1 12556 21510 
1 7902 10116 
3 12557 12558 
3 10115 10116 
1 405 11343 
3 11342 11343 
3 4507 4508 
1 4507 21508 
1 3984 11596 
3 11596 11597 
3 3983 3984 
3 19330 19331 
1 19330 21199 
3 19331 19332 
3 21199 21200 
3 16648 16649 
1 16648 19332 
3 11597 11598 
3 3982 3983 
3 7061 7062 
3 4078 4079 
1 4078 8602 
3 8602 8603 
3 8603 8604 
3 4079 4080 
3 1319 1320 
1 1320 21231 
3 1318 1319 
1 1318 19642 
3 19642 19643 
3 10424 10425 
3 10423 10424 
1 10423 16362 
3 2191 2192 
1 2191 10425 
1 4797 9393 
3 19643 19644 
3 4796 4797 
3 4795 4796 
1 4795 11772 
3 11771 11772 
3 16361 16362 
3 1558 1559 
1 1558 20400 
2 1444 1445 
1 1444 1560 
3 1559 1560 
3 12524 12525 
1 12525 17445 
3 12523 12524 
2 2296 2297 
1 2296 12523 
2 2297 2298 
2 21442 21443 
1 17148 21442 
2 3194 3195 
1 3195 13485 
3 13484 13485 
2 21443 21444 
2 3193 3194 
1 3193 14571 
1 19170 19264 
2 19168 19169 
2 19169 19170 
2 19264 19265 
2 19265 19266 
2 2557 2558 
2 2558 2559 
1 14202 18774 
2 18773 18774 
3 14201 14202 
2 18772 18773 
3 10114 10115 
1 10114 21228 
3 15893 15894 
1 15894 21486 
3 8219 8220 
3 7810 7811 
1 7810 8220 
3 21485 21486 
3 8218 8219 
1 8218 9478 
3 9478 9479 
3 21484 21485 
1 2781 21484 
1 714 3187 
3 12101 12102 
1 7617 12102 
3 7616 7617 
3 6896 6897 
1 6897 13173 
3 7615 7616 
1 7615 10897 
3 13172 13173 
3 13171 13172 
1 13171 21172 
3 21172 21173 
3 352 353 
1 352 14472 
3 353 354 
1 354 15681 
1 10437 18009 
3 18008 18009 
3 18007 18008 
3 10436 10437 
3 3208 3209 
1 3208 4428 
3 4427 4428 
3 4426 4427 
1 4426 21112 
3 21112 21113 
3 5584 5585 
1 5584 17967 
3 17966 17967 
3 11315 11316 
3 17965 17966 
1 963 17965 
3 5308 5309 
1 5308 11314 
1 3090 8523 
3 5309 5310 
3 11314 11315 
2 6353 6354 
1 6354 7837 
3 3089 3090 
3 3088 3089 
1 3088 5332 
3 5332 5333 
3 7837 7838 
3 7838 7839 
3 17098 17099 
3 17099 17100 
3 5333 5334 
2 6352 6353 
1 6352 15519 
1 12645 17098 
2 154 155 
1 154 17100 
2 13870 13871 
2 15019 15020 
1 6420 15019 
3 6419 6420 
3 6418 6419 
1 6418 12948 
2 15020 15021 
2 13871 13872 
1 4395 9651 
3 4394 4395 
2 9650 9651 
3 4393 4394 
1 4393 19549 
2 19549 19550 
2 9649 9650 
3 11837 11838 
3 21334 21335 
3 21335 21336 
3 10207 10208 
1 10207 17589 
2 6641 6642 
3 17588 17589 
2 6640 6641 
1 6640 17587 
3 17587 17588 
3 7570 7571 
1 7570 17632 
1 10290 15964 
3 15964 15965 
1 13764 20391 
3 15965 15966 
1 15966 17172 
3 17171 17172 
3 13763 13764 
3 5075 5076 
3 19354 19355 
3 13753 13754 
1 13753 19354 
3 20048 20049 
3 11533 11534 
1 11533 19356 
3 19355 19356 
3 20047 20048 
3 4036 4037 
1 4036 20047 
3 20009 20010 
3 7571 7572 
1 4038 11032 
3 11032 11033 
1 7572 20008 
3 20008 20009 
3 4037 4038 
1 561 2731 
1 14040 16515 
3 14039 14040 
3 16514 16515 
3 16513 16514 
1 16513 20787 
3 560 561 
3 559 560 
1 559 6808 
1 3510 16705 
3 16705 16706 
3 16706 16707 
2 1828 1829 
1 1828 16707 
3 15827 15828 
1 15828 20398 
3 19993 19994 
3 14929 14930 
1 14929 19993 
3 14930 14931 
3 15826 15827 
1 15826 19486 
2 1829 1830 
1 5988 10627 
2 18662 18663 
3 5986 5987 
1 5986 18661 
2 18661 18662 
3 5987 5988 
3 5743 5744 
1 5743 9831 