ITEM: TIMESTEP
80000000
ITEM: NUMBER OF ENTRIES
740
ITEM: BOX BOUNDS pp pp pp
0 50
0 50
0 50
ITEM: ENTRIES c_binfo[1] c_binfo[2] c_binfo[3] 
3 12439 12440 
3 15523 15524 
1 12441 15523 
1 10008 12439 
3 12440 12441 
2 2147 2148 
3 7168 7169 
2 2146 2147 
3 18599 18600 
3 18598 18599 
3 15898 15899 
1 15898 16311 
3 15899 15900 
1 6243 8343 
3 6242 6243 
3 6241 6242 
1 6241 20436 
3 20435 20436 
3 11276 11277 
3 436 437 
2 100 101 
1 100 436 
1 102 7944 
2 101 102 
3 437 438 
2 7943 7944 
3 16310 16311 
3 16309 16310 
3 1091 1092 
3 8738 8739 
1 438 20434 
3 20434 20435 
1 1092 3985 
3 18800 18801 
3 3985 3986 
3 3986 3987 
1 3987 18801 
3 18799 18800 
3 17194 17195 
1 14808 17194 
3 14807 14808 
3 3092 3093 
3 14806 14807 
3 3091 3092 
1 3091 14806 
1 3093 7942 
2 7942 7943 
2 18169 18170 
1 18169 18799 
1 1416 18210 
2 18170 18171 
3 1414 1415 
1 1414 18171 
3 1415 1416 
3 13399 13400 
1 7809 13399 
1 1194 19842 
3 1193 1194 
3 1192 1193 
1 1192 11031 
2 11030 11031 
3 8737 8738 
1 8737 11029 
2 11029 11030 
3 13829 13830 
3 19174 19175 
2 1669 1670 
1 1669 5235 
3 19175 19176 
2 1670 1671 
3 12838 12839 
1 12838 15753 
3 15752 15753 
3 13828 13829 
2 8539 8540 
1 8539 13828 
2 8540 8541 
1 8541 19176 
3 3113 3114 
3 3112 3113 
1 3112 6580 
1 11154 19174 
3 6580 6581 
3 11153 11154 
3 11152 11153 
1 6582 11152 
3 6581 6582 
1 14511 20034 
3 21326 21327 
1 8799 21325 
3 21325 21326 
1 1671 10675 
1 4002 15900 
3 10675 10676 
3 15751 15752 
3 4000 4001 
1 4000 15751 
3 14510 14511 
1 10677 14509 
3 10676 10677 
3 14509 14510 
3 4001 4002 
1 7248 17571 
3 7247 7248 
3 17570 17571 
1 4416 14986 
3 4415 4416 
3 8480 8481 
3 8479 8480 
1 8479 11277 
1 2958 3114 
3 2957 2958 
3 2956 2957 
1 2956 4414 
3 4414 4415 
3 10280 10281 
3 10279 10280 
3 5683 5684 
1 5683 15405 
3 20033 20034 
3 15404 15405 
3 11275 11276 
1 11275 16309 
3 20032 20033 
3 2707 2708 
1 2707 20032 
1 2709 10281 
3 3305 3306 
3 3304 3305 
1 3304 12135 
3 2708 2709 
1 3306 14620 
3 14620 14621 
3 5684 5685 
3 14621 14622 
1 5685 8797 
3 8797 8798 
3 8798 8799 
3 1235 1236 
3 7246 7247 
1 7246 14622 
3 11044 11045 
3 11045 11046 
1 1236 11046 
3 14986 14987 
3 15887 15888 
3 15886 15887 
1 9399 15886 
3 16373 16374 
1 14988 16374 
3 16372 16373 
1 16372 20457 
3 14987 14988 
1 15888 21544 
3 21544 21545 
3 3988 3989 
3 1934 1935 
1 1935 3735 
3 7301 7302 
3 3989 3990 
1 3828 11745 
3 3826 3827 
1 3826 7302 
1 8481 21546 
3 7300 7301 
1 7300 10279 
3 3734 3735 
3 21545 21546 
3 3827 3828 
3 13423 13424 
3 16652 16653 
3 12134 12135 
3 3733 3734 
1 3733 12133 
3 12133 12134 
3 15403 15404 
3 9793 9794 
1 9793 13423 
3 5959 5960 
1 5959 9795 
3 2974 2975 
1 2974 3988 
3 2975 2976 
3 9794 9795 
1 2976 15403 
3 11608 11609 
1 11608 16653 
1 15525 16651 
1 15204 17544 
1 5961 11044 
3 16651 16652 
1 12999 15202 
3 5960 5961 
3 15203 15204 
3 15202 15203 
3 12997 12998 
1 12997 14577 
3 12998 12999 
3 15524 15525 
3 7169 7170 
3 8671 8672 
3 8672 8673 
1 1113 13924 
2 1111 1112 
2 1112 1113 
3 13924 13925 
1 13926 17196 
3 13925 13926 
3 17195 17196 
3 8014 8015 
1 4446 8014 
1 2106 11062 
3 18208 18209 
1 16545 18208 
3 16544 16545 
3 16543 16544 
3 2104 2105 
1 2104 16543 
3 2105 2106 
3 18413 18414 
3 18209 18210 
3 19841 19842 
3 11753 11754 
3 19840 19841 
3 11752 11753 
1 11752 19840 
1 11754 18414 
3 13400 13401 
1 4857 12129 
3 8204 8205 
3 1480 1481 
1 1480 8205 
3 1481 1482 
1 1482 13401 
3 11062 11063 
3 11063 11064 
3 8015 8016 
1 11370 12654 
3 18412 18413 
3 12652 12653 
1 12652 18412 
3 12653 12654 
3 11369 11370 
3 11368 11369 
3 8203 8204 
1 8203 17361 
3 5651 5652 
3 17360 17361 
3 17359 17360 
3 5650 5651 
1 5650 17359 
3 16148 16149 
1 4524 16149 
3 4523 4524 
3 12127 12128 
3 4522 4523 
1 4522 12127 
3 12128 12129 
2 17876 17877 
2 17875 17876 
1 13839 17875 
3 13838 13839 
3 13837 13838 
3 14713 14714 
3 14714 14715 
2 12040 12041 
1 12040 13806 
2 13804 13805 
1 13804 16077 
2 13805 13806 
3 16076 16077 
3 16075 16076 
3 15973 15974 
3 15974 15975 
1 15975 16147 
3 16147 16148 
1 11007 16075 
2 12041 12042 
1 14682 16222 
3 16223 16224 
3 16222 16223 
3 14681 14682 
3 14680 14681 
3 3586 3587 
1 3586 17719 
2 17719 17720 
3 3587 3588 
3 20656 20657 
3 20657 20658 
3 13655 13656 
1 3588 13654 
3 13654 13655 
1 13656 20455 
3 20455 20456 
3 20456 20457 
3 11744 11745 
3 4445 4446 
3 5294 5295 
3 9397 9398 
1 9397 20658 
3 4444 4445 
1 4444 18438 
3 11743 11744 
3 6949 6950 
1 6949 11743 
3 6950 6951 
1 5295 6951 
3 3748 3749 
1 3748 13104 
3 9398 9399 
1 3990 9799 
3 9799 9800 
3 1933 1934 
1 1933 18436 
3 18436 18437 
3 18437 18438 
3 4781 4782 
3 9800 9801 
1 9801 13102 
3 13102 13103 
3 13103 13104 
3 9634 9635 
1 9634 19735 
3 19735 19736 
3 19736 19737 
3 9635 9636 
1 4782 20883 
3 13424 13425 
1 9636 13425 
3 20881 20882 
3 20882 20883 
1 11610 20881 
3 14575 14576 
1 14575 20256 
3 20255 20256 
3 20254 20255 
3 19036 19037 
1 19036 20254 
3 19037 19038 
3 11609 11610 
3 14576 14577 
3 15560 15561 
3 19768 19769 
3 15559 15560 
1 15559 19768 
3 19769 19770 
2 17720 17721 
2 16424 16425 
3 5293 5294 
3 1069 1070 
1 1069 16423 
2 16423 16424 
1 1071 5293 
3 1070 1071 
3 2300 2301 
1 1149 2301 
3 13519 13520 
1 660 13519 
3 3749 3750 
3 659 660 
3 1147 1148 
1 1147 3750 
3 1148 1149 
3 658 659 
1 658 17758 
3 17758 17759 
1 1392 7128 
3 4780 4781 
1 4780 8190 
1 17760 19737 
3 18584 18585 
3 17759 17760 
2 1045 1046 
1 1045 18583 
3 18583 18584 
2 1046 1047 
3 1391 1392 
3 8189 8190 
3 8188 8189 
3 1390 1391 
1 1390 8188 
1 1047 19038 
3 4907 4908 
3 2111 2112 
3 2110 2111 
1 2110 4906 
3 4906 4907 
1 4908 11005 
2 11005 11006 
3 10327 10328 
1 10327 11805 
3 10328 10329 
1 2112 19770 
3 11804 11805 
3 11803 11804 
1 11803 21133 
3 21133 21134 
3 21134 21135 
3 13414 13415 
1 13414 13837 
3 13415 13416 
2 5461 5462 
1 5461 13416 
2 14954 14955 
2 3076 3077 
1 3076 14955 
3 2299 2300 
1 2299 5463 
2 5462 5463 
2 14953 14954 
1 14953 20760 
2 20759 20760 
2 20758 20759 
1 19548 20758 
1 13521 14715 
3 13520 13521 
3 7127 7128 
3 8950 8951 
1 8950 16660 
3 16660 16661 
3 16661 16662 
3 7126 7127 
1 7126 19546 
3 19546 19547 
3 19547 19548 
1 6903 16662 
3 8951 8952 
1 8952 18585 
3 7369 7370 
3 7370 7371 
2 11006 11007 
1 7371 21135 
2 3077 3078 
1 2220 3078 
2 2219 2220 
2 2218 2219 
1 2218 4545 
2 9386 9387 
2 16684 16685 
2 9385 9386 
1 9385 16686 
2 16685 16686 
2 6901 6902 
1 6901 16684 
2 6902 6903 
2 4543 4544 
1 4543 16224 
2 4544 4545 
2 15805 15806 
2 8293 8294 
1 8293 15805 
2 8294 8295 
1 8295 10737 
2 10736 10737 
2 15806 15807 
1 1182 2904 
2 1181 1182 
2 10735 10736 
3 6883 6884 
2 1180 1181 
1 1180 6883 
3 6884 6885 
3 18095 18096 
3 18094 18095 
1 7350 18094 
3 7349 7350 
3 7348 7349 
1 7348 16578 
1 14124 20871 
2 14122 14123 
1 14122 17742 
2 14123 14124 
2 20870 20871 
2 16577 16578 
2 16576 16577 
2 20869 20870 
1 15807 20869 
2 16048 16049 
1 3648 16048 
2 16049 16050 
3 2902 2903 
1 2902 16050 
3 2903 2904 
3 20299 20300 
3 6881 6882 
1 6882 20299 
3 6880 6881 
1 6880 15073 
3 15073 15074 
1 18096 20301 
3 20300 20301 
3 9337 9338 
1 9337 17740 
3 9338 9339 
3 21305 21306 
3 21304 21305 
1 9339 21304 
3 17740 17741 
1 2457 10023 
3 17741 17742 
3 2456 2457 
3 2455 2456 
1 2455 15837 
3 3647 3648 
3 3646 3647 
1 3646 15835 
2 15836 15837 
2 15835 15836 
2 20987 20988 
3 12043 12044 
1 12043 20988 
2 20986 20987 
3 12044 12045 
2 18625 18626 
1 18625 20986 
2 18626 18627 
3 8342 8343 
3 907 908 
3 8341 8342 
1 909 8341 
3 908 909 
3 15992 15993 
1 15993 21345 
3 21344 21345 
3 21343 21344 
2 6793 6794 
1 6793 21343 
2 6794 6795 
3 2251 2252 
1 2251 13830 
3 2252 2253 
3 11894 11895 
3 5114 5115 
3 5113 5114 
1 5113 12481 
3 12481 12482 
3 12482 12483 
3 13517 13518 
1 12483 13516 
3 13516 13517 
2 14852 14853 
2 14851 14852 
1 14851 19957 
3 19957 19958 
2 15385 15386 
1 15385 16293 
3 16292 16293 
3 16291 16292 
1 16291 17919 
2 17918 17919 
3 14048 14049 
2 9913 9914 
1 9913 14049 
2 17917 17918 
1 9915 17917 
2 9914 9915 
3 14047 14048 
3 11893 11894 
1 11893 12840 
3 12839 12840 
1 5115 5233 
3 5233 5234 
3 18964 18965 
1 3441 17569 
3 5234 5235 
3 10298 10299 
3 3440 3441 
3 10297 10298 
3 3439 3440 
1 3439 10297 
1 10299 19959 
3 17569 17570 
3 3535 3536 
3 12158 12159 
3 12157 12158 
3 18965 18966 
3 19958 19959 
3 3976 3977 
1 3976 19243 
3 19243 19244 
3 7969 7970 
1 7969 18966 
3 7970 7971 
1 7971 12157 
3 3536 3537 
1 1005 14307 
2 15386 15387 
3 13475 13476 
3 590 591 
2 14305 14306 
3 1004 1005 
1 13476 15387 
3 13474 13475 
1 13474 19245 
2 14306 14307 
3 19244 19245 
3 1003 1004 
1 1003 3535 
2 17300 17301 
3 8530 8531 
1 8530 17301 
2 17299 17300 
1 6936 10006 
3 10006 10007 
3 6935 6936 
3 6934 6935 
1 6934 20218 
3 20218 20219 
3 20219 20220 
3 10007 10008 
3 2806 2807 
1 2806 19992 
1 20220 21306 
3 10672 10673 
1 10672 12292 
3 10673 10674 
1 2808 10021 
3 10021 10022 
3 2807 2808 
3 12292 12293 
3 10022 10023 
3 12293 12294 
1 12045 12294 
3 19991 19992 
3 8855 8856 
1 8856 14964 
1 10674 21390 
3 21388 21389 
3 21389 21390 
3 8854 8855 
1 8854 21388 
3 15991 15992 
3 3808 3809 
1 3808 15991 
3 1090 1091 
1 1090 3810 
3 3809 3810 
3 3253 3254 
1 3253 8739 
3 3254 3255 
1 3255 12313 
3 12313 12314 
1 14139 18756 
3 14138 14139 
3 7808 7809 
3 14137 14138 
3 7807 7808 
1 7807 14137 
3 4855 4856 
1 4855 20164 
3 20164 20165 
3 4856 4857 
3 14077 14078 
1 14077 18964 
3 2500 2501 
3 12314 12315 
1 12315 13536 
3 2501 2502 
3 14078 14079 
1 2502 14079 
1 3366 11169 
3 1234 1235 
1 1234 2500 
1 15075 21327 
3 15074 15075 
3 3977 3978 
1 3537 4783 
3 13535 13536 
3 3365 3366 
3 13534 13535 
3 3364 3365 
1 3364 4785 
3 4783 4784 
3 4784 4785 
1 3978 13534 
3 9014 9015 
3 9013 9014 
1 2706 9013 
3 589 590 
1 589 17296 
3 17296 17297 
1 9015 17298 
3 17297 17298 
3 10636 10637 
1 10636 11056 
3 10637 10638 
3 11056 11057 
3 11057 11058 
3 8531 8532 
1 8532 10638 
3 17543 17544 
3 11167 11168 
1 11167 17542 
3 11168 11169 
3 17542 17543 
3 18221 18222 
3 18755 18756 
3 18220 18221 
1 6801 18220 
3 18754 18755 
3 19990 19991 
3 6799 6800 
1 6799 19990 
3 2704 2705 
1 2704 18754 
3 6800 6801 
3 2705 2706 
1 3609 10860 
3 10859 10860 
3 10858 10859 
3 3608 3609 
3 3607 3608 
1 3607 11058 
1 3084 15561 
3 3083 3084 
3 8914 8915 
1 8914 20166 
3 3082 3083 
1 3082 13642 
3 13642 13643 
3 8915 8916 
1 13644 18222 
3 13643 13644 
3 12448 12449 
1 12448 20719 
3 14962 14963 
1 14962 20721 
3 14963 14964 
3 5656 5657 
1 5656 8916 
3 20720 20721 
3 5657 5658 
1 5658 10858 
3 20719 20720 
1 10329 18079 
1 12450 18081 
3 18079 18080 
3 18080 18081 
3 20165 20166 
3 12449 12450 
