ITEM: TIMESTEP
80000000
ITEM: NUMBER OF ENTRIES
3848
ITEM: BOX BOUNDS pp pp pp
0 50
0 50
0 50
ITEM: ENTRIES c_binfo[1] c_binfo[2] c_binfo[3] 
2 2650 2651 
2 845 846 
3 20707 20708 
2 18284 18285 
2 18283 18284 
3 5944 5945 
1 5944 18283 
3 5426 5427 
2 8023 8024 
2 8024 8025 
2 9998 9999 
2 1939 1940 
3 14290 14291 
2 1940 1941 
1 1941 14290 
2 18973 18974 
2 18974 18975 
1 18384 18975 
2 5372 5373 
2 18383 18384 
2 5371 5372 
1 5371 15661 
2 4639 4640 
2 4640 4641 
1 7911 20859 
3 7909 7910 
3 7910 7911 
3 21007 21008 
1 14292 21007 
3 14291 14292 
3 20929 20930 
3 20930 20931 
1 8259 20931 
3 8258 8259 
3 796 797 
3 797 798 
1 798 18196 
2 18196 18197 
2 18197 18198 
2 844 845 
1 844 6813 
1 6537 18198 
2 6535 6536 
1 6535 14797 
2 6536 6537 
3 6812 6813 
2 14797 14798 
2 15661 15662 
2 2651 2652 
1 2652 12310 
2 12310 12311 
2 9299 9300 
2 12311 12312 
1 9300 12312 
2 3718 3719 
2 3719 3720 
3 3797 3798 
3 3796 3797 
1 3796 19374 
2 19373 19374 
2 19372 19373 
1 3720 10072 
1 3783 19372 
3 2440 2441 
1 2440 8257 
3 8257 8258 
3 20708 20709 
1 2100 20709 
2 2099 2100 
2 2098 2099 
1 2098 12774 
3 2441 2442 
1 2442 6198 
2 13772 13773 
1 14508 19368 
3 6811 6812 
2 19366 19367 
2 13771 13772 
1 13771 19366 
2 547 548 
1 547 6811 
2 19367 19368 
2 548 549 
1 549 1788 
2 1787 1788 
2 5408 5409 
3 21254 21255 
2 10073 10074 
2 10072 10073 
2 5407 5408 
1 5407 21255 
2 3782 3783 
3 17717 17718 
3 17716 17717 
1 15618 17716 
2 6191 6192 
3 12772 12773 
1 6192 12772 
3 12773 12774 
3 16631 16632 
2 15617 15618 
2 6190 6191 
1 6190 18429 
3 6082 6083 
3 6083 6084 
3 12371 12372 
3 12370 12371 
2 6940 6941 
1 6940 12370 
2 6941 6942 
3 21253 21254 
1 6942 13206 
3 5945 5946 
3 15169 15170 
1 15169 15616 
3 16630 16631 
1 16630 21487 
1 5946 18469 
3 18469 18470 
3 18470 18471 
3 21487 21488 
2 15616 15617 
3 21488 21489 
1 8847 21489 
3 13205 13206 
1 18471 19474 
3 19474 19475 
1 6450 19476 
3 19475 19476 
3 6449 6450 
3 6448 6449 
2 14939 14940 
2 14938 14939 
3 5425 5426 
1 5425 14938 
1 14940 15732 
2 15731 15732 
2 15730 15731 
1 8025 19491 
1 3930 19906 
3 19906 19907 
2 18088 18089 
3 19907 19908 
2 20699 20700 
1 1803 15730 
3 7996 7997 
1 7996 20698 
2 1802 1803 
2 1801 1802 
1 1801 15198 
3 15197 15198 
3 7997 7998 
2 20698 20699 
3 19490 19491 
3 19489 19490 
3 2683 2684 
1 2683 19489 
3 2684 2685 
3 2195 2196 
3 2194 2195 
1 2194 9997 
2 9997 9998 
2 10619 10620 
2 5402 5403 
2 5401 5402 
1 5401 9000 
2 8999 9000 
2 7535 7536 
2 7534 7535 
1 7534 19345 
3 19345 19346 
2 18382 18383 
2 16531 16532 
1 16531 18382 
3 64 65 
1 64 4641 
2 3929 3930 
2 15662 15663 
2 3928 3929 
1 3928 13692 
3 13691 13692 
3 13690 13691 
2 8998 8999 
1 8998 10947 
3 20858 20859 
1 1161 13690 
1 7998 18358 
3 18358 18359 
3 18359 18360 
3 5368 5369 
1 5368 18360 
3 5369 5370 
3 65 66 
3 1160 1161 
1 2196 9564 
3 9562 9563 
1 9562 19329 
3 19328 19329 
3 9563 9564 
3 15196 15197 
1 2685 20278 
2 17483 17484 
2 3421 3422 
1 3421 16533 
2 3422 3423 
2 17482 17483 
1 17482 21279 
3 21278 21279 
3 21277 21278 
1 3423 10873 
2 16532 16533 
1 14799 14860 
2 14798 14799 
3 10996 10997 
1 10996 15663 
2 14860 14861 
2 14861 14862 
3 10997 10998 
1 10998 12454 
3 12454 12455 
3 12455 12456 
1 4719 9298 
2 9298 9299 
1 66 19518 
3 20857 20858 
3 19517 19518 
3 19516 19517 
1 9861 19516 
3 9860 9861 
3 9859 9860 
3 9175 9176 
1 9175 20857 
3 19327 19328 
1 3024 5370 
3 9176 9177 
3 19033 19034 
1 19033 19327 
1 1050 9177 
3 1049 1050 
3 1048 1049 
1 1048 20622 
3 19034 19035 
3 3023 3024 
3 3022 3023 
1 3022 15132 
3 6197 6198 
3 6643 6644 
1 6643 21277 
2 11579 11580 
3 14506 14507 
1 14506 16009 
3 16009 16010 
3 16010 16011 
3 14507 14508 
3 4718 4719 
3 11878 11879 
1 11878 14862 
1 14073 16011 
3 11879 11880 
3 20836 20837 
3 16453 16454 
1 16453 20836 
3 14072 14073 
3 20837 20838 
3 16454 16455 
2 1786 1787 
1 1786 20838 
1 8040 9859 
3 4717 4718 
1 4717 10240 
3 10240 10241 
3 10241 10242 
1 4899 10242 
3 4898 4899 
3 4897 4898 
1 4897 17067 
2 3781 3782 
1 3781 19827 
3 14545 14546 
1 14545 21253 
3 8039 8040 
3 19826 19827 
3 19825 19826 
1 11784 19825 
3 20621 20622 
3 20620 20621 
3 14350 14351 
1 14350 20620 
3 11783 11784 
1 3531 19636 
3 3530 3531 
3 3529 3530 
1 3529 16032 
3 16031 16032 
3 16030 16031 
1 6084 16030 
3 17516 17517 
3 4013 4014 
1 14547 17265 
1 612 16455 
3 611 612 
3 610 611 
1 610 10770 
3 14546 14547 
3 17264 17265 
3 4012 4013 
1 4012 17515 
3 17515 17516 
3 11636 11637 
3 11782 11783 
1 11782 18021 
3 18020 18021 
3 18019 18020 
3 17263 17264 
3 5629 5630 
1 5629 18019 
3 11635 11636 
1 11635 17263 
1 1842 8845 
3 8845 8846 
3 8846 8847 
3 19460 19461 
2 9946 9947 
2 9947 9948 
1 9948 13080 
2 14551 14552 
2 14552 14553 
2 13082 13083 
1 13083 14553 
3 5926 5927 
1 5926 13081 
2 13081 13082 
3 5927 5928 
3 32 33 
3 10795 10796 
3 10796 10797 
3 31 32 
1 31 5433 
2 4237 4238 
2 4238 4239 
1 10797 21027 
2 18089 18090 
3 6577 6578 
1 6577 18090 
2 18125 18126 
2 18124 18125 
3 10648 10649 
1 10648 18124 
1 4239 5341 
3 5341 5342 
3 5342 5343 
3 6578 6579 
3 10649 10650 
3 6043 6044 
3 6044 6045 
1 2838 6045 
3 2837 2838 
3 13079 13080 
3 13078 13079 
1 13078 21349 
3 21349 21350 
3 21350 21351 
1 20244 21351 
3 2866 2867 
3 19346 19347 
3 667 668 
1 667 19347 
3 2867 2868 
2 5432 5433 
3 10946 10947 
3 3332 3333 
3 10945 10946 
1 10945 20325 
2 21026 21027 
2 21025 21026 
1 10326 21025 
3 10325 10326 
3 3331 3332 
1 3331 8637 
1 6579 10339 
3 10339 10340 
3 10340 10341 
3 8636 8637 
1 10341 12262 
3 12262 12263 
3 12263 12264 
1 14364 15196 
3 2836 2837 
1 2836 17788 
1 10650 15756 
3 14363 14364 
3 14362 14363 
3 13591 13592 
1 13591 14362 
3 13592 13593 
3 15755 15756 
3 15754 15755 
3 8782 8783 
1 8782 15754 
3 8783 8784 
1 741 13593 
3 19952 19953 
3 19951 19952 
1 7410 19951 
3 7409 7410 
3 7408 7409 
1 7408 7858 
3 7858 7859 
3 10873 10874 
2 10618 10619 
1 5832 10618 
3 5831 5832 
3 5830 5831 
1 5830 12156 
3 12155 12156 
3 12154 12155 
1 12154 21478 
3 21478 21479 
3 668 669 
1 669 12955 
1 78 2868 
3 10874 10875 
3 3025 3026 
1 3025 10875 
3 12955 12956 
3 20324 20325 
3 3026 3027 
3 20323 20324 
3 18691 18692 
1 18691 20323 
3 18692 18693 
3 12956 12957 
1 3027 10470 
3 1159 1160 
1 1159 14842 
3 14842 14843 
1 855 12456 
3 8635 8636 
1 8635 20286 
3 14843 14844 
3 14260 14261 
1 14260 14844 
3 14261 14262 
3 2764 2765 
1 2764 18693 
3 854 855 
3 2765 2766 
3 20285 20286 
3 10000 10001 
1 10000 14262 
3 10174 10175 
1 10174 12264 
3 15131 15132 
3 10175 10176 
1 10176 20446 
3 20446 20447 
3 20447 20448 
3 15130 15131 
3 12067 12068 
1 12067 15130 
2 14068 14069 
3 6644 6645 
1 4686 11578 
2 11578 11579 
3 4685 4686 
3 2179 2180 
3 2180 2181 
1 2181 8151 
3 21479 21480 
3 9688 9689 
1 9688 11880 
1 633 6645 
3 632 633 
3 631 632 
1 631 14286 
3 10469 10470 
3 9689 9690 
3 10468 10469 
1 10468 12690 
3 14285 14286 
3 14284 14285 
1 9690 16066 
3 16066 16067 
3 12689 12690 
3 853 854 
1 853 1507 
3 1507 1508 
3 1508 1509 
1 1509 9472 
3 9472 9473 
3 9473 9474 
3 16067 16068 
3 8038 8039 
1 9474 17706 
1 6816 8038 
3 6815 6816 
3 10001 10002 
3 6814 6815 
1 6814 13156 
3 13156 13157 
1 10002 18504 
3 18503 18504 
3 13157 13158 
3 18502 18503 
3 9850 9851 
1 9850 18502 
3 9851 9852 
3 12068 12069 
2 14069 14070 
1 2562 14070 
2 2561 2562 
3 4684 4685 
1 4684 7957 
3 7957 7958 
2 2560 2561 
1 2560 5967 
3 14071 14072 
1 14071 20842 
3 20842 20843 
3 7958 7959 
3 73 74 
1 73 7959 
1 75 7755 
3 20843 20844 
3 6118 6119 
1 6118 20844 
3 12490 12491 
1 12490 14284 
3 12491 12492 
3 74 75 
3 10769 10770 
3 6119 6120 
1 16068 18649 
3 18649 18650 
3 18650 18651 
1 8721 18651 
1 6120 12033 
3 10768 10769 
1 10768 16809 
3 8720 8721 
3 17066 17067 
3 17065 17066 
3 17705 17706 
3 17023 17024 
1 17023 17065 
1 17025 19861 
3 17024 17025 
3 17704 17705 
1 17704 18343 
3 18343 18344 
3 18344 18345 
3 19861 19862 
1 2226 13158 
1 8775 19459 
3 19459 19460 
2 10574 10575 
2 2980 2981 
3 19708 19709 
2 10573 10574 
1 10573 12858 
2 12857 12858 
2 2981 2982 
1 2982 19708 
2 8570 8571 
2 8569 8570 
1 8571 10197 
3 10196 10197 
2 17650 17651 
2 17651 17652 
1 16737 17652 
2 16736 16737 
3 8774 8775 
3 8773 8774 
1 8773 20259 
3 982 983 
1 982 7857 
3 983 984 
3 7856 7857 
2 20258 20259 
3 17938 17939 
1 17938 20994 
2 12856 12857 
1 12856 20992 
2 20257 20258 
3 12589 12590 
1 12589 20257 
3 20992 20993 
3 12590 12591 
3 20993 20994 
3 20243 20244 
3 5822 5823 
2 5431 5432 
1 5431 5821 
3 5821 5822 
3 3829 3830 
1 3829 5823 
3 10195 10196 
1 10195 13701 
2 16735 16736 
1 16735 19731 
3 10324 10325 
1 10324 18493 
3 13700 13701 
3 13699 13700 
1 13699 20815 
3 20815 20816 
3 18493 18494 
3 20816 20817 
3 361 362 
1 361 5343 
3 19730 19731 
3 7855 7856 
1 7855 18061 
3 18061 18062 
3 19729 19730 
3 4450 4451 
1 4450 19729 
3 4451 4452 
3 362 363 
1 363 2421 
3 18062 18063 
3 2420 2421 
3 4858 4859 
1 4858 12591 
3 4859 4860 
1 4860 8712 
3 2419 2420 
1 2419 14293 
3 3830 3831 
3 77 78 
3 76 77 
1 76 19093 
3 19093 19094 
3 19094 19095 
1 927 19095 
3 18494 18495 
1 3831 7950 
1 12957 18264 
3 18263 18264 
3 7949 7950 
3 7948 7949 
1 7948 10042 
3 18262 18263 
3 10042 10043 
3 1120 1121 
1 1120 18495 
3 349 350 
1 349 4452 
3 1121 1122 
1 1122 14830 
3 20284 20285 
3 14830 14831 
3 14831 14832 
3 350 351 
3 14794 14795 
1 14794 20284 
1 351 4087 
3 4087 4088 
1 15162 20448 
3 14795 14796 
3 14293 14294 
1 14796 15420 
1 14295 16549 
3 14294 14295 
3 16549 16550 
3 4088 4089 
1 4089 20127 
3 16550 16551 
2 20788 20789 
3 9263 9264 
3 9262 9263 
1 9262 9780 
3 8150 8151 
3 7859 7860 
1 16383 20790 
1 7860 13446 
3 13445 13446 
2 16382 16383 
2 16381 16382 
3 14548 14549 
1 14548 16381 
3 13444 13445 
3 14549 14550 
1 6336 13444 
1 4800 18262 
3 926 927 
1 16197 21480 
3 16196 16197 
3 16195 16196 
1 13257 16195 
3 13256 13257 
3 925 926 
1 925 15768 
3 4799 4800 
3 15767 15768 
3 12688 12689 
1 12688 14868 
3 4798 4799 
1 4798 13741 
1 2694 2766 
3 13741 13742 
3 13742 13743 
1 7629 13743 
3 12520 12521 
1 12520 14832 
3 2693 2694 
3 2692 2693 
1 2692 18489 
3 12521 12522 
3 14867 14868 
3 18488 18489 
3 15419 15420 
3 15418 15419 
3 6001 6002 
1 6001 15418 
3 6002 6003 
3 18487 18488 
1 12420 12522 
3 4333 4334 
1 4333 18487 
3 1057 1058 
1 1057 6003 
2 20789 20790 
3 14248 14249 
3 8206 8207 
1 8206 14248 
3 8149 8150 
3 5966 5967 
3 5965 5966 
1 5965 8208 
3 8207 8208 
1 6096 8149 
3 6095 6096 
1 14550 18924 
3 13255 13256 
3 6094 6095 
1 6094 8487 
3 3217 3218 
1 3217 13255 
3 18923 18924 
3 8486 8487 
3 8485 8486 
3 3218 3219 
3 14249 14250 
3 2698 2699 
1 2698 8485 
1 2115 2379 
3 2113 2114 
1 2113 12492 
1 3219 9406 
3 9406 9407 
3 7628 7629 
3 14866 14867 
1 10614 14866 
3 10613 10614 
3 10612 10613 
1 10612 12306 
3 2114 2115 
3 9407 9408 
3 7627 7628 
3 3433 3434 
1 3433 7627 
3 3434 3435 
3 7543 7544 
1 7543 11760 
3 13546 13547 
1 13546 18345 
3 12305 12306 
3 7544 7545 
3 4334 4335 
1 4335 7545 
2 10084 10085 
2 10085 10086 
1 5913 10084 
3 5912 5913 
3 3452 3453 
2 12988 12989 
2 12989 12990 
3 12694 12695 
3 12695 12696 
2 10552 10553 
1 10552 12696 
2 10553 10554 
3 14333 14334 
3 14332 14333 
3 10963 10964 
1 10963 14332 
3 5911 5912 
3 9358 9359 
1 9358 20817 
1 3042 5911 
3 3041 3042 
3 3040 3041 
1 3040 7431 
3 7430 7431 
3 7429 7430 
1 7429 18963 
3 3451 3452 
1 3451 13560 
3 10964 10965 
3 3962 3963 
3 13559 13560 
3 13558 13559 
1 4833 13558 
3 4832 4833 
3 3961 3962 
1 3961 18036 
3 18035 18036 
3 18034 18035 
3 10921 10922 
1 10921 18034 
3 10922 10923 
1 7872 18063 
3 7871 7872 
3 8011 8012 
1 8011 12990 
1 4293 10554 
3 8012 8013 
1 8013 16927 
3 16927 16928 
3 16928 16929 
3 3124 3125 
1 3124 16929 
3 7870 7871 
1 7870 15043 
3 4292 4293 
2 17879 17880 
2 17878 17879 
3 5995 5996 
1 5995 17878 
3 5996 5997 
1 5997 14602 
3 10043 10044 
1 10965 19287 
3 19286 19287 
3 19285 19286 
3 15226 15227 
1 15226 19285 
3 15227 15228 
3 9359 9360 
1 10044 21495 
3 14602 14603 
3 4831 4832 
1 4831 18826 
3 18826 18827 
3 18962 18963 
1 9360 12873 
3 12872 12873 
3 12871 12872 
1 12871 17511 
3 17510 17511 
3 18961 18962 
3 15283 15284 
1 15283 18961 
3 3052 3053 
1 3052 15228 
3 15284 15285 
3 3125 3126 
1 15045 16120 
3 15043 15044 
3 18827 18828 
1 18828 20241 
3 15044 15045 
3 20240 20241 
3 20239 20240 
1 6312 20239 
3 16120 16121 
2 19567 19568 
2 19568 19569 
1 19569 19803 
2 9779 9780 
2 9778 9779 
1 9778 15267 
2 6335 6336 
2 15266 15267 
2 6334 6335 
1 2697 6334 
2 19802 19803 
2 19801 19802 
3 2696 2697 
2 15265 15266 
1 11331 15265 
3 15766 15767 
1 10293 15766 
3 14603 14604 
1 14604 16408 
3 16408 16409 
3 16409 16410 
1 2703 16410 
3 10292 10293 
3 2695 2696 
1 2695 13105 
3 10291 10292 
3 21494 21495 
3 21493 21494 
1 12093 21493 
3 12092 12093 
3 12091 12092 
1 12091 18129 
3 17509 17510 
3 2702 2703 
3 6310 6311 
1 6310 6919 
3 21023 21024 
3 12419 12420 
3 15172 15173 
1 15172 17509 
3 15173 15174 
3 6311 6312 
3 20126 20127 
3 21022 21023 
3 20125 20126 
1 20125 21022 
1 6912 15174 
3 6911 6912 
3 12418 12419 
3 6910 6911 
3 6919 6920 
2 6469 6470 
3 472 473 
1 472 6471 
2 20329 20330 
2 20330 20331 
3 9080 9081 
1 9081 20331 
2 6470 6471 
3 9079 9080 
3 344 345 
3 11332 11333 
3 18922 18923 
1 10593 18922 
3 13105 13106 
1 345 9079 
3 13106 13107 
3 10591 10592 
1 10591 11332 
3 7117 7118 
1 7117 13107 
3 10592 10593 
3 7118 7119 
3 9643 9644 
1 9643 18741 
3 18128 18129 
3 1351 1352 
1 1351 10291 
3 18740 18741 
3 1352 1353 
1 1353 18739 
3 18739 18740 
1 17562 20122 
3 17561 17562 
3 18127 18128 
1 18127 20124 
3 1294 1295 
1 1294 6910 
1 8991 12418 
1 3435 9819 
3 9818 9819 
3 8990 8991 
3 8989 8990 
1 8989 12804 
3 20123 20124 
3 20122 20123 
3 6826 6827 
3 6827 6828 
2 11962 11963 
2 11963 11964 
1 11964 17838 
3 17837 17838 
1 6828 16717 
2 16717 16718 
2 16718 16719 
1 6270 16719 
3 6269 6270 
3 6268 6269 
1 6268 18004 
3 18004 18005 
3 17836 17837 
3 6436 6437 
1 6436 17836 
3 6437 6438 
1 6438 7581 
3 18005 18006 
3 7580 7581 
3 7579 7580 
1 7579 19050 
3 6266 6267 
3 6265 6266 
1 5673 6265 
3 5672 5673 
3 18251 18252 
3 15338 15339 
1 5595 15337 
3 15337 15338 
3 18250 18251 
3 12391 12392 
1 12391 18006 
3 12392 12393 
3 5671 5672 
1 5671 20923 
3 20923 20924 
3 20924 20925 
1 5196 12393 
3 19049 19050 
1 15285 15622 
3 15622 15623 
3 5195 5196 
3 19048 19049 
3 6287 6288 
3 5194 5195 
1 6288 19048 
1 3669 5194 
3 6286 6287 
3 9724 9725 
1 9724 13341 
3 5447 5448 
3 15623 15624 
3 5446 5447 
1 5446 6286 
1 3786 10923 
3 3784 3785 
1 3784 9726 
3 3785 3786 
3 9725 9726 
3 6667 6668 
2 20540 20541 
3 15481 15482 
1 15481 19801 
3 15482 15483 
2 20539 20540 
1 8514 10348 
3 8513 8514 
3 8512 8513 
1 8512 20539 
3 10348 10349 
3 9871 9872 
3 10349 10350 
1 10350 20055 
1 15483 17472 
3 17471 17472 
3 16459 16460 
1 16459 20925 
3 16460 16461 
3 17470 17471 
1 17470 18328 
3 18328 18329 
1 16461 16863 
3 3053 3054 
1 3054 3493 
3 2701 2702 
1 2701 5466 
3 3668 3669 
3 15509 15510 
3 3493 3494 
3 3494 3495 
3 3667 3668 
1 3667 15510 
3 2317 2318 
1 2317 3495 
3 16862 16863 
3 16861 16862 
3 16816 16817 
1 16816 16861 
3 21137 21138 
3 113 114 
1 114 15624 
3 112 113 
1 112 21136 
3 21136 21137 
3 15508 15509 
3 6668 6669 
3 473 474 
3 11330 11331 
3 11329 11330 
1 11329 20023 
3 9872 9873 
1 6669 9606 
3 5009 5010 
3 5008 5009 
1 5008 9604 
2 9605 9606 
2 9604 9605 
3 20023 20024 
3 4825 4826 
1 4825 9873 
1 7119 16026 
3 20024 20025 
3 16919 16920 
3 18370 18371 
3 18329 18330 
3 16918 16919 
1 16918 20025 
1 18330 18370 
3 16817 16818 
1 16818 20454 
3 2854 2855 
1 2854 5464 
3 2855 2856 
3 13417 13418 
1 13417 18372 
3 18371 18372 
3 16025 16026 
1 2856 13824 
3 2318 2319 
3 13418 13419 
3 20453 20454 
3 5464 5465 
3 5465 5466 
3 8164 8165 
3 1843 1844 
1 1843 8977 
3 8165 8166 
1 2319 8164 
3 1844 1845 
3 1295 1296 
1 1845 8166 
3 19636 19637 
3 19637 19638 
3 5968 5969 
1 5968 19134 
3 5969 5970 
1 19638 21523 
3 21523 21524 
1 4014 5970 
3 19133 19134 
1 4680 11637 
3 4679 4680 
3 8281 8282 
1 7554 8281 
3 4678 4679 
1 4678 15270 
3 8282 8283 
3 7553 7554 
3 15269 15270 
3 13204 13205 
1 8283 13204 
3 1841 1842 
3 19132 19133 
1 13731 19132 
3 7552 7553 
1 4842 7552 
3 13730 13731 
3 15775 15776 
3 9985 9986 
1 9985 15775 
3 9986 9987 
3 15776 15777 
3 4841 4842 
3 6742 6743 
1 6742 9987 
3 6743 6744 
3 7754 7755 
3 7753 7754 
1 7753 13752 
3 21524 21525 
3 12032 12033 
3 12031 12032 
2 1564 1565 
1 1564 12031 
3 16808 16809 
2 1565 1566 
1 1566 10210 
3 10210 10211 
3 16807 16808 
3 8863 8864 
1 8863 16807 
1 9018 19863 
3 8864 8865 
3 19862 19863 
2 9923 9924 
3 8719 8720 
1 8719 9924 
1 12180 21525 
2 12179 12180 
2 12178 12179 
1 12178 16132 
3 16132 16133 
3 16133 16134 
3 10211 10212 
1 16134 17401 
3 16528 16529 
3 13729 13730 
1 7233 8865 
3 4813 4814 
1 4813 13729 
3 4814 4815 
3 7232 7233 
3 7231 7232 
1 7231 11647 
3 11647 11648 
3 11648 11649 
3 15268 15269 
1 15268 16528 
1 11649 12927 
3 17044 17045 
1 5211 6744 
2 5210 5211 
3 17401 17402 
1 4815 17046 
3 17402 17403 
3 8842 8843 
1 8842 17403 
3 17045 17046 
3 8843 8844 
1 8844 20634 
2 5209 5210 
2 13751 13752 
2 13750 13751 
1 2700 18925 
2 4597 4598 
1 4597 13750 
2 18925 18926 
3 2699 2700 
2 2378 2379 
2 2377 2378 
1 2377 19410 
3 19409 19410 
3 19408 19409 
1 19408 19608 
2 18926 18927 
1 6447 9408 
2 9922 9923 
3 4216 4217 
1 4216 9922 
3 17591 17592 
3 4217 4218 
3 15253 15254 
1 15253 17592 
3 13547 13548 
3 17590 17591 
3 15254 15255 
3 12304 12305 
1 12304 17590 
2 4598 4599 
1 4599 18001 
3 18001 18002 
3 18002 18003 
1 9939 18003 
3 9938 9939 
3 9976 9977 
1 9976 10212 
3 19607 19608 
1 4218 16677 
3 9977 9978 
3 16676 16677 
1 9978 20029 
3 20029 20030 
3 19606 19607 
1 10032 19606 
3 10031 10032 
3 6790 6791 
1 6790 15255 
3 9937 9938 
1 4167 9937 
1 2364 16488 
3 20030 20031 
3 16486 16487 
1 16486 20031 
3 16487 16488 
3 2363 2364 
3 20633 20634 
3 3227 3228 
3 3226 3227 
1 3226 20632 
3 20632 20633 
1 3228 20904 
3 20902 20903 
1 20902 21142 
3 20903 20904 
3 21142 21143 
3 21143 21144 
3 11189 11190 
3 11188 11189 
1 11188 21246 
3 21245 21246 
1 14250 18876 
3 18875 18876 
3 18874 18875 
1 18874 19444 
3 19444 19445 
3 343 344 
1 343 19539 
3 19445 19446 
3 19538 19539 
3 4621 4622 
1 4621 18927 
3 11333 11334 
3 6446 6447 
1 7956 11334 
3 7955 7956 
3 6445 6446 
3 7954 7955 
1 7954 9883 
3 9883 9884 
3 3094 3095 
1 3094 6445 
3 9644 9645 
3 3095 3096 
3 9884 9885 
3 12673 12674 
1 3096 7863 
3 12674 12675 
1 10035 12675 
1 2724 9645 
3 2723 2724 
3 9817 9818 
1 9817 12673 
3 17560 17561 
1 1479 19446 
3 21244 21245 
1 5664 21244 
3 4622 4623 
3 1627 1628 
1 1627 4623 
3 1628 1629 
1 1629 14382 
3 1478 1479 
3 1477 1478 
1 1477 18619 
3 18619 18620 
1 4794 9885 
3 18620 18621 
3 6254 6255 
3 7862 7863 
3 14381 14382 
1 4431 6255 
3 7861 7862 
3 4429 4430 
1 4429 7861 
3 10030 10031 
1 10030 10843 
3 4430 4431 
3 10843 10844 
3 4793 4794 
3 4166 4167 
1 5700 10845 
3 10844 10845 
3 14380 14381 
3 4165 4166 
1 4165 6504 
1 12954 14380 
3 6503 6504 
3 12953 12954 
3 12952 12953 
3 1687 1688 
1 1687 12952 
3 1688 1689 
3 11813 11814 
3 6502 6503 
3 11812 11813 
1 2190 11812 
3 2188 2189 
1 2188 6502 
3 2189 2190 
2 6442 6443 
1 6442 21144 
3 6379 6380 
1 5010 6379 
1 474 2760 
3 17245 17246 
3 2759 2760 
3 19537 19538 
3 2758 2759 
3 568 569 
1 568 2758 
3 569 570 
1 11430 19537 
3 17246 17247 
1 570 6100 
1 11613 17247 
3 11429 11430 
1 16920 17245 
3 6124 6125 
1 6124 13419 
3 11611 11612 
1 11611 18453 
3 11612 11613 
3 7864 7865 
1 7864 16024 
1 7866 20352 
3 20351 20352 
3 7865 7866 
3 16024 16025 
3 11428 11429 
1 11428 14893 
3 13493 13494 
3 6769 6770 
1 6769 13492 
3 13492 13493 
3 6770 6771 
1 6771 13822 
3 13822 13823 
3 2722 2723 
1 2722 10351 
3 10351 10352 
3 2542 2543 
1 2542 17560 
3 10352 10353 
3 2543 2544 
3 13823 13824 
3 6100 6101 
3 5663 5664 
3 5662 5663 
1 5662 14427 
3 6101 6102 
3 14426 14427 
3 14425 14426 
1 6102 12726 
3 12725 12726 
3 14893 14894 
1 5265 12831 
3 14894 14895 
3 5263 5264 
1 5263 14895 
3 5264 5265 
3 20350 20351 
1 8421 13269 
3 8419 8420 
1 8419 20350 
3 8420 8421 
3 8119 8120 
1 8119 10353 
3 4792 4793 
1 4792 13315 
3 13315 13316 
3 13316 13317 
3 8120 8121 
3 13268 13269 
3 7009 7010 
1 7009 18621 
3 7010 7011 
1 7011 13815 
3 12829 12830 
1 12829 20388 
3 12830 12831 
3 13814 13815 
1 4515 13317 
3 4513 4514 
1 4513 16204 
3 4514 4515 
3 16204 16205 
3 13813 13814 
2 2737 2738 
1 2737 11010 
1 1689 9858 
2 19106 19107 
2 19105 19106 
3 9857 9858 
1 2739 13813 
2 2738 2739 
3 9856 9857 
1 9856 19105 
3 14378 14379 
3 14377 14378 
1 14377 18250 
1 14379 17202 
3 17201 17202 
3 5594 5595 
3 5593 5594 
1 5593 10906 
3 10906 10907 
3 10907 10908 
3 17200 17201 
1 594 17200 
2 593 594 
1 9222 10908 
2 592 593 
1 592 14634 
3 14633 14634 
3 17575 17576 
1 13710 17575 
3 14632 14633 
1 14865 15508 
3 17576 17577 
1 5448 17577 
3 9202 9203 
1 9202 20053 
3 9203 9204 
3 20053 20054 
1 4827 20701 
3 20054 20055 
3 4826 4827 
3 1948 1949 
1 1948 9204 
3 1949 1950 
3 9221 9222 
3 9220 9221 
3 5509 5510 
1 5509 9220 
3 5510 5511 
3 5215 5216 
1 5215 5511 
3 11216 11217 
1 12795 14632 
3 11215 11216 
1 11215 14863 
3 12794 12795 
1 11217 21124 
3 21124 21125 
3 14863 14864 
3 12793 12794 
1 12793 17722 
3 17723 17724 
3 14864 14865 
3 17722 17723 
1 6381 15876 
3 20702 20703 
1 11550 20703 
3 6380 6381 
3 20701 20702 
1 1950 4978 
3 4978 4979 
3 4979 4980 
3 11549 11550 
1 4980 10321 
3 10321 10322 
3 11548 11549 
1 6126 11182 
3 3031 3032 
1 3031 11548 
3 6125 6126 
3 5216 5217 
3 10322 10323 
3 3968 3969 
3 3967 3968 
1 3967 15733 
3 15733 15734 
3 15734 15735 
3 20452 20453 
1 3969 20452 
1 5217 14976 
3 14975 14976 
3 14974 14975 
1 14974 16297 
3 15875 15876 
3 15874 15875 
1 15874 20970 
3 20969 20970 
3 20968 20969 
1 51 20968 
3 12259 12260 
1 12259 18451 
3 18452 18453 
3 18451 18452 
3 3032 3033 
1 3033 15609 
3 15608 15609 
3 15607 15608 
3 11182 11183 
3 11183 11184 
1 11184 19831 
3 19831 19832 
3 19832 19833 
3 13246 13247 
1 13246 19833 
1 3009 15735 
3 7084 7085 
1 7084 10323 
3 7085 7086 
3 15049 15050 
1 15049 15607 
3 15050 15051 
3 50 51 
3 49 50 
1 49 18408 
3 12260 12261 
3 12724 12725 
3 4570 4571 
1 4570 17124 
3 4571 4572 
1 4572 12724 
3 18407 18408 
3 18406 18407 
3 9679 9680 
1 9679 18406 
1 12261 20385 
3 20384 20385 
3 20383 20384 
1 1653 20383 
1 4752 13267 
3 13247 13248 
3 13267 13268 
3 17123 17124 
3 17122 17123 
1 4461 17122 
3 1652 1653 
3 4460 4461 
3 4459 4460 
1 4459 5154 
3 1651 1652 
1 1651 9340 
3 12607 12608 
1 12607 20386 
3 12608 12609 
1 12609 19290 
3 9340 9341 
3 20386 20387 
3 20387 20388 
2 5153 5154 
2 6817 6818 
2 5152 5153 
1 5152 6819 
2 11009 11010 
2 6818 6819 
2 11008 11009 
3 16297 16298 
3 2386 2387 
1 2388 18936 
3 2387 2388 
3 18934 18935 
3 18935 18936 
1 7086 18078 
3 18077 18078 
3 9680 9681 
3 5825 5826 
3 2072 2073 
3 2071 2072 
1 2071 15051 
1 2073 5826 
1 9681 17256 
3 17255 17256 
3 17254 17255 
3 9341 9342 
3 18899 18900 
3 18898 18899 
3 15580 15581 
1 15580 18900 
3 15581 15582 
3 8638 8639 
3 8639 8640 
3 3367 3368 
1 3367 8640 
3 3368 3369 
3 15170 15171 
3 11617 11618 
1 9318 11617 
2 9316 9317 
2 9317 9318 
3 9259 9260 
1 9259 11163 
3 11162 11163 
3 9260 9261 
3 11161 11162 
3 21008 21009 
3 2057 2058 
3 397 398 
1 397 11161 
3 6370 6371 
1 6370 21009 
1 399 2056 
3 398 399 
3 2056 2057 
3 6952 6953 
1 6952 15582 
3 6371 6372 
1 6372 14812 
3 14812 14813 
1 14814 17142 
3 14813 14814 
1 2058 8722 
3 8722 8723 
3 8723 8724 
3 6953 6954 
3 6196 6197 
3 17141 17142 
1 6954 15166 
3 15166 15167 
1 348 6196 
3 346 347 
1 346 1704 
3 347 348 
3 15167 15168 
3 1703 1704 
3 2165 2166 
1 2166 17140 
3 17140 17141 
3 6478 6479 
1 6478 15168 
2 6260 6261 
2 6259 6260 
1 6259 7042 
3 7042 7043 
3 7043 7044 
3 2164 2165 
1 2164 18033 
3 11551 11552 
1 11551 15171 
3 17054 17055 
3 18427 18428 
3 17053 17054 
1 3369 5226 
3 5225 5226 
3 16093 16094 
3 5224 5225 
1 5224 16093 
1 12015 18427 
3 12014 12015 
3 1702 1703 
1 1702 17053 
3 12013 12014 
3 16094 16095 
3 18428 18429 
3 11930 11931 
3 6479 6480 
1 4875 6480 
3 4874 4875 
3 4873 4874 
1 4873 20182 
3 20182 20183 
3 11929 11930 
1 11929 17055 
3 18031 18032 
1 7044 7075 
3 7075 7076 
3 7076 7077 
1 7077 9489 
3 9488 9489 
3 1840 1841 
1 1840 19668 
3 11552 11553 
3 6500 6501 
3 6499 6500 
1 6499 12013 
3 19667 19668 
1 6612 14610 
1 11553 14608 
3 14609 14610 
3 14608 14609 
1 16095 16852 
3 16391 16392 
3 20183 20184 
3 16852 16853 
1 16392 16854 
3 16853 16854 
1 17844 20184 
3 12334 12335 
1 12334 17842 
2 17842 17843 
2 17843 17844 
3 3286 3287 
1 3286 9487 
3 9487 9488 
3 3287 3288 
3 19238 19239 
3 19666 19667 
3 6611 6612 
3 3595 3596 
1 3595 6448 
3 19237 19238 
1 19237 19666 
3 3596 3597 
3 20443 20444 
1 3597 20443 
3 20444 20445 
3 6610 6611 
1 6610 17806 
3 17806 17807 
3 4840 4841 
1 4840 13084 
3 17807 17808 
3 16390 16391 
3 11618 11619 
3 11773 11774 
1 11773 16390 
3 7621 7622 
1 7621 17808 
1 11775 15819 
3 11774 11775 
3 15818 15819 
1 12336 19450 
3 12335 12336 
3 19693 19694 
1 19693 20445 
3 13084 13085 
3 17749 17750 
1 17749 19695 
3 19694 19695 
3 94 95 
1 94 7623 
3 17750 17751 
3 7622 7623 
3 647 648 
1 648 17751 
3 646 647 
1 6222 15441 
3 15439 15440 
3 15440 15441 
3 9524 9525 
3 6220 6221 
1 6220 9525 
3 4922 4923 
3 6221 6222 
3 9523 9524 
1 4077 9523 
3 4921 4922 
1 4921 5928 
1 4923 12034 
3 12034 12035 
1 17790 21574 
3 4076 4077 
3 21574 21575 
3 7469 7470 
3 7468 7469 
1 7468 20280 
3 21575 21576 
3 4075 4076 
1 4075 9495 
1 7470 16621 
3 17789 17790 
3 16621 16622 
1 171 21576 
3 20278 20279 
3 17788 17789 
3 20279 20280 
3 9494 9495 
3 9493 9494 
1 9493 15916 
3 15916 15917 
3 16622 16623 
1 1551 16623 
3 4 5 
1 4 13624 
3 275 276 
3 274 275 
1 274 8646 
1 276 739 
3 5 6 
3 739 740 
1 6 19035 
3 1550 1551 
3 740 741 
3 1549 1550 
1 1549 11827 
3 11827 11828 
3 15917 15918 
2 1768 1769 
1 1768 15918 
2 1769 1770 
1 1770 11866 
1 5139 11623 
2 11623 11624 
2 11624 11625 
1 8724 11625 
3 11866 11867 
3 13624 13625 
3 13625 13626 
1 13626 20086 
3 20086 20087 
3 20087 20088 
3 4834 4835 
1 4834 14446 
3 14446 14447 
3 4835 4836 
3 15145 15146 
1 14352 15145 
1 4836 12069 
3 15146 15147 
3 14351 14352 
3 17329 17330 
1 17329 20088 
3 11828 11829 
1 11829 17727 
3 17726 17727 
3 17725 17726 
1 3240 17725 
3 5138 5139 
3 5137 5138 
3 3239 3240 
3 18032 18033 
3 3424 3425 
1 3424 5137 
3 11867 11868 
3 3425 3426 
1 3426 13252 
1 9 11868 
3 13252 13253 
3 8651 8652 
1 8652 10095 
3 8650 8651 
1 8650 15147 
3 14957 14958 
3 10094 10095 
3 5630 5631 
3 2224 2225 
1 2224 14958 
3 2225 2226 
3 1708 1709 
1 1708 18031 
3 17330 17331 
3 1709 1710 
1 1710 20346 
1 8439 17331 
3 8438 8439 
3 8437 8438 
3 475 476 
1 475 8437 
3 10051 10052 
1 10051 11931 
3 3238 3239 
3 20345 20346 
3 20344 20345 
3 13253 13254 
1 13254 16983 
3 16982 16983 
3 16981 16982 
3 16837 16838 
1 16837 16981 
1 17799 20344 
3 9017 9018 
3 4771 4772 
1 4771 5631 
3 4772 4773 
3 19402 19403 
3 19403 19404 
1 4773 19402 
1 16059 19404 
3 13465 13466 
3 13466 13467 
1 6501 13465 
3 10093 10094 
1 10093 17976 
3 12253 12254 
1 12253 13467 
3 10052 10053 
1 10053 12489 
3 12488 12489 
3 17975 17976 
3 17974 17975 
3 10633 10634 
1 10633 17974 
3 12254 12255 
3 12487 12488 
1 12487 14409 
3 476 477 
3 10634 10635 
1 477 12757 
3 17798 17799 
3 17797 17798 
3 11581 11582 
1 11581 17797 
3 11582 11583 
2 10168 10169 
1 10168 11583 
1 3288 6130 
3 16838 16839 
3 6130 6131 
3 6131 6132 
1 16029 16839 
3 16028 16029 
3 16027 16028 
1 16027 19924 
2 19924 19925 
2 19466 19467 
2 19465 19466 
1 6132 19465 
1 13086 19131 
1 16530 18976 
3 16529 16530 
3 9866 9867 
3 18976 18977 
1 9867 15375 
3 16058 16059 
3 18977 18978 
3 16057 16058 
3 15374 15375 
3 8110 8111 
1 8110 18978 
3 13085 13086 
3 9865 9866 
1 9865 19239 
1 12027 16057 
1 5559 12255 
3 5558 5559 
3 5557 5558 
1 5557 19219 
3 19219 19220 
3 19220 19221 
3 12026 12027 
3 7598 7599 
3 15817 15818 
2 10169 10170 
3 19450 19451 
3 14408 14409 
1 10608 20370 
3 14407 14408 
1 14407 20368 
3 20368 20369 
3 20369 20370 
3 2554 2555 
1 2554 19452 
1 7599 15817 
3 19451 19452 
3 2555 2556 
2 11797 11798 
1 11797 19467 
2 11798 11799 
1 10170 19392 
3 19391 19392 
1 2556 7045 
3 7045 7046 
3 19709 19710 
3 20242 20243 
3 2021 2022 
3 2020 2021 
1 2020 19710 
3 12035 12036 
1 2022 9508 
3 9508 9509 
3 9509 9510 
3 7525 7526 
1 7525 12036 
1 9510 16825 
3 14141 14142 
3 12325 12326 
1 12325 14142 
3 12326 12327 
1 12327 18204 
3 14140 14141 
1 14140 20242 
3 8710 8711 
1 8710 10126 
3 7526 7527 
3 16825 16826 
3 10126 10127 
3 8711 8712 
1 8784 10557 
3 16826 16827 
1 7527 15763 
3 16663 16664 
1 16663 16827 
3 15763 15764 
3 15764 15765 
3 16664 16665 
3 13063 13064 
1 13063 15765 
3 13064 13065 
1 1980 16665 
3 170 171 
3 8645 8646 
3 10556 10557 
3 18239 18240 
1 2658 18240 
3 18238 18239 
3 10555 10556 
1 10555 18238 
1 12642 16551 
3 2657 2658 
3 169 170 
1 169 5980 
3 5980 5981 
3 18203 18204 
3 5981 5982 
3 18202 18203 
3 16345 16346 
1 16345 18202 
3 16346 16347 
1 1635 5982 
3 10102 10103 
1 10102 16347 
1 3909 13065 
3 1979 1980 
3 1634 1635 
3 3908 3909 
3 3907 3908 
1 3907 4059 
3 4058 4059 
3 8644 8645 
3 14447 14448 
1 1584 8644 
3 15160 15161 
1 6987 15700 
3 6986 6987 
3 6985 6986 
1 6985 15160 
3 15700 15701 
3 2656 2657 
3 15161 15162 
3 15701 15702 
3 1058 1059 
3 1583 1584 
1 1824 2656 
3 1582 1583 
1 1582 10561 
3 10561 10562 
3 1823 1824 
3 1633 1634 
1 1633 8968 
3 8968 8969 
3 8969 8970 
3 1822 1823 
1 1822 6400 
3 6400 6401 
3 10103 10104 
3 6401 6402 
3 10562 10563 
3 4735 4736 
1 4735 8970 
3 8 9 
3 7 8 
1 7 6922 
3 6922 6923 
3 4057 4058 
1 4057 4713 
3 4712 4713 
3 4711 4712 
1 4711 18588 
3 4736 4737 
3 6923 6924 
3 18587 18588 
3 14956 14957 
1 15702 20109 
1 14448 15579 
3 15578 15579 
3 2029 2030 
1 2029 7209 
3 7208 7209 
3 2030 2031 
1 2031 9852 
3 15577 15578 
1 15577 21207 
3 20108 20109 
1 10563 14337 
3 14336 14337 
3 14335 14336 
3 3886 3887 
1 3886 14335 
3 3887 3888 
3 21206 21207 
3 20107 20108 
1 15105 20107 
3 15104 15105 
1 1698 3238 
3 1697 1698 
3 1696 1697 