ITEM: TIMESTEP
80000000
ITEM: NUMBER OF ENTRIES
1384
ITEM: BOX BOUNDS pp pp pp
0 50
0 50
0 50
ITEM: ENTRIES c_binfo[1] c_binfo[2] c_binfo[3] 
2 20840 20841 
2 20839 20840 
3 9722 9723 
3 9721 9722 
2 17791 17792 
2 17792 17793 
3 21469 21470 
3 21470 21471 
2 1562 1563 
2 1561 1562 
3 1201 1202 
3 1202 1203 
3 11686 11687 
3 11687 11688 
2 8309 8310 
2 8308 8309 
3 9518 9519 
3 9517 9518 
2 8767 8768 
3 628 629 
3 629 630 
3 3914 3915 
3 19762 19763 
3 19763 19764 
2 11291 11292 
2 11290 11291 
2 6112 6113 
1 6112 7725 
2 6113 6114 
2 7724 7725 
2 7723 7724 
2 8768 8769 
2 383 384 
2 382 383 
3 3913 3914 
3 6452 6453 
3 6451 6452 
2 16946 16947 
2 16945 16946 
1 9765 16945 
3 9764 9765 
3 9763 9764 
3 19651 19652 
3 13055 13056 
3 13054 13055 
2 18770 18771 
2 15139 15140 
2 18769 18770 
2 18233 18234 
2 18232 18233 
2 20972 20973 
2 20971 20972 
3 19652 19653 
2 15140 15141 
2 12733 12734 
2 12734 12735 
1 15912 20973 
3 15910 15911 
3 15911 15912 
2 14032 14033 
2 18331 18332 
2 18332 18333 
3 4240 4241 
3 4241 4242 
3 19066 19067 
3 6017 6018 
3 19067 19068 
3 6016 6017 
2 13997 13998 
2 11398 11399 
2 11399 11400 
2 9979 9980 
2 9980 9981 
3 20462 20463 
3 20461 20462 
3 9743 9744 
3 9742 9743 
2 14033 14034 
3 5240 5241 
3 5239 5240 
1 5239 14034 
3 16282 16283 
3 10696 10697 
1 10696 19066 
3 10697 10698 
2 13996 13997 
1 13996 18289 
3 18289 18290 
3 18290 18291 
3 3878 3879 
3 3877 3878 
3 16283 16284 
3 18572 18573 
2 20723 20724 
2 20722 20723 
3 18571 18572 
1 18571 20724 
2 10165 10166 
2 10166 10167 
3 8252 8253 
3 4745 4746 
3 16160 16161 
3 16159 16160 
2 10882 10883 
2 10883 10884 
2 6211 6212 
2 6212 6213 
2 10270 10271 
1 10270 19806 
3 19805 19806 
3 19804 19805 
2 10271 10272 
3 10252 10253 
3 10253 10254 
3 18914 18915 
3 18913 18914 
2 11756 11757 
2 11755 11756 
2 8174 8175 
2 8173 8174 
1 8173 11757 
2 16295 16296 
2 16294 16295 
2 1463 1464 
2 1462 1463 
2 14002 14003 
2 14003 14004 
3 2851 2852 
1 2851 14004 
3 2852 2853 
2 19420 19421 
2 19421 19422 
2 6403 6404 
1 6403 9141 
2 6404 6405 
2 9140 9141 
2 9139 9140 
2 16619 16620 
3 17026 17027 
1 17026 20940 
3 17027 17028 
2 16618 16619 
1 16618 17028 
2 8642 8643 
2 8641 8642 
1 8641 13842 
2 9026 9027 
2 9025 9026 
1 9025 15330 
3 15329 15330 
3 15328 15329 
3 5525 5526 
3 5524 5525 
3 13682 13683 
3 13681 13682 
3 21218 21219 
3 21217 21218 
3 18110 18111 
3 18109 18110 
2 653 654 
2 652 653 
3 15668 15669 
3 15667 15668 
2 15068 15069 
2 15067 15068 
3 14251 14252 
2 6989 6990 
2 6988 6989 
2 20938 20939 
2 20939 20940 
2 18347 18348 
2 18346 18347 
3 14405 14406 
3 14404 14405 
2 1838 1839 
2 1837 1838 
1 1837 2475 
2 2474 2475 
2 2473 2474 
1 2473 12597 
2 12596 12597 
3 9791 9792 
3 14252 14253 
3 5366 5367 
3 5365 5366 
3 16702 16703 
1 16702 19996 
3 16703 16704 
2 19996 19997 
2 19997 19998 
3 13988 13989 
3 13987 13988 
3 3173 3174 
3 3172 3173 
2 12595 12596 
3 9790 9791 
3 19436 19437 
3 19435 19436 
2 17623 17624 
2 17624 17625 
3 11938 11939 
3 11939 11940 
3 11377 11378 
3 11378 11379 
3 20077 20078 
3 20078 20079 
2 10373 10374 
2 10372 10373 
3 18122 18123 
3 18121 18122 
3 2321 2322 
3 2320 2321 
2 12079 12080 
2 8170 8171 
1 8170 12079 
2 12080 12081 
2 8171 8172 
2 18781 18782 
3 1735 1736 
3 1736 1737 
2 12257 12258 
3 12983 12984 
2 12256 12257 
1 12256 12982 
3 12982 12983 
3 691 692 
3 692 693 
2 4661 4662 
2 4660 4661 
2 1108 1109 
2 1109 1110 
3 8470 8471 
3 2821 2822 
3 8471 8472 
2 18782 18783 
2 2995 2996 
2 2996 2997 
3 11876 11877 
3 11875 11876 
2 13279 13280 
2 13280 13281 
3 12238 12239 
1 12240 13281 
3 12239 12240 
3 13066 13067 
1 13066 14136 
2 6745 6746 
1 6745 13068 
2 6746 6747 
3 13067 13068 
2 15932 15933 
2 15931 15932 
1 15931 20121 
3 20120 20121 
3 20119 20120 
3 2822 2823 
2 5362 5363 
2 5363 5364 
1 5364 9048 
3 9047 9048 
3 9046 9047 
3 20420 20421 
3 17354 17355 
2 4877 4878 
2 4876 4877 
2 14134 14135 
2 14135 14136 
2 7655 7656 
2 7654 7655 
2 7004 7005 
2 7003 7004 
3 4352 4353 
3 4351 4352 
3 16501 16502 
2 9325 9326 
1 9325 16501 
2 9326 9327 
3 16502 16503 
2 3409 3410 
3 20419 20420 
3 17353 17354 
2 14314 14315 
2 14315 14316 
2 20195 20196 
2 20194 20195 
3 12529 12530 
3 12530 12531 
3 4954 4955 
3 4955 4956 
1 4956 5376 
3 15448 15449 
3 16385 16386 
3 16384 16385 
2 409 410 
2 410 411 
2 19943 19944 
2 19942 19943 
3 15449 15450 
3 5183 5184 
3 5182 5183 
1 5182 9093 
3 19261 19262 
3 19262 19263 
2 9092 9093 
2 9091 9092 
2 13541 13542 
2 13540 13541 
3 10015 10016 
1 10015 15736 
3 10016 10017 
3 15736 15737 
3 15737 15738 
3 1081 1082 
3 1082 1083 
2 12097 12098 
2 12098 12099 
3 1945 1946 
3 1946 1947 
3 10889 10890 
3 10888 10889 
3 19307 19308 
3 19306 19307 
2 17452 17453 
2 17453 17454 
1 288 17454 
3 287 288 
1 10953 11899 
2 11900 11901 
2 11899 11900 
2 10952 10953 
2 2332 2333 
2 2333 2334 
2 6787 6788 
2 14758 14759 
2 14759 14760 
2 6788 6789 
2 14063 14064 
3 286 287 
1 286 6687 
2 6686 6687 
2 6685 6686 
1 6685 16092 
2 10951 10952 
3 13435 13436 
3 13436 13437 
2 12265 12266 
1 12267 13602 
2 12266 12267 
3 16091 16092 
3 16090 16091 
3 13601 13602 
3 13600 13601 
2 20810 20811 
2 20809 20810 
2 19571 19572 
1 6927 19572 
3 6925 6926 
3 6926 6927 
2 19570 19571 
2 8608 8609 
2 8609 8610 
2 7873 7874 
2 7874 7875 
1 7875 8251 
3 8251 8252 
3 12824 12825 
3 12823 12824 
2 7976 7977 
2 7975 7976 
2 19726 19727 
2 19727 19728 
2 14933 14934 
2 14932 14933 
2 4300 4301 
1 4302 17715 
2 4301 4302 
3 13841 13842 
3 13840 13841 
3 4651 4652 
2 17731 17732 
1 4653 17731 
3 4652 4653 
2 17732 17733 
3 14024 14025 
3 14023 14024 
3 21017 21018 
3 21016 21017 
2 13672 13673 
1 13672 21016 
2 13673 13674 
3 20705 20706 
2 10753 10754 
3 3200 3201 
3 3199 3200 
1 3199 10753 
3 17713 17714 
3 17714 17715 
3 3799 3800 
3 3800 3801 
1 13989 17479 
2 17480 17481 
2 17479 17480 
3 11615 11616 
2 12019 12020 
2 12020 12021 
1 7767 12021 
2 5377 5378 
1 5379 20706 
2 5378 5379 
2 10754 10755 
3 7720 7721 
3 7721 7722 
3 20689 20690 
3 20690 20691 
3 5126 5127 
3 10723 10724 
1 10723 10755 
1 5127 10725 
3 10724 10725 
3 1969 1970 
1 1971 3801 
3 1970 1971 
2 5515 5516 
2 5516 5517 
3 11614 11615 
3 7765 7766 
3 7766 7767 
3 20873 20874 
3 20872 20873 
2 16448 16449 
2 16447 16448 
1 7722 16447 
3 5125 5126 
3 4952 4953 
3 4951 4952 
1 3063 4951 
2 15211 15212 
2 15212 15213 
2 2033 2034 
2 2032 2033 
3 3062 3063 
3 3061 3062 
3 1993 1994 
3 1994 1995 
2 19514 19515 
2 19513 19514 
3 1384 1385 
3 19871 19872 
1 17556 19870 
3 19870 19871 
3 2848 2849 
3 2849 2850 
3 1385 1386 
3 4696 4697 
3 4697 4698 
2 17554 17555 
2 17555 17556 
2 38 39 
2 37 38 
3 1760 1761 
3 1759 1760 
2 12499 12500 
2 12500 12501 
2 3410 3411 
2 6292 6293 
2 8395 8396 
2 8396 8397 
2 6293 6294 
2 7079 7080 
2 7078 7079 
3 2774 2775 
3 2773 2774 
1 2773 9217 
2 9217 9218 
2 9218 9219 
2 19823 19824 
2 19822 19823 
2 13670 13671 
2 13669 13670 
2 20480 20481 
2 20479 20480 
3 11545 11546 
3 11546 11547 
2 4960 4961 
1 4962 12531 
2 4961 4962 
2 6032 6033 
2 6031 6032 
2 10666 10667 
3 17507 17508 
3 17506 17507 
3 14921 14922 
3 11800 11801 
3 11801 11802 
3 14920 14921 
3 15698 15699 
3 15697 15698 
2 10667 10668 
3 16888 16889 
3 16889 16890 
2 16165 16166 
1 16165 18462 
3 18461 18462 
3 18460 18461 
2 16166 16167 
2 14965 14966 
2 14966 14967 
1 14967 19809 
3 19807 19808 
3 19808 19809 
2 16843 16844 
2 16844 16845 
3 5941 5942 
1 5941 16845 
3 5942 5943 
2 18313 18314 
2 18314 18315 
3 4105 4106 
3 8840 8841 
3 8839 8840 
3 4106 4107 
2 15821 15822 
2 3241 3242 
2 7021 7022 
2 3242 3243 
2 15820 15821 
2 8593 8594 
2 8594 8595 
2 7022 7023 
3 6392 6393 
3 6391 6392 
2 2228 2229 
2 2227 2228 
2 11140 11141 
2 11141 11142 
3 7318 7319 
3 7319 7320 
2 10706 10707 
2 10705 10706 
1 10705 11284 
3 11284 11285 
3 11285 11286 
3 9035 9036 
3 9034 9035 
3 9302 9303 
3 9301 9302 
2 15185 15186 
2 15184 15185 
3 9814 9815 
3 9815 9816 
2 4252 4253 
2 7412 7413 
2 7667 7668 
2 7666 7667 
2 7411 7412 
1 7411 7666 
3 14665 14666 
3 14666 14667 
2 17419 17420 
2 17420 17421 
2 4253 4254 
3 7532 7533 
3 7531 7532 
3 14611 14612 
2 12571 12572 
3 10360 10361 
3 10361 10362 
3 14612 14613 
2 9902 9903 
2 9901 9902 
3 16418 16419 
3 16417 16418 
3 5957 5958 
3 5956 5957 
3 5933 5934 
3 5665 5666 
3 5666 5667 
1 5667 7083 
3 7081 7082 
1 7081 9174 
3 7082 7083 
3 9173 9174 
3 9172 9173 
1 9172 20152 
2 20152 20153 
2 20153 20154 
2 12572 12573 
3 15877 15878 
3 15878 15879 
2 14629 14630 
2 14630 14631 
3 19162 19163 
2 9304 9305 
2 9305 9306 
1 9306 15048 
3 15047 15048 
3 20750 20751 
3 20749 20750 
3 5932 5933 
3 15046 15047 
2 18628 18629 
2 18629 18630 
3 533 534 
3 532 533 
3 15109 15110 
3 15110 15111 
2 15640 15641 
2 15641 15642 
2 3725 3726 
2 3724 3725 
2 4067 4068 
2 4066 4067 
3 2945 2946 
3 2944 2945 
2 20743 20744 
2 4175 4176 
1 4176 20745 
2 20744 20745 
2 4174 4175 
2 1256 1257 
2 1255 1256 
2 14623 14624 
2 14624 14625 
2 3278 3279 
2 3277 3278 
2 19282 19283 
2 19283 19284 
3 13091 13092 
3 13090 13091 
2 14683 14684 
2 14684 14685 
2 21034 21035 
2 21035 21036 
3 12755 12756 
3 12754 12755 
1 12754 12912 
2 12911 12912 
2 12910 12911 
3 10928 10929 
3 10927 10928 
2 15718 15719 
2 15719 15720 
2 17078 17079 
2 17077 17078 
2 3815 3816 
2 3814 3815 
3 13076 13077 
3 11261 11262 
3 11260 11261 
3 13075 13076 
2 16112 16113 
1 11886 16111 
2 16111 16112 
2 11885 11886 
2 17462 17463 
2 17461 17462 
1 14061 17461 
3 14059 14060 
3 14060 14061 
2 19949 19950 
2 19948 19949 
2 11884 11885 
2 18796 18797 
2 18797 18798 
2 7096 7097 
2 7097 7098 
1 7098 7323 
3 7322 7323 
3 19166 19167 
3 19165 19166 
2 11246 11247 
2 11245 11246 
3 15412 15413 
1 11247 15412 
3 15413 15414 
2 1490 1491 
2 1489 1490 
3 19966 19967 
3 5542 5543 
3 19967 19968 
3 5543 5544 
3 15515 15516 
3 15514 15515 
1 6204 13048 
3 13048 13049 
2 6203 6204 
3 13049 13050 
2 6202 6203 
2 14597 14598 
2 14596 14597 
3 18760 18761 
3 18761 18762 
2 13286 13287 
2 13285 13286 
2 19532 19533 
3 9146 9147 
3 9145 9146 
2 19531 19532 
1 9147 19531 
2 2344 2345 
2 2345 2346 
3 16220 16221 
3 16219 16220 
3 14704 14705 
2 20776 20777 
2 20777 20778 
2 9892 9893 
1 9892 10540 
3 12700 12701 
1 12700 14818 
2 14818 14819 
2 14819 14820 
3 12701 12702 
1 10542 19164 
3 10541 10542 
3 10540 10541 
3 14705 14706 
2 9239 9240 
2 9238 9239 
2 9893 9894 
3 19163 19164 
3 13096 13097 
3 13097 13098 
2 5375 5376 
2 5374 5375 
2 8129 8130 
2 8128 8129 
3 11474 11475 
3 11473 11474 
2 12868 12869 
3 3556 3557 
3 3557 3558 
3 2756 2757 
2 12869 12870 
3 2755 2756 
3 1682 1683 
3 1681 1682 
2 21512 21513 
2 21511 21512 
3 18581 18582 
2 20045 20046 
3 18580 18581 
1 18580 20044 
2 20044 20045 
2 12766 12767 
2 12767 12768 
2 3476 3477 
2 3475 3476 
2 21491 21492 
2 21490 21491 
3 11537 11538 
3 11536 11537 
2 10531 10532 
2 10532 10533 
3 4744 4745 
3 13372 13373 
3 7213 7214 
3 7214 7215 
3 7274 7275 
3 7273 7274 
2 16714 16715 
2 16715 16716 
3 4694 4695 
3 4693 4694 
2 4453 4454 
2 4454 4455 
2 16921 16922 
2 16922 16923 
2 18050 18051 
2 18049 18050 
2 18017 18018 
2 18016 18017 
3 8221 8222 
3 8222 8223 
3 15026 15027 
3 15025 15026 
3 110 111 
3 109 110 
2 19153 19154 
2 19154 19155 
2 10463 10464 
2 10462 10463 
3 16072 16073 
3 16073 16074 
2 8378 8379 
2 8377 8378 
2 4756 4757 
2 4757 4758 
2 13667 13668 
2 13666 13667 
2 7256 7257 
2 7255 7256 
3 6367 6368 
1 6369 8379 
3 6368 6369 
2 12241 12242 
2 20486 20487 
2 20485 20486 
2 6440 6441 
2 6439 6440 
3 15692 15693 
2 18724 18725 
2 18725 18726 
1 15930 16864 
3 16864 16865 
2 15928 15929 
2 15929 15930 
3 16865 16866 
2 12242 12243 
2 5801 5802 
2 5800 5801 
3 19430 19431 
3 19429 19430 
3 15691 15692 
3 11734 11735 
3 16541 16542 
2 20186 20187 
2 20185 20186 
2 13954 13955 
2 6670 6671 
1 6670 13954 
2 6671 6672 
2 13955 13956 
1 13956 18945 
3 18943 18944 
3 18944 18945 
3 5561 5562 
3 5560 5561 
2 17111 17112 
2 17110 17111 
3 20944 20945 
3 20945 20946 
2 12437 12438 
2 12436 12437 
1 12436 14716 
3 14716 14717 
3 14717 14718 
3 9716 9717 
3 9715 9716 
3 9134 9135 
3 9133 9134 
2 4528 4529 
1 1539 4528 
2 4529 4530 
3 1537 1538 
3 1538 1539 
2 10943 10944 
2 10942 10943 
3 5324 5325 
3 649 650 
3 650 651 
3 17324 17325 
3 17323 17324 
3 5323 5324 
3 15866 15867 
3 15865 15866 
3 13373 13374 
2 9941 9942 
2 18856 18857 
2 9940 9941 
1 9940 18856 
2 18857 18858 
3 4699 4700 
1 4699 18858 
3 13093 13094 
1 13095 16617 
3 16616 16617 
3 13094 13095 
3 16615 16616 
3 10069 10070 
3 21283 21284 
3 21284 21285 
3 10070 10071 
2 19988 19989 
2 19987 19988 
3 250 251 
1 1839 14280 
3 14278 14279 
3 14279 14280 
2 10816 10817 
2 10817 10818 
1 10818 13131 
2 13130 13131 
2 13129 13130 
3 14177 14178 
3 14176 14177 
2 14647 14648 
2 14648 14649 
1 303 14649 
3 302 303 
2 10097 10098 
3 20663 20664 
3 10699 10700 
1 10699 20662 
3 20662 20663 
3 18148 18149 
3 18149 18150 
3 11270 11271 
3 11269 11270 
2 1349 1350 
3 16598 16599 
2 1348 1349 
1 1348 16599 
2 6760 6761 
3 301 302 
2 10096 10097 
3 7489 7490 
3 7490 7491 
3 10700 10701 
3 16597 16598 
2 15665 15666 
1 15666 16597 
2 15664 15665 
2 6761 6762 
2 18167 18168 
2 18166 18167 
3 764 765 
3 763 764 
2 4606 4607 
1 4608 13627 
2 4607 4608 
3 13628 13629 
3 13627 13628 
2 15133 15134 
2 15134 15135 
3 9373 9374 
3 8749 8750 
2 6596 6597 
2 6595 6596 
1 6595 8751 
3 8750 8751 
3 16468 16469 
3 16469 16470 
2 9910 9911 
1 9910 16470 
2 9911 9912 
3 9374 9375 
3 19747 19748 
3 19748 19749 
3 8617 8618 
3 8618 8619 
3 2240 2241 
3 2239 2240 
2 14564 14565 
2 14563 14564 
3 17210 17211 
3 17209 17210 
3 15013 15014 
1 15013 17209 
3 15014 15015 
3 8345 8346 
3 8344 8345 
2 3103 3104 
3 10499 10500 
3 10498 10499 
3 8248 8249 
1 8248 19003 
2 19003 19004 
2 19004 19005 
2 431 432 
2 430 431 
1 8250 18942 
3 8249 8250 
3 18941 18942 
3 18940 18941 
3 17929 17930 
3 17930 17931 
3 17693 17694 
3 17692 17693 
3 9412 9413 
3 9413 9414 
2 15572 15573 
2 15571 15572 
2 4177 4178 
2 4178 4179 
2 19180 19181 
2 19181 19182 
3 11339 11340 
2 20002 20003 
1 11340 20002 
2 20003 20004 
3 11338 11339 
3 19270 19271 
2 4649 4650 
2 4648 4649 
1 4648 19272 
3 19271 19272 
3 5042 5043 
3 5041 5042 
3 10294 10295 
3 10295 10296 
3 20000 20001 
3 19999 20000 
2 12065 12066 
2 12094 12095 
2 12095 12096 
2 6782 6783 
2 6781 6782 
1 6781 12094 
3 10025 10026 
3 10024 10025 
1 10024 12096 
2 12064 12065 
3 16540 16541 
3 13028 13029 
3 13027 13028 
2 7790 7791 
3 18872 18873 
3 18871 18872 
2 7789 7790 
3 7715 7716 
3 7714 7715 
2 15808 15809 
2 15809 15810 
2 12899 12900 
2 12898 12899 
3 6689 6690 
3 6688 6689 
2 2924 2925 
2 2923 2924 
2 8956 8957 
3 18686 18687 
3 18685 18686 
3 2782 2783 
3 2783 2784 
3 13438 13439 
3 13439 13440 
2 8957 8958 
2 16492 16493 
2 16493 16494 
2 13777 13778 
2 9500 9501 
2 9499 9500 
3 19394 19395 
3 6152 6153 
3 6151 6152 
2 20429 20430 
2 20428 20429 
2 7562 7563 
3 17006 17007 
3 17005 17006 
2 7561 7562 
2 13778 13779 
2 20915 20916 
2 20914 20915 
3 19393 19394 
2 6776 6777 
2 6775 6776 
3 14710 14711 
3 14711 14712 
3 18472 18473 
3 20770 20771 
3 20771 20772 
3 7990 7991 
3 7991 7992 
3 6026 6027 
3 6025 6026 
3 18884 18885 
3 18883 18884 
3 11383 11384 
1 11383 17955 
3 11384 11385 
2 17954 17955 
3 3127 3128 
3 3128 3129 
2 17953 17954 
3 7982 7983 
3 7981 7982 
2 12938 12939 
2 12937 12938 
2 21188 21189 
2 21187 21188 
2 19384 19385 
2 19385 19386 
2 10376 10377 
2 10375 10376 
2 16934 16935 
1 16935 18873 
2 16933 16934 
3 2323 2324 
3 2324 2325 
2 823 824 
2 824 825 
2 11984 11985 
2 11983 11984 
2 3191 3192 
2 3190 3191 
3 17684 17685 
3 17683 17684 
2 9782 9783 
2 20356 20357 
2 20357 20358 
2 9628 9629 
2 9629 9630 
3 11002 11003 
3 11003 11004 
2 9781 9782 
3 8098 8099 
3 8099 8100 
3 18473 18474 
2 2630 2631 
2 20317 20318 
2 10987 10988 
2 10988 10989 
3 3136 3137 
1 3136 10987 
3 3137 3138 
3 13796 13797 
2 20318 20319 
3 10991 10992 
3 10990 10991 
1 10990 20319 
3 21107 21108 
3 21106 21107 
3 13795 13796 
2 14062 14063 
3 14768 14769 
3 14767 14768 
2 2785 2786 
3 12787 12788 
3 12788 12789 
2 18577 18578 
2 18578 18579 
2 3593 3594 
2 3592 3593 
1 3592 13818 
2 1072 1073 
2 1073 1074 
3 8026 8027 
3 8027 8028 
2 2786 2787 
3 13817 13818 
3 13949 13950 
3 13816 13817 
3 13948 13949 
3 11068 11069 
3 11069 11070 
3 18665 18666 
3 18664 18665 
2 967 968 
2 968 969 
3 18994 18995 
3 18995 18996 
2 16553 16554 
2 16552 16553 
1 16552 18996 
2 9182 9183 
3 6346 6347 
1 6346 9183 
2 9181 9182 
3 6347 6348 
2 17383 17384 
3 20704 20705 
2 17384 17385 
2 16151 16152 
2 16150 16151 
2 6290 6291 
2 6289 6290 
2 20483 20484 
2 20482 20483 
1 6159 20482 
3 6158 6159 
3 6157 6158 
1 6157 20874 
2 1324 1325 
2 1325 1326 
2 17473 17474 
2 512 513 
1 513 20085 
3 19705 19706 
2 511 512 
1 511 19705 
3 19706 19707 
2 2915 2916 
2 2914 2915 
2 17474 17475 
2 20083 20084 
2 20084 20085 
3 15967 15968 
3 15968 15969 
3 16930 16931 
3 16931 16932 
2 2635 2636 
2 2636 2637 
2 1027 1028 
1 1027 15969 
2 1028 1029 
3 11257 11258 
3 11258 11259 
2 9094 9095 
2 19574 19575 
2 19573 19574 
1 17568 19573 
2 9095 9096 
3 16402 16403 
3 16403 16404 
2 19858 19859 
2 19859 19860 
3 17567 17568 
3 17566 17567 
3 1909 1910 
3 1910 1911 
3 7321 7322 
2 3104 3105 
1 1713 10273 
2 10274 10275 
2 10273 10274 
2 20594 20595 
2 20593 20594 
3 1712 1713 
3 1711 1712 
2 2491 2492 
2 2492 2493 
1 2493 10390 
3 10390 10391 
3 10391 10392 
2 15221 15222 
2 15220 15221 
3 4183 4184 
3 4184 4185 
2 14752 14753 
2 14753 14754 
2 15298 15299 
2 2168 2169 
2 2167 2168 
3 12427 12428 
3 12428 12429 
2 15299 15300 
1 12429 15300 
3 19124 19125 
3 19123 19124 
2 13244 13245 
2 13243 13244 
3 5185 5186 
3 5186 5187 
2 2629 2630 
2 15350 15351 
2 15349 15350 
3 5972 5973 
3 5971 5972 
3 13792 13793 
3 13793 13794 
3 3836 3837 
3 1282 1283 
3 3835 3836 
3 9446 9447 
3 9445 9446 
3 536 537 
3 535 536 
3 12541 12542 
3 12542 12543 
3 15434 15435 
3 15433 15434 
3 13178 13179 
3 13177 13178 
3 11209 11210 
1 11209 13177 
3 11210 11211 
2 20941 20942 
2 20942 20943 
3 20089 20090 
3 20090 20091 
3 9148 9149 
3 9149 9150 
2 14755 14756 
2 11500 11501 
2 11501 11502 
3 19681 19682 
1 11502 19681 
3 19682 19683 
2 18341 18342 
2 18340 18341 
3 19138 19139 
3 19139 19140 
3 13369 13370 
1 13369 17826 
3 13370 13371 
2 17825 17826 
2 17824 17825 
3 9737 9738 
3 9736 9737 
2 13886 13887 
3 6956 6957 
3 6955 6956 
3 17618 17619 
3 17617 17618 
2 13885 13886 
3 20975 20976 
3 20974 20975 
3 19252 19253 
3 19253 19254 
3 9085 9086 
3 9086 9087 
2 4340 4341 
3 1283 1284 
2 9587 9588 
2 9586 9587 
3 7688 7689 
2 4339 4340 
1 4339 7687 
3 7687 7688 
1 2490 16615 
3 4700 4701 
2 2489 2490 
2 2488 2489 
2 2438 2439 
2 2437 2438 
3 1849 1850 
3 1850 1851 
3 251 252 
2 5119 5120 
2 5120 5121 
2 4111 4112 
2 4112 4113 
2 9278 9279 
2 9277 9278 
1 9277 17203 
2 17203 17204 
2 17204 17205 
3 14149 14150 
3 14150 14151 
2 18467 18468 
3 7646 7647 
3 5014 5015 
3 5015 5016 
3 12727 12728 
2 18466 18467 
2 13787 13788 
2 13786 13787 
3 7645 7646 
1 7645 13788 
3 6349 6350 
3 6350 6351 
3 12728 12729 
3 1417 1418 
2 5863 5864 
2 5864 5865 
2 19883 19884 
2 19882 19883 
3 11735 11736 
3 12109 12110 
3 12110 12111 
3 1418 1419 
3 3224 3225 
3 3223 3224 
3 21301 21302 
3 21302 21303 
2 8387 8388 
2 8386 8387 
3 8350 8351 
3 8351 8352 
3 215 216 
2 20887 20888 
2 20888 20889 
3 214 215 
1 214 20887 
2 3590 3591 
2 3589 3590 
2 17182 17183 
2 17183 17184 
2 11176 11177 
2 16504 16505 
2 16505 16506 
2 14756 14757 
3 12434 12435 
3 12433 12434 
2 851 852 
2 11177 11178 
3 14180 14181 
3 14179 14180 
2 850 851 
1 850 14181 
3 1210 1211 
3 1211 1212 
2 16412 16413 
2 3581 3582 
2 3580 3581 
2 16411 16412 
2 8182 8183 
2 8183 8184 
3 9886 9887 
3 9887 9888 
3 4357 4358 
3 4358 4359 
