ITEM: TIMESTEP
80000000
ITEM: NUMBER OF ATOMS
3930
ITEM: BOX BOUNDS pp pp pp
0.0000000000000000e+00 5.0000000000000000e+01
0.0000000000000000e+00 5.0000000000000000e+01
0.0000000000000000e+00 5.0000000000000000e+01
ITEM: ATOMS id type xs ys zs
2650 1 0.433966 0.0924884 0.582701
846 1 0.406437 0.10347 0.581837
845 2 0.409544 0.109926 0.584908
20707 1 0.493139 0.0948666 0.58488
18285 1 0.483781 0.148854 0.582371
18284 2 0.490333 0.153527 0.582867
17718 1 0.506586 0.133696 0.584749
18283 1 0.496984 0.158994 0.585328
5944 1 0.499323 0.161011 0.586069
5427 1 0.444572 0.0118799 0.606458
5426 3 0.450134 0.0127065 0.613573
8023 1 0.511343 0.0161857 0.617166
8024 2 0.512809 0.0241113 0.620364
20700 1 0.454748 0.0408928 0.617949
19908 1 0.436906 0.0474932 0.619268
9999 1 0.493987 0.041034 0.614263
9998 2 0.494343 0.0462869 0.619149
1939 1 0.50842 0.0438331 0.599822
14290 1 0.514 0.0582518 0.610143
1940 2 0.510976 0.0495268 0.603928
1941 1 0.513283 0.0564109 0.60868
18973 1 0.384282 0.0722536 0.601344
18974 2 0.389873 0.0759156 0.605363
18975 1 0.394478 0.0800573 0.610027
18384 1 0.396253 0.0819387 0.611847
5372 2 0.425058 0.0898852 0.6085
5373 1 0.4186 0.0873108 0.603405
18383 2 0.40076 0.0861437 0.617546
5371 1 0.429364 0.0923475 0.613749
4639 1 0.455453 0.0748448 0.613812
4640 2 0.456458 0.0809186 0.619522
7911 1 0.483014 0.0817553 0.614111
20859 1 0.483536 0.0845784 0.615737
7909 1 0.483803 0.0683984 0.607356
7910 3 0.482772 0.0749442 0.610079
3798 1 0.465072 0.0912645 0.603604
21007 1 0.522085 0.0722394 0.619151
14292 1 0.520461 0.070344 0.618492
14291 3 0.516547 0.0645009 0.615188
20929 1 0.499539 0.0730436 0.588359
20930 3 0.503907 0.0775989 0.593843
20931 1 0.507443 0.0827355 0.598555
8259 1 0.508449 0.0850431 0.60007
8258 3 0.51119 0.0904581 0.604226
796 1 0.371222 0.0943121 0.598602
797 3 0.379837 0.0960168 0.598024
798 1 0.386336 0.0989894 0.600112
18196 1 0.388938 0.100052 0.601078
18197 2 0.395685 0.102802 0.603163
844 1 0.416239 0.116073 0.587319
6813 1 0.418337 0.118055 0.588476
18198 1 0.402206 0.10573 0.607166
6537 1 0.405254 0.107479 0.607929
6535 1 0.417275 0.114706 0.614736
6536 2 0.411625 0.111097 0.611466
6812 3 0.423152 0.123483 0.591894
14797 1 0.419621 0.115541 0.616488
15661 1 0.43067 0.0933375 0.616236
2651 2 0.435084 0.0973905 0.589993
2652 1 0.437054 0.101725 0.597024
12310 1 0.437867 0.103384 0.599029
9299 2 0.452969 0.118831 0.61649
12312 1 0.446303 0.11309 0.609964
12311 2 0.441764 0.108261 0.604441
9300 1 0.447924 0.114398 0.611638
3718 1 0.458184 0.110695 0.593411
3719 2 0.462301 0.117076 0.594079
3797 3 0.470922 0.0958042 0.606588
3796 1 0.475632 0.101025 0.609544
19373 2 0.479682 0.111178 0.61294
19374 1 0.4774 0.103395 0.61017
19372 1 0.481189 0.118986 0.616245
3720 1 0.467818 0.122872 0.594601
3783 1 0.482122 0.121781 0.617235
2440 1 0.513641 0.0987507 0.612194
8257 1 0.513268 0.0966594 0.610026
20708 3 0.494974 0.100528 0.59117
20709 1 0.497075 0.105988 0.596523
2100 1 0.49765 0.108449 0.598311
2099 2 0.499026 0.114648 0.603462
2098 1 0.50177 0.121326 0.607082
2441 3 0.51458 0.104968 0.615678
2442 1 0.516911 0.11169 0.619213
6198 1 0.518293 0.114242 0.619978
13773 1 0.392493 0.137056 0.587391
13772 2 0.395943 0.139029 0.593641
14508 1 0.412922 0.14249 0.618657
6811 1 0.427945 0.127854 0.595927
19366 1 0.401879 0.141443 0.602904
13771 1 0.400249 0.140865 0.599649
547 1 0.430117 0.129594 0.597959
19367 2 0.4061 0.140812 0.610031
19368 1 0.411257 0.142148 0.616399
548 2 0.434915 0.133448 0.602763
549 1 0.439006 0.136282 0.608936
1788 1 0.440226 0.137709 0.611321
1787 2 0.442024 0.141687 0.618024
5409 1 0.459117 0.138099 0.59553
5408 2 0.461138 0.143319 0.600932
21254 3 0.468976 0.153024 0.613834
10073 2 0.478199 0.127245 0.598343
10074 1 0.48536 0.129556 0.602363
10072 1 0.470078 0.124653 0.595427
21255 1 0.4655 0.148874 0.608403
5407 1 0.463975 0.147573 0.606494
16632 1 0.488448 0.140672 0.605644
3782 2 0.484775 0.129722 0.619632
12774 1 0.503113 0.124295 0.608412
17717 3 0.510114 0.139227 0.588641
17716 1 0.512373 0.145214 0.592463
15618 1 0.513251 0.147803 0.593644
6191 2 0.517101 0.147659 0.617372
12772 1 0.51083 0.138255 0.613552
6192 1 0.512135 0.140935 0.614335
12773 3 0.506836 0.131372 0.611062
16631 3 0.492069 0.148155 0.60656
15617 2 0.516276 0.154551 0.596466
6190 1 0.52018 0.15401 0.620343
6082 1 0.428282 0.162087 0.61627
17517 1 0.458869 0.172042 0.619104
6083 3 0.434452 0.165751 0.62039
12372 1 0.481094 0.160735 0.59565
12371 3 0.481892 0.166495 0.602592
12370 1 0.48442 0.171854 0.607697
6940 1 0.485394 0.174396 0.609072
6941 2 0.488334 0.179917 0.613127
21253 1 0.473911 0.15821 0.618819
6942 1 0.491344 0.185571 0.615908
5945 3 0.503928 0.167246 0.588732
15169 1 0.519565 0.163639 0.601375
16630 1 0.495728 0.155324 0.609525
5946 1 0.507203 0.173926 0.590874
18469 1 0.508868 0.176739 0.591436
21489 1 0.504882 0.169992 0.617879
18470 3 0.51176 0.184423 0.594764
21487 1 0.497184 0.157815 0.610665
15616 1 0.518101 0.16081 0.599723
21488 3 0.501578 0.163184 0.614733
8847 1 0.506396 0.172573 0.619093
13205 3 0.493476 0.195777 0.620183
18471 1 0.513978 0.191086 0.598768
13206 1 0.492019 0.188143 0.617514
19474 1 0.514429 0.193609 0.599631
6450 1 0.519045 0.211074 0.605598
19476 1 0.518142 0.208551 0.604821
19475 3 0.516377 0.200899 0.602601
15777 1 0.505468 0.238739 0.617592
6449 3 0.520787 0.218677 0.60778
6448 1 0.522472 0.224655 0.610482
14939 2 0.460487 0.0174352 0.630284
14938 1 0.456704 0.0143936 0.62358
5425 1 0.454774 0.0137448 0.62108
14940 1 0.46537 0.020675 0.635989
15732 1 0.467436 0.0221567 0.638342
15731 2 0.473197 0.0264647 0.642534
15730 1 0.477817 0.0318851 0.645912
8025 1 0.513162 0.0316646 0.623713
3930 1 0.444789 0.0611302 0.630027
19906 1 0.444212 0.0590463 0.628119
18088 1 0.457265 0.0387965 0.650182
19907 3 0.440866 0.0534649 0.623228
20699 2 0.460135 0.0465078 0.621245
1803 1 0.479594 0.034738 0.646798
7996 1 0.465447 0.0538645 0.627758
1802 2 0.482538 0.0413679 0.648149
1801 1 0.484416 0.0488366 0.647879
15198 1 0.486592 0.0518085 0.647876
15197 3 0.49009 0.0589028 0.649488
7997 3 0.468627 0.0605478 0.631581
20698 1 0.463996 0.0515594 0.62584
19491 1 0.513728 0.0348439 0.625304
19490 3 0.51531 0.0411338 0.629259
19489 1 0.5178 0.0484208 0.632332
2683 1 0.518818 0.0508799 0.633526
2684 3 0.520798 0.0583014 0.636987
2195 3 0.496464 0.0613578 0.626822
2194 1 0.496101 0.0548479 0.624001
9997 1 0.495683 0.0522888 0.622858
10620 1 0.392764 0.0925224 0.642051
10619 2 0.396526 0.0967088 0.647532
7536 1 0.403734 0.0736109 0.636781
5402 2 0.425567 0.0727589 0.624892
5401 1 0.426791 0.0785918 0.631409
9000 1 0.427162 0.0804096 0.633762
8999 2 0.428517 0.0840016 0.640708
7535 2 0.406998 0.0781361 0.642177
7534 1 0.410792 0.0820302 0.649129
19345 1 0.412048 0.0833449 0.651463
18382 1 0.404084 0.0916971 0.622436
16531 1 0.405228 0.0937704 0.624002
5403 1 0.423892 0.0657929 0.62139
64 1 0.460822 0.0888327 0.62537
3929 2 0.446897 0.0662776 0.634979
15662 2 0.434181 0.0951612 0.62301
3928 1 0.449755 0.0721791 0.639865
13692 1 0.451203 0.0741071 0.641009
13691 3 0.45579 0.079168 0.644006
13690 1 0.460037 0.0853372 0.646201
8998 1 0.431032 0.0874055 0.647571
10947 1 0.432252 0.0891488 0.650017
15663 1 0.439152 0.0974203 0.629497
4641 1 0.459672 0.086344 0.624308
20858 3 0.485232 0.0908286 0.620858
1161 1 0.461397 0.0876583 0.647192
7998 1 0.473282 0.0669266 0.632999
18358 1 0.475177 0.0695509 0.633789
18359 3 0.479125 0.0764126 0.635929
18360 1 0.481155 0.0833353 0.638498
5368 1 0.482114 0.0859796 0.639423
5369 3 0.486477 0.092483 0.643029
65 3 0.46472 0.0949363 0.628715
1160 3 0.465364 0.0937277 0.649627
5370 1 0.490885 0.0975653 0.64527
2196 1 0.498063 0.068006 0.629322
9564 1 0.499136 0.0708593 0.630305
9562 1 0.506815 0.0842403 0.634527
19329 1 0.508158 0.0868119 0.635158
19328 3 0.512806 0.0934031 0.635607
9563 3 0.503307 0.0770127 0.63268
15196 1 0.493533 0.0658476 0.65088
2685 1 0.522432 0.0658422 0.640666
17484 1 0.395989 0.124374 0.620942
17483 2 0.400364 0.124508 0.626901
16533 1 0.413988 0.102218 0.633971
3421 1 0.415968 0.10298 0.636297
3422 2 0.421272 0.105952 0.642703
17482 1 0.406934 0.124712 0.6314
21279 1 0.409301 0.125554 0.633549
21278 3 0.415082 0.128151 0.638965
21277 1 0.419035 0.129856 0.646421
3423 1 0.424938 0.108198 0.649415
16532 2 0.409467 0.0993841 0.628483
14799 1 0.429117 0.123183 0.627697
14798 2 0.424571 0.119261 0.621328
10996 1 0.441253 0.0981218 0.63132
14860 1 0.43105 0.124336 0.629771
14861 2 0.435803 0.127079 0.635594
10997 3 0.447201 0.101246 0.636273
10998 1 0.451126 0.106961 0.640305
12454 1 0.452701 0.109144 0.64201
12455 3 0.457556 0.114385 0.645675
4719 1 0.457239 0.126186 0.622715
9298 1 0.455522 0.124422 0.6207
66 1 0.468847 0.101569 0.630989
19518 1 0.470045 0.103952 0.631944
20857 1 0.488555 0.0977995 0.624348
19517 3 0.473763 0.109964 0.633636
19516 1 0.477007 0.116808 0.635727
9861 1 0.478291 0.119 0.636999
9860 3 0.48228 0.124223 0.640611
9859 1 0.486888 0.128454 0.644448
9175 1 0.49017 0.10017 0.62584
12456 1 0.462622 0.119117 0.649913
19327 1 0.516674 0.0992167 0.637696
3024 1 0.493097 0.0998403 0.64638
9176 3 0.494357 0.106894 0.628028
19033 1 0.517836 0.101695 0.638228
9177 1 0.498471 0.113117 0.628282
1050 1 0.500287 0.115379 0.628696
1049 3 0.503752 0.121597 0.631289
1048 1 0.506282 0.128163 0.635506
19034 3 0.520507 0.109332 0.640332
3023 3 0.496895 0.105695 0.648608
3022 1 0.501478 0.112403 0.650352
15132 1 0.50357 0.114349 0.651287
6197 3 0.522328 0.121012 0.622679
11580 1 0.393718 0.155481 0.649125
6643 1 0.421279 0.131017 0.648616
11579 2 0.401678 0.154977 0.651255
14506 1 0.421273 0.145146 0.63085
16009 1 0.42293 0.14631 0.633153
16010 3 0.427799 0.150954 0.63798
14507 3 0.417193 0.142422 0.624439
4718 3 0.459961 0.131492 0.628033
14862 1 0.441369 0.130657 0.639614
11878 1 0.443698 0.132846 0.64143
16011 1 0.432538 0.154566 0.642011
14073 1 0.43454 0.15579 0.643981
11879 3 0.448566 0.138019 0.647542
20836 1 0.451692 0.158744 0.635292
16453 1 0.453857 0.16001 0.637097
14072 3 0.438532 0.160064 0.649051
20837 3 0.447568 0.154142 0.630994
16454 3 0.46022 0.162603 0.640856
20838 1 0.445353 0.14874 0.62559
1786 1 0.44456 0.146531 0.623167
8040 1 0.488934 0.130864 0.646406
4717 1 0.464545 0.137012 0.631897
10240 1 0.465543 0.13883 0.633833
10241 3 0.471267 0.144031 0.637748
10242 1 0.4775 0.148224 0.642137
4899 1 0.478866 0.150049 0.643876
4898 3 0.483151 0.155029 0.648008
4897 1 0.487372 0.160045 0.650506
17067 1 0.489198 0.161919 0.651351
19827 1 0.4881 0.13886 0.62347
3781 1 0.486791 0.136362 0.622215
14545 1 0.475986 0.159772 0.62091
20622 1 0.507628 0.130755 0.637362
8039 3 0.492877 0.135391 0.650346
19826 3 0.49242 0.144684 0.628139
19825 1 0.49789 0.150486 0.631669
11784 1 0.499422 0.152618 0.633222
20621 3 0.510888 0.136592 0.639803
20620 1 0.517536 0.142643 0.642158
14350 1 0.519635 0.144296 0.64271
11783 3 0.503627 0.158987 0.636703
18429 1 0.521311 0.15683 0.621633
3531 1 0.457678 0.194427 0.646446
3530 3 0.452827 0.188944 0.644519
16032 1 0.446411 0.182525 0.637964
3529 1 0.447952 0.184297 0.639817
16031 3 0.443643 0.177261 0.63253
16030 1 0.440532 0.172154 0.627443
6084 1 0.439283 0.170061 0.625444
17516 3 0.464427 0.17712 0.621917
4013 3 0.473688 0.192317 0.631357
16455 1 0.466411 0.167931 0.64165
17265 1 0.487369 0.172586 0.630319
14547 1 0.485778 0.170522 0.628808
612 1 0.468692 0.170394 0.64247
611 3 0.472918 0.175448 0.644726
610 1 0.478387 0.180773 0.648235
10770 1 0.479854 0.183164 0.649695
14546 3 0.480903 0.164465 0.624567
17264 3 0.491761 0.178168 0.634461
4012 1 0.469131 0.186228 0.626753
17515 1 0.467859 0.183851 0.625541
11636 3 0.502198 0.190751 0.639399
11782 1 0.507942 0.164762 0.638729
18021 1 0.509475 0.167167 0.639929
18020 3 0.515846 0.17284 0.642974
18019 1 0.518615 0.179643 0.64484
17263 1 0.49674 0.182765 0.636712
5629 1 0.519387 0.182185 0.645541
11635 1 0.49856 0.18466 0.63769
1842 1 0.515717 0.190051 0.625538
8845 1 0.51421 0.186914 0.625232
8846 3 0.510395 0.179366 0.623124
19461 1 0.45575 0.0171759 0.680137
19460 3 0.46018 0.0242502 0.680464
9946 1 0.470498 0.0291958 0.662679
9947 2 0.477225 0.0274532 0.666722
9948 1 0.483618 0.0294103 0.670796
13080 1 0.486164 0.0304311 0.671619
14551 1 0.478155 0.00251593 0.670995
14552 2 0.484981 0.007235 0.672415
13082 2 0.502723 0.0140787 0.67555
13083 1 0.495429 0.0110505 0.673508
14553 1 0.492547 0.00999304 0.673254
5926 1 0.511758 0.0205086 0.67403
13081 1 0.509087 0.0188427 0.674673
5927 3 0.518266 0.0252906 0.671411
32 3 0.398675 0.0546604 0.680501
10795 1 0.425571 0.050402 0.661668
10796 3 0.429574 0.057467 0.662358
31 1 0.404432 0.0606945 0.68131
5433 1 0.405947 0.0629194 0.681294
4237 1 0.450507 0.0453705 0.676835
4238 2 0.457113 0.0492959 0.678105
10797 1 0.434164 0.0631646 0.66684
18089 2 0.462634 0.0460242 0.651874
18090 1 0.46611 0.0542202 0.652764
6577 1 0.466935 0.056826 0.653295
18126 1 0.472675 0.0438575 0.66835
18125 2 0.478222 0.0503952 0.66837
18124 1 0.484721 0.0558081 0.668815
10648 1 0.486462 0.0578136 0.669256
4239 1 0.462099 0.0555487 0.679446
5341 1 0.464269 0.0579313 0.680078
5342 3 0.469543 0.0641643 0.68163
6578 3 0.470656 0.0647488 0.654393
10649 3 0.490588 0.064577 0.670273
6043 1 0.511019 0.0354806 0.660178
6044 3 0.511755 0.0431128 0.659026
6045 1 0.513672 0.0512899 0.657971
2838 1 0.514925 0.0536459 0.658179
2837 3 0.517959 0.0610596 0.660103
13079 3 0.49276 0.0344647 0.673688
13078 1 0.497881 0.0389653 0.675809
21349 1 0.499778 0.0408698 0.677074
21350 3 0.505689 0.0459984 0.680405
21351 1 0.511708 0.0508437 0.681934
20244 1 0.513657 0.0528374 0.682393
2866 1 0.398912 0.0893001 0.677501
19346 3 0.416124 0.087042 0.657479
19347 1 0.420691 0.0914482 0.663157
667 1 0.422408 0.0930783 0.66513
2867 3 0.402386 0.0957578 0.678794
5432 2 0.410995 0.0703716 0.682122
21027 1 0.435538 0.0650703 0.668282
3333 1 0.453985 0.0718866 0.66427
10946 3 0.437534 0.0931903 0.654701
3332 3 0.457798 0.078171 0.665622
10945 1 0.442041 0.096602 0.660284
21026 2 0.439128 0.0710216 0.672298
21025 1 0.440925 0.0784632 0.676393
10326 1 0.44181 0.0804811 0.677868
10325 3 0.444497 0.0865168 0.682208
3331 1 0.462103 0.086038 0.667556
8637 1 0.464102 0.088596 0.668565
6579 1 0.474311 0.0720835 0.65547
10339 1 0.475903 0.0744428 0.656482
10340 3 0.479257 0.080801 0.659063
8636 3 0.468212 0.0941527 0.67205
10341 1 0.482962 0.0869474 0.661904
12262 1 0.484636 0.0887025 0.662799
12263 3 0.489842 0.0917385 0.666501
14364 1 0.495727 0.0685033 0.65188
2836 1 0.521885 0.0672649 0.661846
10650 1 0.495127 0.070509 0.671118
15756 1 0.497741 0.0729176 0.672066
14363 3 0.499919 0.0751178 0.654026
14362 1 0.50373 0.0833854 0.65546
13591 1 0.505792 0.0858423 0.656483
13592 3 0.511973 0.0908308 0.657914
15755 3 0.503249 0.0784383 0.674605
15754 1 0.509392 0.0832987 0.676966
8782 1 0.511574 0.0852577 0.67782
8783 3 0.518661 0.089142 0.680382
13593 1 0.516515 0.0954462 0.659886
12264 1 0.494999 0.0964881 0.670144
741 1 0.518888 0.0974863 0.660662
19953 1 0.377991 0.114177 0.652048
19952 3 0.382536 0.117123 0.657509
19951 1 0.388626 0.119067 0.663956
7410 1 0.390211 0.119918 0.665793
7409 3 0.394378 0.122392 0.672011
7408 1 0.398047 0.125713 0.678253
7858 1 0.399307 0.126801 0.681022
10873 1 0.426509 0.109661 0.651591
10618 1 0.40078 0.100766 0.652625
5832 1 0.402053 0.102523 0.654347
5831 3 0.406149 0.109019 0.658814
5830 1 0.409224 0.115329 0.663384
12156 1 0.410683 0.117115 0.665254
12155 3 0.413774 0.122183 0.669564
12154 1 0.41827 0.127598 0.674611
21478 1 0.419784 0.129299 0.677051
668 3 0.424832 0.0978064 0.670827
669 1 0.429105 0.102688 0.675359
2868 1 0.406753 0.102716 0.680802
78 1 0.408791 0.104786 0.681999
20325 1 0.44391 0.0979624 0.66202
10874 3 0.431387 0.113604 0.656794
10875 1 0.436345 0.117932 0.660372
3025 1 0.438241 0.119777 0.661748
12955 1 0.431288 0.104883 0.676936
20324 3 0.449244 0.101635 0.665739
3026 3 0.444205 0.124186 0.664388
20323 1 0.454152 0.106659 0.670282
18691 1 0.455684 0.108754 0.671432
18692 3 0.461117 0.113829 0.673201
12956 3 0.436192 0.109398 0.679981
3027 1 0.448891 0.128549 0.667833
1159 1 0.469574 0.10015 0.652963
14842 1 0.471748 0.102345 0.653736
855 1 0.464032 0.120816 0.651598
8635 1 0.473766 0.0994651 0.675136
20286 1 0.475092 0.101062 0.676365
14843 3 0.475887 0.107639 0.65762
14844 1 0.482324 0.11201 0.660807
14260 1 0.484257 0.114486 0.662055
14261 3 0.487556 0.119453 0.666339
18693 1 0.466011 0.11944 0.676838
2764 1 0.467821 0.121769 0.677908
854 3 0.468384 0.126773 0.656376
2765 3 0.472599 0.127782 0.68118
20285 3 0.479922 0.106384 0.68136
14262 1 0.492109 0.124928 0.670638
10000 1 0.494244 0.127387 0.671356
10174 1 0.496521 0.0988196 0.67163
15131 3 0.50831 0.119393 0.654035
10175 3 0.501228 0.105637 0.673986
10176 1 0.506658 0.110652 0.676448
20446 1 0.508755 0.113227 0.677576
20447 3 0.513504 0.119018 0.680166
15130 1 0.514309 0.124202 0.656619
20448 1 0.516912 0.125009 0.682376
12067 1 0.515938 0.126662 0.657959
14068 1 0.373067 0.162536 0.667983
6644 3 0.426376 0.134727 0.653941
4686 1 0.411499 0.157556 0.654988
11578 1 0.408946 0.156427 0.654007
4685 3 0.417352 0.161566 0.658012
2179 1 0.405271 0.142684 0.671902
2180 3 0.410181 0.148068 0.675905
2181 1 0.415657 0.1522 0.679124
8151 1 0.41794 0.154051 0.680238
21479 3 0.42487 0.133006 0.681958
10470 1 0.45106 0.130362 0.669657
11880 1 0.453509 0.142031 0.652958
9688 1 0.45504 0.143857 0.654987
6645 1 0.431628 0.138629 0.658877
633 1 0.433191 0.13973 0.660064
632 3 0.438099 0.144262 0.664622
631 1 0.441408 0.148318 0.669333
14286 1 0.443144 0.150442 0.671139
10469 3 0.454367 0.134256 0.67391
9689 3 0.459001 0.149129 0.658858
10468 1 0.459782 0.140526 0.677402
14285 3 0.446702 0.155353 0.675388
14284 1 0.449866 0.161026 0.677934
12690 1 0.461458 0.142987 0.67828
9690 1 0.463381 0.154842 0.661497
16066 1 0.465632 0.157475 0.662018
12689 3 0.465612 0.149341 0.67977
853 1 0.4732 0.132653 0.658595
1507 1 0.474461 0.134386 0.659865
1508 3 0.478879 0.140173 0.662933
1509 1 0.48276 0.145528 0.6665
9472 1 0.484923 0.148186 0.667623
9473 3 0.489988 0.154436 0.669775
16067 3 0.471036 0.161844 0.66372
8038 1 0.498615 0.140022 0.653299
9474 1 0.495867 0.159393 0.670773
6816 1 0.500654 0.142132 0.654204
6815 3 0.505381 0.148192 0.655267
10001 3 0.499574 0.132962 0.673479
6814 1 0.50982 0.153249 0.657782
13156 1 0.511918 0.155182 0.658544
10002 1 0.503431 0.138133 0.67515
18504 1 0.504968 0.140474 0.676069
18503 3 0.5103 0.146737 0.678208
13157 3 0.516536 0.160522 0.660479
18502 1 0.51568 0.152903 0.679688
9850 1 0.517573 0.154927 0.679968
17706 1 0.49767 0.16155 0.671356
9851 3 0.522425 0.161479 0.681144
12068 3 0.520274 0.13227 0.660987
14069 2 0.379875 0.166326 0.668227
14070 1 0.386829 0.170012 0.670247
2562 1 0.389717 0.171066 0.671031
2561 2 0.395698 0.174442 0.674253
4684 1 0.422755 0.164702 0.661439
7957 1 0.424541 0.165994 0.662462
2560 1 0.402213 0.175013 0.680272
5967 1 0.404446 0.175284 0.682549
7755 1 0.447603 0.192895 0.677813
14071 1 0.445218 0.162681 0.65308
20842 1 0.447443 0.164005 0.654774
7958 3 0.430577 0.169831 0.666157
7959 1 0.435592 0.175874 0.668389
73 1 0.437207 0.177716 0.66935
75 1 0.445729 0.190396 0.67714
20843 3 0.451607 0.169036 0.658727
6118 1 0.45753 0.17754 0.661232
20844 1 0.455614 0.17511 0.66049
12490 1 0.451467 0.163971 0.679191
12491 3 0.456177 0.169743 0.68186
74 3 0.441472 0.183854 0.673266
10769 3 0.482324 0.188796 0.653365
12033 1 0.466034 0.193419 0.666052
6119 3 0.461474 0.18394 0.663118
16068 1 0.47463 0.167817 0.667424
18649 1 0.475961 0.17054 0.668839
18650 3 0.479538 0.176823 0.671144
18651 1 0.485441 0.183151 0.672618
8721 1 0.487072 0.185 0.672849
6120 1 0.464525 0.190911 0.664646
10768 1 0.486792 0.194884 0.657556
8720 3 0.492569 0.190336 0.674342
17066 3 0.495322 0.166706 0.653589
17065 1 0.5005 0.172655 0.654848
17705 3 0.501236 0.167797 0.67447
17023 1 0.501946 0.175252 0.655504
17025 1 0.507509 0.189559 0.660411
17024 3 0.50463 0.182447 0.657895
13158 1 0.520013 0.166041 0.661863
17704 1 0.506052 0.174601 0.676409
18343 1 0.507632 0.177425 0.677258
18344 3 0.511596 0.184156 0.68057
19861 1 0.50848 0.1919 0.661578
2226 1 0.521454 0.168431 0.662483
8775 1 0.467426 0.0312966 0.684012
19459 1 0.465086 0.0289884 0.682972
10575 1 0.483656 0.0110188 0.69439
10574 2 0.488345 0.0162154 0.695
2980 1 0.513607 0.00207474 0.693476
19708 1 0.519996 0.0188525 0.691467
12858 1 0.495956 0.0247488 0.695868
10573 1 0.493695 0.0220454 0.695323
12857 2 0.502267 0.0316732 0.697672
2981 2 0.516268 0.00887356 0.693856
2982 1 0.519062 0.0159393 0.69187
33 1 0.393905 0.0480435 0.683753
8570 2 0.415844 0.0432762 0.700718
8569 1 0.414389 0.0355782 0.700974
8571 1 0.418421 0.0516379 0.700025
10197 1 0.419616 0.0550803 0.70008
10196 3 0.422624 0.062641 0.701739
17650 1 0.431285 0.043683 0.6909
17651 2 0.436599 0.0494462 0.690505
17652 1 0.442207 0.0547102 0.691773
16737 1 0.444192 0.057051 0.692292
984 1 0.457946 0.0458308 0.703862
16736 2 0.4497 0.0634728 0.692672
8774 3 0.473078 0.0369094 0.685559
8773 1 0.479442 0.0432174 0.685759
20259 1 0.481456 0.0448906 0.686487
7857 1 0.472102 0.0573395 0.705221
982 1 0.470058 0.0554203 0.705226
983 3 0.46463 0.0504916 0.704618
7856 3 0.477684 0.0623807 0.704267
20258 2 0.486813 0.0492131 0.688484
17938 1 0.520699 0.0551843 0.703062
12856 1 0.507419 0.0377753 0.699104
20257 1 0.493066 0.053665 0.690149
12589 1 0.494925 0.0559742 0.690896
20992 1 0.509924 0.0406222 0.699288
12590 3 0.500361 0.0620184 0.693175
20993 3 0.514654 0.0469803 0.700235
20994 1 0.519128 0.0532016 0.702112
20243 3 0.520103 0.0589571 0.68389
5822 3 0.418515 0.0861138 0.688948
5431 1 0.414585 0.0766207 0.68523
5821 1 0.415525 0.0791283 0.686552
5823 1 0.422978 0.0911143 0.693328
3829 1 0.424865 0.0928885 0.694747
10195 1 0.427458 0.0690245 0.703671
13701 1 0.42983 0.0710497 0.704326
16735 1 0.45472 0.0701309 0.695007
10324 1 0.447604 0.0919726 0.686885
13700 3 0.434041 0.0764211 0.705983
13699 1 0.439175 0.0818907 0.708651
20815 1 0.441428 0.0843286 0.70992
18493 1 0.449094 0.0944877 0.688688
19731 1 0.45676 0.0725259 0.695725
20816 3 0.448402 0.0897886 0.711486
20817 1 0.454399 0.0951081 0.713188
5343 1 0.474273 0.0701523 0.683748
361 1 0.476161 0.0728666 0.684234
19730 3 0.46166 0.0782513 0.697047
7855 1 0.482619 0.0688264 0.706559
18061 1 0.4845 0.0705067 0.707323
19729 1 0.466253 0.0844418 0.697715
4450 1 0.46817 0.086532 0.6978
4451 3 0.474456 0.092434 0.700016
362 3 0.482564 0.0782346 0.684686
363 1 0.489764 0.0836992 0.686658
2421 1 0.491432 0.0855968 0.687147
18062 3 0.490888 0.0767402 0.711316
2420 3 0.495342 0.0909527 0.689494
12591 1 0.504444 0.0680819 0.695093
8712 1 0.517244 0.0852675 0.69937
4858 1 0.50651 0.0704886 0.695489
4859 3 0.511357 0.0771899 0.698121
4860 1 0.515669 0.0826247 0.698987
18063 1 0.496043 0.0828822 0.713284
2419 1 0.500209 0.0960017 0.692693
3830 3 0.429984 0.098107 0.698817
77 3 0.412992 0.10988 0.684989
76 1 0.418483 0.112904 0.688834
19093 1 0.420704 0.113885 0.690618
19094 3 0.425749 0.117617 0.695631
19095 1 0.429439 0.123053 0.700571
927 1 0.430944 0.125055 0.702079
18494 3 0.453151 0.100043 0.692139
3831 1 0.435662 0.102954 0.70186
12957 1 0.441458 0.114667 0.683291
18264 1 0.443734 0.116471 0.685483
18263 3 0.447817 0.121142 0.689819
7950 1 0.43707 0.105035 0.703255
7949 3 0.441682 0.111069 0.707831
7948 1 0.445717 0.115954 0.711628
18262 1 0.45142 0.127603 0.693353
10042 1 0.4476 0.117815 0.713187
18495 1 0.458798 0.106114 0.695679
1120 1 0.460202 0.108556 0.696854
4452 1 0.479115 0.0982055 0.703228
349 1 0.480345 0.100193 0.704
1121 3 0.464383 0.11394 0.699866
1122 1 0.470294 0.120443 0.702374
20284 1 0.485333 0.111295 0.685172
14830 1 0.472366 0.123243 0.703151
14831 3 0.476999 0.12917 0.704263
350 3 0.484645 0.10512 0.704965
14794 1 0.488096 0.11357 0.686664
351 1 0.489824 0.111211 0.706713
4087 1 0.491876 0.112938 0.707967
15162 1 0.518423 0.12705 0.683241
14795 3 0.493953 0.118296 0.688264
14293 1 0.501946 0.0983756 0.693766
14796 1 0.499681 0.122776 0.690566
14295 1 0.512339 0.109606 0.697995
14294 3 0.506642 0.104186 0.696584
15420 1 0.501427 0.125863 0.691059
16549 1 0.514362 0.111782 0.698452
4088 3 0.498121 0.1198 0.710606
4089 1 0.502379 0.125173 0.712752
16550 3 0.519421 0.117923 0.701779
20788 1 0.381936 0.160619 0.690972
9264 1 0.387791 0.142824 0.693896
9263 3 0.392427 0.144965 0.700811
9262 1 0.395854 0.148957 0.707166
9780 1 0.396834 0.149893 0.709239
8150 3 0.422951 0.158336 0.683004
7859 3 0.403145 0.130239 0.687785
16383 1 0.400146 0.162347 0.696799
7860 1 0.406863 0.132947 0.693065
13446 1 0.408449 0.133608 0.695353
13445 3 0.412581 0.135635 0.701627
16382 2 0.408005 0.161011 0.699293
16381 1 0.415738 0.161446 0.702279
14548 1 0.419226 0.161948 0.703333
13444 1 0.415242 0.138957 0.708326
14549 3 0.427251 0.162226 0.7057
6336 1 0.416375 0.140019 0.710839
21480 1 0.430822 0.137426 0.685042
4800 1 0.452949 0.130158 0.695148
926 3 0.434931 0.130995 0.70601
16197 1 0.432738 0.139331 0.686423
16196 3 0.437111 0.144905 0.69041
16195 1 0.443125 0.150912 0.692786
13257 1 0.44496 0.152596 0.694028
13256 3 0.448847 0.157751 0.697312
925 1 0.437798 0.136615 0.709294
15768 1 0.439722 0.139086 0.710651
4799 3 0.457415 0.136189 0.698414
15767 3 0.444796 0.145043 0.713542
12688 1 0.470248 0.154689 0.68393
4798 1 0.461849 0.142683 0.700817
2766 1 0.477331 0.133506 0.683817
2694 1 0.479799 0.135838 0.685289
13741 1 0.464058 0.144983 0.702001
14868 1 0.47219 0.156692 0.685389
13742 3 0.468606 0.149962 0.705508
13743 1 0.472535 0.155089 0.709015
7629 1 0.474364 0.157165 0.710423
14832 1 0.481947 0.134613 0.70696
12520 1 0.484078 0.136549 0.70741
2693 3 0.483838 0.141457 0.687662
2692 1 0.488973 0.147149 0.688295
18489 1 0.49102 0.149354 0.688483
12521 3 0.489773 0.14227 0.71007
14867 3 0.476047 0.161044 0.689297
18488 3 0.495909 0.154873 0.690304
15419 3 0.503741 0.132267 0.694116
15418 1 0.507993 0.139067 0.696504
6001 1 0.509491 0.141894 0.697684
6002 3 0.514016 0.147613 0.700429
6003 1 0.520162 0.152888 0.702305
18487 1 0.501824 0.160019 0.69298
12522 1 0.493986 0.147552 0.712385
12420 1 0.496287 0.149683 0.713533
4333 1 0.504289 0.162343 0.693851
1057 1 0.522014 0.155332 0.702929
20789 2 0.389163 0.162815 0.69383
20790 1 0.396938 0.162971 0.695637
14248 1 0.428614 0.189803 0.709162
8206 1 0.426388 0.188019 0.707706
8149 1 0.4302 0.162773 0.6859
8208 1 0.416414 0.180671 0.696129
5966 3 0.409799 0.177289 0.687937
5965 1 0.414721 0.179849 0.694144
8207 3 0.422568 0.183003 0.702517
6096 1 0.432141 0.164753 0.686347
6095 3 0.436604 0.17109 0.689348
12492 1 0.459944 0.176187 0.684333
14550 1 0.433613 0.164068 0.708625
13255 1 0.453042 0.16414 0.7018
18924 1 0.436231 0.166257 0.710105
6094 1 0.439903 0.17699 0.692055
3217 1 0.454414 0.166293 0.702889
8487 1 0.441218 0.179302 0.69284
18923 3 0.440343 0.171065 0.713349
8486 3 0.444284 0.185742 0.695919
8485 1 0.448386 0.192017 0.69805
3218 3 0.457841 0.172634 0.704463
14249 3 0.434831 0.193976 0.712827
2698 1 0.450122 0.194398 0.698388
9408 1 0.47225 0.192852 0.712968
2115 1 0.469918 0.190682 0.690347
2113 1 0.461749 0.178808 0.685645
3219 1 0.462933 0.178701 0.706602
9406 1 0.464836 0.181291 0.70738
7628 3 0.47986 0.162802 0.711481
14866 1 0.480206 0.167424 0.691494
10614 1 0.481856 0.169613 0.69263
10613 3 0.486522 0.175565 0.692777
10612 1 0.491652 0.182796 0.6943
2114 3 0.466379 0.18401 0.68745
9407 3 0.467955 0.187957 0.709054
7627 1 0.484583 0.169142 0.712053
3433 1 0.486357 0.172121 0.711993
3434 3 0.490717 0.178154 0.713509
2379 1 0.4714 0.192915 0.691159
7543 1 0.521154 0.18918 0.706736
13546 1 0.517776 0.192903 0.685334
12306 1 0.493536 0.185344 0.695232
12305 3 0.49842 0.191448 0.696721
18345 1 0.516365 0.190479 0.684358
7544 3 0.517892 0.183132 0.703465
4334 3 0.508506 0.168172 0.696357
7545 1 0.51456 0.177046 0.701241
4335 1 0.512987 0.17439 0.699894
10084 1 0.421096 0.0549517 0.722469
10086 1 0.409643 0.0421607 0.722785
10085 2 0.415321 0.0492779 0.722462
5913 1 0.422547 0.057332 0.722878
5912 3 0.425676 0.0646744 0.722676
3963 1 0.452893 0.0621068 0.738151
3453 1 0.449559 0.0572455 0.715238
3452 3 0.453919 0.0643478 0.715205
12988 1 0.480627 0.0567189 0.721302
12989 2 0.485679 0.0615034 0.724964
12694 1 0.49584 0.0338369 0.715229
12695 3 0.498968 0.0400513 0.717853
12696 1 0.50189 0.0467609 0.7207
10552 1 0.503649 0.0497936 0.721487
10553 2 0.507865 0.0572933 0.721471
10554 1 0.511815 0.0638703 0.721798
14334 1 0.407634 0.0820171 0.715407
14333 3 0.414222 0.0845648 0.716751
14332 1 0.421256 0.0877527 0.718955
10963 1 0.423555 0.0893147 0.719421
5911 1 0.432178 0.0686894 0.723527
9358 1 0.456709 0.0971704 0.714183
3042 1 0.434199 0.0703326 0.724009
3041 3 0.440064 0.0756754 0.725624
3040 1 0.445403 0.0813793 0.727836
7431 1 0.44761 0.083494 0.72867
7430 3 0.453426 0.0883624 0.731036
7429 1 0.458489 0.0936438 0.735298
18963 1 0.460412 0.0958191 0.736665
3451 1 0.458064 0.0703847 0.716968
13560 1 0.459945 0.0728761 0.717533
10964 3 0.430737 0.0944319 0.721743
3962 3 0.458787 0.0668035 0.739862
13559 3 0.466298 0.0790594 0.718283
13558 1 0.472201 0.0856262 0.71943
4833 1 0.473994 0.087654 0.719558
4832 3 0.479319 0.0930263 0.721366
12990 1 0.49056 0.067174 0.728044
3961 1 0.464599 0.0718634 0.739911
18036 1 0.467026 0.0740781 0.739499
18035 3 0.472726 0.0798417 0.739654
18034 1 0.478212 0.0853965 0.741264
10921 1 0.480726 0.0874695 0.74207
10922 3 0.486519 0.0918021 0.744523
7872 1 0.498316 0.085071 0.714126
7871 3 0.503238 0.0907029 0.714948
8011 1 0.49249 0.069313 0.728662
4293 1 0.513805 0.0670033 0.721969
8012 3 0.497824 0.0740006 0.73019
8013 1 0.502844 0.0808139 0.730919
16927 1 0.504447 0.083281 0.731299
16928 3 0.508296 0.0893913 0.733784
16929 1 0.512941 0.0953893 0.73705
3124 1 0.514639 0.0974907 0.738093
7870 1 0.508392 0.09664 0.716432
4292 3 0.519231 0.0730779 0.722921
17880 1 0.40341 0.102621 0.724272
17879 2 0.410583 0.105368 0.725563
17878 1 0.417698 0.108773 0.726918
5995 1 0.420356 0.110129 0.727451
5996 3 0.425894 0.115482 0.7278
5997 1 0.430694 0.121413 0.728492
10043 3 0.451976 0.122399 0.716767
10965 1 0.436108 0.0996933 0.724838
19287 1 0.43824 0.101409 0.725609
19286 3 0.444502 0.105957 0.729229