ITEM: TIMESTEP
0
ITEM: NUMBER OF ATOMS
1893
ITEM: BOX BOUNDS pp pp pp
0.0000000000000000e+00 5.0000000000000000e+01
0.0000000000000000e+00 5.0000000000000000e+01
0.0000000000000000e+00 5.0000000000000000e+01
ITEM: ATOMS id type 
250 1 
251 3 
252 1 
301 1 
302 3 
303 1 
430 1 
431 2 
432 1 
1201 1 
1202 3 
1203 1 
1210 1 
1211 3 
1212 1 
1324 1 
1325 2 
1326 1 
1384 1 
1385 3 
1386 1 
1561 1 
1562 2 
1563 1 
2227 1 
2228 2 
2229 1 
2344 1 
2345 2 
2346 1 
3190 1 
3191 2 
3192 1 
3241 1 
3242 2 
3243 1 
3724 1 
3725 2 
3726 1 
4744 1 
4745 3 
4746 1 
5524 1 
5525 3 
5526 1 
5941 1 
5942 3 
5943 1 
6670 1 
6671 2 
6672 1 
6781 1 
6782 2 
6783 1 
6787 1 
6788 2 
6789 1 
7021 1 
7022 2 
7023 1 
7081 1 
7082 3 
7083 1 
7981 1 
7982 3 
7983 1 
7990 1 
7991 3 
7992 1 
8170 1 
8171 2 
8172 1 
8221 1 
8222 3 
8223 1 
9181 1 
9182 2 
9183 1 
9301 1 
9302 3 
9303 1 
9304 1 
9305 2 
9306 1 
10024 1 
10025 3 
10026 1 
10270 1 
10271 2 
10272 1 
10390 1 
10391 3 
10392 1 
382 1 
383 2 
384 1 
1282 1 
1283 3 
1284 1 
1462 1 
1463 2 
1464 1 
2239 1 
2240 3 
2241 1 
2473 1 
2474 2 
2475 1 
3199 1 
3200 3 
3201 1 
3556 1 
3557 3 
3558 1 
4339 1 
4340 2 
4341 1 
4453 1 
4454 2 
4455 1 
4693 1 
4694 3 
4695 1 
4696 1 
4697 3 
4698 1 
4699 1 
4700 3 
4701 1 
4756 1 
4757 2 
4758 1 
4876 1 
4877 2 
4878 1 
5542 1 
5543 3 
5544 1 
5956 1 
5957 3 
5958 1 
6016 1 
6017 3 
6018 1 
7096 1 
7097 2 
7098 1 
7213 1 
7214 3 
7215 1 
7873 1 
7874 2 
7875 1 
8173 1 
8174 2 
8175 1 
8182 1 
8183 2 
8184 1 
8956 1 
8957 2 
8958 1 
9133 1 
9134 3 
9135 1 
9139 1 
9140 2 
9141 1 
9979 1 
9980 2 
9981 1 
10096 1 
10097 2 
10098 1 
10273 1 
10274 2 
10275 1 
10462 1 
10463 2 
10464 1 
214 1 
215 3 
216 1 
511 1 
512 2 
513 1 
1348 1 
1349 2 
1350 1 
2488 1 
2489 2 
2490 1 
2491 1 
2492 2 
2493 1 
4351 1 
4352 3 
4353 1 
4528 1 
4529 2 
4530 1 
4648 1 
4649 2 
4650 1 
4651 1 
4652 3 
4653 1 
5665 1 
5666 3 
5667 1 
5971 1 
5972 3 
5973 1 
6025 1 
6026 3 
6027 1 
6031 1 
6032 2 
6033 1 
6685 1 
6686 2 
6687 1 
6688 1 
6689 3 
6690 1 
6745 1 
6746 2 
6747 1 
6925 1 
6926 3 
6927 1 
6988 1 
6989 2 
6990 1 
7765 1 
7766 3 
7767 1 
8128 1 
8129 2 
8130 1 
8248 1 
8249 3 
8250 1 
8251 1 
8252 3 
8253 1 
8308 1 
8309 2 
8310 1 
9025 1 
9026 2 
9027 1 
9034 1 
9035 3 
9036 1 
9085 1 
9086 3 
9087 1 
9091 1 
9092 2 
9093 1 
9094 1 
9095 2 
9096 1 
9145 1 
9146 3 
9147 1 
9148 1 
9149 3 
9150 1 
9325 1 
9326 2 
9327 1 
10165 1 
10166 2 
10167 1 
10294 1 
10295 3 
10296 1 
10531 1 
10532 2 
10533 1 
37 1 
38 2 
39 1 
286 1 
287 3 
288 1 
1417 1 
1418 3 
1419 1 
1537 1 
1538 3 
1539 1 
2320 1 
2321 3 
2322 1 
2323 1 
2324 3 
2325 1 
2437 1 
2438 2 
2439 1 
3223 1 
3224 3 
3225 1 
3277 1 
3278 2 
3279 1 
3580 1 
3581 2 
3582 1 
4357 1 
4358 3 
4359 1 
4606 1 
4607 2 
4608 1 
4660 1 
4661 2 
4662 1 
5560 1 
5561 3 
5562 1 
5800 1 
5801 2 
5802 1 
5863 1 
5864 2 
5865 1 
6760 1 
6761 2 
6762 1 
7003 1 
7004 2 
7005 1 
8026 1 
8027 3 
8028 1 
9046 1 
9047 3 
9048 1 
9217 1 
9218 2 
9219 1 
9277 1 
9278 2 
9279 1 
10360 1 
10361 3 
10362 1 
10540 1 
10541 3 
10542 1 
109 1 
110 3 
111 1 
409 1 
410 2 
411 1 
532 1 
533 3 
534 1 
535 1 
536 3 
537 1 
1255 1 
1256 2 
1257 1 
1489 1 
1490 2 
1491 1 
2332 1 
2333 2 
2334 1 
2629 1 
2630 2 
2631 1 
2635 1 
2636 2 
2637 1 
3409 1 
3410 2 
3411 1 
3475 1 
3476 2 
3477 1 
3589 1 
3590 2 
3591 1 
3592 1 
3593 2 
3594 1 
5515 1 
5516 2 
5517 1 
5932 1 
5933 3 
5934 1 
6775 1 
6776 2 
6777 1 
6955 1 
6956 3 
6957 1 
7078 1 
7079 2 
7080 1 
7255 1 
7256 2 
7257 1 
7789 1 
7790 2 
7791 1 
7975 1 
7976 2 
7977 1 
8098 1 
8099 3 
8100 1 
9172 1 
9173 3 
9174 1 
9238 1 
9239 2 
9240 1 
10015 1 
10016 3 
10017 1 
10069 1 
10070 3 
10071 1 
10252 1 
10253 3 
10254 1 
10372 1 
10373 2 
10374 1 
10375 1 
10376 2 
10377 1 
10498 1 
10499 3 
10500 1 
850 1 
851 2 
852 1 
967 1 
968 2 
969 1 
1027 1 
1028 2 
1029 1 
1081 1 
1082 3 
1083 1 
1681 1 
1682 3 
1683 1 
2167 1 
2168 2 
2169 1 
2821 1 
2822 3 
2823 1 
2944 1 
2945 3 
2946 1 
3061 1 
3062 3 
3063 1 
3127 1 
3128 3 
3129 1 
5041 1 
5042 3 
5043 1 
6367 1 
6368 3 
6369 1 
7321 1 
7322 3 
7323 1 
7561 1 
7562 2 
7563 1 
7687 1 
7688 3 
7689 1 
8344 1 
8345 3 
8346 1 
8350 1 
8351 3 
8352 1 
8470 1 
8471 3 
8472 1 
8641 1 
8642 2 
8643 1 
8767 1 
8768 2 
8769 1 
9721 1 
9722 3 
9723 1 
9781 1 
9782 2 
9783 1 
9790 1 
9791 3 
9792 1 
9901 1 
9902 2 
9903 1 
9910 1 
9911 2 
9912 1 
10927 1 
10928 3 
10929 1 
10987 1 
10988 2 
10989 1 
10990 1 
10991 3 
10992 1 
1759 1 
1760 3 
1761 1 
1993 1 
1994 3 
1995 1 
2773 1 
2774 3 
2775 1 
2782 1 
2783 3 
2784 1 
3136 1 
3137 3 
3138 1 
3799 1 
3800 3 
3801 1 
3913 1 
3914 3 
3915 1 
5119 1 
5120 2 
5121 1 
5182 1 
5183 3 
5184 1 
5239 1 
5240 3 
5241 1 
5362 1 
5363 2 
5364 1 
6202 1 
6203 2 
6204 1 
6439 1 
6440 2 
6441 1 
7273 1 
7274 3 
7275 1 
8593 1 
8594 2 
8595 1 
8839 1 
8840 3 
8841 1 
9373 1 
9374 3 
9375 1 
9499 1 
9500 2 
9501 1 
9736 1 
9737 3 
9738 1 
9742 1 
9743 3 
9744 1 
10696 1 
10697 3 
10698 1 
10699 1 
10700 3 
10701 1 
10753 1 
10754 2 
10755 1 
10816 1 
10817 2 
10818 1 
10882 1 
10883 2 
10884 1 
10942 1 
10943 2 
10944 1 
11002 1 
11003 3 
11004 1 
628 1 
629 3 
630 1 
691 1 
692 3 
693 1 
1108 1 
1109 2 
1110 1 
1711 1 
1712 3 
1713 1 
1945 1 
1946 3 
1947 1 
2785 1 
2786 2 
2787 1 
2848 1 
2849 3 
2850 1 
2851 1 
2852 3 
2853 1 
2914 1 
2915 2 
2916 1 
3814 1 
3815 2 
3816 1 
4105 1 
4106 3 
4107 1 
4111 1 
4112 2 
4113 1 
4174 1 
4175 2 
4176 1 
4951 1 
4952 3 
4953 1 
4954 1 
4955 3 
4956 1 
5014 1 
5015 3 
5016 1 
5125 1 
5126 3 
5127 1 
5185 1 
5186 3 
5187 1 
5365 1 
5366 3 
5367 1 
5374 1 
5375 2 
5376 1 
6151 1 
6152 3 
6153 1 
6211 1 
6212 2 
6213 1 
6391 1 
6392 3 
6393 1 
6451 1 
6452 3 
6453 1 
7411 1 
7412 2 
7413 1 
7531 1 
7532 3 
7533 1 
7645 1 
7646 3 
7647 1 
7654 1 
7655 2 
7656 1 
7714 1 
7715 3 
7716 1 
8608 1 
8609 2 
8610 1 
9445 1 
9446 3 
9447 1 
9628 1 
9629 2 
9630 1 
9814 1 
9815 3 
9816 1 
10705 1 
10706 2 
10707 1 
10888 1 
10889 3 
10890 1 
10951 1 
10952 2 
10953 1 
11068 1 
11069 3 
11070 1 
763 1 
764 3 
765 1 
823 1 
824 2 
825 1 
1837 1 
1838 2 
1839 1 
2923 1 
2924 2 
2925 1 
3103 1 
3104 2 
3105 1 
3877 1 
3878 3 
3879 1 
4066 1 
4067 2 
4068 1 
4177 1 
4178 2 
4179 1 
4183 1 
4184 3 
4185 1 
4240 1 
4241 3 
4242 1 
4300 1 
4301 2 
4302 1 
4960 1 
4961 2 
4962 1 
5323 1 
5324 3 
5325 1 
5377 1 
5378 2 
5379 1 
6157 1 
6158 3 
6159 1 
6346 1 
6347 3 
6348 1 
6403 1 
6404 2 
6405 1 
7666 1 
7667 2 
7668 1 
7720 1 
7721 3 
7722 1 
7723 1 
7724 2 
7725 1 
8377 1 
8378 2 
8379 1 
8386 1 
8387 2 
8388 1 
8617 1 
8618 3 
8619 1 
9517 1 
9518 3 
9519 1 
9586 1 
9587 2 
9588 1 
9763 1 
9764 3 
9765 1 
9886 1 
9887 3 
9888 1 
9940 1 
9941 2 
9942 1 
10666 1 
10667 2 
10668 1 
10723 1 
10724 3 
10725 1 
649 1 
650 3 
651 1 
652 1 
653 2 
654 1 
1072 1 
1073 2 
1074 1 
1735 1 
1736 3 
1737 1 
1849 1 
1850 3 
1851 1 
1909 1 
1910 3 
1911 1 
1969 1 
1970 3 
1971 1 
2032 1 
2033 2 
2034 1 
2755 1 
2756 3 
2757 1 
2995 1 
2996 2 
2997 1 
3172 1 
3173 3 
3174 1 
3835 1 
3836 3 
3837 1 
4252 1 
4253 2 
4254 1 
6112 1 
6113 2 
6114 1 
6289 1 
6290 2 
6291 1 
6292 1 
6293 2 
6294 1 
6349 1 
6350 3 
6351 1 
6595 1 
6596 2 
6597 1 
7318 1 
7319 3 
7320 1 
7489 1 
7490 3 
7491 1 
8395 1 
8396 2 
8397 1 
8749 1 
8750 3 
8751 1 
9412 1 
9413 3 
9414 1 
9715 1 
9716 3 
9717 1 
9892 1 
9893 2 
9894 1 
11284 1 
11285 3 
11286 1 
11290 1 
11291 2 
11292 1 
12064 1 
12065 2 
12066 1 
12241 1 
12242 2 
12243 1 
12427 1 
12428 3 
12429 1 
12541 1 
12542 3 
12543 1 
14404 1 
14405 3 
14406 1 
14647 1 
14648 2 
14649 1 
15664 1 
15665 2 
15666 1 
15667 1 
15668 3 
15669 1 
16384 1 
16385 3 
16386 1 
16447 1 
16448 2 
16449 1 
16501 1 
16502 3 
16503 1 
16504 1 
16505 2 
16506 1 
17461 1 
17462 2 
17463 1 
18664 1 
18665 3 
18666 1 
18724 1 
18725 2 
18726 1 
18781 1 
18782 2 
18783 1 
19570 1 
19571 2 
19572 1 
19681 1 
19682 3 
19683 1 
19747 1 
19748 3 
19749 1 
19804 1 
19805 3 
19806 1 
19807 1 
19808 3 
19809 1 
19870 1 
19871 3 
19872 1 
20704 1 
20705 3 
20706 1 
20770 1 
20771 3 
20772 1 
20887 1 
20888 2 
20889 1 
20941 1 
20942 2 
20943 1 
20944 1 
20945 3 
20946 1 
11176 1 
11177 2 
11178 1 
11473 1 
11474 3 
11475 1 
12079 1 
12080 2 
12081 1 
12256 1 
12257 2 
12258 1 
12433 1 
12434 3 
12435 1 
12436 1 
12437 2 
12438 1 
12499 1 
12500 2 
12501 1 
13279 1 
13280 2 
13281 1 
14596 1 
14597 2 
14598 1 
15433 1 
15434 3 
15435 1 
15736 1 
15737 3 
15738 1 
16402 1 
16403 3 
16404 1 
16702 1 
16703 3 
16704 1 
17353 1 
17354 3 
17355 1 
17419 1 
17420 2 
17421 1 
17473 1 
17474 2 
17475 1 
17479 1 
17480 2 
17481 1 
17713 1 
17714 3 
17715 1 
18796 1 
18797 2 
18798 1 
18856 1 
18857 2 
18858 1 
19513 1 
19514 2 
19515 1 
19573 1 
19574 2 
19575 1 
19762 1 
19763 3 
19764 1 
19822 1 
19823 2 
19824 1 
19882 1 
19883 2 
19884 1 
20593 1 
20594 2 
20595 1 
20662 1 
20663 3 
20664 1 
20722 1 
20723 2 
20724 1 
20776 1 
20777 2 
20778 1 
20839 1 
20840 2 
20841 1 
21016 1 
21017 3 
21018 1 
11245 1 
11246 2 
11247 1 
12094 1 
12095 2 
12096 1 
12265 1 
12266 2 
12267 1 
12571 1 
12572 2 
12573 1 
13285 1 
13286 2 
13287 1 
14251 1 
14252 3 
14253 1 
14314 1 
14315 2 
14316 1 
14611 1 
14612 3 
14613 1 
14665 1 
14666 3 
14667 1 
15328 1 
15329 3 
15330 1 
15448 1 
15449 3 
15450 1 
15514 1 
15515 3 
15516 1 
15571 1 
15572 2 
15573 1 
15691 1 
15692 3 
15693 1 
16411 1 
16412 2 
16413 1 
16468 1 
16469 3 
16470 1 
16714 1 
16715 2 
16716 1 
17554 1 
17555 2 
17556 1 
17731 1 
17732 2 
17733 1 
17791 1 
17792 2 
17793 1 
18571 1 
18572 3 
18573 1 
18628 1 
18629 2 
18630 1 
18685 1 
18686 3 
18687 1 
18871 1 
18872 3 
18873 1 
19531 1 
19532 2 
19533 1 
19651 1 
19652 3 
19653 1 
19705 1 
19706 3 
19707 1 
20914 1 
20915 2 
20916 1 
20971 1 
20972 2 
20973 1 
20974 1 
20975 3 
20976 1 
21034 1 
21035 2 
21036 1 
11140 1 
11141 2 
11142 1 
11257 1 
11258 3 
11259 1 
11260 1 
11261 3 
11262 1 
11377 1 
11378 3 
11379 1 
11383 1 
11384 3 
11385 1 
11500 1 
11501 2 
11502 1 
12097 1 
12098 2 
12099 1 
13177 1 
13178 3 
13179 1 
13243 1 
13244 2 
13245 1 
13540 1 
13541 2 
13542 1 
13600 1 
13601 3 
13602 1 
14563 1 
14564 2 
14565 1 
14623 1 
14624 2 
14625 1 
14683 1 
14684 2 
14685 1 
15640 1 
15641 2 
15642 1 
15697 1 
15698 3 
15699 1 
16417 1 
16418 3 
16419 1 
16540 1 
16541 3 
16542 1 
16597 1 
16598 3 
16599 1 
17323 1 
17324 3 
17325 1 
17383 1 
17384 2 
17385 1 
17506 1 
17507 3 
17508 1 
17566 1 
17567 3 
17568 1 
17617 1 
17618 3 
17619 1 
17623 1 
17624 2 
17625 1 
17683 1 
17684 3 
17685 1 
18460 1 
18461 3 
18462 1 
18466 1 
18467 2 
18468 1 
18577 1 
18578 2 
18579 1 
18580 1 
18581 3 
18582 1 
18760 1 
18761 3 
18762 1 
18883 1 
18884 3 
18885 1 
19726 1 
19727 2 
19728 1 
20743 1 
20744 2 
20745 1 
11209 1 
11210 3 
11211 1 
11269 1 
11270 3 
11271 1 
11338 1 
11339 3 
11340 1 
11398 1 
11399 2 
11400 1 
12109 1 
12110 3 
12111 1 
12238 1 
12239 3 
12240 1 
12529 1 
12530 3 
12531 1 
12595 1 
12596 2 
12597 1 
13369 1 
13370 3 
13371 1 
13372 1 
13373 3 
13374 1 
13435 1 
13436 3 
13437 1 
13438 1 
13439 3 
13440 1 
14278 1 
14279 3 
14280 1 
14629 1 
14630 2 
14631 1 
15349 1 
15350 2 
15351 1 
15412 1 
15413 3 
15414 1 
15718 1 
15719 2 
15720 1 
16492 1 
16493 2 
16494 1 
16552 1 
16553 2 
16554 1 
16615 1 
16616 3 
16617 1 
16618 1 
16619 2 
16620 1 
17452 1 
17453 2 
17454 1 
17692 1 
17693 3 
17694 1 
18472 1 
18473 3 
18474 1 
18769 1 
18770 2 
18771 1 
19858 1 
19859 2 
19860 1 
20689 1 
20690 3 
20691 1 
20749 1 
20750 3 
20751 1 
20809 1 
20810 2 
20811 1 
20872 1 
20873 3 
20874 1 
20938 1 
20939 2 
20940 1 
11884 1 
11885 2 
11886 1 
12727 1 
12728 3 
12729 1 
12787 1 
12788 3 
12789 1 
12910 1 
12911 2 
12912 1 
13027 1 
13028 3 
13029 1 
13090 1 
13091 3 
13092 1 
13627 1 
13628 3 
13629 1 
13681 1 
13682 3 
13683 1 
13987 1 
13988 3 
13989 1 
14704 1 
14705 3 
14706 1 
14710 1 
14711 3 
14712 1 
14767 1 
14768 3 
14769 1 
15067 1 
15068 2 
15069 1 
15184 1 
15185 2 
15186 1 
15910 1 
15911 3 
15912 1 
15967 1 
15968 3 
15969 1 
16090 1 
16091 3 
16092 1 
16150 1 
16151 2 
16152 1 
16864 1 
16865 3 
16866 1 
16921 1 
16922 2 
16923 1 
16930 1 
16931 3 
16932 1 
17110 1 
17111 2 
17112 1 
17824 1 
17825 2 
17826 1 
18121 1 
18122 3 
18123 1 
19261 1 
19262 3 
19263 1 
19270 1 
19271 3 
19272 1 
19384 1 
19385 2 
19386 1 
19987 1 
19988 2 
19989 1 
20044 1 
20045 2 
20046 1 
20461 1 
20462 3 
20463 1 
21187 1 
21188 2 
21189 1 
21301 1 
21302 3 
21303 1 
21490 1 
21491 2 
21492 1 
11536 1 
11537 3 
11538 1 
11899 1 
11900 2 
11901 1 
12019 1 
12020 2 
12021 1 
12733 1 
12734 2 
12735 1 
12982 1 
12983 3 
12984 1 
13093 1 
13094 3 
13095 1 
13096 1 
13097 3 
13098 1 
13816 1 
13817 3 
13818 1 
13996 1 
13997 2 
13998 1 
14002 1 
14003 2 
14004 1 
14059 1 
14060 3 
14061 1 
14062 1 
14063 2 
14064 1 
14176 1 
14177 3 
14178 1 
14179 1 
14180 3 
14181 1 
14716 1 
14717 3 
14718 1 
15013 1 
15014 3 
15015 1 
15133 1 
15134 2 
15135 1 
15139 1 
15140 2 
15141 1 
16159 1 
16160 3 
16161 1 
16219 1 
16220 3 
16221 1 
16282 1 
16283 3 
16284 1 
16933 1 
16934 2 
16935 1 
17182 1 
17183 2 
17184 1 
17953 1 
17954 2 
17955 1 
18016 1 
18017 2 
18018 1 
18313 1 
18314 2 
18315 1 
18913 1 
18914 3 
18915 1 
19153 1 
19154 2 
19155 1 
19162 1 
19163 3 
19164 1 
19282 1 
19283 2 
19284 1 
19393 1 
19394 3 
19395 1 
19942 1 
19943 2 
19944 1 
19996 1 
19997 2 
19998 1 
19999 1 
20000 3 
20001 1 
20002 1 
20003 2 
20004 1 
20119 1 
20120 3 
20121 1 
20356 1 
20357 2 
20358 1 
20419 1 
20420 3 
20421 1 
20479 1 
20480 2 
20481 1 
20482 1 
20483 2 
20484 1 
11545 1 
11546 3 
11547 1 
11614 1 
11615 3 
11616 1 
11734 1 
11735 3 
11736 1 
12754 1 
12755 3 
12756 1 
12868 1 
12869 2 
12870 1 
13048 1 
13049 3 
13050 1 
13054 1 
13055 3 
13056 1 
13885 1 
13886 2 
13887 1 
13948 1 
13949 3 
13950 1 
13954 1 
13955 2 
13956 1 
14134 1 
14135 2 
14136 1 
14965 1 
14966 2 
14967 1 
15025 1 
15026 3 
15027 1 
15211 1 
15212 2 
15213 1 
15808 1 
15809 2 
15810 1 
15865 1 
15866 3 
15867 1 
15928 1 
15929 2 
15930 1 
15931 1 
15932 2 
15933 1 
16111 1 
16112 2 
16113 1 
16165 1 
16166 2 
16167 1 
16294 1 
16295 2 
16296 1 
16888 1 
16889 3 
16890 1 
16945 1 
16946 2 
16947 1 
17005 1 
17006 3 
17007 1 
18148 1 
18149 3 
18150 1 
18331 1 
18332 2 
18333 1 
18994 1 
18995 3 
18996 1 
19165 1 
19166 3 
19167 1 
19948 1 
19949 2 
19950 1 
20185 1 
20186 2 
20187 1 
20194 1 
20195 2 
20196 1 
20428 1 
20429 2 
20430 1 
20485 1 
20486 2 
20487 1 
21511 1 
21512 2 
21513 1 
11686 1 
11687 3 
11688 1 
11800 1 
11801 3 
11802 1 
11983 1 
11984 2 
11985 1 
12700 1 
12701 3 
12702 1 
12766 1 
12767 2 
12768 1 
12823 1 
12824 3 
12825 1 
12937 1 
12938 2 
12939 1 
13066 1 
13067 3 
13068 1 
13666 1 
13667 2 
13668 1 
13777 1 
13778 2 
13779 1 
13786 1 
13787 2 
13788 1 
13840 1 
13841 3 
13842 1 
14023 1 
14024 3 
14025 1 
14920 1 
14921 3 
14922 1 
15046 1 
15047 3 
15048 1 
15220 1 
15221 2 
15222 1 
15820 1 
15821 2 
15822 1 
15877 1 
15878 3 
15879 1 
16843 1 
16844 2 
16845 1 
17026 1 
17027 3 
17028 1 
17077 1 
17078 2 
17079 1 
17203 1 
17204 2 
17205 1 
18166 1 
18167 2 
18168 1 
18340 1 
18341 2 
18342 1 
18346 1 
18347 2 
18348 1 
18940 1 
18941 3 
18942 1 
18943 1 
18944 3 
18945 1 
19003 1 
19004 2 
19005 1 
19066 1 
19067 3 
19068 1 
19123 1 
19124 3 
19125 1 
19180 1 
19181 2 
19182 1 
19306 1 
19307 3 
19308 1 
19420 1 
19421 2 
19422 1 
19966 1 
19967 3 
19968 1 
20077 1 
20078 3 
20079 1 
20083 1 
20084 2 
20085 1 
20317 1 
20318 2 
20319 1 
21106 1 
21107 3 
21108 1 
21217 1 
21218 3 
21219 1 
21283 1 
21284 3 
21285 1 
11755 1 
11756 2 
11757 1 
11875 1 
11876 3 
11877 1 
11938 1 
11939 3 
11940 1 
12898 1 
12899 2 
12900 1 
13075 1 
13076 3 
13077 1 
13129 1 
13130 2 
13131 1 
13669 1 
13670 2 
13671 1 
13672 1 
13673 2 
13674 1 
13792 1 
13793 3 
13794 1 
13795 1 
13796 3 
13797 1 
14032 1 
14033 2 
14034 1 
14149 1 
14150 3 
14151 1 
14752 1 
14753 2 
14754 1 
14755 1 
14756 2 
14757 1 
14758 1 
14759 2 
14760 1 
14818 1 
14819 2 
14820 1 
14932 1 
14933 2 
14934 1 
15109 1 
15110 3 
15111 1 
15298 1 
15299 2 
15300 1 
16072 1 
16073 3 
16074 1 
17209 1 
17210 3 
17211 1 
17929 1 
17930 3 
17931 1 
18049 1 
18050 2 
18051 1 
18109 1 
18110 3 
18111 1 
18232 1 
18233 2 
18234 1 
18289 1 
18290 3 
18291 1 
19138 1 
19139 3 
19140 1 
19252 1 
19253 3 
19254 1 
19429 1 
19430 3 
19431 1 
19435 1 
19436 3 
19437 1 
20089 1 
20090 3 
20091 1 
20152 1 
20153 2 
20154 1 
21469 1 
21470 3 
21471 1 
