ITEM: TIMESTEP
100000000
ITEM: NUMBER OF ATOMS
6432
ITEM: BOX BOUNDS pp pp pp
0.0000000000000000e+00 5.0000000000000000e+01
0.0000000000000000e+00 5.0000000000000000e+01
0.0000000000000000e+00 5.0000000000000000e+01
ITEM: ATOMS id type vx vy vz 
9472 1 4.17599 -1.00902 -1.20726 
9473 3 1.09868 -0.87792 0.124879 
7321 1 7.01756 -4.33933 -0.024665 
7322 3 -2.15056 -1.78631 -1.36891 
9654 1 -1.77051 5.17034 9.12816 
9653 2 2.81938 1.54589 0.788627 
7745 2 0.261548 0.958251 -3.74263 
7746 1 -0.873243 0.62462 3.08983 
7744 1 -0.533352 -0.347606 1.49289 
9634 1 3.66977 -1.21364 -1.13199 
9635 3 2.5736 1.13226 0.366336 
17881 1 0.418924 2.47628 -0.531348 
14084 2 0.137744 -2.65511 3.34772 
14085 1 0.19465 1.70666 0.628125 
7323 1 -6.11726 8.61089 -6.13904 
14083 1 -1.00187 -0.275834 -0.857469 
621 1 3.0094 2.20598 1.63492 
15889 1 -3.99739 2.84328 1.0123 
79 1 0.733114 -0.115111 5.30116 
15890 2 -5.54439 -0.266747 -1.86361 
15891 1 -0.969905 2.15858 -2.23625 
16426 1 -5.78578 -2.83624 -3.93845 
619 1 -0.431581 0.617064 1.07058 
20586 1 0.619997 -4.30366 6.57867 
620 3 1.52763 -1.08661 -1.9078 
5153 2 -2.73589 -0.723309 -1.6237 
5152 1 -0.990596 2.65023 1.23999 
1977 1 -5.23655 -0.693195 -2.42222 
2088 1 -3.2394 3.07901 -2.17866 
2087 2 -1.14689 -2.47909 2.26037 
1976 2 -0.739002 -0.219848 -1.86825 
2086 1 0.488522 -0.445104 0.593996 
17920 1 1.53825 -1.91936 -2.4621 
1975 1 -0.339023 5.49356 0.121858 
9605 2 0.372157 1.70485 -0.61353 
9604 1 1.45348 -1.8502 0.840045 
5205 1 -4.56585 2.18655 -2.0012 
5204 2 -2.20861 -1.55782 -2.40686 
5203 1 -1.40006 1.14023 2.96595 
7416 1 -2.53547 -4.14345 2.60276 
5728 1 -1.74307 -0.515755 -0.39907 
10885 1 1.96719 1.41446 3.94184 
10886 3 3.95878 1.94611 -0.478146 
11772 1 9.04975 -0.478695 -2.46724 
18106 1 1.64373 1.39715 0.668865 
18107 2 -1.11685 2.87902 0.41488 
10887 1 -1.88133 -0.811185 7.9071 
10695 1 -0.696788 -3.96425 -1.86251 
10694 3 -1.92803 2.41429 0.576493 
9552 1 -5.32643 0.597151 0.932784 
18108 1 -1.19274 -5.81116 0.683641 
5729 2 1.00721 -2.10691 0.869647 
11771 3 1.19287 0.68186 -2.92471 
10693 1 -0.888341 1.66503 -4.28547 
10460 3 -0.0839748 2.06161 -1.88212 
10461 1 2.82185 0.602199 4.59526 
17838 1 7.60353 -1.15249 -1.06451 
17837 3 -3.82932 1.71426 2.57303 
10459 1 -0.0434292 1.25161 -1.20917 
17836 1 -0.547613 -0.641851 -0.250095 
21240 1 0.445686 -2.61922 -5.88597 
2326 1 2.58717 2.02897 2.68017 
18291 1 -5.80826 -0.303909 -4.02693 
18290 3 1.41795 1.16891 -2.33469 
13618 1 -1.45936 2.2889 -1.41124 
13619 3 -1.67795 -0.398067 -0.0978652 
15321 1 -3.75601 3.28157 4.27876 
15320 3 -0.639043 0.761565 -1.45634 
18289 1 8.57598 -1.01405 10.617 
8047 1 -3.44467 -11.4699 4.08959 
17753 3 3.77173 -2.64889 1.1381 
1657 1 5.5038 -0.890284 -0.0993524 
17752 1 4.03613 0.329478 -4.77746 
17754 1 0.202856 3.71901 -3.33168 
6372 1 -3.13768 0.0574623 -0.648798 
5950 1 -8.27203 -1.31905 2.16985 
81 1 1.12978 -4.16435 2.53451 
5951 3 1.56228 1.08243 -0.52605 
5952 1 -3.06703 4.10688 -3.12527 
6039 1 6.91019 3.73744 5.49273 
6038 3 -2.36771 4.30352 0.890583 
4385 2 -0.562581 -0.322653 -3.0013 
4386 1 0.0726558 0.809253 -1.05906 
4384 1 5.6349 -0.572397 -5.46735 
8787 1 2.23181 -8.1643 2.00148 
6492 1 0.419431 -2.81683 9.69381 
6491 2 -4.10084 0.610939 -3.07506 
9609 1 7.4677 -0.45453 0.172155 
7396 1 -3.69818 -1.99695 -0.447555 
9586 1 0.370636 -2.80192 -8.4004 
2767 1 -4.77173 -4.6929 8.40817 
7397 2 0.913622 -1.43306 -8.66661 
7398 1 -0.792096 -4.44148 -2.06192 
2769 1 2.87726 -2.6891 -0.151598 
2768 2 0.122067 3.23738 -3.35389 
6154 1 -1.91664 0.689325 4.21645 
19879 1 -7.31741 -0.825885 0.183583 
7769 2 3.15671 3.45332 -1.39765 
7768 1 -1.76681 5.6383 -6.31615 
9487 1 -3.18241 -2.00454 4.46975 
9488 3 0.653195 3.53675 -0.530552 
19841 3 6.9551 1.79727 -0.0422905 
19842 1 -1.28162 -1.76627 -1.9742 
6253 1 -0.319855 2.24436 -2.98894 
6254 3 -1.57484 -1.71215 3.34695 
19840 1 4.70759 3.13293 -1.46111 
14400 1 -2.33633 -2.21755 -0.00963302 
14399 3 3.59653 3.04067 -2.59279 
20054 3 2.11066 -1.13677 -1.03303 
20055 1 3.46734 -1.72734 -3.00692 
14077 1 2.93976 0.86111 4.60903 
20053 1 -2.3045 2.97208 -5.07613 
14532 1 2.85174 -6.99322 -3.07502 
14531 3 -4.59407 -0.942623 -1.99816 
14530 1 4.012 7.11329 4.59771 
14143 1 -4.127 -1.46864 -3.99387 
8194 1 -2.15539 -1.9454 -3.86822 
2328 1 -5.78751 0.697331 2.8865 
2327 3 -1.87672 -0.846209 1.89978 
8731 1 4.39627 -3.20393 -1.09266 
8732 3 2.00924 4.82406 -1.49195 
8733 1 0.172482 0.722799 -6.06117 
7443 1 1.08792 -2.3929 -0.378845 
7442 3 3.50055 -0.0324206 -2.5394 
6126 1 0.297189 6.15702 -1.57964 
6124 1 -2.47222 4.72732 -6.04802 
12515 3 1.6948 0.614398 1.14601 
12514 1 5.15779 -1.3012 -0.445319 
8664 1 -1.20712 0.883873 0.86655 
12516 1 -0.88412 -0.61131 -4.41426 
15603 1 4.28563 -2.42254 -2.02887 
8663 3 -0.516863 -0.808368 -2.93553 
15319 1 1.71292 5.94812 0.620605 
1478 3 4.19246 1.8479 0.318562 
5367 1 -1.95034 0.971174 -1.3186 
1659 1 -2.02152 -3.68215 1.04135 
6148 1 -2.24827 -1.56997 -2.64182 
6149 3 -0.391417 1.81281 -3.40365 
1477 1 5.34597 -1.1224 5.96638 
5366 3 0.421286 2.44168 5.31533 
9867 1 0.553481 -3.32549 -2.37543 
9866 3 0.0572693 0.906069 0.431324 
1479 1 -0.117391 -0.784307 1.39742 
1658 3 0.126617 -3.40554 -0.45294 
11854 1 -3.17405 -3.81207 -2.69292 
11855 3 3.68907 0.912634 -1.28335 
6150 1 -1.42721 8.22478 1.48618 
21195 1 3.78034 2.51142 2.18192 
11856 1 3.20083 0.280465 -4.41426 
204 1 -3.64445 1.53372 5.61848 
6037 1 -5.04702 -0.548819 3.23216 
203 3 -3.6643 -1.83106 -5.53821 
5518 1 -6.68981 -2.51203 -1.48063 
17818 1 -2.7403 -2.98092 -0.12079 
191 2 -0.220985 2.44512 0.776278 
192 1 -2.67998 2.03661 -0.797437 
10638 1 -0.628453 -0.622197 -2.06366 
6155 2 -4.47013 3.67686 -1.14619 
5541 1 -5.39894 -2.08511 -3.62286 
190 1 3.01948 0.818952 0.340049 
17235 1 -1.48955 -4.97518 0.711174 
4730 2 0.608411 0.61915 1.39524 
4731 1 0.976018 0.85728 -0.109196 
17234 2 1.87324 -2.27437 1.58528 
4729 1 0.122673 -1.26994 0.498319 
11912 2 -0.104528 -0.891791 -0.0436909 
2910 1 0.91913 1.99518 -1.36504 
2909 2 -0.844084 -1.8805 -1.49483 
17233 1 0.110131 -4.556 -1.33652 
7770 1 4.26277 0.640499 0.933705 
17274 1 0.0613477 0.712241 0.703062 
18549 1 -1.98226 5.28367 8.08067 
34 1 3.47809 1.97308 1.38637 
36 1 -4.04405 -2.36574 -2.19955 
35 3 4.47498 -1.5829 0.625387 
18548 2 1.1738 4.96807 -1.80802 
20536 1 2.32566 0.814795 -2.9268 
17273 2 -2.92268 2.24192 -0.983641 
17272 1 5.60735 2.17337 -6.08731 
20537 3 -0.452804 0.737501 -4.2546 
6255 1 -0.681977 -1.17675 2.09924 
11160 1 -2.69724 0.195015 -1.79912 
20171 3 1.27685 -0.00535761 4.99731 
5831 3 -2.49072 -1.10772 2.72448 
5830 1 -0.018482 -0.72731 -0.370864 
5832 1 2.81556 0.943052 1.87321 
20170 1 -0.405064 0.402366 4.85622 
16168 1 1.6349 3.69285 2.31086 
8028 1 -7.08448 1.29902 -4.36984 
16169 3 -1.04388 -1.25873 -0.718597 
11394 1 -3.81708 -3.21341 1.9373 
19156 1 -2.9609 4.83684 -4.60835 
19157 3 -2.01347 -0.379806 0.958039 
16170 1 3.70636 -4.25814 -2.30887 
8131 1 -0.41873 1.78904 -0.25617 
8132 3 2.50195 4.51648 -0.902816 
17100 1 3.75249 -4.91971 -0.662198 
19158 1 0.0807661 -0.0452979 0.345635 
17098 1 -1.46895 -3.60706 0.811991 
2836 1 0.478594 0.571942 -3.95305 
17099 3 0.135926 3.18541 1.86994 
2837 3 -1.71729 -1.30216 0.319016 
8195 3 2.34426 1.86463 0.3163 
16299 1 6.26094 -2.70741 3.69973 
788 3 -2.92104 3.21067 0.423396 
789 1 -0.69166 -3.41596 3.44741 
2838 1 -1.87345 -8.47215 -5.21716 
787 1 -0.0550059 -3.75844 0.24166 
7347 1 -4.42626 0.88286 -8.83554 
7346 3 0.492566 1.55706 0.718127 
3595 1 8.62863 0.292043 -0.889572 
1547 3 1.75028 -1.68199 0.976968 
3596 3 1.36165 -3.73941 -2.52334 
13675 1 -2.35397 2.9372 1.37734 
13676 3 1.68497 2.61053 -1.56548 
4389 1 -2.31997 -5.03361 0.541278 
4388 3 -4.44927 2.56033 -0.756385 
13021 1 2.46806 -3.2128 -10.0272 
13677 1 -1.81558 -0.274959 -3.99544 
15307 1 -2.93054 -0.122537 -8.07988 
15308 3 -2.60299 3.18963 2.07233 
15309 1 -5.25032 1.49497 -5.15946 
4011 1 2.2957 -0.521966 0.860896 
9865 1 -2.50277 -1.6023 1.9568 
13022 3 0.361226 1.4162 5.77707 
11451 1 -4.51771 0.836573 3.89198 
202 1 3.31684 1.50676 3.95182 
7165 1 2.09859 -6.07518 2.3968 
7166 3 -3.39504 3.41451 1.95677 
12838 1 -1.66541 0.31067 -4.4254 
7167 1 -1.68679 -7.61494 1.52142 
12840 1 2.94349 -0.543266 -2.27974 
11137 1 0.378257 5.788 -0.637149 
12839 3 -4.45368 -2.86917 2.45765 
19094 3 0.680061 -3.19336 -1.54822 
5539 1 4.85184 2.25127 3.99057 
17082 1 -4.42019 2.33498 3.90364 
17080 1 -2.79035 5.6794 -2.69773 
17081 3 -6.47894 -2.62227 -1.13907 
9681 1 0.622714 0.750319 -4.20104 
19093 1 -3.99439 -2.18779 2.15307 
11913 1 3.73151 -0.296626 -1.18551 
9680 3 1.76925 -0.272664 1.44986 
5540 3 -2.35655 -3.69417 0.846077 
17112 1 -5.00398 -0.264107 -2.90709 
17111 2 -1.43878 1.06013 0.304516 
17110 1 1.77159 -0.0387375 4.16481 
11911 1 -3.87126 2.05327 -1.60138 
7244 2 2.92467 -0.604752 1.43661 
13054 1 -4.75087 2.89988 2.75315 
7245 1 0.251105 -8.16757 -0.725908 
12763 1 -4.05601 0.547334 -2.59102 
11058 1 -2.99182 -3.82972 7.00491 
11056 1 3.91696 -0.504445 0.32899 
11057 3 -0.592976 0.0109501 -1.19191 
9474 1 -3.00129 -3.0103 -1.16063 
12764 3 0.0987455 -2.29554 -1.46824 
20538 1 4.06229 2.65605 3.18252 
8431 1 -4.05637 -3.79013 -3.21395 
13817 3 0.111414 1.52386 0.629277 
13816 1 -2.90149 -0.0902223 -0.878202 
8433 1 -0.957347 -2.64622 4.30745 
8432 3 3.91623 4.16098 3.1645 
13818 1 4.98749 3.40957 -2.80241 
8027 3 -2.69506 3.3872 1.77132 
14476 1 -3.00702 0.754269 -1.39423 
18691 1 -6.63655 0.693653 -1.35654 
14477 3 -0.286539 -1.09837 -5.16891 
14478 1 -4.74192 2.15471 2.14161 
4524 1 3.42981 -7.07103 -1.83971 
10384 1 -0.702357 -2.12491 -2.74725 
10385 3 1.15035 -2.52979 1.01088 
4523 3 -2.98122 -4.26611 -5.89285 
18692 3 5.33082 1.27099 2.493 
21352 1 -2.22411 8.73953 0.691059 
10386 1 -0.0838477 -2.19591 -2.04815 
5137 1 0.903665 -1.23264 2.60207 
8483 3 3.03657 2.16771 1.42317 
8484 1 0.602802 -4.39731 8.27158 
5139 1 3.08326 0.675387 1.73199 
5138 3 -5.35993 -2.57642 -0.522334 
9655 1 1.70143 2.87993 -3.81199 
7527 1 1.11016 -0.679516 -1.13064 
6351 1 0.841746 -0.918672 1.73588 
6350 3 -0.897556 -3.04471 -0.569453 
7526 3 1.17014 -0.0470997 -2.95434 
7525 1 0.275366 -1.21369 -3.76101 
1921 1 2.1334 -3.42423 -4.71339 
9657 1 3.40605 -0.499359 1.91226 
5787 1 0.729794 -3.22868 2.50527 
9656 3 -0.886639 0.0921751 -1.26444 
5786 3 0.105089 -2.52491 1.60667 
2802 1 -3.15486 -0.0802733 1.58985 
5466 1 1.77545 -3.58538 3.8831 
2801 3 3.20156 -0.103396 0.469947 
2800 1 0.109037 -1.68455 9.60444 
2498 3 1.32195 0.529496 -0.365556 
7345 1 -3.04134 2.85617 -1.98086 
2497 1 3.25794 0.891453 4.14188 
16194 1 -4.24489 0.0830044 2.3385 
2499 1 5.65359 -6.5718 7.08383 
10398 1 -0.872109 -3.01763 -0.672369 
16193 3 0.294088 0.636106 1.58939 
1546 1 -1.02002 -1.19106 3.09935 
4387 1 -1.31242 0.39702 3.97929 
20395 1 -1.00769 2.14154 -3.44864 
20397 1 -5.07875 5.20084 0.00783729 
6166 1 -1.63761 3.3238 3.14019 
20396 3 -0.466687 2.31659 -5.11761 
4010 3 -0.80531 -2.53443 2.69958 
4009 1 -0.658147 -2.10507 -2.25942 
876 1 -1.0086 -1.52357 -2.46092 
16011 1 -2.09679 -1.80799 2.39892 
20139 1 4.80676 -4.2604 -0.930033 
875 3 -3.28072 0.404815 0.012195 
9679 1 -7.36507 -1.3528 1.68446 
4303 1 5.50975 -4.57252 0.0201471 
4305 1 2.67677 -0.628239 -1.49458 
4304 3 -0.724861 -1.69345 1.86401 
12203 3 -3.22054 2.19931 -0.419256 
12202 1 0.699513 -7.40068 2.83749 
12873 1 2.72359 2.69288 -5.52671 
20137 1 -0.512434 -6.07818 -1.3672 
20138 3 -2.38696 1.07183 -2.19455 
12204 1 -3.41848 9.19325 -0.0127036 
15070 1 -3.52517 2.5731 -1.38852 
16235 3 0.900817 0.876333 3.95192 
16236 1 0.00989329 2.23102 -5.27338 
4216 1 3.10948 2.52703 7.34193 
4217 3 2.09274 2.81703 -2.19985 
4218 1 -0.680442 -1.84824 1.49901 
474 1 6.39149 -2.38732 -3.28642 
13092 1 -1.84748 -0.0210784 -4.04121 
20684 3 -3.81641 -0.425119 -2.04103 
16234 1 0.838919 3.85565 -3.19265 
3124 1 -2.44092 -1.10535 2.29918 
10417 1 -0.467407 3.67348 2.92856 
13056 1 -3.94861 4.20378 -4.65489 
13055 3 -0.537711 -1.63341 1.789 
20683 1 2.42271 -5.81236 1.09442 
10419 1 5.98677 -4.68873 5.05395 
10418 2 1.66666 2.52621 4.26698 
11547 1 5.84195 1.80628 -2.77966 
14108 3 -1.05705 -1.05156 -2.64452 
14109 1 -4.47013 6.50252 0.277509 
13764 1 0.834158 2.96114 -7.73127 
14107 1 -5.10245 -5.31635 2.28973 
21493 1 -0.0320198 0.00701992 1.63104 
21494 3 -2.26547 2.36246 5.25985 
17675 3 -6.46401 4.85427 2.76376 
17674 1 -0.829422 5.38477 3.62332 
15007 1 -6.59308 0.244467 0.98855 
9086 3 -0.907754 1.81652 0.885467 
9085 1 1.25801 3.4739 -1.80829 
18186 1 -4.21996 -3.59723 8.50171 
18185 3 4.81844 -3.24879 -2.9334 
13762 1 1.12462 2.70243 -2.97115 
13763 3 -1.63723 2.60107 -0.322464 
18149 3 1.17487 -2.03723 -3.63818 
18148 1 -3.5995 1.07349 2.21657 
9087 1 2.55839 3.73471 -5.54828 
20242 1 5.05366 0.349982 0.616591 
4522 1 1.21514 0.0113304 1.62618 
8904 1 0.145886 4.66301 -0.750307 
20243 3 0.393965 0.102878 2.36794 
20244 1 0.153939 0.641718 -1.57623 
8903 3 -0.943616 -1.54376 -2.96612 
12405 1 -2.95259 7.50593 6.12321 
18693 1 -3.59004 -4.67798 -0.651599 
3399 1 1.43762 0.39342 -1.08496 
8902 1 -3.59248 -2.8444 1.98313 
20362 1 2.70352 5.53882 -2.8423 
20333 3 0.0172913 0.61301 -1.6736 
20334 1 -0.542533 0.583935 -1.92753 
20332 1 -1.0278 2.5387 3.47182 
21546 1 4.12644 1.07734 -0.343392 
8252 3 2.99214 -1.12808 -1.31328 
20364 1 5.3131 -1.79148 1.68797 
8253 1 -3.7693 1.02213 5.70133 
12404 3 -1.53701 -1.47961 1.92215 
12403 1 -5.69865 0.524072 -2.62547 
20363 3 -2.91566 -1.75453 0.338482 
8251 1 3.12161 -3.07181 1.83375 
6349 1 -1.50591 -2.29883 5.04172 
17142 1 0.479954 -0.206273 4.06871 
15047 3 1.95663 -0.440248 2.00761 
15046 1 -1.14896 1.99778 -6.87924 
15048 1 -7.1888 5.52781 3.36118 
15734 3 2.35361 -0.508436 0.876937 
15735 1 3.76706 -1.24836 -0.222618 
16192 1 6.59994 -2.49991 -2.03416 
10555 1 -0.279476 -3.57573 -5.99825 
17141 3 -0.238001 4.22541 -1.9069 
10674 1 1.29444 -2.83366 -10.1431 
17140 1 3.89278 -0.57254 3.22442 
10672 1 5.39232 4.61244 -2.06475 
10673 3 1.9499 3.92845 3.94438 
10556 3 2.28827 -0.173668 -2.71149 
6167 3 -0.930605 -0.948331 -1.30077 
6168 1 0.344523 2.51462 -0.920529 
15044 3 -1.67676 -0.560809 -0.0322471 
15045 1 -5.55205 2.88761 0.770516 
11001 1 -3.71205 -1.87572 -4.26233 
2408 3 5.59692 0.269022 0.980057 
15043 1 1.77069 2.44026 -3.73575 
2407 1 3.91497 3.03071 1.22328 
1849 1 0.979844 1.6172 3.78766 
6048 1 -0.864913 0.962857 -0.442808 
6047 3 -5.10095 -0.964655 1.60621 
1851 1 4.20257 -3.6498 -3.38424 
6046 1 1.01482 -3.16652 -0.431611 
20639 3 -1.31281 6.34548 -1.17225 
1850 3 -2.60209 2.04804 -1.09488 
20638 1 -3.97287 -1.77953 6.64033 
1371 1 -1.24936 4.25146 -5.97769 
10052 3 -2.33447 1.66639 0.753786 
10051 1 -2.24865 7.57097 -0.636992 
20640 1 -0.292343 -1.83707 -2.29921 
472 1 2.60978 2.52744 4.13372 
473 3 1.23717 -2.86915 3.12395 
17002 1 -3.27777 0.168962 -0.963486 
114 1 6.84533 1.40452 1.42952 
113 3 3.17546 -1.99767 -1.75992 
17003 3 0.54632 0.588351 -3.71508 
5941 1 2.79602 -5.21408 -2.05573 
7949 3 -3.41758 -2.34843 1.18607 
8845 1 3.11372 2.82915 -2.48383 
17676 1 -3.29864 -1.68546 -1.28212 
14412 1 3.58741 -0.315294 4.23622 
14411 3 1.01938 1.08294 0.596543 
7948 1 4.67707 1.21666 -0.626608 
8846 3 -1.33055 -2.26827 2.26888 
9636 1 -1.69209 8.51283 0.436751 
14410 1 9.19574 -0.994914 -5.10498 
7950 1 8.72347 -5.01743 1.14592 
6519 1 -2.22241 0.65362 -4.47245 
18184 1 3.29701 -3.75222 -0.739869 
6518 3 3.97447 2.96023 0.412254 
17176 1 -1.55936 -3.0047 1.81457 
16762 1 1.64481 3.28235 -2.43438 
11916 1 -2.68752 -1.35963 -3.62478 
16763 3 -1.58963 -1.94651 3.01919 
11915 3 -0.427285 -1.989 0.0692584 
11914 1 -5.4476 0.960757 -2.05212 
5524 1 -2.95909 1.06575 -5.6772 
17177 3 2.15598 0.97695 6.62618 
16764 1 3.94582 -0.370781 -3.95912 
10868 3 -0.226224 0.54813 1.32215 
10867 1 0.0638348 -3.28861 -0.646646 
15405 1 -1.58522 2.40393 2.56461 
15403 1 3.2745 -0.234485 4.87399 
10446 1 -1.0177 -0.370222 -3.65097 
10445 3 -3.13683 -2.25136 0.0589402 
15404 3 0.0482416 1.28683 0.648683 
2974 1 0.556423 4.01656 4.42557 
10869 1 -0.398168 -2.99345 -1.73271 
11481 1 -3.11514 -9.72061 3.89797 
19430 3 1.87671 3.50752 2.06292 
19431 1 0.278716 -1.63386 -6.47064 
7366 1 1.43767 8.26685 -6.42687 
21545 3 3.60312 0.133239 -3.18645 
17246 3 -5.68345 1.01965 -1.49367 
17247 1 -4.17819 2.43213 0.691899 
21544 1 -5.17544 3.43101 1.48881 
19429 1 -0.249925 3.04589 5.83431 
1585 1 4.66184 0.0222597 -2.03563 
1586 3 0.347799 0.0660698 2.02841 
13516 1 -0.829098 -0.265479 -4.10276 
2306 3 -1.68868 -3.69891 -1.28661 
2307 1 1.27132 -0.674318 4.42353 
17653 1 -2.37714 -5.21521 3.37497 
2305 1 -0.852946 -1.16009 2.3551 
15864 1 -0.0929345 -6.1494 0.750554 
19409 3 -3.39364 -1.9995 1.00718 
19410 1 -1.00533 3.17609 -0.53468 
11068 1 0.795679 4.18537 -2.4454 
13517 3 0.532262 2.17592 2.20403 
215 3 1.6394 -1.16705 0.0667953 
4209 1 -7.79175 -3.69874 2.62006 
4208 3 1.27366 -0.172221 -4.96238 
6674 3 4.81326 0.999888 -2.28576 
6673 1 -3.29655 -4.40999 -2.29576 
4207 1 -4.04347 -0.891329 5.0132 
19408 1 3.49724 3.94021 -1.63627 
214 1 3.45253 1.87251 3.04994 
216 1 -1.35262 -4.58155 0.620955 
775 1 -7.31558 -2.35381 -3.5577 
776 3 2.66816 3.21713 1.17419 
7843 1 1.71071 1.56349 -1.69006 
17767 1 -4.95826 -5.99576 -3.70006 
7844 3 -1.32061 -2.62978 -1.65978 
17768 3 -2.43942 2.75697 -0.340934 
13660 1 1.03646 -0.845531 -0.0842783 
7845 1 -1.10453 0.192116 1.032 
777 1 2.28966 2.93286 -4.50283 
17769 1 2.57781 -1.32145 -0.602397 
6189 1 -0.998511 1.46704 0.303423 
6187 1 3.87291 1.36343 -3.39066 
6188 3 -1.09928 0.735022 -0.850454 
1370 3 -1.08184 -2.7992 1.18394 
1369 1 1.3825 -3.73571 1.09878 
2058 1 1.22167 2.77399 -0.469723 
2057 3 3.50794 -0.522012 2.12494 
3112 1 -2.10181 -5.73438 -3.48861 
7141 1 -4.08958 5.37069 -9.2261 
2056 1 3.37025 -3.30902 2.30368 
2082 1 -3.36579 0.589814 -0.44918 
112 1 -8.78532 -1.10725 -2.83973 
12756 1 -0.962196 -3.25176 -2.24456 
5942 3 1.27416 -1.47555 3.62081 
5943 1 -3.76862 -1.19219 -5.7617 
10150 1 1.55155 6.33235 3.1925 
10151 3 1.47488 0.280919 2.85972 
10152 1 -2.8825 0.640643 2.01902 
16231 1 8.24344 -4.03019 2.85132 
21449 3 1.91959 1.71434 4.80583 
396 1 11.0395 1.48907 -2.58384 
9801 1 2.44322 -1.04214 -1.43277 
9799 1 0.0903806 0.30635 -1.62191 
16146 1 6.06567 -6.50623 6.31707 
16145 3 -0.529588 -0.209897 4.24665 
10629 1 -5.66293 -3.87843 -4.00433 
9800 3 0.633853 2.86135 -2.70102 
10628 3 -3.50046 0.788473 -3.49541 
18913 1 5.6658 7.82284 -4.76048 
10444 1 0.926971 3.30368 1.76289 
2128 1 5.30266 -5.00284 -1.97322 
2130 1 2.37301 -4.69403 -1.08975 
2129 3 -0.867337 2.36283 2.11753 
10542 1 4.15376 -3.94004 -2.69305 
10541 3 -0.455654 1.52973 -3.4761 
2975 3 -4.60236 -1.64185 -1.43639 
10540 1 3.2824 3.10474 -7.56384 
17245 1 -1.86701 1.46104 2.09823 
1294 1 -5.12091 1.63499 2.63379 
9399 1 -2.5543 -1.20493 4.171 
9398 3 2.98524 -2.53195 -1.59939 
9397 1 6.62019 8.1866 -1.31908 
10405 1 -1.38154 0.183162 -1.54361 
20997 1 -0.767743 -4.38193 0.714045 
1295 3 -1.82695 -1.88486 -0.445554 
10406 3 -0.905546 -1.96628 -2.62325 
18254 3 1.6136 3.25199 -5.76511 
17809 1 -1.4084 4.26546 1.81668 
17654 3 3.94219 0.59871 0.444517 
1296 1 0.647785 -2.58934 0.976082 
7447 1 3.6453 -2.25272 5.96157 
9378 1 -6.5757 0.97868 4.23993 
9377 3 2.18848 0.583567 2.62459 
17655 1 1.43901 0.465834 0.333353 
9376 1 5.80642 -0.0409937 2.18476 
14997 1 -0.347899 2.43674 4.23205 
13840 1 -1.59116 -0.892749 4.2284 
12201 1 0.763735 -2.78133 -1.80238 
13841 3 1.37304 1.031 1.37295 
13842 1 2.99264 -4.1728 -1.5824 
6414 1 -1.99846 0.612043 4.54954 
12200 3 5.55206 -0.814643 2.28968 
12199 1 -5.20801 -5.12225 0.622301 
18495 1 -1.33768 4.69221 3.02784 
18494 3 1.24712 -0.140755 4.8441 
6413 3 1.70201 0.984737 -0.685152 
6412 1 -5.53835 -3.95993 -0.180743 
18493 1 -8.54808 7.78426 0.87583 
9820 1 -0.65008 6.5391 -0.65003 
9821 3 -0.995087 -3.6763 1.96613 
11340 1 -0.650024 -6.23365 -1.37956 
11339 3 1.04847 -2.00538 2.40285 
18622 1 1.22032 3.74931 -3.91224 
18623 3 -0.201549 2.14 1.28709 
18624 1 -2.44675 1.39385 -1.1511 
1731 1 0.549876 0.795353 -0.999074 
7960 1 5.77196 7.21262 2.18863 
1730 3 -1.94924 1.16857 1.60539 
7142 3 1.59347 0.802058 -0.551803 
15567 1 1.09943 -6.42153 -0.301597 
2081 3 -1.32605 2.92077 5.06618 
4105 1 0.452498 1.03116 -4.75226 
2080 1 3.00581 1.05939 -8.26307 
4106 3 0.214055 -0.320115 0.658314 
4107 1 1.99999 0.36416 4.00409 
20301 1 1.87527 -1.16923 -0.504254 
9017 3 1.36039 0.631805 1.39472 
9018 1 -3.72311 -1.44355 0.38262 
9682 1 3.23574 -0.531541 6.00941 
9016 1 0.818847 2.5059 -2.04412 
11815 1 -0.41052 -2.10049 0.56756 
21232 1 0.350801 -3.75597 -4.28051 
1423 1 -1.75916 -2.57067 3.59897 
13679 3 -0.905162 0.969524 2.10678 
21233 3 -1.31169 0.0304534 3.75113 
21234 1 0.627912 -4.2072 2.30915 
13678 1 -0.834405 1.7559 -3.34013 
9683 3 1.27106 0.735583 -3.0387 
9684 1 1.1356 -1.70502 -1.44976 
20001 1 -1.88 1.1281 7.55794 
20000 3 -1.97283 0.413891 5.70743 
19999 1 -1.45973 5.28982 -0.962222 
9546 1 -0.139003 -0.727625 -4.83691 
1424 2 2.11801 1.61209 0.00738549 
1425 1 0.747502 -4.06685 2.03323 
21448 1 0.737913 -5.66786 -1.45082 
17585 3 0.25415 -2.49296 -2.81215 
17883 1 5.77302 -4.18986 3.48077 
17584 1 -0.694858 1.6456 0.912569 
17586 1 -3.52862 -1.94211 -1.69534 
17882 2 -0.456006 -1.10489 1.14028 
20951 3 4.26136 1.05642 1.1638 
20952 1 5.34995 1.01707 -2.45055 
21333 1 4.80934 -3.72821 -0.97225 
4005 1 -0.637671 -2.70822 4.63019 
4416 1 -4.89229 -7.36968 1.58561 
1577 3 0.129942 -0.400874 2.3321 
10502 3 -0.746687 -2.57143 0.481351 
21332 3 -3.25723 1.21094 0.384248 
10501 1 -2.3816 -3.63079 0.071556 
18253 1 1.77659 2.0131 -7.56073 
21331 1 0.373602 4.01482 -3.00201 
10503 1 3.05979 4.35193 2.8487 
12649 1 3.09589 -2.41614 -1.19541 
12651 1 2.04968 2.4686 -0.384694 
12650 2 1.71605 4.24333 -3.80715 
7420 1 0.29941 3.52365 -9.02953 
12028 1 1.60672 -1.2119 4.64576 
5556 1 0.418575 0.871874 -4.50147 
18255 1 -1.64339 6.95536 -1.16155 
12029 2 -3.53753 -0.156199 0.602161 
2216 3 4.27878 0.780725 3.04657 
21077 3 -2.85899 -1.73027 -0.614359 
5555 3 2.18235 2.13241 -3.45058 
5554 1 1.28091 -0.738346 4.79778 
21076 1 -0.514777 1.89221 -0.360131 
6410 3 1.54087 1.93759 4.73774 
6411 1 -10.1554 0.289129 2.04803 
6141 1 1.10323 -2.13095 -5.215 
7448 3 -1.37228 -2.76045 -5.74028 
15124 1 1.18857 -1.87141 6.26499 
15125 3 -0.359067 -2.9028 -1.89142 
15126 1 -2.1153 -1.57358 -2.56242 
12657 1 0.980763 5.87112 -4.20186 
12656 3 -1.41235 -1.83248 1.2973 
6409 1 0.705662 -2.7921 -5.86257 
12655 1 -1.72402 5.3445 3.77144 
9371 3 1.75202 -6.55212 -0.971108 
9370 1 1.37666 5.5192 2.57886 
10689 1 -0.863328 -0.467769 -5.57685 
10688 3 -3.74569 -0.290653 0.0358794 
9372 1 2.35555 -2.72807 4.06672 
8632 1 -1.96984 -1.62544 -4.13721 
7449 1 1.53782 -2.98286 -4.99815 
8634 1 -1.29825 3.07309 -9.8808 
3140 3 3.40325 -2.9432 1.13403 
5437 1 -2.58171 7.71526 6.07135 
11338 1 1.21087 -4.7264 5.15328 
20845 1 -6.49969 3.62732 3.39957 
5227 1 -4.10065 1.78973 -2.96251 
5228 3 -3.17925 4.66707 0.00327603 
20847 1 -1.38124 -0.103828 2.08839 
20846 3 2.65931 -5.04887 -5.71554 
3139 1 -2.48314 2.19522 2.10811 
1744 1 -3.41893 -5.57608 1.17852 
5758 1 -4.45795 -2.26479 2.02094 
3141 1 -1.01511 -3.33502 -2.92167 
5439 1 4.11764 1.11876 -3.63364 
10024 1 -0.727397 2.62635 -4.83659 
20300 3 3.65961 1.17365 1.54307 
3227 3 -3.01085 -2.96967 0.900324 
20306 3 -0.896345 -0.428296 -0.417023 
20307 1 2.64089 -3.09768 -8.97182 
3228 1 -2.55693 -0.423115 -0.652209 
10025 3 -0.768666 1.44664 4.00062 
9221 3 -1.10475 -2.27161 3.53842 
4945 1 -1.75479 -1.88379 -4.79429 
3226 1 -5.36511 1.2241 4.40239 
385 1 -5.52711 -4.51723 3.79708 
386 3 4.91628 -2.60524 -1.38835 
387 1 -1.05391 6.74724 -1.74592 
675 1 0.989885 -1.23396 0.896669 
674 3 0.301342 4.09188 -0.397921 
88 1 -11.0599 1.14109 -2.28274 
89 3 2.72227 1.60974 -0.578051 
4946 3 3.54408 0.293766 -2.99497 
90 1 0.231776 6.07893 2.29054 
19277 2 -1.55143 -2.13332 2.66104 
19276 1 -0.520565 -1.82873 1.62049 
2746 1 -4.94692 -2.62573 -1.74365 
9544 1 3.98403 -2.80539 -4.29069 
14631 1 -2.7968 -2.77319 -0.163701 
673 1 0.633461 0.262002 -2.95201 
14629 1 3.80618 1.14843 -0.0653814 
14630 2 -2.27782 -1.56351 -2.82049 
9545 2 -1.06602 1.2494 -2.16529 
9020 3 -0.904468 -2.15613 0.631954 
2748 1 0.268036 -4.4751 3.18377 
2747 3 -1.26542 -0.326637 3.07285 
17037 1 -1.6198 -5.81292 0.917381 
10272 1 0.477231 -2.00383 3.17145 
10270 1 -5.64458 -6.4714 -1.05267 
10271 2 -1.85692 3.66119 0.893464 
19278 1 -6.47453 -1.31442 -6.97543 
11625 1 0.712817 -2.15233 -2.44047 
4004 2 3.22163 1.17774 1.92404 
10091 3 -0.754317 -0.852033 -0.728159 
14926 1 6.28673 6.99944 -1.26893 
4003 1 -0.62983 -0.0438392 1.42397 
10092 1 2.82407 -2.27609 1.19635 
10090 1 -0.4675 -3.9273 6.27032 
11624 2 -3.22975 3.09497 -4.36968 
1576 1 -2.33267 7.26185 -0.444102 
7422 1 6.2602 2.24672 4.52443 
7421 3 -2.60927 -1.38821 -4.028 
492 1 4.76411 0.605686 -5.87658 
653 2 5.11177 -1.67176 -1.07877 
654 1 0.862127 -0.38182 -2.95695 
16182 1 0.824808 -1.34268 5.72102 
652 1 -1.83618 0.2355 -1.74446 
15985 1 -4.74972 7.00323 -4.67348 
2215 1 4.33797 0.386526 0.54699 
6140 3 3.14651 -0.649089 -5.0596 
10690 1 1.16529 0.119821 4.75361 
10691 3 -2.09446 9.76616 4.90359 
6139 1 4.78589 -1.07677 -1.91781 
10692 1 -3.03925 4.13344 -2.13199 
8380 1 4.50534 3.83693 1.56788 
8381 3 -0.277341 4.88912 -3.24884 
8382 1 -0.702894 1.92101 3.12853 
19207 1 -1.04583 -1.68148 3.89708 
19208 3 5.6341 -0.947163 4.79704 
19209 1 2.28933 0.586489 -0.630013 
2073 1 1.49772 5.19761 2.94781 
4413 1 -2.75978 7.30084 3.2998 
10026 1 5.47527 -4.21989 1.19799 
2072 3 -3.83091 -0.165324 -1.88974 
9019 1 1.23161 1.25312 4.25045 
16642 1 0.830098 6.71441 -4.92866 
9021 1 -0.482434 3.37002 2.83055 
17036 2 0.27051 1.50485 -2.82951 
17035 1 -0.0423582 0.316551 0.616916 
15510 1 1.83034 1.95155 1.83706 
15508 1 3.81733 0.0750099 -5.22051 
15509 3 3.55175 -1.80534 0.273972 
19345 1 6.03697 4.2015 -5.65912 
19346 3 0.630379 3.17719 1.45802 
4785 1 3.25778 -2.43616 -0.407528 
8597 2 -3.00757 -1.73552 2.51679 
8598 1 -0.0162927 -0.454381 -4.61104 
3460 1 -3.32499 3.49705 1.08145 
6917 2 1.73824 -0.658616 -1.22848 
6916 1 -0.665214 -2.62775 1.90642 
12425 3 -1.6788 1.74769 0.452677 
12424 1 -1.2554 -0.962243 -2.27543 
5241 1 2.04057 1.51773 -1.29432 
10042 1 5.60514 1.29847 -3.13031 
10043 3 1.73682 -1.32683 -0.607932 
10044 1 -3.6969 0.360879 -0.708355 
80 3 4.65188 -1.83109 -2.71821 
5154 1 -6.22502 -3.36898 -4.10037 
19781 3 -0.696765 -0.706385 -1.99802 
6118 1 -4.21416 -8.56696 -1.36735 
19780 1 1.36382 -2.26222 -1.1261 
6120 1 -2.99042 -2.62864 4.90686 
6119 3 -3.20379 0.805389 0.502622 
11208 1 -0.510872 -2.56195 -1.07102 
9606 1 3.57322 -1.5649 3.03757 
19788 1 -0.404454 -2.31562 0.962624 
19782 1 2.03698 9.43172 -1.86669 
11207 3 -1.26807 3.96095 -6.36538 
11206 1 -0.971726 5.08893 2.20896 
19786 1 2.03854 2.47514 -5.46638 
19787 2 -1.81481 1.85827 4.14337 
12426 1 -8.24589 1.7076 5.66631 
5730 1 0.539814 3.48075 5.56651 
11770 1 -2.85188 -0.0277638 2.48174 
14425 1 -4.64649 -0.841486 0.0292597 
14382 1 7.85674 7.06239 0.914314 
14426 3 -1.6903 1.367 0.476806 
14427 1 4.50155 8.17771 -1.95626 
10784 3 -0.771487 1.90067 -0.404052 
10785 1 -1.42059 2.22732 -1.32913 
18129 1 -2.53132 2.23347 2.183 
21239 3 4.14232 0.586078 -1.83262 
10783 1 -4.38361 1.68203 -3.44507 
21238 1 5.22536 8.12913 7.18998 
8048 3 -2.12965 2.77649 -0.661395 
18838 1 7.52725 -2.88224 -0.117836 
18128 3 0.0733819 0.861158 -3.31766 
18127 1 2.65053 -0.976668 -3.71882 
13858 1 -5.28613 1.79903 11.4688 
8049 1 -0.515629 3.04419 -1.19597 
5239 1 -0.37913 3.54965 0.308176 
5240 3 -2.44827 1.51503 -0.512926 
14529 1 -0.444036 1.38094 3.68748 
6370 1 -1.23307 -3.97382 5.53323 
5826 1 0.104256 2.58689 1.15579 
6371 3 3.20334 -4.73184 0.870183 
14528 3 0.436537 0.692084 -1.91574 
5825 3 3.22627 1.20579 -0.093661 
14807 3 -0.940183 0.991997 -0.997931 
8785 1 0.793277 -0.40849 -0.901783 
14527 1 6.80887 -6.98798 -2.05072 
3236 3 -3.39848 -0.672594 0.516112 
3235 1 -1.30766 -0.327486 -3.26591 
2431 1 -2.82461 2.84862 -4.73394 
3237 1 1.96808 2.7831 5.31788 
19541 3 -0.204557 0.953122 -1.05086 
8786 3 0.190546 1.42462 -2.27954 
9607 1 1.65053 -2.15634 4.27421 
9608 2 -0.661595 0.290948 0.0571892 
14078 3 0.268461 4.35944 -5.73731 
14079 1 4.5222 -0.905752 -2.80798 
8986 1 2.2824 -3.07507 1.84453 
14381 3 2.56405 -3.22019 0.37857 
14380 1 1.31871 -0.550712 -5.39115 
6921 1 4.59439 3.88134 -0.217484 
6920 3 1.766 0.574989 0.943322 
3440 3 1.13525 -3.13162 -0.781039 
3439 1 0.799722 -3.48618 1.65313 
2348 3 -3.86469 -3.15967 0.514829 
2347 1 -1.72724 5.18268 -0.719175 
8662 1 -4.04752 1.99743 -2.54675 
2349 1 3.19682 -5.52722 -1.68565 
6919 1 -4.18098 -3.75931 3.00816 
19762 1 -0.224742 1.07293 -1.84132 
17136 1 2.72599 -4.94041 -0.380195 
17135 3 0.462653 3.2807 -1.55763 
17134 1 8.44461 3.38508 -3.32015 
495 1 -0.0528962 4.81914 -3.22047 
5824 1 8.66507 2.16424 1.58636 
8412 1 -0.627361 -1.8594 1.35372 
493 1 0.853141 -2.22588 -3.84415 
494 3 0.0623498 2.02001 0.443691 
5365 1 -1.74066 3.20971 1.19638 
16468 1 -1.30378 -1.43663 -5.5348 
16469 3 1.20925 3.55357 -1.56345 
16470 1 -3.0487 5.8841 -0.908823 
19165 1 1.60694 -3.29613 2.09081 
14806 1 5.92039 -1.9752 1.56591 
5519 3 4.8841 -0.917323 -2.62819 
5520 1 -2.00938 2.95509 1.72881 
11416 1 -7.31447 2.75822 2.02242 
21224 3 -1.77854 0.189917 0.28125 
21403 1 -2.54836 -1.53508 0.796598 
21223 1 1.35308 -1.33572 -0.493816 
11417 3 0.661009 -1.09746 -0.218731 
20159 3 0.780088 -1.86233 -1.41583 
21404 3 -4.01861 -3.13097 0.539349 
19542 1 6.27903 2.39769 0.974061 
21405 1 -5.97976 -3.02474 -2.573 
10637 3 2.37913 -0.198446 -1.83915 
11418 1 -1.76496 -0.295638 -0.296116 
10636 1 0.702428 -1.75554 2.2904 
18547 1 4.6235 4.87178 -4.66431 
8656 1 -2.85783 1.36083 -0.984769 
8657 2 -1.80866 -0.0607438 0.327665 
8658 1 -4.47034 -1.82279 -0.410867 
1429 1 -4.7174 1.16149 3.66308 
19200 1 -0.118737 -0.208127 -2.69401 
1431 1 8.41194 4.17859 -1.84134 
11158 1 -3.71857 -6.27114 1.37466 
20172 1 -0.0186646 -0.509061 0.668753 
11159 3 0.508412 0.0218358 -0.840155 