LAMMPS data file via write_data, version 5 Jun 2019, timestep = 120000000

3318 atoms
3 atom types
3266 bonds
3 bond types
3214 angles
3 angle types

0.0000000000000000e+00 5.0000000000000000e+01 xlo xhi
0.0000000000000000e+00 5.0000000000000000e+01 ylo yhi
0.0000000000000000e+00 5.0000000000000000e+01 zlo zhi

Masses

1 0.25
2 0.5
3 0.5

Bond Coeffs # harmonic

1 6000 0.15
2 2000 0.4
3 2000 0.4

Angle Coeffs # harmonic

1 100 180
2 5 180
3 5 180

Atoms # angle

7463 2 2 2.5402761995909657e+01 1.2582880713633987e+01 1.0491619185815577e+00
7464 1 1 2.5096562734607385e+01 1.2777392692021998e+01 9.3136516600398800e-01
17870 3 3 2.4657882982298442e+01 1.3098181718984636e+01 6.9483661996418034e-01
17871 1 1 2.4964450531637013e+01 1.2865856856008200e+01 8.6912709335278238e-01
17869 1 1 2.4548999239883372e+01 1.3333797244926080e+01 4.0336314794513883e-01
7462 1 1 2.5767023771239099e+01 1.2642241504140165e+01 1.2002937950128765e+00
13492 1 1 2.5924709312368964e+01 1.2666799912322929e+01 1.2582783204658650e+00
13493 3 3 2.6333919905128049e+01 1.2703153934641787e+01 1.3802822927441769e+00
13494 1 1 2.6472373432142042e+01 1.2323666192505804e+01 1.2510458089692502e+00
2942 2 2 3.2714723551612714e+01 1.4301714269334942e+01 5.0431801798530762e-01
8685 1 1 3.3187465577496859e+01 1.4517976474261950e+01 3.7910450109175642e-01
2941 1 1 3.3043291706056358e+01 1.4480137659569586e+01 4.2714573255234528e-01
2943 1 1 3.2469313466424040e+01 1.4378139904093462e+01 8.4945000061395171e-01
8684 3 3 3.3532949046947301e+01 1.4658879543673169e+01 3.2254843236493186e-01
8913 1 1 3.9246215327338533e+01 1.6781495349221199e+01 9.2859713896183109e+00
11769 1 1 3.8782114775664937e+01 1.6122788289878031e+01 9.2826549126257021e+00
8912 3 3 3.9484852599075623e+01 1.7081580764148033e+01 9.0962409012685672e+00
11767 1 1 3.9172788829455918e+01 1.6691112344729408e+01 9.3424736975200204e+00
11768 2 2 3.8977366780943811e+01 1.6423615187749967e+01 9.4646523409258112e+00
8911 1 1 3.9498906580076685e+01 1.7383450370265429e+01 9.3551542978911453e+00
20084 2 2 3.4787825575098218e+01 2.6133204263742766e+01 1.9952260116490166e+01
19621 1 1 2.9962077190105347e+01 2.7378304845652448e+01 1.9888325813858874e+01
10575 1 1 2.9938620688881116e+01 2.7503425074349206e+01 1.9977547412609670e+01
19622 3 3 3.0028928260674029e+01 2.7079451868450391e+01 1.9620816404050469e+01
19623 1 1 2.9850304879273455e+01 2.6944773289552248e+01 1.9313807045914469e+01
20039 2 2 3.1187892164340571e+01 2.6642236004241280e+01 1.8924517804672288e+01
19387 1 1 3.1258607615073945e+01 2.7129762255291201e+01 1.8736982621376594e+01
20040 1 1 3.1255175615857066e+01 2.6978760637580599e+01 1.8775772090614513e+01
19388 2 2 3.1256648684288589e+01 2.7548846888970566e+01 1.8652244329574668e+01
6295 1 1 3.1240363176420857e+01 2.7392407195405507e+01 2.0090487337133329e+01
1468 1 1 3.1344506681606060e+01 2.7477104910778905e+01 1.9996339457478769e+01
20038 1 1 3.1310263996206821e+01 2.6458944596005686e+01 1.9265624358960956e+01
9102 1 1 3.1343504383931020e+01 2.6411638091133010e+01 1.9396262311101417e+01
9101 3 3 3.1445317913257167e+01 2.6370131890835928e+01 1.9778568815916497e+01
9100 1 1 3.1721950747871830e+01 2.6415244860891335e+01 2.0074698614714965e+01
20085 1 1 3.4888402650526658e+01 2.6353155305965572e+01 1.9597142109524086e+01
12114 1 1 3.4916705393421616e+01 2.6403728988347400e+01 1.9463888778852400e+01
18804 1 1 3.6131505982898297e+01 2.7593302490654128e+01 1.8748283262970812e+01
12112 1 1 3.5328762441475611e+01 2.6814326527344978e+01 1.8904675288345267e+01
12113 3 3 3.5010800845990815e+01 2.6528400049109720e+01 1.9081494035491861e+01
12954 1 1 3.5428662298737954e+01 2.6906841485368329e+01 1.8876105950514543e+01
12953 3 3 3.5749939454812605e+01 2.7170244734873538e+01 1.8848642879815461e+01
12952 1 1 3.5997060899752128e+01 2.7478270060834905e+01 1.8770799606503310e+01
5210 2 2 2.2514097758015382e+01 1.4339621269330692e+01 2.1445059987825935e+01
5209 1 1 2.2663765991555344e+01 1.4092593479326792e+01 2.1168905445418442e+01
5211 1 1 2.2189660087781121e+01 1.4555571672580312e+01 2.1586768397526420e+01
7567 1 1 3.1795310991250677e+01 2.6074799838505562e+01 2.1450937523981345e+01
7568 2 2 3.2005107623036913e+01 2.5771322575154681e+01 2.1562911087305004e+01
7569 1 1 3.2440500686376524e+01 2.5811812416206703e+01 2.1635639468919742e+01
2719 1 1 3.2578075969823026e+01 2.5860800845712273e+01 2.1667164093812101e+01
19823 2 2 3.4381854879411769e+01 2.5574128240280647e+01 2.0523734165945815e+01
19822 1 1 3.4584591948460378e+01 2.5761236076547629e+01 2.0319495976675864e+01
19824 1 1 3.4458423229611256e+01 2.5477260680639816e+01 2.0880882767002323e+01
9754 1 1 3.4516951900489580e+01 2.5455596499931779e+01 2.1008883846586226e+01
20083 1 1 3.4668562632639350e+01 2.5877970165936478e+01 2.0229812717512448e+01
420 1 1 3.3774613256524823e+01 2.5719200137635251e+01 2.1559289250263259e+01
9755 2 2 3.4748442169704262e+01 2.5372020941014167e+01 2.1329841828891013e+01
6296 2 2 3.0992495703651880e+01 2.7174724202978265e+01 2.0291161883635620e+01
17433 1 1 3.1808810168583896e+01 2.6440987099873329e+01 2.0173504783950250e+01
8609 2 2 3.0698707944070463e+01 2.7248440832334900e+01 2.1185594227690061e+01
8610 1 1 3.0651361101677104e+01 2.7305175439123367e+01 2.1578633640936996e+01
6297 1 1 3.0867862651467949e+01 2.7198137662641408e+01 2.0680395338782169e+01
8608 1 1 3.0843131812832461e+01 2.7214538928285954e+01 2.0820648071697132e+01
18500 2 2 3.1486592054934849e+01 2.6500140422282175e+01 2.1244614101123293e+01
18499 1 1 3.1547551278651198e+01 2.6898572372283901e+01 2.1179382422747619e+01
21442 1 1 3.1571359783935346e+01 2.7062762093145601e+01 2.1174542558003953e+01
18501 1 1 3.1720896108416568e+01 2.6191679445154424e+01 2.1407571448995824e+01
21443 2 2 3.1708608033947662e+01 2.7472647239275815e+01 2.1115942013275934e+01
17432 2 2 3.2095766615507664e+01 2.6458289480402023e+01 2.0442849883652958e+01
17431 1 1 3.2428991729855582e+01 2.6588781800606348e+01 2.0591073012308566e+01
11227 1 1 3.2541801653322217e+01 2.6677269432361484e+01 2.0651333542911445e+01
11228 2 2 3.2811237745856133e+01 2.6948350636328545e+01 2.0765087108346997e+01
11229 1 1 3.3178582855041576e+01 2.7089732633310451e+01 2.0875044855432108e+01
20776 1 1 3.3311387163399196e+01 2.7138139480157260e+01 2.0883197263904844e+01
20778 1 1 3.3826586457768585e+01 2.7631325446878289e+01 2.1039273483121992e+01
20777 2 2 3.3674016650303102e+01 2.7269965283016315e+01 2.0911230217002338e+01
13976 2 2 3.0830195901645226e+01 2.4387799599423957e+01 2.3136841570585041e+01
13975 1 1 3.1187312195329376e+01 2.4471994234294950e+01 2.2915085765887667e+01
18465 1 1 3.1317212099746879e+01 2.4499917262755620e+01 2.2829918507976732e+01
16425 1 1 3.1236483865997922e+01 2.5622850023668963e+01 2.3107063352532908e+01
18892 1 1 3.1304198456940192e+01 2.5544687360138933e+01 2.3227140587478157e+01
18464 2 2 3.1700485342658538e+01 2.4644179556275937e+01 2.2675526388199870e+01
16424 2 2 3.1028133860000768e+01 2.5791644933091295e+01 2.2792468008781146e+01
16423 1 1 3.0870798738402755e+01 2.6073842433688881e+01 2.2626646537798287e+01
418 1 1 3.3320899732895498e+01 2.5648386132119622e+01 2.1786252148953142e+01
2721 1 1 3.3228947535288199e+01 2.5744985367814301e+01 2.1788872397383713e+01
18463 1 1 3.1864404673546623e+01 2.5009858561198929e+01 2.2550766460588562e+01
17407 1 1 3.1950813119521779e+01 2.5157831381921540e+01 2.2550222412518682e+01
17408 2 2 3.2167552447542334e+01 2.5457900784217280e+01 2.2665226128014613e+01
17409 1 1 3.2286169366962667e+01 2.5744320776753000e+01 2.2908805103807691e+01
15238 1 1 3.2326476337787788e+01 2.5872715622369622e+01 2.2986110271668291e+01
2720 2 2 3.2909339942623596e+01 2.6016198690796362e+01 2.1738077922965410e+01
419 2 2 3.3664557452221445e+01 2.5410261615039708e+01 2.1710362539213651e+01
4929 1 1 3.4406435898358758e+01 2.5271101851738361e+01 2.2521448628925100e+01
4928 2 2 3.4672846330645832e+01 2.5135416259212356e+01 2.2234737566949374e+01
4927 1 1 3.4694532747663786e+01 2.5172699813002843e+01 2.1819402105627216e+01
9756 1 1 3.4703837265949737e+01 2.5198721656182247e+01 2.1705830970121330e+01
14758 1 1 3.3544299612930160e+01 2.5397016062255908e+01 2.3178460919951622e+01
9591 1 1 3.4274203618785236e+01 2.5314136738808401e+01 2.2618595183880174e+01
9590 2 2 3.3913014485039824e+01 2.5334820842792386e+01 2.2799489006137467e+01
9589 1 1 3.3639471837480414e+01 2.5394273110440288e+01 2.3068830230059113e+01
4564 1 1 2.9004635313728624e+01 2.7367619438524905e+01 2.2346614038148019e+01
1323 1 1 2.8929971495731692e+01 2.7490585561122977e+01 2.2253232339273822e+01
4565 2 2 2.9159434465563450e+01 2.7134762542278583e+01 2.2591174493415352e+01
339 1 1 2.9416521380034435e+01 2.6735254882397996e+01 2.2842914647159514e+01
4566 1 1 2.9366778192725736e+01 2.6830637520411489e+01 2.2786354726387135e+01
338 2 2 2.9562758607081985e+01 2.6424344843608083e+01 2.2963521746443309e+01
337 1 1 2.9797817272963464e+01 2.6300307683009478e+01 2.3181344872208921e+01
9343 1 1 3.0313765955843959e+01 2.7586367340354691e+01 2.3074340103447994e+01
20303 2 2 3.0543013274274660e+01 2.7349558357296655e+01 2.2116393270165876e+01
20302 1 1 3.0615587556380941e+01 2.7313656785293997e+01 2.1721753286831095e+01
20304 1 1 3.0562748397471086e+01 2.6959052778772897e+01 2.2259400679640507e+01
9296 2 2 3.0554692527001858e+01 2.6473316331272610e+01 2.2336381758773790e+01
9297 1 1 3.0573717571120728e+01 2.6816397414843099e+01 2.2294082960946934e+01
9295 1 1 3.0797424764988403e+01 2.6171009243747879e+01 2.2537389419404434e+01
7630 1 1 3.1518043554041700e+01 2.6808946496410499e+01 2.2714465677176637e+01
15052 1 1 3.1599109441731780e+01 2.6717281909284040e+01 2.2646482341846340e+01
15053 2 2 3.1768967101402719e+01 2.6481373779134373e+01 2.2374943180196560e+01
7631 2 2 3.1297821388496317e+01 2.7066563548092905e+01 2.2906482222900344e+01
9345 1 1 3.0855900053494697e+01 2.7254141770196604e+01 2.3141575611174439e+01
7632 1 1 3.0988835486745081e+01 2.7209559032395539e+01 2.3080952699193272e+01
6439 1 1 3.2611086673300527e+01 2.7348202480528613e+01 2.2988638882132477e+01
7561 1 1 3.1956817228426683e+01 2.7632644621997276e+01 2.2291722044649742e+01
6440 2 2 3.2345450467596258e+01 2.7546742343274733e+01 2.2671685194096295e+01
6441 1 1 3.2068915567920527e+01 2.7615708534204447e+01 2.2398911872735102e+01
167 2 2 3.2312231636410615e+01 2.6928996160104234e+01 2.1752751760280688e+01
168 1 1 3.2082450849048229e+01 2.6737328497700677e+01 2.2022600572504501e+01
15054 1 1 3.2006848577174310e+01 2.6678709622141646e+01 2.2115024890841958e+01
166 1 1 3.2659740788171902e+01 2.7067286505104246e+01 2.1875097664313255e+01
16672 1 1 3.2812522983045206e+01 2.7137553651591741e+01 2.1894957636431794e+01
14563 1 1 3.2690063442444888e+01 2.7275810977810931e+01 2.3057745531393927e+01
16673 2 2 3.3160365951635178e+01 2.7327404140785450e+01 2.1923712758250065e+01
15239 2 2 3.2392503051101677e+01 2.6200886544962277e+01 2.3158486785398726e+01
991 1 1 3.3618806227626514e+01 2.6451615667038617e+01 2.3231050251668513e+01
992 2 2 3.3595449885442186e+01 2.6367149076665815e+01 2.2843180353999141e+01
20153 2 2 3.4242700372764062e+01 2.6236205952308250e+01 2.2216806327262656e+01
993 1 1 3.3822913161839033e+01 2.6229039171247049e+01 2.2547810238263295e+01
20154 1 1 3.3933344325508067e+01 2.6199527212961446e+01 2.2464843561682766e+01
8240 2 2 3.4240872712517884e+01 2.7542637521750819e+01 2.2239295967355499e+01
20152 1 1 3.4533949216840909e+01 2.6211289217984557e+01 2.1941075223463230e+01
9388 1 1 3.4657013509331648e+01 2.6226238801941108e+01 2.1882975554643206e+01
8241 1 1 3.4512633431164332e+01 2.7296864652383981e+01 2.2457298344432200e+01
2640 1 1 3.4623412777577443e+01 2.7222076339320878e+01 2.2574734778268844e+01
2639 2 2 3.4789761221548865e+01 2.7060759850865235e+01 2.2815586518677911e+01
16674 1 1 3.3490520228767032e+01 2.7567356939803563e+01 2.2061040493706372e+01
7239 1 1 3.5546146125315495e+01 2.7588654033781701e+01 2.1858842500081671e+01
7238 2 2 3.5367578879574154e+01 2.7231153256812689e+01 2.1828734878932760e+01
9390 1 1 3.5116009631574279e+01 2.6673621275941610e+01 2.1808898763845168e+01
7237 1 1 3.5171721177256785e+01 2.6835573137099249e+01 2.1810225784601794e+01
9389 2 2 3.5023263326732568e+01 2.6274885494091716e+01 2.1812214018420569e+01
6820 1 1 3.5793900848905487e+01 2.7085210317858941e+01 2.2980007161297721e+01
13197 1 1 3.5797470839816604e+01 2.6919104766902990e+01 2.2980741665005844e+01
6821 2 2 3.5800140365360150e+01 2.7531538842302645e+01 2.2962949727455722e+01
13196 2 2 3.5803963452398854e+01 2.6515696284720114e+01 2.2938695007303242e+01
2638 1 1 3.4979046679035434e+01 2.6978922594440771e+01 2.3140230791345235e+01
15727 1 1 3.7842951823396156e+01 2.7003042273180395e+01 2.2713997299104037e+01
1780 1 1 3.7810168855835663e+01 2.7060116543977227e+01 2.2584449997587448e+01
15728 2 2 3.7786820475517729e+01 2.6828822855995558e+01 2.3117082886013485e+01
1781 2 2 3.7730651834886778e+01 2.7233454190186265e+01 2.2315277162048684e+01
1782 1 1 3.7744825561921850e+01 2.7566762260757187e+01 2.2186969878378605e+01
16123 1 1 1.4277983448423706e+01 3.2265880152935034e+00 2.4390570937574136e+01
16124 2 2 1.4422299332047478e+01 3.4921247438608565e+00 2.4660903421619253e+01
13905 1 1 3.1429780470452251e+01 2.4089453641578906e+01 2.4186774318001220e+01
2919 1 1 3.1434029574384216e+01 2.3990570811033919e+01 2.4075798018530858e+01
2918 2 2 3.1481918626484937e+01 2.3664388367013803e+01 2.3751357324459416e+01
2917 1 1 3.1751805417694502e+01 2.3424300452850868e+01 2.3640109966731696e+01
13904 2 2 3.1367538848008781e+01 2.4311972308077166e+01 2.4482422304352781e+01
21254 3 3 3.3122555222671615e+01 2.3278905975686271e+01 2.3557939093117433e+01
21255 1 1 3.2773243816129565e+01 2.3181105627767703e+01 2.3592861432024264e+01
5608 1 1 3.2606653172736202e+01 2.3164292576313787e+01 2.3612016345651121e+01
5610 1 1 3.1856907098695000e+01 2.3345878615351985e+01 2.3637495643208560e+01
5609 2 2 3.2214224407062019e+01 2.3144906020341431e+01 2.3663608426336371e+01
21253 1 1 3.3567330776030722e+01 2.3299410132269735e+01 2.3619250342709030e+01
4813 1 1 3.4371350248590765e+01 2.4508601181969045e+01 2.4700786070434461e+01
4814 3 3 3.4083183903822757e+01 2.4254898453228250e+01 2.4674702984669654e+01
14515 1 1 2.9753634182559956e+01 2.5010572455630655e+01 2.3724937552926452e+01
1027 1 1 2.9867535658357550e+01 2.4997514737559431e+01 2.3612759834721423e+01
14516 2 2 2.9497628513418618e+01 2.5092773906654813e+01 2.4064000348561450e+01
16230 1 1 2.9275023195420271e+01 2.5237522871452132e+01 2.4564833438752995e+01
14517 1 1 2.9347824428841378e+01 2.5195573424091666e+01 2.4425365859503000e+01
19917 1 1 3.0263549447380054e+01 2.5853123337202597e+01 2.3796148500363113e+01
19916 2 2 3.0147623972551411e+01 2.6083248062216796e+01 2.3513541997104824e+01
12913 1 1 3.0299590520985387e+01 2.5770815891991202e+01 2.3921122856415405e+01
1028 2 2 3.0146055485465347e+01 2.4903396959855503e+01 2.3410687297906517e+01
18893 2 2 3.1490163927596093e+01 2.5424000875616255e+01 2.3493981741744236e+01
13977 1 1 3.0546133540275079e+01 2.4648560416058437e+01 2.3252858456411115e+01
1029 1 1 3.0457900084064505e+01 2.4712332719056505e+01 2.3286785668988898e+01
12915 1 1 3.0480587559956493e+01 2.5321049390853400e+01 2.4555252993327482e+01
18415 1 1 3.0500599751685950e+01 2.5246059434341582e+01 2.4689050885554245e+01
12914 2 2 3.0399172453369090e+01 2.5504082662970259e+01 2.4223149443722129e+01
13903 1 1 3.1414917043575542e+01 2.4659135453651011e+01 2.4608174626110955e+01
16786 1 1 3.1444640092457217e+01 2.4790805674299914e+01 2.4629847907640720e+01
16787 2 2 3.1538609020868144e+01 2.5174050460208012e+01 2.4707714516100054e+01
18894 1 1 3.1882917500169636e+01 2.5330463710371234e+01 2.3616000529839489e+01
2439 1 1 3.2020391328212959e+01 2.5286305125957593e+01 2.3683409060888462e+01
14759 2 2 3.3276377169602682e+01 2.5447099926439524e+01 2.3478429857321760e+01
2438 2 2 3.2350896190419689e+01 2.5137013457196939e+01 2.3802086779113022e+01
2437 1 1 3.2724787150980674e+01 2.5262432282681424e+01 2.3675728426330050e+01
14760 1 1 3.2881490541786860e+01 2.5308110317563251e+01 2.3615727551448000e+01
6322 1 1 3.4461932610048514e+01 2.4629784830496813e+01 2.4699041623388347e+01
6323 2 2 3.4694784986824267e+01 2.4945591606083646e+01 2.4731657426233308e+01
16940 2 2 3.3923035178569329e+01 2.5610660537899815e+01 2.4463567792070720e+01
16939 1 1 3.4155540862371460e+01 2.5906020219466374e+01 2.4442794728149590e+01
5335 1 1 3.4232940864421238e+01 2.6040764091460677e+01 2.4406233353619598e+01
6324 1 1 3.4823844999313572e+01 2.5167456496430390e+01 2.4423358846298513e+01
12357 1 1 3.4767087837429251e+01 2.5708343153535754e+01 2.3592519829225502e+01
12356 2 2 3.4535642307679716e+01 2.6047728949395093e+01 2.3393573576411672e+01
16941 1 1 3.3656417393463023e+01 2.5354045439828685e+01 2.4619061316477975e+01
18850 1 1 3.3542755805891076e+01 2.5244108795661987e+01 2.4683920264085380e+01
8940 1 1 3.4872535907696950e+01 2.5223762461101344e+01 2.4306209201075344e+01
8939 2 2 3.4993848117357544e+01 2.5357598296643175e+01 2.3941713457489840e+01
8938 1 1 3.4856501603713937e+01 2.5622510112615110e+01 2.3681779951338264e+01
12860 2 2 3.5832135433011757e+01 2.5948739007911644e+01 2.3708623392938883e+01
12859 1 1 3.5950374330568110e+01 2.5789052802288673e+01 2.4024040001304847e+01
21016 1 1 3.6019156627798573e+01 2.5746074028149764e+01 2.4158770349024859e+01
21017 3 3 3.6241934788957145e+01 2.5664389465027007e+01 2.4472105595240208e+01
13733 2 2 3.7278617585088810e+01 2.6069015380255156e+01 2.4127857928839678e+01
13732 1 1 3.7265338965974543e+01 2.5666199089144680e+01 2.4026991147546234e+01
15683 2 2 2.9546452038074268e+01 2.7652577489269067e+01 2.4661855615405173e+01
7840 1 1 2.9100246272204775e+01 2.7379866863951808e+01 2.3549231695805965e+01
19915 1 1 2.9881859885540905e+01 2.6255563565586343e+01 2.3282101410639559e+01
15682 1 1 2.9834559923881919e+01 2.7402747780937275e+01 2.4548450132296498e+01
20700 1 1 2.9088263229296153e+01 2.7263856414192677e+01 2.3622889061728614e+01
20699 2 2 2.9068998955259190e+01 2.6979038000334914e+01 2.3854306012727676e+01
4976 2 2 2.9368102559855227e+01 2.6255045068014578e+01 2.4423398829114017e+01
20698 1 1 2.9210122556362712e+01 2.6691249301705700e+01 2.4100152605222409e+01
4977 1 1 2.9236315392646993e+01 2.6570605587010220e+01 2.4200974884473933e+01
13883 2 2 3.0215548428575364e+01 2.6997747851775845e+01 2.4417611413940516e+01
13884 1 1 2.9927264718313790e+01 2.7304870811177899e+01 2.4497724494423370e+01
4975 1 1 2.9603766634352798e+01 2.6165667523113179e+01 2.4700906105601483e+01
5570 2 2 3.1051271346344521e+01 2.7552438528698978e+01 2.4192691661298376e+01
9344 2 2 3.0545529060899273e+01 2.7313196231152570e+01 2.3275930795890243e+01
5569 1 1 3.1179065414416289e+01 2.7348830657647941e+01 2.4502699677806053e+01
5614 1 1 3.1252405026511195e+01 2.7297879789124845e+01 2.4624600775653221e+01
17582 2 2 3.1597807085412597e+01 2.6440417131229811e+01 2.3721958037673907e+01
13882 1 1 3.0416525933169474e+01 2.6701654387986498e+01 2.4296014983338114e+01
18951 1 1 3.1189694039544523e+01 2.6444448762007163e+01 2.4016611852407681e+01
18949 1 1 3.0524990011704183e+01 2.6622680961046928e+01 2.4258364326012689e+01
18950 2 2 3.0850503248307827e+01 2.6461653803618393e+01 2.4206716348552813e+01
17581 1 1 3.1301516813566934e+01 2.6463037281781585e+01 2.3920400896885610e+01
17583 1 1 3.1803005565270627e+01 2.6761435970573483e+01 2.3740247620294689e+01
5748 1 1 3.2251423403198636e+01 2.7609739793862143e+01 2.3886084956165753e+01
16924 1 1 3.2699918966805626e+01 2.6148455897695101e+01 2.4502853795527479e+01
15240 1 1 3.2542771784634525e+01 2.6309863808925233e+01 2.3519378120884760e+01
11973 1 1 3.2589322198317589e+01 2.6349077088465940e+01 2.3646731418497829e+01
11971 1 1 3.2685019713521072e+01 2.6198333119271911e+01 2.4368882593573833e+01
11972 2 2 3.2627130332146855e+01 2.6368356203261364e+01 2.4070627169642595e+01
5747 2 2 3.2074768607245410e+01 2.7229026278293652e+01 2.3774933484533349e+01
5746 1 1 3.1892928913234229e+01 2.6890296021668341e+01 2.3736829940356067e+01
14564 2 2 3.2925951614245811e+01 2.7092099107134931e+01 2.3281292601442107e+01
14565 1 1 3.3029966916821479e+01 2.7070881380264687e+01 2.3659434406573510e+01
1363 1 1 3.3044771059017123e+01 2.7115904943922864e+01 2.3800850753058903e+01
1364 2 2 3.3181090779109141e+01 2.7265356833414263e+01 2.4183264498884913e+01
1365 1 1 3.3284128109328606e+01 2.7140041602292463e+01 2.4564307210614999e+01
2218 1 1 3.4216675546758687e+01 2.7622079235922037e+01 2.4451329680884566e+01
2219 2 2 3.4453748984987705e+01 2.7448482546224945e+01 2.4203252935507564e+01
12355 1 1 3.4277781775673049e+01 2.6354305803816569e+01 2.3374053022542959e+01
11328 1 1 3.3640899800968434e+01 2.6471210475534907e+01 2.3391895160885831e+01
5336 2 2 3.4360394713024071e+01 2.6361838708110284e+01 2.4359179701550769e+01
4312 1 1 3.3341408696682549e+01 2.7084856009774249e+01 2.4676493863288758e+01
2220 1 1 3.4766599273122473e+01 2.7303583184738525e+01 2.3981267651713090e+01
11327 2 2 3.3653116151552240e+01 2.6475162464888239e+01 2.3759400383156624e+01
11326 1 1 3.3928373408367641e+01 2.6415485207014928e+01 2.4027635594572498e+01
5337 1 1 3.4024821580983421e+01 2.6398734511195094e+01 2.4120753117832137e+01
12861 1 1 3.5841490143353909e+01 2.6213313094707200e+01 2.3398099787992724e+01
13195 1 1 3.5820950567713680e+01 2.6314672839143746e+01 2.3266364709895470e+01
18718 1 1 3.4884129785949305e+01 2.7215829049982041e+01 2.3866331392451723e+01
18719 2 2 3.5120543985671780e+01 2.6996597580354820e+01 2.3636735353224154e+01
18720 1 1 3.5039426543674473e+01 2.6996303084065090e+01 2.3278058195038856e+01
7175 2 2 3.5334116607722152e+01 2.6457719474449881e+01 2.4553911663667506e+01
7176 1 1 3.5622299224943376e+01 2.6659544612869144e+01 2.4429552363563317e+01
859 1 1 3.5731509612819181e+01 2.6718142320275085e+01 2.4359373516112690e+01
860 2 2 3.6089075930496001e+01 2.6865584298056802e+01 2.4177756445460759e+01
18867 1 1 3.7855916740734592e+01 2.7354273197645082e+01 2.4680015541275338e+01
766 1 1 3.7821390021967495e+01 2.7258107585148615e+01 2.4581562059440323e+01
15729 1 1 3.7394265763419277e+01 2.6831843018314366e+01 2.3245872069070842e+01
861 1 1 3.6449693736228525e+01 2.6874391618808328e+01 2.3914882159910512e+01
5338 1 1 3.6574242280308518e+01 2.6886255535456982e+01 2.3833012420236216e+01
5340 1 1 3.7251674447994915e+01 2.6829732064829855e+01 2.3325533788329786e+01
5339 2 2 3.6938949849958433e+01 2.6853533504242879e+01 2.3590756264306496e+01
768 1 1 3.7569711836407386e+01 2.6565207876853297e+01 2.4257053178888910e+01
13734 1 1 3.7490166659104744e+01 2.6426496584885108e+01 2.4221020750133444e+01
767 2 2 3.7768774857501029e+01 2.6940836570557693e+01 2.4298799583122882e+01
8592 1 1 1.4615842563154613e+01 3.5585238413502065e+00 2.5152930718968260e+01
16125 1 1 1.4543349205015490e+01 3.5277184412125675e+00 2.5009567068241456e+01
8590 1 1 1.4814226347630187e+01 3.8707722173949706e+00 2.5803122760334990e+01
8591 2 2 1.4752892683206772e+01 3.6131173713450075e+00 2.5502594145813219e+01
10228 1 1 3.1518321217820084e+01 2.4044969360603552e+01 2.5434142521695939e+01
13621 1 1 3.1385850506591083e+01 2.4095167293685709e+01 2.5436215692839312e+01
13622 2 2 3.0980906302514519e+01 2.4244245223238760e+01 2.5472833793467725e+01
13623 1 1 3.0831310457471769e+01 2.4549263352204605e+01 2.5338093531762802e+01
1387 1 1 3.2328708446295174e+01 2.4010470754175870e+01 2.5764223253825325e+01
1388 2 2 3.2633208481307875e+01 2.3992478514788832e+01 2.6001958073240765e+01
10229 2 2 3.1906504960020566e+01 2.3991261587959379e+01 2.5477600961490737e+01
10230 1 1 3.2216409832094001e+01 2.4002475958312850e+01 2.5695226447154507e+01
3665 2 2 3.3641121562614885e+01 2.3592622935128727e+01 2.6209222621869550e+01
3664 1 1 3.3710984446219697e+01 2.3643967522653664e+01 2.5859412867377387e+01
11050 1 1 3.3728586979681239e+01 2.3657067153001702e+01 2.5745773172147260e+01
4815 1 1 3.3926366392497549e+01 2.4035654534937660e+01 2.4916869782972768e+01
11052 1 1 3.3894248463884153e+01 2.3943247884261879e+01 2.5043224652398681e+01
11051 2 2 3.3816865202688895e+01 2.3698415477617782e+01 2.5352621138322622e+01
3721 1 1 3.4098418609603279e+01 2.4543802480922579e+01 2.5943261680222857e+01
3722 2 2 3.4429931549750016e+01 2.4437567117386550e+01 2.5955503512647063e+01
5400 1 1 3.3915015782589400e+01 2.4579246034717496e+01 2.5919167354684379e+01
17466 1 1 3.7491730123229836e+01 2.4334700186488199e+01 2.4953462083170656e+01
16262 2 2 2.8622286983620832e+01 2.5951077249564698e+01 2.5271761855810873e+01
19574 2 2 2.9071305605858040e+01 2.5488902118077931e+01 2.6251731085754844e+01
16229 2 2 2.9110271204998220e+01 2.5312002479909044e+01 2.4903898249242403e+01
16263 1 1 2.8820762825149533e+01 2.5703175531457113e+01 2.5126546289249102e+01
16228 1 1 2.8870257198221942e+01 2.5593467391186223e+01 2.5076667012185865e+01
19573 1 1 2.9449276562979581e+01 2.5464024459659601e+01 2.6236909097677017e+01
14870 2 2 3.0020225078282106e+01 2.5448147221029068e+01 2.6219187628274124e+01
14869 1 1 2.9572900060147195e+01 2.5447254593591758e+01 2.6234084806754435e+01
20827 1 1 2.9730241886883054e+01 2.6115377755772297e+01 2.4819569913122809e+01
20828 2 2 3.0007585441479577e+01 2.6012064727484862e+01 2.5085868555635372e+01
14871 1 1 3.0444249091083094e+01 2.5374240206143053e+01 2.6271036494937793e+01
18416 2 2 3.0577207597378141e+01 2.5085307174493611e+01 2.5077850902795809e+01
18417 1 1 3.0761884520656864e+01 2.4706636376224242e+01 2.5262018340171892e+01
16788 1 1 3.1690298779681939e+01 2.5390414116031689e+01 2.5005375814260443e+01
10986 1 1 3.1724361909389177e+01 2.5475728825191919e+01 2.5110908292965657e+01
20829 1 1 3.0304721701144029e+01 2.6015228028593985e+01 2.5366203039092127e+01
20003 2 2 3.0774784810387352e+01 2.6096986148808906e+01 2.5688917047985008e+01
20002 1 1 3.0447192826644226e+01 2.6014037847794025e+01 2.5452749083196377e+01
2304 1 1 3.0599338425009663e+01 2.5364636390813892e+01 2.6285606650761178e+01
18016 1 1 3.3269881170595454e+01 2.4873572824497735e+01 2.6230603284815434e+01
16925 2 2 3.2685053395646335e+01 2.6024753884492480e+01 2.4852507513572572e+01
16366 1 1 3.3101631079103207e+01 2.5859309188517873e+01 2.5202213916740973e+01
16926 1 1 3.2983706736403164e+01 2.5886186118129249e+01 2.5088991916306856e+01
16535 2 2 3.2534582969247644e+01 2.4826863928348850e+01 2.5317212103394489e+01
16536 1 1 3.2403303699549532e+01 2.4886995088513519e+01 2.5744314220991608e+01
15190 1 1 3.2325039468473037e+01 2.4892004587595515e+01 2.5898066776254545e+01
16534 1 1 3.2849528382701877e+01 2.4908859904433960e+01 2.5095615536645493e+01
10985 2 2 3.1886907146651346e+01 2.5700659575710880e+01 2.5380991910859276e+01
18852 1 1 3.2991872471397080e+01 2.4920220729754888e+01 2.5029487351798533e+01
5807 2 2 3.2423942950027531e+01 2.5904668591951143e+01 2.6104292838138484e+01
10984 1 1 3.2099349461454935e+01 2.5807704552403891e+01 2.5699387938661083e+01
5806 1 1 3.2188794793239822e+01 2.5844945970702540e+01 2.5830227613386196e+01
15191 2 2 3.2090693517898103e+01 2.4924269769821159e+01 2.6224125396915912e+01
16367 2 2 3.3345817145642144e+01 2.5718514269097739e+01 2.5454298059162550e+01
18851 2 2 3.3351421112721461e+01 2.4939885264952604e+01 2.4845543230620297e+01
5399 2 2 3.3540750479274848e+01 2.4622810392708939e+01 2.5854604672937782e+01
5398 1 1 3.3356377100753647e+01 2.4803502244397642e+01 2.6100942844514009e+01
16368 1 1 3.3733636699575804e+01 2.5628680918633147e+01 2.5479821410521570e+01
7995 1 1 3.3887769719043852e+01 2.5575326742146654e+01 2.5484672161185891e+01
7994 2 2 3.4299980380147517e+01 2.5486285247004179e+01 2.5576622316037728e+01
7993 1 1 3.4647212329383152e+01 2.5639038204599466e+01 2.5455405961703672e+01
14340 1 1 3.4760994861444715e+01 2.5677720212413835e+01 2.5389429785601049e+01
3723 1 1 3.4741465722912153e+01 2.4616794976595244e+01 2.6091631532196885e+01
3717 1 1 3.4856859857777472e+01 2.4689991047242462e+01 2.6153612937612348e+01
21018 1 1 3.6229120533742886e+01 2.5830993955475201e+01 2.4851880892632646e+01
6652 1 1 3.6218369853374860e+01 2.5888378253028083e+01 2.4992730320417767e+01
6653 3 3 3.6094203652624742e+01 2.6047439624821923e+01 2.5352753516849099e+01
14338 1 1 3.5202072223038378e+01 2.6077940430156630e+01 2.4920731326804109e+01
14339 2 2 3.5071053540614692e+01 2.5838347292239416e+01 2.5223177118882145e+01
17465 3 3 3.7420599465396648e+01 2.4716125060437321e+01 2.5044261713209096e+01
17464 1 1 3.7287545937998232e+01 2.5111423027600605e+01 2.5064756755504039e+01
10410 1 1 3.7096484821860642e+01 2.6002658709124074e+01 2.5094751669702472e+01
10409 3 3 3.7063696809236902e+01 2.5594479261736691e+01 2.5090705453020586e+01
10408 1 1 3.7241577467841601e+01 2.5225894032134160e+01 2.5056887928434687e+01
21128 3 3 2.7571878025047251e+01 2.7632845753700451e+01 2.5932102752854590e+01
10720 1 1 2.8305120837474981e+01 2.7125192464710086e+01 2.4840112168665144e+01
10721 2 2 2.8318125688644745e+01 2.6789083675062766e+01 2.5086678666775839e+01
16261 1 1 2.8462590032903890e+01 2.6262560704303986e+01 2.5238792057862895e+01
21127 1 1 2.7509981829907677e+01 2.7386749667571120e+01 2.6226393692703400e+01
10722 1 1 2.8387882551625903e+01 2.6422929952956757e+01 2.5194397292523014e+01
20938 1 1 2.8999708045896515e+01 2.7225300820471549e+01 2.5391855604997964e+01
20939 2 2 2.8871246797943261e+01 2.7585184407609262e+01 2.5407149005017033e+01
13356 1 1 2.9733675507850172e+01 2.6857482871080354e+01 2.5931316562507600e+01
13355 2 2 3.0064613408366352e+01 2.7001604640854765e+01 2.6209579125345996e+01
5173 1 1 2.9605725365544167e+01 2.6803709796331205e+01 2.5825930853040351e+01
5174 2 2 2.9235285390132308e+01 2.6772740498102973e+01 2.5604997906197422e+01
5175 1 1 2.9054689249803751e+01 2.7112834744783015e+01 2.5425256049145467e+01
9796 1 1 3.0659033241735010e+01 2.7497878807242021e+01 2.5475313564463281e+01
19114 1 1 3.0591745804257322e+01 2.7558152829288915e+01 2.5344953543971535e+01
17842 1 1 3.1122225760527538e+01 2.7464337277892493e+01 2.6329557942042861e+01
9798 1 1 3.1042439111020286e+01 2.7440437535963209e+01 2.6183668457877353e+01