ITEM: TIMESTEP
100000000
ITEM: NUMBER OF ATOMS
6558
ITEM: BOX BOUNDS pp pp pp
0.0000000000000000e+00 5.0000000000000000e+01
0.0000000000000000e+00 5.0000000000000000e+01
0.0000000000000000e+00 5.0000000000000000e+01
ITEM: ATOMS id type xs ys zs
3919 1 0.10737 0.786751 0.434253
12639 1 0.109395 0.784951 0.435703
6299 3 0.148259 0.783984 0.430187
6300 1 0.151314 0.779942 0.436546
6298 1 0.154779 0.781148 0.425559
6497 2 0.07316 0.80334 0.424231
6498 1 0.0787417 0.796682 0.422028
16089 1 0.0808429 0.794764 0.421448
16088 3 0.0866293 0.790528 0.420157
6496 1 0.0690215 0.810616 0.426288
3920 3 0.102042 0.791831 0.431418
16087 1 0.0932881 0.791114 0.424933
3921 1 0.0958308 0.791138 0.427008
2947 1 0.137332 0.798566 0.435906
2924 2 0.0439922 0.881504 0.433702
2923 1 0.0516917 0.881371 0.433163
21417 1 0.055309 0.88166 0.433582
21416 3 0.0633352 0.881205 0.433747
21415 1 0.0677118 0.88674 0.434533
21510 1 0.0700043 0.889092 0.434912
21509 3 0.0751598 0.89502 0.434922
7072 1 0.000510405 0.928194 0.434204
8466 1 0.179924 0.923995 0.432517
3040 1 0.0813838 0.771124 0.467839
12638 2 0.115761 0.782273 0.438096
12637 1 0.122561 0.78224 0.442542
10484 3 0.131756 0.782128 0.448437
10483 1 0.125179 0.782048 0.444136
10485 1 0.137362 0.787399 0.448268
10411 1 0.15257 0.778655 0.438567
10413 1 0.158814 0.773677 0.451968
5275 1 0.160331 0.773775 0.454586
5276 2 0.163178 0.774646 0.463348
10412 2 0.15602 0.774402 0.444664
20386 1 0.12295 0.813665 0.462068
355 1 0.139897 0.789519 0.448857
356 2 0.146013 0.792517 0.45294
357 1 0.148365 0.798567 0.458936
2948 2 0.140235 0.806599 0.437734
2949 1 0.142148 0.813583 0.442364
15022 1 0.143783 0.815039 0.444109
15023 3 0.148422 0.816462 0.450484
10855 1 0.148421 0.800355 0.46147
10856 3 0.148869 0.804186 0.467632
18413 3 0.164113 0.816216 0.460076
15024 1 0.15556 0.816175 0.454355
18414 1 0.157772 0.816203 0.455828
18412 1 0.170477 0.812789 0.462789
18684 1 0.172692 0.811723 0.463765
18683 3 0.17937 0.808699 0.467984
8190 1 0.0297761 0.843357 0.465533
14464 1 0.028348 0.844029 0.468237
13730 3 0.0268524 0.822756 0.466039
8189 3 0.0336122 0.84124 0.458207
8188 1 0.0379724 0.845464 0.454209
16401 1 0.040379 0.847211 0.453502
12119 3 0.0618951 0.839492 0.465323
12118 1 0.0671222 0.839055 0.459959
5350 1 0.0686376 0.839335 0.457879
5351 3 0.0736819 0.840967 0.453079
5352 1 0.0786753 0.846703 0.452178
16481 3 0.0900944 0.821305 0.462099
13608 1 0.10843 0.836851 0.461313
9445 1 0.110968 0.838379 0.462181
13607 3 0.101283 0.833831 0.4593
9446 3 0.11748 0.841668 0.465643
16482 1 0.0943465 0.825489 0.459885
13606 1 0.0961799 0.82764 0.459298
20387 3 0.126158 0.820849 0.45914
20388 1 0.126105 0.828785 0.457936
9856 1 0.146706 0.847636 0.452897
9857 3 0.151282 0.841803 0.452408
9447 1 0.124912 0.840539 0.46737
18386 3 0.136053 0.835886 0.468315
18387 1 0.128359 0.838984 0.467983
9858 1 0.158358 0.840867 0.453577
15934 1 0.161326 0.840554 0.453567
15935 3 0.168501 0.840731 0.454423
15936 1 0.172531 0.848011 0.455776
11532 1 0.0239921 0.873064 0.458201
19669 1 0.026265 0.874109 0.456161
11531 2 0.0200383 0.868285 0.463642
16399 1 0.0508904 0.856127 0.447368
16400 2 0.0471535 0.85057 0.452144
19670 2 0.0323764 0.87604 0.451744
15814 1 0.0800317 0.849668 0.451797
15815 3 0.0825317 0.858628 0.452183
15816 1 0.0891881 0.861397 0.454435
15480 1 0.0918555 0.862568 0.455141
14539 1 0.0918861 0.876897 0.445865
15479 3 0.0999914 0.864818 0.457556
15478 1 0.106524 0.86587 0.460099
17637 1 0.109167 0.866149 0.461154
17636 3 0.116401 0.866815 0.464929
11263 1 0.12168 0.872788 0.450039
17956 1 0.144267 0.850312 0.453171
11264 2 0.129573 0.871337 0.44904
11265 1 0.133808 0.86544 0.451568
17958 1 0.135684 0.86322 0.452749
17957 3 0.13918 0.856365 0.454572
7719 1 0.174482 0.850296 0.456636
7718 3 0.179811 0.856379 0.458046
7717 1 0.183764 0.861359 0.462627
17734 1 0.185225 0.863075 0.463951
17735 3 0.188355 0.868449 0.467591
2925 1 0.039239 0.882038 0.439262
19671 1 0.0373588 0.88161 0.455373
909 1 0.0392844 0.883301 0.456633
908 3 0.0451793 0.888256 0.461423
907 1 0.0518218 0.89148 0.465124
12813 1 0.0545344 0.892901 0.467393
14540 3 0.0861659 0.881342 0.449503
14541 1 0.0821641 0.885199 0.453617
21508 1 0.0803099 0.897219 0.439648
4039 1 0.082017 0.89904 0.441716
4040 3 0.0883016 0.90289 0.446475
6284 3 0.080975 0.898111 0.468305
4041 1 0.0943788 0.898864 0.450558
5434 1 0.0963862 0.897526 0.452293
5435 3 0.101627 0.894132 0.457424
5436 1 0.100202 0.89332 0.464977
3061 1 0.10039 0.892876 0.468026
2831 3 0.147155 0.897014 0.460013
8797 1 0.138628 0.896404 0.465809
2832 1 0.141051 0.89655 0.464194
9442 1 0.170091 0.894048 0.4579
21249 1 0.172353 0.892739 0.459178
21248 3 0.178784 0.889263 0.461658
2830 1 0.154274 0.897939 0.457558
9444 1 0.15741 0.897925 0.45648
9443 3 0.16394 0.897565 0.454046
21247 1 0.185583 0.888965 0.467393
7073 2 0.00814196 0.925079 0.437612
14920 1 0.0167038 0.925328 0.44487
7074 1 0.0142342 0.9251 0.442907
14921 3 0.0231887 0.925461 0.449843
14922 1 0.0304351 0.927456 0.449382
18111 1 0.0333692 0.937074 0.465775
18110 3 0.0360173 0.929893 0.468056
17077 1 0.0503609 0.933669 0.450918
17078 2 0.0580761 0.936162 0.453479
16769 3 0.0410711 0.930427 0.449253
16770 1 0.0335302 0.928149 0.449724
16768 1 0.0475229 0.932858 0.450085
9125 3 0.0756744 0.935175 0.458706
9124 1 0.0690373 0.935157 0.455822
17079 1 0.0662692 0.935319 0.455179
9126 1 0.0820324 0.930092 0.460138
14643 1 0.0843141 0.927739 0.46049
14642 3 0.0889675 0.921945 0.46169
12171 1 0.0990155 0.919431 0.467246
14641 1 0.0960945 0.920189 0.465231
19911 1 0.152935 0.938156 0.454076
8465 2 0.176595 0.924767 0.439131
7127 3 0.160213 0.936873 0.446479
8464 1 0.177796 0.92734 0.447099
7123 1 0.179067 0.927892 0.449924
7124 2 0.18036 0.928661 0.456889
7126 1 0.154848 0.937486 0.4519
10456 1 0.189277 0.93081 0.461675
10457 3 0.195714 0.931777 0.466569
7125 1 0.186805 0.930295 0.460053
20701 1 0.0328041 0.939691 0.464367
20702 3 0.0309412 0.947092 0.460213
20703 1 0.0340346 0.950685 0.46519
15808 1 0.0357545 0.9524 0.466862
19909 1 0.144566 0.943959 0.467535
19910 2 0.147512 0.940788 0.460204
7128 1 0.163237 0.945004 0.444923
10841 2 0.0778721 0.0158192 0.490126
10840 1 0.0804861 0.0230254 0.489119
10842 1 0.0769944 0.00944252 0.494731
6184 1 0.0770153 0.00659278 0.496112
4514 3 0.0621523 0.753805 0.495106
4513 1 0.0685473 0.757226 0.492231
12005 3 0.102004 0.749301 0.499301
12006 1 0.108306 0.755137 0.498172
4701 1 0.111051 0.756358 0.497739
17546 2 0.00711212 0.774881 0.480876
7713 1 0.0302634 0.763692 0.488195
7712 2 0.0230545 0.767145 0.487859
17547 1 0.0135 0.772379 0.48383
7711 1 0.0161024 0.771112 0.485191
16396 1 0.032625 0.762795 0.488107
16397 2 0.0407998 0.761924 0.487841
14902 1 0.0496971 0.766478 0.486035
16398 1 0.0472078 0.765276 0.486233
14903 3 0.0560396 0.770281 0.484673
14904 1 0.0624172 0.773029 0.487847
19747 1 0.0646612 0.774244 0.48912
3042 1 0.0706356 0.775738 0.478676
21555 1 0.089336 0.764883 0.488793
4621 1 0.0860486 0.763866 0.488908
4622 3 0.0784809 0.76071 0.488593
4623 1 0.0711418 0.758135 0.491428
3041 3 0.0748629 0.773283 0.472284
11222 3 0.091184 0.785803 0.498097
19748 3 0.0696588 0.780145 0.491927
19749 1 0.0723126 0.785696 0.497467
4700 3 0.117743 0.75819 0.496466
21553 1 0.102062 0.769755 0.482762
21554 3 0.0972175 0.766226 0.48792
14025 1 0.10494 0.771127 0.481702
14024 3 0.112245 0.77542 0.480937
14023 1 0.114347 0.781475 0.476512
12891 1 0.114925 0.784189 0.475133
4699 1 0.12326 0.761473 0.492247
6550 1 0.124994 0.76235 0.490716
6551 3 0.130606 0.764479 0.485881
6552 1 0.133004 0.771661 0.483818
19645 1 0.134126 0.774588 0.483007
19646 3 0.134755 0.781824 0.480591
2956 1 0.147879 0.778745 0.496227
20787 1 0.147547 0.775676 0.496728
20786 3 0.147222 0.767827 0.498625
2957 3 0.148661 0.787358 0.494328
5277 1 0.165554 0.777497 0.470742
15861 1 0.165778 0.778514 0.473612
15860 2 0.16444 0.780541 0.481104
15859 1 0.168528 0.784612 0.486424
1402 1 0.169614 0.786783 0.487995
20336 2 0.0106151 0.817419 0.47433
20335 1 0.00938783 0.810736 0.477429
6228 1 0.0152142 0.796612 0.483525
6226 1 0.00906786 0.807899 0.47919
8435 2 0.0237889 0.792693 0.486356
8436 1 0.0172829 0.795532 0.484497
6227 2 0.00815768 0.800849 0.48302
3701 3 0.0530102 0.811304 0.488682
8863 1 0.0513632 0.791145 0.4772
10962 1 0.0480588 0.791187 0.477631
10961 3 0.0404393 0.789676 0.478379
10960 1 0.0338404 0.790932 0.48181
8864 3 0.0590909 0.791509 0.476675
3702 1 0.0525568 0.810684 0.495822
12529 1 0.0528913 0.810282 0.498451
8434 1 0.031075 0.791919 0.482968
3700 1 0.0479711 0.813011 0.482654
16661 3 0.0400611 0.815899 0.47546
16662 1 0.0459566 0.813493 0.480668
8865 1 0.0666877 0.792462 0.473956
14350 1 0.069644 0.792754 0.47312
14351 3 0.077682 0.793558 0.471751
14352 1 0.0844775 0.795149 0.475573
8338 1 0.0875313 0.795809 0.476738
9283 1 0.0776665 0.813363 0.488154
16731 1 0.0787684 0.813099 0.48542
9284 3 0.0736665 0.814137 0.495489
16730 3 0.0817528 0.812877 0.477984
16729 1 0.0855634 0.815739 0.471548
16480 1 0.0868899 0.817211 0.469009
12890 3 0.116312 0.790778 0.471457
11221 1 0.0934493 0.79352 0.497772
20032 1 0.0944496 0.796721 0.498037
20033 3 0.0971338 0.804537 0.498167
18268 1 0.116505 0.797509 0.479885
12889 1 0.116331 0.795777 0.477418
8339 3 0.0950137 0.796568 0.476779
8340 1 0.101778 0.802321 0.47664
20034 1 0.103027 0.810094 0.498633
4446 1 0.105362 0.812249 0.499155
18269 3 0.115736 0.801794 0.487007
12128 3 0.113886 0.788565 0.49812
18270 1 0.115256 0.797131 0.490976
12127 1 0.114606 0.794776 0.492875
3287 3 0.136029 0.800008 0.483144
3286 1 0.13325 0.807849 0.482523
15852 1 0.132616 0.810307 0.482059
19647 1 0.134552 0.789044 0.482364
3288 1 0.134789 0.792022 0.482905
10857 1 0.148768 0.811287 0.469225
15375 1 0.148763 0.814218 0.470249
2958 1 0.151328 0.794003 0.496517
589 1 0.152392 0.796448 0.497936
15851 3 0.129566 0.817508 0.48057
1403 3 0.171417 0.792769 0.492145
1404 1 0.171645 0.799139 0.491941
20805 1 0.171621 0.801832 0.491962
20804 3 0.173228 0.808984 0.49301
20803 1 0.172677 0.815182 0.498679
18682 1 0.184257 0.80875 0.473988
21226 1 0.186241 0.809438 0.475788
21228 1 0.19963 0.809688 0.481198
12345 1 0.202366 0.808525 0.481305
12344 3 0.209515 0.807033 0.480255
21227 3 0.192036 0.811361 0.480841
12343 1 0.217461 0.811318 0.483273
20511 1 0.230461 0.798872 0.495967
15631 1 0.21964 0.81312 0.484428
15632 3 0.225949 0.817485 0.487625
20337 1 0.0166268 0.81944 0.471037
13729 1 0.019092 0.820526 0.469784
14465 3 0.0240925 0.846241 0.474635
14466 1 0.017763 0.847511 0.479793
11373 1 0.0157524 0.847668 0.482195
13731 1 0.0325012 0.819581 0.46991
16660 1 0.0344216 0.818609 0.471723
12120 1 0.0561773 0.84027 0.470065
10991 3 0.040845 0.828403 0.499531
15653 3 0.0593058 0.82966 0.496492
10992 1 0.0489743 0.82829 0.497669
15654 1 0.0519632 0.828888 0.497146
14988 1 0.0537582 0.840731 0.472098
14987 3 0.0477853 0.840897 0.475362
14986 1 0.0504084 0.846299 0.481117
4888 1 0.0515084 0.848325 0.483331
15652 1 0.0648138 0.832888 0.491604
6861 1 0.0664542 0.834012 0.489544
4635 1 0.092442 0.828654 0.489961
6860 3 0.072038 0.837084 0.483993
21378 1 0.0909288 0.827875 0.493006
6859 1 0.0741535 0.842799 0.477797
7603 1 0.074676 0.845048 0.475561
21377 3 0.0875049 0.826525 0.499978
4634 3 0.0940605 0.830937 0.481266
20009 3 0.116309 0.83147 0.486027
20010 1 0.111345 0.836158 0.49144
16395 1 0.109825 0.83739 0.494113
15850 1 0.123192 0.822177 0.484412
20008 1 0.120696 0.824487 0.485559
4633 1 0.0954642 0.837872 0.47986
20680 1 0.0967329 0.840756 0.479489
15374 3 0.149538 0.822774 0.472228
15373 1 0.144663 0.828255 0.470444
18385 1 0.142504 0.830645 0.470214
15482 3 0.136121 0.837813 0.490069
15481 1 0.141766 0.831885 0.491112
15483 1 0.130045 0.842969 0.488865
5482 1 0.143563 0.829608 0.491756
17689 1 0.128008 0.844699 0.48816
5483 3 0.147565 0.823562 0.494275
534 1 0.172708 0.84631 0.479122
533 3 0.175718 0.840224 0.475078
532 1 0.183067 0.836378 0.473809
1863 1 0.171413 0.848234 0.481408
19339 1 0.204768 0.81893 0.497328
10159 1 0.185609 0.835436 0.47354
10160 3 0.193135 0.834033 0.473964
10161 1 0.195356 0.841445 0.473494
8947 1 0.196558 0.844013 0.473578
4572 1 0.203903 0.821164 0.496282
4571 3 0.202153 0.828019 0.493576
4570 1 0.198286 0.833742 0.498504
21568 1 0.225238 0.829586 0.489366
21569 3 0.222967 0.836871 0.492004
21570 1 0.217434 0.841435 0.495144
13545 1 0.21599 0.843783 0.496509
15633 1 0.225931 0.826112 0.488536
12916 1 0.00984281 0.868119 0.49199
15980 2 0.0121359 0.868281 0.481515
15979 1 0.0159915 0.86883 0.473541
11372 2 0.0122451 0.850011 0.488589
11371 1 0.0180295 0.851573 0.494037
18381 1 0.0200241 0.852513 0.495924
11530 1 0.0169892 0.868571 0.470964
15981 1 0.0105821 0.868071 0.489278
12917 2 0.00696952 0.867637 0.499047
4889 3 0.0540996 0.852813 0.487928
5965 1 0.0590285 0.871714 0.475249
19792 1 0.0604518 0.868895 0.473496
5966 3 0.0557699 0.878428 0.47872
4890 1 0.0557131 0.85762 0.495186
4353 1 0.0559347 0.859221 0.498202
19793 3 0.0647449 0.863653 0.46889
7604 3 0.0771099 0.850627 0.470316
7605 1 0.0717966 0.856079 0.471679
19794 1 0.0698146 0.857879 0.471207
6722 3 0.0774594 0.867138 0.491094
6723 1 0.0763787 0.860682 0.495678
1981 1 0.0757038 0.858346 0.497602
6721 1 0.0779471 0.874346 0.491308
18618 1 0.0922813 0.871661 0.475034
15751 1 0.0901434 0.873762 0.473989
16612 1 0.0787816 0.877469 0.4908
17635 1 0.123168 0.867126 0.46916
18617 3 0.0974701 0.866432 0.478015
18616 1 0.10038 0.858657 0.477845
20682 1 0.100622 0.856293 0.477864
20681 3 0.0998548 0.848609 0.478736
10505 3 0.116459 0.868264 0.487036
10504 1 0.115929 0.874649 0.483958
4792 1 0.11636 0.877865 0.482425
10506 1 0.118844 0.860882 0.487321
17691 1 0.119209 0.858175 0.487165
17690 3 0.121982 0.850556 0.486065
17694 1 0.125453 0.867078 0.470718
17693 3 0.132699 0.867187 0.474781
17692 1 0.132824 0.866419 0.482446
4833 1 0.133521 0.866389 0.485362
4832 3 0.135791 0.865341 0.492812
4831 1 0.133693 0.869765 0.499045
17736 1 0.184876 0.871091 0.473546
12615 1 0.182619 0.8722 0.476308
12614 3 0.176948 0.875196 0.481708
1862 3 0.170184 0.853015 0.487098
1861 1 0.168623 0.857827 0.491468
3779 3 0.164904 0.865902 0.498669
3780 1 0.167354 0.859798 0.49389
13544 3 0.21171 0.849485 0.498051
8948 3 0.201787 0.850549 0.475302
8949 1 0.199465 0.853002 0.483037
11334 1 0.198442 0.853933 0.485551
11333 3 0.193568 0.857192 0.490915
15079 1 0.203761 0.876127 0.496892
11332 1 0.190091 0.86233 0.495924
15619 1 0.188717 0.864703 0.497756
13768 1 0.205164 0.875294 0.499932
2552 3 0.228791 0.866198 0.48826
2551 1 0.231453 0.861844 0.493584
19152 1 0.232663 0.859835 0.496541
2553 1 0.225856 0.872699 0.485022
7090 1 0.224514 0.875893 0.483929
12812 3 0.0601807 0.896626 0.472496
14690 3 0.0374931 0.899516 0.49073
5967 1 0.0571979 0.881198 0.485199
21235 1 0.0358555 0.892569 0.499207
14691 1 0.0360783 0.894656 0.496902
13104 1 0.0576099 0.882924 0.487816
14689 1 0.037625 0.905784 0.486
13521 1 0.0376921 0.908579 0.48389
13103 3 0.0595459 0.886606 0.494648
15752 3 0.0849686 0.879564 0.470964
12811 1 0.0635395 0.903381 0.474509
4075 1 0.0641274 0.906538 0.475355
15753 1 0.082907 0.887636 0.469764
6285 1 0.0820596 0.890858 0.469762
16613 3 0.0795477 0.886098 0.490554
16614 1 0.0794939 0.893332 0.494357
14404 1 0.0795168 0.894928 0.495461
14405 3 0.0793663 0.900204 0.499941
6283 1 0.0839258 0.903147 0.473564
20415 1 0.0848951 0.905399 0.47552
14406 1 0.0766065 0.907361 0.499335
4793 3 0.11858 0.884237 0.478132
3062 3 0.0998234 0.892204 0.475136
3063 1 0.099693 0.891845 0.482563
10921 1 0.0999509 0.891537 0.485441
10922 3 0.101349 0.8907 0.493919
10640 3 0.120789 0.903823 0.491328
10923 1 0.105336 0.887992 0.499891
10641 1 0.11474 0.907551 0.494711
18079 1 0.112772 0.908923 0.496619
8798 3 0.132075 0.896049 0.470041
4794 1 0.125054 0.889281 0.474452
8799 1 0.127386 0.890996 0.472922
4192 1 0.128066 0.896157 0.493532
4193 3 0.134057 0.889913 0.492384
4194 1 0.140848 0.890225 0.488905
4834 1 0.143402 0.890674 0.487322
4835 3 0.149254 0.893778 0.483216
10639 1 0.126219 0.898297 0.493252
12613 1 0.175397 0.881024 0.486529
18736 1 0.174424 0.904111 0.474505
4836 1 0.156078 0.894396 0.480258
5456 3 0.165492 0.898109 0.475858
5455 1 0.171765 0.902308 0.475269
16120 1 0.174688 0.883032 0.488782
5457 1 0.158412 0.895045 0.479106
13335 1 0.177593 0.908867 0.496341
13334 3 0.184782 0.906066 0.498439
18737 3 0.181341 0.907235 0.47409
16121 3 0.173913 0.888096 0.494344
2998 1 0.187861 0.888945 0.469551
2999 3 0.193356 0.888824 0.475078
3000 1 0.197711 0.885068 0.480573
15081 1 0.198645 0.883586 0.482677
15080 3 0.201127 0.879387 0.489827
1050 1 0.212303 0.907357 0.497384
7092 1 0.221883 0.890454 0.48603
7091 2 0.221308 0.883181 0.482926
18109 1 0.0382269 0.923541 0.472055
13519 1 0.0391667 0.921011 0.474285
13520 3 0.0405035 0.915258 0.479232
1950 1 0.0536536 0.923726 0.493936
3559 1 0.0540224 0.921179 0.495564
1948 1 0.0520986 0.936822 0.486208
1949 3 0.0523583 0.92923 0.489789
4076 3 0.0647818 0.914665 0.476871
4077 1 0.0683595 0.922029 0.477452
17424 1 0.069401 0.92443 0.477884
17423 3 0.0729264 0.931369 0.480576
17422 1 0.0739478 0.939237 0.481597
15198 1 0.0757356 0.910192 0.49915
15197 3 0.0740194 0.917771 0.497218
20414 3 0.0879261 0.912011 0.481068
16137 1 0.0920437 0.918739 0.486863
20413 1 0.0908824 0.916768 0.485405
15196 1 0.075111 0.926219 0.497921
12798 1 0.0760098 0.928991 0.498561
12169 1 0.106294 0.915342 0.478494
12170 3 0.105974 0.917713 0.470781
16136 3 0.096709 0.925505 0.490161
16135 1 0.10547 0.927012 0.488853
2247 1 0.108318 0.92754 0.488335
2246 3 0.116488 0.929298 0.486981
2245 1 0.123789 0.926873 0.484832
2016 1 0.126491 0.926131 0.484433
2015 3 0.133886 0.923452 0.482726
2014 1 0.141079 0.920376 0.486715
2404 1 0.143542 0.919217 0.488001
2405 3 0.149179 0.914536 0.490221
20493 1 0.174798 0.91003 0.495243
20492 3 0.167676 0.912595 0.493244
18738 1 0.183343 0.913731 0.478736
20967 1 0.184245 0.915996 0.479897
20491 1 0.160133 0.914265 0.492451
2406 1 0.157 0.914906 0.49214
20965 1 0.183706 0.927027 0.490025
11740 1 0.183357 0.929117 0.492548
11741 3 0.182296 0.933355 0.499149
9554 3 0.205148 0.914129 0.492828
9555 1 0.210086 0.909482 0.49609
20966 3 0.186418 0.922419 0.484598
10458 1 0.201881 0.929583 0.471673
6649 1 0.204155 0.928887 0.473592
6651 1 0.207403 0.921138 0.485179
9553 1 0.20666 0.919453 0.487157
6650 2 0.209653 0.92585 0.479217
12191 2 0.239843 0.938711 0.49044
13920 1 0.0512581 0.940045 0.484997
13919 3 0.0503769 0.946275 0.482138
15809 2 0.0414859 0.956913 0.471703
15810 1 0.0449559 0.952631 0.476566
13918 1 0.0463925 0.95105 0.478065
17425 1 0.0561798 0.962305 0.496423
6136 1 0.0546772 0.959808 0.498494
17426 3 0.060105 0.968181 0.491534
10362 1 0.0744319 0.942372 0.482352
10361 3 0.0757762 0.948924 0.484074
10360 1 0.0779486 0.95522 0.488073
12313 1 0.0790662 0.957396 0.490414
12314 3 0.0800282 0.963788 0.496387
16479 1 0.143774 0.94443 0.470287
16478 2 0.142029 0.947092 0.47782
16477 1 0.142157 0.946429 0.485653
11541 1 0.142012 0.945292 0.488952
11540 3 0.142566 0.943086 0.496172
12192 1 0.246114 0.942353 0.48941
16045 1 0.230228 0.943835 0.492085
12190 1 0.232881 0.942496 0.491284
16046 3 0.224495 0.948547 0.494955
21261 1 0.259588 0.955039 0.488903
18318 1 0.260648 0.957616 0.489426
21259 1 0.248272 0.943873 0.488696
21260 2 0.255552 0.947181 0.486811
18317 3 0.262732 0.965527 0.490667
17427 1 0.0632541 0.973466 0.487917
11007 1 0.0709793 0.985277 0.475835
11006 2 0.0699657 0.980107 0.482127
11005 1 0.0650029 0.97507 0.486485
13872 1 0.135136 0.978277 0.498892
18316 1 0.258597 0.971039 0.494817
1581 1 0.0503657 0.714457 0.527966
18732 1 0.0487199 0.714029 0.52934
1580 3 0.0561909 0.717607 0.522609
1579 1 0.0608008 0.724639 0.523761
3889 1 0.0623088 0.726823 0.523437
5046 1 0.000944194 0.751063 0.514298
5045 2 0.00439492 0.745358 0.519705
16163 2 0.0418112 0.742245 0.523238
16164 1 0.0465371 0.744978 0.518835
4515 1 0.0597288 0.751502 0.502177
12726 1 0.0585675 0.750119 0.504535
12724 1 0.0492946 0.746268 0.516586
12725 3 0.0549402 0.747574 0.510379
16162 1 0.0375161 0.74315 0.530797
3890 3 0.066733 0.732886 0.521435
3891 1 0.0728586 0.735212 0.526837
20882 3 0.0901253 0.756045 0.516305
20031 1 0.0661711 0.754618 0.526223
18430 1 0.0742841 0.736484 0.528504
11637 1 0.0638562 0.75342 0.528129
12004 1 0.0956655 0.748501 0.504363
20881 1 0.0935007 0.748391 0.518389
286 1 0.0942911 0.745971 0.519026
287 3 0.0955045 0.738872 0.519673
288 1 0.101259 0.73557 0.515935
19039 1 0.104087 0.734963 0.514798
19040 2 0.111794 0.733288 0.510728
19041 1 0.11845 0.737552 0.511357
3541 1 0.1129 0.756449 0.527014
12327 1 0.120709 0.739251 0.511644
12326 3 0.127068 0.74424 0.514048
12325 1 0.132031 0.749403 0.514132
2133 1 0.133748 0.751697 0.513339
7109 3 0.148558 0.734568 0.515673
7110 1 0.142865 0.728051 0.514693
2132 3 0.139002 0.756918 0.510895
14059 1 0.144586 0.73886 0.525418
7108 1 0.14538 0.737964 0.52284
8585 2 0.000391518 0.765983 0.529554
11351 2 0.0186363 0.767328 0.522301
11352 1 0.0112771 0.765023 0.524904
8584 1 0.00839076 0.765031 0.526571
11350 1 0.0234616 0.772053 0.527704
21120 1 0.0247515 0.773706 0.529723
11223 1 0.0895166 0.7795 0.502562
1963 1 0.0879868 0.777014 0.503398
20883 1 0.0873578 0.762385 0.512399
1965 1 0.0862435 0.764839 0.511409
1964 3 0.0852108 0.771024 0.507343
20030 3 0.0711796 0.758108 0.522358
20029 1 0.0759298 0.76293 0.525563
6270 1 0.0776621 0.765048 0.526616
6268 1 0.0836483 0.778508 0.526594
5479 1 0.0839793 0.781192 0.525322
6269 3 0.0829736 0.770398 0.528745
19063 1 0.112822 0.75767 0.52476
19064 3 0.112166 0.761428 0.51764
6949 1 0.109145 0.781357 0.505721
12129 1 0.110233 0.783319 0.503321
6950 3 0.105977 0.776872 0.511752
6951 1 0.108336 0.771454 0.515274
19065 1 0.109331 0.76854 0.516353
2131 1 0.143078 0.760479 0.505404
20785 1 0.144242 0.762401 0.503125
14039 3 0.130575 0.776081 0.509231
4964 3 0.127176 0.76931 0.526978
4965 1 0.129341 0.772359 0.518983
14040 1 0.12995 0.77361 0.516098
17684 3 0.151663 0.764251 0.52978
14038 1 0.13042 0.778426 0.500985
17685 1 0.15454 0.76736 0.522823
14001 1 0.155276 0.768684 0.521
14000 3 0.157887 0.773994 0.515847
13999 1 0.164481 0.777949 0.513979
7314 1 0.167236 0.779601 0.514021
19852 1 0.181778 0.761246 0.518205
2893 1 0.182699 0.761453 0.514995
19853 3 0.179051 0.759478 0.525863
7312 1 0.181943 0.782394 0.518688
1617 1 0.184171 0.782324 0.520116
7313 3 0.175715 0.782261 0.514435
9223 1 0.202856 0.782817 0.507238
6615 1 0.203158 0.786491 0.507249
6030 1 0.212765 0.775839 0.524135
2894 3 0.185183 0.764157 0.507101
9224 3 0.201187 0.77476 0.50698
9225 1 0.194201 0.769983 0.507621
2895 1 0.191874 0.768617 0.507174
1616 3 0.191258 0.782603 0.524058
1615 1 0.196949 0.781575 0.530194
6029 3 0.220768 0.774321 0.526454
6028 1 0.228233 0.772251 0.529038
7870 1 0.230599 0.771131 0.530074
7151 2 0.0221444 0.793302 0.514248
7150 1 0.0301479 0.791846 0.512868
9215 2 0.0037293 0.795301 0.521493
7152 1 0.0140819 0.794576 0.51624
9216 1 0.0116588 0.795223 0.517267
9072 1 0.0300175 0.815863 0.520085
9071 2 0.022579 0.816177 0.521564
195 1 0.000560271 0.806392 0.520341
9214 1 0.00136588 0.803557 0.520572
19963 1 0.0221922 0.799895 0.529482
9078 1 0.0337472 0.791825 0.512699
19054 1 0.0334535 0.815441 0.519643
12530 3 0.0536925 0.809331 0.505338
12531 1 0.0480474 0.810275 0.511105
19056 1 0.0459688 0.810659 0.513243
9077 2 0.0414224 0.792174 0.513643
9076 1 0.0484218 0.793891 0.515779
17254 1 0.0503748 0.794837 0.517437
17255 3 0.0573443 0.796655 0.521977
17256 1 0.0614909 0.800796 0.52657
19055 3 0.040802 0.812475 0.518014
14878 1 0.0633368 0.802211 0.527832
5481 1 0.0816194 0.794417 0.517031
5480 3 0.084562 0.788491 0.521459
9285 1 0.074387 0.807669 0.501238
19447 1 0.0749005 0.805866 0.503125
19448 3 0.0760834 0.800715 0.509583
19449 1 0.0804887 0.796327 0.514911
21597 1 0.0946222 0.815243 0.524542
20472 1 0.0945263 0.816751 0.522128
4445 3 0.111161 0.817292 0.500632
4444 1 0.11957 0.817633 0.501997
3813 1 0.122399 0.817251 0.502323
16734 1 0.117884 0.800375 0.520931
16732 1 0.115042 0.813401 0.517626
16733 3 0.114745 0.805949 0.517349
7681 1 0.119378 0.798079 0.5226
4896 1 0.115039 0.816882 0.518077
3812 3 0.12939 0.814951 0.501656
3811 1 0.130478 0.807435 0.504455
14545 1 0.131346 0.804505 0.505378
14546 3 0.132701 0.796565 0.507805
14547 1 0.137368 0.793016 0.513849
3586 1 0.13939 0.792135 0.515608
3587 3 0.14593 0.789267 0.520198
3588 1 0.151924 0.790258 0.525802
1534 1 0.147134 0.815067 0.518393
12336 1 0.146457 0.813924 0.52093
12335 3 0.144475 0.812153 0.528817
7682 3 0.124713 0.792809 0.526773
590 3 0.15486 0.800678 0.503599
2544 1 0.172177 0.817985 0.500351
18469 1 0.15471 0.789694 0.527431
591 1 0.16102 0.803713 0.509022
19503 1 0.163178 0.804374 0.510568
19502 3 0.16907 0.805006 0.515974
19501 1 0.175289 0.806079 0.513485
7014 1 0.178495 0.806112 0.51247
6614 3 0.204703 0.794973 0.505885
6613 1 0.205109 0.801077 0.50348
19340 3 0.20697 0.811879 0.501607
7013 3 0.186551 0.805998 0.511752
7012 1 0.189687 0.811418 0.514568
19341 1 0.205529 0.803569 0.502634
6222 1 0.202584 0.805099 0.528001
6221 3 0.210158 0.806789 0.525937
18540 1 0.191691 0.814249 0.515658
6220 1 0.214363 0.800651 0.523814
8775 1 0.199593 0.803967 0.528933
20510 3 0.234925 0.796766 0.503407
20509 1 0.235246 0.790486 0.509032
19356 1 0.231468 0.790441 0.523553
14622 1 0.229244 0.791293 0.522717
14620 1 0.216171 0.798635 0.522783
14621 3 0.221859 0.793843 0.521181
903 1 0.233322 0.810506 0.522936
902 3 0.227457 0.814494 0.520061
19355 3 0.239247 0.787902 0.525561
10130 2 0.00346003 0.823296 0.500783
10131 1 0.0110405 0.824289 0.500639
11874 1 0.0139413 0.824868 0.500101
11873 2 0.0219649 0.827392 0.500544
11872 1 0.0294541 0.827227 0.500411
9070 1 0.0175214 0.819699 0.526684
7399 1 0.0158286 0.82137 0.528718
13287 1 0.00902088 0.836676 0.515254
16567 1 0.0125425 0.836991 0.514902
16568 2 0.0199958 0.838539 0.515966
16569 1 0.0285125 0.839515 0.517683
13286 2 0.00180165 0.836801 0.518037
10990 1 0.03308 0.827495 0.500285
6702 1 0.0535921 0.82352 0.528791
17286 1 0.0558076 0.823574 0.526941
10016 3 0.0397942 0.83863 0.521055
10015 1 0.0464118 0.841564 0.523819
18573 1 0.0489988 0.842493 0.52491
10017 1 0.0315679 0.83989 0.518924
18572 3 0.0557526 0.84411 0.5282
17285 3 0.0623013 0.823998 0.521384
17284 1 0.0634811 0.830494 0.516665
13531 1 0.064373 0.832747 0.5152
13532 3 0.068985 0.838016 0.51253
9341 3 0.0839779 0.833036 0.527478
9342 1 0.0890752 0.836288 0.522167
8299 1 0.0922509 0.837743 0.52065
21376 1 0.0911798 0.823847 0.506489
20470 1 0.0923592 0.82295 0.508734
13533 1 0.0706581 0.843945 0.50732
1983 1 0.0715265 0.84589 0.505269
20471 3 0.0947546 0.820208 0.515074
16394 3 0.104993 0.838893 0.500373
4895 3 0.114927 0.82476 0.519301
4894 1 0.119228 0.829184 0.515288
16393 1 0.103284 0.841185 0.507496
9058 1 0.120787 0.830824 0.513414
8300 3 0.0989708 0.842323 0.51678
8301 1 0.10272 0.841656 0.509939
10121 3 0.119241 0.844223 0.52633
1535 3 0.149109 0.818948 0.511851
1536 1 0.149304 0.821406 0.503595
5484 1 0.14976 0.822225 0.501011
9060 1 0.131627 0.839601 0.507253
820 1 0.13397 0.840946 0.507198
13984 1 0.152943 0.842098 0.510148
822 1 0.149799 0.842977 0.509385
9059 3 0.125172 0.835083 0.508219
3095 3 0.136055 0.83277 0.528241
821 3 0.141076 0.845103 0.507889
3096 1 0.131553 0.825093 0.530931
3094 1 0.138955 0.838894 0.529392
1986 1 0.140129 0.841707 0.529543
21041 3 0.161371 0.827124 0.528049
2543 3 0.171252 0.824121 0.505315
13986 1 0.16447 0.833688 0.509608
13985 3 0.160103 0.840001 0.510712
2542 1 0.166537 0.831333 0.508423
18609 1 0.179726 0.845163 0.524782
1390 1 0.180626 0.842567 0.525611
21040 1 0.158551 0.829541 0.521194
1391 3 0.183851 0.836981 0.527513
18539 3 0.196806 0.82049 0.517607
18538 1 0.201403 0.823481 0.522665
15109 1 0.197153 0.835105 0.500567
15111 1 0.196712 0.847323 0.511505
15110 3 0.194882 0.839843 0.507752
11866 1 0.203247 0.824879 0.524491
11867 3 0.20846 0.828088 0.530256
15582 1 0.221456 0.830404 0.503413
15581 3 0.21766 0.828033 0.510051
20204 3 0.243314 0.838945 0.512225
20203 1 0.244617 0.83694 0.519656
20205 1 0.240614 0.845305 0.506875
19150 1 0.239444 0.847618 0.505293
901 1 0.223909 0.820781 0.516618
15580 1 0.222079 0.822499 0.514806
13482 1 0.222831 0.846287 0.522242
13481 3 0.224892 0.842087 0.527445
7900 1 0.221688 0.847499 0.520625
18380 2 0.0254205 0.854726 0.501078
18379 1 0.0301261 0.857211 0.506649
2076 1 0.0136494 0.856344 0.528981
7048 1 0.0125233 0.857847 0.526384
7050 1 0.00873673 0.864279 0.510985
7049 2 0.0101162 0.862998 0.518609
12918 1 0.00837645 0.865082 0.507855
20224 1 0.0320328 0.858234 0.508273
8148 1 0.0403625 0.860141 0.524194
20226 1 0.0401938 0.860949 0.521156
4352 3 0.0575099 0.863072 0.505601
20225 3 0.0376248 0.86238 0.514132
4351 1 0.0623548 0.862601 0.511841
13075 1 0.0642339 0.862023 0.514372
1982 3 0.0752223 0.851079 0.500347
13076 3 0.0689404 0.862182 0.521254
13214 3 0.0905975 0.872514 0.505803
13077 1 0.0726105 0.858011 0.527117
17269 1 0.0736346 0.856578 0.528982
10122 1 0.119988 0.848867 0.519617
20130 1 0.1193 0.850877 0.517291
13215 1 0.09587 0.866915 0.503015
1713 1 0.098525 0.864793 0.502083
1712 3 0.104246 0.860685 0.500774
1711 1 0.110381 0.858708 0.505808
20129 3 0.118125 0.855809 0.51157
20128 1 0.112347 0.85806 0.507634
13591 1 0.101424 0.862953 0.525986
2521 1 0.102801 0.865231 0.523902
2522 2 0.107105 0.870947 0.519544
2523 1 0.109828 0.877389 0.514526
13592 3 0.0981781 0.858513 0.530574
13635 1 0.13917 0.864755 0.521387
13634 3 0.14578 0.863497 0.517475
20794 1 0.132684 0.871607 0.501482
20795 3 0.129524 0.874684 0.507564
20049 1 0.136727 0.865428 0.523159
13633 1 0.153611 0.866003 0.518823
8516 3 0.151365 0.878688 0.503193
1985 3 0.142823 0.848924 0.531165
20048 3 0.130262 0.86695 0.52721
18608 3 0.178255 0.852888 0.522096
3778 1 0.158487 0.871375 0.50149
8515 1 0.156327 0.873128 0.502239
211 1 0.156312 0.866023 0.519603
213 1 0.170713 0.861253 0.521291
212 3 0.164007 0.865998 0.5211
18607 1 0.172944 0.858856 0.521487
9727 1 0.183757 0.875303 0.51333
15621 1 0.18442 0.874196 0.510422
7054 1 0.197364 0.850019 0.513242
13543 1 0.215131 0.850175 0.505225
7055 3 0.197738 0.857059 0.515774