ITEM: TIMESTEP
100000000
ITEM: NUMBER OF ENTRIES
3259
ITEM: BOX BOUNDS pp pp pp
0 50
0 50
0 50
ITEM: ENTRIES c_binfo[1] c_binfo[2] c_binfo[3] 
3 15737 15738 
1 10236 15736 
3 15736 15737 
3 10235 10236 
3 10676 10677 
3 20671 20672 
1 20671 21462 
3 20672 20673 
3 10675 10676 
1 10675 13429 
3 10234 10235 
1 10234 19378 
2 19378 19379 
2 19379 19380 
1 19380 20673 
2 2804 2805 
2 16106 16107 
2 16105 16106 
1 2805 16105 
2 2803 2804 
1 2803 17614 
2 17614 17615 
2 17615 17616 
2 17038 17039 
1 17038 17616 
1 945 11898 
2 11897 11898 
2 11896 11897 
1 11896 16653 
3 16652 16653 
2 944 945 
2 15370 15371 
2 943 944 
1 943 15370 
3 14960 14961 
3 14959 14960 
1 14961 19662 
2 19661 19662 
2 17963 17964 
2 2258 2259 
2 13430 13431 
1 3639 13431 
2 3638 3639 
2 3637 3638 
1 3637 13596 
2 21461 21462 
2 20236 20237 
1 20236 21460 
2 21460 21461 
2 20237 20238 
1 13470 20238 
2 16052 16053 
2 13429 13430 
2 15761 15762 
1 10452 15762 
2 10451 10452 
2 10450 10451 
1 10450 16051 
2 16051 16052 
2 15760 15761 
2 5909 5910 
1 5910 16107 
2 5908 5909 
1 3360 5908 
2 10642 10643 
1 7728 10642 
2 10643 10644 
1 10644 16053 
2 8491 8492 
1 8491 9753 
2 9752 9753 
2 8492 8493 
2 17039 17040 
2 6251 6252 
2 17812 17813 
2 6250 6251 
1 6250 17812 
2 17813 17814 
2 7726 7727 
1 7726 17814 
2 7727 7728 
3 16651 16652 
2 883 884 
1 883 16651 
2 884 885 
1 885 13015 
2 13015 13016 
3 4747 4748 
1 4747 15372 
2 15371 15372 
3 4748 4749 
1 4749 21201 
3 21200 21201 
2 18722 18723 
2 18721 18722 
1 10416 21129 
3 21128 21129 
2 7361 7362 
1 7362 11094 
2 7360 7361 
1 7360 13924 
2 8243 8244 
2 8242 8243 
1 8242 15342 
2 15341 15342 
1 8244 11652 
1 16722 18721 
2 15340 15341 
2 12748 12749 
1 12748 15340 
2 16721 16722 
3 13924 13925 
3 13925 13926 
1 3159 13926 
2 3158 3159 
1 1596 17983 
2 17983 17984 
2 17962 17963 
2 1594 1595 
1 1594 17962 
2 1595 1596 
2 16229 16230 
1 14517 16230 
2 17984 17985 
2 2257 2258 
1 2257 12750 
2 12749 12750 
2 13595 13596 
1 2913 13594 
2 13594 13595 
2 2303 2304 
1 2304 14871 
2 10426 10427 
1 10426 15760 
2 2912 2913 
2 14870 14871 
2 2302 2303 
1 2302 10086 
2 19660 19661 
2 583 584 
1 583 19660 
2 584 585 
1 585 16402 
3 16402 16403 
2 16876 16877 
2 3157 3158 
1 3157 16878 
2 16877 16878 
2 1027 1028 
1 1027 14515 
2 14515 14516 
2 1028 1029 
2 14516 14517 
1 1029 13977 
2 13976 13977 
2 13469 13470 
2 16228 16229 
1 16228 16263 
1 10113 17964 
2 10112 10113 
2 10111 10112 
1 555 10111 
2 554 555 
2 553 554 
1 553 682 
2 13468 13469 
2 124 125 
1 124 13468 
2 125 126 
2 16765 16766 
1 16765 18285 
2 7702 7703 
2 16261 16262 
2 16262 16263 
2 10720 10721 
2 10721 10722 
1 10722 16261 
2 14815 14816 
2 14816 14817 
1 14817 16767 
2 2911 2912 
1 2911 7702 
2 2515 2516 
1 126 2515 
2 16766 16767 
2 18464 18465 
2 13975 13976 
1 13975 18465 
2 18463 18464 
2 17407 17408 
1 17407 18463 
2 17338 17339 
1 17338 20928 
2 20927 20928 
2 3359 3360 
2 3358 3359 
1 3358 20508 
2 20507 20508 
1 5874 20506 
2 20506 20507 
2 5873 5874 
1 6396 15399 
2 5872 5873 
1 5872 8524 
2 8524 8525 
2 18938 18939 
2 6394 6395 
1 6394 18939 
2 6395 6396 
2 18937 18938 
1 18937 19188 
2 17339 17340 
1 6606 17340 
2 6605 6606 
2 9011 9012 
1 6177 9012 
2 6604 6605 
1 6252 6604 
2 6176 6177 
2 6175 6176 
1 6175 17968 
2 17968 17969 
2 17969 17970 
1 14043 17970 
2 21563 21564 
2 8525 8526 
2 16138 16139 
1 8526 16138 
2 16139 16140 
2 13016 13017 
2 21562 21563 
1 13017 18814 
2 18814 18815 
2 18815 18816 
2 7664 7665 
1 16140 20940 
1 5988 21318 
3 21317 21318 
3 5986 5987 
1 5986 12909 
3 5987 5988 
2 12908 12909 
2 12907 12908 
1 12907 21564 
1 14130 16093 
3 16093 16094 
3 16094 16095 
2 7663 7664 
1 7663 14128 
2 14129 14130 
2 14128 14129 
3 21199 21200 
3 5968 5969 
2 10537 10538 
2 10538 10539 
3 176 177 
1 177 10537 
2 11650 11651 
1 7944 11650 
2 11651 11652 
3 175 176 
1 175 3618 
2 3617 3618 
2 14012 14013 
2 7942 7943 
1 7942 10414 
2 10414 10415 
2 10415 10416 
2 7943 7944 
2 14011 14012 
1 4866 14011 
1 2997 16371 
2 2996 2997 
2 2995 2996 
1 2995 11092 
2 11092 11093 
2 11093 11094 
2 3386 3387 
2 21152 21153 
1 915 21153 
2 21151 21152 
2 4318 4319 
1 4318 21151 
2 19574 19575 
1 10050 15192 
2 4319 4320 
2 10085 10086 
2 10084 10085 
1 10084 12295 
2 12295 12296 
2 10048 10049 
1 4320 10048 
2 10049 10050 
2 12296 12297 
1 7317 9699 
2 9697 9698 
2 9698 9699 
2 17867 17868 
2 6520 6521 
1 6520 17868 
2 17866 17867 
2 16813 16814 
1 16813 17985 
2 16814 16815 
2 4399 4400 
1 4399 16815 
2 4400 4401 
1 4401 10905 
2 13447 13448 
1 13447 19116 
2 13448 13449 
2 20828 20829 
2 9787 9788 
1 9787 13449 
2 9788 9789 
2 14869 14870 
1 14869 19573 
2 19573 19574 
1 5631 9640 
3 5630 5631 
3 16403 16404 
1 9642 16404 
2 9641 9642 
2 9640 9641 
3 5629 5630 
1 5629 20871 
2 20869 20870 
2 20870 20871 
1 18177 20869 
2 18176 18177 
2 6521 6522 
1 1413 2931 
2 1411 1412 
1 1411 18175 
2 1412 1413 
2 18175 18176 
2 682 683 
2 2930 2931 
2 2929 2930 
1 2929 3922 
2 683 684 
2 3922 3923 
2 3923 3924 
1 684 17070 
2 11390 11391 
1 3924 6235 
2 6235 6236 
2 17069 17070 
1 2517 14815 
2 6817 6818 
1 6817 9789 
2 6818 6819 
2 4726 4727 
1 4726 6819 
2 4727 4728 
2 15239 15240 
2 17408 17409 
2 15238 15239 
1 15238 17409 
2 9610 9611 
1 6576 9610 
1 11973 15240 
2 20926 20927 
2 3100 3101 
1 3100 20926 
2 3101 3102 
1 3102 20947 
2 20947 20948 
2 20948 20949 
2 6574 6575 
1 6574 20949 
2 6575 6576 
2 10604 10605 
1 10605 11707 
2 11707 11708 
2 10603 10604 
1 10603 15397 
2 15397 15398 
2 15398 15399 
2 3737 3738 
2 2516 2517 
2 12457 12458 
1 12457 14041 
2 17068 17069 
1 4728 5118 
2 3736 3737 
1 3736 12459 
2 5117 5118 
2 5116 5117 
1 5116 16935 
2 12458 12459 
2 8360 8361 
2 1072 1073 
1 1072 17224 
2 1073 1074 
1 1074 9420 
2 9419 9420 
2 9418 9419 
1 8361 9418 
1 8607 9010 
2 9010 9011 
2 8606 8607 
2 17224 17225 
2 13972 13973 
1 13972 17679 
2 17225 17226 
1 873 17226 
2 872 873 
2 871 872 
2 13973 13974 
2 19373 19374 
1 117 871 
2 14417 14418 
2 116 117 
2 115 116 
1 115 16716 
2 16715 16716 
2 14416 14417 
1 14416 20217 
2 20216 20217 
2 20207 20208 
2 20206 20207 
2 14065 14066 
1 14065 20206 
2 14041 14042 
2 14042 14043 
2 16714 16715 
2 10447 10448 
1 10447 16714 
2 10448 10449 
1 7665 14067 
1 10449 20811 
2 14066 14067 
2 8605 8606 
1 8605 10564 
2 8359 8360 
1 8359 21502 
2 21502 21503 
2 21503 21504 
1 10566 21504 
2 10564 10565 
2 10565 10566 
1 13974 14418 
3 21316 21317 
2 7642 7643 
1 7642 21316 
2 7643 7644 
1 7644 10342 
2 10342 10343 
2 20215 20216 
2 19183 19184 
1 19183 20215 
2 19184 19185 
2 5005 5006 
1 5005 19185 
2 5006 5007 
2 17719 17720 
2 9520 9521 
1 9520 17719 
2 9521 9522 
1 681 5970 
3 5969 5970 
2 17720 17721 
3 679 680 
1 679 17721 
3 680 681 
3 1282 1283 
1 1282 17496 
2 17495 17496 
2 13735 13736 
2 13736 13737 
1 1284 13737 
3 1283 1284 
2 17230 17231 
1 17230 18325 
2 8888 8889 
2 8887 8888 
1 8887 15039 
1 8889 16392 
3 16391 16392 
2 17417 17418 
2 7156 7157 
2 2626 2627 
1 2626 18327 
2 18326 18327 
2 18325 18326 
2 6892 6893 
1 6894 19032 
2 19031 19032 
2 6893 6894 
2 2627 2628 
2 3616 3617 
1 3616 19030 
2 19030 19031 
2 21560 21561 
2 19654 19655 
1 19654 21561 
2 20222 20223 
2 20221 20222 
2 9433 9434 
1 9433 19656 
2 9434 9435 
2 19655 19656 
1 9435 20221 
2 15038 15039 
2 15037 15038 
1 15037 20013 
2 20012 20013 
2 20011 20012 
3 13492 13493 
3 13493 13494 
2 7462 7463 
1 7462 13492 
3 6845 6846 
3 6844 6845 
2 4327 4328 
1 4327 6844 
2 4328 4329 
1 6846 16774 
3 16774 16775 
2 3385 3386 
1 3385 4329 
2 16370 16371 
2 2491 2492 
1 2491 2628 
2 2492 2493 
1 2493 17346 
2 16369 16370 
1 14391 16369 
2 14390 14391 
2 914 915 
2 913 914 
2 322 323 
1 322 913 
2 14389 14390 
2 21559 21560 
1 17844 21559 
2 17843 17844 
2 17842 17843 
1 9798 17842 
2 323 324 
1 324 18049 
2 14492 14493 
1 12297 14491 
2 14491 14492 
1 14493 16806 
2 16804 16805 
1 16804 18018 
2 16805 16806 
3 16775 16776 
2 7316 7317 
2 7315 7316 
2 6212 6213 
1 6213 7315 
2 6211 6212 
1 6211 19365 
2 17345 17346 
2 17344 17345 
2 8473 8474 
1 8473 17344 
2 8474 8475 
1 8475 13705 
2 13705 13706 
2 19115 19116 
2 9797 9798 
2 13706 13707 
2 9796 9797 
1 9796 19114 
2 19114 19115 
1 12411 13504 
1 5589 13707 
2 13504 13505 
2 9992 9993 
1 9993 20004 
2 20002 20003 
1 20002 20829 
2 20003 20004 
2 13505 13506 
1 9903 13506 
2 9902 9903 
1 2934 10087 
3 10087 10088 
2 2933 2934 
1 1056 15229 
3 15229 15230 
3 15230 15231 
2 2932 2933 
1 2932 3175 
3 3175 3176 
2 19969 19970 
3 16456 16457 
1 16456 19969 
2 1055 1056 
2 1054 1055 
1 1054 13362 
2 13361 13362 
2 13360 13361 
1 5214 13360 
2 19970 19971 
1 10497 19971 
2 10496 10497 
1 6522 10495 
2 10495 10496 
1 15042 20556 
2 16483 16484 
1 11391 16483 
2 5212 5213 
1 5212 16485 
2 15041 15042 
2 16484 16485 
2 11389 11390 
2 10904 10905 
2 10903 10904 
1 10903 19701 
2 12410 12411 
2 7504 7505 
1 7504 11389 
2 12409 12410 
1 7506 12409 
2 7505 7506 
2 19700 19701 
2 19699 19700 
2 16957 16958 
1 16957 19699 
2 9901 9902 
1 9901 15322 
2 15727 15728 
2 6236 6237 
2 9991 9992 
1 6237 9991 
2 15728 15729 
1 5340 15729 
2 5339 5340 
2 5338 5339 
1 861 5338 
2 9611 9612 
2 11972 11973 
2 11971 11972 
1 11971 16924 
2 16924 16925 
2 16925 16926 
2 16366 16367 
1 16366 16926 
2 16367 16368 
2 5213 5214 
1 7995 16368 
2 7994 7995 
2 7993 7994 
1 7993 14340 
2 15040 15041 
2 9898 9899 
1 9898 15040 
1 10062 14919 
2 10061 10062 
2 11708 11709 
2 9899 9900 
2 14917 14918 
1 9900 14917 
2 14918 14919 
2 4510 4511 
1 4510 11709 
1 954 4512 
2 4511 4512 
2 3266 3267 
1 1854 17068 
2 1853 1854 
2 1852 1853 
1 1852 12517 
2 12517 12518 
2 12518 12519 
1 3267 16933 
2 953 954 
2 16934 16935 
2 952 953 
1 952 19182 
2 16933 16934 
2 10891 10892 
1 10891 12519 
1 11403 12099 
2 11402 11403 
2 11401 11402 
1 11401 17179 
2 17179 17180 
2 17180 17181 
1 17181 17677 
2 17677 17678 
2 7946 7947 
2 7945 7946 
1 7945 14064 
1 7947 9612 
2 21536 21537 
2 17678 17679 
2 14063 14064 
2 2048 2049 
2 19372 19373 
1 2049 19372 
2 2047 2048 
1 2047 10243 
2 10243 10244 
2 20380 20381 
2 10060 10061 
2 2023 2024 
1 2023 10060 
2 20381 20382 
1 2025 16603 
2 16603 16604 
2 2024 2025 
2 16604 16605 
2 6313 6314 
1 6313 20382 
2 6314 6315 
1 6315 10201 
2 10201 10202 
1 4116 16605 
2 13580 13581 
2 15386 15387 
2 13579 13580 
2 7424 7425 
2 12307 12308 
1 12307 17239 
2 17239 17240 
2 12308 12309 
1 12309 21537 
2 17240 17241 
2 10244 10245 
1 10245 18390 
2 18389 18390 
2 18388 18389 
1 10344 17241 
2 10343 10344 
1 12087 18388 
1 10203 11289 
2 10202 10203 
2 11288 11289 
2 11287 11288 
1 11287 21291 
2 13294 13295 
1 13294 13540 
2 20810 20811 
2 15385 15386 
2 13888 13889 
1 13888 15385 
2 20809 20810 
1 13296 20809 
2 13295 13296 
2 1312 1313 
1 1312 15387 
2 1313 1314 
1 1314 20412 
1 2064 8668 
3 8668 8669 
3 8669 8670 
2 12086 12087 
2 12085 12086 
2 9355 9356 
1 9355 12085 
2 9356 9357 
2 4064 4065 
1 11298 20197 
1 5007 12510 
2 12509 12510 
2 12508 12509 
1 12508 20199 
2 20197 20198 
2 20198 20199 
1 828 4065 
2 12833 12834 
1 8670 12834 
2 17494 17495 
2 12832 12833 
1 12832 17494 
2 12163 12164 
2 12164 12165 
3 2749 2750 
1 2749 12163 
1 12165 17232 
3 2750 2751 
2 17231 17232 
2 11768 11769 
1 8913 11767 
2 11767 11768 
3 8912 8913 
3 11330 11331 
1 11331 18802 
3 11329 11330 
1 11329 16390 
3 16390 16391 
3 18802 18803 
3 18803 18804 
2 17416 17417 
3 15701 15702 
3 15700 15701 
1 1554 15700 
2 7157 7158 
3 1552 1553 
1 1552 7158 
3 1553 1554 
2 100 101 
1 100 19687 
3 19687 19688 
3 19688 19689 
2 101 102 
1 102 2545 
2 2545 2546 
1 2547 6892 
2 2546 2547 
2 6317 6318 
2 6316 6317 
1 6316 9490 
2 11962 11963 
1 11962 16060 
2 9490 9491 
2 9491 9492 
2 11963 11964 
1 9492 11964 
2 18296 18297 
2 16060 16061 
1 2613 2835 
2 2612 2613 
1 13713 18297 
1 7464 17871 
2 7463 7464 
3 17870 17871 
2 18857 18858 
2 18856 18857 
1 7302 18856 
3 17869 17870 
2 8288 8289 
2 8246 8247 
2 8287 8288 
1 8287 14238 
2 14237 14238 
2 14236 14237 
1 8247 14236 
2 8245 8246 
1 8245 10830 
1 3804 14389 
2 18049 18050 
2 16061 16062 
2 18050 18051 
2 3803 3804 
2 3802 3803 
1 3802 13575 
2 13574 13575 
2 15793 15794 
1 15793 18051 
2 15794 15795 
2 10939 10940 
2 2611 2612 
2 13712 13713 
2 15295 15296 
1 15295 16062 
2 15296 15297 
2 13711 13712 
1 6183 13711 
1 6780 15297 
2 6182 6183 
2 5131 5132 
1 5131 6181 
2 6181 6182 
2 6779 6780 
3 10163 10164 
3 10162 10163 
1 3177 10162 
3 3176 3177 
3 10322 10323 
1 4830 10321 
3 10321 10322 
1 1605 10045 
3 7300 7301 
1 7300 10323 
3 10045 10046 
2 19364 19365 
3 7301 7302 
3 1604 1605 
1 3243 18858 
2 18361 18362 
2 10829 10830 
2 10828 10829 
1 10828 18361 
2 3242 3243 
2 3241 3242 
1 3241 5782 
2 5782 5783 
2 5783 5784 
2 18362 18363 
1 5784 7380 
2 10940 10941 
2 1198 1199 
1 1198 10941 
2 1199 1200 
1 1200 5809 
2 5809 5810 
2 5588 5589 
2 5587 5588 
1 5587 10866 
2 1466 1467 
2 7378 7379 
1 1467 7378 
2 12257 12258 
2 6778 6779 
1 6778 16225 
2 16225 16226 
2 1465 1466 
1 1465 15085 
2 15085 15086 
2 12256 12257 
1 12256 15087 
2 15086 15087 
2 5132 5133 
3 12536 12537 
3 12535 12536 
3 10088 10089 
1 10089 12535 
1 7497 12537 
3 11783 11784 
3 11782 11783 
1 11782 15231 
1 11784 12483 
3 12482 12483 
3 16457 16458 
1 375 19363 
2 19363 19364 
3 374 375 
3 373 374 
1 373 19704 
3 1603 1604 
1 1603 16458 
3 830 831 
3 829 830 
1 829 8967 
2 8966 8967 
2 8965 8966 
1 8965 17449 
1 831 3373 
3 3373 3374 
2 20554 20555 
1 18363 20554 
2 20555 20556 
2 8678 8679 
2 10864 10865 
1 8679 10864 
2 8677 8678 
1 8677 13584 
2 860 861 
2 16958 16959 
2 5810 5811 
2 10865 10866 
1 16959 17380 
2 17380 17381 
2 17381 17382 
1 17382 17452 
2 17452 17453 
2 15322 15323 
1 5811 6648 
2 6647 6648 
2 6646 6647 
1 6646 18315 
2 17453 17454 
2 18314 18315 
3 15878 15879 
3 529 530 
1 529 15879 
3 7348 7349 
1 7348 15877 
3 15877 15878 
3 7349 7350 
1 7350 12097 
2 12097 12098 
2 17449 17450 
2 15221 15222 
1 1563 15220 
2 15220 15221 
2 1562 1563 
2 17450 17451 
2 14339 14340 
1 17451 18331 
2 18331 18332 
2 18332 18333 
1 18333 20097 
2 859 860 
1 859 7176 
2 7174 7175 
1 7174 14338 
2 14338 14339 
2 7175 7176 
2 13583 13584 
2 13582 13583 
1 13311 13582 
2 13310 13311 
2 19181 19182 
2 12020 12021 
2 12019 12020 
2 19180 19181 
1 12021 19180 
2 18869 18870 
2 18868 18869 
2 12098 12099 
3 15025 15026 
3 15026 15027 
1 3135 15025 
2 3134 3135 
2 3133 3134 
1 3133 7423 
2 9877 9878 
1 9877 15222 
2 9878 9879 
2 21535 21536 
1 9879 21535 
2 16492 16493 
1 11886 20380 
2 11885 11886 
2 14062 14063 
2 12040 12041 
1 12040 14062 
2 5090 5091 
1 5091 11884 
2 11884 11885 
2 5089 5090 
1 5089 21286 
2 21286 21287 
2 21287 21288 
2 12041 12042 
2 20501 20502 
2 643 644 
1 643 20502 
2 644 645 
1 645 19059 
2 19058 19059 
2 3178 3179 
1 3178 3498 
2 4115 4116 
2 3179 3180 
1 3180 21289 
2 4114 4115 
1 4114 5853 
2 5852 5853 
2 5851 5852 
2 2978 2979 
2 2977 2978 
1 2977 20619 
2 19057 19058 
1 2979 19057 
2 8144 8145 
2 8143 8144 
1 8143 18868 
2 1543 1544 
1 1543 8145 
2 1544 1545 
2 20618 20619 
2 7423 7424 
1 7425 16126 
2 16126 16127 
2 16127 16128 
1 7614 16128 
2 7613 7614 
2 16493 16494 
2 3283 3284 
1 3283 16494 
2 7612 7613 
1 7612 14331 
1 12042 13477 
2 13477 13478 
2 13478 13479 
2 5938 5939 
1 5938 13479 
2 14330 14331 
2 16960 16961 
1 16960 20410 
2 20410 20411 
2 20411 20412 
2 5939 5940 
2 21289 21290 
2 21290 21291 
2 4313 4314 
1 5940 11143 
1 1545 5625 
2 5623 5624 
2 5624 5625 
2 18790 18791 
1 18790 20679 
2 2063 2064 
2 14329 14330 
2 2062 2063 
1 2062 14329 
2 5209 5210 
2 548 549 
1 549 17392 
2 17392 17393 
2 547 548 
1 547 8928 
2 17393 17394 
2 8927 8928 
2 16961 16962 
2 11143 11144 
2 4312 4313 
1 1365 4312 
2 16847 16848 
1 16962 17394 
2 1364 1365 
2 1363 1364 
1 1363 14565 
2 4063 4064 
1 4063 16848 
2 16846 16847 
2 4252 4253 
1 4252 16846 
2 4253 4254 
1 4254 10251 
2 20678 20679 
2 20677 20678 
2 826 827 
1 826 20677 
2 827 828 
2 18578 18579 
2 18577 18578 
1 7563 14016 
2 8926 8927 
1 8926 14014 
2 14014 14015 
2 14015 14016 
2 6439 6440 
1 6439 14563 
2 7561 7562 
2 6440 6441 
1 6441 7561 
3 7163 7164 
3 7162 7163 
1 7162 19689 
3 19946 19947 
3 19945 19946 
1 2751 19947 
3 12412 12413 
1 12412 19945 
3 8911 8912 
3 11555 11556 
3 4907 4908 
3 134 135 
3 133 134 
1 133 11556 
3 12953 12954 
3 12952 12953 
1 12952 18804 
3 12112 12113 
1 12112 12954 
3 2206 2207 
1 2206 15702 
3 2207 2208 
3 4652 4653 
1 2208 4653 
3 11471 11472 
3 7289 7290 
3 1235 1236 
3 1234 1235 
1 1234 8289 
3 7139 7140 
1 7140 11472 
3 7138 7139 
1 4908 7138 
1 1236 7290 
3 2905 2906 
1 2905 3825 
3 3824 3825 
2 2398 2399 
1 2398 6318 
3 4906 4907 
1 2400 4906 
1 135 16132 
2 2399 2400 
3 16132 16133 
3 3092 3093 
3 3091 3092 
1 3091 5907 
2 18295 18296 
2 17822 17823 
2 17821 17822 
1 17821 18295 
3 16133 16134 
1 16134 17823 
1 18057 19461 
3 19460 19461 
3 12113 12114 
1 12114 20085 
2 20084 20085 
2 20083 20084 
2 19822 19823 
1 19822 20083 
2 18056 18057 
2 18055 18056 
2 9031 9032 
1 9031 18055 
2 9032 9033 
1 3330 6952 
3 6952 6953 
3 7288 7289 
1 7288 12454 
1 12456 21082 
3 21082 21083 
3 12455 12456 
3 12454 12455 
3 3329 3330 
3 21083 21084 
3 6953 6954 
3 14255 14256 
1 6954 17745 
3 3823 3824 
1 3823 14256 
3 17744 17745 
3 17743 17744 
2 7762 7763 
1 7762 15795 
2 5906 5907 
1 7764 17385 
2 17383 17384 
1 17383 17743 
2 17384 17385 
2 7763 7764 
2 13573 13574 
1 12390 13573 
2 12389 12390 
2 5905 5906 
2 1742 1743 
2 1741 1742 
1 1741 9270 
2 9268 9269 
1 9268 10939 
2 9269 9270 
2 12388 12389 
1 12388 19470 
2 19469 19470 
2 19468 19469 
1 11106 19468 
3 8783 8784 
3 12275 12276 
1 10278 12610 
3 4829 4830 
3 4828 4829 
1 4828 12274 
3 8782 8783 
3 3328 3329 
1 3328 8782 
3 12274 12275 
3 4 5 
1 4 12238 
3 12239 12240 
3 12238 12239 
1 12240 21084 
3 10046 10047 
1 10047 12847 
3 12847 12848 
3 12848 12849 
1 12849 13950 
3 14048 14049 
1 2904 14049 
3 14047 14048 
1 14047 18444 
3 18443 18444 
3 13949 13950 
2 3001 3002 
1 3001 7356 
3 8141 8142 
3 8140 8141 
2 7354 7355 
1 7354 8140 
2 7355 7356 
3 18442 18443 
1 4299 18442 
2 7379 7380 
1 3003 11520 
2 3002 3003 
2 11519 11520 
2 11518 11519 
2 5774 5775 
1 5133 9889 
2 9889 9890 
2 9890 9891 
1 9891 11518 
2 16975 16976 
1 16975 18162 
2 5773 5774 
1 5773 9678 
2 11105 11106 
2 16976 16977 
3 7495 7496 
1 7495 12276 
3 7496 7497 
3 7601 7602 
3 7600 7601 
3 12610 12611 
3 12611 12612 
1 7602 12612 
3 5 6 
3 12481 12482 
1 12481 18249 
3 18248 18249 
3 18247 18248 
1 4293 18247 
3 1114 1115 
1 1114 3354 
1 1116 3375 
3 1115 1116 
3 4292 4293 
3 19703 19704 
1 6 14607 
3 14606 14607 
3 3374 3375 
3 14605 14606 
1 14605 14832 
3 14831 14832 
3 19702 19703 
2 10283 10284 
3 13948 13949 
1 13948 18663 
1 10284 19702 
2 10282 10283 
1 10282 15957 
2 18662 18663 
3 14830 14831 
2 9847 9848 
1 9847 14830 
2 9848 9849 
2 15956 15957 
2 4298 4299 
2 16799 16800 
2 4297 4298 
1 4297 16800 
2 9676 9677 
1 9676 21001 
2 18661 18662 
1 18661 19411 
2 19411 19412 
2 19412 19413 
2 19351 19352 
1 19351 19413 
2 19352 19353 
2 21002 21003 
2 21001 21002 
2 16798 16799 
1 5418 16798 
1 2169 19353 
2 9677 9678 
1 5628 9745 
2 9745 9746 
2 18161 18162 
2 9746 9747 
2 18160 18161 
1 17454 18160 
1 9747 16756 
1 531 7600 
3 530 531 
3 20254 20255 
1 15423 20254 
3 15422 15423 
3 404 405 
3 15421 15422 
2 7819 7820 
1 7819 15421 
3 20255 20256 
3 403 404 
1 403 3189 
1 291 405 
2 1561 1562 
1 1561 14280 
3 14279 14280 
3 19759 19760 
3 14278 14279 
1 14278 19759 
2 20500 20501 
2 20096 20097 
2 20095 20096 
1 20095 20983 
2 20983 20984 
1 5949 9849 
2 5948 5949 
1 19791 20500 
2 21458 21459 
2 21457 21458 
2 13309 13310 
2 15955 15956 
1 6216 15955 
2 6215 6216 
2 6214 6215 
1 6214 21457 
2 19789 19790 
2 8563 8564 
1 8563 19789 
2 8564 8565 
1 1791 13309 
2 19790 19791 
2 5627 5628 
2 5626 5627 
1 5626 12019 
1 18870 21459 
2 18959 18960 
2 18958 18959 
1 4170 18958 
3 7675 7676 
1 7675 15027 
3 7676 7677 
2 5278 5279 
1 5278 16492 
2 5279 5280 
1 5280 7821 
3 290 291 
2 7820 7821 
2 4295 4296 
2 4294 4295 
3 289 290 
1 289 4294 
1 4296 16641 
2 16640 16641 
2 20984 20985 
1 19350 20985 
1 15678 21288 
2 15677 15678 
2 15676 15677 
2 18782 18783 
2 3497 3498 
2 2735 2736 
2 1790 1791 
2 2734 2735 
1 2734 3496 
2 3496 3497 
2 1789 1790 
1 1789 13786 
1 2736 4125 
1 2562 5851 
2 17582 17583 
2 13786 13787 
2 13787 13788 
2 5747 5748 
2 5746 5747 
1 5746 17583 
2 2560 2561 
1 2560 5748 
2 12136 12137 
1 12136 13788 
2 2561 2562 
2 15266 15267 
1 7677 8269 
2 8269 8270 
2 8270 8271 
2 7027 7028 
1 7027 8271 
2 7028 7029 
1 7029 13167 
2 1243 1244 
1 1243 15676 
2 16639 16640 
2 3284 3285 
2 1244 1245 
2 8779 8780 
1 8779 16639 
2 8780 8781 
1 8781 14386 
2 14386 14387 
2 14387 14388 
1 3285 12705 
2 12704 12705 
2 18781 18782 
1 4314 17434 
1 1245 17436 
2 17435 17436 
2 17434 17435 
2 13318 13319 
1 13318 16452 
2 13319 13320 
1 13320 18781 
1 3153 14388 
2 3152 3153 
2 18791 18792 
2 16451 16452 
2 16450 16451 
2 3190 3191 
1 3190 16450 
2 3191 3192 
1 3192 15267 
2 5210 5211 
2 13166 13167 
2 12703 12704 
1 7974 12703 
2 7973 7974 
2 7972 7973 
1 2550 7972 
2 14564 14565 
2 11144 11145 
1 11145 11307 
2 11306 11307 
2 11305 11306 
1 11305 19711 
2 19711 19712 
2 10250 10251 
2 10249 10250 
1 10249 20778 
2 20777 20778 
2 20776 20777 
1 11229 20776 
2 12443 12444 
2 19712 19713 
2 4337 4338 
2 4336 4337 
1 4336 19713 
1 4338 7357 
2 11228 11229 
2 12442 12443 
2 1837 1838 
1 1837 12442 
2 7562 7563 
2 14563 14564 
2 17431 17432 
2 11227 11228 
1 11227 17431 
3 12413 12414 
3 4273 4274 
1 4273 12414 
3 2704 2705 
1 2704 14608 
1 2706 11554 
3 11554 11555 
3 2705 2706 
3 14608 14609 
3 19459 19460 
3 12181 12182 
1 12181 19459 
3 12182 12183 
3 8620 8621 
3 8621 8622 
1 8622 9633 
3 5789 5790 
3 5788 5789 
1 5788 16027 
3 16027 16028 
3 4651 4652 
1 4651 16029 
3 16028 16029 
3 11470 11471 
1 11470 14154 
3 14153 14154 
3 14152 14153 
3 6379 6380 
1 6379 14152 
3 4274 4275 
3 13253 13254 
1 4275 13254 
3 13252 13253 
1 13252 18754 
3 692 693 
1 693 2907 
3 2906 2907 
3 691 692 
1 691 2319 
3 11702 11703 
3 1333 1334 
1 1333 3093 
3 1334 1335 
3 346 347 
1 346 1335 
3 11701 11702 
1 11701 21453 
3 347 348 
3 16519 16520 
3 16520 16521 
1 8844 21451 
2 14323 14324 
2 14324 14325 
3 8842 8843 
1 8842 14323 
3 21452 21453 
3 21451 21452 
3 8843 8844 
3 1714 1715 
1 1714 16519 
1 2541 9631 
3 9631 9632 
3 9632 9633 
2 2540 2541 
2 2539 2540 
1 2539 10989 
2 9424 9425 
2 16946 16947 
1 9426 16947 
2 9425 9426 
2 16945 16946 
1 16945 19966 
3 19966 19967 
1 5790 18922 
3 18922 18923 
3 5012 5013 
3 18614 18615 
1 6381 18615 
3 18613 18614 
1 18613 20086 
3 20086 20087 
1 4761 8602 
1 3471 7330 
3 7330 7331 
3 6380 6381 
3 3469 3470 
3 3470 3471 
3 4760 4761 
3 7331 7332 
3 18923 18924 
3 14254 14255 
3 2902 2903 
1 2902 14254 
3 2903 2904 
3 18754 18755 
3 10522 10523 
3 18755 18756 
3 10523 10524 
3 18082 18083 
1 18082 18756 
3 18083 18084 
3 6101 6102 
2 754 755 
1 754 6102 
3 6100 6101 
3 5503 5504 
1 5503 6100 
3 5504 5505 
2 755 756 
3 1715 1716 
1 1743 17281 
2 17281 17282 
1 1716 17283 
2 17282 17283 
2 4912 4913 
1 4912 14325 
2 18266 18267 
1 4914 18265 
2 4913 4914 
2 18265 18266 
1 4848 15393 
2 4847 4848 
2 14306 14307 
2 4846 4847 
1 4846 14307 
3 10277 10278 
3 19967 19968 
3 10276 10277 
1 10276 20088 
3 20087 20088 
3 1409 1410 
3 4759 4760 
3 1408 1409 
1 1408 4759 
1 5010 10524 
3 5009 5010 
3 20173 20174 
3 5008 5009 
1 5008 20173 
3 7169 7170 
1 8142 18084 
3 7168 7169 
1 7168 13755 
3 13754 13755 
3 13753 13754 
1 13753 15202 
3 15202 15203 
3 15203 15204 
2 15392 15393 
2 8587 8588 
1 8587 15391 
2 15391 15392 
1 8589 15204 
2 8588 8589 
1 8559 18786 
2 19927 19928 
2 157 158 
1 157 11104 
2 11104 11105 
2 158 159 
2 18785 18786 
1 159 3457 
2 3457 3458 
2 18784 18785 
1 5775 19927 
1 1083 4285 
3 1945 1946 
1 1945 6483 
3 1946 1947 
1 1947 4291 
3 4291 4292 
3 3353 3354 
3 6482 6483 
3 14080 14081 
1 16956 19767 
3 16955 16956 
3 16954 16955 
3 3352 3353 
1 3352 16954 
3 20174 20175 
3 13627 13628 
1 13627 20175 
3 13628 13629 
1 13629 14481 
3 6304 6305 
1 6304 14080 
3 14479 14480 
2 1183 1184 
1 1183 14479 
2 1184 1185 
3 14480 14481 
2 5417 5418 
1 1185 8326 
2 8326 8327 
1 8328 21003 
2 8327 8328 
2 8363 8364 
2 269 270 
2 9982 9983 
2 16756 16757 
2 16757 16758 
1 270 8386 
2 2168 2169 
1 10596 18784 
2 2167 2168 
1 2167 10594 
2 10594 10595 
2 10595 10596 
2 8386 8387 
2 268 269 
1 268 9982 
2 8387 8388 
3 6998 6999 
3 1082 1083 
1 2502 6999 
3 2501 2502 
3 2500 2501 
1 2500 20256 
3 1081 1082 
1 1081 3187 
3 3187 3188 
3 3188 3189 
1 3294 5928 
1 15285 15535 
3 15535 15536 
3 19760 19761 
3 5927 5928 
3 5926 5927 
1 5926 6306 
3 2173 2174 
1 2173 19761 
3 6305 6306 
2 5947 5948 
1 5947 14271 
3 2174 2175 
1 2175 7227 
2 7226 7227 
2 7225 7226 
2 14270 14271 
1 5430 7225 
1 8565 8848 
2 8848 8849 
2 8362 8363 
2 2474 2475 
2 5416 5417 
1 5416 13780 
2 13780 13781 
2 5429 5430 
2 2473 2474 
1 2473 13782 
2 13781 13782 
2 5428 5429 
1 5428 8362 
1 1590 2475 
2 1589 1590 
2 1588 1589 
1 1588 7000 
1 8256 9748 
2 9748 9749 
2 4169 4170 
2 4168 4169 
1 4168 8254 
2 8254 8255 
2 8255 8256 
3 3293 3294 
3 3292 3293 
1 3292 10909 
3 10909 10910 
3 10910 10911 
3 12998 12999 
3 12997 12998 
1 12997 13321 
2 13321 13322 
1 3249 10911 
1 13323 19348 
2 13322 13323 
2 19348 19349 
2 19349 19350 
3 15283 15284 
2 14170 14171 
1 14170 15283 
2 14269 14270 
2 14171 14172 
1 14172 14269 
1 8163 18783 
2 8161 8162 
1 8161 13740 
3 15284 15285 
2 8849 8850 
2 16190 16191 
2 4124 4125 
2 4123 4124 
1 4123 16189 
2 16189 16190 
1 16191 19848 
2 15148 15149 
2 4066 4067 
1 4066 8850 
1 4068 13275 
1 7104 15148 
2 7103 7104 
2 4067 4068 
2 7102 7103 
1 7102 12138 
2 12137 12138 
2 3248 3249 
2 3247 3248 
1 3247 13638 
2 13637 13638 
2 13739 13740 
2 8162 8163 
2 13636 13637 
1 7833 13636 
2 7832 7833 
2 7831 7832 
1 7831 7971 
3 7970 7971 
3 7969 7970 
1 3198 7969 
2 3196 3197 
1 3196 20310 
2 3197 3198 
2 3151 3152 
1 3151 12187 
2 12187 12188 
2 12188 12189 
2 20309 20310 
1 513 12189 
2 16475 16476 
2 16474 16475 
1 16474 16645 
2 11282 11283 
2 16645 16646 
2 20308 20309 
1 16647 20308 
2 16646 16647 
2 11281 11282 
1 11281 14341 
2 13165 13166 
3 9175 9176 
1 9177 13165 
3 9176 9177 
2 2549 2550 
2 3697 3698 
2 2548 2549 
1 2548 3697 
2 3698 3699 
1 1191 3699 
3 1190 1191 
3 9101 9102 
3 1189 1190 
1 1189 1839 
2 1838 1839 
3 9100 9101 
1 9100 17433 
2 17432 17433 
2 1574 1575 
1 1575 16698 
3 16697 16698 
2 15091 15092 
3 16696 16697 
3 1399 1400 
1 1399 17014 
3 1400 1401 
2 17014 17015 
1 15093 17016 
2 15092 15093 
2 17015 17016 
1 2259 20880 
2 20879 20880 
2 20878 20879 
1 12381 20878 
2 19915 19916 
2 19916 19917 
2 18284 18285 
2 9184 9185 
1 9184 18283 
2 18283 18284 
2 12380 12381 
2 1573 1574 
1 1573 9186 
2 9185 9186 
2 12379 12380 
1 12379 19524 
2 337 338 
1 337 19915 
2 338 339 
1 339 4566 
2 16673 16674 
2 4565 4566 
2 9751 9752 
2 4345 4346 
1 4345 9751 
2 4346 4347 
2 1321 1322 
1 1321 9846 
2 1322 1323 
1 1323 4564 
2 4564 4565 
1 5151 17040 
2 5150 5151 
2 20099 20100 
2 13354 13355 
1 13354 20100 
2 9845 9846 
2 20098 20099 
2 5149 5150 
1 5149 20098 
2 9844 9845 
3 21127 21128 
2 19471 19472 
1 19471 21127 
2 16720 16721 
2 2744 2745 
2 2743 2744 
1 2743 16279 
2 16279 16280 
1 2745 16720 
2 10427 10428 
2 16280 16281 
1 8826 9760 
2 9760 9761 
2 9761 9762 
2 8824 8825 
1 8824 10428 
2 8825 8826 
2 18416 18417 
1 12915 18415 
2 12914 12915 
2 12913 12914 
1 12913 19917 
2 18415 18416 
2 19522 19523 
1 1281 19522 
2 19523 19524 
2 1280 1281 
2 1279 1280 
1 1279 7549 
2 7549 7550 
2 13228 13229 
2 7249 7250 
1 7249 13228 
2 7250 7251 
2 16672 16673 
1 168 15054 
2 166 167 
1 166 16672 
2 167 168 
2 13229 13230 
2 19187 19188 
2 19186 19187 
2 6373 6374 
1 6373 19186 
2 6374 6375 
1 6375 17437 
2 17437 17438 
2 17438 17439 
1 2205 17439 
2 15053 15054 
2 15052 15053 
2 7630 7631 
1 7630 15052 
2 5173 5174 
1 5173 13356 
2 5174 5175 
1 5175 20938 
2 20938 20939 
2 20939 20940 
2 13355 13356 
2 4588 4589 
1 4588 9844 
1 13587 18816 
2 13586 13587 
2 2204 2205 
2 4589 4590 
2 2203 2204 
1 2203 21145 
2 21145 21146 
1 1254 4590 
2 1253 1254 
2 7729 7730 
1 7729 21147 
2 1252 1253 
1 1252 12699 
2 21146 21147 
2 7730 7731 
1 7731 11464 
2 8309 8310 
2 19472 19473 
1 12180 19473 
2 9290 9291 
3 9067 9068 
1 9067 9291 
2 15191 15192 
2 12179 12180 
2 12178 12179 
1 2604 12178 
2 2602 2603 
1 2602 19575 
2 2603 2604 
2 20827 20828 
1 16281 20202 
2 4975 4976 
1 4975 20827 
2 20201 20202 
2 19121 19122 
2 20200 20201 
1 19122 20200 
2 20699 20700 
2 4976 4977 
2 20698 20699 
1 4977 20698 
2 7841 7842 
1 7842 9762 
2 7840 7841 
1 7840 20700 
1 13623 18417 
2 13622 13623 
2 10228 10229 
1 10228 13621 
2 13621 13622 
2 10229 10230 
2 16423 16424 
2 9295 9296 
1 9295 16423 
2 16424 16425 
2 18892 18893 
1 16425 18892 
2 17368 17369 
2 17369 17370 
2 7703 7704 
1 7704 15193 
2 15193 15194 
2 15194 15195 
1 14034 15195 
2 6274 6275 
1 6274 13350 
2 7550 7551 
2 6275 6276 
2 9296 9297 
1 6276 7251 
1 9297 20304 
2 20303 20304 
1 5727 13230 
2 5726 5727 
2 5725 5726 
1 5725 17928 
2 17927 17928 
1 3738 7551 
2 18832 18833 
1 18832 20208 
2 13349 13350 
2 18833 18834 
1 7632 9345 
2 13348 13349 
1 13348 21540 
2 9344 9345 
2 7631 7632 
2 13390 13391 
1 13390 18834 
2 13391 13392 
2 21539 21540 
2 20302 20303 
1 8610 20302 
1 6297 8608 
2 8608 8609 
2 8609 8610 
2 21538 21539 
2 17737 17738 
1 17737 21538 
2 6296 6297 
3 1708 1709 
1 1708 14818 
2 14818 14819 
2 14819 14820 
3 1709 1710 
2 15113 15114 
2 13585 13586 
1 13585 13956 
2 6854 6855 
2 6853 6854 
1 6853 14169 
1 6855 9343 
2 9343 9344 
2 14168 14169 
2 17738 17739 
2 1469 1470 
2 12698 12699 
2 12697 12698 
1 12697 17739 
1 1470 16755 
2 16754 16755 
2 16753 16754 
1 2034 16753 
2 6295 6296 
2 1468 1469 
1 1468 6295 
2 13955 13956 
1 9327 15112 
2 15112 15113 
2 9325 9326 
1 9325 17244 
2 17243 17244 
2 17242 17243 
1 17242 17403 
2 9326 9327 
1 5145 10573 
2 10573 10574 
2 382 383 
1 382 13954 
2 13954 13955 
2 8308 8309 
1 384 8308 
2 383 384 
2 21044 21045 
2 21043 21044 
1 8310 17401 
2 11464 11465 
1 11466 21045 
2 11465 11466 
2 10574 10575 