LAMMPS data file via write_data, version 5 Jun 2019, timestep = 120000000

6558 atoms
3 atom types
6456 bonds
3 bond types
6354 angles
3 angle types

0.0000000000000000e+00 5.0000000000000000e+01 xlo xhi
0.0000000000000000e+00 5.0000000000000000e+01 ylo yhi
0.0000000000000000e+00 5.0000000000000000e+01 zlo zhi

Masses

1 0.25
2 0.5
3 0.5

Bond Coeffs # harmonic

1 6000 0.15
2 2000 0.4
3 2000 0.4

Angle Coeffs # harmonic

1 100 180
2 5 180
3 5 180

Atoms # angle

9262 1 1 4.4626103413813190e+01 2.6727977668189393e+01 2.8558226558376670e-01
1641 1 1 4.4571805763690264e+01 2.6721520259702523e+01 4.0967837812951946e-01
1640 2 2 4.4475235042664458e+01 2.6757225198147029e+01 7.4506726454867411e-01
1639 1 1 4.4490513306566825e+01 2.6693332527595484e+01 1.1988040557459405e+00
232 1 1 7.1439716055637170e+00 2.1327158047286801e+01 1.9041106931649137e+00
234 1 1 7.5262180429782610e+00 2.1987442515858863e+01 1.9016559845751442e+00
233 2 2 7.4519001473964126e+00 2.1614637165318207e+01 1.9692765142517077e+00
5238 1 1 4.9395965884596507e+01 1.3388084666453672e+01 3.9992044350793114e+00
5237 2 2 4.9243156893533374e+01 1.3376955043394524e+01 4.3306902992374301e+00
11007 1 1 6.3240567178516525e+00 1.9603149168012568e+01 3.3478621801734474e+00
11006 2 2 6.1912246452788082e+00 1.9866992746359166e+01 3.6093991968454131e+00
17426 3 3 5.6515764463307798e+00 2.0672132390048294e+01 3.7507819787414620e+00
17427 1 1 5.8893988830237882e+00 2.0326348903551875e+01 3.7266794751481012e+00
6136 1 1 5.6043315593243435e+00 2.1210636633758511e+01 3.5983648118667948e+00
17425 1 1 5.5838584460368006e+00 2.1056143941809410e+01 3.6305797408427511e+00
11005 1 1 5.9809798993471226e+00 2.0199542979263335e+01 3.6969726577706075e+00
6137 3 3 5.6493171377813569e+00 2.1617561625441656e+01 3.5455770897086833e+00
7914 1 1 5.9373518529594405e+00 2.2055260173348291e+01 3.6273191206064790e+00
6138 1 1 5.8805858860368874e+00 2.1918307843747446e+01 3.5974200578164526e+00
7912 1 1 6.2512474880258360e+00 2.2728452946408495e+01 3.8430758436486121e+00
7913 3 3 6.0774980999463262e+00 2.2371459714626795e+01 3.7448282221096862e+00
6556 1 1 4.8515324572707236e+01 1.3125519725667765e+01 5.3592093982649276e+00
5236 1 1 4.9017539555264527e+01 1.3272805329015233e+01 4.6667689848259313e+00
6557 2 2 4.8665668627797885e+01 1.3188756931888710e+01 5.0269798879823906e+00
6558 1 1 4.8936882409862761e+01 1.3242327536660078e+01 4.7638329665412744e+00
12003 1 1 4.6450935206100802e+01 1.0505175345450501e+01 6.4159191068309722e+00
12001 1 1 4.5881953583420014e+01 1.0183928835842503e+01 6.9190116742335377e+00
12002 2 2 4.6189590269019732e+01 1.0440853185936403e+01 6.7374753132169083e+00
4037 3 3 1.9602639010476974e+01 1.4558891830581567e+01 7.5808950189789002e+00
17208 1 1 1.9730691818441233e+01 1.5011395335197415e+01 7.2341159135232607e+00
4036 1 1 1.9718123510171175e+01 1.4890263921581580e+01 7.3205538271116248e+00
17207 2 2 1.9729173100127987e+01 1.5371947067036167e+01 7.0931500358647792e+00
5649 1 1 1.9565172119904823e+01 1.5916616391277637e+01 7.2533946363288333e+00
17206 1 1 1.9649069193007275e+01 1.5766597893000554e+01 7.1770858324322688e+00
5647 1 1 1.9183595148743088e+01 1.6617937609787901e+01 7.5189728099964270e+00
5648 3 3 1.9397303195950823e+01 1.6317569007356376e+01 7.3413331455077477e+00
4038 1 1 1.9752609023076136e+01 1.4361660828117438e+01 7.9080296387836988e+00
6293 2 2 4.5439072619032615e+01 1.7270179697390805e+01 8.6365626937922642e+00
6294 1 1 4.5472272455752616e+01 1.7155733839924846e+01 8.2783587715297973e+00
6292 1 1 4.5596615299750908e+01 1.7261781215308879e+01 8.9866680275677133e+00
19620 1 1 4.5670429195986195e+01 1.7244842496890133e+01 9.1289228935932751e+00
19619 2 2 4.5848256788028344e+01 1.7261879098905769e+01 9.4987589806915018e+00
19618 1 1 4.6087697427854003e+01 1.7452782201221339e+01 9.7704068252420502e+00
724 1 1 3.1432444229352615e+01 2.1125277770280729e+01 1.1283821833973413e+01
725 2 2 3.1046371091867549e+01 2.1043214615729674e+01 1.1191881107174959e+01
726 1 1 3.0835358350039641e+01 2.0954875483657368e+01 1.0877743119226823e+01
423 1 1 3.4326450248030532e+01 2.4125131722596606e+01 1.3551517973540649e+01
422 3 3 3.4456893591765756e+01 2.4366174279783394e+01 1.3880090614074888e+01
18190 1 1 3.4620846219030184e+01 1.7356191722811911e+01 1.4089567598511334e+01
18191 2 2 3.4745001946115316e+01 1.7543364229817012e+01 1.4387610057118739e+01
18192 1 1 3.4993082432830377e+01 1.7720933083403530e+01 1.4631000854989715e+01
7836 1 1 3.5099382805517912e+01 1.7764412951421832e+01 1.4727392985437149e+01
7834 1 1 3.5348950140818559e+01 1.8085897816262516e+01 1.5411327390577505e+01
7835 3 3 3.5347003779889754e+01 1.7879095250832989e+01 1.5049080347489008e+01
421 1 1 3.4723968012170566e+01 2.4543238328872107e+01 1.4128646209862412e+01
13870 1 1 2.5412350404240531e+01 3.2574562128920215e-01 1.7005554726927894e+01
7318 1 1 2.5525712683723008e+01 2.4742958539971527e-01 1.6932160193748519e+01
7320 1 1 2.6071696536117525e+01 5.7536516814208898e-02 1.6349853120259077e+01
7319 3 3 2.5843435247476762e+01 1.7155185088713010e-01 1.6672165057986575e+01
6835 1 1 3.5348358935591072e+01 1.8168047961327719e+01 1.5550170108107325e+01
6836 2 2 3.5433206510090166e+01 1.8340071740161825e+01 1.5862421399428603e+01
6837 1 1 3.5732923585226004e+01 1.8565643638498202e+01 1.6107374211768512e+01
13871 2 2 2.5060209951858454e+01 4.7789741828204041e-01 1.7192211023387568e+01
13872 1 1 2.4689065321739466e+01 6.6060421446363260e-01 1.7234362254634817e+01
21186 1 1 4.1239773296372633e+01 1.5597793918010714e+01 2.2636994811713304e+01
21185 2 2 4.1141787990761308e+01 1.5821163586554292e+01 2.2949676217016055e+01
21184 1 1 4.1150978199565024e+01 1.6215664959333701e+01 2.2854148160343470e+01
20510 3 3 3.9669595998812625e+01 2.4425201837529574e+01 2.2773965714177500e+01
20511 1 1 3.9841901623881043e+01 2.4382100877150876e+01 2.3134790016660450e+01
20509 1 1 3.9418615159504895e+01 2.4668968567305033e+01 2.2628400054943292e+01
17000 2 2 8.7680013911140176e+00 1.6670481415223552e+01 2.4667802535697735e+01
17001 1 1 9.0997740669981848e+00 1.6823928474690131e+01 2.4504062670437268e+01
16999 1 1 8.7602506214646603e+00 1.6627505425016658e+01 2.5082770335625945e+01
4577 2 2 3.4729948723739057e+01 3.5507409973779801e+01 2.4037367129118081e-02
4576 1 1 3.4788812275817094e+01 3.5661244015414702e+01 3.6507094530848783e-01
9936 1 1 2.3073065518548191e+01 3.2732053446567278e+01 7.6082602351738604e+00
9935 2 2 2.3311091279976928e+01 3.2798829887456556e+01 7.9733205984094973e+00
9934 1 1 2.3591500049730225e+01 3.2971864990698471e+01 8.1580435068123283e+00
14803 1 1 2.3708083326303981e+01 3.3039475731734598e+01 8.2310042265572072e+00
14804 2 2 2.4027208645727757e+01 3.3177689505723798e+01 8.3784420201085030e+00
14805 1 1 2.4410544450847119e+01 3.3081694705195886e+01 8.1638432433520478e+00
17085 1 1 2.8670227858576151e+01 3.7038452228449330e+01 8.6944991481514595e+00
17084 2 2 2.8926649319985206e+01 3.7364091637800939e+01 8.8131249622957082e+00
17083 1 1 2.9201564345387737e+01 3.7622158424827447e+01 8.6874925391450173e+00
707 2 2 4.3526871617829173e+01 4.9261261216455274e+01 9.9277069269731477e+00
708 1 1 4.3859230907155478e+01 4.9065379646553950e+01 9.8467553023509868e+00
706 1 1 4.3470984741206792e+01 4.9639943184122338e+01 9.9674187026609875e+00
10630 1 1 4.4398893954574163e+01 4.8830271113425994e+01 1.0173675281870031e+01
10632 1 1 4.3973715723238371e+01 4.9004795109859330e+01 9.8295216858558891e+00
10631 3 3 4.4368992465471905e+01 4.8855174771550843e+01 9.8129734323361486e+00
5200 1 1 2.6507277036048286e+01 2.8045611033604242e+01 1.9752427228726972e+01
5202 1 1 2.7172859697478025e+01 2.8477198305932866e+01 1.9710975203128445e+01
5201 2 2 2.6776030592525256e+01 2.8334096860853844e+01 1.9754503160113984e+01
13653 1 1 2.7313965026518861e+01 2.8542400921031316e+01 1.9692253940674359e+01
13652 2 2 2.7659564713141215e+01 2.8658023403586046e+01 1.9743950262332572e+01
13651 1 1 2.7910506530874301e+01 2.8907363867670377e+01 1.9523879311613090e+01
7828 1 1 4.9596751487128117e+00 3.6179053447654894e+01 2.1165717683859839e+01
7829 2 2 4.8742866854792606e+00 3.6297329168058390e+01 2.1564419194120230e+01
19515 1 1 4.8210486802399659e+00 4.1977455247350711e+01 2.1295556852281067e+01
20637 1 1 4.7781334334504866e+00 4.1966224120523023e+01 2.1453723618217275e+01
19514 2 2 4.9610292188900393e+00 4.2122139760417326e+01 2.0965221932457958e+01
19513 1 1 5.2308793527264230e+00 4.2440093053119973e+01 2.1011429419620121e+01
21142 1 1 5.8110159056255082e+00 4.3198764375369365e+01 2.0954458598979858e+01
21143 3 3 5.6196952635081141e+00 4.2851850645203442e+01 2.0908380611339020e+01
21144 1 1 5.3287035843740131e+00 4.2564107530037916e+01 2.0994933575703531e+01
5452 1 1 5.4610066002930031e+00 4.3604262564958532e+01 2.1532406581531177e+01
15789 1 1 5.5343791604090828e+00 4.3570882859319802e+01 2.1613175176775336e+01
5454 1 1 5.3191005095665078e+00 4.3940973353837592e+01 2.0981280948111088e+01
5453 2 2 5.2432198064339053e+00 4.3722989930324090e+01 2.1294868955762972e+01
6116 3 3 4.9391335420411082e+01 3.5317207910734709e+01 2.3198211814458549e+01
9066 1 1 2.9665879467065817e+00 3.5719722188959331e+01 2.3103435110471235e+01
9675 1 1 4.4806560668786810e+00 3.6246983270209107e+01 2.2000287054527281e+01
9674 3 3 4.1645737522397770e+00 3.6194226498995874e+01 2.2318119912639364e+01
17687 3 3 3.3427656071196674e+00 3.5850884626165879e+01 2.2746887632838561e+01
9673 1 1 3.8434271070442159e+00 3.6085990390436592e+01 2.2498908622559853e+01
17686 1 1 3.7074924155647473e+00 3.6030500432180297e+01 2.2588422995607814e+01
17688 1 1 3.0855061406876021e+00 3.5757418040400722e+01 2.2999682858979554e+01
7830 1 1 4.5773453533832837e+00 3.6271656749946104e+01 2.1892865320304249e+01
6117 1 1 4.9492419421850265e+01 3.5687483463336847e+01 2.3155291905037036e+01
19018 1 1 4.9523374549541884e+01 3.5826579677341634e+01 2.3135983146881440e+01
19019 2 2 4.9679068089202389e+01 3.6180026215595454e+01 2.3074609824904748e+01
19020 1 1 4.9728450153130744e+01 3.6570838132852742e+01 2.3164563821023865e+01
18489 1 1 3.1515825640923270e+00 3.8751177036881110e+01 2.1873356988935654e+01
1962 1 1 4.1522849125900283e+00 3.8723283444240110e+01 2.2749146610251216e+01
1961 3 3 4.4462316643322151e+00 3.8452464820266087e+01 2.2845114668061854e+01
11940 1 1 4.0467719367933546e+00 3.8831908931729842e+01 2.2744929496301211e+01
15885 1 1 4.8313888898016293e+00 3.8263001217995864e+01 2.2539068656919675e+01
1960 1 1 4.7139335382390710e+00 3.8309176870913447e+01 2.2603242920912898e+01
15884 2 2 5.1450402039541379e+00 3.8110114416967114e+01 2.2329632452596094e+01
15883 1 1 5.3287936629049382e+00 3.8394909384566070e+01 2.2051800663537104e+01
7855 1 1 1.0573424168897885e+00 4.0112143841442965e+01 2.3097045527328511e+01
1636 1 1 1.0847745540027187e+00 4.0262261617018396e+01 2.3004547804479841e+01
18488 3 3 2.8954384089309912e+00 3.9088149315638475e+01 2.1876255165690619e+01
18487 1 1 2.7381838514702439e+00 3.8923867081782319e+01 2.2297470545185476e+01
13770 1 1 2.7088831636753778e+00 3.8903907101814610e+01 2.2442344684922013e+01
13769 3 3 2.6997642102597643e+00 3.8946342725817800e+01 2.2829079788523867e+01
13768 1 1 2.7635052480449458e+00 3.8901279405785857e+01 2.3226351444956162e+01
11939 3 3 3.7288864633967460e+00 3.9113122759771343e+01 2.2790447346870398e+01
11938 1 1 3.5545382579113896e+00 3.9338770439563568e+01 2.3057181369694828e+01
1651 1 1 3.4787521902750211e+00 3.9436301241037818e+01 2.3150597544101593e+01
16482 1 1 4.8821152964917056e+00 3.9870780606757286e+01 2.3204079240364074e+01
13606 1 1 4.9484394595431596e+00 3.9972440757903328e+01 2.3062706325232067e+01
13607 3 3 5.1276622596523058e+00 4.0217873189960009e+01 2.2778985582273986e+01
19853 3 3 5.5089703989620116e+00 3.9123696833612620e+01 2.2919792132923195e+01
19852 1 1 5.7165031626582898e+00 3.9420795165366826e+01 2.2724254558677195e+01
2893 1 1 5.7975933832781541e+00 3.9510592519736754e+01 2.2658855549891225e+01
2894 3 3 6.0555920413039654e+00 3.9748333721716733e+01 2.2494810197795275e+01
2895 1 1 6.2399808011743305e+00 4.0042496423215603e+01 2.2560132383145170e+01
9225 1 1 6.3165415926975976e+00 4.0177458200401297e+01 2.2573005454676981e+01
10858 1 1 6.8516750856109327e+00 3.8966369444629606e+01 2.3215169075989387e+01
10859 3 3 6.9873774929538222e+00 3.9345546330005405e+01 2.2968346935503352e+01
10860 1 1 7.2444268941176091e+00 3.9642773628438917e+01 2.3094970231576770e+01
17061 1 1 7.3206908013785199e+00 3.9730998245100743e+01 2.3151695217502805e+01
12552 1 1 8.1947693418420364e+00 4.0347464298671156e+01 2.2482715833913119e+01
12551 3 3 8.0980673851641924e+00 3.9934422812413075e+01 2.2419214417339298e+01
12550 1 1 8.0875943614704351e+00 3.9639580784390660e+01 2.2622951604877660e+01
10143 1 1 8.0968161225480220e+00 3.9489204714436603e+01 2.2721833870384049e+01
10142 3 3 8.0837953164955767e+00 3.9181829944109744e+01 2.2980750980793694e+01
1637 3 3 1.0968275001807983e+00 4.0555118261251494e+01 2.2757720880276207e+01
1638 1 1 1.3983271193345528e+00 4.0706542031767221e+01 2.2938756499962334e+01
2367 1 1 1.5384892836579807e+00 4.0782411027978846e+01 2.3012022592971199e+01
2366 3 3 1.8850044173400404e+00 4.0948979467609952e+01 2.3218763804884443e+01
16148 3 3 4.0852010463024460e+00 4.1324046251410053e+01 2.2396521014086879e+01
20635 1 1 4.4329372499090010e+00 4.1614853678029704e+01 2.2104313584318387e+01
16147 1 1 4.3638207397081423e+00 4.1549962761754230e+01 2.2187580984585207e+01
16149 1 1 4.0129231771106362e+00 4.1029680777932505e+01 2.2625951294513136e+01
11313 1 1 4.0064892912499044e+00 4.0929935583340296e+01 2.2715759591736521e+01
11312 3 3 4.0211396080484398e+00 4.0602406983696881e+01 2.2929559368317776e+01
20636 2 2 4.6421236577329452e+00 4.1826098555083902e+01 2.1803279546819102e+01
13608 1 1 5.2797944313370317e+00 4.0617568443676610e+01 2.2810933503680126e+01
9445 1 1 5.3294034924759242e+00 4.0777196580714822e+01 2.2811896902853650e+01
9446 3 3 5.5227825140003644e+00 4.1132275593465053e+01 2.2923771748183682e+01
9447 1 1 5.7790023808444566e+00 4.1391024854136617e+01 2.2781008349697277e+01
18387 1 1 5.8874222228270092e+00 4.1462884713822739e+01 2.2724019533242537e+01
18386 3 3 6.2045308640074284e+00 4.1650041486303842e+01 2.2595489759007251e+01
9224 3 3 6.5132997718424290e+00 4.0556051774248218e+01 2.2551375822167426e+01
18385 1 1 6.6090610345060110e+00 4.1675635190473791e+01 2.2531159000536391e+01
15373 1 1 6.7616628468325750e+00 4.1722513943675779e+01 2.2493641777770605e+01
15374 3 3 7.1541996595090387e+00 4.1900785951269668e+01 2.2361128690344092e+01
15375 1 1 7.4554928894633896e+00 4.1861324202765616e+01 2.2517638814658834e+01
9223 1 1 6.6251816554857550e+00 4.0772830231731071e+01 2.2858618799017044e+01
6615 1 1 6.6720649222580084e+00 4.0867633247704262e+01 2.3009325419273960e+01
5878 1 1 8.2440405657838998e+00 4.0453421330732226e+01 2.2466513867841684e+01
5879 3 3 8.4426245686564503e+00 4.0808440576897517e+01 2.2483891833764396e+01
5880 1 1 8.7652027182538479e+00 4.0970567124946108e+01 2.2298928226396235e+01
10857 1 1 7.6126170150621828e+00 4.1805726017871464e+01 2.2567973239414343e+01
10856 3 3 7.9758217519582058e+00 4.1697000121787347e+01 2.2745470447613560e+01
10855 1 1 8.2925549159180356e+00 4.1963453848099228e+01 2.2774785511901737e+01
12336 1 1 2.9123992648416976e+00 4.2245218172714750e+01 2.3135813042507895e+01
1534 1 1 2.7966656623511561e+00 4.2219497251023064e+01 2.3223540708839693e+01
12335 3 3 3.2194977497452828e+00 4.2275202197584754e+01 2.2928083370107863e+01
12334 1 1 3.6006123745127718e+00 4.2407771064112254e+01 2.2807837599309089e+01
17988 1 1 3.7494870818342081e+00 4.2438058075728769e+01 2.2803065942115683e+01
17987 3 3 4.1245900790138688e+00 4.2416544953810494e+01 2.2805881782316927e+01
17986 1 1 4.5326915427034402e+00 4.2262314897050977e+01 2.2823075880691892e+01
15788 2 2 5.8474953938295560e+00 4.3433708757909784e+01 2.1910303264873349e+01
11641 1 1 4.6913300621944769e+00 4.2204758380992338e+01 2.2853708654558126e+01
1137 1 1 5.6092561153164722e+00 4.3252919211140998e+01 2.3015691955633187e+01
12616 1 1 5.4974118443465692e+00 4.3299523453126476e+01 2.3128332833717636e+01
11642 3 3 5.0740064156846074e+00 4.2075988081154918e+01 2.3062480808502549e+01
15787 1 1 5.8595242030467505e+00 4.3248420152456177e+01 2.2242727679850674e+01
1135 1 1 5.8624018980130765e+00 4.3201177249488552e+01 2.2385368481740755e+01
1136 3 3 5.8845610241677679e+00 4.3099291192332359e+01 2.2780154682285342e+01
357 1 1 8.3922763648790273e+00 4.2055232192966280e+01 2.2778649963857205e+01
356 2 2 8.6970632917169777e+00 4.2333489012467062e+01 2.2872223152444231e+01
355 1 1 8.7359039382696508e+00 4.2714108110867187e+01 2.2993565429607241e+01
10485 1 1 8.7519749428558402e+00 4.2831225283595991e+01 2.3046424274452328e+01
10484 3 3 8.8166281031233407e+00 4.3155767973885581e+01 2.3191043679989310e+01
6496 1 1 6.7581549123916096e+00 4.4631144624628156e+01 2.2133323130798949e+01
6497 2 2 6.7582848529101733e+00 4.4936032548024897e+01 2.2495416299590904e+01
16089 1 1 7.1937955345315032e+00 4.4907071230501167e+01 2.2827748322501609e+01
6498 1 1 7.0929462781958277e+00 4.4933925335714235e+01 2.2742664253104120e+01
16088 3 3 7.4707347977464069e+00 4.4866901725382512e+01 2.3136611963982876e+01
16968 1 1 4.7769248150163342e+01 3.1808718180061508e+01 2.4626857428680527e+01
15096 1 1 4.7872265890886297e+01 3.1712573019720910e+01 2.4672270759798430e+01
16967 2 2 4.7454563404750957e+01 3.2056832434221370e+01 2.4565742084366210e+01
16966 1 1 4.7230478280763016e+01 3.2382941381587827e+01 2.4535005657458136e+01
2552 3 3 3.8141419290037078e+01 3.3562697952931480e+01 2.4651253897965002e+01
2551 1 1 3.8499594907125839e+01 3.3714741370994147e+01 2.4615511552829169e+01
19152 1 1 3.8638499367140987e+01 3.3786784483483487e+01 2.4606019566985044e+01
19151 3 3 3.8996919474409836e+01 3.3851771000126284e+01 2.4624394336123043e+01
19150 1 1 3.9260004946750449e+01 3.4013285375169431e+01 2.4772077509441992e+01
14327 3 3 4.6858335320848752e+01 3.2778257290444898e+01 2.4451093537978206e+01
14326 1 1 4.6542651946251453e+01 3.2841739286000433e+01 2.4533836074159602e+01
1131 1 1 4.6364967901950713e+01 3.2868348414459525e+01 2.4558351878558565e+01
6607 1 1 4.6196392418201832e+01 3.4007186338074604e+01 2.4737742034039027e+01
6609 1 1 4.6818132788037886e+01 3.3815492425725296e+01 2.4298716182115836e+01
6608 3 3 4.6451187197156131e+01 3.3791735109862138e+01 2.4489730105840930e+01
15501 1 1 4.6964668196270246e+01 3.3829562393451184e+01 2.4254718794039238e+01
1130 3 3 4.5985414395162188e+01 3.2899206510289851e+01 2.4661065046546813e+01
14328 1 1 4.7122906352211686e+01 3.2488908015029132e+01 2.4502831102922688e+01
15500 2 2 4.7347504444890582e+01 3.3795082585705408e+01 2.4244603362257049e+01
15499 1 1 4.7633450282213666e+01 3.3817651146746144e+01 2.4530902746773492e+01
11214 1 1 4.7749280352909949e+01 3.3794867182319351e+01 2.4614603791667555e+01
1899 1 1 4.9320895095705410e+01 3.3609468620301499e+01 2.4509383212517108e+01
1898 2 2 4.9352614375384448e+01 3.3937410656811970e+01 2.4269562555822070e+01
17659 1 1 4.9317005807896244e+01 3.3487948501638520e+01 2.4610820791058760e+01
10852 1 1 2.5943060834194656e+00 3.4781620771897948e+01 2.4369426453070769e+01
10853 3 3 2.6155065913555298e+00 3.5135422355930984e+01 2.4228515611241949e+01
9064 1 1 2.6764610643445277e+00 3.5410202024844040e+01 2.3690690934550283e+01
10854 1 1 2.6810075376607485e+00 3.5334303207708501e+01 2.3846777692969152e+01
7624 1 1 2.6211089317869232e+00 3.4647589267638246e+01 2.4438324752816534e+01
9065 3 3 2.6881609588299797e+00 3.5592676690210943e+01 2.3365017944116339e+01
4723 1 1 1.8761533318903787e+00 3.5579912093195361e+01 2.4764936794152398e+01
7625 3 3 2.7159496979758924e+00 3.4299657176698389e+01 2.4677137024295266e+01
7633 1 1 4.0727317254060846e+00 3.5638678887279433e+01 2.4071286027334658e+01
7634 3 3 4.2913822817285627e+00 3.5632306367906232e+01 2.3724815350599656e+01
20400 1 1 5.0249751777524585e+00 3.5253360229576899e+01 2.4575192272673110e+01
21483 1 1 5.1375929254699555e+00 3.5357255487174044e+01 2.4603484119192949e+01
20399 3 3 4.7125901171731028e+00 3.5005685302786290e+01 2.4471524458012670e+01
1897 1 1 4.9311630379280935e+01 3.4289829789799235e+01 2.4132510408389116e+01
9369 1 1 4.9296062688739426e+01 3.4419610152795300e+01 2.4071733580911726e+01
9368 2 2 4.9248249006698686e+01 3.4724372981443786e+01 2.3923843300669603e+01
9367 1 1 4.9314905767612714e+01 3.4994102497086786e+01 2.3644264439729380e+01
6115 1 1 4.9338965715191982e+01 3.5101393583950156e+01 2.3517909224361613e+01
8037 1 1 4.9899579776307874e+01 3.5174805142670216e+01 2.4764362752579466e+01
8036 2 2 4.9884992736749169e+01 3.5520248137937322e+01 2.4598732431399128e+01
7734 1 1 1.9448440852343492e+00 3.5704944740068193e+01 2.4696183144035405e+01
7733 3 3 2.0858170572783390e+00 3.5953608818871317e+01 2.4536969309639971e+01
7732 1 1 2.0610948436742511e+00 3.6185410263982547e+01 2.4285549117372792e+01
14076 1 1 2.7773108889571358e+00 3.7160867602318902e+01 2.4703044196473549e+01
14075 3 3 2.5007152560388288e+00 3.6893033597869618e+01 2.4756698937582467e+01
2150 3 3 3.9125725182306188e+00 3.5682013384752878e+01 2.4515756149032914e+01
2151 1 1 4.0292770873471122e+00 3.5654451092893588e+01 2.4203089682219410e+01
7635 1 1 4.4494204831296829e+00 3.6040383445248139e+01 2.3694735262404901e+01
6286 1 1 4.4660880015257387e+00 3.6195496959433548e+01 2.3689609231845136e+01
2149 1 1 3.5977011596087580e+00 3.5794491281312730e+01 2.4736135358410628e+01
21482 3 3 5.4583765998001867e+00 3.5667046850129559e+01 2.4644584062569553e+01
10875 1 1 4.6947071903647339e+00 3.7117737061213347e+01 2.3815071024939023e+01
6288 1 1 4.6898596338554679e+00 3.6932601010012334e+01 2.3790513175974091e+01
6287 3 3 4.5925342047060509e+00 3.6548797687924626e+01 2.3727061907110073e+01
21481 1 1 5.7766204292790384e+00 3.5766108211373265e+01 2.4406321969384241e+01
8691 1 1 5.8932268707070596e+00 3.5803346031789815e+01 2.4304693255880981e+01
8690 2 2 6.1509248850866411e+00 3.5935858127247236e+01 2.4094509133239971e+01
8689 1 1 6.4420497184065528e+00 3.6161976777122149e+01 2.4235542312132822e+01
10597 1 1 6.5163883882802738e+00 3.6274557915032901e+01 2.4273626972931552e+01
10598 2 2 6.7541041298116600e+00 3.6486077522857322e+01 2.4366967510686266e+01
10599 1 1 7.1073302656779882e+00 3.6661885909123889e+01 2.4420090378856138e+01
11236 1 1 7.2280552345311193e+00 3.6755768252267870e+01 2.4436491945277446e+01
11237 3 3 7.5221875002651162e+00 3.7059254179478224e+01 2.4504623204580003e+01
14452 1 1 1.0860933152147656e+01 3.6990741495750122e+01 2.4171303629144173e+01
14453 2 2 1.1218179479459947e+01 3.6877625232457660e+01 2.4183340574195476e+01
14454 1 1 1.1201634389650943e+01 3.6454790514892537e+01 2.4066684484975919e+01
5251 1 1 1.0711502839203417e+01 3.7082877069536416e+01 2.4170875516951249e+01
7478 3 3 4.8375242532731015e+01 3.7233090219468636e+01 2.4663104961139489e+01
2863 1 1 4.9654246395611040e+01 3.6562260442402533e+01 2.4322311985336096e+01
15624 1 1 4.9576338238306974e+01 3.6663573760942654e+01 2.4399965830873064e+01
2864 2 2 4.9911560604622231e+01 3.6310594141821504e+01 2.4153789063624576e+01
2865 1 1 4.9942678985085017e+01 3.5969468746265704e+01 2.4320521878729853e+01
15622 1 1 4.8935908495994255e+01 3.7075762543007876e+01 2.4638733491588692e+01
15623 3 3 4.9330968071695835e+01 3.6931503950402814e+01 2.4605079361122758e+01
8035 1 1 4.9946837199182269e+01 3.5836585946658460e+01 2.4378804494300915e+01
7479 1 1 4.8781527073161499e+01 3.7100153713875820e+01 2.4633922375664678e+01
4270 1 1 2.8619096364017151e+00 3.7288521920610464e+01 2.4687445150163853e+01
6270 1 1 1.9242224967488872e+00 3.7980579744497369e+01 2.4660231881172155e+01
15081 1 1 3.0073663470886229e+00 3.8625440133865851e+01 2.4117300130832188e+01
20029 1 1 1.8180384163362626e+00 3.7893909869487146e+01 2.4707575963047699e+01
6269 3 3 2.2193150944237852e+00 3.8199862608774055e+01 2.4502098737036505e+01
15080 3 3 2.7955483901481144e+00 3.8701499545382831e+01 2.3751892573298253e+01
6268 1 1 2.2400825900258141e+00 3.8603474436601495e+01 2.4633884925452630e+01
5479 1 1 2.2376005048736021e+00 3.8724624599678904e+01 2.4655410837976916e+01
4271 3 3 3.0871442286874453e+00 3.7626210036001780e+01 2.4639001589601115e+01
3000 1 1 3.1128072978097578e+00 3.8595385111725790e+01 2.4265671921589998e+01
4272 1 1 3.2656394625743910e+00 3.7671899644715914e+01 2.4274131095591144e+01
10440 1 1 3.3213641018609459e+00 3.7696771574770480e+01 2.4158990115610266e+01
4490 3 3 4.0885010147595429e+00 3.8542703477157566e+01 2.3896364323177828e+01
10439 3 3 3.5297597074324831e+00 3.7796814706234890e+01 2.3821885778456849e+01
10438 1 1 3.7660807275496397e+00 3.8125766422915973e+01 2.3774994124244170e+01
4489 1 1 3.8626106313434683e+00 3.8236746526643294e+01 2.3786801191538480e+01
9469 1 1 4.2845311288126346e+00 3.8563921276305187e+01 2.4424699753818956e+01
4491 1 1 4.2436876410466207e+00 3.8577245387566471e+01 2.4290248674905694e+01
2999 3 3 3.3224666465612089e+00 3.8565047797634072e+01 2.4546650601467032e+01
10874 3 3 4.6537919302783024e+00 3.7562041350893175e+01 2.3860754390188390e+01
10873 1 1 4.8248356714526066e+00 3.7839640772367979e+01 2.4017877946398777e+01
11493 1 1 4.9021815627727605e+00 3.7919797219834997e+01 2.4090755034443621e+01
11492 3 3 5.1616456214485886e+00 3.8098156086503536e+01 2.4305441867334796e+01
11491 1 1 5.2457014760741512e+00 3.8251106829750363e+01 2.4653229208173958e+01
6814 1 1 5.3056225776224633e+00 3.8316247211741050e+01 2.4774082443084069e+01
3968 3 3 6.6892379631675833e+00 3.8532435795205949e+01 2.3419079948130069e+01
3967 1 1 7.0817798392950992e+00 3.8388307605915493e+01 2.3420072944104405e+01
11388 1 1 7.2269655987255454e+00 3.8335945244080897e+01 2.3409551248521502e+01
10106 3 3 8.6676073959987967e+00 3.7270475373300449e+01 2.4571664705813355e+01
10123 1 1 8.4276999318645984e+00 3.7579015463365288e+01 2.4156260565311186e+01
10105 1 1 8.4971986818273670e+00 3.7493164348262511e+01 2.4275049565127002e+01
11238 1 1 7.7610591412891923e+00 3.7364445196162471e+01 2.4734685887354832e+01
10124 3 3 8.1577715146959839e+00 3.7794531162378206e+01 2.3928698259759155e+01
11387 3 3 7.5959828826524376e+00 3.8145721453644477e+01 2.3365002565460916e+01
11386 1 1 7.8319380037104613e+00 3.7946858307569009e+01 2.3579397940570590e+01
10125 1 1 7.9374008313228828e+00 3.7882115140048185e+01 2.3659839128745659e+01
10107 1 1 8.9674642128339368e+00 3.7284838207011830e+01 2.4769807517877588e+01
19474 1 1 9.4331343835132326e+00 3.8221830591594404e+01 2.4427312620422121e+01
19475 3 3 9.7337946833313040e+00 3.7940625003053526e+01 2.4385204569615436e+01
19476 1 1 1.0032343841145648e+01 3.7737649579845659e+01 2.4283187113788717e+01
5253 1 1 1.0150515642093881e+01 3.7614641030990136e+01 2.4249632121954143e+01
11674 1 1 9.3478278238531214e+00 3.8320633353708601e+01 2.4442358771639253e+01
11675 3 3 9.0921923666987325e+00 3.8634189754764733e+01 2.4405427874666042e+01
5252 3 3 1.0390858596892846e+01 3.7320241202168312e+01 2.4148744217340916e+01
8513 3 3 1.0542234857481713e+01 3.8643678480047093e+01 2.4559945320632593e+01
7477 1 1 4.8032883009036247e+01 3.7445990885282875e+01 2.4711445391832122e+01
8646 1 1 4.7894564401533280e+01 3.7538165497952427e+01 2.4727470226287657e+01
8645 3 3 4.7562522240349388e+01 3.7712602401522389e+01 2.4756769458056723e+01
7856 3 3 9.7066867527767675e-01 3.9776124277898674e+01 2.3270113759672562e+01
7857 1 1 7.1348355826146803e-01 3.9779621141001350e+01 2.3616187297956007e+01
880 1 1 6.3998639725509110e-01 3.9781443554088881e+01 2.3773659990117736e+01
881 3 3 4.5637376420625853e-01 3.9770784036861535e+01 2.4131433446784996e+01
882 1 1 2.0861110933220120e-01 3.9932305662391379e+01 2.4378876695960841e+01
1395 1 1 9.7350123424748206e-02 3.9970985150522445e+01 2.4488191718328665e+01
19717 1 1 1.5724562946163809e+00 4.0109449963699852e+01 2.4741487457652195e+01
15079 1 1 2.7756588945460554e+00 3.8863908214116414e+01 2.3366692759535635e+01
1653 1 1 2.9812321635446848e+00 3.9740338429500326e+01 2.3637283205785174e+01
19718 3 3 1.8164891298108767e+00 4.0123549498663614e+01 2.4406692508496249e+01
19719 1 1 2.1705708899101159e+00 4.0090192769824320e+01 2.4295623057670600e+01
8055 1 1 2.2773838397011890e+00 4.0055758594750003e+01 2.4252012057191980e+01
8054 3 3 2.6177948603157990e+00 3.9962628712605124e+01 2.3999975416426050e+01
8053 1 1 2.8995298597687018e+00 3.9774453376345974e+01 2.3727389556698554e+01
5480 3 3 2.2175717714106846e+00 3.9069594450384407e+01 2.4774691535440525e+01
1652 3 3 3.2850929991134219e+00 3.9658040808038919e+01 2.3397852937315932e+01
16730 3 3 4.0367392806085869e+00 3.9656783114875587e+01 2.4243806009211571e+01
16729 1 1 4.3457199825547770e+00 3.9684208107375987e+01 2.3977866328859371e+01
16480 1 1 4.4500937292446423e+00 3.9660454168151887e+01 2.3848022233290369e+01
9283 1 1 3.5456162931505690e+00 3.9612772290752659e+01 2.4524622772564655e+01
16731 1 1 3.6783303743494624e+00 3.9606966670198275e+01 2.4462446622510889e+01
9284 3 3 3.1881766853341618e+00 3.9644167804608372e+01 2.4748243039763263e+01
15671 3 3 5.5029062091590690e+00 3.8923851014012918e+01 2.3781693719076682e+01
16481 3 3 4.7425078466977704e+00 3.9651858941066955e+01 2.3517878183593830e+01
6737 3 3 4.9982804765836004e+00 3.9373185074318265e+01 2.4497430660340424e+01
15670 1 1 5.3145314303903533e+00 3.9104603005296177e+01 2.4090411077433782e+01
6736 1 1 5.2278382425458618e+00 3.9190120145893090e+01 2.4206593576751271e+01
19854 1 1 5.5069333772267219e+00 3.9023944857141728e+01 2.3258660504593614e+01
15672 1 1 5.5213001553270251e+00 3.9015505827487637e+01 2.3422422967942332e+01
4446 1 1 5.5814312940400468e+00 4.0170089770203283e+01 2.3706335622579576e+01
4445 3 3 5.8862903965345890e+00 3.9968893665995715e+01 2.3725524551788212e+01
6738 1 1 4.9609847713271984e+00 3.9684615725079233e+01 2.4715548534761076e+01
20034 1 1 5.4573136357818344e+00 4.0271981777227808e+01 2.3734581371908206e+01
3969 1 1 6.7958389019216829e+00 3.8838746627051052e+01 2.3268220796012141e+01
3813 1 1 6.2558999359739147e+00 3.9609059755775625e+01 2.3792671714777185e+01