ITEM: TIMESTEP
100000000
ITEM: NUMBER OF ATOMS
2703
ITEM: BOX BOUNDS pp pp pp
0.0000000000000000e+00 5.0000000000000000e+01
0.0000000000000000e+00 5.0000000000000000e+01
0.0000000000000000e+00 5.0000000000000000e+01
ITEM: ATOMS id type vx vy vz 
14332 1 2.3815 1.22317 4.51117 
14333 3 -1.97034 0.270695 2.71011 
14334 1 -5.26661 3.06853 -5.43995 
17373 1 2.92056 -6.60493 1.55711 
7262 2 -1.50134 1.6337 2.2059 
7261 1 -0.376462 2.69905 -0.623628 
20627 3 -3.01912 2.04475 3.22984 
18167 2 -0.117874 -1.14186 2.02005 
18168 1 -1.62411 0.357689 -4.63283 
18166 1 -2.12206 -4.81264 -2.3602 
7263 1 3.03878 0.181955 -3.01819 
20626 1 -5.68621 3.01429 3.36249 
10758 1 0.146647 -0.385796 4.36401 
10757 3 -2.01578 -0.912501 0.560602 
10756 1 -3.55105 -5.04067 -3.04955 
14148 1 -1.01818 -6.42032 2.12265 
9358 1 1.88551 -3.99726 -3.47484 
9359 3 -0.0298856 -0.278605 -2.85953 
9360 1 2.78905 -3.62264 -4.50934 
8583 1 2.04958 -7.01844 2.45461 
8582 2 -2.25822 0.401994 4.59228 
18940 1 0.920483 2.43088 -3.30234 
8581 1 -1.26027 0.743231 -0.541281 
16389 1 -2.47492 -4.001 3.32326 
16388 2 -0.30776 0.489092 -0.146356 
16387 1 -4.30859 0.0699557 -5.84955 
20713 1 -4.80273 -1.58078 -2.3772 
20714 3 1.96965 3.61769 2.9878 
20715 1 -0.329105 -2.34118 -1.64826 
20691 1 -1.87186 -2.46777 3.98135 
18942 1 2.37241 -0.0548388 2.24787 
18941 3 -1.60068 -3.89635 -1.42906 
16826 3 -2.25119 -1.19209 2.79378 
20690 3 -0.34208 -3.14773 -3.1103 
20689 1 0.109958 -1.18693 2.79628 
16827 1 -4.94284 6.57714 -1.91703 
8422 1 1.46552 5.23236 6.14748 
8423 3 1.01196 -0.0766951 0.765436 
8478 1 -4.22082 2.28951 -5.26845 
8424 1 -2.25619 -2.60814 -1.21653 
6346 1 2.03283 -3.32763 -0.318998 
6347 3 -0.788343 1.54781 3.15847 
6348 1 -4.8021 5.58788 -5.47997 
12661 1 2.78347 0.768443 0.914417 
12662 2 -6.05811 1.71333 1.83569 
1566 1 -11.1608 -1.76929 5.20606 
1564 1 -0.13833 2.43399 -2.21748 
1565 2 -1.96882 2.10429 1.4619 
9933 1 3.48184 5.40636 3.1925 
18759 1 4.66383 -2.19817 -1.6297 
9932 2 -0.914751 -2.2319 2.1303 
16899 1 0.418189 -0.0410447 -4.26266 
9931 1 0.750954 2.24899 3.17219 
16898 2 1.66149 1.48371 -1.64167 
16897 1 -6.33413 3.44124 -3.72702 
17228 2 -0.915424 3.10962 -0.301126 
15143 2 -2.82113 -0.846884 1.35254 
15142 1 4.8387 -3.59567 -1.85127 
15144 1 1.17532 2.13632 0.445887 
436 1 -4.19309 0.992917 -1.21132 
437 3 -1.20306 1.47833 0.512789 
17227 1 -2.36146 -2.81338 -3.8057 
11640 1 3.52459 3.20002 -1.40886 
11356 1 0.463993 5.35177 -0.519632 
11358 1 -4.61163 0.235989 -0.165639 
11357 3 -3.47201 4.13242 2.39497 
20628 1 7.01191 4.88162 -3.03728 
19247 3 4.54638 2.01144 0.778505 
19246 1 0.972486 -3.8788 5.71187 
19248 1 -1.11481 3.0337 2.85605 
13377 1 -8.1142 2.91743 0.334144 
13376 3 0.214764 -2.81384 -2.32985 
9892 1 1.39615 3.96704 4.11009 
6455 2 0.108483 3.61113 -0.656608 
6454 1 1.38552 5.17229 4.53086 
6456 1 2.10016 2.04974 -0.646864 
13375 1 -2.16273 0.93905 3.24008 
9894 1 -2.49706 -1.65124 1.76743 
9893 2 2.59703 1.54121 2.36697 
14146 1 0.251399 -1.97109 -2.27542 
14147 3 -3.27724 -2.75689 2.03787 
13875 1 -5.14709 2.38819 0.208761 
13874 2 2.23377 0.634342 -0.177148 
13873 1 -5.63946 2.4721 2.6093 
11484 1 1.10345 0.85295 -0.194982 
11483 3 -0.267701 5.00489 2.44227 
11482 1 0.332468 -1.55599 4.68953 
12677 2 1.61213 3.47702 0.670197 
12678 1 4.98522 -0.0490333 -1.74462 
12676 1 -0.0537174 4.43326 5.10827 
1414 1 -1.11079 5.24112 0.637363 
1415 3 -2.84315 -0.604933 1.26684 
1416 1 1.70697 -0.805107 5.56202 
5159 3 -0.904883 -2.97174 1.16578 
5158 1 -5.66781 1.29221 1.62354 
5160 1 -2.16051 -0.2128 3.23905 
16825 1 -3.76362 0.15413 2.53983 
1125 1 -6.40405 -7.28758 0.803938 
1124 3 2.83439 -1.7386 -0.326907 
1123 1 -1.70703 -3.34694 0.256186 
17896 1 -5.33433 -3.85531 1.82257 
17898 1 -7.63635 2.97617 3.35525 
17897 2 1.23111 0.21175 -0.937063 
7610 2 2.27674 -3.44843 0.968452 
7611 1 -6.70476 -4.70602 -5.66294 
11639 2 -0.460671 1.41725 -0.314631 
1788 1 -1.49116 2.52784 2.39413 
15171 1 6.86452 1.41464 -7.13639 
11638 1 2.22523 0.109482 1.49146 
15169 1 -1.705 0.7574 5.94443 
15170 3 0.454314 -0.682222 0.101903 
12430 1 -2.62889 2.21794 1.27389 
3481 1 -3.55829 -0.790672 -2.33802 
3482 2 -0.823464 -2.54205 -3.29946 
3483 1 4.23369 1.27089 -1.30397 
4237 1 0.472455 5.40017 -4.59946 
4238 2 2.96486 3.32507 -2.44297 
4239 1 -0.261788 -1.05385 -1.6268 
3216 1 8.04918 0.316624 -2.80809 
3215 3 1.63735 3.25532 1.19845 
3583 1 1.81201 7.59571 1.01968 
3584 3 -0.957644 1.73287 -3.36819 
3585 1 5.29678 -2.44768 1.88777 
20240 3 1.63553 1.52861 1.39104 
20239 1 -1.04622 -0.913338 -0.789384 
14295 1 0.799766 3.38545 1.80844 
7609 1 -1.28598 8.92824 -4.49143 
7058 2 -6.32231 -0.878706 1.31988 
14293 1 -0.51548 1.80458 -2.72222 
7059 1 -0.284386 -8.70862 -2.93562 
14294 3 1.84131 4.13087 0.727474 
16854 1 -3.34741 -1.08899 3.1968 
16853 3 0.792992 -0.238362 -2.73651 
16852 1 1.69239 1.17529 -6.68527 
7057 1 -5.37865 1.33679 1.83847 
21584 2 -3.82062 -1.63639 1.65614 
21585 1 -1.69616 1.26841 -0.204193 
21583 1 0.771546 1.0564 0.452597 
1786 1 -2.1568 2.04412 -4.84478 
1787 2 2.87867 -2.38788 3.32799 
12431 3 -4.06537 -1.95166 4.68761 
12432 1 9.46941 -3.87742 0.0687121 
7905 1 6.63284 -10.118 4.95699 
7904 3 -1.16861 0.562136 -0.593316 
7903 1 -2.26825 6.94727 5.26829 
10600 1 -2.06359 -0.618658 -1.75741 
10602 1 1.58266 1.52166 -0.0436313 
10601 3 -2.44745 -1.25073 -1.02613 
20345 3 -1.82013 -0.48126 -5.31855 
20346 1 0.365852 2.88615 -1.31687 
20344 1 2.57887 0.533293 3.92992 
3214 1 5.22074 -1.01785 4.24105 
5896 1 -0.659565 5.91429 -0.932256 
5898 1 4.23697 1.41035 2.33197 
5897 2 -0.815282 0.282471 -0.738595 
16713 1 -0.917926 0.804675 -7.33851 
16712 2 -2.10089 0.163633 5.39284 
16711 1 2.68361 2.76037 -5.27048 
13248 1 -1.48102 1.07246 -4.46531 
18510 1 7.08125 -4.13624 0.77411 
18509 3 -1.41349 1.33409 -4.4708 
16634 3 -3.47034 4.06452 3.21567 
16633 1 1.05881 3.56924 -4.3567 
7621 1 2.76819 -1.37076 0.798454 
7622 3 1.5098 3.05385 0.890442 
7623 1 7.32517 -1.27507 2.3871 
16119 1 0.976922 1.40343 -1.09419 
9646 1 3.12845 5.54169 -0.408225 
1540 1 0.44301 -1.48244 3.71934 
9648 1 1.84486 4.34468 2.44781 
1541 2 0.228337 -3.82376 2.25959 
1542 1 -1.83908 1.4546 0.579695 
20241 1 -2.23473 -4.60061 -1.54542 
9647 2 0.185753 1.09723 -0.249877 
20979 1 6.84612 2.45242 -3.21781 
20978 3 -2.63462 5.83938 1.46413 
20977 1 4.65831 -0.232157 -1.88381 
2807 3 0.700268 2.08669 0.915938 
2808 1 2.81221 2.32055 1.64666 
16266 1 -5.27119 -0.519492 -0.907459 
2806 1 0.448757 -1.7835 7.49652 
6689 3 1.69622 -2.3559 -0.882316 
6688 1 -1.17437 0.193863 1.01505 
6257 2 -2.15796 -2.13699 -3.60826 
6256 1 -1.75862 3.227 -3.09549 
6258 1 4.50456 -7.69681 -1.05069 
12906 1 -4.20468 -5.14476 1.78833 
12905 3 -6.04673 -2.62947 -1.50198 
10870 1 -1.19017 4.71362 -4.55454 
12904 1 0.608272 3.39641 3.23291 
10949 2 1.31038 0.485234 5.35122 
10871 3 2.7313 2.09972 0.967843 
10948 1 -0.971586 -5.12993 -2.31183 
10872 1 -2.20407 -3.18432 -1.13109 
10950 1 0.299068 4.96255 -1.89134 
4056 1 -4.02269 7.06656 -3.72296 
13246 1 -4.26459 3.46625 -1.68372 
13247 3 3.21376 4.24346 4.72937 
20330 2 -1.04356 -1.24342 -0.128293 
20329 1 -4.55084 2.89679 -1.81392 
18508 1 -3.93871 -3.98035 6.27443 
20331 1 2.15088 -1.5424 1.57094 
16635 1 1.03867 1.48029 5.71966 
19261 1 -2.60611 1.49042 -1.39566 
19263 1 -2.46039 0.239742 -1.37894 
19262 3 1.98736 1.18702 -4.99023 
6631 1 -1.53508 5.84087 0.702618 
6632 2 0.562362 3.90241 -0.919558 
6633 1 3.13671 0.041558 -3.32099 
16117 1 3.11965 1.17388 -2.55376 
16118 3 0.783383 -2.38278 -4.2246 
3537 1 0.0676073 0.990873 -1.69035 
5408 2 -1.39671 2.99283 0.190328 
5409 1 1.61979 -0.0200962 2.50745 
5407 1 -0.776973 -0.424418 1.89201 
16264 1 -6.30124 -0.683006 6.61272 
551 2 -1.89674 6.11834 -0.651779 
550 1 -1.67687 1.22335 1.2285 
552 1 -2.60036 0.560774 -2.44242 
12070 1 6.36372 5.31315 1.78681 
12071 2 0.298412 1.92231 -1.7181 
16265 2 2.44224 2.6534 0.48488 
12729 1 -1.03375 -0.909641 -2.49121 
8184 1 -5.23589 -1.63939 4.19624 
8183 2 0.139529 -2.14479 -1.97673 
8182 1 -2.45424 -3.95278 3.10636 
12072 1 -2.62475 2.93631 -4.24648 
19402 1 -2.5935 1.32889 -2.1528 
19403 3 -2.43999 3.03794 1.77502 
19404 1 2.25588 5.87276 -0.584266 
736 1 -1.83337 1.35343 0.842251 
12728 3 0.440515 2.81927 0.938108 
12727 1 1.8061 -3.34582 1.76104 
738 1 2.40407 -10.162 2.26784 
737 2 -0.173909 -0.684373 -0.795294 
4921 1 1.07746 -1.43756 -1.67071 
5458 1 3.09751 -1.92788 -3.85791 
6690 1 -0.770294 3.12062 1.33057 
3564 1 5.76583 0.540496 -2.76411 
5460 1 -1.19877 -4.99399 -4.90756 
5459 2 -0.758641 -0.893075 -2.9214 
3563 3 0.289707 -0.543067 -2.03628 
3562 1 -3.26827 -0.348658 -0.398996 
4923 1 -3.38696 -6.37387 -1.95431 
4922 3 -1.65059 -1.03552 -2.59651 
16342 1 2.11413 0.213312 -1.90055 
16344 1 -2.88198 0.40789 -3.47393 
16343 2 2.48371 0.879495 1.09232 
1100 3 0.346974 4.28787 1.62258 
4054 1 -1.89095 -0.982962 11.5195 
969 1 4.59767 -0.0164144 -0.089061 
968 2 -0.310148 0.527035 0.743809 
967 1 -0.504162 4.33154 8.27326 
4055 3 3.28297 2.62798 1.75881 
9243 1 5.46184 3.11339 -3.36309 
19938 1 -2.4871 4.0143 -3.17903 
9241 1 -2.44436 8.05495 2.28567 
9242 2 0.169174 -1.97996 -1.85847 
19937 3 0.870743 2.31619 -2.36025 
19936 1 0.754246 6.56878 2.10618 
5715 1 0.280254 4.90899 -2.17283 
5714 3 -0.914303 -1.19333 2.28537 
5713 1 1.19971 3.29197 1.10203 
20423 2 0.0546405 1.16857 3.78228 
20422 1 -4.23082 -6.12612 -4.55326 
20424 1 -1.36932 -4.16384 -1.00866 
604 1 -2.18644 6.80101 0.236901 
16439 2 -0.938515 2.4713 1.03231 
16438 1 -1.41954 2.26524 -1.99974 
16440 1 -2.74083 -5.40879 2.59798 
19526 2 -1.69536 -1.67283 0.810139 
19525 1 -2.71948 -0.0326358 6.18502 
19527 1 -2.53682 -2.82553 3.47573 
17044 1 4.93202 -2.25473 1.96651 
17045 3 -2.28879 -2.90537 -1.82959 
6223 1 0.734055 -4.6481 -1.23857 
6225 1 -3.71789 2.57256 6.22645 
6224 2 -2.23003 0.713502 -4.3551 
5530 1 3.61875 0.616437 -5.12487 
5532 1 1.03004 0.589142 -0.187312 
5531 2 -2.59575 0.847821 1.61054 
3535 1 3.36817 1.58231 -1.38003 
3536 3 0.333792 -1.15767 -0.729146 
7294 1 -4.96381 -10.4664 2.95284 
7296 1 -1.93306 7.88433 -2.52554 
7295 2 -0.2584 -1.81043 0.853146 
1099 1 4.16416 3.87156 -4.62256 
10917 1 -0.00635065 -3.00644 1.06098 
1101 1 -3.68616 2.08887 1.26214 
10916 2 -0.663887 -1.91516 -1.01211 
10915 1 3.51766 -3.23253 -2.29458 
6325 1 -3.90041 4.24223 0.643793 
1591 1 -3.92945 3.04157 2.11489 
1592 2 0.951332 -3.76942 -1.32702 
1593 1 0.914468 -0.328261 -2.80477 
19558 1 -2.06632 2.51747 -4.41066 
19559 3 1.29654 -2.20175 0.89905 
19635 1 -3.5733 -1.34388 -1.11797 
19633 1 3.80834 -0.675457 -0.636495 
19634 3 -1.94388 2.30373 -3.38111 
14941 1 6.03159 -0.049397 -0.771373 
14942 3 0.859643 -3.23499 -1.75258 
17531 2 0.742712 -0.3705 -2.71173 
606 1 0.402439 7.70517 3.88809 
17530 1 -0.0947131 2.27507 1.00023 
605 3 4.84437 0.883711 2.28366 
17532 1 3.19817 -8.11749 -1.4628 
153 1 2.27392 4.3862 -0.851594 
152 2 4.4765 0.694627 -1.7215 
1026 1 -1.95424 -5.72972 0.263156 
1025 2 -3.44125 5.95138 -0.827081 
1024 1 -0.630104 -6.01177 -1.86061 
14206 1 -1.43606 -3.20014 3.57045 
13726 1 4.18247 1.38635 2.72793 
13728 1 -5.28273 4.36982 -1.89 
17046 1 -1.1737 0.410888 -3.90358 
14207 3 -4.23683 -1.29925 0.86416 
14208 1 2.39533 -0.883087 1.84544 
231 1 -2.63339 -2.50395 1.46669 
230 2 5.59374 1.30338 -1.9454 
229 1 -0.199352 -2.27569 -1.87177 
13727 2 1.5797 -3.03115 1.48597 
14116 1 -1.7685 3.04926 3.81262 
15939 1 -0.305443 -4.04472 -1.4398 
15938 2 -0.376162 0.807313 -5.40921 
18275 3 -3.47085 3.54026 4.59665 
18276 1 -5.56312 6.78141 3.55316 
813 1 -3.80396 1.55977 1.19642 
812 2 -3.67202 6.87711 2.19809 
811 1 3.77817 -0.660116 3.41875 
6326 3 -0.673636 -2.22028 -1.49004 
6327 1 1.97305 2.57487 1.219 
10388 2 0.613676 0.0215514 -2.81865 
10387 1 -0.62109 -1.26569 4.59482 
17603 2 -0.184734 1.07626 -4.20283 
17604 1 -4.06852 0.534998 -3.16519 
19560 1 -1.26514 -1.21353 -2.98541 
17602 1 1.44457 -2.08222 -3.90232 
14943 1 0.0947926 4.85352 -3.89243 
12584 3 -5.63407 2.86165 2.74691 
12585 1 2.01575 5.34627 0.229785 
12583 1 1.09464 2.51929 -5.97755 
151 1 -5.05208 1.68198 2.17276 
9740 3 2.27586 -1.39531 -0.534972 
9739 1 -0.842663 -2.72528 -4.08703 
9881 2 0.217303 2.39878 -1.07261 
9741 1 -0.743729 0.161154 4.23147 
9880 1 0.293819 1.65902 0.637207 
9882 1 0.462808 7.72347 -2.97281 
19112 2 1.73195 1.79502 2.19883 
19111 1 1.18266 3.2873 -2.24153 
9430 1 -2.43616 2.02694 -0.9054 
19113 1 14.0881 3.8419 -1.44983 
9431 3 -0.0166309 2.21926 -2.30176 
9432 1 -0.799585 1.40589 4.63218 
12226 1 -4.52725 -1.57998 -1.44265 
12228 1 -6.36952 2.52681 -1.904 
12227 2 0.48206 2.39918 1.24732 
13194 1 -5.3943 0.849994 4.26481 
13193 2 -0.300782 -1.77816 -1.49808 
13192 1 4.72316 -6.76382 -1.40309 
1432 1 1.20119 -0.919201 -4.71042 
1433 2 -1.62142 -0.732571 -1.01054 
14118 1 2.16047 4.34639 -3.5681 
14117 3 4.56076 -0.894844 0.551815 
17740 1 -2.12157 -4.3952 3.41699 
17742 1 1.7062 -1.68094 -1.87842 
16073 3 0.928236 -1.94709 0.676627 
16072 1 -4.3797 0.684326 -3.55231 
15937 1 -4.10524 -2.15948 -7.38237 
17741 3 -3.83805 0.475869 2.0193 
15665 2 -0.729988 3.73812 -0.903059 
15664 1 -4.31398 0.221849 1.45396 
16707 1 2.90236 3.57436 -2.29898 
16706 3 2.14359 0.621632 0.514874 
15666 1 4.96455 -2.86514 3.73846 
14239 1 -7.14243 0.356907 0.774209 
7546 1 -2.2633 2.09753 2.98106 
14240 3 3.44874 3.70888 0.0693592 
14241 1 -2.48359 4.1652 -4.05856 
18274 1 1.07741 3.11322 -4.14369 
7548 1 -0.173362 -1.12354 1.68357 
7547 2 2.73779 -1.16171 -1.86824 
21432 1 -1.53889 -1.85827 -0.975836 
21431 3 -0.490921 -5.02802 3.56856 
21430 1 -2.62001 -4.67067 -1.6661 
7218 1 -3.56343 7.96409 -6.54394 
16085 3 1.98531 2.69089 -3.17678 
16086 1 2.61368 2.78451 -2.26506 
10389 1 -0.542015 -0.806117 1.27741 
17374 1 -6.53165 3.28746 0.287899 
16084 1 -2.48465 -1.236 -0.419299 
17376 1 6.40623 0.308283 0.399282 
17375 3 -2.96224 0.369087 0.947275 
12103 1 4.84166 -0.814744 -0.173946 
12105 1 0.261281 -5.49634 1.70711 
12104 3 0.751437 3.47529 -3.05454 
11906 2 -2.90651 -3.17834 3.70078 
11907 1 -5.22412 -2.9556 -2.52889 
8601 1 -1.45011 -3.45532 4.65699 
8600 3 0.0165344 -2.81795 1.59928 
8599 1 0.450939 -1.10168 -2.09794 
16499 2 -0.920964 -0.855026 -2.08115 
1878 1 -3.99055 0.548196 0.31951 
2110 1 5.07503 1.6093 2.70784 
1476 1 -0.20006 2.12762 -0.946634 
2112 1 1.88127 0.668961 -7.81087 
1475 3 2.63046 -2.17987 -0.918514 
2111 3 0.141096 1.17872 3.17307 
16500 1 -0.27615 0.507206 0.812111 
1474 1 -3.00834 0.9324 0.647772 
8546 2 -2.59262 2.53478 4.97349 
8547 1 1.06762 -1.10956 -3.15726 
21588 1 5.37518 1.63617 -3.29729 
8545 1 -0.58872 3.67719 -2.81679 
15642 1 -5.01029 -4.60093 3.85263 
597 1 1.58654 -6.52448 -5.84628 
15641 2 -0.123816 -1.69431 -0.326268 
15640 1 -2.63288 -3.91081 -3.53529 
7989 1 -2.51846 5.50383 3.07625 
595 1 1.29872 -4.95615 -4.87155 
7988 3 -2.85754 -3.95339 -3.00804 
596 2 -4.14475 2.49 0.0749583 
1973 2 0.264334 -1.69057 1.1822 
1972 1 2.03228 2.81535 0.132123 
21586 1 -1.81493 -3.16926 2.4885 
21587 3 0.108612 3.72806 -4.43252 
1974 1 -0.628256 1.65122 1.7258 
14652 1 -4.78789 -0.0243698 -3.90956 
14651 2 -1.47329 0.383322 -2.834 
14650 1 -0.303066 3.75128 3.85798 
1434 1 -3.86435 2.97491 1.64757 
16074 1 -4.97934 -6.84976 -0.489307 
19528 1 -4.73285 -0.531018 0.165299 
19530 1 -0.393712 -5.85003 0.018029 
19529 3 -1.81712 -1.0205 -0.208299 
16705 1 -1.90464 0.226706 -1.96153 
16209 1 5.0005 -4.63844 6.00625 
16208 2 3.18513 -3.91967 1.0291 
16207 1 -1.99933 -1.22012 -1.39181 
8198 2 -1.72516 1.36021 -1.67585 
8199 1 1.95054 3.12485 0.576933 
8197 1 -6.94066 1.09521 2.36453 
8772 1 4.19724 7.35852 -2.3228 
11054 2 2.32608 -0.554438 2.6884 
11053 1 5.15589 1.2515 -8.82486 
11055 1 2.84688 1.37565 -0.0296062 
12310 1 -2.02883 4.70536 -2.0113 
13813 1 -1.73496 -6.33024 1.7062 
12312 1 -3.32459 3.99286 1.6944 
12311 2 2.23809 1.82037 -1.08823 
13814 3 -0.968788 -0.776652 -0.652352 
13815 1 1.74294 -2.17456 -1.69307 
19509 1 2.32761 0.059649 1.52514 
19507 1 4.95987 -7.96057 2.73762 
7216 1 -7.86781 -2.87994 8.12024 
19508 3 -0.889806 -1.94633 -0.45734 
7217 2 1.65727 -1.41549 -5.18885 
1406 2 5.60654 0.611579 0.820841 
18543 1 -0.891109 1.45294 3.89379 
10572 1 1.41468 6.59693 0.242828 
18542 2 0.866748 -0.964305 0.636636 
10571 2 -0.332575 0.634085 -0.597628 
10570 1 1.41905 -3.55512 -2.07876 
1405 1 -0.564067 -3.49684 -2.12433 
1407 1 4.02639 -5.17809 3.13596 
3156 1 2.49229 -1.06794 -0.504263 
717 1 -3.19193 6.4765 2.39148 
716 3 -0.343503 -0.174726 -1.75705 
3155 3 -0.596758 1.19466 2.98905 
3154 1 -3.18818 -1.03187 -1.45995 
715 1 4.73975 -0.282577 -6.87078 
10324 1 -1.03531 9.98932 1.41311 
743 3 0.594607 -0.354223 1.88412 
742 1 -1.15818 -2.45698 1.85873 
10325 3 -1.766 4.41542 0.260906 
10326 1 -3.52973 -7.66871 -2.48672 
16944 1 -2.02852 -0.469623 1.10197 
16943 2 2.48382 2.12248 3.8023 
16942 1 2.50779 -4.67741 2.63146 
11905 1 1.44504 -1.96066 -4.42118 
14264 3 -3.25453 -1.21986 2.81068 
14265 1 0.507954 0.674148 -0.809286 
12141 1 1.34175 8.2148 -4.91634 
14263 1 -3.69666 5.19023 -6.06299 
16498 1 -1.43346 -1.75314 -3.08691 
7987 1 -3.47967 -4.21132 2.74124 
3394 1 7.33486 -2.22094 3.60584 
1642 1 2.56882 -1.43488 -2.14638 
1643 3 -1.07236 -2.25916 0.690448 
8771 3 -2.39756 0.132622 2.80081 
8770 1 0.978746 -2.60691 4.5897 
9567 1 0.576593 0.573225 -2.89855 
9565 1 1.60223 -1.26379 3.90317 
9566 2 -1.07726 -3.9261 -2.53297 
1644 1 -0.0871572 -2.62511 1.21699 
15450 1 -0.916877 2.53197 -1.60711 
15449 3 2.26838 -2.58289 -3.12281 
15448 1 6.99844 6.26508 9.05637 
13236 1 -1.75381 3.09031 0.495409 
13235 2 0.780339 5.0101 0.572355 
13234 1 -2.21313 1.43799 2.91789 
12885 1 -2.5974 -1.87638 1.21921 
12884 2 0.931361 -4.1206 5.16341 
12883 1 1.18457 -1.9108 -0.698201 
16689 1 -0.340724 -1.06718 -3.98244 
20515 1 2.55753 -4.30346 1.20544 
5184 1 4.87969 3.15879 6.2795 
5183 3 1.32927 -0.138141 -0.748907 
5182 1 3.26922 2.4203 -2.0498 
20517 1 1.59146 -0.749273 2.01016 
20516 2 -0.52266 3.05169 0.450051 
13901 3 -0.286158 -0.744203 -2.75306 
18541 1 0.581517 -0.387367 0.0689525 
13902 1 -1.71549 0.303147 0.452942 
13900 1 -1.73295 1.87281 1.9392 
16002 1 6.27115 2.27197 0.216679 
16001 2 -1.41566 2.55158 -0.337856 
16000 1 -2.72208 3.55025 -0.552587 
2935 1 4.01834 1.90189 5.01886 
744 1 2.46359 -5.56957 -7.28778 
17332 1 -3.03001 1.94709 0.721634 
17333 2 -4.96642 -0.933422 -1.68446 
17334 1 1.80719 -2.16397 3.86734 
12139 1 2.09018 0.966911 4.36869 
12140 2 -2.18686 1.44334 0.915128 
1463 2 -3.38033 -0.0227672 1.05364 
1464 1 -5.90292 -3.55067 -0.24016 
1462 1 -4.61796 -1.09142 -1.5376 
7343 3 1.9804 -0.77575 -4.45046 
7342 1 -2.27666 6.58435 -0.648633 
3395 3 -0.439595 -2.98771 1.57681 
3396 1 4.38392 1.63678 0.175264 
21019 1 -2.2068 -2.38153 2.19999 
1778 3 1.74203 4.09116 1.98977 
1779 1 -0.989288 -3.92954 1.21501 
1777 1 -1.7633 -2.70091 4.26283 
2471 3 1.86657 -1.96072 0.53063 
2470 1 -2.4877 -4.37544 3.4087 
13548 1 2.92973 -2.15303 -6.09509 
16688 2 -1.0425 4.84522 -2.11065 
16687 1 0.508336 9.21752 3.50026 
2936 2 2.72451 -3.5312 0.602973 
11747 3 3.73755 0.522464 -4.08705 
11748 1 -4.34308 -0.571817 0.438154 
2937 1 -0.723621 -0.254082 -3.7414 
11746 1 0.165451 2.82401 -2.1139 
10477 1 3.76103 2.53405 -0.460251 
10478 2 -1.73743 -0.822284 1.46416 
10479 1 2.24394 1.69006 3.12052 
19582 1 -3.7533 3.31026 -2.00894 
19583 3 0.420439 3.28298 -0.563125 
19584 1 0.812983 -5.86061 -1.18786 
17788 1 -0.0557853 1.73857 0.907315 
17789 3 2.45228 0.444298 0.73026 
17790 1 -2.33415 -1.23517 8.15542 
3048 1 5.1 -0.691056 -0.430823 
3046 1 -0.972263 -0.925443 -1.65785 
7344 1 -0.223892 0.556163 2.94939 
3047 2 -4.89966 -0.155642 -2.28759 
6584 2 1.44488 -0.134592 1.31992 
6585 1 -3.72817 3.34723 5.77089 
13495 1 3.37799 4.02927 -3.7298 
13496 3 3.99516 -0.0903126 3.29817 
13497 1 -1.93374 -0.74397 7.49747 
21020 2 -2.29533 2.58611 1.88131 
21021 1 5.06126 2.41523 2.57481 
4189 1 -0.31882 0.214656 -2.43473 
4190 2 0.319341 6.19567 -2.86087 
4191 1 -4.47133 -3.0791 -3.82712 
17873 2 0.471193 -0.411518 2.05803 
17874 1 3.54628 1.24156 -6.04925 
5565 1 4.67549 -0.335964 6.20371 
3607 1 -5.64003 1.85023 -1.96184 
5563 1 -3.90667 -0.357829 -1.60003 
5564 2 0.140997 -0.0853646 3.03956 
17541 1 -3.3838 2.63497 -0.610804 
17540 2 1.16162 2.55178 -2.43433 
17539 1 -1.39711 -4.14672 -3.42522 
3608 3 0.619541 3.58511 -1.23784 
3609 1 -4.5401 -0.226972 -3.88054 
17872 1 -0.444939 2.41214 0.105865 
128 3 -3.82771 -1.4954 -3.8442 
2472 1 6.53887 -2.65253 9.08688 
127 1 0.931384 1.01223 1.05369 
2469 1 -5.00496 1.07568 -3.23339 
129 1 0.760326 -3.65691 1.82283 
2467 1 3.177 -3.66459 4.83797 
2468 3 3.54628 -0.769224 0.221113 
13546 1 -3.36578 4.88375 -4.991 
13547 3 -5.51453 1.02422 0.76537 
19343 3 0.0214123 -1.05564 3.46481 
9873 1 -2.18066 -0.579382 1.90029 
19342 1 -0.186508 4.18147 3.79287 
19344 1 1.84812 -4.62608 -1.06387 
3581 2 1.16599 -5.2372 -1.32745 
5304 1 8.35671 -2.79095 3.43132 
3580 1 -3.21478 -0.494755 -3.60741 
3582 1 0.57569 -2.4355 -3.45544 
9871 1 -2.89578 2.50767 1.21061 
9872 3 2.45266 -3.49488 2.00246 
14037 1 1.97016 0.46466 0.486515 
14003 2 -0.507916 -5.98288 -0.684061 
14004 1 1.87018 5.73358 1.55941 
14002 1 0.412609 0.727088 5.17999 
9022 1 -3.8946 1.02525 4.53587 
9023 2 -0.00352851 -4.43432 -0.174937 
20122 1 -1.7764 0.404591 1.41278 
9024 1 -3.09567 0.949609 3.88713 
21520 1 0.629923 5.88741 4.69571 
21521 2 3.58739 0.378725 1.80966 
21522 1 2.6306 0.0121529 -0.606833 
17863 1 -8.24796 -5.04725 -0.227282 
17865 1 -0.509844 -2.91188 -7.30579 
17864 3 1.44823 0.112758 6.23366 
16570 1 -5.33517 1.30258 -1.11773 
16571 2 -0.90367 5.29026 -0.956234 
16572 1 -4.24906 -2.80153 -1.78687 
6464 3 -0.513146 -1.8441 6.91254 
6465 1 0.832464 -1.96086 -3.65101 
6463 1 1.14642 3.51118 -4.26718 
10183 1 3.4283 3.33252 2.39628 
10184 2 2.16259 1.35367 4.73916 
10185 1 4.53927 -0.331935 -4.89481 
7017 1 3.05936 -2.62242 -4.53201 
7016 2 2.8466 -0.474249 -2.4349 
7015 1 2.56383 3.96257 -4.63346 
6583 1 -1.43441 -2.34254 2.33289 
20022 1 -2.6551 1.66129 -3.32588 
20021 2 -3.21054 3.94215 4.22778 
20020 1 -3.56447 -2.89615 2.1322 
15414 1 -1.70656 1.64519 1.24583 
15413 3 -0.236017 -0.532098 -3.15189 
15412 1 2.71221 1.90306 -1.59138 
8814 1 -8.34296 1.46563 -2.23158 
8813 3 -0.456979 -4.60496 -0.104603 
8812 1 3.59095 2.24905 -2.51491 
16648 1 -2.71486 -4.62196 2.07497 
14035 1 -4.03893 -2.87312 2.49957 
12817 1 -0.584687 -0.56354 -0.347039 
12818 3 0.273655 -2.20658 -0.359555 
12819 1 1.62036 -4.07576 -0.766983 
1438 1 5.98806 2.97278 6.75904 
1440 1 1.28824 0.956682 -2.10966 
1439 2 0.665249 1.52692 -1.14462 
5303 3 0.312785 -0.842576 2.84454 
5302 1 -1.04595 -1.36173 0.400335 
14036 3 -1.17086 0.698881 -1.18264 
11202 1 -0.156106 1.30464 1.4766 
20124 1 -6.55384 -6.62038 -1.51984 
11200 1 5.8621 -0.351915 0.540608 
11201 3 3.24343 -1.6901 -1.06716 
19882 1 -6.71112 -1.78767 2.60675 
19883 2 -1.17193 4.49807 1.16356 
19884 1 7.77753 -9.64287 -3.41295 
7638 1 -1.1736 -5.17909 -1.72765 
7637 3 2.13083 0.503831 -1.99948 
7492 1 -2.46003 2.42463 -4.20124 
7493 3 -0.843418 -2.8415 -4.61432 
7494 1 4.90758 4.27705 1.35238 
8541 1 -5.63162 0.193798 -1.11741 
7636 1 -0.860065 6.68745 2.16919 
6744 1 1.78321 -0.962042 4.38205 
6742 1 -0.9792 1.62477 1.27583 
6743 3 -1.82579 -2.82151 -3.13118 
13400 3 -2.24546 1.04735 -0.359453 
13401 1 1.36576 2.59722 3.85739 
13399 1 0.570679 0.374283 -3.38827 
15141 1 2.00779 2.35954 2.2084 
15140 2 -1.64645 -0.7231 -1.27695 
15139 1 -3.22098 -0.919888 1.42968 
8539 1 -1.70474 6.72069 1.40393 
8540 2 -2.28857 0.570046 -1.70658 
18997 1 -2.80852 1.73991 -2.66301 
1992 1 5.4251 -0.818223 7.70799 
3232 1 1.71788 0.428656 3.09873 
6914 2 1.18894 3.15095 -0.146341 
6913 1 3.79875 3.24369 2.00881 
6915 1 1.48118 5.8507 -0.367496 
18010 1 -7.47944 5.17629 -5.76911 
18012 1 6.29872 0.326321 -4.05432 
18011 2 2.45144 -4.64832 -3.75915 
13560 1 -6.59178 -0.358636 0.477826 
13559 3 -1.078 2.41081 -4.10936 
9300 1 5.30874 -1.05709 4.85828 
13558 1 7.39973 5.4035 -3.08992 
9299 2 -2.366 1.52052 -0.316214 
9298 1 3.94602 0.233354 -0.011239 
6870 1 1.49896 3.24367 5.68949 
3856 1 -0.959786 -0.483952 -1.8968 
3857 2 -2.87591 -3.00618 -2.67068 
3858 1 -9.59423 4.67956 -2.24503 
16650 1 0.0733623 3.78882 -2.01264 
16649 3 1.58695 -0.332686 -2.48966 
16292 3 -0.742734 -2.20982 -1.22309 
16293 1 -2.68787 3.66235 -1.59894 
16291 1 -1.50176 -3.00482 -5.83445 
10822 1 3.68263 2.4142 4.218 
13154 2 3.09764 1.80413 0.304843 
13153 1 -0.0287817 -1.03356 -4.33182 
13155 1 -0.925914 -5.18519 1.62036 
12244 1 -0.752376 1.86254 0.233628 
14440 1 -2.42782 -1.86797 -2.15519 
14442 1 1.18494 1.9617 -0.846328 
14441 2 4.46739 -2.10768 1.47768 
12245 2 2.00313 -0.29397 1.55755 
18998 3 4.8438 2.14871 -1.13674 
18999 1 0.402906 0.0443867 2.91347 
8004 1 0.424333 1.25999 -1.81848 
8856 1 1.377 -0.19053 3.70175 
13776 1 -2.99915 -1.06026 10.3752 
8002 1 -2.45907 -1.39922 0.0162262 
8003 2 0.797417 1.78475 -2.48701 
5667 1 3.11727 0.048573 0.25561 
1991 3 1.09372 -2.27941 4.06301 
17555 2 -2.33844 2.76228 -4.95253 
17556 1 -2.5916 2.70519 -2.31017 
3233 2 1.45398 -1.44005 -0.357555 
3234 1 3.64797 0.614248 -2.54215 
17554 1 0.512392 0.0805678 -0.806619 
1990 1 2.73747 -0.769195 -3.18391 
7431 1 5.31533 -0.47808 -0.921992 
7430 3 1.67417 -0.42128 1.36114 
7429 1 1.96412 2.16735 0.143325 
6869 2 1.5972 -1.73738 1.71345 
6868 1 -0.524809 -1.81867 4.78565 
894 1 -6.30156 -1.44608 -2.66391 
893 3 -1.87197 7.37306 6.51105 
892 1 -0.142118 5.49407 -1.6169 
17978 3 -1.61293 -1.86913 -5.37044 
17979 1 5.15093 12.0507 -1.44291 
17977 1 -1.59197 5.0669 5.71335 
9048 1 0.407938 -2.93254 9.05861 
9047 3 6.56687 -2.27524 -1.09723 
9046 1 -2.57457 -6.28425 2.20452 
17796 1 -0.32133 2.42649 -6.43507 
17795 2 0.906999 -1.57543 -1.74112 
17794 1 -0.640459 1.3476 -5.65486 
7192 1 -4.2663 5.34238 -2.93112 
2146 1 -1.92603 -0.461401 5.65182 
2147 2 0.272206 -1.11193 2.1437 
2148 1 1.9117 -0.617046 0.122518 
10823 3 -6.02027 0.329245 -0.00723793 
10824 1 1.98329 -0.328807 4.07693 
12159 1 -0.49787 5.85331 1.95421 
12157 1 -3.44724 -3.97081 -4.53648 
12158 3 -2.43378 -1.07622 -0.970097 
4825 1 6.18877 -0.0131493 2.03256 
4826 3 0.182118 1.66142 1.54347 
4827 1 -0.0374062 0.792279 -2.28843 
13775 3 -3.71222 0.0268013 -0.565583 
13774 1 5.25659 -2.3307 -2.20044 
2707 1 0.976225 -3.12316 2.3285 
2708 3 -1.45987 -0.244089 0.85437 
2709 1 -1.15927 0.648618 -3.92677 
8593 1 -1.34244 -3.49621 -0.494158 
15917 3 -1.01022 0.334487 -0.216025 
15916 1 -5.5971 0.146186 -1.12504 
8595 1 1.73091 -4.83912 1.86176 
8594 2 -1.66738 2.2399 -1.79289 
15918 1 1.48215 4.73272 0.875656 
6477 1 -1.32954 -2.44153 -2.35575 
12636 1 -0.145735 1.46928 -3.35092 
6475 1 -1.61675 -5.15169 4.20282 
6476 2 1.70744 -3.10506 -2.48102 
12635 3 -1.51711 -3.79344 1.32488 
516 1 -4.8356 3.48157 -0.16254 
9693 1 -0.874075 0.930132 -4.64387 
9692 2 1.05189 3.36287 -2.74555 
9691 1 -1.9996 1.26404 -2.64575 
5665 1 -1.4746 0.725426 -1.52994 
5666 3 1.23409 0.0213135 2.52424 
9625 1 3.19944 -5.41222 -0.232258 
12634 1 0.559172 -1.85898 0.262768 
17940 1 0.701175 2.65053 -1.88629 
17938 1 1.34795 0.587906 -4.61661 
17939 3 -2.24124 -0.37499 0.847394 
17908 1 4.11385 -3.85093 -0.733553 
9627 1 -2.33519 10.1525 0.00975433 
17909 3 1.12704 1.2183 -1.25215 
17910 1 -1.65084 8.29231 0.826196 
9626 2 -1.70687 1.63103 1.05801 
825 1 -0.0164085 -0.896952 -0.854578 
823 1 0.446663 -2.08338 2.14411 
20402 3 1.05006 -1.37708 4.10701 
20401 1 -2.6703 -3.69276 -2.00757 
824 2 3.14978 0.525759 0.644839 
20403 1 -3.31152 -4.01491 -0.28361 
7031 2 -0.267555 -0.192843 0.675709 
18036 1 3.91617 -2.27158 -6.01143 
7193 2 -2.55915 -5.1765 -0.62463 
7194 1 -3.41951 1.16939 -1.10561 
18034 1 1.46503 -4.31683 4.45781 
18035 3 -2.13989 -2.81341 -3.02643 
7581 1 1.71248 3.57618 -3.08321 
9834 1 -2.97872 -2.77292 -0.532771 
7579 1 0.589253 -3.02941 -5.03461 
7580 3 -3.20577 -3.45551 -2.60722 
9832 1 -1.10884 2.97638 3.94459 
9833 2 -4.39774 -2.33948 0.556505 
20860 1 -0.947577 3.27835 -2.31462 
20861 3 -2.53892 -2.53571 0.325324 
20862 1 -2.05134 1.3059 -0.0312061 
16273 1 -5.82373 -3.79489 3.38866 
16274 2 1.17314 -3.69132 -1.67477 
16275 1 -1.06158 1.98634 1.45187 
7705 1 -1.96217 4.12957 0.635741 
7706 2 0.934838 0.839795 -0.0260833 
7707 1 -2.95793 4.96526 0.634209 
11025 1 -5.79489 1.68589 -3.34532 
11024 2 1.94008 -4.07501 -0.706392 
1768 1 -1.90651 -5.61114 -0.847485 
11023 1 5.03302 1.90149 5.07015 
1650 1 1.34415 2.07554 9.48719 
514 1 10.8416 1.07601 -1.121 
515 3 -0.583898 3.71833 -2.3051 
10788 1 7.67184 3.70408 -1.67742 
1996 1 1.20292 -2.35308 0.243727 
1998 1 -2.78724 6.46451 -0.587199 
1997 3 -6.1487 -2.60869 -0.099605 
20485 1 -3.30365 0.0430005 -0.279185 
20487 1 -0.0734014 -4.26074 0.320865 
20486 2 1.70551 -0.0908828 -2.46885 
7032 1 1.38321 -6.23848 1.35498 
16012 1 2.57635 -0.141431 -1.17759 
7030 1 5.98534 -2.57821 -3.10516 
16013 3 1.55107 0.416782 -0.401425 
16014 1 0.110685 -0.294241 -2.34306 
10295 3 1.54382 3.17869 1.56428 
10294 1 -3.66978 1.85806 3.46783 
13096 1 -1.7726 1.60119 -1.92353 
18288 1 3.48602 4.8323 7.55577 
18287 3 -0.820576 -1.06613 -1.23756 
18286 1 -1.3118 0.369747 4.18209 
9958 1 -5.81424 4.35642 -0.695447 
9960 1 -2.47325 6.09023 0.66435 
9959 3 -0.481813 -1.39901 3.1632 
1770 1 -2.62349 1.48486 1.32157 
1769 2 0.0153064 1.20807 -0.927735 
13958 3 2.80405 2.60384 -1.23246 
13959 1 -2.45238 7.35902 -0.959468 
13957 1 2.80662 0.906181 -9.01503 
11012 2 -3.11938 1.49442 2.59168 
11013 1 0.586755 3.69571 -2.56939 
1649 2 -4.49163 0.0680955 0.164572 
1648 1 2.19648 1.87424 2.03295 
11011 1 -2.07226 3.45421 -2.56054 
1194 1 -2.82625 4.34206 -3.95009 
1193 3 -0.740978 1.9218 -3.66209 
21140 2 -2.68807 2.34042 1.0268 
21139 1 -2.12213 -1.84191 6.9471 
15997 1 -0.296919 -6.51161 0.551856 
15998 3 0.319778 1.68474 4.0798 
15999 1 3.89273 4.298 -4.37306 
21141 1 5.46119 -0.202364 5.24008 
1192 1 6.34283 0.478801 1.39513 
19952 3 0.198009 1.738 0.874882 
19953 1 3.09939 0.993109 -4.7868 
3841 1 3.82997 -0.239032 -0.809836 
3843 1 -3.349 0.958414 1.49245 
3842 2 -1.69224 1.3437 -1.22742 
19951 1 4.31335 -5.13455 -2.05194 