ITEM: TIMESTEP
100000000
ITEM: NUMBER OF ATOMS
2703
ITEM: BOX BOUNDS pp pp pp
0.0000000000000000e+00 5.0000000000000000e+01
0.0000000000000000e+00 5.0000000000000000e+01
0.0000000000000000e+00 5.0000000000000000e+01
ITEM: ATOMS id type xs ys zs
14332 1 0.0198849 0.0225767 0.0266435
14333 3 0.0206418 0.0191144 0.0194863
14334 1 0.0229497 0.0178724 0.0120346
17373 1 0.17448 0.0484858 0.00313506
7262 2 0.334459 0.106636 0.00864039
7261 1 0.328463 0.106172 0.00284766
20627 3 0.364281 0.118637 0.0279233
18167 2 0.351146 0.111013 0.0161634
18168 1 0.356739 0.11574 0.0209207
18166 1 0.3438 0.109044 0.0131793
7263 1 0.341041 0.108277 0.0119829
20626 1 0.358404 0.116678 0.0224723
10758 1 0.136415 0.218198 0.00810568
10757 3 0.136008 0.225392 0.00346432
10756 1 0.140306 0.232561 0.00224167
14148 1 0.218449 0.259948 0.0311263
9358 1 0.146148 0.388414 0.031124
9359 3 0.151824 0.3883 0.0256407
9360 1 0.15941 0.389934 0.0250518
8583 1 0.162227 0.390528 0.024657
8582 2 0.170165 0.391474 0.022874
18940 1 0.085833 0.420946 0.00329175
8581 1 0.170298 0.399818 0.0233966
16389 1 0.170035 0.403183 0.0236397
16388 2 0.170434 0.411139 0.0237562
16387 1 0.177442 0.41275 0.0203756
20713 1 0.216516 0.420505 0.0241368
20714 3 0.222404 0.418326 0.018472
20715 1 0.229223 0.419255 0.0145464
20691 1 0.08013 0.435109 0.0119569
18942 1 0.0815372 0.432479 0.0110834
18941 3 0.0860374 0.425908 0.00899993
16826 3 0.0649993 0.44562 0.0306506
20690 3 0.0767022 0.441554 0.0159704
20689 1 0.072324 0.442977 0.0220343
16827 1 0.0709175 0.443735 0.0248177
8422 1 0.567589 0.492018 0.0232025
8423 3 0.575075 0.490764 0.0212469
8478 1 0.583333 0.496927 0.0196446
8424 1 0.580839 0.494843 0.0202878
6346 1 0.18608 0.604719 0.0225574
6347 3 0.191643 0.610596 0.0215297
6348 1 0.19035 0.618193 0.0238605
12661 1 0.338874 0.765045 0.00399626
12662 2 0.337911 0.757908 0.0015496
1566 1 0.348113 0.776001 0.0124388
1564 1 0.339393 0.768036 0.00459191
1565 2 0.341059 0.775718 0.00729742
9933 1 0.0804522 0.831113 0.00333852
18759 1 0.0808035 0.828275 0.00194987
9932 2 0.0785618 0.838514 0.00681447
16899 1 0.0796657 0.844483 0.0164106
9931 1 0.0791652 0.842836 0.0138768
16898 2 0.0804652 0.847861 0.0219157
16897 1 0.0874859 0.846942 0.0279784
17228 2 0.000326213 0.907956 0.000984718
15143 2 0.0278798 0.898546 0.0224875
15142 1 0.0234239 0.89294 0.0203226
15144 1 0.0332596 0.904012 0.0227452
436 1 0.094616 0.887461 0.00831161
437 3 0.0981887 0.881681 0.00208673
17227 1 0.00334051 0.914531 0.00374245
11640 1 0.399355 0.938205 0.030389
11356 1 0.393176 0.0899351 0.0338713
11358 1 0.391994 0.0786241 0.0434846
11357 3 0.39546 0.0840129 0.038163
20628 1 0.364866 0.118212 0.0348746
19247 3 0.460228 0.134026 0.051567
19246 1 0.458821 0.125753 0.0499161
19248 1 0.464746 0.130715 0.0573234
13377 1 0.0796611 0.199749 0.0402419
13376 3 0.0815802 0.20712 0.0399855
9892 1 0.217808 0.209295 0.0622511
6455 2 0.0810969 0.218282 0.0546213
6454 1 0.086076 0.220842 0.061182
6456 1 0.0817051 0.214605 0.0482169
13375 1 0.0816881 0.212834 0.0456517
9894 1 0.226033 0.221845 0.0616676
9893 2 0.221289 0.216156 0.0603759
14146 1 0.231121 0.267646 0.0354791
14147 3 0.223689 0.264028 0.0336864
13875 1 0.420517 0.301078 0.0484175
13874 2 0.427647 0.305703 0.0483582
13873 1 0.435108 0.306023 0.0501181
11484 1 0.0864564 0.362928 0.0590519
11483 3 0.0865565 0.354133 0.0578086
11482 1 0.0820657 0.3477 0.0558653
12677 2 0.0873253 0.373812 0.0602792
12678 1 0.0863729 0.366685 0.0596567
12676 1 0.0884902 0.38249 0.0608209
1414 1 0.131182 0.389251 0.0420253
1415 3 0.137111 0.386039 0.0379967
1416 1 0.143556 0.387453 0.0330767
5159 3 0.483965 0.42195 0.0315616
5158 1 0.477282 0.422301 0.0354957
5160 1 0.489223 0.416054 0.0330247
16825 1 0.0588326 0.446878 0.0346614
1125 1 0.489642 0.454483 0.0500977
1124 3 0.494193 0.459844 0.0458368
1123 1 0.494848 0.464579 0.0381756
17896 1 0.0415765 0.776758 0.0366965
17898 1 0.0544521 0.775198 0.0339508
17897 2 0.047107 0.776713 0.0316223
7610 2 0.235527 0.876941 0.0620691
7611 1 0.231493 0.882404 0.0574756
11639 2 0.394382 0.938828 0.0368876
1788 1 0.382594 0.925704 0.0614892
15171 1 0.383863 0.926471 0.0585717
11638 1 0.39161 0.934675 0.0435921
15169 1 0.390487 0.932806 0.0460644
15170 3 0.38964 0.927515 0.0523912
12430 1 0.452871 0.931236 0.0611054
3481 1 0.466211 0.964879 0.0373575
3482 2 0.462855 0.968544 0.0440081
3483 1 0.467969 0.974175 0.0455037
4237 1 0.469697 0.976737 0.045729
4238 2 0.474396 0.982804 0.0475939
4239 1 0.480573 0.985519 0.0520854
3216 1 0.482822 0.985696 0.0539324
3215 3 0.488671 0.985537 0.0595897
3583 1 0.241099 0.234334 0.0644554
3584 3 0.233123 0.23015 0.0649701
3585 1 0.227735 0.22447 0.0625618
20240 3 0.0544422 0.565049 0.0887224
20239 1 0.061563 0.568589 0.0866804
14295 1 0.241764 0.879989 0.0693016
7609 1 0.240028 0.878986 0.0670982
7058 2 0.251013 0.902441 0.0751281
14293 1 0.24946 0.891463 0.0758392
7059 1 0.25017 0.894413 0.075378
14294 3 0.246782 0.883498 0.0760713
16854 1 0.393352 0.887698 0.0863503
16853 3 0.401033 0.889716 0.0876305
16852 1 0.407294 0.891948 0.092365
7057 1 0.253191 0.909812 0.0772316
21584 2 0.342049 0.930275 0.0681138
21585 1 0.346939 0.936405 0.0696592
21583 1 0.341436 0.922681 0.0719233
1786 1 0.373909 0.918891 0.0734165
1787 2 0.379579 0.921958 0.069045
12431 3 0.445531 0.928609 0.064129
12432 1 0.439755 0.925474 0.0678412
7905 1 0.215843 0.942213 0.090162
7904 3 0.215673 0.944148 0.0823098
7903 1 0.221825 0.944726 0.076524
10600 1 0.255226 0.969661 0.0760974
10602 1 0.242443 0.978828 0.0710715
10601 3 0.247984 0.973765 0.0746819
20345 3 0.500447 0.987702 0.0749672
20346 1 0.503889 0.983522 0.0796842
20344 1 0.495704 0.986312 0.0689486
3214 1 0.493787 0.986449 0.0665167
5896 1 0.38729 0.054139 0.0998815
5898 1 0.378001 0.0575644 0.0981652
5897 2 0.384089 0.0622762 0.0999969
16713 1 0.0523211 0.0938 0.105955
16712 2 0.0579506 0.0994308 0.107543
16711 1 0.0614374 0.103837 0.112512
13248 1 0.0488551 0.102405 0.122336
18510 1 0.0628185 0.105425 0.114533
18509 3 0.0663099 0.108708 0.120541
16634 3 0.0727682 0.139823 0.122259
16633 1 0.0700124 0.142396 0.114791
7621 1 0.0564557 0.336083 0.121073
7622 3 0.059929 0.33593 0.113807
7623 1 0.062991 0.341321 0.108609
16119 1 0.0702973 0.538638 0.122249
9646 1 0.0686202 0.540507 0.121313
1540 1 0.0589607 0.555465 0.112006
9648 1 0.0597009 0.553085 0.113184
1541 2 0.0569127 0.561863 0.107771
1542 1 0.0566141 0.563324 0.10026
20241 1 0.0562623 0.563952 0.0971384
9647 2 0.0625768 0.545991 0.116637
20979 1 0.164601 0.61572 0.101003
20978 3 0.162139 0.617767 0.108998
20977 1 0.162055 0.615819 0.116843
2807 3 0.205245 0.76455 0.113598
2808 1 0.203327 0.765442 0.105437
16266 1 0.205109 0.761757 0.124203
2806 1 0.205376 0.762746 0.121064
6689 3 0.129276 0.892845 0.122159
6688 1 0.138199 0.892337 0.122204
6257 2 0.205037 0.927133 0.114309
6256 1 0.199658 0.920788 0.115497
6258 1 0.209128 0.931648 0.109352
12906 1 0.210657 0.933445 0.107478
12905 3 0.21368 0.938134 0.102226
10870 1 0.267863 0.935729 0.118134
12904 1 0.215544 0.941395 0.093883
10949 2 0.271985 0.956398 0.105988
10871 3 0.268032 0.942804 0.117834
10948 1 0.270335 0.950625 0.110472
10872 1 0.269682 0.948172 0.112483
10950 1 0.279801 0.956799 0.102536
4056 1 0.367769 0.969164 0.123072
13246 1 0.04466 0.112231 0.133707
13247 3 0.0459487 0.106614 0.128017
20330 2 0.0784997 0.115812 0.132878
20329 1 0.0726839 0.113017 0.127511
18508 1 0.0708692 0.111876 0.125884
20331 1 0.08661 0.117692 0.13576
16635 1 0.0750003 0.13697 0.129031
19261 1 0.0760644 0.136291 0.131801
19263 1 0.0806155 0.132971 0.148602
19262 3 0.0784357 0.13554 0.140565
6631 1 0.544864 0.353568 0.144256
6632 2 0.54644 0.350366 0.151514
6633 1 0.552035 0.346823 0.155861
16117 1 0.0811765 0.52768 0.127782
16118 3 0.0752382 0.533768 0.125827
3537 1 0.538099 0.643492 0.153096
5408 2 0.133851 0.685622 0.135871
5409 1 0.141212 0.688233 0.138318
5407 1 0.127924 0.691259 0.138873
16264 1 0.207755 0.753412 0.137038
551 2 0.509582 0.736361 0.13478
550 1 0.502674 0.73279 0.132855
552 1 0.513374 0.74359 0.137365
12070 1 0.51515 0.746107 0.138183
12071 2 0.520552 0.752376 0.138452
16265 2 0.205606 0.75933 0.132197
12729 1 0.238652 0.787226 0.135103
8184 1 0.240391 0.7858 0.134767
8183 2 0.246136 0.780485 0.133362
8182 1 0.249251 0.772773 0.133554
12072 1 0.524274 0.759151 0.138501
19402 1 0.530108 0.775202 0.14315
19403 3 0.529209 0.768848 0.138391
19404 1 0.52556 0.76181 0.138445
736 1 0.106159 0.817876 0.142843
12728 3 0.232895 0.792791 0.135352
12727 1 0.227101 0.798294 0.132185
738 1 0.110917 0.831082 0.15009
737 2 0.107988 0.82498 0.144746
4921 1 0.536294 0.876428 0.130558
5458 1 0.120528 0.895063 0.128198
6690 1 0.122945 0.894863 0.126719
3564 1 0.104001 0.890033 0.135681
5460 1 0.107196 0.891141 0.134326
5459 2 0.113234 0.894617 0.131696
3563 3 0.0974798 0.885959 0.139165
3562 1 0.094939 0.88377 0.14741
4923 1 0.520612 0.882838 0.129997
4922 3 0.528296 0.87914 0.129525
16342 1 0.201906 0.933104 0.138781
16344 1 0.191444 0.932075 0.149498
16343 2 0.196715 0.933741 0.144463
1100 3 0.165706 0.964206 0.155295
4054 1 0.379606 0.977741 0.129076
969 1 0.381205 0.980475 0.130185
968 2 0.385732 0.986491 0.131203
967 1 0.389326 0.991078 0.126641
4055 3 0.374302 0.972589 0.126251
9243 1 0.162254 0.0192789 0.167812
19938 1 0.177172 0.00940624 0.160418
9241 1 0.174807 0.0108128 0.161056
9242 2 0.168737 0.0155876 0.163555
19937 3 0.185093 0.00637382 0.157371
19936 1 0.192591 0.00303242 0.156823
5715 1 0.523415 0.145345 0.158002
5714 3 0.521222 0.146349 0.164724
5713 1 0.522483 0.15184 0.168815
20423 2 0.18161 0.208903 0.17951
20422 1 0.188117 0.20279 0.176903
20424 1 0.183885 0.215747 0.173648
604 1 0.0901039 0.337129 0.186559
16439 2 0.0474978 0.405892 0.161988
16438 1 0.0536409 0.406293 0.156912
16440 1 0.0443106 0.411997 0.166624
19526 2 0.346527 0.473532 0.167893
19525 1 0.340345 0.476495 0.169265
19527 1 0.354005 0.470548 0.168971
17044 1 0.526947 0.512779 0.176386
17045 3 0.527355 0.50772 0.182389
6223 1 0.0103441 0.528377 0.172674
6225 1 0.015893 0.517695 0.176429
6224 2 0.0155859 0.525272 0.177088
5530 1 0.51461 0.545431 0.169751
5532 1 0.527692 0.541722 0.171439
5531 2 0.522479 0.547687 0.170701
3535 1 0.544595 0.636078 0.164996
3536 3 0.538572 0.637124 0.159091
7294 1 0.150114 0.865098 0.185645
7296 1 0.157944 0.862745 0.172455
7295 2 0.154717 0.86513 0.179608
1099 1 0.171931 0.959993 0.157084
10917 1 0.161559 0.963393 0.166618
1101 1 0.162049 0.963637 0.16392
10916 2 0.16058 0.961992 0.17514
10915 1 0.163199 0.961373 0.182143
6325 1 0.164407 0.961592 0.184919
1591 1 0.400598 0.19451 0.195127
1592 2 0.395878 0.198075 0.199624
1593 1 0.390969 0.195754 0.206006
19558 1 0.388809 0.194865 0.208469
19559 3 0.38593 0.192504 0.216788
19635 1 0.333336 0.220112 0.214446
19633 1 0.330039 0.213369 0.20168
19634 3 0.332454 0.213926 0.209399
14941 1 0.311175 0.279962 0.213099
14942 3 0.311523 0.274458 0.217746
17531 2 0.0879195 0.333053 0.210974
606 1 0.08954 0.334095 0.201782
17530 1 0.0887915 0.334015 0.204227
605 3 0.0903508 0.3337 0.193241
17532 1 0.083107 0.335822 0.216826
153 1 0.162889 0.371937 0.212261
152 2 0.162068 0.365943 0.216293
1026 1 0.550082 0.459346 0.195884
1025 2 0.549453 0.467494 0.196043
1024 1 0.547327 0.475069 0.198679
14206 1 0.546512 0.478367 0.19961
13726 1 0.00827539 0.513389 0.203601
13728 1 0.0203831 0.514805 0.201105
17046 1 0.528909 0.504021 0.189434
14207 3 0.54456 0.485735 0.200542
14208 1 0.539063 0.491072 0.199691
231 1 0.536762 0.492693 0.199895
230 2 0.530796 0.498279 0.198999
229 1 0.529573 0.502442 0.192437
13727 2 0.0126974 0.517595 0.200999
14116 1 0.157796 0.561832 0.216801
15939 1 0.572392 0.571583 0.206355
15938 2 0.568174 0.569043 0.213552
18275 3 0.489835 0.690197 0.216522
18276 1 0.490469 0.6975 0.215078
813 1 0.50295 0.701125 0.203708
812 2 0.504477 0.70362 0.196948
811 1 0.510159 0.709617 0.197064
6326 3 0.168875 0.961277 0.19172
6327 1 0.175407 0.961744 0.196075
10388 2 0.044773 0.00986441 0.245987
10387 1 0.0401644 0.00700263 0.240024
17603 2 0.380405 0.181169 0.230972
17604 1 0.378198 0.177089 0.236933
19560 1 0.383678 0.188286 0.222282
17602 1 0.382563 0.186089 0.224426
14943 1 0.309074 0.270747 0.222789
12584 3 0.0904836 0.276653 0.240913
12585 1 0.0860498 0.273367 0.246746
12583 1 0.0949758 0.276079 0.232605
151 1 0.162295 0.35973 0.221901
9740 3 0.29041 0.39217 0.234431
9739 1 0.28372 0.392243 0.23044
9881 2 0.306198 0.387004 0.244267
9741 1 0.297815 0.39043 0.238075
9880 1 0.300521 0.389769 0.239756
9882 1 0.313 0.385794 0.249102
19112 2 0.453113 0.384204 0.245256
19111 1 0.457701 0.390813 0.246063
9430 1 0.45937 0.393039 0.246841
19113 1 0.450338 0.378646 0.239558
9431 3 0.463771 0.399238 0.249324
9432 1 0.471172 0.398336 0.249167
12226 1 0.553937 0.450678 0.223829
12228 1 0.559594 0.462526 0.230284
12227 2 0.556246 0.458019 0.224499
13194 1 0.572092 0.470483 0.236944
13193 2 0.563693 0.468199 0.238852
13192 1 0.560971 0.464101 0.232287
1432 1 0.173391 0.499267 0.241538
1433 2 0.172717 0.49354 0.245884
14118 1 0.163787 0.555702 0.229238
14117 3 0.161824 0.558267 0.222605
17740 1 0.563613 0.569341 0.223694
17742 1 0.562395 0.566966 0.23943
16073 3 0.564745 0.562891 0.249676
16072 1 0.562777 0.565944 0.242404
15937 1 0.565104 0.569424 0.22123
17741 3 0.560023 0.567749 0.231161
15665 2 0.384048 0.626971 0.242924
15664 1 0.388436 0.621264 0.245824
16707 1 0.38982 0.61923 0.246852
16706 3 0.393823 0.61237 0.249786
15666 1 0.378226 0.633407 0.243708
14239 1 0.119645 0.690098 0.247427
7546 1 0.117599 0.691805 0.247275
14240 3 0.125074 0.684588 0.249127
14241 1 0.12396 0.677154 0.24752
18274 1 0.491864 0.682474 0.219061
7548 1 0.111137 0.704823 0.244627
7547 2 0.112321 0.697361 0.247328
21432 1 0.292577 0.827807 0.246387
21431 3 0.299563 0.831444 0.24554
21430 1 0.297967 0.839314 0.248728
7218 1 0.46047 0.955515 0.248094
16085 3 0.0561313 0.0063702 0.26241
16086 1 0.0505545 0.00798665 0.255341
10389 1 0.0483176 0.00863108 0.252986
17374 1 0.0765102 0.0169305 0.271172
16084 1 0.0624949 0.00681983 0.26708
17376 1 0.0654035 0.00769075 0.26852
17375 3 0.0713426 0.0107644 0.271193
12103 1 0.338913 0.0796213 0.261133
12105 1 0.330044 0.0756388 0.250509
12104 3 0.335513 0.075209 0.256338
11906 2 0.429275 0.069033 0.278907
11907 1 0.427514 0.0658374 0.272358
8601 1 0.509699 0.209712 0.265533
8600 3 0.507484 0.212011 0.272934
8599 1 0.514126 0.214999 0.277266
16499 2 0.0257914 0.301313 0.28018
1878 1 0.00620982 0.321004 0.26464
2110 1 0.0223549 0.322011 0.264284
1476 1 0.02467 0.321132 0.266229
2112 1 0.00873105 0.321209 0.263202
1475 3 0.0301963 0.317308 0.27054
2111 3 0.0156463 0.321605 0.258879
16500 1 0.0287702 0.30729 0.275979
1474 1 0.029355 0.309747 0.274511
8546 2 0.117502 0.3598 0.26976
8547 1 0.12152 0.353984 0.273478
21588 1 0.477523 0.360571 0.268943
8545 1 0.113155 0.36597 0.272584
15642 1 0.31581 0.385971 0.25017
597 1 0.33227 0.38792 0.258284
15641 2 0.32218 0.387522 0.254145
15640 1 0.328985 0.387738 0.257097
7989 1 0.344121 0.382271 0.269832
595 1 0.343204 0.38379 0.267655
7988 3 0.347756 0.37814 0.277096
596 2 0.340475 0.388628 0.262268
1973 2 0.45779 0.379436 0.270829
1972 1 0.452056 0.385453 0.272192
21586 1 0.465237 0.372503 0.267681
21587 3 0.470368 0.365431 0.266627
1974 1 0.463113 0.374536 0.268486
14652 1 0.0327888 0.474014 0.253521
14651 2 0.0373296 0.479376 0.25513
14650 1 0.0403279 0.485774 0.250584
1434 1 0.176705 0.490489 0.251906
16074 1 0.564015 0.567545 0.256165
19528 1 0.338979 0.621646 0.263084
19530 1 0.346161 0.631209 0.274117
19529 3 0.341947 0.62717 0.267777
16705 1 0.398835 0.610046 0.25549
16209 1 0.400801 0.60959 0.258208
16208 2 0.406522 0.609328 0.26393
16207 1 0.412767 0.609282 0.268833
8198 2 0.42226 0.613871 0.273782
8199 1 0.415054 0.610198 0.270181
8197 1 0.429503 0.613564 0.279421
8772 1 0.431834 0.613874 0.281126
11054 2 0.146084 0.775973 0.269785
11053 1 0.144538 0.782465 0.274381
11055 1 0.145773 0.775512 0.26151
12310 1 0.182829 0.793891 0.276351
13813 1 0.197797 0.799156 0.267546
12312 1 0.195007 0.797808 0.268406
12311 2 0.187141 0.795274 0.269001
13814 3 0.204259 0.802436 0.266043
13815 1 0.208883 0.802818 0.259727
19509 1 0.439841 0.939309 0.269058
19507 1 0.451168 0.94373 0.259028
7216 1 0.452699 0.945183 0.25644
19508 3 0.446927 0.93983 0.265292
7217 2 0.455525 0.949055 0.250795
1406 2 0.513003 0.969236 0.272715
18543 1 0.462046 0.994431 0.272054
10572 1 0.490878 0.98228 0.28054
18542 2 0.467698 0.990929 0.277255
10571 2 0.496204 0.977403 0.277022
10570 1 0.503222 0.973929 0.274708
1405 1 0.505573 0.972557 0.2743
1407 1 0.52068 0.970905 0.274576
3156 1 0.524355 0.971986 0.274939
717 1 0.549093 0.971286 0.259044
716 3 0.548864 0.973583 0.267485
3155 3 0.53175 0.974307 0.276771
3154 1 0.538996 0.97346 0.272873
715 1 0.542096 0.973023 0.271052
10324 1 0.369091 0.0570127 0.290013
743 3 0.302414 0.0773941 0.311059
742 1 0.294695 0.0790731 0.309878
10325 3 0.364382 0.0621555 0.294182
10326 1 0.360547 0.0682498 0.299092
16944 1 0.358755 0.0703457 0.301249
16943 2 0.355251 0.0750331 0.306068
16942 1 0.350789 0.0788101 0.311174
11905 1 0.42745 0.0748944 0.28318
14264 3 0.0918016 0.104159 0.299038
14265 1 0.0963291 0.106804 0.293151
12141 1 0.0932401 0.105287 0.309925
14263 1 0.0932391 0.105316 0.306694
16498 1 0.0213123 0.295569 0.283346
7987 1 0.345589 0.377199 0.284073
3394 1 0.16448 0.616611 0.312272
1642 1 0.389223 0.628873 0.290534
1643 3 0.389684 0.635955 0.293096
8771 3 0.438062 0.615374 0.286587
8770 1 0.444121 0.619614 0.290076
9567 1 0.446642 0.621022 0.291748
9565 1 0.454032 0.628872 0.302822
9566 2 0.453133 0.624531 0.296423
1644 1 0.391253 0.64363 0.289065
15450 1 0.0268824 0.761885 0.311576
15449 3 0.0305881 0.763766 0.305037
15448 1 0.0340544 0.765016 0.297629
13236 1 0.0354276 0.76512 0.294732
13235 2 0.0397742 0.765606 0.288122
13234 1 0.0448579 0.76913 0.281755
12885 1 0.245049 0.775216 0.28495
12884 2 0.24662 0.783116 0.284202
12883 1 0.249626 0.791113 0.282542
16689 1 0.0746611 0.964636 0.310402
20515 1 0.0920583 0.953754 0.301002
5184 1 0.0894383 0.955784 0.302105
5183 3 0.0830333 0.960198 0.304994
5182 1 0.0769527 0.963673 0.309502
20517 1 0.102318 0.943796 0.295595
20516 2 0.0975175 0.949125 0.299487
13901 3 0.483816 0.989979 0.285733
18541 1 0.474382 0.990747 0.281682
13902 1 0.477267 0.990437 0.282961
13900 1 0.48862 0.98432 0.282063
16002 1 0.511987 0.0284367 0.313198
16001 2 0.506956 0.0286399 0.319362
16000 1 0.498923 0.0308046 0.318318
2935 1 0.500692 0.0340651 0.343096
744 1 0.30907 0.0780382 0.315194
17332 1 0.33656 0.0855274 0.317537
17333 2 0.343622 0.0856596 0.317676
17334 1 0.349385 0.0805235 0.313441
12139 1 0.092083 0.105182 0.326385
12140 2 0.0928631 0.107468 0.318279
1463 2 0.0302502 0.449275 0.326255
1464 1 0.0305948 0.442168 0.328691
1462 1 0.0340599 0.455936 0.326776
7343 3 0.19731 0.494136 0.341784
7342 1 0.195704 0.497599 0.335363
3395 3 0.166198 0.618301 0.319183
3396 1 0.171272 0.619859 0.325084
21019 1 0.141845 0.665906 0.342168
1778 3 0.289437 0.750683 0.33874
1779 1 0.282627 0.746428 0.335905
1777 1 0.296367 0.752513 0.341527
2471 3 0.0916671 0.778067 0.340891
2470 1 0.0942768 0.780197 0.334223
13548 1 0.154229 0.931749 0.342094
16688 2 0.0675497 0.968934 0.312935
16687 1 0.0625002 0.968794 0.319497
2936 2 0.495848 0.0280503 0.344103
11747 3 0.481426 0.0330286 0.355284
11748 1 0.475773 0.0309607 0.359367
2937 1 0.48925 0.0303187 0.348339
11746 1 0.486812 0.0309351 0.350292
10477 1 0.260782 0.378997 0.360203
10478 2 0.263357 0.38496 0.35808
10479 1 0.271054 0.388696 0.360486
19582 1 0.272808 0.390115 0.360942
19583 3 0.278638 0.395412 0.361098
19584 1 0.282642 0.40119 0.36333
17788 1 0.284979 0.403065 0.364469
17789 3 0.28971 0.407735 0.368096
17790 1 0.295066 0.404385 0.37447
3048 1 0.18978 0.479817 0.362377
3046 1 0.195571 0.488737 0.351637
7344 1 0.1959 0.490435 0.349139
3047 2 0.192568 0.485913 0.357858
6584 2 0.503644 0.595413 0.371916
6585 1 0.502811 0.593492 0.36434
13495 1 0.0238653 0.650888 0.357134
13496 3 0.0290586 0.65402 0.350163
13497 1 0.0366218 0.652091 0.347755
21020 2 0.13543 0.662694 0.34511
21021 1 0.128475 0.657451 0.344892
4189 1 0.109796 0.681634 0.352879
4190 2 0.111004 0.687609 0.357591
4191 1 0.108247 0.695241 0.355742
17873 2 0.153447 0.726282 0.35177
17874 1 0.160451 0.725044 0.347858
5565 1 0.42853 0.710838 0.351304
3607 1 0.430885 0.713113 0.35105
5563 1 0.415258 0.700831 0.35514
5564 2 0.422004 0.704991 0.35271
17541 1 0.443267 0.723453 0.358796
17540 2 0.450598 0.726578 0.363537
17539 1 0.450271 0.724812 0.372061
3608 3 0.436118 0.71856 0.352091
3609 1 0.440994 0.721956 0.356717
17872 1 0.147002 0.730574 0.353532
128 3 0.0771661 0.783672 0.350749
2472 1 0.0858347 0.781322 0.344389
127 1 0.083406 0.782092 0.345645
2469 1 0.0618786 0.764689 0.363082
129 1 0.073572 0.776952 0.35273
2467 1 0.0722522 0.774901 0.354219
2468 3 0.0660286 0.769378 0.357958
13546 1 0.167325 0.926974 0.348905
13547 3 0.161354 0.929345 0.343903
19343 3 0.180401 0.992753 0.361762
9873 1 0.178301 0.997359 0.371281
19342 1 0.178643 0.995621 0.368515
19344 1 0.177529 0.988346 0.356187
3581 2 0.173685 0.00805577 0.395708
5304 1 0.17089 0.00913052 0.405949
3580 1 0.171669 0.00862298 0.40322
3582 1 0.176368 0.00548172 0.387821
9871 1 0.1772 0.00436017 0.385413
9872 3 0.178344 0.00112787 0.377792
14037 1 0.302476 0.00647167 0.402388
14003 2 0.299506 0.0155649 0.396214
14004 1 0.301899 0.00890025 0.400623
14002 1 0.297566 0.0222955 0.393161
9022 1 0.579783 0.0699367 0.382588
9023 2 0.578364 0.0693459 0.389586
20122 1 0.582849 0.064723 0.398631
9024 1 0.581202 0.0664537 0.396227
21520 1 0.275485 0.110946 0.37798
21521 2 0.282487 0.109361 0.381798
21522 1 0.29129 0.10822 0.381874
17863 1 0.409363 0.145478 0.405227
17865 1 0.414269 0.145911 0.39342
17864 3 0.415216 0.144882 0.400937
16570 1 0.0520855 0.209845 0.406142
16571 2 0.0548731 0.204711 0.398834
16572 1 0.0499408 0.199599 0.396281
6464 3 0.301883 0.400687 0.382016
6465 1 0.303854 0.396276 0.388294
6463 1 0.296872 0.403654 0.376481
10183 1 0.0681455 0.57359 0.406223
10184 2 0.0738451 0.57774 0.401943
10185 1 0.0812417 0.579233 0.401465
7017 1 0.0840323 0.580316 0.401071
7016 2 0.0910938 0.583402 0.399555
7015 1 0.0938974 0.591106 0.398273
6583 1 0.503992 0.596712 0.37984
20022 1 0.137293 0.614372 0.405714
20021 2 0.140419 0.620751 0.402379
20020 1 0.142383 0.628935 0.400948
15414 1 0.143362 0.631672 0.400492
15413 3 0.146991 0.63873 0.401445
15412 1 0.15076 0.645759 0.399033
8814 1 0.152046 0.648362 0.397873
8813 3 0.154703 0.655305 0.394942
8812 1 0.157778 0.663317 0.393227
16648 1 0.256911 0.68708 0.40408
14035 1 0.304601 0.994386 0.403206
12817 1 0.328792 0.976179 0.397287
12818 3 0.335286 0.981389 0.398397
12819 1 0.342991 0.980626 0.397872
1438 1 0.34566 0.979857 0.397275
1440 1 0.360655 0.978895 0.395998
1439 2 0.353385 0.978345 0.396373
5303 3 0.16869 0.00925694 0.414447
5302 1 0.169126 0.0121717 0.421438
14036 3 0.303953 0.00221699 0.406675
11202 1 0.567132 0.0551695 0.416906
20124 1 0.581308 0.060115 0.409127
11200 1 0.579488 0.0597573 0.410973
11201 3 0.573128 0.0581806 0.416643
19882 1 0.0253447 0.0709387 0.416733
19883 2 0.0295351 0.0769562 0.416047
19884 1 0.0357088 0.0815077 0.416013
7638 1 0.0387882 0.0829984 0.4166
7637 3 0.045044 0.088627 0.418701
7492 1 0.495504 0.0843048 0.428792
7493 3 0.501765 0.0874849 0.430414
7494 1 0.509139 0.0898197 0.428771
8541 1 0.559558 0.089618 0.419256
7636 1 0.0517681 0.0926174 0.42022
6744 1 0.430255 0.117153 0.421588
6742 1 0.44326 0.110349 0.417163
6743 3 0.434346 0.112442 0.41731
13400 3 0.518851 0.0943845 0.425285
13401 1 0.511704 0.0913977 0.428105
13399 1 0.526621 0.0961545 0.427977
15141 1 0.529071 0.0968891 0.428357
15140 2 0.536732 0.0992587 0.429285
15139 1 0.544006 0.0976056 0.427285
8539 1 0.547046 0.0969787 0.425961
8540 2 0.555078 0.0951903 0.422904
18997 1 0.31095 0.239917 0.436629
1992 1 0.472718 0.362605 0.437473
3232 1 0.444234 0.395821 0.436196
6914 2 0.0602191 0.567571 0.4143
6913 1 0.0562182 0.568205 0.421055
6915 1 0.0655734 0.57223 0.407831
18010 1 0.370375 0.556072 0.419219
18012 1 0.382903 0.563589 0.416228
18011 2 0.37539 0.561017 0.41471
13560 1 0.0537397 0.596107 0.409256
13559 3 0.0596355 0.595725 0.415123
9300 1 0.0695348 0.597741 0.419617
13558 1 0.0668152 0.597808 0.417795
9299 2 0.076715 0.597887 0.422844
9298 1 0.0821942 0.598882 0.428457
6870 1 0.0837788 0.600289 0.431028
3856 1 0.329883 0.620786 0.431313
3857 2 0.326376 0.627057 0.432096
3858 1 0.320616 0.632961 0.429625
16650 1 0.253826 0.675136 0.411917
16649 3 0.253842 0.68127 0.408542
16292 3 0.0899349 0.707221 0.419292
16293 1 0.0809669 0.707359 0.418163
16291 1 0.0976653 0.708405 0.421679
10822 1 0.48473 0.0484956 0.465812
13154 2 0.487506 0.0568438 0.460117
13153 1 0.485322 0.0506073 0.464756
13155 1 0.493 0.0612569 0.454472
12244 1 0.0145515 0.240003 0.456082
14440 1 0.149762 0.241901 0.448923
14442 1 0.142384 0.230284 0.453498
14441 2 0.14816 0.233561 0.448345
12245 2 0.00743563 0.243187 0.457298
18998 3 0.313254 0.247054 0.439759
18999 1 0.31102 0.253586 0.444478
8004 1 0.3289 0.271138 0.448249
8856 1 0.00408743 0.286671 0.463518
13776 1 0.0416135 0.287063 0.468485
8002 1 0.319705 0.282477 0.449281
8003 2 0.324313 0.277345 0.444852
5667 1 0.0497104 0.358695 0.464534
1991 3 0.466763 0.363468 0.443716
17555 2 0.457212 0.378672 0.448323
17556 1 0.460912 0.372589 0.447054
3233 2 0.445242 0.39331 0.444958
3234 1 0.449266 0.385598 0.447558
17554 1 0.452006 0.383277 0.448295
1990 1 0.462854 0.369474 0.446195
7431 1 0.489326 0.42272 0.467629
7430 3 0.491733 0.419688 0.460682
7429 1 0.49545 0.417284 0.454109
6869 2 0.0888802 0.601232 0.438225
6868 1 0.0880822 0.597076 0.445116
894 1 0.0871831 0.595523 0.447797
893 3 0.0862164 0.591614 0.454487
892 1 0.0841972 0.590548 0.462955
17978 3 0.227551 0.786034 0.442686
17979 1 0.221857 0.78419 0.438424
17977 1 0.230356 0.790447 0.449027
9048 1 0.505041 0.829724 0.454571
9047 3 0.499817 0.834673 0.454702
9046 1 0.497048 0.840426 0.459253
17796 1 0.49649 0.842296 0.460976
17795 2 0.493742 0.847578 0.466922
17794 1 0.487174 0.851692 0.468415
7192 1 0.484514 0.853523 0.468731
2146 1 0.270716 0.964703 0.468577
2147 2 0.277737 0.968631 0.466111
2148 1 0.282835 0.974908 0.46284
10823 3 0.481626 0.0427444 0.469849
10824 1 0.475667 0.0431175 0.475296
12159 1 0.314397 0.095226 0.48433
12157 1 0.323771 0.0985884 0.493569
12158 3 0.31721 0.0950605 0.49235
4825 1 0.151733 0.205613 0.473072
4826 3 0.147652 0.211158 0.476449
4827 1 0.147467 0.218077 0.480462
13775 3 0.042256 0.29074 0.47534
13774 1 0.0386219 0.297799 0.479317
2707 1 0.262409 0.27596 0.492051
2708 3 0.265736 0.281815 0.48811
2709 1 0.273906 0.283167 0.486041
8593 1 0.495019 0.276952 0.471304
15917 3 0.521189 0.27973 0.47578
15916 1 0.51245 0.279476 0.474233
8595 1 0.509562 0.27898 0.473927
8594 2 0.500488 0.277219 0.475212
15918 1 0.529216 0.280853 0.47459
6477 1 0.169034 0.307278 0.499524
12636 1 0.167714 0.322199 0.488902
6475 1 0.168215 0.319391 0.489817
6476 2 0.169258 0.312002 0.491846
12635 3 0.165571 0.329311 0.486664
516 1 0.216917 0.322271 0.494279
9693 1 0.48928 0.319345 0.474356
9692 2 0.490889 0.312643 0.475357
9691 1 0.498765 0.310239 0.473086
5665 1 0.0421299 0.350118 0.475844
5666 3 0.0450419 0.354778 0.469618
9625 1 0.162652 0.357884 0.479983
12634 1 0.166084 0.337546 0.485155
17940 1 0.166108 0.340879 0.485051
17938 1 0.163791 0.355045 0.481109
17939 3 0.166429 0.348701 0.483963
17908 1 0.150478 0.371237 0.474529
9627 1 0.153086 0.369488 0.474998
17909 3 0.143686 0.374778 0.474632
17910 1 0.13729 0.378675 0.47301
9626 2 0.159667 0.365297 0.476836
825 1 0.313687 0.526541 0.469252
823 1 0.319191 0.533405 0.480974
20402 3 0.323204 0.540872 0.487376
20401 1 0.320327 0.535693 0.482959
824 2 0.316704 0.527245 0.475737
20403 1 0.326125 0.547791 0.492344
7031 2 0.0517199 0.683648 0.499946
18036 1 0.456593 0.860208 0.488858
7193 2 0.477494 0.857883 0.470974
7194 1 0.471465 0.857268 0.476158
18034 1 0.469397 0.857172 0.478116
18035 3 0.462977 0.858119 0.483969
7581 1 0.336509 0.0143635 0.525232
9834 1 0.335296 0.0300998 0.518682
7579 1 0.336699 0.0278759 0.51898
7580 3 0.339969 0.0207025 0.521183
9832 1 0.330269 0.0429307 0.520402
9833 2 0.330457 0.0361318 0.518591
20860 1 0.175755 0.198319 0.514235
20861 3 0.183342 0.201355 0.512212
20862 1 0.184379 0.20756 0.507826
16273 1 0.184896 0.21033 0.506235
16274 2 0.185955 0.216486 0.502722
16275 1 0.186243 0.223291 0.50011
7705 1 0.226221 0.234013 0.500246
7706 2 0.224482 0.230458 0.505708
7707 1 0.22025 0.227303 0.511951
11025 1 0.57896 0.230897 0.513737
11024 2 0.575007 0.237875 0.517851
1768 1 0.567135 0.238335 0.526482
11023 1 0.569209 0.238 0.524054
1650 1 0.509186 0.281412 0.526289
514 1 0.224824 0.326022 0.505809
515 3 0.220086 0.325663 0.500077
10788 1 0.00627917 0.53999 0.526362
1996 1 0.0178581 0.553247 0.531008
1998 1 0.0289186 0.561742 0.524347
1997 3 0.0230982 0.558814 0.529153
20485 1 0.213921 0.620844 0.528672
20487 1 0.226058 0.629229 0.529026
20486 2 0.220839 0.623668 0.525619
7032 1 0.0449778 0.685062 0.504263
16012 1 0.0555901 0.693667 0.502717
7030 1 0.0545511 0.691269 0.501896
16013 3 0.0602496 0.700278 0.50648
16014 1 0.0569966 0.707092 0.510739
10295 3 0.342488 0.859278 0.529722
10294 1 0.34729 0.85575 0.524516
13096 1 0.354546 0.960816 0.529146
18288 1 0.113029 0.0873427 0.540379
18287 3 0.119562 0.0909966 0.536061
18286 1 0.127122 0.0922818 0.5313
9958 1 0.334571 0.2109 0.553315
9960 1 0.349123 0.214638 0.548367
9959 3 0.342589 0.213818 0.55213
1770 1 0.557804 0.241554 0.539013
1769 2 0.561905 0.240847 0.532585
13958 3 0.504422 0.252247 0.551611
13959 1 0.508461 0.246806 0.557767
13957 1 0.503532 0.259602 0.548891
11012 2 0.504118 0.268219 0.543232
11013 1 0.503555 0.262217 0.547412
1649 2 0.511109 0.282466 0.533579
1648 1 0.508172 0.275904 0.538115
11011 1 0.507592 0.273168 0.540078
1194 1 0.292804 0.44604 0.55181
1193 3 0.298424 0.4515 0.553822
21140 2 0.427987 0.442611 0.558007
21139 1 0.424632 0.449311 0.560218
15997 1 0.439384 0.430133 0.536557
15998 3 0.439161 0.436134 0.542772
15999 1 0.434172 0.438476 0.549367
21141 1 0.432682 0.439354 0.551778
1192 1 0.30183 0.457949 0.557994