ITEM: TIMESTEP
100000000
ITEM: NUMBER OF ENTRIES
2532
ITEM: BOX BOUNDS pp pp pp
0 50
0 50
0 50
ITEM: ENTRIES c_binfo[1] c_binfo[2] c_binfo[3] 
1 411 14247 
2 14246 14247 
2 14245 14246 
1 14245 15268 
3 16865 16866 
3 16864 16865 
3 18553 18554 
3 18554 18555 
2 410 411 
2 409 410 
1 409 4768 
2 4768 4769 
2 17492 17493 
2 17491 17492 
1 15327 17491 
2 15326 15327 
2 14242 14243 
1 14242 17493 
2 10369 10370 
1 2274 10369 
2 10370 10371 
2 13292 13293 
1 10371 13293 
2 4769 4770 
1 11433 16866 
2 4756 4757 
2 11432 11433 
2 11711 11712 
2 4757 4758 
2 11431 11432 
1 11431 11710 
2 11710 11711 
1 4758 15133 
2 15133 15134 
1 2415 2697 
2 18532 18533 
1 18532 18555 
2 18533 18534 
2 10900 10901 
1 10900 18534 
1 5361 18813 
2 18812 18813 
2 5360 5361 
2 5359 5360 
1 5359 18100 
2 18100 18101 
2 15325 15326 
2 20050 20051 
2 3049 3050 
1 3049 20050 
2 4051 4052 
1 4051 18102 
2 18101 18102 
2 20051 20052 
1 10959 20052 
2 10108 10109 
1 10108 11712 
2 10109 10110 
2 17312 17313 
2 4052 4053 
2 3050 3051 
1 3051 10110 
1 17313 19566 
2 15134 15135 
2 19565 19566 
1 12990 19564 
2 19564 19565 
2 14981 14982 
2 12989 12990 
2 11579 11580 
2 14299 14300 
1 1530 14299 
1 2289 15135 
2 2414 2415 
2 2413 2414 
1 2413 11580 
2 18679 18680 
1 4671 18679 
2 18680 18681 
2 3790 3791 
1 3790 18681 
2 3791 3792 
1 5388 19305 
2 19304 19305 
2 5387 5388 
2 4670 4671 
2 11185 11186 
2 4669 4670 
1 4669 11185 
2 18811 18812 
2 17893 17894 
1 17893 18811 
2 17894 17895 
1 17895 18639 
2 20060 20061 
2 18638 18639 
1 3792 13147 
2 13147 13148 
2 20059 20060 
1 8265 9306 
2 8264 8265 
2 8263 8264 
1 8263 20059 
2 1723 1724 
1 1723 13279 
2 13279 13280 
2 13280 13281 
1 2655 4053 
2 2654 2655 
2 11696 11697 
1 9321 11697 
2 11680 11681 
2 2653 2654 
1 2653 11680 
2 11681 11682 
2 4262 4263 
2 4261 4262 
1 4261 13210 
2 13210 13211 
2 14980 14981 
1 4263 11079 
1 11682 15532 
2 15532 15533 
2 11078 11079 
2 11077 11078 
1 11077 16851 
2 8179 8180 
1 8179 14980 
2 16709 16710 
2 1529 1530 
1 8181 16708 
2 16708 16709 
2 8180 8181 
2 19739 19740 
2 1528 1529 
1 1528 14890 
2 14890 14891 
2 14891 14892 
1 3411 14892 
2 5386 5387 
1 5386 21046 
2 21046 21047 
2 21047 21048 
3 18740 18741 
3 18739 18740 
2 11134 11135 
2 2449 2450 
1 2449 18637 
2 18637 18638 
2 2450 2451 
1 2451 5754 
2 11135 11136 
1 11136 18741 
2 4199 4200 
2 4198 4199 
1 4198 10926 
1 4200 19926 
2 4541 4542 
2 4540 4541 
1 4540 14437 
1 4542 18633 
2 10925 10926 
2 19925 19926 
2 1724 1725 
1 1725 14439 
2 14438 14439 
2 14437 14438 
2 4081 4082 
1 4081 7749 
2 4082 4083 
2 7748 7749 
2 21455 21456 
2 10924 10925 
1 10924 21454 
2 21454 21455 
2 13538 13539 
2 13537 13538 
1 11841 13537 
2 11840 11841 
2 9320 9321 
2 11839 11840 
1 11839 13212 
2 7024 7025 
1 7024 9319 
2 9319 9320 
2 13211 13212 
1 7026 18846 
2 7025 7026 
2 16850 16851 
2 16849 16850 
2 18845 18846 
2 16579 16580 
1 16579 19740 
1 13290 18930 
2 16580 16581 
2 13288 13289 
1 13288 16849 
2 13289 13290 
2 9466 9467 
1 9466 16581 
2 16856 16857 
1 8067 16857 
2 8066 8067 
2 4892 4893 
2 4891 4892 
1 4891 21252 
2 2605 2606 
1 2605 4893 
2 16855 16856 
1 16855 21262 
2 8065 8066 
2 1720 1721 
1 1720 10762 
2 4924 4925 
1 4924 10764 
2 10763 10764 
2 10762 10763 
2 4925 4926 
1 4926 15660 
1 11685 13746 
2 11684 11685 
2 13745 13746 
2 3065 3066 
2 2482 2483 
1 2482 3064 
2 3064 3065 
2 14321 14322 
1 4083 13744 
2 13744 13745 
2 20737 20738 
2 8167 8168 
1 8167 20737 
2 14792 14793 
2 8168 8169 
2 9571 9572 
1 9571 15544 
2 15544 15545 
2 9572 9573 
2 7228 7229 
1 7228 9573 
2 7229 7230 
2 3679 3680 
1 3679 8169 
2 18928 18929 
1 13128 18928 
2 13127 13128 
2 13126 13127 
2 18347 18348 
2 18929 18930 
2 12235 12236 
1 12235 18559 
2 12236 12237 
2 18559 18560 
2 18560 18561 
1 978 6591 
2 6590 6591 
1 9141 19153 
2 19153 19154 
2 19154 19155 
2 12721 12722 
1 12721 18561 
1 1455 1537 
3 1537 1538 
3 1538 1539 
2 1454 1455 
2 4475 4476 
2 4474 4475 
2 661 662 
1 661 4474 
2 662 663 
1 1359 4476 
1 3066 3768 
2 3766 3767 
1 3766 7590 
2 7589 7590 
2 3767 3768 
2 7588 7589 
1 7588 9559 
2 9559 9560 
2 15658 15659 
1 15658 16306 
2 16306 16307 
2 16307 16308 
2 20738 20739 
1 1449 10101 
2 10100 10101 
1 8505 14322 
2 8504 8505 
2 8503 8504 
1 8503 11595 
1 16104 20739 
2 16102 16103 
1 16102 20670 
2 16103 16104 
2 11594 11595 
2 20264 20265 
2 14999 15000 
1 15000 20265 
1 6864 13129 
2 13129 13130 
2 13130 13131 
2 6863 6864 
2 6862 6863 
1 6862 21123 
2 20263 20264 
2 2293 2294 
1 2293 6358 
2 6358 6359 
2 6359 6360 
2 18346 18347 
1 852 18346 
2 851 852 
2 850 851 
1 6360 9804 
2 781 782 
1 781 850 
2 782 783 
2 16654 16655 
2 16655 16656 
2 6589 6590 
2 20479 20480 
1 19173 20479 
2 20480 20481 
1 19155 20481 
1 267 6589 
2 266 267 
2 265 266 
2 67 68 
1 67 265 
3 1954 1955 
1 1954 15822 
3 1955 1956 
1 1956 6729 
3 2213 2214 
2 9560 9561 
1 2214 9561 
3 2212 2213 
2 2824 2825 
1 2824 6678 
2 10099 10100 
1 10099 19600 
2 6677 6678 
2 3991 3992 
1 3991 9240 
2 3992 3993 
1 3993 6676 
2 6676 6677 
2 15796 15797 
1 15796 20143 
2 20143 20144 
2 19600 19601 
2 18434 18435 
1 18435 20668 
2 20668 20669 
2 20669 20670 
2 20144 20145 
1 3252 16611 
2 3251 3252 
2 3250 3251 
1 3250 14101 
2 14101 14102 
2 6191 6192 
2 17596 17597 
1 17596 17628 
2 17597 17598 
2 16610 16611 
2 6190 6191 
1 783 6190 
2 19172 19173 
2 19171 19172 
3 17486 17487 
1 14952 19171 
2 14951 14952 
1 13029 13704 
3 13703 13704 
3 13702 13703 
3 13028 13029 
2 15797 15798 
3 3970 3971 
1 3970 15798 
3 3971 3972 
3 8726 8727 
2 8768 8769 
3 8725 8726 
1 8725 8769 
2 8767 8768 
1 8767 18213 
2 18433 18434 
2 14102 14103 
2 9439 9440 
1 9439 18433 
3 13064 13065 
3 13063 13064 
3 12673 12674 
1 12673 17598 
3 12674 12675 
2 1570 1571 
1 1570 12675 
2 1571 1572 
2 836 837 
2 835 836 
1 835 12291 
2 15275 15276 
2 15274 15275 
1 15274 17485 
3 17485 17486 
2 12290 12291 
2 12289 12290 
3 5128 5129 
1 5128 12289 
2 979 980 
1 979 15276 
1 6909 13065 
3 5129 5130 
3 15268 15269 
3 15269 15270 
1 15270 17481 
2 10978 10979 
2 10979 10980 
2 17480 17481 
2 13291 13292 
2 5353 5354 
1 5353 13291 
2 5354 5355 
2 793 794 
1 793 5355 
2 17479 17480 
2 9526 9527 
1 9526 17479 
2 9527 9528 
1 9528 20568 
2 20567 20568 
3 19136 19137 
3 13825 13826 
1 13825 19135 
3 19135 19136 
2 10901 10902 
1 15657 19137 
2 15656 15657 
2 15032 15033 
1 11499 15325 
2 11498 11499 
2 13997 13998 
2 13996 13997 
1 13996 15033 
1 9660 13998 
2 794 795 
2 11497 11498 
2 1324 1325 
1 1324 11497 
2 17311 17312 
2 2426 2427 
1 2427 7435 
3 7435 7436 
2 2425 2426 
1 2425 17311 
2 1325 1326 
1 1326 14568 
2 11690 11691 
2 11689 11690 
1 11689 14982 
1 11691 20566 
2 20566 20567 
2 10895 10896 
2 10894 10895 
2 6205 6206 
1 6205 7767 
2 6206 6207 
1 6207 14301 
2 14300 14301 
2 15977 15978 
3 8623 8624 
3 8624 8625 
1 8625 15978 
2 15976 15977 
2 20081 20082 
2 20080 20081 
1 13827 19303 
2 19303 19304 
3 13826 13827 
1 1203 20082 
3 1202 1203 
2 10166 10167 
3 1201 1202 
1 1201 10167 
2 15031 15032 
1 15031 20061 
2 13148 13149 
1 8442 13149 
2 8441 8442 
2 8440 8441 
1 8440 17697 
2 17695 17696 
2 17696 17697 
2 1855 1856 
1 1855 17695 
2 1856 1857 
2 7286 7287 
1 1857 11695 
2 11695 11696 
2 14567 14568 
2 14566 14567 
1 5781 14566 
2 5780 5781 
2 12775 12776 
1 12775 18847 
2 12776 12777 
2 15533 15534 
2 18848 18849 
2 18847 18848 
1 15534 15931 
2 15931 15932 
2 15932 15933 
1 15933 17746 
3 17746 17747 
2 19738 19739 
1 12855 19738 
2 12854 12855 
2 14755 14756 
2 12853 12854 
1 12853 14755 
1 14757 15976 
2 14756 14757 
2 37 38 
2 5753 5754 
1 39 21196 
3 21196 21197 
2 38 39 
3 21197 21198 
2 10165 10166 
1 10165 18631 
2 18632 18633 
2 18631 18632 
1 4716 6471 
2 6470 6471 
2 4715 4716 
2 4714 4715 
1 4714 10794 
2 14273 14274 
2 14272 14273 
2 12172 12173 
1 12172 14272 
3 14434 14435 
2 578 579 
2 577 578 
1 577 14436 
1 13539 14274 
2 16717 16718 
2 5779 5780 
1 5779 16717 
2 16718 16719 
1 15546 16719 
2 3427 3428 
1 3427 14110 
2 18563 18564 
2 18562 18563 
1 12777 17829 
2 14197 14198 
1 14112 14197 
2 14111 14112 
2 17828 17829 
2 14198 14199 
2 17827 17828 
1 3036 17827 
2 3035 3036 
2 14110 14111 
1 2607 8107 
2 8107 8108 
2 3034 3035 
1 3034 8109 
2 8108 8109 
2 10775 10776 
2 10774 10775 
1 10774 17131 
1 9915 20986 
2 9914 9915 
2 9913 9914 
2 806 807 
1 807 9913 
2 2606 2607 
2 1040 1041 
1 1041 8065 
2 1039 1040 
1 1039 11365 
2 11365 11366 
2 11366 11367 
3 1672 1673 
1 1672 11367 
2 20986 20987 
3 1673 1674 
2 16726 16727 
2 16727 16728 
2 5752 5753 
1 5752 7977 
2 7976 7977 
2 7975 7976 
1 7975 16726 
1 7212 21198 
3 7211 7212 
2 14320 14321 
2 11683 11684 
2 5890 5891 
1 5890 11683 
2 5891 5892 
2 16843 16844 
1 5892 16843 
2 16844 16845 
2 5863 5864 
1 5863 14320 
1 5865 6469 
2 6469 6470 
2 5864 5865 
2 18952 18953 
2 12784 12785 
1 12784 18952 
2 18953 18954 
2 12173 12174 
2 6103 6104 
1 12786 14434 
2 6034 6035 
1 6034 12174 
2 6035 6036 
2 15545 15546 
2 21269 21270 
2 12715 12716 
1 12715 21270 
2 12716 12717 
1 12717 15919 
2 15919 15920 
2 16679 16680 
1 14199 16680 
2 16678 16679 
2 9139 9140 
1 9139 16678 
1 12237 21057 
2 9140 9141 
2 21056 21057 
2 21055 21056 
3 568 569 
1 568 21055 
1 5301 7273 
3 7273 7274 
1 7275 15820 
2 20987 20988 
3 5299 5300 
1 5299 20988 
3 5300 5301 
2 1453 1454 
1 1453 1674 
1 663 11523 
2 11522 11523 
2 11521 11522 
2 8746 8747 
1 8746 11521 
2 15659 15660 
2 8747 8748 
1 1497 6354 
2 1496 1497 
2 6352 6353 
1 6352 18954 
2 6353 6354 
1 11601 16308 
2 1495 1496 
1 1495 9238 
2 9238 9239 
2 4103 4104 
2 4102 4103 
1 4102 6103 
1 6036 6178 
2 6178 6179 
2 11600 11601 
2 11599 11600 
1 4104 11599 
1 6180 21463 
2 21463 21464 
2 6179 6180 
2 21268 21269 
2 14998 14999 
1 14998 21268 
2 6980 6981 
2 6979 6980 
1 6979 9330 
1 6981 13131 
2 10178 10179 
2 9329 9330 
2 9803 9804 
2 9802 9803 
1 9802 10179 
2 18172 18173 
2 1489 1490 
1 1489 18172 
2 18173 18174 
3 569 570 
1 570 17163 
3 17161 17162 
1 17161 18174 
2 4069 4070 
2 68 69 
3 17162 17163 
2 15821 15822 
2 15820 15821 
3 7274 7275 
1 8628 21328 
2 21328 21329 
2 21329 21330 
2 9239 9240 
2 19601 19602 
1 17205 18211 
2 18211 18212 
2 17204 17205 
2 21464 21465 
2 13336 13337 
1 13336 16791 
2 16790 16791 
2 13337 13338 
1 13338 19602 
2 17203 17204 
1 17203 21465 
2 15616 15617 
2 15617 15618 
2 10517 10518 
2 11716 11717 
2 10516 10517 
1 10516 11716 
2 16609 16610 
1 16609 17031 
2 17030 17031 
2 1490 1491 
2 12865 12866 
1 12865 16656 
1 1491 10518 
2 17029 17030 
1 14136 17029 
2 14135 14136 
2 14134 14135 
2 520 521 
1 520 14134 
2 12866 12867 
2 6059 6060 
1 6060 17487 
2 4070 4071 
1 4071 12867 
2 6058 6059 
1 69 6058 
2 14833 14834 
1 14833 21330 
2 14834 14835 
2 18212 18213 
1 1572 11566 
3 11566 11567 
3 11567 11568 
1 11568 14142 
3 14141 14142 
3 14140 14141 
1 8943 14140 
3 8941 8942 
1 8941 15379 
2 15379 15380 
1 15381 16188 
2 15380 15381 
3 8942 8943 
3 9790 9791 
1 9790 15951 
3 16187 16188 
3 16186 16187 
1 9792 16186 
3 9791 9792 
1 7656 15655 
2 15655 15656 
2 7655 7656 
2 7654 7655 
1 7654 9658 
3 9658 9659 
3 9659 9660 
3 2758 2759 
1 2758 13503 
3 833 834 
3 10616 10617 
3 10615 10616 
1 834 10615 
1 795 10617 
3 2759 2760 
3 7436 7437 
1 2760 7437 
3 18664 18665 
3 598 599 
1 598 18664 
1 600 10983 
3 599 600 
3 10982 10983 
3 10981 10982 
3 7765 7766 
1 7765 10981 
3 7766 7767 
3 959 960 
1 960 16465 
3 16465 16466 
2 7285 7286 
3 958 959 
1 958 7285 
3 12218 12219 
3 18665 18666 
3 19651 19652 
1 18666 19651 
3 19652 19653 
1 12219 14356 
3 14356 14357 
1 3429 19653 
3 14357 14358 
3 16466 16467 
3 65 66 
3 10021 10022 
1 10021 18849 
3 10022 10023 
1 10023 17997 
3 17996 17997 
1 66 19359 
3 16541 16542 
3 16540 16541 
1 16540 17748 
3 17747 17748 
2 10793 10794 
2 10792 10793 
1 1065 10792 
2 1063 1064 
1 1063 16845 
2 1064 1065 
3 14435 14436 
1 579 12217 
3 12217 12218 
3 12461 12462 
3 12460 12461 
1 7578 12462 
3 7577 7578 
3 7576 7577 
1 7576 18564 
2 3428 3429 
1 15921 18562 
3 21424 21425 
3 21425 21426 
1 4227 19357 
3 19357 19358 
3 4226 4227 
3 9226 9227 
1 9226 17133 
3 9227 9228 
2 17132 17133 
3 19358 19359 
2 17131 17132 
3 4225 4226 
2 805 806 
1 805 4225 
3 7210 7211 
1 7210 11226 
2 12785 12786 
2 11225 11226 
2 11224 11225 
1 11224 17292 
2 17291 17292 
2 17290 17291 
1 8454 17290 
2 6104 6105 
2 8453 8454 
2 8452 8453 
1 8452 15429 
3 5743 5744 
1 5743 6105 
3 19397 19398 
2 15920 15921 
3 5744 5745 
1 5745 19398 
2 7387 7388 
1 7387 17704 
3 17704 17705 
3 17705 17706 
1 17706 19872 
3 19870 19871 
1 19870 21426 
2 15428 15429 
2 15427 15428 
1 378 16789 
2 376 377 
1 376 15427 
2 377 378 
2 16789 16790 
1 7389 9328 
2 9328 9329 
2 7388 7389 
2 4484 4485 
1 4485 11718 
2 11717 11718 
2 4483 4484 
1 4483 6858 
2 10177 10178 
1 10177 16033 
2 16033 16034 
1 16035 19147 
2 19147 19148 
2 19148 19149 
2 16034 16035 
3 21241 21242 
3 8627 8628 
3 8626 8627 
2 521 522 
1 522 21243 
3 21242 21243 
3 13502 13503 
3 13501 13502 
1 13501 14071 
3 14071 14072 
3 14072 14073 
3 1892 1893 
3 7807 7808 
1 1893 7807 
3 832 833 
1 832 1891 
3 1891 1892 
3 10429 10430 
1 10429 16467 
3 10430 10431 
1 6927 10431 
3 7808 7809 
3 6926 6927 
3 6925 6926 
1 6925 9718 
2 9718 9719 
3 1526 1527 
3 1525 1526 
1 8448 14358 
3 8447 8448 
3 8446 8447 
3 64 65 
1 64 3138 
3 4156 4157 
1 4156 8446 
3 4157 4158 
3 3173 3174 
3 3172 3173 
3 17995 17996 
3 12068 12069 
3 12067 12068 
1 12067 17995 
1 12069 12720 
3 9509 9510 
2 2527 2528 
1 3 2527 
3 12719 12720 
3 1 2 
1 1 9508 
3 9508 9509 
3 2 3 
2 2528 2529 
1 1527 12460 
3 8266 8267 
3 8267 8268 
3 3136 3137 
1 3136 21424 
3 3137 3138 
3 15926 15927 
3 8561 8562 
3 8560 8561 
1 9228 20298 
3 20297 20298 
3 12718 12719 
3 19396 19397 
1 8268 19396 
3 9601 9602 
3 994 995 
1 994 9601 
3 995 996 
3 9602 9603 
3 15925 15926 
1 9603 15925 
3 5749 5750 
1 5749 20296 
3 20296 20297 
3 19871 19872 
3 5750 5751 
1 4680 5751 
3 6857 6858 
1 996 6856 
3 6856 6857 
3 4334 4335 
1 4335 19149 
3 4333 4334 
1 7809 11250 
2 11249 11250 
1 9720 10995 
2 9719 9720 
3 10994 10995 
3 10993 10994 
1 10993 17302 
2 11248 11249 
1 11248 13600 
3 13600 13601 
3 13601 13602 
1 4158 10494 
3 16657 16658 
3 10312 10313 
1 10312 16657 
3 10313 10314 
3 16658 16659 
3 17302 17303 
3 17303 17304 
1 10314 17304 
3 10493 10494 
3 10492 10493 
1 10492 16659 
3 11446 11447 
2 5707 5708 
1 5707 11446 
3 11447 11448 
2 5708 5709 
1 11448 15927 
3 5206 5207 
1 5206 12718 
3 5207 5208 
1 5208 5709 
3 1760 1761 
1 1761 4678 
3 4678 4679 
3 1759 1760 
3 4679 4680 
2 1568 1569 
2 1567 1568 
1 1569 15949 
2 15949 15950 
2 15950 15951 
3 8312 8313 
1 63 8313 
3 18401 18402 
3 18400 18401 
3 8311 8312 
3 10795 10796 
3 17201 17202 
3 5900 5901 
1 5901 7725 
1 9774 14910 
3 5899 5900 
1 5899 14908 
2 14909 14910 
2 14908 14909 
2 11728 11729 
2 11729 11730 
2 7724 7725 
2 7723 7724 
1 7723 11730 
3 14510 14511 
1 4404 14511 
2 16081 16082 
1 16081 16305 
2 21496 21497 
1 5478 21496 
2 5477 5478 
2 21497 21498 
2 5476 5477 
1 5476 9576 
3 14509 14510 
1 14509 21498 
3 18145 18146 
3 20315 20316 
2 13199 13200 
3 20314 20315 
2 13198 13199 
1 13198 20314 
3 5912 5913 
1 5913 20316 
3 5911 5912 
2 15410 15411 
1 3477 5911 
2 3476 3477 
2 3475 3476 
1 3475 15411 
2 11090 11091 
3 16304 16305 
3 16303 16304 
1 16303 18513 
2 3916 3917 
1 3916 11091 
2 3917 3918 
2 20317 20318 
2 20318 20319 
3 18146 18147 
2 10331 10332 
2 10330 10331 
3 1858 1859 
3 13060 13061 
2 10802 10803 
1 1188 10801 
2 10801 10802 
2 20920 20921 
1 15345 19875 
2 15344 15345 
3 62 63 
3 61 62 
1 61 15343 
2 15343 15344 
3 17048 17049 
3 17047 17048 
3 1859 1860 
2 8389 8390 
1 1860 8389 
3 1187 1188 
3 1186 1187 
1 1186 18400 
2 12799 12800 
1 12799 19639 
3 19639 19640 
1 10797 12801 
2 12800 12801 
3 10796 10797 
2 19006 19007 
3 8959 8960 
1 8959 17047 
3 6446 6447 
1 6447 19006 
3 6445 6446 
1 6445 8961 
3 8960 8961 
3 9514 9515 
3 9515 9516 
3 1217 1218 
1 1218 10861 
2 10861 10862 
3 10207 10208 
3 10208 10209 
1 10209 20898 
3 20897 20898 
3 17200 17201 
3 20896 20897 
1 9975 17200 
3 9974 9975 
1 16362 20896 
3 13942 13943 
3 13943 13944 
3 2953 2954 
1 2953 13944 
3 2954 2955 
2 10862 10863 
1 2778 10863 
2 2777 2778 
2 2776 2777 
2 3343 3344 
2 9773 9774 
3 9973 9974 
2 9772 9773 
1 9772 9973 
1 12708 16773 
2 20495 20496 
2 20326 20327 
1 20326 20496 
1 2955 12706 
2 12706 12707 
2 12707 12708 
2 16772 16773 
2 1774 1775 
1 1774 2776 
2 19142 19143 
2 1775 1776 
1 1776 18742 
2 18742 18743 
2 18743 18744 
2 5620 5621 
1 5620 18744 
2 3344 3345 
1 528 3345 
2 4403 4404 
2 20743 20744 
2 1045 1046 
1 1045 20743 
2 527 528 
2 4402 4403 
1 4402 14119 
2 14119 14120 
2 14120 14121 
1 14121 18303 
2 20744 20745 
1 18705 20745 
2 18704 18705 
2 18703 18704 
1 5343 18703 
3 5342 5343 
2 8084 8085 
2 8083 8084 
3 3478 3479 
1 3478 8083 
1 8085 12672 
3 3479 3480 
2 16082 16083 
1 7575 15210 
2 15209 15210 
2 16771 16772 
2 15208 15209 
1 15208 16771 
2 7574 7575 
2 12671 12672 
2 12670 12671 
1 12670 16083 
2 18512 18513 
2 18511 18512 
3 9574 9575 
1 9574 18511 
2 4354 4355 
1 4354 19143 
2 9253 9254 
1 9253 12402 
2 9254 9255 
1 4356 7573 
2 7573 7574 
2 4355 4356 
3 9575 9576 
2 5621 5622 
2 18151 18152 
1 18151 21313 
2 19961 19962 
2 21313 21314 
1 19962 21315 
2 21314 21315 
1 8859 21475 
2 12401 12402 
1 3567 5622 
2 3566 3567 
2 3565 3566 
1 3565 4773 
3 4772 4773 
3 4771 4772 
1 4771 20446 
3 20446 20447 
2 8858 8859 
2 10054 10055 
2 10055 10056 
2 7816 7817 
1 7816 10054 
2 11888 11889 
2 11887 11888 
1 11887 16447 
2 7817 7818 
1 7818 9255 
2 11089 11090 
1 2901 11089 
2 2900 2901 
2 2899 2900 
1 2899 12900 
1 11889 14094 
2 14093 14094 
2 19960 19961 
1 19960 21072 
2 21071 21072 
2 21070 21071 
1 15180 21070 
2 15179 15180 
2 12899 12900 
2 21475 21476 
2 9995 9996 
2 9994 9995 
2 12898 12899 
1 12898 21477 
2 15152 15153 
2 15151 15152 
2 8857 8858 
3 20447 20448 
2 6193 6194 
1 6193 8857 
1 4605 20319 
2 4604 4605 
2 4603 4604 
2 6994 6995 
1 6994 20448 
2 6995 6996 
2 20648 20649 
3 6724 6725 
3 6725 6726 
2 5374 5375 
1 5374 6726 
2 5375 5376 
2 16448 16449 
3 13061 13062 
1 16449 18147 
2 16447 16448 
2 4528 4529 
1 4528 21222 
2 21221 21222 
2 4529 4530 
2 21220 21221 
2 15409 15410 
2 20921 20922 
2 17185 17186 
1 17185 20922 
1 9099 17073 
2 17186 17187 
2 15178 15179 
1 6906 15178 
2 14765 14766 
2 14764 14765 
1 14764 19873 
2 19873 19874 
2 3814 3815 
1 3814 14766 
2 19874 19875 
2 5990 5991 
1 3576 5991 
2 17072 17073 
2 6904 6905 
1 6904 15870 
2 6905 6906 
2 21203 21204 
1 6054 21204 
2 13114 13115 
1 13114 21202 
2 21202 21203 
2 20647 20648 
1 5859 20647 
2 5858 5859 
2 5857 5858 
2 1441 1442 
1 1441 5857 
2 8390 8391 
1 2829 13062 
1 4530 8391 
2 2828 2829 
2 2827 2828 
1 2601 2827 
2 9097 9098 
1 9097 17155 
2 17155 17156 
2 3547 3548 
1 3549 19641 
2 3548 3549 
2 3169 3170 
1 3169 3547 
3 19640 19641 
2 9098 9099 
2 17071 17072 
2 4582 4583 
1 4582 17071 
2 4583 4584 
1 4584 20151 
2 5989 5990 
2 20150 20151 
2 15869 15870 
2 15868 15869 
1 7329 15868 
2 6053 6054 
2 6052 6053 
1 6052 19008 
2 19007 19008 
2 7328 7329 
2 7327 7328 
1 7182 7327 
2 7181 7182 
2 17990 17991 
2 15643 15644 
2 15644 15645 
1 15645 17989 
2 17989 17990 
2 20149 20150 
2 3853 3854 
1 3853 20149 
1 9516 10215 
3 10214 10215 
3 1216 1217 
3 12131 12132 
3 12130 12131 
1 12130 14158 
2 14158 14159 
3 16361 16362 
3 16360 16361 
2 4789 4790 
1 4789 16360 
2 14309 14310 
3 10213 10214 
1 10213 14310 
2 14308 14309 
1 14308 16165 
2 16165 16166 
2 15929 15930 
1 14283 15928 
2 15928 15929 
2 14282 14283 
2 1936 1937 
1 1936 15930 
2 1937 1938 
1 1938 14862 
2 14861 14862 
2 14860 14861 
2 8128 8129 
1 8128 14860 
2 8129 8130 
2 18707 18708 
2 4790 4791 
1 4791 18909 
2 2369 2370 
1 2370 18708 
1 1047 2368 
2 2368 2369 
2 18706 18707 
2 8893 8894 
1 8893 18706 
2 6635 6636 
1 6636 20494 
2 20494 20495 
2 6634 6635 
1 6634 14281 
2 14281 14282 
2 3781 3782 
1 3781 10935 
2 10771 10772 
1 10771 13807 
2 13807 13808 
2 3782 3783 
2 13808 13809 
2 10933 10934 
1 10773 10933 
2 10772 10773 
2 284 285 
2 40 41 
1 40 3783 
2 3934 3935 
1 3934 19141 
2 19141 19142 
2 7187 7188 
2 3935 3936 
1 10800 13809 
2 10799 10800 
1 3936 7188 
1 14601 19918 
2 19918 19919 
2 19919 19920 
2 14600 14601 
1 7053 8152 
2 18152 18153 
2 15362 15363 
2 7186 7187 
1 7186 15363 
2 15361 15362 
1 15361 18153 
2 3674 3675 
2 3673 3674 
1 3673 8761 
2 1046 1047 
2 8153 8154 
1 8064 8154 
2 8063 8064 
2 8152 8153 
2 526 527 
1 526 6291 
2 6290 6291 
2 6289 6290 
1 6289 15367 
2 15367 15368 
2 18302 18303 
2 18301 18302 
2 4672 4673 
1 4672 18301 
2 4673 4674 
3 5341 5342 
1 5341 8092 
2 8092 8093 
2 8093 8094 
2 20327 20328 
2 11843 11844 
2 11842 11843 
1 11842 20328 
1 924 3480 
2 923 924 
2 986 987 
2 985 986 
1 985 9159 
1 5403 11844 
2 5402 5403 
2 10934 10935 
2 7850 7851 
2 7849 7850 
1 6684 7849 
1 285 19920 
2 6683 6684 
2 6682 6683 
1 5247 6682 
2 5246 5247 
2 5245 5246 
1 5245 6466 
2 6466 6467 
2 14599 14600 
2 12400 12401 
1 12400 19003 
2 19003 19004 
2 19004 19005 
2 580 581 
1 580 19005 
2 3229 3230 
1 3229 3393 
2 581 582 
2 5501 5502 
2 3391 3392 
1 3391 5500 
2 5500 5501 
1 5502 16411 
2 16411 16412 
2 15368 15369 
2 3392 3393 
1 4674 5140 
2 5140 5141 
2 16412 16413 
2 1487 1488 
2 1486 1487 
1 1486 16413 
1 5142 12766 
1 5019 12502 
2 12502 12503 
2 12766 12767 
2 5141 5142 
1 1488 2428 
2 16325 16326 
2 2429 2430 
2 2428 2429 
1 2430 5544 
3 5543 5544 
2 12503 12504 
3 3835 3836 
1 3835 12504 
3 3836 3837 
1 3837 16326 
3 5542 5543 
3 784 785 
1 784 5542 
3 785 786 
1 5136 9454 
1 9456 21408 
2 21407 21408 
2 9455 9456 
2 9454 9455 
2 922 923 
1 922 1308 
2 1307 1308 
2 5134 5135 
1 5134 10056 
2 5135 5136 
1 7851 9945 
2 9944 9945 
2 9943 9944 
1 9943 12453 
2 12452 12453 
2 15454 15455 
2 14125 14126 
1 14125 15454 
2 14126 14127 
2 14092 14093 
1 1887 14092 
2 1886 1887 
2 1885 1886 
1 1885 10233 
2 10232 10233 
2 10231 10232 
2 1396 1397 
1 1396 10231 
2 6467 6468 
2 5371 5372 
1 5371 15456 
2 5372 5373 
1 3231 18574 
2 18574 18575 
2 21476 21477 
1 6468 10464 
2 10463 10464 
2 10462 10463 
2 18575 18576 
2 6194 6195 
2 3958 3959 
1 3958 6195 
2 3230 3231 
2 15389 15390 
2 19741 19742 
2 19742 19743 
2 15388 15389 
1 15388 19741 
2 19664 19665 
1 12870 19665 
2 5017 5018 
1 5017 6996 
2 5018 5019 
1 5508 20649 
2 12767 12768 
2 3959 3960 
1 3960 12768 
2 5507 5508 
2 5506 5507 
1 5506 21513 
2 21512 21513 
3 2114 2115 
1 255 5376 
2 254 255 
2 13777 13778 
2 253 254 
1 253 13777 
1 14127 21220 
2 12451 12452 
1 11253 12451 
2 11252 11253 
2 11251 11252 
1 11251 13668 
2 13667 13668 
2 14729 14730 
2 15455 15456 
2 14728 14729 
1 3816 14728 
2 9197 9198 
1 9198 17187 
2 9196 9197 
2 8116 8117 
1 8116 9196 
2 3575 3576 
2 3574 3575 
1 3574 9996 
2 3815 3816 
2 5378 5379 
2 5377 5378 
1 5377 14854 
2 14854 14855 
2 9628 9629 
1 9628 19743 
2 9629 9630 
2 12545 12546 
2 12544 12545 
1 9630 12544 
2 16505 16506 
1 16506 17116 
2 13115 13116 
1 13116 19663 
2 19663 19664 
2 17116 17117 
2 16504 16505 
1 1443 16504 
2 1442 1443 
2 18676 18677 
2 16891 16892 
1 16891 18676 
2 16892 16893 
3 9667 9668 
1 9667 16893 
3 13100 13101 
3 13099 13100 
2 13018 13019 
1 13018 13099 
2 13019 13020 
1 13020 20578 
2 20578 20579 
2 83 84 
2 2600 2601 
2 5722 5723 
2 2599 2600 
2 1828 1829 
1 1828 5722 
1 1830 2599 
2 1829 1830 
2 5723 5724 
2 3170 3171 
2 13666 13667 
1 3171 13666 
2 17156 17157 
1 5724 16576 
2 16577 16578 
2 16576 16577 
1 2121 16578 
2 2120 2121 
1 4641 5989 
2 4640 4641 
1 5379 17157 
2 20117 20118 
2 2119 2120 
1 2119 4639 
2 4639 4640 
2 14935 14936 
1 14935 20118 
2 1871 1872 
2 14936 14937 
1 6972 14937 
2 7180 7181 
2 10678 10679 
1 10678 12546 
1 1872 10680 
2 10679 10680 
2 8096 8097 
3 9668 9669 
2 20579 20580 
1 6231 20580 
2 6230 6231 
2 6229 6230 
2 3854 3855 
1 3855 11376 
3 11375 11376 
3 11374 11375 
2 18530 18531 
2 10520 10521 
1 7299 10521 
2 1870 1871 
1 1870 10519 
2 10519 10520 
2 18529 18530 
2 4645 4646 
1 4645 14160 
2 4646 4647 
2 14159 14160 
1 1740 21103 
2 21103 21104 
1 4647 6829 
2 1739 1740 
2 1738 1739 
2 10481 10482 
2 10480 10481 
2 8894 8895 
1 9411 11107 
2 11107 11108 
2 11108 11109 
2 15791 15792 
1 11109 15792 
2 9410 9411 
2 9118 9119 
1 9118 21384 
2 9119 9120 
2 16166 16167 
1 2568 10798 
2 10798 10799 
2 2567 2568 
2 21104 21105 
2 2566 2567 
1 2566 9120 
2 17791 17792 
1 17791 21105 
2 17792 17793 
2 19414 19415 
1 1128 19414 
2 19577 19578 
2 19576 19577 
2 13366 13367 
1 13366 19576 
2 19415 19416 
2 13367 13368 
1 13368 19416 
2 14722 14723 
2 14723 14724 
2 18908 18909 
2 18233 18234 
1 10275 18234 
1 8895 18232 
2 18232 18233 
2 18907 18908 
2 5164 5165 
1 5164 18907 
2 5165 5166 
1 4257 5166 
2 10274 10275 
1 624 8062 
2 623 624 
2 622 623 
1 622 3652 
3 3652 3653 
2 15790 15791 
2 4849 4850 
1 4849 15790 
2 4850 4851 
3 3653 3654 
1 3654 15750 
2 41 42 
2 16352 16353 
2 16351 16352 
2 9157 9158 
1 9157 16351 
1 312 16353 
2 311 312 
1 7137 14596 
2 14596 14597 
2 7135 7136 
1 42 7135 
1 11310 16167 
2 16907 16908 
2 16685 16686 
2 7136 7137 
2 11309 11310 
2 11308 11309 
1 11308 16908 
2 16684 16685 
2 283 284 
1 283 16684 
2 310 311 
1 310 16686 
2 1127 1128 
2 5837 5838 
2 1126 1127 
1 1126 5838 
2 14702 14703 
2 7052 7053 
2 7051 7052 
1 7051 19923 
2 19922 19923 
2 19921 19922 
2 11059 11060 
1 11059 19921 
2 11060 11061 
2 8761 8762 
2 14701 14702 
1 14701 14724 
1 11061 12993 
1 1680 5835 
2 8762 8763 
2 5834 5835 
1 8763 18726 
2 18725 18726 
2 5833 5834 
1 5833 10273 
2 10273 10274 
2 18724 18725 
1 18724 20808 
2 8062 8063 
1 8307 16324 
2 8306 8307 
2 8305 8306 
1 8305 16903 
2 16903 16904 
2 16904 16905 
2 15749 15750 
2 15748 15749 
2 10246 10247 
1 10246 15748 
2 10247 10248 
1 10248 19497 
2 9158 9159 
2 19013 19014 
2 2557 2558 
1 2557 19014 
1 1398 7270 
2 5401 5402 
1 5401 7272 
2 7271 7272 
2 15098 15099 
2 7270 7271 
1 15099 17121 
2 17120 17121 
2 1397 1398 
2 5836 5837 
2 748 749 
1 748 5836 
2 749 750 
1 750 11400 
2 11399 11400 
2 14429 14430 
2 2125 2126 
1 2125 3675 
2 2126 2127 
1 2127 14428 
2 14428 14429 
1 582 19210 
2 19210 19211 
2 17671 17672 
1 17671 19212 
2 1900 1901 
1 1900 14430 
2 1901 1902 
2 19211 19212 
2 10609 10610 
1 10609 15369 
2 10610 10611 
1 10611 15390 
2 1679 1680 
2 1678 1679 
1 1678 6444 
2 6443 6444 
2 16324 16325 
2 20807 20808 
2 845 846 
2 20806 20807 
2 844 845 
1 844 20806 
1 846 19029 
2 4931 4932 
2 19495 19496 
2 19496 19497 
2 4930 4931 
1 4930 21157 
3 21157 21158 
1 786 21159 
3 21158 21159 
1 3606 16150 
2 16150 16151 
2 16151 16152 
1 16152 17158 
2 19012 19013 
2 3605 3606 
2 3604 3605 
1 3604 21406 
2 21406 21407 
2 718 719 
1 718 19012 
2 19283 19284 
1 720 19284 
2 719 720 
2 760 761 
1 760 21027 
2 1306 1307 
1 1306 11967 
2 11966 11967 
2 11965 11966 
1 11965 17841 
2 15097 15098 
1 9621 15097 
2 9620 9621 
2 11398 11399 
2 9862 9863 
1 9862 11398 
2 9863 9864 
1 5373 9619 
2 9619 9620 
2 1213 1214 
1 1213 13005 
2 1214 1215 
1 369 1215 
2 3448 3449 
1 3448 18576 
2 3449 3450 
1 3450 9864 
1 9336 9570 
2 9335 9336 
2 9334 9335 
1 9334 13030 
2 13031 13032 
2 13030 13031 
2 1444 1445 
1 1444 13032 
2 21374 21375 
2 12869 12870 
2 12868 12869 
1 12868 21375 
2 1445 1446 
2 21511 21512 
2 19028 19029 
2 19027 19028 
1 19027 19075 
2 19075 19076 
1 1446 19077 
2 19076 19077 
2 4682 4683 
2 20624 20625 
2 4681 4682 
2 19900 19901 
1 19900 21511 
2 19901 19902 
1 19902 20623 
2 20623 20624 
2 340 341 
1 340 20971 
2 20971 20972 
2 20972 20973 
2 341 342 
2 18340 18341 
1 14955 18340 
2 18341 18342 
3 20818 20819 
3 20819 20820 
3 2113 2114 
1 2113 20973 
2 14954 14955 
2 14953 14954 
1 14953 20820 
2 9950 9951 
2 9949 9950 
2 8017 8018 
1 8017 9949 
2 8018 8019 
2 1762 1763 
1 1762 8019 
2 19282 19283 
1 13779 19282 
2 13778 13779 
2 761 762 
1 762 4609 
2 4609 4610 
2 4610 4611 
1 4611 11560 
2 11560 11561 
2 14519 14520 
1 14520 20907 
1 3894 14518 
2 14518 14519 
2 3893 3894 
1 19275 19744 
2 19745 19746 
2 19744 19745 
2 367 368 
1 367 14730 
2 8117 8118 
1 8118 8193 
2 8192 8193 
2 3892 3893 
2 8191 8192 
2 4219 4220 
1 4219 8191 
2 4220 4221 
2 14855 14856 
1 14856 16338 
2 16336 16337 
1 16336 21373 
2 368 369 
2 16337 16338 
1 11826 16900 
2 11825 11826 
2 11824 11825 
1 11824 20569 
2 20569 20570 
2 21373 21374 
2 17117 17118 
2 890 891 
2 14467 14468 
1 891 14467 
2 889 890 
1 889 17118 
1 15351 18322 
2 15350 15351 
2 18322 18323 
2 18323 18324 
2 18677 18678 
2 7063 7064 
1 7063 20625 
1 990 4681 
2 989 990 
2 988 989 
1 988 18678 
2 7064 7065 
2 4966 4967 
1 4966 9951 
2 4967 4968 
2 19274 19275 
1 84 19273 
2 19273 19274 
2 82 83 
1 82 20188 
2 20188 20189 
2 20189 20190 
1 18642 20190 
1 6795 17787 
2 2480 2481 
2 18640 18641 
1 2481 18640 
2 18641 18642 
1 14670 19746 
2 14669 14670 
2 19009 19010 
1 19009 20116 
2 20116 20117 
2 19010 19011 
2 14668 14669 
1 14668 19011 
2 9542 9543 
1 4221 9543 
2 16900 16901 
2 16901 16902 
1 16902 19905 
2 19904 19905 
2 9541 9542 
1 9541 14571 
2 14570 14571 
2 6971 6972 
2 6970 6971 
1 6970 21394 
2 21395 21396 
2 21394 21395 
2 8173 8174 
2 8174 8175 
1 8175 18531 
2 5380 5381 
1 5380 8097 
2 5381 5382 
1 5382 17184 
2 8095 8096 
1 8095 18324 
2 17351 17352 
2 14018 14019 
2 14017 14018 
3 10928 10929 
1 9003 14017 
3 9002 9003 
3 9001 9002 
1 9001 10929 
3 10927 10928 
2 6794 6795 
2 6793 6794 
1 2985 6229 
2 2984 2985 
2 2983 2984 
1 2983 13093 
3 13093 13094 
3 13094 13095 
1 1020 13095 
2 19903 19904 
2 14569 14570 
2 7297 7298 
1 7297 19903 
2 7298 7299 
1 2019 20868 
2 20867 20868 
2 7394 7395 
2 7393 7394 
1 7393 20866 
2 20866 20867 
2 17183 17184 
1 7395 17182 
2 17182 17183 
1 2763 14019 
2 2762 2763 
2 2272 2273 
1 2272 13347 
2 13346 13347 
3 20815 20816 
3 20816 20817 
2 13345 13346 
1 13345 20817 
2 6829 6830 
2 6830 6831 
1 6831 14244 
2 14243 14244 
2 9217 9218 
1 3117 9217 
2 3116 3117 
2 9218 9219 
2 2273 2274 
2 8176 8177 
1 8176 20631 
2 20630 20631 
1 9219 21379 
2 21379 21380 
2 20629 20630 
1 4770 20629 
1 8178 8185 
2 8185 8186 
2 8186 8187 
2 8177 8178 
1 8187 9409 
2 9409 9410 
3 2695 2696 
3 2696 2697 
2 3044 3045 
2 21167 21168 
2 10957 10958 
1 10957 21166 