ITEM: TIMESTEP
100000000
ITEM: NUMBER OF ATOMS
6558
ITEM: BOX BOUNDS pp pp pp
0.0000000000000000e+00 5.0000000000000000e+01
0.0000000000000000e+00 5.0000000000000000e+01
0.0000000000000000e+00 5.0000000000000000e+01
ITEM: ATOMS id type vx vy vz 
3919 1 -1.83137 -0.346714 0.61881 
12639 1 -2.59845 6.304 8.27976 
6299 3 0.641125 2.66276 5.17612 
6300 1 2.82428 2.80549 1.54342 
6298 1 3.24906 -4.1442 -1.66589 
6497 2 1.98947 -1.14795 -1.37328 
6498 1 -5.97572 1.97444 0.280186 
16089 1 -1.09476 -0.076619 -4.14015 
16088 3 -2.39463 1.10708 -0.779964 
6496 1 -3.21077 -1.91194 0.374805 
3920 3 -4.24503 -3.19524 0.942144 
16087 1 0.249999 2.97978 3.92638 
3921 1 -2.96038 -2.44132 3.43345 
2947 1 2.06452 0.783385 -3.02099 
2924 2 -3.14718 0.673749 -2.62447 
2923 1 1.61073 -1.06616 -11.2528 
21417 1 1.19067 4.75651 -2.61499 
21416 3 1.42286 1.05357 -2.97101 
21415 1 -0.220208 -1.23251 1.4527 
21510 1 -4.22707 0.940646 -1.58901 
21509 3 1.96786 -1.19343 4.48356 
7072 1 3.27116 0.552936 -6.34445 
8466 1 -0.040018 2.80492 5.45563 
3040 1 0.0853702 -1.18272 -4.12805 
12638 2 6.76404 -1.2399 -1.85402 
12637 1 -3.22577 0.995625 3.76647 
10484 3 2.28565 -1.98529 -0.919856 
10483 1 -4.71058 2.84659 -0.719318 
10485 1 -6.5239 -3.38336 4.35522 
10411 1 -1.56022 -2.91987 0.224623 
10413 1 1.54944 -2.41906 -5.3627 
5275 1 -5.73182 -1.21733 4.28851 
5276 2 -0.979502 -0.970262 3.07247 
10412 2 2.80413 -0.475495 2.08027 
20386 1 0.949799 2.07611 0.451317 
355 1 1.74397 -2.08073 1.91603 
356 2 3.08173 -1.32956 4.48874 
357 1 -0.734551 2.61855 1.44181 
2948 2 2.21164 -0.983795 -0.442391 
2949 1 -4.47661 -1.85321 -3.79444 
15022 1 -2.94721 -3.53215 1.25496 
15023 3 -1.58589 3.93143 5.1389 
10855 1 2.91348 3.21385 -0.845976 
10856 3 -1.27016 -0.49479 0.987868 
18413 3 1.72944 2.01513 -2.33766 
15024 1 -2.22549 -2.38949 -3.51216 
18414 1 0.409717 4.40709 2.50891 
18412 1 5.66873 1.38146 3.9999 
18684 1 4.7778 -0.881965 -1.57419 
18683 3 0.664951 1.73518 -1.14188 
8190 1 -2.52259 5.10612 -0.747447 
14464 1 0.733765 1.6979 -3.20476 
13730 3 3.81807 -1.29091 2.11461 
8189 3 2.68362 3.36842 -3.02639 
8188 1 -8.7742 -1.22838 4.14248 
16401 1 0.402443 -2.65191 3.75754 
12119 3 -1.0039 2.38218 -0.021291 
12118 1 6.95077 2.96498 -2.79228 
5350 1 2.52786 1.7557 -5.80218 
5351 3 0.72316 2.36803 0.0687239 
5352 1 -4.66656 2.40128 -1.59363 
16481 3 1.6972 -0.8667 -4.53255 
13608 1 2.01302 0.728284 1.58705 
9445 1 -3.88211 5.81876 4.76985 
13607 3 -2.8787 -2.39687 1.66466 
9446 3 1.45082 -0.299966 0.351457 
16482 1 -4.15281 -1.49609 -3.88191 
13606 1 -7.1376 -0.780122 -3.6004 
20387 3 -0.855561 1.11819 -0.637369 
20388 1 7.1318 -2.06077 -2.80768 
9856 1 5.17359 6.25456 -0.256281 
9857 3 -0.0778375 0.00958433 -1.3791 
9447 1 5.78327 0.0346822 1.64284 
18386 3 2.77257 1.05994 -1.93995 
18387 1 -4.08216 -4.41848 0.581908 
9858 1 -2.22963 1.58965 -6.14384 
15934 1 4.62673 3.75327 -0.237585 
15935 3 0.143165 1.47545 -1.45667 
15936 1 3.30372 0.233713 1.80434 
11532 1 -0.0320762 -0.636909 2.84524 
19669 1 -2.54835 1.00577 0.41727 
11531 2 2.63659 0.908005 -4.11845 
16399 1 -5.26842 1.02607 0.123854 
16400 2 -1.10278 0.510529 -2.49536 
19670 2 3.90703 0.899673 -1.73193 
15814 1 3.04904 3.47691 -7.87461 
15815 3 2.35033 0.391479 0.624612 
15816 1 2.12321 -4.90241 0.151753 
15480 1 1.26284 0.700563 -2.35455 
14539 1 0.0200066 3.68606 -1.93998 
15479 3 3.72344 -2.99624 0.0228332 
15478 1 -6.88651 -3.2624 8.5351 
17637 1 -0.37359 -2.35743 1.29403 
17636 3 -0.826849 1.61846 -1.05518 
11263 1 4.83878 -0.782767 5.9594 
17956 1 0.732172 -3.75227 -1.01656 
11264 2 1.03609 1.3249 0.831142 
11265 1 -2.48342 -1.51859 0.664603 
17958 1 -1.98591 -3.91037 0.88869 
17957 3 0.890165 1.80582 -0.0423477 
7719 1 -0.0302862 -0.17738 -2.33418 
7718 3 3.09179 -3.08506 1.96683 
7717 1 -1.35878 -0.264359 0.422303 
17734 1 -0.956881 7.36139 0.871595 
17735 3 1.23247 -2.35035 -0.905682 
2925 1 4.4778 2.23756 -2.31371 
19671 1 3.21217 -2.90665 -2.83966 
909 1 0.601841 -4.78492 -1.56386 
908 3 -3.1306 0.827313 5.00136 
907 1 -2.157 -0.117854 0.398986 
12813 1 -2.46627 1.25337 -2.11669 
14540 3 2.91577 0.497475 1.18099 
14541 1 3.53325 8.61594 -7.89712 
21508 1 -0.207279 -3.64048 1.42484 
4039 1 0.582962 -0.782476 -3.2771 
4040 3 -1.14439 -0.644965 -1.96047 
6284 3 2.37347 -1.29378 5.08958 
4041 1 2.65283 -2.25603 1.02484 
5434 1 -5.25143 0.483926 3.46148 
5435 3 -1.20169 0.467197 0.310162 
5436 1 0.80695 -4.30518 0.285216 
3061 1 0.992577 2.8096 -3.03769 
2831 3 0.130308 -5.30519 -0.616477 
8797 1 0.887326 0.180218 3.32952 
2832 1 -0.670378 6.56603 0.00696865 
9442 1 -1.99145 0.0751064 -2.06065 
21249 1 7.0494 -4.68424 4.58419 
21248 3 0.221437 2.34074 2.04984 
2830 1 -4.96801 2.36951 -3.86627 
9444 1 -3.05477 -3.94865 -2.5459 
9443 3 2.09824 -5.63607 1.15381 
21247 1 -4.40277 -4.29651 -5.81668 
7073 2 0.782009 1.65545 -0.337352 
14920 1 0.133895 0.793483 -1.50191 
7074 1 0.248736 0.249275 6.42718 
14921 3 -3.94239 -3.31937 3.68808 
14922 1 3.50007 -2.6803 2.89049 
18111 1 4.13621 2.33066 5.22447 
18110 3 -3.39826 -1.57942 1.95719 
17077 1 -0.587184 -1.56345 -1.03735 
17078 2 0.842695 1.17589 -0.117503 
16769 3 2.33004 -4.49077 -0.391291 
16770 1 1.90745 10.0821 -2.14886 
16768 1 -3.10419 3.43835 0.899002 
9125 3 -2.45138 -0.275287 -3.50684 
9124 1 -2.56929 -0.430093 1.36295 
17079 1 3.78697 2.57061 -1.84984 
9126 1 3.94983 2.03376 3.9431 
14643 1 0.087384 -0.281244 0.819342 
14642 3 -1.37862 2.4076 -0.111966 
12171 1 2.30207 3.76043 1.47198 
14641 1 0.454536 -1.74757 4.19812 
19911 1 -3.48444 1.20849 0.414543 
8465 2 3.55467 4.97329 -0.446742 
7127 3 -4.16505 3.10019 4.66202 
8464 1 -0.91075 -7.07628 1.03636 
7123 1 -1.18888 -0.0868312 -2.64373 
7124 2 -2.99715 2.72341 -0.522445 
7126 1 6.01717 -2.486 2.97489 
10456 1 -2.30284 -2.17248 -2.66331 
10457 3 1.8295 -0.551185 -3.09953 
7125 1 -2.75319 -0.0262206 3.16778 
20701 1 -2.23262 -5.65947 4.44095 
20702 3 -1.98672 -0.104847 1.47615 
20703 1 -1.80102 2.81526 2.64901 
15808 1 2.27506 0.248681 -0.893258 
19909 1 3.23956 -2.75259 0.208533 
19910 2 -0.603818 1.96088 -1.60467 
7128 1 -1.12802 -0.660452 1.20718 
10841 2 -0.80886 -2.31878 0.238447 
10840 1 5.12278 4.72314 -4.1207 
10842 1 1.18673 1.1002 1.10427 
6184 1 -0.714163 1.76678 0.506556 
4514 3 -4.35748 6.68818 -3.12316 
4513 1 -8.52081 5.90111 -2.90557 
12005 3 -0.745189 -4.79355 -0.856994 
12006 1 2.25881 -1.51573 -1.00785 
4701 1 -3.23898 -0.799713 0.656092 
17546 2 1.28753 2.75384 2.05759 
7713 1 -1.13469 2.58795 -1.58703 
7712 2 2.1461 5.41296 2.06554 
17547 1 -1.77474 -1.95829 -0.0248654 
7711 1 -0.243171 -6.28564 3.61382 
16396 1 3.13276 1.2362 -5.32069 
16397 2 -4.15551 1.71468 2.56623 
14902 1 -4.20986 0.71808 1.19264 
16398 1 7.7199 1.0866 4.27034 
14903 3 -5.33058 1.38819 -2.50066 
14904 1 -5.19057 -1.28509 -2.97175 
19747 1 -0.909411 -5.97286 -3.1959 
3042 1 -4.08629 -5.98657 0.184451 
21555 1 -1.91638 1.45505 1.71392 
4621 1 -3.8169 1.12948 3.72251 
4622 3 2.1333 -0.0383699 0.548205 
4623 1 1.65038 -4.36098 -3.88803 
3041 3 -1.05475 1.54638 2.41043 
11222 3 0.495775 1.30615 0.112402 
19748 3 -2.13077 -2.42281 -0.215103 
19749 1 6.23536 2.82299 -8.46612 
4700 3 -2.67614 -2.43737 5.84926 
21553 1 4.99107 5.34516 0.296465 
21554 3 -2.49439 -1.06382 0.136013 
14025 1 5.78029 -1.62418 -1.40304 
14024 3 1.32018 -0.333325 -3.06728 
14023 1 -1.19893 3.68258 1.5704 
12891 1 -0.576206 2.29925 -2.24334 
4699 1 -0.836443 1.41711 6.36299 
6550 1 2.47318 -7.02043 2.70301 
6551 3 -0.353017 2.3306 4.29962 
6552 1 -1.19601 0.696324 0.186953 
19645 1 -0.346577 -3.80078 -2.12869 
19646 3 -0.210796 0.636665 1.25244 
2956 1 2.07029 -6.10495 7.08884 
20787 1 -3.69569 1.52418 4.5993 
20786 3 -0.845362 0.443242 1.08231 
2957 3 0.495313 2.35027 1.77806 
5277 1 1.50438 -4.76272 -0.0474505 
15861 1 1.80977 4.51088 -5.85067 
15860 2 -0.554571 -6.08105 -1.91444 
15859 1 3.02419 -0.823679 -1.35791 
1402 1 5.22658 -7.59944 0.476292 
20336 2 0.302654 0.90101 -1.58112 
20335 1 1.70893 9.89392 -0.708107 
6228 1 -1.85372 0.397459 -0.391718 
6226 1 0.29 -0.201744 -4.80232 
8435 2 0.770855 -1.33946 -0.719188 
8436 1 5.08076 -1.14474 -3.32042 
6227 2 -0.255565 1.37174 -2.03255 
3701 3 -1.82891 -2.6657 0.851188 
8863 1 -1.53274 0.41571 0.265929 
10962 1 -3.79548 -0.796279 1.8495 
10961 3 0.194217 -0.326832 -0.666962 
10960 1 0.597391 -2.19846 1.26232 
8864 3 -2.16318 -3.39564 -0.573197 
3702 1 -6.7402 3.12262 -2.25791 
12529 1 1.56259 5.16897 -2.11017 
8434 1 -3.25012 1.20605 4.12333 
3700 1 2.16878 -8.19707 4.29525 
16661 3 -1.65261 -1.40266 -1.34079 
16662 1 -2.12899 -3.97987 -2.10838 
8865 1 0.992051 5.01514 -0.0909054 
14350 1 2.62528 -1.83472 -1.61056 
14351 3 -1.94312 3.16767 -0.215133 
14352 1 1.92531 -1.65175 3.17704 
8338 1 1.43222 3.78575 0.273395 
9283 1 -1.40455 1.04459 0.198981 
16731 1 3.50634 3.73394 0.477254 
9284 3 1.51312 -3.71055 -0.0535177 
16730 3 0.45359 3.02967 -6.9905 
16729 1 1.97921 3.04255 2.06881 
16480 1 2.08416 -1.3266 -2.3328 
12890 3 2.36305 -0.404239 2.00931 
11221 1 4.38677 4.63155 1.28057 
20032 1 -5.81835 -5.9895 0.596761 
20033 3 -1.43381 3.25696 0.279735 
18268 1 -0.419889 -3.3217 0.62994 
12889 1 1.8528 -3.80153 -1.50177 
8339 3 -0.0827343 -3.87219 -2.63725 
8340 1 5.8762 -0.484877 -0.950691 
20034 1 4.20505 -1.829 6.40815 
4446 1 -5.03835 3.51162 6.05203 
18269 3 -0.142049 -1.28026 0.0174997 
12128 3 -0.624952 -2.98345 -1.04463 
18270 1 -4.83636 -6.82319 -2.84345 
12127 1 -0.379462 5.00831 0.279231 
3287 3 -0.851654 2.02579 -2.12531 
3286 1 0.910863 1.62886 -2.68009 
15852 1 -6.06759 4.30935 -0.279834 
19647 1 3.46945 1.47863 0.159489 
3288 1 1.84242 -1.17556 -0.788298 
10857 1 1.20114 6.27201 3.67744 
15375 1 -2.56316 -1.79472 2.55391 
2958 1 -2.60342 -6.6228 1.97051 
589 1 0.117974 2.20671 -0.674408 
15851 3 2.32451 0.178646 -0.809667 
1403 3 -1.67059 -5.49588 -1.4401 
1404 1 -0.203004 -0.916415 2.60836 
20805 1 -0.368041 -2.35665 3.37709 
20804 3 -2.51183 -1.48316 2.08396 
20803 1 -0.330941 0.0144119 0.530548 
18682 1 3.02404 0.65056 2.77643 
21226 1 2.86444 3.67145 -6.88839 
21228 1 0.0661999 -4.63681 1.30115 
12345 1 2.03881 3.1807 1.34344 
12344 3 1.14729 0.160516 -1.08292 
21227 3 2.43827 4.92503 -3.77371 
12343 1 -4.44405 1.43886 3.675 
20511 1 0.176406 -4.59682 -1.25596 
15631 1 -0.248428 1.17822 -3.8672 
15632 3 4.20258 3.92164 -0.794946 
20337 1 2.07283 -2.32188 4.82626 
13729 1 -3.20171 0.957206 0.854842 
14465 3 0.771457 -5.13401 1.83514 
14466 1 8.53885 1.8845 5.23126 
11373 1 3.16711 6.88706 -2.74341 
13731 1 -2.11174 -5.12459 2.01501 
16660 1 1.73777 6.93304 -2.63906 
12120 1 1.73081 -3.64711 0.290954 
10991 3 0.580161 -2.30327 1.86249 
15653 3 -0.27029 1.02985 -0.986053 
10992 1 5.05613 -0.348604 0.442979 
15654 1 -2.63238 -0.622164 0.446121 
14988 1 5.77913 -1.95093 1.37084 
14987 3 1.0811 -2.93119 4.82498 
14986 1 6.72988 0.0293874 -8.84641 
4888 1 -0.54675 6.45288 3.93251 
15652 1 2.11209 -5.8788 -1.93943 
6861 1 -1.14386 -0.727747 -1.49993 
4635 1 3.46551 -0.369692 5.48593 
6860 3 -1.34366 -0.755412 0.272573 
21378 1 -5.85883 3.55673 -10.2926 
6859 1 1.26642 2.51336 -1.97795 
7603 1 -0.0772689 1.29911 1.61735 
21377 3 0.500409 1.9439 1.38502 
4634 3 1.43556 3.52443 -1.87996 
20009 3 3.16397 2.15523 3.90948 
20010 1 -1.97324 1.43348 5.26451 
16395 1 -0.470807 1.05607 0.278979 
15850 1 -1.32331 -0.786892 -6.37433 
20008 1 0.437417 -6.9197 -5.30818 
4633 1 -1.11327 0.865503 -1.13239 
20680 1 -4.34977 -3.03522 4.4922 
15374 3 -1.74786 1.46794 -1.54967 
15373 1 -1.42239 -5.57948 -4.30434 
18385 1 -0.714386 -2.42294 1.28212 
15482 3 0.956518 -0.551797 -0.408962 
15481 1 -1.40284 3.27626 0.548738 
15483 1 2.0747 -0.137942 -0.0809495 
5482 1 -4.22471 1.99814 -3.40602 
17689 1 4.85193 -2.67963 -5.14594 
5483 3 -4.79523 1.26978 3.39528 
534 1 4.69541 6.67362 -4.66705 
533 3 2.51284 0.322829 0.469494 
532 1 -1.84499 -3.56779 -1.91406 
1863 1 1.19361 0.499143 -6.82179 
19339 1 1.29896 1.38272 5.28988 
10159 1 0.660316 -2.34067 -1.00005 
10160 3 -2.04296 0.349339 -1.1145 
10161 1 -5.38083 2.13503 -0.813264 
8947 1 3.38096 1.66649 0.553238 
4572 1 5.8195 -1.01948 0.459561 
4571 3 5.35097 -1.81177 5.44175 
4570 1 0.853253 2.40617 4.0566 
21568 1 3.5724 2.38978 -0.259093 
21569 3 -2.3787 -0.333618 -1.81188 
21570 1 0.646454 1.72675 -0.898887 
13545 1 -4.37416 -2.7155 0.204206 
15633 1 -2.66657 -1.00961 -3.49071 
12916 1 -0.0390334 5.86948 7.22465 
15980 2 0.210552 1.0437 1.2514 
15979 1 -4.35629 1.60261 -5.36799 
11372 2 0.352063 0.914312 2.8154 
11371 1 -5.53397 -7.99048 -0.941082 
18381 1 -0.247714 -7.66416 0.239476 
11530 1 -1.25313 2.25585 -7.4756 
15981 1 -2.44785 -1.14383 1.77172 
12917 2 -1.59833 -1.60844 0.884184 
4889 3 -0.521877 -1.04244 -4.21481 
5965 1 3.29014 -3.07148 2.54547 
19792 1 0.331861 -0.0486368 -2.04085 
5966 3 -0.352944 2.61523 5.64764 
4890 1 2.50255 -1.39296 2.51636 
4353 1 3.67531 1.75438 -5.97074 
19793 3 -1.10441 -4.88368 -3.81816 
7604 3 -3.85829 4.09489 -1.36608 
7605 1 2.29937 -0.101122 2.67135 
19794 1 1.18095 2.91836 1.69416 
6722 3 -6.30575 -0.807273 -6.24459 
6723 1 -2.17906 -0.381973 1.67043 
1981 1 3.24623 -2.63991 3.67665 
6721 1 0.929633 5.83932 -2.30994 
18618 1 -0.985662 1.2407 2.9187 
15751 1 2.52368 5.09427 -0.294799 
16612 1 0.646506 -0.235767 -5.46447 
17635 1 -2.17291 2.40382 1.17714 
18617 3 -1.42041 -4.96455 0.999869 
18616 1 0.843689 -6.12954 -0.436454 
20682 1 -2.65288 -2.47429 -2.22832 
20681 3 0.136703 -1.88871 -1.94043 
10505 3 3.32117 2.60961 -1.96512 
10504 1 5.15201 -0.640756 2.82545 
4792 1 -3.82777 -3.64506 4.2412 
10506 1 2.04239 6.46857 -3.48723 
17691 1 -3.51541 -5.05734 4.40815 
17690 3 -4.61663 -0.278242 -0.0257108 
17694 1 -2.32248 2.28623 -4.94679 
17693 3 0.330909 -3.8128 -3.92484 
17692 1 0.898188 3.42245 1.67888 
4833 1 -2.78299 3.59326 3.38028 
4832 3 -1.09861 1.11035 -2.69388 
4831 1 7.17915 0.881609 -4.94086 
17736 1 -0.71206 0.577573 0.0197341 
12615 1 -1.12494 -4.9314 12.7043 
12614 3 -2.04375 -1.86085 1.92689 
1862 3 0.16997 -0.53302 1.45284 
1861 1 4.97743 -3.43858 6.15313 
3779 3 1.90252 -1.30897 0.4118 
3780 1 -7.59197 -0.809843 0.334 
13544 3 2.54534 -2.03973 -2.30114 
8948 3 -3.31599 -4.96178 -5.22784 
8949 1 0.512334 2.15242 -9.56011 
11334 1 5.17371 -0.404333 1.30272 
11333 3 0.50296 -2.68828 -2.46978 
15079 1 6.66368 -5.10496 -1.51506 
11332 1 -1.26574 -2.47752 0.271633 
15619 1 2.87858 0.205758 -1.78404 
13768 1 4.01953 7.3255 0.45763 
2552 3 -0.539412 2.99203 0.602404 
2551 1 4.28692 0.576237 -0.310986 
19152 1 -0.28485 -2.5359 -3.40915 
2553 1 0.270103 0.923431 1.58469 
7090 1 4.42294 -1.78479 -5.8326 
12812 3 3.67722 1.08305 1.46053 
14690 3 0.133111 -2.1606 1.92665 
5967 1 1.33586 -4.36069 1.94845 
21235 1 4.44893 -4.40986 0.934111 
14691 1 -0.0345665 5.35085 -2.77643 
13104 1 4.02741 4.29174 4.50541 
14689 1 5.10988 4.99033 1.24649 
13521 1 0.0371554 -2.10789 1.06883 
13103 3 -0.835015 -0.340428 -1.01332 
15752 3 -1.37115 1.6222 2.97787 
12811 1 -0.601946 -2.80726 -7.32946 
4075 1 1.12416 -3.62925 -7.63575 
15753 1 0.278028 -2.31124 -0.642205 
6285 1 0.625445 0.107586 -1.24901 
16613 3 -2.38203 1.5226 1.31127 
16614 1 -3.12668 2.84655 3.45862 
14404 1 1.98461 0.86391 -0.494337 
14405 3 -1.65328 1.98268 6.03937 
6283 1 2.44977 -1.40063 1.15187 
20415 1 0.760167 -0.607307 0.387886 
14406 1 -3.44591 -1.13249 -4.91103 
4793 3 0.692142 0.417082 -1.15393 
3062 3 1.71973 -2.96718 -4.43864 
3063 1 1.95831 0.614933 -0.178092 
10921 1 0.291587 4.26054 2.9195 
10922 3 0.556698 -0.477259 1.85975 
10640 3 -3.39916 2.95444 -0.357015 
10923 1 0.986477 8.9276 -2.0829 
10641 1 -5.70864 -6.40319 0.181003 
18079 1 -3.89393 -1.48692 5.09234 
8798 3 1.90267 2.61975 -0.299672 
4794 1 -3.00712 2.49282 1.10263 
8799 1 3.83021 -4.01174 -0.859717 
4192 1 3.51865 -1.99418 0.983255 
4193 3 -2.03035 -6.41144 3.08758 
4194 1 -0.713774 -5.45967 3.76811 
4834 1 -6.02435 0.875216 2.02441 
4835 3 -5.46272 -2.82833 2.07967 
10639 1 4.01829 0.0243414 5.56539 
12613 1 1.1775 7.55008 -6.03022 
18736 1 -2.09863 2.11195 -4.3205 
4836 1 1.59887 1.19346 -0.112164 
5456 3 -1.61212 -2.52863 4.25697 
5455 1 -0.108066 1.33668 -0.273233 
16120 1 -4.75672 2.78527 1.68793 
5457 1 5.98539 -0.84945 -0.723716 
13335 1 3.80933 -2.51704 0.880446 
13334 3 1.41262 1.25101 -1.22999 
18737 3 -0.758343 -1.91561 0.700442 
16121 3 -3.70561 -0.343273 -1.91946 
2998 1 1.18767 -1.75347 3.69928 
2999 3 2.38654 4.3786 -1.8518 
3000 1 0.692096 0.424038 5.1515 
15081 1 0.641282 2.14085 0.802887 
15080 3 -0.604667 0.737347 1.17076 
1050 1 7.09992 -5.09922 -0.430182 
7092 1 -2.96037 0.598859 3.48591 
7091 2 1.62975 3.50469 1.49327 
18109 1 2.45732 -0.42035 5.84091 
13519 1 -0.0314708 0.312931 5.26615 
13520 3 2.77406 -1.98357 3.40124 
1950 1 -3.58283 0.0317662 0.339942 
3559 1 5.37467 -2.79972 -2.48019 
1948 1 -3.76331 -2.39979 -5.05101 
1949 3 0.093682 0.759813 1.11135 
4076 3 0.203532 4.67484 2.98592 
4077 1 2.8631 -1.5452 0.636475 
17424 1 -0.854133 7.67745 -8.43555 
17423 3 2.29028 -0.156172 4.31746 
17422 1 -0.10165 -4.52019 1.54707 
15198 1 0.306811 -2.21252 -1.18494 
15197 3 -2.32001 2.33492 -0.477773 
20414 3 -0.615377 1.57302 -1.50759 
16137 1 2.17974 4.01787 -3.01397 
20413 1 -0.259509 -8.82414 -4.52399 
15196 1 -3.89302 3.05769 9.0382 
12798 1 -0.549874 -3.64019 7.53601 
12169 1 1.28574 7.26612 5.50645 
12170 3 -5.00354 2.29782 2.20739 
16136 3 -1.13669 -5.11956 5.89811 
16135 1 -1.44286 1.91196 -1.91329 
2247 1 1.33036 2.15511 -2.34073 
2246 3 -5.33477 -3.45365 -3.0085 
2245 1 7.96421 2.28816 3.18714 
2016 1 -1.57556 0.709113 4.16224 
2015 3 0.325656 2.32432 -4.14593 
2014 1 0.0805789 0.997118 -1.70684 
2404 1 2.62426 0.432555 2.4094 
2405 3 -0.553376 -2.5425 2.63345 
20493 1 -2.9308 4.63363 -1.72449 
20492 3 2.12484 0.973784 1.56347 
18738 1 2.40728 -0.156027 -0.270753 
20967 1 4.78089 1.22613 4.64527 
20491 1 -5.44169 4.7426 -3.3157 
2406 1 0.571618 4.66166 -9.33578 
20965 1 0.676979 8.38937 3.55468 
11740 1 -4.16841 -0.76892 0.986115 
11741 3 3.2096 0.0214728 1.0019 
9554 3 0.3049 -0.624489 0.550816 
9555 1 5.26719 -7.55924 1.7498 
20966 3 -2.22871 1.12609 2.33786 
10458 1 0.0288597 5.71402 -6.74515 
6649 1 -1.22005 1.08834 -2.74061 
6651 1 -2.54742 6.03258 -3.6803 
9553 1 3.56467 -0.0616681 -2.02097 
6650 2 -1.80834 -2.07271 -2.17082 
12191 2 0.0222287 -1.43151 -4.3356 
13920 1 -3.46513 4.14946 2.77912 
13919 3 2.01219 2.52497 -2.93026 
15809 2 0.456381 1.41093 0.0670546 
15810 1 -1.63444 1.08882 3.2169 
13918 1 -0.949827 -3.17782 0.445595 
17425 1 -4.08923 -0.578791 -1.36912 
6136 1 7.10495 4.98699 -0.371784 
17426 3 -3.17586 0.937394 0.597079 
10362 1 3.57973 -1.41166 -0.248824 
10361 3 2.74367 3.96674 -2.39924 
10360 1 -3.2557 -3.16608 -2.22078 
12313 1 1.39353 4.05468 -1.01382 
12314 3 0.779152 1.2008 -1.10239 
16479 1 0.502213 -0.589825 6.14262 
16478 2 -2.18964 2.8062 -0.85527 
16477 1 -1.92988 0.432873 -5.72531 
11541 1 -3.96367 -1.33628 2.27036 
11540 3 -1.00795 -1.92244 -1.57441 
12192 1 1.30447 -1.0493 1.78198 
16045 1 -0.15698 -1.66665 2.35269 
12190 1 5.29672 -4.67404 4.56076 
16046 3 3.28824 -1.42184 0.410985 
21261 1 -1.37144 -2.80497 -2.27694 
18318 1 3.62081 -1.79126 5.7579 
21259 1 -2.83593 -2.46919 1.56718 
21260 2 -0.897408 1.70212 4.87862 
18317 3 3.63569 1.54163 -0.601757 
17427 1 -2.79138 -0.493352 0.577219 
11007 1 4.3078 -6.12889 -3.73646 
11006 2 3.6587 -2.36476 -2.40672 
11005 1 4.24159 -0.408923 1.18369 
13872 1 -3.6583 -1.34945 -5.38953 
18316 1 -0.647033 -2.30937 2.92834 
1581 1 4.90295 -0.89677 1.56619 
18732 1 -2.01086 -2.74057 3.50661 
1580 3 3.47838 -0.0353878 0.743441 
1579 1 2.69734 -1.72444 -1.07769 
3889 1 -1.94153 -4.14631 -2.2162 
5046 1 1.51958 3.34705 -3.02318 
5045 2 1.65568 0.703834 -1.26614 
16163 2 -1.60653 -3.46876 -4.12111 
16164 1 1.92119 0.138237 0.187356 
4515 1 -9.21653 4.88648 -4.60186 
12726 1 0.498042 4.33332 -2.93611 
12724 1 2.68972 5.11228 -2.73357 
12725 3 -1.01391 0.480766 1.19489 
16162 1 -2.09984 -1.99262 -0.617567 
3890 3 0.73093 2.94499 0.230425 
3891 1 0.0324241 6.37811 1.53912 
20882 3 2.26389 3.03854 -1.23724 
20031 1 3.27185 -5.57267 -1.40403 
18430 1 -3.36081 0.822909 -2.22282 
11637 1 -0.0594866 0.0385274 -4.91588 
12004 1 6.62993 -4.81614 5.19738 
20881 1 1.38458 1.42604 -2.04903 
286 1 -1.01317 2.39325 3.39024 
287 3 0.802177 3.15601 2.4769 
288 1 3.37629 -0.913494 -2.85608 
19039 1 6.3222 -2.57514 2.94934 
19040 2 -0.3988 -2.6256 0.939973 
19041 1 10.9867 -2.33086 -2.52198 
3541 1 5.53658 3.50539 -0.125633 
12327 1 0.126784 -0.860687 -1.53021 
12326 3 -0.115103 2.96194 5.56675 
12325 1 2.85546 1.02163 -2.52321 
2133 1 -0.892978 -3.63429 -1.49246 
7109 3 1.89963 1.63478 -3.06486 
7110 1 -2.01828 2.33471 3.2015 
2132 3 7.99793 1.01594 -4.00461 
14059 1 -1.49782 -1.61263 -0.599465 
7108 1 -2.84506 4.08597 4.03735 
8585 2 0.285309 1.58037 0.772557 
11351 2 -4.82127 1.72531 -6.5901 
11352 1 -2.46278 -0.217988 5.38613 
8584 1 4.53611 3.51173 0.855975 
11350 1 -3.90227 0.243824 -7.38951 
21120 1 1.99545 -1.73706 -3.75221 
11223 1 1.57573 -4.34903 -3.81726 
1963 1 3.67927 3.87003 1.63361 
20883 1 -1.76928 -0.0376947 2.87657 
1965 1 -7.29265 -4.89757 3.22189 
1964 3 2.29962 1.9414 0.407878 
20030 3 0.0829297 0.169528 0.0230305 
20029 1 7.97339 -0.826801 -1.62662 
6270 1 3.34918 5.07456 0.80412 
6268 1 -4.15347 2.60568 2.03782 
5479 1 0.375598 1.3677 1.8482 
6269 3 1.35293 -2.95155 1.22571 
19063 1 -0.384709 -2.5571 2.52493 
19064 3 1.93413 2.01684 -3.33884 
6949 1 0.0771687 0.875765 -4.20694 
12129 1 5.22693 -5.30517 7.63305 
6950 3 -0.929233 -0.145116 -3.59991 
6951 1 -0.0849271 1.46254 2.08513 
19065 1 -1.07606 -5.25888 -1.2344 
2131 1 -0.876976 1.52414 -3.43653 
20785 1 -2.45822 3.94845 -0.931571 
14039 3 1.96639 -3.12702 1.96865 
4964 3 -0.544991 -3.31227 2.83451 
4965 1 5.08632 1.43023 -7.42441 
14040 1 0.838152 -0.223603 -3.62025 
17684 3 2.31001 3.81256 -3.63111 
14038 1 -3.05579 -4.0401 2.53939 
17685 1 4.04022 -1.54309 0.492788 
14001 1 -2.8735 -3.11342 1.51043 
14000 3 -0.974149 -2.54152 2.73421 
13999 1 6.14265 0.143662 -0.46388 
7314 1 1.54927 3.40676 -3.18218 
19852 1 -1.07632 2.66816 5.68881 
2893 1 0.141856 -5.60487 -1.21718 
19853 3 0.881645 -3.525 -0.544253 
7312 1 -0.910782 0.192458 3.01977 
1617 1 1.93191 -0.894391 -0.254566 
7313 3 -2.39437 -0.179818 -2.68199 
9223 1 0.342947 0.367599 0.0756287 
6615 1 0.994941 0.656047 0.750588 
6030 1 -2.36725 4.37685 -5.94079 
2894 3 -0.569748 -0.319817 1.09806 
9224 3 0.455914 -3.16342 1.83907 
9225 1 -1.91385 -0.740754 1.98991 
2895 1 6.35983 0.479192 -1.51039 
1616 3 -0.761861 -2.24559 1.6079 
1615 1 2.74947 3.78169 9.14469 
6029 3 -0.39278 2.23148 -0.149254 
6028 1 -0.330949 -0.821345 -4.93432 
7870 1 8.0657 -0.74547 1.34374 
7151 2 -0.185927 3.27801 -5.73067 
7150 1 -3.78348 -1.74953 3.27514 
9215 2 2.26699 3.27097 1.16185 
7152 1 -0.313892 -0.493255 -1.57179 
9216 1 1.94385 -3.29691 2.12068 
9072 1 -0.778556 1.35157 0.776104 
9071 2 1.54814 -1.53235 1.15723 
195 1 0.390729 -6.27739 -1.12461 
9214 1 7.1968 -4.02027 6.27766 
19963 1 0.571078 0.130996 2.51937 
9078 1 2.4504 2.89892 1.96429 
19054 1 6.3428 -2.36814 0.502817 
12530 3 -1.37993 4.40652 2.30959 
12531 1 5.44229 4.88469 -3.39851 
19056 1 -4.05976 -2.61561 4.90548 
9077 2 -3.3794 2.63515 1.2259 
9076 1 -4.18283 7.50708 4.0125 
17254 1 0.502474 -4.76978 -1.09125 
17255 3 -2.80362 2.46327 1.84723 
17256 1 -2.88685 0.218769 -1.55663 
19055 3 -1.13171 -3.28604 -2.26465 
14878 1 1.52624 4.35667 2.20357 
5481 1 1.42783 -4.68983 -6.54508 
5480 3 1.04388 -3.50746 -1.17699 
9285 1 -4.64286 -3.36015 -2.40728 
19447 1 2.23888 1.09026 2.49278 
19448 3 -1.03822 0.553121 1.6441 
19449 1 2.24716 2.27829 3.75581 
21597 1 -4.16946 1.72933 4.06166 
20472 1 -0.659507 4.49476 3.3351 
4445 3 -0.684079 2.32302 0.303755 
4444 1 2.32996 2.0841 2.45307 
3813 1 -1.22014 -8.79526 -3.50607 
16734 1 -0.286343 -6.04608 -3.03899 
16732 1 0.920156 -0.22591 2.01908 
16733 3 4.19192 1.02365 -6.57367 
7681 1 -1.52331 -5.85252 3.50297 
4896 1 -0.572935 -0.645277 -1.36629 
3812 3 0.38717 -1.52628 -2.38201 
3811 1 3.09526 4.79379 -5.83984 
14545 1 -2.32543 7.07859 2.92316 
14546 3 -0.653484 -0.410231 -0.574833 
14547 1 -10.2071 -0.858907 -5.39699 
3586 1 -6.59393 3.26429 4.85549 
3587 3 -1.32617 -0.0951374 -4.5586 
3588 1 1.55261 1.45061 -1.70648 
1534 1 4.10529 3.16073 4.76563 
12336 1 4.65101 -2.48752 -1.81016 
12335 3 -0.27807 -1.97062 0.976076 
7682 3 2.59771 -2.71735 4.99288 
590 3 -0.523368 -2.6106 4.18018 
2544 1 -5.03012 1.28394 -0.751676 
18469 1 -7.74044 -4.79434 -0.704359 
591 1 -3.34039 0.841948 0.968374 
19503 1 2.13048 0.252905 4.67351 
19502 3 0.131235 2.38038 -5.61234 
19501 1 5.2811 -2.30385 -0.267725 
7014 1 1.02657 0.33166 -1.23477 
6614 3 6.18418 1.06987 1.70416 
6613 1 1.04637 -2.33777 -0.0588756 
19340 3 -4.47604 -3.8489 -2.80007 
7013 3 -3.22824 6.93707 4.31441 
7012 1 4.99708 -0.0914387 -0.294949 
19341 1 0.397424 5.51782 3.53007 
6222 1 1.67559 0.496236 1.0899 
6221 3 2.38967 -2.82098 1.89425 
18540 1 5.58057 -4.14155 -3.00344 
6220 1 -0.690437 6.34011 -4.98646 
8775 1 3.08179 10.6461 -3.51722 
20510 3 2.03768 1.47484 -3.38905 
20509 1 4.17552 -2.85552 -4.81367 
19356 1 0.183348 4.18295 -4.81648 
14622 1 -5.65032 0.173147 -2.8667 
14620 1 -1.09545 1.23247 -0.30085 
14621 3 0.934646 3.15252 -0.530055 
903 1 4.80574 -1.15104 4.00713 
902 3 1.91287 3.40162 -1.79411 
19355 3 -0.663664 -1.49395 0.910551 
10130 2 -2.36154 1.57141 1.66442 
10131 1 9.97918 3.44269 -3.58423 
11874 1 -5.07764 -2.281 2.58134 
11873 2 2.37942 1.93581 -4.2813 
11872 1 3.77736 -7.18119 -1.6858 
9070 1 4.923 -2.83512 4.23928 
7399 1 -2.05909 1.82279 -2.4512 
13287 1 5.20832 -5.01607 -6.23634 
16567 1 -2.68538 -4.75137 0.502562 
16568 2 -0.105781 -1.25171 2.73964 
16569 1 -0.031815 -3.31068 -1.38669 
13286 2 0.917398 -0.699613 -0.73294 
10990 1 -1.69692 2.55373 1.90161 
6702 1 5.30781 -0.596873 5.22555 
17286 1 4.91549 1.04068 -3.2865 
10016 3 -2.05096 0.838847 -1.65881 
10015 1 -1.72723 -6.0403 -3.13649 
18573 1 -4.60394 -1.51591 -4.81446 
10017 1 -4.2128 -4.46821 3.27847 
18572 3 -1.99808 0.356197 2.4394 
17285 3 -0.786563 -1.20431 -0.374041 
17284 1 1.4774 0.295252 6.08896 
13531 1 3.09557 5.51246 -2.44891 
13532 3 -3.0633 -0.976357 -1.50817 
9341 3 -2.24285 -3.09474 -1.44634 
9342 1 3.04131 0.0955037 -2.5701 
8299 1 3.48197 3.56954 3.09403 
21376 1 2.29786 0.747287 4.44521 
20470 1 2.36739 0.798772 -0.495289 
13533 1 5.0167 1.22175 -1.63838 
1983 1 1.40917 0.640579 -3.8091 
20471 3 -1.70646 1.20489 -2.35829 
16394 3 -0.970228 -1.66461 2.09558 
4895 3 -2.04235 1.98713 -1.00319 
4894 1 -7.57182 3.54155 -3.53802 
16393 1 3.55775 -1.40135 -0.848883 
9058 1 -3.2095 7.44536 -1.5632 
8300 3 -1.70009 -0.776673 2.2075 
8301 1 0.0670939 3.84187 -1.31029 
10121 3 1.53673 4.19637 2.58358 
1535 3 0.112985 -1.27942 -3.55191 
1536 1 0.940071 1.75933 -0.413411 
5484 1 3.89424 2.68721 -2.23498 
9060 1 -3.81915 -1.52369 4.55492 
820 1 -1.80314 0.828447 -5.60285 
13984 1 -4.62394 4.82304 -1.3124 
822 1 4.89504 6.06878 0.69293 
9059 3 3.10598 -0.166001 -2.02589 
3095 3 -0.914192 5.12943 -4.27259 
821 3 -3.38366 1.03976 -2.36943 
3096 1 -0.0892613 -4.89515 2.61426 
3094 1 -0.793141 0.899249 2.92096 
1986 1 -1.85718 2.87623 -1.13846 
21041 3 -3.05341 -1.8707 2.07394 
2543 3 -0.82645 1.75612 2.5268 
13986 1 -0.900059 5.08568 -0.0249502 
13985 3 -0.0569998 2.41389 -0.437819 
2542 1 1.1831 2.75982 1.72331 
18609 1 -1.0359 -0.863909 6.09372 
1390 1 -0.734695 1.16892 1.7428 
21040 1 -2.85449 2.24159 -6.77322 
1391 3 -1.28775 1.09937 1.47187 
18539 3 0.918222 -1.77031 -0.74014 
18538 1 1.71349 -6.06319 -2.20367 
15109 1 2.06333 -2.46012 3.40381 
15111 1 -1.26954 0.15546 -4.85897 
15110 3 0.592132 0.941462 1.8369 
11866 1 3.00587 -0.722111 2.45086 
11867 3 3.2676 -0.875545 -2.82462 
15582 1 2.19145 2.11357 -2.18388 
15581 3 1.58532 0.229159 -0.26509 
20204 3 1.39438 -2.57609 2.08724 
20203 1 -2.28099 -0.327091 -5.73511 
20205 1 -2.96446 3.31639 1.415 
19150 1 -2.04263 -1.67146 4.93607 
901 1 7.47863 -1.32675 -0.101401 
15580 1 0.906481 5.78218 1.11948 
13482 1 3.03978 3.66371 -1.46865 
13481 3 -0.645553 -0.155316 -0.199981 
7900 1 4.16428 0.459492 -1.37358 
18380 2 -1.07602 3.39059 1.88084 
18379 1 2.29829 6.25238 -6.36167 
2076 1 -1.2126 -0.342164 -3.73788 
7048 1 1.40185 -1.36153 2.04736 
7050 1 -7.02128 -7.96088 -3.4623 
7049 2 0.748005 2.76428 -1.34159 
12918 1 -1.76024 -1.46856 -0.204675 
20224 1 -2.28806 1.11588 -2.64461 
8148 1 -1.36492 -0.901081 1.59978 
20226 1 6.98278 6.15973 0.235711 
4352 3 -0.801347 0.788115 -1.34985 
20225 3 3.5851 0.146017 0.062786 
4351 1 0.212064 -1.05674 3.93808 
13075 1 1.55149 7.23447 0.0112986 
1982 3 4.31964 -0.776736 3.83767 
13076 3 -0.0340901 5.99154 -5.32715 
13214 3 -2.26245 -5.58352 -5.24036 
13077 1 -1.53462 0.89984 1.23973 
17269 1 -2.52625 5.37899 -3.46204 
10122 1 -0.048476 0.915135 -4.27056 
20130 1 4.66058 8.58305 3.9873 
13215 1 -1.05447 -0.246381 0.276653 
1713 1 -1.01858 -0.485212 -2.2287 
1712 3 1.47117 -1.54756 3.82417 
1711 1 0.866163 2.21833 0.82485 
20129 3 -0.516439 -0.905711 2.08348 
20128 1 2.6499 -0.318533 -0.337302 
13591 1 -0.0994216 -5.97563 -0.950378 
2521 1 2.50976 -0.93148 10.4626 
2522 2 4.57891 1.21058 1.88577 
2523 1 0.724383 -0.707835 2.88478 
13592 3 1.93063 -1.12083 1.52822 
13635 1 -0.487025 -4.08113 4.28504 
13634 3 -0.137299 -6.18054 0.0671669 
20794 1 -2.52312 0.496906 -2.25753 
20795 3 7.36421 0.51319 4.98985 
20049 1 3.98879 -3.86601 -1.72561 
13633 1 1.35725 3.57057 2.83635 
8516 3 1.83406 -0.986394 0.263972 
1985 3 -6.25818 -2.40783 -4.42043 
20048 3 2.40051 4.21675 1.5078 
18608 3 2.03443 -0.937924 0.661112 
3778 1 0.340804 3.43336 6.21764 
8515 1 -6.72402 -2.64286 1.41288 
211 1 -1.06978 -1.03648 -7.26496 
213 1 2.3231 -1.49981 1.43026 
212 3 0.751716 -2.61341 3.26144 
18607 1 2.70146 -3.23925 -2.00028 
9727 1 4.24812 3.14035 0.981349 
15621 1 -4.12823 4.82349 8.23297 
7054 1 -1.4598 -3.33661 -3.39945 
13543 1 3.25174 1.5462 -2.83532 
7055 3 -0.891933 1.21237 -0.317392 
15620 3 -2.27973 -0.185809 -3.71201 
13769 3 -1.53226 1.07337 -0.240483 
13770 1 -3.23086 1.83687 0.84142 
7056 1 -1.50569 1.53469 0.955621 
5071 1 -4.53677 3.36013 2.32519 