ITEM: TIMESTEP
100000000
ITEM: NUMBER OF ATOMS
3318
ITEM: BOX BOUNDS pp pp pp
0.0000000000000000e+00 5.0000000000000000e+01
0.0000000000000000e+00 5.0000000000000000e+01
0.0000000000000000e+00 5.0000000000000000e+01
ITEM: ATOMS id type xs ys zs
15737 3 0.506836 0.653645 0.302325
10236 1 0.51554 0.658848 0.306392
15736 1 0.513113 0.657241 0.304961
10235 3 0.522035 0.663994 0.309843
15738 1 0.499866 0.649269 0.3024
10676 3 0.553507 0.644418 0.337869
21462 1 0.53709 0.65297 0.338031
20671 1 0.53811 0.654247 0.335573
10677 1 0.551163 0.644398 0.329995
20672 3 0.540992 0.65866 0.328137
10675 1 0.556151 0.639258 0.342164
10234 1 0.526484 0.668944 0.313137
19378 1 0.528335 0.671029 0.314715
19379 2 0.532961 0.676011 0.320329
19380 1 0.537094 0.670087 0.324979
20673 1 0.538221 0.666926 0.325796
2804 2 0.548536 0.686778 0.333499
16106 2 0.53301 0.693265 0.341389
16105 1 0.540445 0.690241 0.338412
2805 1 0.542634 0.689104 0.336892
2803 1 0.556173 0.688204 0.334663
17614 1 0.559441 0.689057 0.334949
17615 2 0.566856 0.690954 0.33708
17616 1 0.572617 0.692267 0.340636
17038 1 0.575148 0.69329 0.342821
11898 1 0.554858 0.723262 0.33187
945 1 0.554782 0.726452 0.331261
11897 2 0.555256 0.715746 0.333354
16653 1 0.565234 0.71577 0.338953
11896 1 0.562334 0.715607 0.337465
16652 3 0.571535 0.715456 0.342709
944 2 0.554127 0.734533 0.329857
15370 1 0.550846 0.738052 0.338749
943 1 0.551938 0.736942 0.335982
14960 3 0.481108 0.621767 0.360964
14959 1 0.47357 0.625774 0.358659
14961 1 0.480874 0.628899 0.365717
19662 1 0.480566 0.630636 0.367168
19661 2 0.477627 0.63586 0.372477
17963 2 0.546851 0.629107 0.374247
2258 2 0.585622 0.61381 0.374857
13430 2 0.560464 0.633361 0.350195
13431 1 0.561688 0.628578 0.356084
3639 1 0.562348 0.626488 0.358143
3638 2 0.564161 0.62203 0.363552
3637 1 0.565653 0.625109 0.371594
13596 1 0.565906 0.625801 0.374807
21461 2 0.534906 0.649504 0.345972
20236 1 0.538883 0.652113 0.35673
21460 1 0.538265 0.651168 0.353663
20237 2 0.539032 0.653239 0.365254
20238 1 0.543123 0.657696 0.370441
13470 1 0.544505 0.660131 0.372251
16052 2 0.554931 0.666562 0.352116
13429 1 0.55707 0.637091 0.34413
15761 2 0.57895 0.641372 0.367589
15762 1 0.572362 0.644688 0.364187
10452 1 0.56988 0.646252 0.363566
10451 2 0.562795 0.651382 0.361753
10450 1 0.559347 0.65789 0.358779
16051 1 0.558491 0.659754 0.357315
15760 1 0.583382 0.637375 0.373613
5909 2 0.530829 0.695139 0.359154
16107 1 0.532011 0.694898 0.348502
5910 1 0.531442 0.695278 0.35142
5908 1 0.527686 0.694024 0.366779
3360 1 0.527501 0.694143 0.369606
8493 1 0.5637 0.677332 0.371814
10642 1 0.556519 0.692504 0.355515
7728 1 0.556419 0.695047 0.355231
10643 2 0.556654 0.684455 0.357118
16053 1 0.556019 0.673595 0.353665
10644 1 0.556341 0.676348 0.35467
9753 1 0.576955 0.682018 0.37188
8491 1 0.575379 0.679828 0.37126
9752 2 0.583086 0.686448 0.371883
8492 2 0.570438 0.673339 0.372035
17039 2 0.580954 0.695938 0.349423
6251 2 0.533066 0.721425 0.373608
17812 1 0.541285 0.717923 0.367086
6250 1 0.5388 0.718363 0.369387
17813 2 0.546094 0.717176 0.361766
7726 1 0.551485 0.708491 0.35753
17814 1 0.549693 0.710872 0.358693
7727 2 0.555694 0.702968 0.355379
16651 1 0.573819 0.714765 0.350559
883 1 0.57479 0.714495 0.353336
884 2 0.577893 0.71456 0.361548
885 1 0.575715 0.716759 0.368705
13015 1 0.575255 0.717976 0.371357
15372 1 0.545223 0.745092 0.351515
4747 1 0.544151 0.746358 0.353503
15371 2 0.54815 0.741288 0.345162
4748 3 0.540713 0.751145 0.359117
21201 1 0.536246 0.755579 0.368103
4749 1 0.5377 0.754431 0.36554
21200 3 0.533052 0.760314 0.374289
18722 2 0.569528 0.570655 0.404802
18723 1 0.565823 0.565891 0.399792
18721 1 0.576526 0.574386 0.404081
10416 1 0.576001 0.54826 0.405031
21129 1 0.578459 0.549036 0.403459
21128 3 0.585606 0.550032 0.39985
7361 2 0.520054 0.598024 0.391874
7362 1 0.520381 0.594697 0.399113
7360 1 0.518219 0.604661 0.386495
11094 1 0.520565 0.593456 0.401848
8243 2 0.540546 0.585484 0.398577
8242 1 0.545405 0.590707 0.395375
15342 1 0.547759 0.592735 0.39399
15341 2 0.553757 0.597563 0.390065
11652 1 0.542899 0.576965 0.404264
8244 1 0.542299 0.579137 0.402959
16722 1 0.578792 0.576371 0.403642
15340 1 0.56065 0.601545 0.387494
12748 1 0.563138 0.602909 0.386152
16721 2 0.584821 0.582203 0.40403
13924 1 0.518271 0.606864 0.384687
13925 3 0.519762 0.614485 0.380372
13926 1 0.518507 0.621971 0.377469
3159 1 0.517384 0.624153 0.377004
3158 2 0.513644 0.631822 0.375562
1596 1 0.540691 0.610334 0.389343
17983 1 0.539826 0.609174 0.392092
17962 1 0.544395 0.62191 0.376427
1594 1 0.543697 0.619261 0.377582
1595 2 0.541458 0.612553 0.380889
16229 2 0.541044 0.632405 0.404112
16230 1 0.532862 0.634079 0.401477
14517 1 0.530095 0.634772 0.400783
17964 1 0.545397 0.634768 0.379312
17984 2 0.536978 0.607957 0.399146
12750 1 0.576068 0.611022 0.378971
2257 1 0.578342 0.612231 0.37783
14871 1 0.566939 0.613958 0.402183
12749 2 0.569623 0.607383 0.38197
13595 2 0.568271 0.627473 0.382071
2913 1 0.572776 0.63062 0.392152
13594 1 0.571454 0.629688 0.389715
2303 2 0.557539 0.614825 0.400894
2304 1 0.564551 0.614021 0.401486
10426 1 0.58516 0.636123 0.375803
2912 2 0.575937 0.63429 0.39821
14870 2 0.575086 0.612153 0.402676
2302 1 0.55652 0.608943 0.40596
19660 1 0.478126 0.63719 0.380461
583 1 0.478828 0.637708 0.383428
584 2 0.480757 0.638733 0.390287
585 1 0.480721 0.639774 0.398319
16402 1 0.480323 0.639852 0.401579
16878 1 0.50602 0.640724 0.377954
16876 1 0.49389 0.648941 0.379311
3157 1 0.508413 0.638262 0.376777
16877 2 0.501283 0.645588 0.379959
1027 1 0.511723 0.640019 0.398865
14515 1 0.514342 0.639083 0.398771
1028 2 0.503171 0.643056 0.400188
14516 2 0.521974 0.636693 0.39809
1029 1 0.498747 0.650197 0.399239
13977 1 0.497425 0.65295 0.398714
13976 2 0.494301 0.659754 0.397563
13469 2 0.549057 0.665113 0.377115
16228 1 0.547473 0.636808 0.400842
10113 1 0.544343 0.636974 0.381097
10112 2 0.54113 0.642979 0.384767
10111 1 0.537575 0.648651 0.389621
555 1 0.536607 0.650405 0.391486
554 2 0.53569 0.65562 0.397602
553 1 0.538299 0.65799 0.405466
13468 1 0.551032 0.664292 0.38491
124 1 0.551341 0.664277 0.388056
125 2 0.553233 0.665197 0.395912
16263 1 0.549768 0.638681 0.400364
16765 1 0.585837 0.660249 0.378903
7702 1 0.584783 0.63726 0.404164
16261 1 0.560329 0.644477 0.391434
16262 2 0.555989 0.642968 0.398206
10720 1 0.572109 0.64888 0.377269
10721 2 0.567241 0.647924 0.383478
10722 1 0.562155 0.645583 0.389244
14815 1 0.570102 0.660757 0.405122
14816 2 0.574518 0.656106 0.400315
16767 1 0.580192 0.65783 0.393293
14817 1 0.578852 0.657363 0.395369
2911 1 0.5828 0.636612 0.402473
2515 1 0.558771 0.666141 0.405004
126 1 0.557151 0.665768 0.402935
16766 2 0.584423 0.658742 0.386064
18464 2 0.490757 0.678754 0.395183
13975 1 0.491683 0.667402 0.39623
18465 1 0.491341 0.670811 0.396051
18463 1 0.487487 0.679667 0.402562
17407 1 0.487017 0.679133 0.404836
20928 1 0.520942 0.691314 0.401197
17338 1 0.519419 0.693451 0.400135
20927 2 0.524759 0.685999 0.402713
3359 2 0.52733 0.694007 0.378019
3358 1 0.53217 0.689346 0.38098
20508 1 0.534091 0.686775 0.382315
20507 2 0.538353 0.681606 0.3865
5874 1 0.545912 0.685955 0.380805
20506 1 0.543777 0.685099 0.382542
5873 2 0.552792 0.686893 0.376682
6396 1 0.553937 0.683235 0.405549
5872 1 0.557361 0.692067 0.37913
8524 1 0.558834 0.693796 0.380294
18938 2 0.574321 0.675655 0.393312
6394 1 0.564349 0.680982 0.396111
6395 2 0.557473 0.684841 0.398615
18939 1 0.566829 0.679718 0.39478
18937 1 0.581539 0.677916 0.392165
19188 1 0.583608 0.678367 0.391652
17339 2 0.513836 0.697413 0.395083
6606 1 0.517461 0.704389 0.387936
17340 1 0.516391 0.702442 0.389415
6605 2 0.519626 0.71093 0.38321
9011 2 0.510191 0.718181 0.403589
9012 1 0.518716 0.716096 0.403127
6177 1 0.521901 0.715003 0.402974
6604 1 0.524679 0.716084 0.379203
6252 1 0.526808 0.717395 0.377515
6176 2 0.528749 0.711955 0.402511
6175 1 0.535015 0.707771 0.401869
17968 1 0.537823 0.706179 0.401263
17969 2 0.544886 0.702253 0.399879
17970 1 0.55158 0.703237 0.403872
14043 1 0.554283 0.703772 0.405925
21563 2 0.553284 0.72594 0.381405
8525 2 0.563319 0.698979 0.384617
16138 1 0.573884 0.701901 0.389511
8526 1 0.571215 0.701439 0.388482
16139 2 0.581093 0.702523 0.391441
13016 2 0.574254 0.720662 0.379147
21562 1 0.559153 0.720607 0.379318
13017 1 0.578545 0.723764 0.385341
18814 1 0.579879 0.724618 0.388208
18815 2 0.583666 0.727144 0.394722
7664 2 0.563255 0.726345 0.402761
16140 1 0.584779 0.701733 0.398143
21318 1 0.517254 0.749683 0.400933
5988 1 0.520037 0.748611 0.400148
21317 3 0.50996 0.753935 0.402214
5986 1 0.533251 0.740745 0.394559
5987 3 0.526689 0.745798 0.3951
21564 1 0.549141 0.729953 0.386013
12908 2 0.542553 0.733592 0.393484
12909 1 0.535539 0.738907 0.394468
12907 1 0.547523 0.731691 0.387629
14130 1 0.555223 0.74904 0.398563
16093 1 0.552937 0.75096 0.397708
16094 3 0.547481 0.755426 0.39504
7663 1 0.562945 0.734597 0.40133
14129 2 0.561273 0.744814 0.400745
14128 1 0.56239 0.737016 0.401321
16095 1 0.543094 0.760977 0.390641
21199 1 0.535607 0.764913 0.379328
5968 1 0.544155 0.789813 0.40347
10537 1 0.546143 0.543622 0.422646
10538 2 0.551695 0.538307 0.424153
10539 1 0.560293 0.540717 0.42465
176 3 0.537994 0.550238 0.420689
177 1 0.544129 0.545619 0.421937
11650 1 0.5501 0.565667 0.411715
7944 1 0.552593 0.563163 0.413577
11651 2 0.544848 0.571171 0.408769
175 1 0.537578 0.556292 0.42599
3618 1 0.537447 0.558638 0.428422
3617 2 0.537434 0.564487 0.434532
14012 2 0.579444 0.560953 0.421082
14013 1 0.580047 0.562829 0.414458
7942 1 0.56125 0.552677 0.413406
10414 1 0.563652 0.550942 0.412539
10415 2 0.569084 0.546252 0.408856
7943 2 0.557159 0.55872 0.417807
14011 1 0.583459 0.561667 0.428362
4866 1 0.58458 0.562279 0.431171
2997 1 0.518813 0.582913 0.43513
2996 2 0.520476 0.583907 0.427636
2995 1 0.521403 0.58683 0.419869
11092 1 0.521575 0.587746 0.416939
11093 2 0.522287 0.590862 0.408766
3386 2 0.507287 0.598284 0.435249
3387 1 0.515351 0.60014 0.435619
21153 1 0.536947 0.595942 0.429544
21152 2 0.541111 0.592221 0.423874
915 1 0.535581 0.597422 0.431409
21151 1 0.548264 0.587911 0.42433
4318 1 0.55124 0.586489 0.424031
19574 2 0.585336 0.602613 0.415232
10050 1 0.581658 0.582833 0.43037
4319 2 0.557816 0.581306 0.423605
10085 2 0.557649 0.601815 0.413709
10084 1 0.559384 0.602339 0.421608
12295 1 0.559705 0.601974 0.424561
10048 1 0.567746 0.580941 0.424993
4320 1 0.564764 0.581125 0.424753
10049 2 0.575192 0.581313 0.425375
12296 2 0.5612 0.599476 0.432434
15192 1 0.583951 0.58399 0.432344
9699 1 0.493382 0.616125 0.428133
7317 1 0.492964 0.617867 0.431051
9697 1 0.495785 0.606631 0.41572
9698 2 0.494345 0.611315 0.421907
17867 2 0.511104 0.626077 0.42105
17868 1 0.508237 0.631378 0.425761
6520 1 0.507625 0.633482 0.427676
17866 1 0.516004 0.620431 0.423946
17985 1 0.538054 0.610255 0.406496
16813 1 0.53818 0.611019 0.409771
16814 2 0.538168 0.61126 0.417756
16815 1 0.533942 0.618173 0.421393
4399 1 0.533135 0.620759 0.423235
4400 2 0.530619 0.626699 0.427746
4401 1 0.528963 0.631953 0.432645
13447 1 0.551113 0.62214 0.431634
19116 1 0.549879 0.6207 0.433881
10905 1 0.528259 0.634453 0.43464
13448 2 0.554202 0.626361 0.42523
20828 2 0.580075 0.609157 0.43368
10086 1 0.556301 0.607216 0.408302
13449 1 0.561139 0.626042 0.422344
9787 1 0.563429 0.626132 0.421325
9788 2 0.571186 0.627299 0.41791
9789 1 0.571254 0.635375 0.417927
14869 1 0.580418 0.60866 0.406941
19573 1 0.582205 0.607801 0.409479
5631 1 0.462607 0.64513 0.423184
5630 3 0.458478 0.651016 0.42053
16403 3 0.479586 0.641938 0.410059
16404 1 0.476568 0.640249 0.417246
9642 1 0.474767 0.63992 0.42028
9641 2 0.470885 0.639019 0.427442
9640 1 0.464751 0.643421 0.42436
20871 1 0.467074 0.657834 0.419466
5629 1 0.464322 0.655549 0.419684
20869 1 0.480395 0.658647 0.421092
20870 2 0.473237 0.661301 0.419093
18177 1 0.48326 0.657456 0.421609
18176 2 0.490655 0.655047 0.422321
6521 2 0.505573 0.63884 0.434029
1413 1 0.517065 0.650809 0.418912
1411 1 0.501179 0.656627 0.420585
1412 2 0.509625 0.654022 0.418528
18175 1 0.498494 0.656325 0.421091
2931 1 0.519811 0.64953 0.418682
682 1 0.539393 0.658568 0.408399
2930 2 0.526885 0.645674 0.419288
2929 1 0.532959 0.644466 0.424307
683 2 0.543291 0.660496 0.414998
3922 1 0.535319 0.644462 0.426344
3923 2 0.542827 0.645017 0.42994
684 1 0.546426 0.661564 0.422175
17070 1 0.548386 0.662703 0.425061
11390 2 0.530208 0.661992 0.435089
3924 1 0.54992 0.647142 0.433472
6235 1 0.552866 0.647258 0.43511
17069 2 0.553149 0.665684 0.430091
2517 1 0.568958 0.662559 0.406549
6817 1 0.571795 0.638273 0.418265
6818 2 0.572669 0.646197 0.419143
6819 1 0.573555 0.651633 0.425221
4726 1 0.574084 0.653996 0.427616
4727 2 0.576865 0.660034 0.43184
15239 2 0.474211 0.682352 0.427246
15240 1 0.47039 0.68352 0.432932
17408 2 0.485175 0.677885 0.41172
15238 1 0.477652 0.680293 0.420943
17409 1 0.479616 0.679299 0.418888
9610 1 0.490794 0.690428 0.434981
6576 1 0.492599 0.689424 0.432545
11973 1 0.468682 0.684202 0.435385
20926 1 0.523989 0.67956 0.406321
3100 1 0.524067 0.677008 0.408264
3101 2 0.522331 0.671204 0.41292
3102 1 0.518738 0.673383 0.41911
20947 1 0.51715 0.673873 0.421613
20948 2 0.51398 0.675785 0.428169
20949 1 0.507951 0.68077 0.428202
6574 1 0.505026 0.682623 0.427665
6575 2 0.497749 0.686773 0.426486
15399 1 0.551884 0.682815 0.407818
10604 2 0.535813 0.68338 0.429497
10605 1 0.531565 0.686394 0.435203
11707 1 0.530399 0.687457 0.437285
10603 1 0.540125 0.682978 0.423446
15397 1 0.541993 0.682801 0.420644
15398 2 0.547076 0.681511 0.413847
3737 2 0.584333 0.671847 0.41342
2516 2 0.564366 0.667528 0.411146
12457 1 0.570597 0.696708 0.412674
17068 1 0.557378 0.66756 0.437207
4728 1 0.573719 0.667693 0.430101
3736 1 0.581447 0.68046 0.415017
12459 1 0.580315 0.682519 0.415044
5117 2 0.570547 0.676589 0.429057
5116 1 0.571038 0.682921 0.434576
16935 1 0.571324 0.685368 0.437424
5118 1 0.572129 0.670423 0.430026
12458 2 0.576066 0.689897 0.414586
8360 2 0.461026 0.72465 0.435937
1072 1 0.491322 0.703639 0.421746
1073 2 0.484797 0.704229 0.424265
9420 1 0.473305 0.704939 0.428071
1074 1 0.47656 0.704739 0.427072
9419 2 0.466963 0.705395 0.430607
9418 1 0.46394 0.712604 0.433192
8361 1 0.462826 0.71601 0.434085
8607 1 0.501923 0.722202 0.408003
9010 1 0.504118 0.720748 0.406985
8606 2 0.495587 0.726526 0.410903
17224 1 0.494498 0.703593 0.419865
17679 1 0.500219 0.725099 0.435535
13972 1 0.50275 0.725319 0.433589
17225 2 0.500456 0.70253 0.414036
17226 1 0.507755 0.699708 0.415805
873 1 0.510633 0.698653 0.416921
872 2 0.517975 0.697092 0.419585
871 1 0.524059 0.700447 0.423436
14418 1 0.5183 0.727221 0.42291
13973 2 0.50902 0.727074 0.427933
19374 1 0.499668 0.710135 0.433907
19373 2 0.504801 0.704072 0.435803
117 1 0.526051 0.701526 0.424639
14417 2 0.525947 0.726877 0.41905
116 2 0.532009 0.704757 0.427311
115 1 0.539551 0.704894 0.42786
16716 1 0.541998 0.705269 0.427643
16715 2 0.549273 0.706457 0.427125
14416 1 0.53393 0.72677 0.418922
20217 1 0.536254 0.726653 0.418939
20216 2 0.544312 0.726197 0.419331
20208 1 0.585868 0.699066 0.429527
20207 2 0.580731 0.705474 0.42962
20206 1 0.579771 0.711519 0.424265
14065 1 0.579159 0.713338 0.422121
14041 1 0.56852 0.699122 0.41219
14042 2 0.562246 0.704992 0.410841
16714 1 0.555624 0.711356 0.427968
10447 1 0.557659 0.71339 0.428466
14067 1 0.571221 0.72116 0.410931
10448 2 0.563088 0.71884 0.429813
7665 1 0.569475 0.722807 0.408993
10449 1 0.565313 0.72539 0.433954
14066 2 0.576964 0.717726 0.415103
8605 1 0.490803 0.72885 0.41529
8359 1 0.467227 0.730439 0.437124
21502 1 0.469189 0.732922 0.437143
21503 2 0.473702 0.739349 0.436625
21504 1 0.479138 0.736149 0.432528
10566 1 0.480932 0.735085 0.430072
10564 1 0.488746 0.729632 0.417442
10565 2 0.484511 0.733029 0.423759
13974 1 0.51574 0.727504 0.424258
21316 1 0.50787 0.752552 0.40997
7642 1 0.506872 0.751892 0.4133
7643 2 0.504994 0.749925 0.420937
7644 1 0.502367 0.747558 0.428725
10342 1 0.501133 0.746958 0.432087
20215 1 0.545787 0.733546 0.419772
19183 1 0.54622 0.736775 0.419757
19184 2 0.548292 0.744244 0.419791
19185 1 0.551265 0.749094 0.425271
5005 1 0.552809 0.750706 0.427344
20811 1 0.565667 0.727793 0.436157
5006 2 0.556789 0.754519 0.433027
9522 1 0.578627 0.7378 0.425272
17719 1 0.573968 0.753213 0.422337
9520 1 0.574136 0.749718 0.422718
9521 2 0.57362 0.742295 0.422651
681 1 0.554897 0.778618 0.413866
5970 1 0.552736 0.780518 0.412354
5969 3 0.548103 0.785388 0.40855
17720 2 0.572736 0.760325 0.420936
679 1 0.564893 0.767818 0.41884
17721 1 0.56729 0.7658 0.419583
680 3 0.559955 0.773624 0.416829
1282 1 0.49093 0.7998 0.427689
17495 2 0.482023 0.80185 0.434448
17496 1 0.488861 0.800718 0.429491
13735 1 0.517642 0.811968 0.425506
13736 2 0.510226 0.810574 0.423697
1284 1 0.502868 0.802502 0.424212
13737 1 0.504783 0.804566 0.424214
1283 3 0.49613 0.797485 0.422167
17230 1 0.495563 0.544918 0.468601
8888 2 0.544959 0.537202 0.457094
8887 1 0.549403 0.544677 0.456179
16392 1 0.538116 0.530015 0.462048
8889 1 0.540227 0.531623 0.460835
16391 3 0.530293 0.527466 0.465947
17418 1 0.565214 0.536147 0.458566
17417 2 0.568569 0.537129 0.466437
7156 1 0.476506 0.567756 0.466092
2626 1 0.499503 0.565893 0.464033
18327 1 0.498955 0.563103 0.464753
18326 2 0.497495 0.554809 0.465181
18325 1 0.49615 0.54754 0.467462
6892 1 0.516282 0.560897 0.468246
6894 1 0.520026 0.558403 0.453898
19032 1 0.520607 0.558953 0.450655
19031 2 0.521522 0.561321 0.444074
6893 2 0.518767 0.558962 0.461211
2627 2 0.501193 0.572725 0.462585
3616 1 0.529483 0.56375 0.437751
19030 1 0.527269 0.563063 0.439692
21561 1 0.549765 0.570426 0.446055
15039 1 0.551283 0.54716 0.455449
21560 2 0.545473 0.573497 0.451629
19654 1 0.551986 0.569056 0.444084
20222 2 0.584319 0.545804 0.448357
20221 1 0.57726 0.547376 0.443732
19656 1 0.56331 0.560975 0.438657
9433 1 0.564565 0.558008 0.438381
9434 2 0.568511 0.551109 0.438284
19655 2 0.557567 0.56661 0.4383
9435 1 0.574852 0.548408 0.442229
15038 2 0.557501 0.55304 0.454449
15037 1 0.563551 0.557267 0.455187
20013 1 0.566064 0.558794 0.455691
20012 2 0.572745 0.563126 0.457895
20011 1 0.575307 0.569017 0.464204
13494 1 0.445832 0.582402 0.452566
13492 1 0.454606 0.5873 0.462427
13493 3 0.451245 0.587514 0.455608
7462 1 0.456025 0.586993 0.464977
6845 3 0.471791 0.599356 0.448766
6844 1 0.479488 0.597405 0.446109
4327 1 0.482475 0.597186 0.444562
4328 2 0.489521 0.597839 0.441889
6846 1 0.46674 0.602449 0.454326
16774 1 0.464798 0.603847 0.45647
16371 1 0.518194 0.582513 0.437749
4329 1 0.496407 0.597673 0.438638
3385 1 0.499241 0.597592 0.437797
16370 2 0.515508 0.580898 0.445672
2628 1 0.499538 0.579756 0.463017
2491 1 0.498698 0.582178 0.462618
2492 2 0.496356 0.589129 0.461431
2493 1 0.498687 0.597118 0.458413
17346 1 0.49956 0.600547 0.457184
16369 1 0.519271 0.579427 0.452954
14391 1 0.520294 0.579009 0.454915
14390 2 0.523731 0.578782 0.461451
914 2 0.533148 0.600329 0.438874
913 1 0.532705 0.601759 0.447469
322 1 0.532713 0.602457 0.450985
14389 1 0.527751 0.58045 0.468483
21559 1 0.547935 0.580222 0.454251
17844 1 0.548991 0.583048 0.455033
17843 2 0.549914 0.59106 0.456462
17842 1 0.552572 0.598356 0.458024
9798 1 0.553411 0.601501 0.457584
323 2 0.532499 0.60385 0.459104
324 1 0.536077 0.603421 0.466152
14492 2 0.567576 0.586697 0.444129
12297 1 0.563908 0.594314 0.438225
14491 1 0.564974 0.5923 0.439971
14493 1 0.57351 0.587555 0.450911
16806 1 0.575073 0.588012 0.453578
16804 1 0.582788 0.588618 0.467838
16805 2 0.578524 0.590356 0.459888
16776 1 0.45599 0.612181 0.468329
16775 3 0.460584 0.60773 0.462726
7316 2 0.491944 0.620525 0.438105
7315 1 0.490158 0.623924 0.44545
6212 2 0.48662 0.627882 0.454467
6213 1 0.489257 0.62493 0.44818
6211 1 0.486867 0.630898 0.462192
19365 1 0.487017 0.631532 0.465152
17345 2 0.50404 0.606287 0.453222
17344 1 0.51017 0.610049 0.448504
8473 1 0.512126 0.61119 0.446895
8474 2 0.518278 0.616158 0.442545
8475 1 0.523747 0.619518 0.448102
13705 1 0.525652 0.620849 0.450173
19115 2 0.547252 0.616625 0.440289
9797 2 0.55442 0.608888 0.456581
13706 2 0.529438 0.623895 0.456105
9796 1 0.551284 0.613048 0.449815
19114 1 0.550169 0.614201 0.447458
12411 1 0.552091 0.636067 0.456065
13707 1 0.530129 0.626958 0.463161
5589 1 0.530631 0.628231 0.465684
13504 1 0.554894 0.634691 0.457185
9992 2 0.571223 0.631097 0.440159
20004 1 0.57152 0.620766 0.445431
9993 1 0.570994 0.623332 0.443866
20002 1 0.57439 0.612098 0.442187
20003 2 0.5728 0.613919 0.448496
20829 1 0.576059 0.611164 0.439484
13505 2 0.561507 0.632044 0.459595
13506 1 0.568499 0.632009 0.462784
9903 1 0.571186 0.632351 0.463544
9902 2 0.578523 0.633497 0.466225
2934 1 0.429554 0.651128 0.463621
10087 1 0.427559 0.652767 0.465325
2933 2 0.434424 0.645971 0.459767
1056 1 0.459778 0.659578 0.456548
15229 1 0.458469 0.659735 0.458969
15230 3 0.455147 0.660861 0.466111
2932 1 0.438307 0.640209 0.46418
3175 1 0.439646 0.63859 0.466023
19969 1 0.474077 0.644773 0.463575
16456 1 0.471745 0.64385 0.466413
1055 2 0.463854 0.659756 0.450169
13362 1 0.472289 0.661021 0.444462
1054 1 0.470101 0.660179 0.445994
13361 2 0.478367 0.663434 0.440405
13360 1 0.485705 0.665141 0.442349
5214 1 0.488517 0.665746 0.442816
19970 2 0.479431 0.646458 0.456956
19971 1 0.484818 0.646759 0.452107
10497 1 0.486885 0.646452 0.449739
10496 2 0.490887 0.645342 0.443981
6522 1 0.500161 0.641097 0.437902
10495 1 0.497599 0.642139 0.439419
15042 1 0.507545 0.659658 0.46806
16483 1 0.521771 0.660711 0.441939
11391 1 0.52429 0.660628 0.439907
16485 1 0.506911 0.665046 0.44427
5212 1 0.504251 0.665737 0.444226
15041 2 0.510886 0.665814 0.465721
16484 2 0.514244 0.661779 0.444313
11389 1 0.535511 0.659461 0.439758
10904 2 0.526226 0.638652 0.439653
10903 1 0.525364 0.643876 0.447261
19701 1 0.524909 0.645993 0.449262
12410 2 0.546192 0.639343 0.454076
7504 1 0.537426 0.658156 0.441708
12409 1 0.545029 0.645998 0.451218
7506 1 0.544529 0.64813 0.450301
7505 2 0.542133 0.654915 0.447343
19700 2 0.524621 0.650211 0.455627
19699 1 0.527693 0.650554 0.462882
16957 1 0.529062 0.651065 0.464659
9901 1 0.583171 0.638537 0.468183
15727 1 0.583904 0.644639 0.451996
6236 2 0.559969 0.646068 0.438158
9991 1 0.565787 0.638182 0.439744
6237 1 0.564529 0.640096 0.439452
15728 2 0.578092 0.65009 0.453014
15729 1 0.570768 0.651607 0.455881
5340 1 0.568435 0.652347 0.456975
5339 2 0.5617 0.654029 0.461104
5338 1 0.558342 0.659249 0.465533
861 1 0.55749 0.661065 0.466878
9611 2 0.486025 0.691977 0.442216
11972 2 0.464657 0.685017 0.442522
11971 1 0.467317 0.685036 0.45016
16924 1 0.468486 0.685425 0.452765
16925 2 0.472736 0.686145 0.459237
16366 1 0.484796 0.685228 0.461667
16926 1 0.481079 0.685546 0.461385
16367 2 0.492873 0.684534 0.46234
5213 2 0.496927 0.667749 0.443123
16368 1 0.499847 0.685963 0.461451
7995 1 0.502431 0.686431 0.461401
7994 2 0.510261 0.689649 0.461624
7993 1 0.516348 0.689706 0.467939
15040 1 0.518494 0.668652 0.463971
9898 1 0.521397 0.669398 0.463353
10062 1 0.549326 0.684833 0.44498
10061 2 0.55156 0.690758 0.441015
11708 2 0.527192 0.690118 0.443613
14919 1 0.548007 0.682403 0.446275
9899 2 0.528473 0.670721 0.45988
11709 1 0.533162 0.692911 0.449619
14917 1 0.53796 0.672138 0.453037
9900 1 0.535323 0.67175 0.45499
14918 2 0.544086 0.675634 0.449561
4510 1 0.534964 0.693758 0.451661
4512 1 0.546639 0.692661 0.458693
954 1 0.549417 0.691127 0.459473
4511 2 0.538782 0.696507 0.458055
3266 2 0.581641 0.695743 0.457994
1854 1 0.558831 0.66796 0.440059
1853 2 0.562321 0.668298 0.446064
1852 1 0.567978 0.670749 0.450049
12517 1 0.570721 0.671699 0.452
12518 2 0.577362 0.673865 0.45834
12519 1 0.580984 0.670086 0.46493
3267 1 0.576625 0.69437 0.452558
953 2 0.556966 0.687012 0.460588
16934 2 0.571896 0.6913 0.443119
952 1 0.562621 0.684537 0.465279
19182 1 0.564713 0.6835 0.467824
16933 1 0.575426 0.693296 0.45029
10891 1 0.582463 0.668673 0.467457
12099 1 0.46203 0.701074 0.46823
9612 1 0.487239 0.6978 0.448417
11403 1 0.463443 0.702139 0.465816
11402 2 0.466528 0.707021 0.459668
11401 1 0.470365 0.709639 0.45418
17179 1 0.472083 0.711373 0.452125
17180 2 0.477055 0.715767 0.446164
17181 1 0.484383 0.71856 0.444825
17677 1 0.487379 0.71997 0.443846
7946 2 0.488505 0.704777 0.456516
7945 1 0.492398 0.710224 0.46056
7947 1 0.487737 0.699734 0.450196
21536 2 0.478993 0.722687 0.46712
14064 1 0.493746 0.712206 0.461904
17678 2 0.494137 0.723171 0.441485
14063 2 0.498343 0.717959 0.466654
2048 2 0.512443 0.711719 0.449935
19372 1 0.50753 0.707296 0.441388
2049 1 0.508705 0.708217 0.443659
2047 1 0.515599 0.718039 0.450867
10243 1 0.516098 0.72141 0.451692
20380 1 0.524547 0.711555 0.467313
10060 1 0.553077 0.698217 0.443601
2023 1 0.553375 0.701144 0.444949
20382 1 0.532854 0.714226 0.455896
20381 2 0.531328 0.715 0.46346
16605 1 0.548876 0.726287 0.463801
2025 1 0.551935 0.715284 0.451115
16603 1 0.551362 0.71769 0.45252
2024 2 0.552456 0.707789 0.448605
16604 2 0.550395 0.725689 0.455757
6313 1 0.532908 0.714221 0.452809
6314 2 0.533005 0.713731 0.444688
6315 1 0.534502 0.721419 0.441826
10201 1 0.535322 0.724092 0.441326
4116 1 0.548349 0.725955 0.466961
13580 2 0.572572 0.714548 0.448944
15386 2 0.574077 0.726809 0.466609
13579 1 0.568221 0.708474 0.447597
13581 1 0.568697 0.722682 0.450724
7424 2 0.458348 0.735335 0.466502
12307 1 0.486097 0.743468 0.4547
17239 1 0.486217 0.746344 0.454529
12308 2 0.484532 0.735771 0.455263
21537 1 0.481192 0.727951 0.461817
12309 1 0.482229 0.729997 0.459637
17240 2 0.487131 0.75369 0.452856
17241 1 0.492327 0.750894 0.447086
10244 2 0.517314 0.730114 0.453674
10245 1 0.514029 0.736636 0.455409
18390 1 0.512785 0.739227 0.456251
18389 2 0.511703 0.7466 0.458129
18388 1 0.50999 0.753838 0.457511
10344 1 0.494216 0.749423 0.445372
10343 2 0.498493 0.745453 0.439261
12087 1 0.509194 0.756726 0.457334
10203 1 0.538255 0.736486 0.447794
11289 1 0.538078 0.737626 0.450516
10202 2 0.538065 0.731921 0.44087
11288 2 0.537158 0.7411 0.458031
11287 1 0.533579 0.738209 0.464261
21291 1 0.531944 0.73697 0.46662
13294 1 0.585346 0.745443 0.45309
20810 2 0.566348 0.733387 0.441212
15385 1 0.580878 0.727761 0.46461
13888 1 0.583832 0.728072 0.463802
20412 1 0.55624 0.74728 0.467429
20809 1 0.571621 0.738149 0.445676
13296 1 0.573514 0.739801 0.446506
13295 2 0.579525 0.743615 0.448578
15387 1 0.569063 0.732201 0.46392
1312 1 0.567542 0.734404 0.46357
1313 2 0.563484 0.74052 0.463983
1314 1 0.558425 0.745464 0.466346
2064 1 0.485152 0.772901 0.46672
8668 1 0.485713 0.775623 0.464983
8669 3 0.485193 0.782046 0.460069
12086 2 0.50918 0.764662 0.456188
12085 1 0.509649 0.772584 0.456108
9355 1 0.509865 0.775592 0.456033
9356 2 0.509509 0.782968 0.458009
4064 2 0.552317 0.777141 0.46477
11298 1 0.583069 0.773249 0.462083
5007 1 0.556861 0.758686 0.439096
12510 1 0.556643 0.760832 0.441174
12509 2 0.557743 0.766193 0.446439
12508 1 0.564987 0.769122 0.449552
20197 1 0.581372 0.77235 0.459879
20199 1 0.567269 0.769991 0.450289
20198 2 0.576169 0.771201 0.453066
828 1 0.561053 0.770495 0.468206
4065 1 0.558215 0.771696 0.467531
12833 2 0.486903 0.79823 0.451912
12834 1 0.486883 0.791695 0.45632
8670 1 0.486858 0.788972 0.457441
17494 1 0.483306 0.799632 0.441904
12832 1 0.484276 0.799031 0.444704
9357 1 0.510614 0.790831 0.461697
7164 1 0.4621 0.537117 0.498354
12163 1 0.480719 0.525941 0.488676
12164 2 0.480338 0.527354 0.481443
2749 1 0.481112 0.525132 0.491827
17232 1 0.487998 0.532992 0.476817
12165 1 0.485997 0.53167 0.47811
2750 3 0.481888 0.524957 0.498712
17231 2 0.49374 0.537038 0.472824
11768 2 0.51033 0.542088 0.489645
8913 1 0.505841 0.533077 0.496573
11767 1 0.506663 0.535421 0.495102
8912 3 0.503684 0.52748 0.49939
11330 3 0.527429 0.529336 0.485653
11331 1 0.532826 0.53117 0.492425
11329 1 0.528449 0.528962 0.477119
16390 1 0.529187 0.52848 0.473617
18802 1 0.534888 0.531493 0.494222
18803 3 0.540891 0.532062 0.499212
17416 1 0.568368 0.537993 0.47493
15701 3 0.449348 0.559189 0.49661
15700 1 0.456031 0.557233 0.493007
1554 1 0.458713 0.556073 0.491422
7157 2 0.474492 0.565211 0.473173
7158 1 0.469557 0.561299 0.478656
1552 1 0.467508 0.559826 0.480669
1553 3 0.464253 0.55483 0.486058
100 1 0.490017 0.555292 0.491905
19687 1 0.487516 0.553943 0.493914
19688 3 0.482623 0.549334 0.498512
11769 1 0.514086 0.549583 0.489772
101 2 0.495291 0.55806 0.486438
102 1 0.501192 0.561017 0.482388
2545 1 0.503503 0.562345 0.481004
2547 1 0.515191 0.561601 0.470633
2546 2 0.511556 0.565127 0.476886
6317 2 0.514716 0.559731 0.498286
6316 1 0.522247 0.55917 0.494493
11962 1 0.546463 0.567995 0.472048
9490 1 0.524959 0.559591 0.493233
9491 2 0.532471 0.560749 0.490348
11963 2 0.541825 0.562138 0.472723
11964 1 0.537886 0.561975 0.480561
9492 1 0.536605 0.561597 0.483196
18296 2 0.553957 0.562549 0.495274
16060 1 0.548757 0.570433 0.472651
2835 1 0.5838 0.569384 0.474452
2613 1 0.581514 0.570032 0.47539
2612 2 0.574733 0.571123 0.479809
18297 1 0.55871 0.568369 0.495842
13713 1 0.560259 0.570932 0.496046
17871 1 0.462396 0.583358 0.480969
7464 1 0.46191 0.583703 0.478573
7463 2 0.461282 0.585817 0.470688
17870 3 0.464057 0.581893 0.487938
18857 2 0.490948 0.600299 0.487727
8289 1 0.485707 0.576397 0.499429
18856 1 0.483868 0.602546 0.489152
7302 1 0.48109 0.603207 0.489737
17869 1 0.467533 0.58063 0.494151
8288 2 0.489988 0.578952 0.494277
8246 2 0.515781 0.593612 0.476064
8287 1 0.498821 0.579953 0.492819
14238 1 0.5016 0.580015 0.492132
14237 2 0.508864 0.58038 0.489909
14236 1 0.512929 0.586186 0.484176
8247 1 0.513703 0.58803 0.481848
18858 1 0.496184 0.60595 0.487611
8245 1 0.514946 0.602217 0.473568
10830 1 0.51488 0.605665 0.472941
3804 1 0.529513 0.581615 0.470673
18049 1 0.536711 0.603567 0.468991
16061 2 0.553269 0.577515 0.472635
18050 2 0.537152 0.605439 0.4772
3803 2 0.534722 0.583923 0.475532
13575 1 0.54045 0.582761 0.484445
3802 1 0.539227 0.583045 0.482037
13574 2 0.543544 0.581611 0.492959
15793 1 0.532454 0.605838 0.487886
15794 2 0.527842 0.605272 0.494383
10939 1 0.551918 0.605834 0.498734
2611 1 0.570274 0.577583 0.481297
13712 2 0.56416 0.577333 0.495838
16062 1 0.556347 0.584701 0.474069
15295 1 0.557225 0.587264 0.474977