ITEM: TIMESTEP
100000000
ITEM: NUMBER OF ATOMS
2589
ITEM: BOX BOUNDS pp pp pp
0.0000000000000000e+00 5.0000000000000000e+01
0.0000000000000000e+00 5.0000000000000000e+01
0.0000000000000000e+00 5.0000000000000000e+01
ITEM: ATOMS id type vx vy vz 
411 1 4.1598 -3.91562 -2.67916 
14247 1 0.549194 -5.46208 -0.521092 
14246 2 0.469554 4.48977 -2.83566 
14245 1 -2.10042 -5.25621 0.940577 
16865 3 -0.123218 1.50282 -2.9106 
16864 1 2.65767 -3.54902 5.33571 
18555 1 -4.86852 4.69117 -5.6896 
18553 1 -2.27233 -4.67645 6.49728 
18554 3 2.38918 1.43995 0.732741 
410 2 -3.54839 0.131977 2.09796 
409 1 -1.76273 6.32677 1.39618 
4768 1 -0.414854 0.947809 0.900795 
17492 2 1.12444 2.18867 -0.937182 
17493 1 -6.78163 1.53477 1.3415 
17491 1 5.8223 6.15893 -3.74761 
15327 1 6.79041 1.44268 5.87105 
15326 2 1.69787 1.0905 -4.44378 
14242 1 3.19728 -4.07453 4.5684 
10369 1 -2.90937 0.587292 0.269767 
2274 1 -3.61908 0.260919 3.88586 
10370 2 3.27803 -0.510169 -2.33616 
13292 2 -3.02364 -5.15863 -1.50058 
13293 1 -3.85946 3.23783 -1.94828 
10371 1 0.506216 -2.18419 2.32393 
4769 2 -1.35825 -1.47917 4.0403 
16866 1 -4.28455 -4.14354 -3.77541 
11433 1 -1.6201 -1.7401 -4.62776 
4756 1 2.11018 -5.21136 5.44009 
11432 2 3.00199 2.35245 3.82417 
11711 2 -6.3888 1.20777 -1.02386 
4757 2 1.64318 4.08628 -1.84045 
11431 1 -4.88736 1.65881 -2.69125 
11710 1 2.24225 -1.10434 -0.864895 
4758 1 -0.633761 -2.08559 1.31162 
15133 1 2.61642 -1.41708 -1.21255 
2415 1 1.15752 6.14676 3.30501 
2697 1 -0.104204 1.27966 11.6602 
18532 1 1.59987 -1.74217 -3.24248 
18533 2 0.873563 -0.780653 -2.0279 
18813 1 0.898397 0.666147 5.98062 
10900 1 -2.13599 0.494335 -1.75838 
18534 1 1.49797 -1.39819 -2.03065 
5361 1 0.428716 -0.785452 0.682919 
18812 2 -1.31266 -1.32125 0.308068 
5360 2 -0.148355 2.54361 0.786209 
5359 1 -4.81719 -2.50206 1.18449 
18100 1 -8.15446 2.14993 4.96748 
15325 1 -0.134561 -2.76997 0.12057 
20050 1 1.23964 1.30099 4.3945 
3049 1 -3.8684 0.757487 1.0815 
18102 1 -2.90681 -0.714914 1.77418 
4051 1 2.36554 -9.37139 4.08905 
18101 2 -0.724402 2.55126 0.607837 
20051 2 0.789667 0.74932 2.95799 
20052 1 5.12861 4.96486 0.574301 
10959 1 -5.22674 -0.465532 0.0587766 
10108 1 0.710296 3.07171 -0.144135 
11712 1 -0.880042 -2.74582 0.276892 
10109 2 -2.61481 -0.976528 -2.33885 
17312 2 2.87433 2.03056 -1.47084 
4052 2 2.55588 -3.06271 -5.9238 
3050 2 4.1378 4.0414 -0.62925 
10110 1 -1.44351 -5.78457 0.219369 
3051 1 4.88123 0.0203344 -0.363346 
17313 1 0.372013 1.45598 1.73903 
19566 1 -1.00997 1.57381 0.721156 
15134 2 -0.3569 4.93965 4.81946 
19565 2 -2.08063 -1.75863 0.788325 
12990 1 1.21055 -0.372708 -0.56124 
19564 1 3.57161 0.711071 0.0520212 
14982 1 -3.7788 -0.801562 3.60916 
14981 2 0.496326 2.02852 0.897238 
12989 2 -0.942729 1.4301 -3.16344 
15135 1 -6.73014 1.11465 -6.12815 
11579 2 0.701378 1.07944 -2.42875 
14299 1 1.54105 7.17076 -1.34511 
1530 1 0.0433704 0.131481 4.62106 
2289 1 -0.220502 7.92658 0.691446 
2414 2 -1.40048 -0.641444 1.53876 
11580 1 -2.44916 -1.66316 3.03092 
2413 1 -1.65214 -2.54073 -0.998744 
18679 1 10.5134 3.44242 -2.61581 
4671 1 0.0564406 -0.306036 1.84282 
18680 2 1.0557 2.69671 3.7753 
18681 1 -1.41391 -4.7826 2.09291 
3790 1 6.5649 -6.92987 -3.45626 
3791 2 3.59559 -3.0085 -2.52951 
5388 1 -0.864291 2.53399 3.16866 
19305 1 0.255921 -1.89573 -0.26338 
19304 2 -2.37438 1.34996 -0.793198 
5387 2 -6.00619 1.92399 -3.44645 
4670 2 2.68905 1.63241 -0.313602 
11185 1 0.168731 -1.61383 -4.63434 
4669 1 2.47976 -0.855816 -0.703535 
18811 1 4.47277 -1.96791 3.65687 
17893 1 -1.86706 0.485347 -4.84331 
17894 2 1.55174 -1.0231 -1.90095 
17895 1 2.66667 1.31786 -7.13586 
18639 1 -0.00196311 -0.518811 -0.28986 
20060 2 5.4598 2.18195 -3.13376 
18638 2 -1.31629 3.41746 -0.297891 
9306 1 0.965073 -3.62657 0.287537 
3792 1 3.83663 -4.80828 -0.571539 
13147 1 2.62177 1.09023 3.35736 
20059 1 1.1956 -6.76419 -0.91801 
8265 1 0.885415 -5.70802 2.67154 
8264 2 -1.20935 -0.272459 1.52933 
8263 1 4.092 6.29284 0.812441 
1723 1 -1.7731 -2.78386 -2.67484 
13279 1 -0.127076 0.59177 1.87207 
13280 2 4.22374 -0.663695 2.14609 
2655 1 -1.69535 6.16488 -4.4396 
4053 1 0.542469 -3.46545 -2.97467 
2654 2 -2.96615 0.36833 -2.88677 
11696 2 -2.51334 1.41606 0.91813 
11697 1 -4.47137 3.01899 -0.936418 
9321 1 -0.397257 -0.308688 -4.38235 
11680 1 -4.49926 -1.94825 -0.237372 
2653 1 4.05457 0.101077 2.13307 
11681 2 -0.0561179 0.921994 3.32432 
4262 2 1.3587 2.97207 1.31358 
4261 1 -2.8657 0.59175 -6.31807 
13210 1 9.76572 -0.859509 -10.0555 
13281 1 2.73851 1.24701 -5.85055 
14980 1 7.82335 -1.00748 -3.20261 
4263 1 -3.39736 -2.09985 1.4323 
11079 1 -4.01173 -3.38033 6.27487 
11682 1 -1.90291 3.50831 -0.943777 
15532 1 -3.16743 5.57238 4.18778 
11078 2 2.40667 -1.41774 -1.13341 
11077 1 -0.416583 -0.771273 -3.78075 
8179 1 -2.36716 -2.43835 -1.33088 
16709 2 -3.2649 -0.91908 1.55101 
1529 2 0.00895794 0.504627 -0.00132739 
8181 1 -2.64767 -5.55333 -2.21916 
16708 1 2.58858 5.17993 2.63758 
8180 2 0.643801 1.44394 6.47591 
19740 1 3.55728 0.338786 -5.27321 
19739 2 -2.03324 2.00148 -5.1318 
1528 1 2.52288 0.561901 -1.01053 
14892 1 2.01339 3.36485 -1.7459 
14890 1 0.460766 1.99593 1.95372 
14891 2 0.798846 3.53811 2.73893 
3411 1 0.437483 0.0410818 1.07431 
5386 1 -4.76046 0.48462 1.19802 
21046 1 1.6451 -3.32116 8.76569 
21047 2 -0.225302 -1.48948 -0.158954 
18740 3 -3.76892 -1.71398 0.157607 
18739 1 0.776996 0.188933 0.80113 
11134 1 3.34872 -4.72898 -1.03207 
2449 1 2.64226 1.38373 -1.0478 
18637 1 -1.39347 4.59021 0.618577 
2450 2 -2.35379 0.581203 -0.663729 
2451 1 -2.73009 0.182428 5.16218 
5754 1 4.04061 5.32601 5.18024 
11135 2 -0.968111 2.2808 2.1468 
18741 1 -0.475762 0.93107 4.78899 
11136 1 -8.36319 1.2987 5.57096 
4199 2 4.91422 3.90372 2.12949 
10926 1 -3.93758 3.93512 -7.85575 
4198 1 -5.75628 1.03105 3.26103 
4200 1 -2.74284 0.576995 -1.4498 
4541 2 -1.44191 -0.892115 -4.0376 
4540 1 5.49817 3.41379 0.118049 
4542 1 -0.681551 -3.197 -8.78479 
19926 1 -6.18275 -4.7369 -1.29698 
10925 2 0.288987 0.110153 0.149163 
19925 2 -2.64054 2.89081 1.2124 
1724 2 -0.478658 -0.24606 4.06531 
1725 1 0.463523 4.19554 -2.97728 
14439 1 0.490374 -0.00144253 -1.28782 
14438 2 -0.681959 1.28566 -1.07281 
14437 1 -0.847485 -1.89303 4.28935 
4081 1 -0.67849 3.7234 4.23394 
7749 1 -7.01385 0.0816007 -1.54011 
4082 2 -4.23384 -1.93148 -6.26058 
7748 2 -0.337908 2.09703 1.52205 
21455 2 -4.81677 -4.56351 2.75719 
10924 1 3.56919 4.66998 5.40249 
21454 1 -4.91938 -1.91196 1.86979 
13538 2 -6.61351 0.49258 0.604932 
13537 1 -5.02648 -0.686125 -2.25919 
11841 1 -3.70943 -1.15945 1.30242 
11840 2 0.684595 -4.66679 -0.255672 
9320 2 2.46196 -0.885033 0.239386 
11839 1 -3.10907 0.637143 -2.44843 
13212 1 5.93816 1.66011 -0.41928 
7024 1 0.732815 -5.14722 -1.13865 
9319 1 -4.89471 1.44849 -1.78685 
13211 2 -2.0158 1.79594 0.620972 
16851 1 -2.24098 -2.95776 4.1732 
7026 1 1.42734 1.84066 -0.616082 
7025 2 1.18114 -4.07066 0.990139 
18846 1 -1.36527 -2.54532 3.27093 
16850 2 2.47079 -1.16155 1.63049 
16849 1 4.66061 1.56434 2.73563 
18845 2 1.41976 -0.737463 0.182457 
16579 1 3.52163 2.66788 1.50941 
13290 1 2.22415 -8.15276 -2.87845 
16580 2 1.47921 1.43434 -0.5298 
13288 1 4.16481 -1.48117 0.380254 
13289 2 0.586128 6.46365 -0.897641 
16581 1 1.62044 7.96137 1.55248 
9466 1 3.1976 -0.817119 -1.0404 
16857 1 -4.39982 0.739748 1.19237 
16856 2 0.938572 -1.07361 -0.304937 
8067 1 6.65965 -3.9833 0.400449 
8066 2 -2.44304 -0.0660778 -0.1332 
4893 1 -6.99033 0.9029 3.0442 
4892 2 2.5323 0.175984 1.27495 
4891 1 -0.949941 -5.19954 3.03286 
21252 1 -0.277512 -2.46621 0.474541 
2605 1 4.62991 -1.02763 -2.54986 
16855 1 -2.9611 1.01148 -3.19446 
8065 1 -0.135932 5.56846 -0.924772 
16728 1 -0.58909 6.1403 1.91441 
1720 1 2.86745 -3.83273 -11.5645 
10764 1 -1.43285 3.15549 2.43741 
4924 1 5.24516 -0.351789 -7.43785 
10763 2 -1.24759 -2.7229 0.387614 
10762 1 3.86945 -4.17924 -1.28091 
4925 2 -1.81914 -2.20557 1.6346 
4926 1 -1.60097 -6.05775 -9.82207 
15660 1 4.65364 -5.2275 -0.344017 
11685 1 1.61201 0.0411976 -0.583528 
13746 1 0.486188 1.37162 -3.5178 
11684 2 3.11545 1.1163 1.17931 
13745 2 3.0995 -0.836661 2.39117 
3065 2 0.249984 3.47014 -2.70702 
2482 1 6.24309 -0.451801 5.09509 
3064 1 -3.74632 -2.08224 -1.04056 
14321 2 -1.9825 1.18649 7.40282 
4083 1 4.55802 4.78509 -5.78138 
13744 1 -1.90407 -4.71509 3.43383 
20737 1 0.969666 2.57032 0.262589 
8167 1 0.660109 -4.31921 7.8313 
14792 2 2.71714 1.29145 1.9197 
8169 1 1.28621 -4.49972 -1.39886 
8168 2 2.9277 2.91924 2.46681 
9571 1 1.08473 5.92523 -2.29348 
15544 1 2.20848 -1.41973 -1.36217 
9572 2 -3.86285 0.409422 -0.0662213 
9573 1 -2.01911 -2.93582 7.88178 
7228 1 8.46742 -8.02741 -0.392065 
7229 2 0.623812 -2.20427 0.603575 
3679 1 4.05825 -2.03964 -2.42277 
18928 1 0.501016 0.35183 3.27895 
13128 1 -1.66518 -1.06245 2.12484 
13127 2 -0.0334546 1.9683 2.42072 
13126 1 0.216334 -1.94241 -2.49623 
18348 1 1.99381 -3.74241 -0.802637 
18347 2 -6.04567 2.47861 0.958212 
18930 1 -3.20883 3.43916 -3.73322 
18929 2 -3.84268 1.37299 -1.65585 
12235 1 2.39113 1.48537 0.362023 
12236 2 1.28796 0.642489 -1.46295 
18561 1 1.72173 -2.49538 1.5764 
18559 1 0.676335 2.65502 -7.07111 
18560 2 -2.92542 -0.0735783 1.49806 
978 1 0.372062 2.89119 1.42624 
6591 1 -5.18421 -1.52435 0.270099 
6590 2 0.507322 -1.46468 0.86401 
9141 1 2.72577 -0.632281 -3.30831 
19153 1 1.60197 0.591682 -0.80071 
19154 2 -2.03674 3.82567 -0.0845071 
12721 1 3.45726 3.09637 7.45622 
1539 1 -2.0863 1.38954 -0.695238 
1455 1 -6.58024 5.18074 4.50819 
1537 1 -3.79887 -3.47127 -2.07695 
1538 3 3.19835 0.333651 -4.74468 
1454 2 1.56762 0.819268 -1.85122 
4476 1 -0.902839 0.258535 4.82312 
4475 2 -1.70442 -1.12393 -1.90955 
4474 1 2.39431 0.444477 1.01754 
661 1 6.03509 -1.34658 -3.52139 
662 2 -0.157747 -0.154099 0.35786 
1359 1 4.38883 1.98669 1.55133 
3066 1 2.8394 -0.713215 8.38879 
7590 1 2.89599 -8.08656 -1.39956 
3766 1 -0.458904 -0.740421 -4.46752 
3768 1 -1.55549 3.56753 -6.98086 
7589 2 -2.29403 -4.46195 3.55486 
3767 2 -0.428729 -1.15886 -2.86687 
7588 1 -1.50816 1.89783 2.83285 
9559 1 -1.39473 2.24002 -0.742779 
15658 1 1.62829 -0.545021 -1.46292 
16306 1 -2.09446 0.743428 -0.0842888 
16307 2 0.419874 1.49599 0.128357 
14322 1 -3.86738 -5.14166 0.874349 
20738 2 4.50981 -5.28932 -3.84047 
10101 1 5.37226 0.298438 -1.10392 
1449 1 0.0870618 -5.16038 5.55801 
10100 2 -2.58765 1.22991 -1.26662 
8505 1 -7.32103 0.932431 2.03889 
11595 1 1.56438 -2.02231 3.9801 
8504 2 7.29756 1.94455 0.298757 
8503 1 -3.34654 3.50735 2.92511 
16104 1 -5.96901 0.871307 0.586336 
20739 1 11.6562 -3.85108 2.50233 
16102 1 -3.13108 7.23442 -0.744454 
16103 2 3.47521 2.41667 -4.83314 
11594 2 -0.914575 0.373834 1.92487 
20264 2 2.2784 1.7877 2.9229 
14999 2 2.47445 0.732388 1.59735 
15000 1 -2.27732 3.59245 2.12305 
20265 1 -1.80547 0.124905 -5.87578 
6864 1 1.73417 0.687806 1.41912 
13129 1 1.09356 -1.33137 -0.44651 
13130 2 1.60086 0.767688 -3.97832 
6863 2 3.33923 -6.2073 1.70141 
6862 1 1.07202 -0.296472 2.48902 
21123 1 -1.87263 -0.940042 1.23767 
20263 1 4.0305 2.71095 3.16632 
2293 1 0.282256 -0.228151 5.85973 
6358 1 -0.262262 0.323782 -0.729521 
6359 2 -3.38134 -0.886646 -1.26211 
18346 1 4.07076 -0.541114 0.529789 
852 1 -4.25173 5.19349 4.4275 
851 2 -1.7876 -3.89516 1.37862 
850 1 -2.63973 -4.623 -5.20828 
6360 1 3.26776 -2.19201 -3.4217 
781 1 -3.25022 5.21532 -3.19996 
782 2 2.51357 0.951708 0.957868 
16654 1 3.01105 4.84063 1.0662 
16655 2 -2.24971 -0.72701 0.939645 
9804 1 0.902737 6.26462 -1.63857 
6589 1 1.15795 4.89186 1.69606 
20479 1 5.38087 0.787937 6.82364 
19173 1 -0.453746 5.08619 3.26422 
20480 2 0.159924 4.46668 -1.05552 
20481 1 -1.56863 2.36312 -3.29489 
19155 1 -1.15584 1.56456 0.424887 
267 1 -1.84833 1.18531 -4.56414 
266 2 0.957525 1.28472 -0.415045 
265 1 -5.85376 10.4486 -1.8938 
67 1 -0.578011 -1.68546 1.21478 
15822 1 6.15474 -1.1793 -1.06496 
1954 1 -3.18018 -0.79991 -1.45997 
1955 3 -0.844488 0.0120069 2.65325 
6729 1 -2.45059 1.45797 -3.06276 
1956 1 2.14823 7.03507 -3.0047 
2213 3 2.56164 1.62411 -1.06969 
9561 1 1.14704 -4.15876 1.04498 
9560 2 -1.42785 3.50622 1.18921 
2214 1 8.16691 1.00701 2.81123 
2212 1 4.18426 2.24697 -0.861869 
2824 1 0.744202 -2.74352 -3.88016 
10099 1 2.3002 0.563098 -0.497109 
6677 2 -2.50465 1.80873 -4.29343 
3991 1 5.91139 -3.1983 0.890745 
3992 2 1.44631 8.32581 2.76827 
3993 1 -0.235211 -3.24739 4.31679 
6676 1 -3.90824 -0.00916022 -1.18012 
9240 1 -2.63599 0.684651 5.45398 
15796 1 6.59853 -1.00828 -2.31204 
20143 1 0.568712 -0.0514933 1.71133 
19600 1 0.547696 -8.78782 -4.42487 
6678 1 0.194522 0.399767 -1.12683 
20670 1 -4.26588 3.48188 1.61695 
18434 2 -2.39496 -0.734042 -1.57862 
18435 1 -0.505131 -2.26142 -5.01457 
20668 1 0.955527 2.91553 2.99459 
20669 2 -1.74635 -2.63197 -0.0780652 
20145 1 -7.88422 -3.08696 -1.52782 
20144 2 0.378723 3.225 -2.48948 
3252 1 -5.38444 6.11808 -7.62263 
16611 1 -5.3538 -0.669919 -3.67684 
3251 2 -1.13432 -2.46832 -1.31245 
3250 1 -8.49513 -1.788 1.11904 
14101 1 3.21601 -3.47249 -2.52047 
17628 1 0.953023 -3.32962 -1.81628 
6191 2 3.28236 -1.6828 -4.56332 
17596 1 1.69947 -0.82539 -5.36586 
17597 2 -2.07244 1.15408 -3.99503 
16610 2 0.770508 -0.55442 7.04315 
6190 1 5.57855 0.466094 3.00438 
783 1 -1.67349 7.32212 0.243 
16656 1 -0.344496 -9.47337 1.21032 
19172 2 4.59235 -0.134838 -1.03533 
19171 1 3.88047 -5.37787 5.62504 
17486 3 -1.30415 -2.29054 2.15121 
14952 1 -4.29984 2.32055 0.718211 
14951 2 -0.332651 -4.50243 1.7702 
13029 1 -5.92308 -7.69986 -5.39951 
13704 1 1.89641 -1.08495 -1.63422 
13703 3 0.200198 0.116078 0.907069 
13702 1 -2.66467 1.38808 -1.10965 
13028 3 0.0596956 -1.59293 2.66566 
3972 1 5.12553 4.8064 0.201204 
15797 2 -0.446623 -0.194737 2.22914 
15798 1 -3.59597 2.89679 2.28626 
3970 1 -1.3242 1.98643 -1.07364 
3971 3 -1.26342 -2.96362 -4.55359 
8726 3 5.19481 2.09968 1.87553 
8768 2 -3.33941 2.11337 3.40651 
8725 1 5.48382 7.1798 -1.4986 
8769 1 -2.26942 7.45031 0.0832298 
8767 1 1.07294 4.94299 2.30108 
18213 1 -2.21829 -4.43763 -0.0685921 
18433 1 3.40704 -4.63688 0.622844 
14102 2 -0.186684 5.66794 3.04216 
9439 1 2.36172 3.99386 3.64222 
14103 1 -2.77266 -3.07858 0.0044383 
13064 3 -2.50992 0.699782 2.08134 
13063 1 -3.535 4.6308 -1.19209 
12673 1 2.43825 1.5171 2.93181 
17598 1 6.29677 -0.024624 3.98209 
12674 3 -2.87038 3.17893 2.15775 
12675 1 -4.09284 -1.09683 8.56374 
1570 1 1.77191 -1.35114 -0.409561 
1571 2 -0.746442 0.589257 -6.73411 
836 2 -2.16978 -0.151841 3.47035 
835 1 -2.48158 4.12955 4.03478 
12291 1 -0.411193 -1.75079 2.83819 
15275 2 0.1218 1.9647 2.35118 
15274 1 1.86933 0.124581 -3.07312 
17485 1 0.429317 -1.50264 -4.52603 
12290 2 0.905292 1.17019 -5.71989 
12289 1 -4.74961 -2.62819 -0.124601 
5128 1 -3.99578 2.17284 -3.66984 
979 1 -2.3137 2.9312 -2.02403 
15276 1 0.461035 2.1891 -1.57214 
8727 1 -0.999664 0.6102 7.37623 
13065 1 0.211983 0.840138 -5.01418 
6909 1 4.50338 7.36721 -1.29478 
5129 3 -2.25173 -2.66645 -1.99262 
5130 1 4.1035 0.287744 1.68201 
15268 1 -2.5482 1.26434 2.79424 
15269 3 -2.14749 0.928797 0.0251662 
15270 1 -2.81966 0.358599 -1.7007 
17481 1 -8.32361 1.76949 -7.66178 
10978 1 2.79109 0.314635 -2.66928 
10979 2 -2.31349 0.829528 -2.83115 
17480 2 0.569563 1.18059 -1.93117 
13291 1 1.84805 -6.40757 -2.93301 
5353 1 0.925155 4.15723 5.17675 
5354 2 0.0323927 1.05987 -5.65091 
793 1 0.173165 6.59281 0.980141 
5355 1 0.650896 2.27931 -8.14913 
17479 1 5.64138 0.791232 -0.852999 
9526 1 -0.93324 -1.30187 0.343863 
9527 2 1.07063 -0.539786 2.52704 
9528 1 7.17578 0.15902 -2.27012 
20568 1 -0.402258 6.51245 4.99346 
20567 2 2.76688 -2.19752 2.8041 
19136 3 0.325747 1.4785 2.6448 
13825 1 -6.53682 -3.31385 6.26872 
19135 1 -3.95672 -3.32485 -3.06025 
10901 2 1.77439 0.746938 -1.89771 
10902 1 -0.771412 1.18222 1.92602 
19137 1 -4.25039 -6.6866 -5.14329 
15657 1 1.62054 7.88342 -0.979014 
15656 2 -3.38828 -1.10828 3.37939 
15032 2 -0.674872 -0.378907 -0.734462 
11499 1 -3.24072 -3.37251 -1.51678 
10980 1 -3.93399 -2.01508 1.5251 
13998 1 -4.92833 1.7887 0.610912 
15033 1 -5.46302 4.70414 -2.86157 
11498 2 -2.02444 0.288567 -2.25875 
13997 2 4.90942 -5.86714 0.206796 
13996 1 5.18921 0.172916 -2.65054 
9660 1 3.85104 -2.17528 0.0407131 
794 2 -0.202271 0.938446 -2.60837 
11497 1 -1.88958 2.48122 -2.45556 
1324 1 -3.30737 -0.817875 -1.69709 
17311 1 -1.3215 -3.77749 -0.357836 
2426 2 -1.0226 1.2948 -0.157918 
2427 1 3.08375 5.88233 -2.34447 
7435 1 -5.15803 -1.84328 -1.52465 
2425 1 4.42463 -2.10848 7.0088 
1325 2 -1.02731 1.74335 -0.323043 
1326 1 -0.0361098 2.31891 -2.92004 
11690 2 -0.915527 0.483544 -2.33826 
11689 1 2.01892 -0.668204 -2.2527 
11691 1 3.318 -0.943516 0.455713 
20566 1 2.02995 -7.4091 6.93098 
10895 2 1.07271 3.36435 1.68942 
10894 1 1.509 0.0458873 2.11096 
7767 1 1.67501 0.0794623 0.577382 
6205 1 -3.96324 2.66099 -1.48187 
6206 2 -1.24135 -0.788471 -2.47818 
6207 1 -1.46838 1.44189 -0.394977 
14301 1 -6.29862 -1.55592 1.74375 
14300 2 0.204251 4.03023 -0.0103588 
15977 2 -0.0775763 0.707135 2.98148 
8623 1 -8.01405 -3.39805 -3.24243 
8624 3 2.16232 0.688995 -0.0165652 
8625 1 -2.82386 -5.81274 0.384842 
15978 1 1.4823 0.0952757 -1.11709 
15976 1 -2.19058 2.63403 -0.0812407 
20081 2 -2.29327 2.15605 0.392003 
20080 1 -5.05691 -1.07283 2.46938 
20082 1 -0.734842 -2.48646 -0.064294 
13827 1 1.41179 -3.20898 -1.23266 
19303 1 5.81614 -4.79701 2.6459 
13826 3 -1.35201 2.35481 -0.491367 
1203 1 0.581283 2.6614 3.87386 
1202 3 0.204997 3.77591 0.48858 
10167 1 3.26258 0.971715 0.955471 
10166 2 -1.16006 3.6016 1.15943 
1201 1 5.97089 1.60958 3.35931 
15031 1 6.14443 -3.46296 -5.0179 
13148 2 0.482499 3.90776 2.52947 
13149 1 7.85424 -1.41843 0.652155 
8442 1 -1.11507 2.16682 -1.24064 
8441 2 -0.182994 0.965783 -3.20765 
8440 1 -6.05809 -3.92432 5.05979 
20061 1 0.629378 -0.0472828 -3.32308 
17697 1 -2.28962 5.82056 5.15583 
17695 1 3.3791 5.51873 4.20737 
17696 2 0.146199 3.52114 0.375852 
1855 1 2.39574 3.84901 1.78648 
1856 2 -2.36963 0.915679 -0.790878 
7287 1 4.42835 0.124382 -2.76358 
7286 2 -0.680335 0.170339 0.41206 
1857 1 0.929981 -4.628 4.01472 
11695 1 -3.88068 -7.91132 1.02109 
14568 1 -2.10128 1.17075 -6.99494 
14567 2 -2.41183 -0.977612 1.5289 
14566 1 -4.91449 -0.0868022 -2.59476 
5781 1 -5.20863 -3.43389 -1.67205 
5780 2 1.57623 -2.91117 -2.2326 
10896 1 3.50821 1.23991 0.524323 
12775 1 3.27254 4.52016 2.7257 
12776 2 -1.09199 -3.54115 -3.2713 
15533 2 0.472591 1.06593 3.22437 
18848 2 0.931319 1.99837 1.16868 
18847 1 -3.63504 -3.972 1.22658 
15534 1 1.81421 -0.360477 1.18062 
15931 1 -3.43334 -5.00357 -1.20888 
15932 2 1.91267 6.01716 0.706239 
15933 1 5.20684 1.13907 0.720124 
17746 1 3.06278 -0.949954 -3.42119 
19738 1 2.16432 1.08195 -3.99841 
12855 1 -2.18583 0.507978 5.65319 
12854 2 -3.74995 2.21702 -1.07084 
14755 1 -7.52946 -6.17331 6.35555 
12853 1 -4.3952 -1.72922 2.57494 
14757 1 1.13349 1.52008 -0.601194 
14756 2 1.50232 1.5278 -0.236708 
21048 1 -1.75222 -4.23162 0.0241261 
37 1 -0.690047 4.50192 1.33692 
5753 2 3.2403 1.53634 -0.361475 
39 1 1.30817 -1.9473 0.4315 
21196 1 1.35727 3.09836 -0.417586 
38 2 2.02203 -0.837854 -1.41686 
21197 3 -1.06537 -2.1633 3.53428 
10165 1 -1.7329 -0.644561 -2.19086 
18633 1 4.42765 4.35209 -0.883145 
18632 2 -1.52826 -1.36037 2.86617 
18631 1 1.78748 1.52784 -3.08449 
4716 1 -0.335576 6.08316 0.668208 
6471 1 2.09431 -4.5686 1.47202 
6470 2 -2.46562 0.105697 -0.195589 
4715 2 -2.9662 -1.12034 -1.81898 
4714 1 0.687476 -2.89631 -2.40173 
10794 1 -0.0261548 -4.0571 4.73622 
14273 2 3.01298 0.203805 0.255674 
14272 1 -0.662852 -2.74711 -2.76236 
12172 1 -1.74773 -7.41964 -5.37779 
14434 1 -3.668 2.00409 1.74006 
578 2 -5.15462 -3.65936 2.31479 
577 1 2.69604 0.497776 5.36397 
14436 1 -1.37961 -4.1252 -3.43487 
13539 1 2.62653 2.39831 1.2673 
14274 1 1.31089 -4.78712 -1.65125 
16717 1 -2.39909 0.146284 -0.421333 
5779 1 4.59646 0.917288 0.930119 
16718 2 -1.19282 0.63985 -1.86437 
16719 1 -1.33151 -3.92587 0.862502 
15546 1 -2.34144 -1.71705 -1.21393 
3427 1 -0.180258 0.577179 -6.57674 
18563 2 1.11923 -0.484868 0.0148075 
18562 1 0.746553 -0.00620504 4.03115 
12777 1 3.04471 -0.129249 1.06514 
17829 1 -0.496684 0.145909 1.90572 
14197 1 8.70433 0.863199 1.58791 
14112 1 1.8151 0.784886 3.80301 
14111 2 0.618615 -0.0990442 -6.14226 
17828 2 2.48789 -0.828266 1.06511 
14198 2 2.81393 -1.02381 3.14044 
17827 1 1.95285 -5.56213 -1.04172 
3036 1 1.24795 -1.59484 1.69029 
3035 2 1.49436 3.67684 2.68985 
14110 1 5.76025 -2.36565 1.36963 
2607 1 -4.42815 1.88521 3.29264 
8107 1 0.0667008 -4.83443 -5.98653 
8109 1 4.83254 3.12216 -3.9432 
3034 1 12.5389 -1.40743 1.80821 
8108 2 -4.28381 -2.55994 0.289269 
10775 2 -0.286342 -1.24712 0.179815 
10776 1 -5.14671 -1.563 -2.51714 
10774 1 4.7143 3.85014 2.86851 
9915 1 4.17521 0.215557 -3.63031 
9914 2 0.993329 0.0634136 0.250424 
9913 1 -1.14326 -1.67496 -5.29864 
806 2 1.68936 0.570531 -1.16886 
807 1 3.67189 -3.41923 4.41768 
2606 2 -4.04366 2.40852 -2.1636 
1040 2 -2.46219 4.16488 3.13632 
1041 1 3.16294 -2.41203 4.66963 
1039 1 10.5585 0.0653784 0.594074 
11365 1 -3.41612 -4.36001 6.94985 
11366 2 3.05217 -1.47639 0.89126 
11367 1 -2.78951 -5.87061 3.89523 
1672 1 0.746369 1.91746 5.01612 
20986 1 8.31473 -6.66857 0.280484 
1673 3 -2.74622 6.38207 -2.4797 
16726 1 0.456501 3.3669 -0.753839 
16727 2 0.999544 0.127341 1.94496 
5752 1 0.32395 -2.02583 -1.02411 
7976 2 0.245274 1.38099 -1.12832 
7977 1 -3.1899 3.46882 0.82473 
7975 1 -5.84338 -4.05145 -7.85969 
21198 1 0.740229 -1.73921 1.65782 
7212 1 -3.53455 -9.43052 -1.17537 
7211 3 -3.60775 -2.44675 -0.386844 
14320 1 0.030142 5.66521 1.59674 
11683 1 -2.59304 -3.08495 -2.61335 
5890 1 -0.96063 -4.22731 3.13746 
5891 2 1.65302 1.32887 2.18047 
16843 1 -1.78941 2.239 1.48919 
5892 1 -0.807526 3.60565 3.58842 
16844 2 0.75991 -0.756096 -3.91464 
5863 1 1.45508 -3.18188 5.95455 
5865 1 -0.654213 -1.47949 -0.242773 
6469 1 -2.6224 -4.1362 2.4131 
5864 2 2.33013 -1.13106 2.00872 
18952 1 -2.46072 2.0186 0.183083 
12784 1 2.32045 0.216837 -9.44069 
18953 2 -7.22696 0.299804 -2.14508 
12173 2 -0.228617 -0.27577 -2.41941 
6103 1 -3.76447 -4.46968 1.16997 
12786 1 5.06894 -2.49158 0.228913 
12174 1 0.23005 -6.52424 -0.879337 
6034 1 0.679303 -0.913445 1.56992 
6035 2 -5.29365 -0.133502 3.39327 
15545 2 -1.25603 -1.41716 1.04386 
21269 2 3.72909 0.870994 3.79512 
21270 1 -3.44476 0.787345 -0.560016 
12715 1 -0.975569 -4.13648 2.0819 
12716 2 -5.14652 0.143927 -2.7905 
12717 1 -6.98994 1.8207 1.2094 
15919 1 -1.63576 6.24729 -0.838462 
16679 2 1.21112 -3.44454 4.28695 
16680 1 -4.19265 -1.0261 -0.727959 
14199 1 2.17895 2.50637 -5.91262 
16678 1 -1.38013 -0.103613 -1.20903 
9139 1 3.23241 5.13535 3.96002 
12237 1 9.14724 -0.965701 0.877066 
9140 2 4.67522 -1.81432 4.07015 
21057 1 -2.22082 -4.7761 -2.27451 
21056 2 2.33739 1.36566 -2.05883 
21055 1 -6.21072 2.32692 2.10607 
568 1 -2.39949 -0.2478 -5.46506 
5301 1 2.70793 -1.3034 -2.92 
7273 1 -2.35181 1.10158 -1.68119 
7275 1 -7.03921 -1.07822 3.6388 
20987 2 -0.411712 1.91884 0.8441 
20988 1 1.94285 -0.931155 -0.152552 
5299 1 -4.99014 2.3098 -4.07677 
5300 3 -2.10805 2.30499 3.08413 
1453 1 5.71852 4.96154 0.270703 
1674 1 -2.33131 -3.89385 0.809869 
663 1 -0.194361 0.063789 -3.11183 
11523 1 -0.0680436 -5.44287 1.15396 
11522 2 -2.19238 -0.932289 0.296256 
11521 1 2.90636 4.67092 -1.41552 
8746 1 1.6604 4.74879 -2.54453 
15659 2 -3.20116 0.547512 0.664653 
8747 2 0.559383 1.97335 -0.907648 
6354 1 -5.74351 2.57802 -5.23673 
1497 1 -4.52495 0.0811736 -3.35702 
1496 2 -4.23586 -0.33695 0.633589 
18954 1 -1.90018 -7.09888 1.20535 
6352 1 -1.27143 -0.315915 2.5889 
6353 2 -2.24327 2.57091 1.1682 
16308 1 1.65733 -0.087206 4.03766 
11601 1 2.89498 -3.81219 2.97716 
1495 1 -8.8853 -4.54148 0.27198 
9238 1 -0.0419036 -6.83483 -2.45276 
4103 2 -0.360355 0.209072 -0.46412 
4102 1 -1.0022 5.53418 -4.19456 
6036 1 0.497302 -1.79909 -2.05565 
6178 1 -0.0714989 -1.13635 3.46445 
11600 2 -0.297178 1.24098 -1.33679 
11599 1 4.67276 3.79424 -3.05037 
4104 1 3.24861 -0.801829 0.325383 
6180 1 -0.500321 6.35141 2.71092 
21463 1 -0.4839 4.95665 6.4031 
6179 2 2.04675 4.28877 0.578632 
21268 1 10.026 -1.69266 -2.16434 
14998 1 -6.76459 -2.2572 -2.28304 
13131 1 0.336436 0.513638 1.81149 
6980 2 4.48997 1.93604 -8.76709 
6979 1 1.26145 -1.57305 1.07541 
9330 1 1.49409 1.55573 1.79464 
6981 1 3.82921 3.3713 0.16542 
10178 2 0.0822854 -0.874415 0.98693 
9329 2 2.23669 4.75793 -1.58113 
9803 2 0.459744 3.16912 -1.31408 
9802 1 -5.87655 -0.125005 0.36713 
10179 1 -2.26167 0.369615 2.27417 
18172 1 -1.5694 1.2029 1.28955 
1489 1 -0.429323 1.41711 -0.217225 
18173 2 -2.64896 1.06164 -0.326068 
569 3 -0.644425 1.82146 -2.78125 
17163 1 -1.85244 -2.36545 0.602279 
570 1 4.16888 1.05368 3.44045 
17161 1 -3.12972 1.72935 1.8247 
18174 1 1.18437 -4.26801 1.81074 
4069 1 -3.46847 -3.86631 -5.67626 
68 2 0.410593 -0.916848 1.02795 
17162 3 -4.16765 1.79268 -1.36885 
15821 2 -3.50242 5.64918 -0.319278 
15820 1 -7.09408 7.18884 -5.08553 
7274 3 -1.02851 -5.97577 -5.38205 
8628 1 -6.44192 -1.41325 -2.62498 
21328 1 2.29523 -3.81626 -3.78387 
21329 2 -3.38968 2.90893 0.176261 
9239 2 -2.94602 1.12256 0.047346 
19601 2 -1.57148 -5.42778 1.26774 
17205 1 -3.0645 1.06535 10.2772 
18211 1 0.947343 -0.703393 -2.13541 
17204 2 2.53053 -0.449135 1.35655 
21464 2 1.32025 -5.51448 -1.75497 
16791 1 -2.02035 2.19443 2.53923 
13336 1 -5.52889 2.09763 -2.58576 
16790 2 -9.00437 0.404731 3.56195 
13337 2 -1.24173 0.866807 2.4309 
19602 1 3.13663 3.1714 3.24756 
13338 1 -2.01477 0.518196 0.400291 
17203 1 2.41881 -6.43291 -0.273035 
21465 1 1.88884 -1.86605 1.42258 
15616 1 -0.489126 -4.93181 -3.68965 
15617 2 -2.09745 -1.00718 -3.48989 
15618 1 -1.98 -3.59948 -3.87757 
10517 2 -0.0600823 2.3397 0.236703 
11716 1 1.10805 4.96328 2.37037 
10516 1 -7.33879 -5.39437 1.26234 
16609 1 -3.55059 0.944107 1.65908 
17031 1 -0.998246 1.09364 -1.5194 
17030 2 0.74144 1.50521 0.363054 
1490 2 0.989833 0.70694 -1.67978 
12865 1 -1.16419 7.86062 -3.80838 
10518 1 3.78613 1.35005 0.498294 
1491 1 -0.947646 -4.63592 1.9187 
17029 1 3.5636 1.78636 1.6778 
14136 1 0.147586 -2.08966 -2.18813 
14135 2 0.470002 -0.0238004 -1.68774 
14134 1 4.42322 -2.98057 5.41021 
520 1 -2.26844 -6.14265 0.0339248 
12866 2 -1.93133 -0.0804504 2.38039 
17487 1 -0.00259773 -6.74728 1.62809 
6059 2 5.00928 -0.594786 2.17482 
6060 1 1.76869 1.70521 -0.354982 
4070 2 0.78404 -0.422192 2.79394 
4071 1 -1.68453 -2.65379 2.13121 
12867 1 1.22658 2.93104 6.53168 
6058 1 -5.81525 -3.66351 -0.00492086 
69 1 -1.02876 2.2212 -1.51351 
14833 1 -0.975337 -2.75885 2.44071 
14835 1 3.29819 -6.55835 2.03035 
14834 2 -3.7294 1.0285 4.45326 
21330 1 0.540927 -0.626211 -2.68159 
18212 2 0.9677 -2.43551 0.361618 
1572 1 -3.64051 -0.891437 1.82868 
11566 1 5.2213 3.87277 -1.80474 
11567 3 -0.431118 3.71745 4.76883 
11568 1 -4.2156 1.65949 -6.9686 
14142 1 1.08459 0.48273 -3.72018 
14141 3 2.26894 0.758974 -2.58108 
14140 1 -1.52696 1.30186 3.12337 
8943 1 -2.09251 -0.633802 2.25819 
8941 1 -2.69649 6.10437 -4.72598 
15379 1 -1.79774 -2.24267 -2.13959 
15381 1 -1.43711 -1.85356 -4.52964 
15380 2 2.92208 1.75434 0.13635 
8942 3 2.4027 1.98959 1.09616 
9790 1 1.62968 -3.51816 6.43512 
16188 1 -2.03691 -3.26366 -0.643699 
16187 3 -1.50492 -0.367603 -0.375346 
16186 1 -0.00270001 -0.0402687 -2.37934 
9792 1 2.13213 -0.646076 -4.52732 
9791 3 0.961107 0.736144 -0.782129 
7656 1 0.477181 2.4014 -4.00822 
15655 1 2.09613 3.63046 1.79623 
7655 2 2.20218 2.34768 0.432447 
7654 1 -2.13672 -2.11214 1.88058 
9658 1 4.96719 0.735528 0.4361 
9659 3 0.51567 0.483889 5.34122 
2758 1 -5.71589 -4.3053 -3.68252 
833 3 -3.45936 1.99508 -3.18486 
10616 3 1.24723 -3.03118 0.715114 
10615 1 7.9142 0.193118 5.36397 
834 1 -0.88792 8.29869 1.40242 
795 1 -3.30803 -2.71031 -3.09729 
10617 1 -8.29912 2.24434 1.45953 
2759 3 1.10924 0.120566 0.498814 
7436 3 2.77404 -0.00605683 4.11382 
2760 1 -2.23982 3.35384 1.30675 
7437 1 0.910393 4.35603 -0.837313 
16467 1 1.05121 2.73653 -3.29411 
18664 1 2.84616 -9.09442 0.981794 
598 1 3.60113 -2.07515 3.89928 
600 1 -3.10173 -1.17864 -2.88198 
10983 1 3.05494 4.49567 -2.81973 
599 3 0.389894 0.649955 -1.53086 
10982 3 0.629705 -1.84939 -2.57707 
10981 1 3.68284 2.95307 -0.247742 
7765 1 -0.624305 3.25129 3.37938 
7766 3 -2.36502 0.0626967 -4.30679 
959 3 1.61586 -1.30585 -3.36043 
960 1 1.9313 2.46361 -2.04258 
16465 1 -1.84963 -6.75239 -2.54723 
7285 1 -2.64219 -0.998607 7.54141 
958 1 -1.53476 -1.78327 4.44293 
12218 3 -1.18721 0.651279 3.25065 
18665 3 3.74262 2.01254 1.679 
19651 1 2.33222 -3.98949 0.402577 
18666 1 0.931118 0.419634 -1.51175 
19652 3 1.12078 3.37216 -0.0190762 
12219 1 0.427614 -3.16916 -1.94166 
14356 1 0.316546 -8.8646 5.0203 
19653 1 2.19489 -1.26056 -3.00063 
3429 1 -0.196133 -2.71042 -0.286347 
14357 3 4.20246 -3.21482 -0.425696 
16466 3 -4.07073 1.99968 1.24746 
65 3 3.22681 1.60779 -0.628194 
18849 1 -3.16478 -1.24607 -1.01583 
10021 1 -4.10708 8.08266 -6.66328 
10022 3 -1.61386 0.231438 1.23456 
10023 1 2.24268 0.763208 -4.19216 
17997 1 -0.509883 7.37196 2.81016 
17996 3 0.749203 -1.98572 -1.47545 
19359 1 2.14042 2.39021 3.05152 
66 1 6.5451 8.03494 6.25579 
16542 1 3.28764 -0.395569 4.78043 
16541 3 -4.59719 0.763811 -1.30441 
16540 1 -1.46849 -6.99176 4.66659 
17748 1 -0.036087 -3.47158 -0.217746 
17747 3 -4.30808 2.87064 -4.11296 
10793 2 -0.381399 0.221218 -1.5746 
10792 1 2.34227 2.14557 -3.75936 
1065 1 4.60858 -5.87586 -4.86336 
1063 1 -1.52999 2.96442 -1.39658 
1064 2 -0.395014 1.6284 -1.51058 
16845 1 6.01912 1.80844 3.88854 
14435 3 -0.508102 -3.64297 -1.19673 
579 1 -5.03327 -2.11546 0.757433 
12217 1 -2.33149 1.06975 -5.74538 
12461 3 -0.010755 0.216533 1.29334 
12460 1 -0.645601 -5.25399 4.61717 
7578 1 1.24609 2.21332 1.72785 
12462 1 1.63749 -3.65965 3.88199 
7577 3 0.89694 -1.95352 -1.6066 
7576 1 -1.40921 1.67868 1.89289 
18564 1 -1.23284 0.277986 0.961447 
3428 2 -3.47001 -0.692237 -1.73706 
15921 1 8.44577 4.81726 -1.73804 
21424 1 -2.94106 2.11552 -4.52497 
21425 3 1.12798 -1.2213 -3.31344 