ITEM: TIMESTEP
5000000
ITEM: NUMBER OF ATOMS
21558
ITEM: BOX BOUNDS pp pp pp
0.0000000000000000e+00 5.0000000000000000e+01
0.0000000000000000e+00 5.0000000000000000e+01
0.0000000000000000e+00 5.0000000000000000e+01
ITEM: ATOMS id type vx vy vz 
14480 3 -1.63799 2.08824 1.99187 
14479 1 1.61378 1.81131 5.53438 
7401 1 -0.119049 2.78976 -0.930305 
2425 1 -6.73508 -0.775471 9.25425 
2426 2 -2.08805 0.905327 -2.35571 
6955 1 4.95145 2.09751 -2.07019 
16847 2 1.40251 -1.73198 6.14839 
16848 1 6.5933 -1.79347 7.4568 
2427 1 1.41106 1.51067 5.0572 
16846 1 5.71829 1.15164 2.04099 
12378 1 3.09701 -2.81955 -0.222302 
12376 1 -0.977854 2.68629 0.442541 
12377 2 -3.5583 0.51822 -0.494227 
7804 1 4.18511 0.636441 -1.89745 
4674 1 0.964675 0.944334 -0.719182 
5828 2 -1.62784 4.3974 -0.649236 
5827 1 -4.70955 -2.44668 2.9775 
5829 1 -1.56628 -1.87804 -1.82578 
19135 1 -3.17267 -2.09143 5.66703 
4672 1 -0.366027 -4.12867 -1.98914 
4673 2 1.39232 2.03934 4.05053 
14283 1 -5.18268 -0.719119 4.26643 
14282 2 -0.688303 -1.28657 1.93635 
1141 1 -2.81042 -5.01444 4.76839 
5368 1 -0.176779 1.16914 0.621724 
5370 1 0.297132 3.9459 0.197549 
5369 3 3.16879 4.649 5.23819 
8918 3 -1.89015 -1.82153 1.8059 
8917 1 -0.442405 1.15855 5.26876 
8919 1 0.405343 1.71574 -0.807083 
18144 1 -1.51363 2.11082 4.35361 
18143 3 0.234929 1.13955 5.0722 
18142 1 2.17328 -2.17364 0.0273052 
21581 2 2.00078 -1.50543 -0.396455 
21580 1 0.8602 0.370698 1.21162 
5671 1 -0.165748 -5.58553 5.12715 
14671 1 -5.09506 -5.19936 -4.90209 
14672 2 -3.15833 0.601021 -1.00311 
9750 1 1.75679 -4.19463 -5.61051 
2535 1 4.72971 -3.18623 0.868367 
2534 3 -0.593614 4.17584 -0.977046 
14673 1 4.8729 -1.44471 0.885097 
10175 3 0.0311221 -0.268028 1.51522 
10174 1 5.54139 -3.79161 2.58515 
10176 1 -1.19312 1.75639 -3.1224 
9587 2 4.23094 2.52696 -4.60497 
9586 1 -4.59233 -0.568271 2.82833 
7399 1 1.5712 -2.13672 -0.936551 
9588 1 6.73258 0.796971 0.98818 
14014 1 -1.97622 1.25994 0.00401394 
14016 1 -0.890451 -1.62592 -1.95647 
14015 2 -1.5944 1.14636 -0.562538 
6008 3 1.70449 1.65391 -0.412501 
6009 1 -3.47922 3.80917 3.32646 
21182 2 1.24667 -1.24916 -1.60386 
21181 1 5.89755 7.14669 5.98245 
7400 2 2.91039 -0.194289 -1.53962 
15421 1 3.34543 -3.80837 -5.33071 
15422 3 -2.36693 1.80993 1.04206 
15423 1 -0.00498985 -2.81912 -0.367118 
6804 1 0.122613 1.03409 5.07983 
6803 2 -2.12862 -1.33177 -2.92216 
6802 1 2.61412 -3.79676 -2.32569 
7597 1 -1.30364 -3.2451 0.899717 
7598 3 0.469711 0.355994 -2.23898 
7599 1 -5.21379 0.930265 -1.39428 
14746 1 4.66449 -4.54447 5.5227 
8299 1 -1.44609 -0.526241 -4.58379 
2487 1 4.50855 -2.04697 -2.58829 
2486 2 -2.82419 3.01789 2.10176 
2485 1 2.87217 -6.99767 -3.57199 
8301 1 -2.34733 3.20352 -9.19955 
8300 3 -1.12435 -1.10937 -0.117343 
14281 1 -0.160007 5.18033 2.74973 
12575 2 1.54501 -1.79757 -1.71265 
12574 1 -3.86001 8.48989 1.95253 
899 2 2.70084 -1.8527 -2.63875 
900 1 1.55172 0.332366 -4.16332 
12576 1 0.888601 -2.49612 2.98958 
490 1 -0.900281 2.07728 0.974127 
491 2 -5.64099 -4.93326 1.69549 
492 1 -1.21461 0.701338 -2.24888 
898 1 6.10713 4.6808 -2.4185 
8893 1 -1.25838 2.06763 3.56583 
18547 1 -0.904699 -1.41033 -0.678464 
18548 2 -0.884812 0.163765 -0.327818 
16005 1 0.667511 6.66017 0.704958 
16003 1 -0.109753 3.06056 0.243079 
16004 3 2.22904 -3.83175 2.97299 
871 1 -2.73104 -1.80437 -1.82763 
872 2 3.37461 -0.448161 1.39074 
873 1 3.20226 4.41105 -0.130421 
9978 1 -0.235445 -4.86268 5.31746 
9977 3 -0.522287 0.998895 -0.883205 
9976 1 3.56025 1.57175 -8.31223 
16851 1 0.55383 -0.956552 0.774446 
16849 1 0.978451 4.11056 0.732937 
16850 2 0.30282 2.58754 -0.537284 
13421 2 2.94014 1.05615 -6.16079 
13422 1 2.5098 -2.14272 6.23475 
20790 1 -0.972384 -1.58252 0.475086 
7059 1 0.750191 5.05582 0.155246 
21582 1 4.96959 1.22875 -1.4013 
20788 1 2.20211 -3.07655 -4.71887 
20789 2 -0.349561 -1.19353 -1.88869 
18328 1 -0.391415 1.26926 -5.52631 
13780 1 -8.41164 5.61621 0.780565 
13782 1 4.42042 3.49084 0.901348 
13781 2 2.26608 -0.794576 3.43842 
10572 1 5.26293 -3.97901 -0.157061 
10571 2 -4.13603 1.76339 -4.84946 
191 2 1.95124 -6.3294 2.28309 
190 1 1.05228 -0.589913 5.60722 
192 1 -1.04545 -2.1863 -1.20568 
13688 3 1.01121 -0.61318 -2.35738 
13687 1 -5.67986 -5.68578 -4.08241 
5672 3 0.0563316 -4.23437 3.23953 
5673 1 0.953327 0.974665 -1.62455 
10570 1 -5.3238 0.502263 4.55149 
18718 1 2.14474 -5.70901 -0.967825 
18720 1 -3.43335 -2.09936 -0.112315 
18719 2 -1.09051 -2.61859 -0.492895 
18287 3 -2.82726 -1.56844 -4.0603 
18320 2 3.62879 2.29657 1.42317 
18321 1 -3.98971 1.55843 4.5795 
18288 1 1.30962 2.48322 -5.78993 
18319 1 0.808545 -0.683522 1.2696 
6007 1 -4.88822 5.93675 -0.310636 
19709 3 0.144244 1.55208 0.0553561 
19710 1 2.20037 -2.68235 4.94302 
2980 1 -9.07552 1.75221 6.03644 
2982 1 -3.2749 -2.84352 -0.909735 
2981 2 3.35055 -3.7623 -0.0704458 
19708 1 -3.37549 2.21194 4.63755 
17611 1 -2.30938 -0.891539 4.85646 
14747 3 4.07744 -2.96878 -1.2185 
14748 1 4.60579 5.30339 -2.10117 
5103 1 -2.58621 -0.27356 -3.13031 
5102 3 -0.0173407 -1.48509 0.761024 
774 1 -1.19551 -2.91015 2.70239 
773 2 -5.45911 -2.55451 0.454491 
772 1 3.78095 -0.39092 -3.10807 
11545 1 -4.64799 5.41023 -2.89044 
93 1 1.35305 -4.87108 0.251744 
92 2 0.117865 4.49512 5.19151 
91 1 0.75669 2.81299 -0.0605056 
3103 1 1.27661 -0.0646637 -6.75931 
8894 2 0.352242 -2.84783 3.95051 
8895 1 -0.747986 0.0665128 5.81635 
20277 1 3.61321 -2.05932 2.08233 
20275 1 4.24308 2.58627 -0.601212 
20276 2 -2.76008 1.47334 -2.68781 
18549 1 -4.89718 -0.101985 3.57325 
14019 1 0.10718 0.912302 -2.04006 
14018 2 2.78737 3.51777 1.95266 
14017 1 0.352895 -4.79809 -1.77548 
20476 1 1.42753 2.49381 -3.93972 
18669 1 2.14983 -0.947322 2.27093 
11757 1 -4.007 -1.98439 -1.74026 
11756 2 5.89726 -0.590124 1.63003 
18667 1 5.2123 -0.269366 0.829709 
18668 3 -1.35301 2.37712 0.241136 
6651 1 4.45992 -1.81082 2.63836 
11755 1 -2.91077 0.10502 3.93838 
17733 1 -6.80328 -1.52331 -4.67112 
17732 2 -3.57905 -0.813712 2.64598 
14335 1 -6.46342 5.40403 4.01935 
14337 1 3.00529 1.11712 -3.43627 
14336 3 -1.81195 3.39875 0.499097 
6649 1 -3.27973 -2.36454 -2.00551 
6650 2 2.40283 0.859201 4.09438 
17731 1 -6.27573 2.89325 -3.188 
9140 2 2.67215 0.706985 -1.79435 
9141 1 0.17151 -6.09057 2.89608 
13420 1 -2.52624 3.82821 -1.16454 
7057 1 3.57613 0.603289 -7.4984 
16300 1 2.82808 8.18166 -1.2465 
7058 2 1.43075 -1.56188 -4.87967 
15331 1 -6.57882 -1.44612 -1.00493 
15332 2 -1.85011 -3.2696 4.15647 
18330 1 -4.79666 0.236044 -5.98651 
18329 3 -1.35946 -0.553171 1.38534 
18149 3 -3.04343 3.16645 -0.705524 
18150 1 0.812748 -3.07925 4.35975 
15333 1 -2.30038 -4.93944 -1.40819 
13689 1 -5.61283 -1.78981 -1.66261 
6754 1 0.211412 0.0269339 -4.23767 
15195 1 2.72398 4.35722 0.761265 
5218 1 -0.367985 4.00653 -4.34256 
5219 3 -2.26947 1.231 1.42453 
6109 1 -3.1378 2.29633 1.18266 
5220 1 -1.75441 -0.0080971 -3.55998 
18885 1 -7.85238 -4.09068 -3.54289 
14636 3 -1.53331 -3.53862 -0.942541 
14637 1 -0.128068 -2.53328 2.2524 
20258 2 0.603833 0.464854 -3.58931 
20257 1 -3.37339 -3.10861 3.02223 
20259 1 1.48875 5.63138 5.04991 
14635 1 -2.00348 2.05152 5.4135 
5101 1 0.23751 0.49972 -3.87139 
12775 1 1.74349 5.18325 5.79277 
12776 2 2.62413 3.49478 -4.13339 
12777 1 0.162667 2.12302 -2.11862 
15388 1 -3.82921 -2.73474 -4.48067 
15389 2 2.75804 1.17593 0.998083 
15390 1 -0.874248 1.8352 3.40103 
11546 3 0.908532 1.34565 2.65907 
11547 1 -0.417133 3.22798 9.30189 
3104 2 -0.462024 1.51812 0.0393201 
21148 1 3.38188 4.91427 -3.17354 
21149 2 0.992492 2.64144 3.01637 
21150 1 5.59484 0.349321 4.42541 
3105 1 0.316333 -0.290245 2.24166 
20477 2 3.58606 -0.476429 0.166512 
3874 1 -3.89537 0.971922 -0.271412 
20478 1 4.60247 -5.5584 -0.741371 
3875 3 0.217615 2.17491 0.0967525 
3876 1 1.16532 4.50137 -0.176216 
1226 3 -0.588898 -2.80559 0.867453 
1225 1 1.20833 6.55753 -1.54691 
5260 1 4.16953 6.27892 -4.71757 
9391 1 3.75228 1.66939 2.36137 
9392 3 -6.00682 3.02837 1.18417 
9393 1 -0.920361 2.66749 -0.574948 
1227 1 10.9667 -1.91524 -2.78253 
17015 2 0.138964 1.12238 5.31667 
17016 1 -4.17088 3.60936 1.70252 
17014 1 -3.43164 2.73276 -4.41907 
5261 2 -0.572898 -3.72964 1.8802 
9139 1 0.59543 -0.390957 1.31573 
4653 1 -2.57795 3.1312 5.25248 
5262 1 -1.99626 -3.11083 0.67458 
5792 3 -3.31081 -4.47566 1.121 
5791 1 5.78838 1.93025 -1.1794 
13380 1 7.08124 -5.74395 -2.59569 
16302 1 0.856083 1.2509 -0.772899 
16301 3 -1.2544 2.8399 -0.0591505 
475 1 4.02134 2.06743 5.60759 
12758 3 0.76094 1.98504 -2.77398 
12757 1 0.968477 0.183442 -4.75457 
477 1 -0.863742 -4.38618 -0.31333 
476 3 1.66169 -1.12086 -4.05556 
13381 1 6.28056 0.0878605 0.193518 
13382 2 2.98778 1.61952 -3.68332 
13383 1 0.532948 5.24051 0.659521 
8551 1 -0.37414 -6.05881 -5.12589 
8553 1 0.0271972 -2.8934 7.18484 
8552 3 0.309279 -1.85897 -5.27777 
17761 1 1.71534 6.00465 2.61424 
17763 1 -2.2444 1.53148 -2.48445 
17762 3 -2.08833 -4.08578 -0.674448 
12084 1 -2.52173 5.248 -5.03973 
12739 1 8.18682 -1.28771 2.48707 
12740 3 -1.48427 6.64303 2.19447 
12387 1 0.0340259 -0.413979 -0.355654 
4727 2 4.9227 -1.96172 0.721225 
4726 1 0.780385 1.07985 0.123089 
4728 1 -1.3531 -1.30386 -1.55903 
18244 1 3.65991 -1.022 -5.72133 
6755 3 -2.25141 -0.0747879 -0.222552 
12082 1 3.54232 -1.08097 -1.04352 
12083 2 -1.33771 -0.928101 -2.10155 
12385 1 -2.40131 -3.75744 4.74674 
12386 3 -0.838715 2.36189 -2.76517 
8214 1 6.43553 2.56031 1.07342 
8213 2 -1.08792 -2.58058 2.72864 
15193 1 -0.103489 -3.32521 0.758644 
8212 1 3.74565 1.35171 2.58956 
15194 2 -1.84119 4.95762 -0.842413 
11148 1 -0.653525 4.97265 3.49256 
272 2 -2.072 4.347 2.47634 
273 1 -2.25788 0.310587 2.18737 
271 1 -1.26538 1.25596 7.68068 
18048 1 3.32657 -5.18566 5.05463 
1028 2 -1.09452 -0.658327 0.826564 
1027 1 3.37185 -3.30225 5.32564 
1029 1 4.24793 2.70296 3.91182 
18884 3 -0.0487149 -0.84631 0.285739 
18883 1 -1.4771 -4.30028 0.87483 
4784 3 -0.288279 3.02244 0.434873 
4783 1 -5.86724 -1.3033 1.38493 
4785 1 -9.51041 -1.2632 -0.424493 
18047 2 -2.65567 -1.09032 1.10433 
6111 1 -2.91673 3.86923 3.81424 
6110 3 1.74603 0.488002 -0.847404 
9729 1 -0.838857 -2.53362 2.93521 
9728 3 4.595 -0.244025 -3.27734 
5112 1 2.9459 -6.19801 1.94455 
5111 3 -2.76223 -0.46884 -2.44208 
5110 1 -1.43183 1.61917 2.87816 
888 1 -6.71006 7.30326 -3.51861 
887 2 -0.69628 0.263825 3.09022 
886 1 -3.21379 -0.933395 1.88919 
9496 1 -1.49995 0.979983 4.64125 
2515 1 -4.38882 4.98906 -1.214 
942 1 -0.971304 2.17183 -0.523702 
941 2 -2.64884 -0.0700184 1.08543 
940 1 -5.96135 -8.6775 -0.0265213 
9497 2 3.00162 -0.929897 1.23604 
9498 1 0.62929 2.65571 -0.301906 
20215 1 -10.6851 0.703499 -1.07765 
20216 2 2.23803 1.02021 1.94323 
20217 1 1.52011 3.03534 -2.30551 
17435 2 -0.30968 -6.94855 -1.35604 
17434 1 0.299698 1.74001 4.6305 
17436 1 4.25884 4.52944 -1.92112 
9106 1 1.55704 -1.53118 1.27686 
9108 1 1.05556 6.17132 4.57547 
9107 2 0.626367 2.58744 -1.54092 
10190 2 -9.2248 -4.9493 4.1838 
10189 1 -1.14164 -4.0223 1.88046 
16880 2 -3.38512 -1.86304 0.813695 
1494 1 3.99969 1.22206 0.290697 
16881 1 -2.06252 -1.43144 -7.51282 
4652 3 -0.0159374 0.11671 -1.86022 
4651 1 -0.332703 6.74227 0.265429 
5793 1 1.68518 2.68088 4.16651 
1492 1 -1.68395 -5.15 4.85 
1493 2 0.2939 -3.38239 0.101847 
6305 3 0.592658 -2.27157 -1.02028 
6304 1 -4.90963 1.86218 1.39041 
13379 3 2.47012 -5.02362 -5.0653 
13378 1 -4.09929 -3.28616 -3.58226 
12759 1 6.42761 -4.04694 -0.481293 
12712 1 -5.49732 -4.20586 -0.616982 
20293 1 -1.45157 0.135444 -6.54959 
20294 3 -0.350521 1.80948 0.279107 
2173 1 4.52111 0.633847 3.83014 
2174 3 4.71105 -0.690738 0.0313213 
2175 1 1.02496 -6.63835 -5.20371 
20295 1 -2.97486 -9.85251 1.77224 
6306 1 0.958539 -1.3465 2.62584 
2898 1 1.19565 5.72231 -2.5646 
13326 1 -1.17542 -1.37783 1.81978 
13325 2 0.166385 3.2263 -0.070285 
2897 2 0.154322 -4.3188 -0.494643 
2896 1 -1.68405 -5.92875 -0.483048 
13324 1 4.0348 -1.71816 1.72186 
18245 2 6.52178 -3.731 5.10862 
18246 1 2.24991 2.23121 -1.49835 
11652 1 1.58693 -3.81051 -0.0167094 
11147 2 0.483998 -2.89049 -0.189909 
17874 1 0.648961 -4.87921 3.2586 
5583 1 0.853498 1.94173 -3.89764 
16729 1 3.58504 2.05403 2.18197 
16730 3 3.41352 -6.43049 1.01511 
17872 1 0.200521 -1.53583 0.973176 
17873 2 -0.468963 0.565277 -3.0274 
5582 2 1.06048 -4.44801 -1.49293 
5581 1 -4.58036 -0.310505 3.0211 
18046 1 0.843723 3.70199 0.381151 
10375 1 1.15184 -1.82845 5.25637 
9727 1 3.52373 -0.32412 0.433456 
10377 1 1.24101 2.30931 -0.199346 
11993 3 4.40961 -2.06411 -0.574746 
10376 2 -3.4708 0.908159 2.07031 
3786 1 1.0842 -3.91857 5.24423 
11994 1 0.5372 0.115392 -2.50456 
14625 1 -2.02806 -4.7039 5.04275 
14623 1 4.2264 -0.162815 0.513089 
14624 2 2.03363 -2.53492 1.25848 
2516 2 2.73891 0.237279 -1.52118 
2517 1 -4.53889 1.15582 0.0425361 
14708 2 4.84053 -0.960093 2.77631 
14707 1 2.19254 0.818761 0.673246 
14709 1 2.55881 0.226533 -6.95798 
7051 1 -3.98135 -2.26936 -0.393186 
9428 3 -0.711492 -2.28711 0.564941 
9429 1 -3.11211 4.34245 2.30003 
9427 1 3.34041 2.19108 -3.30949 
9030 1 0.841442 3.63409 -2.23422 
9029 3 -0.799792 1.13202 -7.28147 
9028 1 0.281262 7.04008 -10.515 
10329 1 0.401575 -0.894441 3.12293 
10328 3 -3.19015 -1.31266 1.85397 
11803 1 -0.786946 1.08519 0.615771 
11804 3 0.978317 -0.476585 5.69232 
10327 1 1.00585 -6.10164 -1.00238 
11805 1 2.19203 3.06197 2.20344 
12840 1 -4.37942 -1.01021 0.694937 
12839 3 -1.68945 -3.81427 2.21956 
12838 1 0.396117 0.94767 -1.80572 
10549 1 8.10367 -4.08801 -2.26563 
10550 3 -0.861829 -2.40006 -2.30843 
7455 1 -1.347 -2.15351 -5.09995 
10551 1 -2.02278 -4.94714 -5.99864 
10191 1 2.76747 -3.86812 -3.47211 
1900 1 0.58883 6.21613 -0.281258 
1901 2 0.0520145 0.908057 -2.53213 
1902 1 -1.47334 -2.82463 2.59007 
16879 1 -3.16224 5.10577 -6.92377 
7453 1 1.99407 -1.12978 1.38399 
7454 3 -2.23296 1.90666 1.21401 
7564 1 -3.99468 2.97743 3.06315 
7565 2 -1.59875 -0.980234 0.524534 
7566 1 -1.62149 8.62344 -4.78826 
2922 1 -1.79263 -1.92637 -0.603188 
2920 1 -1.76212 -10.0721 7.51403 
2921 2 -3.27968 -2.94645 -4.61937 
12713 2 -1.90409 -6.19963 2.70719 
12714 1 -6.53279 5.09646 -2.2987 
3043 1 -2.85288 -0.566428 0.401882 
3045 1 2.65438 -4.17734 -2.2387 
3044 2 0.062895 6.68972 -0.975914 
12022 1 -2.66287 2.18145 -3.78361 
8376 1 3.34955 -4.71097 -6.00379 
12023 3 0.597897 -3.1086 1.9805 
12024 1 -4.23167 7.59151 -4.00179 
14649 1 -0.836793 -2.27962 -2.5834 
14648 2 -1.31907 -2.05482 0.897925 
14647 1 -3.21692 -1.61088 9.28459 
2259 1 -8.25344 -1.70517 -2.70215 
2258 2 -1.7156 -1.68403 -1.12755 
2257 1 -3.3758 -3.17509 0.393475 
4230 1 -0.599928 4.24399 -5.37393 
8235 1 0.347962 4.97134 -4.35291 
19037 3 1.42355 -1.75109 1.05596 
19038 1 -0.0869638 1.95851 -0.00525783 
14224 1 -4.43413 1.20635 -9.01307 
1438 1 0.519834 -0.186757 -5.98367 
1439 2 -0.715889 -3.4059 -0.641518 
1440 1 -3.1659 2.02556 2.42183 
5999 3 -0.226259 3.99508 -2.44151 
16731 1 -3.2009 0.993998 6.3036 
14226 1 -0.271179 3.03475 -1.33732 
14225 3 3.74834 1.33212 2.27314 
18289 1 -3.40121 0.561985 -6.52283 
18290 3 -0.871897 2.64903 -2.50988 
3563 3 -2.41093 3.7763 0.0360608 
3562 1 3.96369 -6.02541 -1.05161 
12630 1 -4.85497 4.95797 -2.51323 
18291 1 5.72737 0.456914 2.00699 
4175 2 -1.58277 3.76086 -4.74574 
4174 1 0.0929244 0.0767743 1.03461 
4176 1 4.39045 -3.79275 -6.14902 
21216 1 0.302793 0.342562 5.5513 
10498 1 0.782237 -1.2237 -0.776655 
21214 1 -2.11663 2.33266 2.95454 
21215 2 4.26821 0.497553 -4.2893 
1753 1 1.37138 2.12122 -5.08518 
1754 2 -1.39186 -4.47818 0.378876 
11491 1 -4.69782 -2.13818 1.17765 
1755 1 -8.39912 -0.624852 -0.414466 
11492 3 2.70023 -2.21239 2.91095 
11493 1 -0.963685 -2.96941 -4.11976 
12628 1 -1.55663 -1.75904 0.768392 
12629 3 1.43905 -5.34384 -0.69541 
11227 1 0.950133 1.36592 2.60291 
11228 2 0.0475854 0.623101 2.0241 
11992 1 2.51006 -3.27779 -1.12547 
19567 1 -4.36723 3.34164 7.7837 
14555 3 2.06127 -2.1043 -0.488885 
8841 1 -2.43792 5.88347 6.63758 
14556 1 -0.983826 3.24896 6.11644 
19568 2 -0.00131411 -0.00569543 -0.909576 
19569 1 -2.12144 -8.72125 0.609984 
12639 1 0.145129 -1.49473 -3.64509 
12638 2 -2.41353 -1.76574 -1.00095 
12637 1 6.32199 -5.99891 -3.78435 
13075 1 0.93267 -2.05525 2.26786 
13076 3 0.724948 -0.172156 -2.7648 
5387 2 -5.87768 -2.23598 -0.133 
5386 1 3.63869 -2.47292 -1.90319 
18371 3 4.60834 -3.36453 -0.843796 
18372 1 -9.67804 -6.43803 0.817703 
5388 1 1.10713 1.56319 -1.72947 
13744 1 -1.99619 -4.89903 1.37445 
18370 1 3.21667 -4.34002 5.95086 
13746 1 3.36298 -3.24879 1.12397 
13745 2 1.34367 -0.160841 -0.882118 
15096 1 5.04993 0.49251 -1.87589 
15095 3 -1.74353 -1.79358 -1.77225 
15094 1 -1.96146 2.36708 2.23259 
436 1 -4.22449 3.26829 0.350801 
437 3 -3.73725 -0.56341 -2.27662 
438 1 3.08766 3.02984 -7.70373 
17244 1 8.8933 -1.41013 -5.33752 
7798 1 -0.452289 -0.788026 -0.902505 
8375 2 -1.24422 0.432599 2.40316 
8374 1 4.28262 -0.508616 -1.04576 
17243 2 -0.578102 3.17331 -1.01934 
7799 2 -2.444 1.60796 2.05907 
7800 1 6.12593 -1.62499 5.50607 
4229 3 1.80652 4.03955 3.84573 
4228 1 -5.00808 -3.62618 -2.07753 
5998 1 -1.83917 -5.61777 2.4399 
1682 3 2.53091 0.35713 -1.82962 
1683 1 0.617295 -2.96241 -1.77432 
1681 1 -1.52484 -0.483628 -4.69535 
15895 1 -2.98893 -1.14676 -1.38832 
15897 1 -1.64486 0.20627 -1.02301 
15896 2 3.01677 1.33381 1.30632 
3564 1 2.21931 2.8599 -2.47887 
15905 3 -0.886215 2.31887 -2.61926 
15906 1 2.29415 -2.23749 3.99195 
15904 1 1.00108 0.462948 -3.46675 
10500 1 5.15795 2.45345 -0.364059 
10499 3 -1.29304 0.863666 -1.4328 
355 1 6.46303 -3.07113 -4.54393 
356 2 -2.64267 -4.1862 1.91709 
357 1 2.31839 3.38077 4.58115 
20590 1 -2.09684 2.02533 0.554818 
8597 2 -3.20029 -2.98332 -3.22972 
8596 1 1.30522 -3.60518 -0.21775 
8598 1 -3.53593 -0.312743 0.569953 
13642 1 4.75571 -3.41113 -0.0863855 
13643 3 2.65256 -1.43533 1.11218 
13644 1 -1.38841 2.26837 0.919676 
8839 1 -2.02993 2.57242 -1.55558 
8840 3 0.835268 2.43758 -0.357391 
21565 1 -2.02496 0.726788 6.09662 
6416 2 -1.19643 2.31788 2.92071 
6415 1 -6.5466 -2.27059 -2.75747 
6417 1 3.69144 -3.23321 -1.92472 
7242 1 1.63955 -2.75918 -1.11445 
13564 1 3.48665 3.50928 10.6616 
1170 1 -2.54147 -2.72041 -2.76387 
17595 1 -0.727052 1.74823 2.31305 
1169 2 -0.803274 2.10936 -0.974336 
1168 1 -2.10641 1.77683 2.2884 
14284 1 -0.550222 1.56264 -0.325045 
14285 3 -5.35462 1.5347 0.581527 
14286 1 -3.92831 -6.05656 3.84814 
7882 1 -2.28259 4.83798 -5.48934 
17242 1 -7.91436 4.55326 4.44316 
15211 1 1.37644 -1.1215 0.260066 
15212 2 -2.65348 -0.0135074 2.32364 
15213 1 4.30118 -4.87829 6.75864 
3081 1 0.191912 3.97593 0.270879 
3080 2 2.93635 0.328107 -2.36026 
10545 1 1.5995 5.11884 1.04102 
10543 1 -3.75512 3.31952 3.04724 
10544 2 1.10747 -0.0263358 -1.74432 
21050 2 -0.984415 -0.804914 1.49875 
21049 1 -1.50315 1.12311 -3.52584 
6747 1 2.46995 -5.97562 -5.42438 
6745 1 -3.13569 3.24596 -2.04495 
6746 2 -1.10403 -3.70803 -1.44901 
1210 1 -2.76114 -0.362021 0.717298 
245 2 -6.26387 1.95134 3.57864 
244 1 1.25943 3.27403 -0.537416 
246 1 -1.53019 1.43194 5.45058 
21265 1 4.53646 2.68914 -0.868591 
21266 2 -1.78409 0.492595 -4.30371 
21267 1 -2.10365 0.596474 3.19641 
4188 1 0.416073 1.83226 -1.99678 
4187 3 1.76475 2.65359 -2.32028 
4186 1 4.03787 1.13325 0.152182 
13119 1 -1.97812 3.35542 -2.7664 
7795 1 -1.3953 2.74616 4.27329 
2548 1 -1.3546 -4.94502 -2.441 
2549 2 3.08601 -1.68713 0.712715 
2550 1 2.24641 -2.42162 0.394957 
219 1 -1.44969 6.54072 2.95734 
217 1 -0.740755 -4.11149 -0.200004 
218 3 2.92248 -0.84996 -2.10858 
3763 1 -4.02607 -3.00581 3.83366 
7796 2 -0.39744 1.96412 -0.0767424 
7797 1 0.274242 -2.20199 -1.43269 
3765 1 -3.80525 -1.44882 2.71147 
3764 2 -2.09887 -1.25144 2.22327 
500 3 1.03772 0.0794842 0.597991 
501 1 1.40881 11.4681 -0.0910923 
499 1 0.773759 -1.63195 -0.941793 
20591 3 1.20616 -0.285944 2.2904 
20592 1 -2.52224 -0.376641 4.68614 
2119 1 0.224243 -1.1949 -2.51907 
5236 1 -6.70488 5.76741 0.71606 
5237 2 0.678743 3.3879 -3.91936 
5238 1 -4.71833 -5.75943 -0.52228 
3772 1 -0.289943 -5.4618 -3.13904 
21567 1 -0.477984 -0.99279 4.031 
21566 3 -1.4195 -4.7577 -6.81647 
3773 3 -0.091609 -2.68857 -0.233247 
3774 1 2.47271 -1.68233 4.02937 
16714 1 -2.69357 2.34472 -4.23395 
16715 2 -4.80173 -2.05306 -0.515304 
16716 1 4.65992 -4.33489 3.38568 
16473 1 -9.7986 6.40188 -1.20412 
16471 1 2.13331 -5.30569 1.24828 
16472 2 1.17612 -2.03674 0.473427 
599 3 0.705499 3.41682 0.435034 
600 1 0.924538 -3.55215 5.85361 
8583 1 0.543968 -4.47461 1.36461 
8581 1 5.63632 -1.39752 3.06399 
8582 2 0.809222 -3.22694 1.53527 
13979 2 0.281689 -5.76366 -0.227601 
13978 1 2.3342 6.23366 1.67457 
13566 1 -2.61903 1.87665 5.93494 
13980 1 -9.50254 -2.23224 -0.106896 
13565 2 1.5921 1.97121 -1.74698 
7240 1 -4.83432 2.08527 2.94758 
7241 3 2.05264 2.29969 -1.21815 
16618 1 5.57753 5.51297 -0.135954 
20932 1 -2.41988 0.27983 1.85377 
20933 3 -3.36342 2.00607 -4.04098 
20934 1 -4.53571 -0.171388 1.41879 
17594 3 0.84836 4.24615 1.68935 
2413 1 1.24001 1.33542 1.85381 
17593 1 -3.09621 1.19429 -0.837493 
2415 1 2.49497 -4.09941 4.294 
2414 2 -3.95753 -5.64219 4.49015 
1018 1 -0.761063 2.98158 -0.778114 
1019 2 -3.40366 -3.09856 -0.38728 
1020 1 1.02381 5.67419 6.4597 
9839 2 1.96433 -5.66895 -0.0547154 
9840 1 0.719849 -1.196 -0.337751 
8544 1 -3.21667 1.34607 1.85918 
16987 1 -2.91247 -0.790974 -1.50127 
16988 3 -0.00394301 -2.84601 -2.41817 
16989 1 1.63195 -1.48371 1.07109 
5667 1 -1.80743 -0.636569 6.3737 
5666 3 1.21292 0.466433 -0.204717 
5665 1 -10.2254 0.392752 3.23795 
8542 1 1.12881 -3.11506 0.616133 
8543 3 0.875901 -0.92417 -0.707631 
15933 1 -2.04194 0.356212 -1.1272 
15932 2 -3.10496 -6.12798 2.20317 
15931 1 -4.07858 -5.57752 1.28866 
20121 1 0.65556 4.29638 0.426382 
20120 3 -0.592139 -0.392106 -1.21885 
20305 1 4.46897 -5.29714 4.83147 
20306 3 -3.01684 0.222898 -6.15557 
20307 1 -4.24693 3.81537 -4.12471 
20119 1 1.01963 -3.31802 -2.01081 
7883 3 5.38011 1.547 0.163004 
7884 1 0.711008 -2.33304 4.3437 
10292 3 0.913046 0.0605037 0.640887 
2330 3 -2.2421 -2.45801 -2.34608 
2331 1 -0.906519 1.407 3.22997 
14491 1 -1.47544 -3.37966 -5.07282 
14492 2 -0.965805 -0.340853 6.061 
14493 1 -3.07611 3.71491 -3.91013 
10883 2 2.75213 -0.921567 -1.303 
10882 1 2.3996 -0.0222595 -0.204882 
1364 2 -0.31268 -3.87063 -0.0883842 
1363 1 -3.23703 -0.575911 1.08165 
1365 1 5.11199 2.80071 -3.33062 
2329 1 2.27696 -1.24068 -1.77903 
3079 1 -2.5744 -2.87804 -3.66749 
21051 1 4.79505 -3.32864 4.7292 
10884 1 -3.35059 -2.76073 3.68526 
8059 1 0.94202 0.915787 -1.02646 
8060 2 2.14784 0.340079 2.8511 
8061 1 1.98196 2.57448 -1.04744 
8223 1 -2.49168 2.3196 -4.12373 
8222 3 3.37646 1.73895 -2.34321 
8221 1 5.91727 2.55984 -1.88325 
13118 2 0.316798 0.916999 -0.292814 
13117 1 2.31262 1.15524 -5.41628 
1824 1 -4.60592 -1.48034 4.56028 
1822 1 -4.11045 3.96603 6.15584 
1823 3 -1.89245 -2.52632 -1.60828 
15649 1 2.91132 5.30688 3.02641 
19797 1 -0.395494 2.92825 1.80091 
5690 2 0.949285 -2.41177 -0.89735 
5691 1 -3.98052 2.68574 4.98551 
5689 1 0.086891 8.71886 -1.06578 
15650 2 -3.24007 0.687174 0.839882 
15651 1 -1.09798 -0.534971 2.12512 
7921 1 -1.90367 -3.1456 -0.0337427 
7922 2 -2.61308 1.86183 1.92157 
16251 1 4.03271 -9.14703 -6.12772 
7923 1 2.67962 -1.99476 -3.91534 
16249 1 0.277257 7.25905 2.97207 
16250 2 -0.716988 4.69589 -0.757589 
19796 2 -4.09136 0.719168 0.532032 
19795 1 3.14716 -0.042957 -3.78342 
598 1 3.91555 -7.48938 3.98197 
7504 1 3.45273 1.94857 2.62613 
2987 2 -2.29475 2.23829 0.777694 
2988 1 0.554775 -1.92488 4.84383 
7506 1 -6.40619 8.60512 0.8739 
7505 2 -3.0764 -0.0352886 -2.44114 
2986 1 2.75454 2.53422 1.2865 
3850 1 -0.938012 -1.1502 -1.80478 
3851 3 -2.57723 3.51349 -1.97331 
3852 1 3.50484 3.90851 -0.937318 
9838 1 3.25172 2.29843 4.156 
11133 1 1.95531 -3.11688 7.03745 
20750 3 -0.611033 -2.87718 4.40746 
20749 1 3.31447 4.34987 -1.0245 
9766 1 0.699869 -5.27383 -11.1137 
9767 3 1.02179 -0.589948 -0.614153 
15055 1 -3.88297 7.42586 -3.90837 
15056 3 -1.61191 0.786984 2.85049 
7900 1 -0.352943 -1.54784 0.858777 
7901 3 1.99737 -2.32647 3.10094 
15057 1 1.7908 -3.05749 0.556415 
7345 1 4.79551 5.85577 2.08563 
7346 3 -1.88736 -0.324427 -0.913835 
7347 1 -6.41812 -3.11164 -3.08268 
9768 1 1.36024 1.17923 2.30904 
10291 1 2.17191 -3.04862 3.38652 
10293 1 0.258871 -1.57302 -3.55923 
9969 1 -2.53028 1.35407 0.0297207 
7337 3 -0.979171 -0.843989 -0.577805 
7338 1 1.49845 4.55316 3.35233 
7336 1 0.904877 0.475692 3.7498 
9968 2 0.472441 -3.0092 5.68288 
9967 1 1.58282 -6.19227 4.25373 
12662 2 -3.44029 -0.044892 0.575969 
12661 1 -0.824079 4.44711 1.21123 
13898 2 0.237142 3.7035 3.95522 
13897 1 2.26371 -2.56259 -2.02772 
13899 1 4.93293 3.25281 -5.69184 
11647 1 4.3083 3.48735 -0.195946 
11649 1 -4.64819 -2.06487 6.51063 
11648 3 -0.683152 -1.04799 2.75424 
615 1 0.839112 4.61167 -6.86277 
19129 1 7.17486 4.933 9.4846 
19130 3 -1.2299 2.8423 2.55901 
18957 1 0.844754 -3.60173 1.23902 
18956 3 0.0835333 -4.40049 -2.02012 
18955 1 1.35207 -1.26787 -3.10674 
614 2 -5.14791 -0.604213 -0.497827 
613 1 -2.86701 1.18539 1.41529 
1510 1 1.42555 -3.23514 -3.00133 
1511 3 2.35959 2.07742 -1.13899 
1512 1 -6.19971 3.57297 0.626053 
3078 1 -0.0850041 -6.8302 0.44161 
3077 2 -2.12891 -2.07042 3.02123 
3076 1 -1.26752 1.00298 4.5671 
3126 1 -7.76209 1.61497 -3.04107 
3125 3 2.61017 -3.43414 2.76558 
14206 1 0.322602 -0.678227 5.23018 
14207 3 2.36353 2.16141 0.758034 
14208 1 -4.88115 3.26628 1.95719 
3352 1 -5.38249 4.9652 1.24226 
3353 3 2.88937 0.0993307 -2.45099 
3354 1 -5.80747 -4.78132 9.32831 
10777 1 1.69245 1.87497 -2.39214 
4156 1 5.06208 -3.77848 -0.0510252 
4157 3 -1.36885 -4.1339 -2.9427 
19717 1 -1.29039 0.538257 -0.164206 
11132 2 1.59759 0.36974 0.986924 
11131 1 -3.0488 -5.07045 6.03529 
4670 2 2.32625 2.24063 6.08979 
4669 1 -7.42034 7.68315 -0.419263 
4671 1 -1.70882 -0.167651 -0.823199 
19328 3 -3.46744 -0.988593 2.1075 
19327 1 -2.17965 1.00734 -2.96031 
19329 1 -4.24992 -1.20429 -3.32255 
10398 1 -2.37791 -0.605415 0.952396 
10397 3 1.25147 1.54649 -5.06452 
10396 1 1.31839 0.836588 -3.27165 
14137 1 1.21438 1.85553 5.74173 
1575 1 1.49515 1.27172 2.05439 
1573 1 3.52059 4.52732 1.04739 
1574 2 -4.85131 3.41327 1.52722 
16393 1 2.96376 2.65061 1.60923 
16394 3 -2.24466 -0.188723 1.57875 
18113 3 -2.69964 -1.89614 -1.25835 
12075 1 -0.0479126 -2.22362 -3.57242 
18114 1 -1.50558 3.29579 1.57817 
18112 1 -1.63496 5.74474 2.11452 
12074 3 -0.401888 -1.59225 -2.26328 
14139 1 -5.63559 -8.95875 -3.74244 
14138 3 1.57407 -3.41558 3.98082 
18186 1 -1.90167 6.16885 1.86532 
18184 1 -2.4093 1.96569 -1.83214 
18185 3 -3.96739 -0.213392 -2.8914 
12073 1 -2.42811 -4.56322 2.73342 
18293 2 -2.1468 -1.64759 4.80129 
18126 1 2.56661 -6.68017 2.65697 
18125 2 3.53306 -0.656426 -3.63556 
18292 1 -1.76941 0.13627 0.530951 
18124 1 6.58023 -2.11608 -3.52803 
625 1 0.0370756 -0.951034 -0.138135 
627 1 0.148478 -3.37085 -1.8851 
626 2 -1.54938 1.83974 -2.16739 
707 2 -2.34366 -4.17467 -0.501386 
708 1 5.1346 0.559146 3.02971 
3812 3 0.465913 -0.795997 -2.74493 
4383 1 -4.14741 -3.48243 0.746213 
17360 3 1.34699 0.105643 -2.8309 
3813 1 -0.956479 2.1085 -2.03131 
19846 1 -4.13382 1.87606 -5.47586 
19847 2 0.591533 1.68652 -3.72217 
19848 1 1.19602 1.27777 -2.45946 
19131 1 2.98117 2.45673 1.76122 
4516 1 -1.28273 -1.47341 1.33859 
4382 3 -5.01342 -2.09461 -4.47742 
4381 1 1.10651 2.54189 -3.803 
17361 1 4.73229 -1.62218 1.81232 
9346 1 -0.364343 2.7774 4.41913 
9347 3 3.23264 2.40238 3.55447 
15505 1 -0.665403 0.167911 1.74413 
9348 1 1.40176 2.00548 5.87499 
15506 2 3.04763 3.09865 -3.1737 
15507 1 0.35328 -0.606882 4.037 
20860 1 -0.278615 2.50565 -1.48609 
15170 3 -3.60039 2.14087 2.86299 
15169 1 -3.02952 0.770616 -1.08484 
20861 3 -2.35827 1.14203 -1.3459 
12154 1 -1.42558 -0.489935 7.54057 
2163 1 -4.61529 -3.61665 1.98867 
2161 1 -1.3361 4.85177 10.5537 
2162 3 -3.436 4.0193 -3.01795 
8643 1 0.578227 -0.243725 -1.03196 
8641 1 -2.37186 0.673705 2.13468 
8642 2 3.82328 -0.348282 -0.111221 
10778 3 -1.56627 0.00290151 2.14223 
10779 1 -0.833632 0.593804 -0.273305 
4962 1 0.816241 3.61992 0.542766 
4960 1 -0.84165 -6.23032 1.50828 
4961 2 0.321152 -1.56003 -1.33119 
13758 1 -4.64545 1.63414 4.4095 
4158 1 5.49966 -7.6964 -3.43617 
13777 1 0.413563 -3.47355 -6.56344 
13779 1 -1.3605 -2.9463 -9.88613 
13778 2 0.777367 2.3564 0.292724 
12725 3 -0.0237878 -2.68868 0.87026 
12726 1 0.781825 4.22077 -0.032205 
9461 3 -0.854815 -2.37078 3.54878 
9460 1 3.00514 -1.07699 4.38335 
19718 3 -1.0913 1.08435 -3.11375 
19719 1 2.6869 2.2897 2.95 
3245 2 -1.8025 -3.07746 1.47568 
3246 1 -0.502468 1.78425 -5.97953 
3244 1 0.297936 5.11067 -0.913895 
6727 1 -2.0895 -2.71579 2.19169 
6728 2 -0.275931 0.322117 1.89217 
13538 2 -0.664159 1.33266 -3.50599 
13537 1 -1.39838 -2.52212 -4.78194 
17854 1 6.25842 2.59198 -5.59794 
17855 2 6.12271 1.32668 1.67507 
17856 1 -4.97483 7.73839 -2.0654 
13539 1 2.06935 2.22499 6.90922 
18294 1 1.46558 -4.01425 0.99892 
18322 1 0.627581 -0.605685 -0.236208 
18323 2 0.392719 0.212313 1.70616 
706 1 2.52586 -1.00097 -6.20171 
4836 1 -2.20522 7.06238 0.412088 
4834 1 -7.90784 -2.80241 -2.97346 
14446 1 1.12289 -3.19735 0.818467 
4835 3 0.790833 -1.44813 -3.28169 
3811 1 -0.490277 -3.55755 -1.96895 
17359 1 -0.683601 -1.51527 0.017465 
4927 1 5.09935 -5.69346 2.18761 
4928 2 -3.70849 -1.87761 -3.29879 
14425 1 2.51704 -1.63916 0.208245 
14426 3 -1.00757 -2.09092 -0.353492 
14427 1 -1.78426 2.73648 -1.00728 
4929 1 5.1171 0.947634 3.20285 
4518 1 -1.35569 -4.97075 -0.135269 
4517 2 -1.05484 -0.00290388 -1.4362 
8334 1 -1.58236 -3.46331 2.54208 
8333 2 -7.63621 -2.76453 -6.9208 
19307 3 0.683162 0.958645 2.99052 
19306 1 2.42642 -3.91766 3.79799 
18260 2 -0.579187 -1.34221 -0.938058 
18259 1 -0.0987945 2.06099 -3.9496 
15171 1 0.332543 -2.52295 5.92988 
9003 1 -8.56264 1.87795 -2.56995 
9001 1 2.6474 -3.18254 -0.436484 
9002 3 2.0092 3.71904 -5.33967 
20862 1 3.36293 1.46937 1.83774 
15533 2 -1.50799 -2.21608 0.222908 
12155 3 0.0948004 2.74456 -3.75455 
12156 1 -3.21022 6.67037 -1.4805 
15532 1 -1.52314 0.139179 1.32248 
8332 1 -0.0788704 1.53627 1.04615 
9697 1 -4.30556 3.13469 -4.88714 