ITEM: TIMESTEP
5000000
ITEM: NUMBER OF ATOMS
42
ITEM: BOX BOUNDS pp pp pp
0.0000000000000000e+00 5.0000000000000000e+01
0.0000000000000000e+00 5.0000000000000000e+01
0.0000000000000000e+00 5.0000000000000000e+01
ITEM: ATOMS id type vx vy vz 
20246 2 4.21539 -2.36824 -1.81249 
20245 1 1.46298 -1.29097 1.21116 
20247 1 2.37988 -3.64613 -4.35467 
5254 1 -3.65016 0.33203 -3.67229 
5256 1 -4.32435 2.06243 2.25107 
5255 2 -0.110965 1.61891 -1.88213 
15459 1 4.53692 3.29672 1.10199 
7774 1 0.826025 2.0576 3.07563 
7775 2 -2.22915 -1.80466 -1.56336 
7776 1 1.33074 3.03499 -0.122635 
13262 2 -1.21717 -2.27929 3.55087 
12427 1 -4.21214 -1.71137 0.489635 
12428 3 -1.64048 -2.19639 -2.92298 
13261 1 -2.51653 -5.40464 0.53239 
12429 1 -3.24454 0.94893 -0.405322 
6076 1 -5.349 2.2422 -1.02821 
13263 1 0.374131 2.07235 1.24592 
6078 1 -3.95834 -3.15397 7.82466 
6077 2 1.46552 2.94452 4.31351 
14595 1 -1.98888 -3.65281 2.67834 
14593 1 -2.4666 6.88961 2.41604 
14594 3 0.912548 0.721917 2.29079 
16152 1 -3.06801 -3.38995 2.1037 
6543 1 1.29282 -1.22849 6.04229 
337 1 2.56192 0.341276 -1.69301 
338 2 1.41722 4.84042 -1.31367 
339 1 0.225561 1.67932 -1.15765 
16151 2 -2.96284 -0.990443 -3.69128 
16794 1 -3.0265 -2.2458 4.31868 
6541 1 -4.79194 2.53444 -4.63685 
19030 1 0.47289 2.83981 -2.63747 
6542 2 -2.60261 0.376249 2.44291 
19031 2 -2.3682 -2.52826 3.81418 
19032 1 0.539756 0.367509 2.84562 
11724 1 5.13777 2.22128 -3.14699 
11723 2 -2.28919 -0.262526 -0.172093 
16150 1 0.809387 0.534313 -3.26368 
16793 2 2.49346 -2.79389 3.06 
15457 1 -2.94717 1.44573 -4.30784 
16792 1 -2.90532 -1.26213 1.62375 
15458 2 -1.80768 -2.78931 1.01144 
11722 1 2.71778 -0.238202 4.09048 
