LAMMPS data file via write_data, version 7 Aug 2019, timestep = 20000000

42 atoms
3 atom types
33 bonds
3 bond types
24 angles
3 angle types

0.0000000000000000e+00 5.0000000000000000e+01 xlo xhi
0.0000000000000000e+00 5.0000000000000000e+01 ylo yhi
0.0000000000000000e+00 5.0000000000000000e+01 zlo zhi

Masses

1 0.25
2 0.5
3 0.5

Bond Coeffs # harmonic

1 6000 0.15
2 2000 0.4
3 2000 0.4

Angle Coeffs # harmonic

1 100 180
2 50 180
3 50 180

Atoms # angle

7774 1 1 2.2016096623814244e-01 1.8355048290506893e+01 1.4518497874113683e+01
7776 1 1 9.8231514261415376e-01 1.8041951781328208e+01 1.4660771259934480e+01
7775 2 2 5.9681945037269557e-01 1.8154949276048747e+01 1.4585975096016423e+01
13261 1 1 2.7088273243109537e+01 1.8371512130010153e+01 1.4394163206417872e+01
13262 2 2 2.7357119295672359e+01 1.8678525820885241e+01 1.4254765877439407e+01
6076 1 1 2.8019752740617395e+01 1.9751379886883257e+01 1.3720615323125884e+01
13263 1 1 2.7581403366769713e+01 1.8981663279217205e+01 1.4098048209314838e+01
6078 1 1 2.7697534298845941e+01 1.9089339302106517e+01 1.4052034398250523e+01
6077 2 2 2.7843314951462901e+01 1.9414552516724317e+01 1.3899728007218513e+01
16152 1 1 1.1404987315829482e+01 4.8291685419936464e+01 1.8914495720140852e+01
16151 2 2 1.1106896902995629e+01 4.8497243152124796e+01 1.8737032648353232e+01
16150 1 1 1.0785835205460341e+01 4.8653633022039799e+01 1.8534872933524095e+01
12428 3 3 4.0268309631506661e+01 4.2116846716244311e+01 2.2808189677342167e+01
12429 1 1 4.0719515438645352e+01 4.2026696616572259e+01 2.2697018895515686e+01
12427 1 1 3.9891675594268449e+01 4.2138078902683816e+01 2.2896003168657668e+01
20247 1 1 2.4439107321213516e+01 2.2667657645824189e+01 4.8157971906840352e+01
20246 2 2 2.4671452974363028e+01 2.2575671952103555e+01 4.7879707611814283e+01
15458 2 2 2.1695121087090357e+00 3.1220447106708683e+01 2.6715905641841200e+01
15459 1 1 2.1627484720712982e+00 3.1163057447640604e+01 2.6325225507506673e+01
15457 1 1 2.2418619765489227e+00 3.1265222914903887e+01 2.7142439896470915e+01
16792 1 1 2.2417314371428692e+00 3.1285133138503355e+01 2.7292870043310426e+01
16793 2 2 2.2752093633910784e+00 3.1292445389002765e+01 2.7693299432686874e+01
6543 1 1 7.1638046967741067e+00 3.1379746336829289e+01 2.7514381202407428e+01
339 1 1 2.3417896826390567e+00 3.1197663382673085e+01 2.8224936086956692e+01
16794 1 1 2.3107229556733353e+00 3.1253471978215558e+01 2.8081572505439162e+01
338 2 2 2.3502787712439686e+00 3.1030529853765795e+01 2.8618925163943416e+01
337 1 1 2.4199410098271859e+00 3.0863105491095258e+01 2.9013463536205556e+01
6541 1 1 7.6307696530916163e+00 3.1163228605078327e+01 2.8126212672244879e+01
6542 2 2 7.3995203228900319e+00 3.1283577082091561e+01 2.7849194886041701e+01
19030 1 1 7.7209740529232409e+00 3.1119330117669406e+01 2.8236294178358296e+01
19031 2 2 7.9173546577508471e+00 3.1031233594965155e+01 2.8546606936120032e+01
19032 1 1 8.1841110022031671e+00 3.0988622168961971e+01 2.8868945686731379e+01
11724 1 1 8.3270204364203906e+00 3.0952896788431264e+01 2.8981731662755493e+01
11723 2 2 8.6914137706072054e+00 3.0929344271336252e+01 2.9213933520015480e+01
11722 1 1 9.0870677382847624e+00 3.0931205060316589e+01 2.9321420932086415e+01
14593 1 1 1.4085226525094230e+01 4.0879734604946748e+01 3.2890872094597093e+01
14594 3 3 1.4250327316122860e+01 4.0702349125474697e+01 3.3210969248391372e+01
14595 1 1 1.4296257269280922e+01 4.0525265097419073e+01 3.3545705693444305e+01
5254 1 1 2.5999367272766840e+01 1.2130777816014064e+01 4.6927341971458361e+01
5256 1 1 2.5859811768575316e+01 1.1826357476513342e+01 4.6235115430162438e+01
5255 2 2 2.5892864274817690e+01 1.1988552416759571e+01 4.6560411979257481e+01
20245 1 1 2.4862478051292971e+01 2.2414401527633988e+01 4.7571690159826730e+01

Velocities

7774 2.6414638389042167e+00 -1.7740434174541519e+00 5.6872289942037932e+00
7776 5.5453513075376009e+00 2.6318255520888001e+00 2.8715325360345854e+00
7775 -3.6860938794628284e-01 3.5120937120292774e+00 7.4680924852147446e-01
13261 1.0365326006584814e+01 -4.7628238090098343e+00 4.2136626347719783e+00
13262 -4.0930530232265250e+00 1.4648713231074577e+00 -1.2089561396985833e+00
6076 4.0128592767529652e+00 7.1572133948351464e+00 1.3210656710335853e+00
13263 1.6210205262073811e+00 -6.5422603093397624e-01 -4.6368221832630541e+00
6078 -2.8167147929796288e+00 1.8813224666280297e+00 -1.3722780040866307e+00
6077 -3.1552114171002676e+00 -5.7054407886419944e-01 -9.3285705145936393e-01
16152 -2.1287897993164164e+00 6.9191970839809391e+00 1.5008853706184240e+00
16151 -3.9728183522835394e+00 -1.2609962494486424e+00 1.2282631402172783e+00
16150 1.0468885520676274e+00 -7.9135582656644154e-01 4.0674893306694413e+00
12428 6.5181223770201902e-01 -2.1020380064898980e-01 8.5584229219767505e-01
12429 1.3389565176262679e+00 -4.9319400059919021e+00 -6.5267724158559854e+00
12427 1.4850855634354226e-01 -2.0333021927295847e+00 -6.4926212059329309e+00
20247 1.0856099556946750e+00 6.2837439528491590e+00 -1.7745565926971361e+00
20246 2.1699976666652643e+00 -4.0904270193541992e+00 1.8919099873083784e+00
15458 -3.3532185509552628e+00 -1.8950938688643084e+00 -7.7241659293299691e-01
15459 -9.9059790721635965e-01 -5.2733411407329349e+00 2.1517350952552907e+00
15457 -6.7099068167246323e-01 -5.1010355312400826e+00 6.7763141658850135e+00
16792 5.0562654850678235e-01 2.7370652755088072e+00 9.5309864950772760e-01
16793 -2.1850569799496973e+00 -8.3852132327432227e-01 2.5794083127150009e+00
6543 -1.7611445397629086e+00 -3.5045939980502414e+00 4.7407521742531546e+00
339 1.6200420337552770e+00 3.4324228294334951e+00 5.9139203306349208e-01
16794 -1.1432667497336251e+00 -4.3359417483142897e+00 -2.2683197597911704e+00
338 -2.0764409311428831e+00 -2.5625513455046187e+00 -2.6234050268409090e+00
337 -9.5427247987364474e+00 4.9467040366483994e+00 -3.8532841863058431e+00
6541 1.1018935782153276e+00 5.4521667972293750e+00 5.4060193024633811e+00
6542 2.1436523235932050e+00 3.0193172693105836e+00 -3.3737804764883639e+00
19030 -4.3409299742685921e+00 6.7201699519692708e+00 -3.1853051289543866e-01
19031 2.9320993614944979e+00 -5.7859182387528185e-02 2.2833283466338367e-01
19032 -2.9714284989185695e+00 -8.0771683975385367e-02 -1.7517069700606049e+00
11724 -5.4558027741833328e+00 3.9825310805283523e+00 -2.0566464828496933e+00
11723 -1.9830645700494889e+00 -2.3003523104046639e+00 2.4867668604783608e+00
11722 -5.3562821202201993e-01 -8.1860137049358919e+00 -3.5798381985659962e+00
14593 -1.8691336296147267e+00 -2.0594093720499265e+00 -1.4365220446893565e+00
14594 1.4625953513050221e+00 5.2372874420234194e-01 1.7412932120135398e+00
14595 4.0646618701364243e+00 -4.8122746840938433e+00 -3.0640641480489430e+00
5254 -8.7676058992851291e-01 -7.4498993339608666e-01 -2.8041779033726626e+00
5256 4.4872387991915019e+00 -7.2153320928881393e-01 4.1087219863600044e+00
5255 -6.7987576897659119e-01 -6.8117894673364621e-01 1.3757395218204584e+00
20245 -2.6302504448171820e+00 -3.5563593674033367e+00 -1.5177988478638613e+00

Bonds

1519 2 7774 7775
1520 2 7775 7776
1554 2 13261 13262
1556 2 13262 13263
1602 2 6076 6077
1604 1 6078 13263
1605 2 6077 6078
5892 2 16151 16152
5893 2 16150 16151
8690 3 12428 12429
8692 3 12427 12428
11216 2 20246 20247
11431 2 15458 15459
11432 2 15457 15458
11433 1 15457 16792
11434 2 16792 16793
11435 2 16793 16794
11527 1 339 16794
11528 2 338 339
11529 2 337 338
11551 2 6541 6542
11552 1 6541 19030
11553 2 6542 6543
11555 2 19030 19031
11558 2 19031 19032
11559 1 11724 19032
11560 2 11723 11724
11561 2 11722 11723
12191 3 14593 14594
12192 3 14594 14595
14711 2 5254 5255
14715 2 5255 5256
14848 2 20245 20246

Angles

1196 2 7774 7775 7776
1230 2 13261 13262 13263
1274 1 13262 13263 6078
1275 1 6077 6078 13263
1276 2 6076 6077 6078
4529 2 16150 16151 16152
6682 3 12427 12428 12429
8572 2 20245 20246 20247
8729 2 15457 15458 15459
8731 1 15458 15457 16792
8732 1 16793 16792 15457
8733 2 16792 16793 16794
8799 1 338 339 16794
8800 1 16793 16794 339
8801 2 337 338 339
8824 1 6542 6541 19030
8825 2 6541 6542 6543
8827 1 19031 19030 6541
8831 2 19030 19031 19032
8832 1 19031 19032 11724
8833 1 11723 11724 19032
8834 2 11722 11723 11724
9354 3 14593 14594 14595
11326 2 5254 5255 5256
