ITEM: TIMESTEP
5000000
ITEM: NUMBER OF ENTRIES
33
ITEM: BOX BOUNDS pp pp pp
0 50
0 50
0 50
ITEM: ENTRIES c_binfo[1] c_binfo[2] c_binfo[3] 
2 20246 20247 
2 20245 20246 
2 5254 5255 
2 5255 5256 
2 7774 7775 
2 7775 7776 
2 13262 13263 
3 12427 12428 
3 12428 12429 
2 13261 13262 
2 6076 6077 
1 6078 13263 
2 6077 6078 
3 14593 14594 
3 14594 14595 
2 337 338 
2 338 339 
1 339 16794 
2 16151 16152 
2 6541 6542 
1 6541 19030 
2 19030 19031 
2 6542 6543 
2 19031 19032 
1 11724 19032 
2 11723 11724 
2 16150 16151 
2 16793 16794 
2 15457 15458 
1 15457 16792 
2 16792 16793 
2 15458 15459 
2 11722 11723 
