ITEM: TIMESTEP
0
ITEM: NUMBER OF ATOMS
42
ITEM: BOX BOUNDS pp pp pp
0.0000000000000000e+00 5.0000000000000000e+01
0.0000000000000000e+00 5.0000000000000000e+01
0.0000000000000000e+00 5.0000000000000000e+01
ITEM: ATOMS id type 
7774 1 
7775 2 
7776 1 
337 1 
338 2 
339 1 
6541 1 
6542 2 
6543 1 
6076 1 
6077 2 
6078 1 
5254 1 
5255 2 
5256 1 
12427 1 
12428 3 
12429 1 
13261 1 
13262 2 
13263 1 
14593 1 
14594 3 
14595 1 
15457 1 
15458 2 
15459 1 
16150 1 
16151 2 
16152 1 
19030 1 
19031 2 
19032 1 
11722 1 
11723 2 
11724 1 
20245 1 
20246 2 
20247 1 
16792 1 
16793 2 
16794 1 
