ITEM: TIMESTEP
5000000
ITEM: NUMBER OF ATOMS
42
ITEM: BOX BOUNDS pp pp pp
0.0000000000000000e+00 5.0000000000000000e+01
0.0000000000000000e+00 5.0000000000000000e+01
0.0000000000000000e+00 5.0000000000000000e+01
ITEM: ATOMS id type xs ys zs
20246 2 0.297147 0.53368 0.182295
20245 1 0.298332 0.537693 0.176618
20247 1 0.295693 0.529004 0.188442
5254 1 0.768851 0.624255 0.468024
5256 1 0.75879 0.614475 0.463683
5255 2 0.763453 0.620018 0.465838
15459 1 0.41641 0.368754 0.865552
7774 1 0.500445 0.43128 0.693543
7775 2 0.495973 0.430112 0.700848
7776 1 0.490843 0.426869 0.706868
13262 2 0.518925 0.437555 0.69071
12427 1 0.510053 0.436735 0.717357
12428 3 0.517351 0.436503 0.713172
13261 1 0.525868 0.432947 0.691438
12429 1 0.524879 0.433476 0.708569
6076 1 0.499762 0.454722 0.692523
13263 1 0.512321 0.442776 0.691673
6078 1 0.510635 0.444695 0.691978
6077 2 0.505025 0.450307 0.691897
14595 1 0.430239 0.195004 0.777752
14593 1 0.42079 0.20252 0.787053
14594 3 0.425958 0.199794 0.782902
16152 1 0.443425 0.311823 0.842571
6543 1 0.425845 0.313652 0.842519
337 1 0.434437 0.339664 0.825304
338 2 0.430792 0.340519 0.833159
339 1 0.428582 0.344841 0.839826
16151 2 0.450191 0.314771 0.843774
16794 1 0.427759 0.346092 0.842155
6541 1 0.431291 0.326472 0.851974
19030 1 0.432547 0.328787 0.853649
6542 2 0.428094 0.319679 0.846494
19031 2 0.436786 0.332015 0.859418
19032 1 0.439471 0.338018 0.864231
11724 1 0.440525 0.339462 0.865991
11723 2 0.443412 0.344205 0.871018
16150 1 0.457269 0.318713 0.845888
16793 2 0.426125 0.350225 0.847847
15457 1 0.422443 0.358485 0.85514
16792 1 0.423465 0.356177 0.853218
15458 2 0.419566 0.36324 0.860148
11722 1 0.447776 0.348877 0.875524
