LAMMPS data file via write_data, version 7 Aug 2019, timestep = 20000000

1029 atoms
3 atom types
935 bonds
3 bond types
841 angles
3 angle types

0.0000000000000000e+00 5.0000000000000000e+01 xlo xhi
0.0000000000000000e+00 5.0000000000000000e+01 ylo yhi
0.0000000000000000e+00 5.0000000000000000e+01 zlo zhi

Masses

1 0.25
2 0.5
3 0.5

Bond Coeffs # harmonic

1 6000 0.15
2 2000 0.4
3 2000 0.4

Angle Coeffs # harmonic

1 100 180
2 50 180
3 50 180

Atoms # angle

4770 1 1 3.4670125544287309e+01 3.3979874288554399e+01 5.8481231254798454e+00
4769 2 2 3.4741491031896665e+01 3.4312353237740169e+01 6.1240362195102689e+00
4768 1 1 3.4778340612999038e+01 3.4643803287949105e+01 6.3688728806462640e+00
14022 1 1 3.3294554089721437e+01 3.5962709317286993e+01 7.4171278238890146e+00
10977 1 1 3.4791694027623848e+01 3.5318106998081284e+01 6.9173592747760395e+00
10976 3 3 3.4765646326655471e+01 3.5015752641434574e+01 6.6830901208535591e+00
10975 1 1 3.4788805903082235e+01 3.4728430635604724e+01 6.4528603710050021e+00
1792 1 1 3.3374075896559802e+01 3.6052769860583524e+01 7.3173955997848443e+00
14960 3 3 3.4325489073561911e+01 3.6529497962744855e+01 6.6216896780953443e+00
1794 1 1 3.3919260897453690e+01 3.6305036922958891e+01 6.8890333725240502e+00
14959 1 1 3.4042320249609979e+01 3.6362154120870969e+01 6.7970426360853571e+00
1793 3 3 3.3633127306639487e+01 3.6243867790241644e+01 7.0904922668130199e+00
14961 1 1 3.4623787645306770e+01 3.6740144419256147e+01 6.4966849086209661e+00
3430 1 1 3.4769110939355599e+01 3.6839839502860990e+01 6.4711496813540315e+00
14021 3 3 3.3090806809027498e+01 3.5712811281082693e+01 7.7031256844113480e+00
14020 1 1 3.2875671387455050e+01 3.5570797424697311e+01 7.9719293016684460e+00
4219 1 1 3.6892671449862071e+01 3.1343189039646752e+01 1.2467176702942679e+00
4220 2 2 3.6933013574203208e+01 3.1609764791068795e+01 1.4886773472693473e+00
11366 2 2 3.6912366060001389e+01 3.0882919528647825e+01 9.3111601348053807e-01
11365 1 1 3.6886099101445865e+01 3.1241320339886194e+01 1.1463697294306583e+00
11367 1 1 3.6939761699733474e+01 3.0586940127746246e+01 6.3262029026040811e-01
18897 1 1 3.7347526990520670e+01 3.4717397749880789e+01 1.1692718368771937e+00
19103 3 3 3.9196657180302765e+01 3.4333783825490698e+01 1.2167255562232191e+00
19102 1 1 3.8871379564682528e+01 3.4493987424761826e+01 9.9675219439436147e-01
13984 1 1 3.9657243521891701e+01 3.4294335623833895e+01 1.5257440497617161e+00
19104 1 1 3.9527915170524643e+01 3.4279914635120484e+01 1.4535243845252881e+00
17686 1 1 3.4839197588637795e+01 3.5918744372324575e+01 1.3780774240505727e+00
17688 1 1 3.5562083537988336e+01 3.5739701393252659e+01 1.1684690876730868e+00
17687 3 3 3.5166050204720854e+01 3.5734982341531421e+01 1.2871797187395648e+00
18709 1 1 3.5992436860161888e+01 3.6487724701842730e+01 1.3840961301993435e+00
11569 1 1 3.5965595246060587e+01 3.6599788107444439e+01 1.2447034295544357e+00
12999 1 1 3.8737001479620851e+01 3.5578217032480602e+01 9.0030770251833814e-01
12998 3 3 3.8901827947388810e+01 3.5365406933377933e+01 1.2436026875986661e+00
18960 1 1 4.0570079722638582e+01 3.5900618893748003e+01 8.0647316820920678e-01
18958 1 1 4.1325924128027339e+01 3.5870942876288069e+01 4.2101626567824485e-01
18959 2 2 4.0986868716979657e+01 3.5837743969604517e+01 6.2061733691808174e-01
3658 1 1 3.6771766883029109e+01 3.1144667104562235e+01 2.8392013902368376e+00
3659 3 3 3.6761163252893496e+01 3.1558407637898956e+01 2.6550700648395820e+00
11097 1 1 3.6889319566549318e+01 3.0208695837801610e+01 3.0478006549550574e+00
11096 3 3 3.6837812639159665e+01 3.0579549188754360e+01 2.9743996242810464e+00
11095 1 1 3.6782639841773786e+01 3.0996751119379823e+01 2.8749478140896256e+00
3660 1 1 3.6782912308309399e+01 3.1913040680103443e+01 2.3955799037609671e+00
4221 1 1 3.7003856612192671e+01 3.1976942547049049e+01 1.7134179687652100e+00
13333 1 1 3.7020424385267880e+01 3.2096770014063218e+01 1.7904300392892762e+00
13334 3 3 3.7104349206020821e+01 3.2388805653442155e+01 2.0437931517897505e+00
13335 1 1 3.7097106544258324e+01 3.2558523280283893e+01 2.4136045186658390e+00
9930 1 1 3.7064302533620854e+01 3.2628405950896358e+01 2.5613637109301286e+00
9929 3 3 3.6982772427123976e+01 3.2798920946569154e+01 2.8875064945972966e+00
8343 1 1 3.9965561252564392e+01 3.3356163038434318e+01 2.9591922330675651e+00
2253 1 1 4.1023229475848247e+01 3.2481189901047671e+01 1.8810466705971383e+00
2252 3 3 4.1115274210435572e+01 3.2795634327981467e+01 2.1024394463916805e+00
2251 1 1 4.1169125811173338e+01 3.3120972066353232e+01 2.2876660291810595e+00
13830 1 1 4.1243862199728895e+01 3.3263942154454490e+01 2.3906223484092139e+00
19737 1 1 3.6300687296080852e+01 3.3514773417862251e+01 1.8664862131696336e+00
18896 3 3 3.7170982289759024e+01 3.4750313038804777e+01 1.5550865280740511e+00
9635 3 3 3.7522137373517332e+01 3.3530726192428389e+01 2.3801630276261037e+00
9634 1 1 3.7158837636073237e+01 3.3535938150715339e+01 2.2156019729732157e+00
19735 1 1 3.7033352323508950e+01 3.3537716060749197e+01 2.1546828574842847e+00
19736 3 3 3.6646611369351469e+01 3.3562188678206532e+01 2.0148342722053050e+00
15898 1 1 3.7260075911434775e+01 3.4172680011483443e+01 2.8446947706054080e+00
18895 1 1 3.7023018628550894e+01 3.4795017103229540e+01 1.8689666825423950e+00
10912 1 1 3.6960727662722327e+01 3.4813358470023587e+01 1.9993899972050406e+00
10914 1 1 3.6584614979020991e+01 3.4882982654703135e+01 2.7073619595471752e+00
17127 1 1 3.6519207427100653e+01 3.4872089187518867e+01 2.8460813602634563e+00
10913 3 3 3.6787666189409123e+01 3.4852489052876479e+01 2.3516663614753401e+00
16194 1 1 3.8796126129713969e+01 3.4048222779434568e+01 1.7675703464870256e+00
9636 1 1 3.7908289211435992e+01 3.3495612642503154e+01 2.6208004917524805e+00
13425 1 1 3.8030434878484755e+01 3.3477215631649564e+01 2.7106326184829026e+00
13424 3 3 3.8382933679474043e+01 3.3455885934944881e+01 2.9826142013449450e+00
16193 3 3 3.8877770283476863e+01 3.4160601513899181e+01 2.1685626851503246e+00
8476 1 1 3.7924184931871999e+01 3.4726733339012696e+01 2.4595964148931442e+00
8477 3 3 3.8069191967467773e+01 3.4618899008235431e+01 2.7980603567630942e+00
2672 3 3 3.9161991840747945e+01 3.4298613566768779e+01 3.0406141076881839e+00
16192 1 1 3.9019286579179571e+01 3.4253019858864327e+01 2.5053439407537907e+00
2671 1 1 3.9107863518952101e+01 3.4276911215618021e+01 2.6426315521205268e+00
18182 3 3 4.0758587006759150e+01 3.4418700049454387e+01 2.2531210794905037e+00
6241 1 1 3.9585653794671913e+01 3.3666222440407282e+01 2.1893159150284736e+00
13985 3 3 4.0005081793120816e+01 3.4349564069970135e+01 1.7850195048762429e+00
14575 1 1 3.9495399234984681e+01 3.5066510495470283e+01 2.4088390699752491e+00
6242 3 3 3.9747826742255022e+01 3.3541427310450196e+01 2.4951164677024176e+00
18181 1 1 4.0486569158927630e+01 3.4379172342276526e+01 2.0673937098331572e+00
13986 1 1 4.0361271124603221e+01 3.4363948264116353e+01 1.9742688409517952e+00
2200 1 1 3.9804321513076502e+01 3.4380012645399148e+01 2.8700286704602207e+00
2201 3 3 4.0127349157222483e+01 3.4677940875158242e+01 2.9494220853227930e+00
2202 1 1 4.0392142590634641e+01 3.4933720186082844e+01 3.0059036939916646e+00
14905 1 1 4.0524360038163287e+01 3.5034683594846229e+01 3.0246244341326838e+00
6243 1 1 3.9896474975276078e+01 3.3417569152611946e+01 2.8290068106802599e+00
18183 1 1 4.1135497360085743e+01 3.4440700904815017e+01 2.4922452139782632e+00
13829 3 3 4.1368934162963114e+01 3.3571055110351580e+01 2.6897303217624704e+00
6139 1 1 4.2160810221103638e+01 3.4273008528108214e+01 2.5365219769222187e+00
13828 1 1 4.1385694580980719e+01 3.3820884269203248e+01 3.0116370187611836e+00
6140 3 3 4.2522356365379437e+01 3.4189618583222362e+01 2.6723050967869435e+00
6141 1 1 4.2918841964897382e+01 3.4212560546602703e+01 2.8318075533309548e+00
18711 1 1 3.6051685329642567e+01 3.6081569725922826e+01 2.0875002595925531e+00
11602 1 1 3.6044588340036476e+01 3.6019932633672951e+01 2.2214656526953847e+00
18710 3 3 3.6025655150138746e+01 3.6280895571368774e+01 1.7075650652503234e+00
11603 3 3 3.5993139297940324e+01 3.5875992690241809e+01 2.5927535109035751e+00
11604 1 1 3.5904001694684354e+01 3.5749989803875962e+01 2.9435562654787124e+00
13461 1 1 3.5846833054940944e+01 3.5686457420174762e+01 3.0695572191491722e+00
4782 1 1 3.7359034108352482e+01 3.5570801995871584e+01 3.0388960321304515e+00
4780 1 1 3.6951146641458763e+01 3.6032419970365325e+01 2.5568137672238973e+00
4781 3 3 3.7171805420744512e+01 3.5801309381753313e+01 2.7617345935240549e+00
2196 1 1 3.7787899081048245e+01 3.5319092380537462e+01 2.3878925903180179e+00
8959 1 1 3.6625028454170476e+01 3.6695640948072374e+01 2.7502793411381439e+00
7482 1 1 3.7797095557047953e+01 3.6470643748414929e+01 2.8159081833312767e+00
11120 3 3 3.7799383482068137e+01 3.6554611293533206e+01 2.2445279231579636e+00
11121 1 1 3.7801730931043181e+01 3.6475612297236623e+01 2.6481819022932171e+00
8960 3 3 3.6735303142683456e+01 3.6739192132551857e+01 2.4196290248864258e+00
11119 1 1 3.7762794101442481e+01 3.6650352351593476e+01 1.8551812650990580e+00
19540 1 1 3.6559532579698974e+01 3.6683453825593936e+01 2.9045975968468971e+00
19854 1 1 3.7722729147405779e+01 3.6718214510275779e+01 1.6996413970072963e+00
12997 1 1 3.9059840624034045e+01 3.5264450020873525e+01 1.5765434534097469e+00
14577 1 1 3.9133463785769713e+01 3.5227169117932661e+01 1.7266014909871519e+00
2195 3 3 3.8111634403878135e+01 3.5346818058222127e+01 2.1547384573213524e+00
2194 1 1 3.8392690250629180e+01 3.5437448715557409e+01 1.9217000765828267e+00
4388 3 3 3.9027160947139706e+01 3.6566185109640408e+01 2.9057476660893160e+00
6144 1 1 3.9007017249103335e+01 3.5435924024448454e+01 2.5455788429412078e+00
14576 3 3 3.9308865766882164e+01 3.5187495590531682e+01 2.0453902460823126e+00
6143 3 3 3.8855693796822621e+01 3.5347263871690799e+01 2.9387972906691053e+00
4387 1 1 3.8944555594847451e+01 3.6715917520298888e+01 2.5031847059013339e+00
5647 1 1 4.0247246660736550e+01 3.6585265168826901e+01 1.9401591169970138e+00
5648 3 3 4.0103601745981500e+01 3.6300585813232935e+01 2.2410470139839465e+00
5649 1 1 3.9919497245022889e+01 3.6137819225580259e+01 2.5349190246838860e+00
14185 1 1 3.9871404896097950e+01 3.6077003736983833e+01 2.6565271206466510e+00
838 1 1 4.0311109192733028e+01 3.6692542293512304e+01 1.8407349408687466e+00
14906 3 3 4.0872762551608830e+01 3.5269381101310444e+01 3.0468150754971353e+00
14186 3 3 3.9837639903240394e+01 3.5903933367334893e+01 3.0025967612249005e+00
14907 1 1 4.1186599855221402e+01 3.5475778590192810e+01 3.0465950682373042e+00
5669 2 2 3.5971559936079842e+01 3.1603934665124502e+01 4.4898135065045581e+00
5670 1 1 3.6030184727537282e+01 3.1317765385963209e+01 4.2669093509034246e+00
1421 3 3 3.7701131215495430e+01 3.1540591329831436e+01 4.4051541502301887e+00
17587 1 1 3.9196120320706513e+01 3.1541245121576857e+01 4.2077099168057304e+00
6640 1 1 3.9071239119533523e+01 3.1612390834796837e+01 4.2795117700262812e+00
17589 1 1 3.9730395639278207e+01 3.1128623077617462e+01 3.8300181245879186e+00
17588 3 3 3.9475026510403382e+01 3.1320090723730942e+01 3.9853516418154902e+00
9928 1 1 3.6994206626381533e+01 3.2949677577840063e+01 3.2904914075654870e+00
6613 1 1 3.7246651570202488e+01 3.3195515356746036e+01 4.3542970826496070e+00
17004 1 1 3.7167063219875601e+01 3.3162282798981579e+01 4.2202969524302638e+00
17002 1 1 3.7045521981919890e+01 3.2981289486895136e+01 3.4601121957247116e+00
17003 3 3 3.7136840591627738e+01 3.3072737239417982e+01 3.8259161289609667e+00
1420 1 1 3.7774357577460734e+01 3.1907843638581237e+01 4.1911371524636492e+00
19341 1 1 3.7816154804752919e+01 3.2032084720213930e+01 4.1060792880562236e+00
13423 1 1 3.8736028142903443e+01 3.3344062876033092e+01 3.2060426491556555e+00
9793 1 1 3.8853943974989988e+01 3.3308190720349963e+01 3.2957773522197877e+00
19340 3 3 3.7939708833879884e+01 3.2333369265938764e+01 3.9181874419229428e+00
19339 1 1 3.8043957519375148e+01 3.2646095392328824e+01 3.7067146832414060e+00
9794 3 3 3.9142280412215840e+01 3.3232455284510110e+01 3.6137106024725711e+00
6641 2 2 3.8751699625812080e+01 3.1787071415520629e+01 4.4870546488934275e+00
9795 1 1 3.9451438820785285e+01 3.3209315058624043e+01 3.9006014355204832e+00
5959 1 1 3.9550824591240861e+01 3.3200816252109362e+01 3.9897451612414012e+00
5960 3 3 3.9838968218331630e+01 3.3051903636156474e+01 4.3196682261801653e+00
8342 3 3 4.0158702078154668e+01 3.3173919144642191e+01 3.2941057140275101e+00
8341 1 1 4.0335249549362594e+01 3.3021405717813828e+01 3.6200002282927350e+00
11555 3 3 3.6007756434389258e+01 3.4753968392363745e+01 4.1047148507536813e+00
11554 1 1 3.6134247429787166e+01 3.4789247312624745e+01 3.6998472972757965e+00
17125 1 1 3.6204862829598902e+01 3.4811115675377685e+01 3.5316418772168690e+00
12345 1 1 3.5758754886250458e+01 3.4639127099303629e+01 4.5654682220956717e+00
11556 1 1 3.5823757322142406e+01 3.4689737837983955e+01 4.4548922265528699e+00
15899 3 3 3.7116587417695584e+01 3.4174592644906895e+01 3.2089081493201621e+00
17126 3 3 3.6381446822990540e+01 3.4843568440185862e+01 3.1825565094615960e+00
15900 1 1 3.7018059576131783e+01 3.4197675516570108e+01 3.6074407404770246e+00
4002 1 1 3.6958064890375674e+01 3.4200321664431904e+01 3.7546469040413823e+00
4001 3 3 3.6857080113557664e+01 3.4166605296874920e+01 4.1710915015914862e+00
4000 1 1 3.6717573764193624e+01 3.4190024205638430e+01 4.5760014762199273e+00
11609 3 3 3.7653747178452193e+01 3.4884053306831788e+01 4.3371945146186306e+00
20881 1 1 3.7686435305438280e+01 3.5056469635024861e+01 3.7683503486275844e+00
11610 1 1 3.7708587357268769e+01 3.5012046933461420e+01 3.9025438821929543e+00
8478 1 1 3.8156930698415174e+01 3.4469568813290309e+01 3.1316858908641430e+00
13531 1 1 3.8201071493883454e+01 3.4391945296121293e+01 3.2791991611006677e+00
13532 3 3 3.8272318422726450e+01 3.4226894116814385e+01 3.6150204338243510e+00
13660 1 1 3.9255719421841853e+01 3.4285975196637267e+01 3.6073682289566742e+00
2673 1 1 3.9234075332853131e+01 3.4294663159446905e+01 3.4449558759506465e+00
13533 1 1 3.8232556223341547e+01 3.4145331933355237e+01 4.0234896685346229e+00
8146 1 1 3.8261680079341325e+01 3.4075034334052233e+01 4.1855032066850590e+00
8147 3 3 3.8310757163741116e+01 3.3907559859572054e+01 4.5276702009632039e+00
11959 1 1 3.8672539962682713e+01 3.5040526662006670e+01 4.2193539738510299e+00
13661 3 3 3.9301872626949461e+01 3.4251889458114050e+01 4.0145755380980948e+00
13662 1 1 3.9337959443033306e+01 3.4226242798811668e+01 4.4314676527474992e+00
12862 1 1 3.9355715530805867e+01 3.4204857357648606e+01 4.5732969767254579e+00
13543 1 1 3.8654945532894438e+01 3.4997877602790830e+01 4.3898535158184817e+00
3828 1 1 4.0056920757141683e+01 3.4793378931139245e+01 3.7136446581093865e+00
3826 1 1 4.0528367602087400e+01 3.4378413984271766e+01 4.3083531082494853e+00
7302 1 1 4.0557757444427359e+01 3.4349266200560187e+01 4.3969380394739348e+00
3827 3 3 4.0331206623200458e+01 3.4623175804028556e+01 4.0161328863971413e+00
8539 1 1 4.1373648697522832e+01 3.3942582267217929e+01 3.1106786623508058e+00
8540 2 2 4.1332681360639533e+01 3.4246750297421144e+01 3.3983008979208762e+00
8541 1 1 4.1332220296594414e+01 3.4603974564847746e+01 3.6796460677896778e+00
19176 1 1 4.1334893031379941e+01 3.4705972675853850e+01 3.7886820573049089e+00
19175 3 3 4.1396567077553549e+01 3.4987882557378207e+01 4.0719376471090500e+00
8968 1 1 4.2150955388331177e+01 3.3799252990175454e+01 4.5468166304940247e+00
8970 1 1 4.2160732280519262e+01 3.4388312305982474e+01 3.9520589601798584e+00
8969 3 3 4.2123639392763174e+01 3.4070631030209526e+01 4.2436051321183115e+00
3112 1 1 4.3094607137572808e+01 3.3944260399497047e+01 4.3715806866020381e+00
3113 3 3 4.3106462630140967e+01 3.4387736945880690e+01 4.4396725410312721e+00
12217 1 1 4.2542495636289466e+01 3.4876965903829792e+01 4.0660904274286711e+00
3114 1 1 4.3107198333087936e+01 3.4747708220315879e+01 4.5093938682149162e+00
2958 1 1 4.3140848069107342e+01 3.4866080478870600e+01 4.5323647163884910e+00
13459 1 1 3.5482322256830713e+01 3.5427204002162306e+01 3.7204887896142456e+00
13460 3 3 3.5686937250112017e+01 3.5570445192200914e+01 3.3976810994604310e+00
7178 3 3 3.6307154780879195e+01 3.6536610622593017e+01 4.1807104795709087e+00
20883 1 1 3.7421250368037242e+01 3.5483811185448388e+01 3.1386566683123753e+00
7177 1 1 3.6321756028747629e+01 3.6334569483107025e+01 4.5676442318752075e+00
20882 3 3 3.7590063634471122e+01 3.5259508146991060e+01 3.4002989872860332e+00
1149 1 1 3.6940049198759930e+01 3.5846715868187040e+01 3.8883518551343839e+00
1148 3 3 3.6870100346617797e+01 3.5653569523049264e+01 4.2276177282232394e+00
1147 1 1 3.6867579508191255e+01 3.5437209098153282e+01 4.5340867927732447e+00
9381 1 1 3.7747750138276501e+01 3.5946948591356069e+01 4.5106945893025872e+00
9380 3 3 3.7711303128095210e+01 3.6119579101699713e+01 4.1372886616295457e+00
7480 1 1 3.7781362324721613e+01 3.6288523108207677e+01 3.6037474318052451e+00
9379 1 1 3.7769462050701492e+01 3.6219829382685013e+01 3.7456944548525057e+00
19541 3 3 3.6499055295620025e+01 3.6608814967684154e+01 3.3010084833489017e+00
7179 1 1 3.6429892234691977e+01 3.6557707812138723e+01 3.8298801133947840e+00
19542 1 1 3.6437271615418780e+01 3.6552675461137781e+01 3.6785636018455485e+00
11960 3 3 3.8689316120982035e+01 3.5204057998637708e+01 3.8310852956873331e+00
11961 1 1 3.8795300851461654e+01 3.5261708081926344e+01 3.4751711583545384e+00
6142 1 1 3.8824753773988284e+01 3.5288554233094658e+01 3.3346085728336798e+00
7481 3 3 3.7841652068285683e+01 3.6412502836970148e+01 3.2170176740789906e+00
19775 3 3 3.8983854274191103e+01 3.6198364332181029e+01 3.7629610362051862e+00
19776 1 1 3.8962336939331486e+01 3.6076069208360224e+01 4.1037288914529135e+00
3420 1 1 3.8949246148638828e+01 3.6050851741542076e+01 4.2390856161634556e+00
19774 1 1 3.9033711179656706e+01 3.6338718281096703e+01 3.4386403968797761e+00
4389 1 1 3.9033778209775477e+01 3.6400119588838876e+01 3.2949586060859999e+00
3185 3 3 4.0709301547412892e+01 3.6397802654667416e+01 3.2605823018016649e+00
8830 1 1 3.9765917413930204e+01 3.5423361562595915e+01 4.2027911267765532e+00
1729 1 1 3.9754338075506922e+01 3.5382459791772689e+01 4.3396287794478372e+00
14187 1 1 3.9815531086015397e+01 3.5772395982826239e+01 3.3323294263910159e+00
8832 1 1 3.9787766155459749e+01 3.5707609831565378e+01 3.4685159948666637e+00
8831 3 3 3.9738343558230348e+01 3.5554141937983182e+01 3.8620264554802781e+00
206 3 3 4.0787638013076275e+01 3.5864778699555352e+01 4.0032646446947711e+00
3184 1 1 4.0756275585681450e+01 3.6115912931794561e+01 3.5377367216661866e+00
207 1 1 4.0735866606815939e+01 3.5747910337775586e+01 4.4055604471345537e+00
205 1 1 4.0786975824881942e+01 3.6021587753176767e+01 3.6587440171804588e+00
14392 1 1 4.0740926395037462e+01 3.5682598947475036e+01 4.5470654348897952e+00
16038 1 1 3.9925297746424320e+01 3.6461370845901698e+01 4.3718730255909115e+00
16950 1 1 3.9939963471379947e+01 3.6513496561608598e+01 4.2459901336616541e+00
16949 3 3 4.0003584644929106e+01 3.6670402379423891e+01 3.8746315954349044e+00
6121 1 1 4.1322056923942682e+01 3.5554898135534671e+01 3.0897454456314302e+00
6122 3 3 4.1624935915767615e+01 3.5795718218593535e+01 3.2900895481351675e+00
19174 1 1 4.1564049405211840e+01 3.5278282942659018e+01 4.2332826542613056e+00
11154 1 1 4.1611828451006801e+01 3.5401877620856574e+01 4.2898934671808728e+00
6123 1 1 4.1923026851711491e+01 3.5944418241866316e+01 3.4650693385357543e+00
14401 1 1 4.2039779189183051e+01 3.6021347045126795e+01 3.5199534643077346e+00
11153 3 3 4.1745026419997927e+01 3.5752431292513535e+01 4.4355952740320221e+00
14402 3 3 4.2343678799733709e+01 3.6222826126582767e+01 3.6939908432357407e+00
11152 1 1 4.1886517065118248e+01 3.6077693763077676e+01 4.5665403367646125e+00
12218 3 3 4.2476115308616478e+01 3.5145786597074647e+01 3.8035741098247704e+00
12219 1 1 4.2427741486727598e+01 3.5444532547920844e+01 3.5003579154094195e+00
14403 1 1 4.2639181357848898e+01 3.6433498932644682e+01 3.7577397202717333e+00
6225 1 1 3.7495082808933780e+01 3.0474326245386983e+01 5.2634187377258694e+00
6224 2 2 3.7514279993397025e+01 3.0822736714433596e+01 5.0571577080106085e+00
6223 1 1 3.7555784948802440e+01 3.1129862216385305e+01 4.7977179903507876e+00
1422 1 1 3.7591443193108041e+01 3.1248289112447278e+01 4.6800223676391619e+00
18063 1 1 3.9982428357088381e+01 3.1508505325307652e+01 5.2928391597937559e+00
18062 3 3 3.9763801650301168e+01 3.1290128977314453e+01 5.5697597422961316e+00
18061 1 1 3.9531501627603689e+01 3.1064806722560501e+01 5.8182227483825200e+00
5668 1 1 3.6013725436172948e+01 3.1968799917533453e+01 4.7020226895575403e+00
6614 3 3 3.7438697313523051e+01 3.3259103207436517e+01 4.7089878767819213e+00
6615 1 1 3.7630603180022113e+01 3.3289403340734452e+01 5.0997364213150886e+00
19634 3 3 3.7700303524597430e+01 3.2807487288480978e+01 5.7301591746244016e+00
12840 1 1 3.6338607086244814e+01 3.3221084356870946e+01 6.1388620351048049e+00
19633 1 1 3.7405396313698198e+01 3.2985699858030515e+01 6.0315989627606807e+00
19635 1 1 3.7963698501865508e+01 3.2678266022659237e+01 5.4741811601224404e+00
13062 1 1 3.8064213609952560e+01 3.2578366957696190e+01 5.3523976855501783e+00
13061 3 3 3.8262293523636643e+01 3.2346774366236843e+01 5.0705682331112065e+00
6642 1 1 3.8556195289814134e+01 3.1987339709374350e+01 4.7461072806428204e+00
13060 1 1 3.8482042292417198e+01 3.2061225722886491e+01 4.8417360013575896e+00
2206 1 1 3.8522938811461870e+01 3.3244499314149849e+01 5.6284041740228075e+00
20041 1 1 3.8602007516899050e+01 3.3161417089094286e+01 6.0377694269149842e+00
5961 1 1 4.0135337529320608e+01 3.2986094176079803e+01 4.6394343607909061e+00
11044 1 1 4.0217330451014362e+01 3.2977892193935780e+01 4.7640786186182655e+00
11045 3 3 4.0476035031113142e+01 3.2941502058938809e+01 5.0414759985829072e+00
11046 1 1 4.0819916785068820e+01 3.2907725418876979e+01 5.2836000316455376e+00
1236 1 1 4.0947173620348920e+01 3.2900481378986264e+01 5.3541247881428990e+00
1235 3 3 4.1332935287679540e+01 3.2882632913814383e+01 5.5198288449668942e+00
1234 1 1 4.1676914043834273e+01 3.2837168358601211e+01 5.7179119496359458e+00
1635 1 1 4.2589205214510322e+01 3.3226680591521024e+01 5.1731464513921646e+00
12344 3 3 3.5543430198221238e+01 3.4465373160896739e+01 4.9008679272080204e+00
12343 1 1 3.5509570270158378e+01 3.4204336572621159e+01 5.2180345413902609e+00
15751 1 1 3.6694821880537837e+01 3.4140860235905805e+01 4.7186484309173347e+00
16653 1 1 3.7666883791605372e+01 3.4599837421075563e+01 4.7734188065704846e+00
11608 1 1 3.7665960823282113e+01 3.4685529488596082e+01 4.6464616922171311e+00
12839 3 3 3.6459339785278907e+01 3.3429299186573054e+01 5.8160155802376847e+00
12838 1 1 3.6453888871687347e+01 3.3679462295693099e+01 5.4703098517217077e+00
16652 3 3 3.7602445658273403e+01 3.4389472054285854e+01 5.0926002901675727e+00
15753 1 1 3.6481557462900319e+01 3.3775456846531213e+01 5.3611173374843615e+00
16651 1 1 3.7579193347555538e+01 3.4164756825767711e+01 5.4251226616730932e+00
15525 1 1 3.7570013085895411e+01 3.4091701318001782e+01 5.5346486105168280e+00
15752 3 3 3.6606866988732492e+01 3.3994237070179906e+01 5.0416949953766412e+00
15524 3 3 3.7482990233911316e+01 3.3897794225104541e+01 5.8737734651610340e+00
13103 3 3 3.6708164996833688e+01 3.4720098222439169e+01 5.8963654419097074e+00
13104 1 1 3.6763879284987262e+01 3.4917191831250200e+01 5.5744039272327388e+00
3748 1 1 3.6800063896662017e+01 3.5005491453697587e+01 5.4602952575570880e+00
1600 1 1 3.7730261553352804e+01 3.5061525467406533e+01 6.0191221464036060e+00
2208 1 1 3.8344241590300925e+01 3.3583220635722242e+01 4.9903236439538068e+00
8148 1 1 3.8347675778703064e+01 3.3663243298445373e+01 4.8716068377172759e+00
2207 3 3 3.8399166037197162e+01 3.3421666765113322e+01 5.2893111407818418e+00
13544 3 3 3.8622519370407950e+01 3.4881292378694312e+01 4.8079987505124278e+00
14738 3 3 3.8578383687275441e+01 3.4473835476179183e+01 5.7642142654016784e+00
13545 1 1 3.8647055497600995e+01 3.4715911763037276e+01 5.2399019151695887e+00
14739 1 1 3.8629825810567880e+01 3.4637110996779619e+01 5.3912589656527858e+00
14737 1 1 3.8514995325188160e+01 3.4335205804578585e+01 6.1097635503467780e+00
12863 3 3 3.9436234100963098e+01 3.4151335492580728e+01 4.9246282656276366e+00
7301 3 3 4.0641355539363417e+01 3.4275698740585334e+01 4.7738817466613845e+00
12864 1 1 3.9450420667340481e+01 3.4008425568216651e+01 5.2416553221355695e+00
10335 1 1 3.9443123801888177e+01 3.3935660637704636e+01 5.3817004151636283e+00
10334 3 3 3.9523623111046525e+01 3.3772392960616472e+01 5.7095857283834475e+00
10333 1 1 3.9596967099663850e+01 3.3656471595965783e+01 6.0635747713332453e+00
10279 1 1 4.0620905635742801e+01 3.3966980029188285e+01 5.2980973361538917e+00
10280 3 3 4.0633939273327947e+01 3.3733385156874178e+01 5.6446461127126124e+00
7300 1 1 4.0633617124856940e+01 3.4053106648942361e+01 5.1632192177499459e+00
19151 3 3 3.9530916656576835e+01 3.4940205192100429e+01 5.5745927367698345e+00
10281 1 1 4.0646450932069421e+01 3.3541076211724366e+01 5.9909837634339169e+00
2709 1 1 4.0698259088948483e+01 3.3479943377113194e+01 6.1009752919023423e+00
17128 1 1 4.0506816000141967e+01 3.4753590372930674e+01 5.9698161812887429e+00
19152 1 1 3.9415976629400113e+01 3.4752269661555978e+01 5.9309534752488107e+00
7344 1 1 4.0513694625989189e+01 3.4699926956395487e+01 6.1032666932894202e+00
17129 3 3 4.0539184266272471e+01 3.4930514525178154e+01 5.6067094522621348e+00
18697 1 1 3.9394095127241556e+01 3.4693675342878123e+01 6.0815819619676024e+00
1633 1 1 4.2185436433824805e+01 3.3735695894420360e+01 4.6413650916934053e+00
1634 3 3 4.2350313780423065e+01 3.3470567349418836e+01 4.9486694630154995e+00
7801 1 1 4.1656669117616545e+01 3.4006317262369826e+01 5.6055446300227887e+00
7802 3 3 4.1911397959829223e+01 3.4204217262880114e+01 5.5620655096583258e+00
7803 1 1 4.2200780829731372e+01 3.4415460886996051e+01 5.5265710770900220e+00
21451 1 1 4.2317744188509337e+01 3.4468930706582825e+01 5.4900239018943058e+00
21452 3 3 4.2637713825952339e+01 3.4657717947513518e+01 5.4106136345652285e+00
21453 1 1 4.2943817436842181e+01 3.4866346305040231e+01 5.2659803614682117e+00
5572 1 1 3.5073013243152282e+01 3.5809592126835149e+01 5.6422234725263518e+00
16731 1 1 3.6295240416254465e+01 3.6257370268872549e+01 4.6803293474275440e+00
16730 3 3 3.6183181056076506e+01 3.6014402659822103e+01 4.9743239609637646e+00
5574 1 1 3.4932999553208582e+01 3.5802525658095007e+01 4.7985474892690299e+00
16729 1 1 3.6139425769937453e+01 3.5779968052382991e+01 5.3225418528502519e+00
18037 1 1 3.6088505152029065e+01 3.5685691930006207e+01 5.4307704529366267e+00
18038 3 3 3.5942005135279011e+01 3.5398320217877810e+01 5.6980397802420173e+00
18039 1 1 3.5884626541597690e+01 3.5159962798167541e+01 6.0135348411613476e+00
17304 1 1 3.5859342310575656e+01 3.5104329533101144e+01 6.1188414359765257e+00
5573 3 3 3.5024098924151701e+01 3.5761455117751701e+01 5.1897116374357815e+00
8601 1 1 3.5067513909381724e+01 3.5834006255189848e+01 5.7869242304522270e+00
3750 1 1 3.6866927486816600e+01 3.5348757361503829e+01 4.7052698911699498e+00
3749 3 3 3.6849541880953822e+01 3.5217768776643773e+01 5.1060038047175134e+00
6600 1 1 3.7057926211295971e+01 3.6567629564756693e+01 5.1794483150981767e+00
15229 1 1 3.7046897440376398e+01 3.6445700902489023e+01 5.2931719503120851e+00
15230 3 3 3.7048822284239904e+01 3.6153716036201942e+01 5.5846682970387960e+00
15231 1 1 3.7002175431658948e+01 3.5884984500350434e+01 5.8609084543928951e+00
1186 1 1 3.6997362491020851e+01 3.5823258419674225e+01 5.9798413899353893e+00
2797 1 1 3.7769434332717353e+01 3.5890087136541645e+01 4.6459828638331020e+00
1601 3 3 3.7741800991772998e+01 3.5216956332648607e+01 5.6783408960639976e+00
1602 1 1 3.7720937165846813e+01 3.5452664594301915e+01 5.3539447722002489e+00
2799 1 1 3.7743411085065453e+01 3.5538712032122405e+01 5.2197848306324390e+00
2798 3 3 3.7774620063084512e+01 3.5730923727441116e+01 4.9578186121425336e+00
8903 3 3 3.8032363495980356e+01 3.6607207372801632e+01 5.3306091890118541e+00
6856 1 1 3.8099365587677646e+01 3.6389506890682767e+01 5.7865854821420557e+00
8904 1 1 3.8075968405598623e+01 3.6431528453025059e+01 5.6698024688913060e+00
3418 1 1 3.8867185043133176e+01 3.5899831618152000e+01 4.9638686258476881e+00
15709 1 1 3.8839793051735960e+01 3.5857145569488011e+01 5.1117513653226077e+00
3419 3 3 3.8909941694768776e+01 3.6013106737107449e+01 4.6236995915494061e+00
15710 3 3 3.8803806221446457e+01 3.5741007813984119e+01 5.5177659459031441e+00
15711 1 1 3.8743048396231480e+01 3.5648080780239091e+01 5.9305303000678338e+00
13231 1 1 3.8740546463462138e+01 3.5602201940732698e+01 6.0398320684151585e+00
6857 3 3 3.8101309309678371e+01 3.6294219139572583e+01 6.1558966862630315e+00
5392 1 1 3.9111187886444782e+01 3.6653111051533408e+01 6.1249409622376794e+00
1731 1 1 3.9642909065996022e+01 3.5138997309135206e+01 5.0643039262259162e+00
1730 3 3 3.9725839972637992e+01 3.5236701364596421e+01 4.7024859425603855e+00
19150 1 1 3.9607209699195892e+01 3.5087254706245425e+01 5.2145286197844918e+00
14393 3 3 4.0759731633245956e+01 3.5486027081165730e+01 4.8949516851375678e+00
16037 3 3 3.9880616457758578e+01 3.6343178788173475e+01 4.6863075946572339e+00
4180 1 1 3.9838017831289065e+01 3.6108503200927636e+01 5.1807381757641808e+00
4181 3 3 3.9852008208639852e+01 3.5936813470456741e+01 5.5394349589291849e+00
16036 1 1 3.9843584230307208e+01 3.6161563570368784e+01 5.0616702754995231e+00
4182 1 1 3.9826383763958162e+01 3.5836089849249092e+01 5.8719474602351642e+00
19419 1 1 3.9814417624213171e+01 3.5801249940189372e+01 6.0115835322028941e+00
14394 1 1 4.0695503221096054e+01 3.5255349992399857e+01 5.2289060177104139e+00
17130 1 1 4.0660308588045005e+01 3.5165079737654715e+01 5.3314017415274169e+00
17571 1 1 4.0867163223381581e+01 3.6107743231030895e+01 5.9715360349473023e+00
7248 1 1 4.0829589299361366e+01 3.6031058659571222e+01 6.0837938794436264e+00
3440 3 3 4.1001524336478951e+01 3.6680151615428777e+01 4.8787646393050741e+00
11758 1 1 4.1363741707958496e+01 3.5301108696578240e+01 5.5912401151606295e+00