ITEM: TIMESTEP
20000000
ITEM: NUMBER OF ENTRIES
12272
ITEM: BOX BOUNDS pp pp pp
0 50
0 50
0 50
ITEM: ENTRIES c_binfo[1] c_binfo[2] c_binfo[3] 
3 11504 11505 
3 11503 11504 
1 11503 12960 
1 7917 15021 
2 7916 7917 
2 7915 7916 
3 6419 6420 
3 6418 6419 
1 6418 12948 
2 15019 15020 
2 15020 15021 
1 6420 15019 
2 20791 20792 
3 12947 12948 
1 2817 12946 
3 2816 2817 
3 12946 12947 
3 2815 2816 
2 20792 20793 
1 6333 10729 
3 12959 12960 
3 12958 12959 
3 20708 20709 
3 20707 20708 
2 15472 15473 
2 21185 21186 
2 21184 21185 
2 10079 10080 
2 10078 10079 
3 10729 10730 
3 10730 10731 
3 10769 10770 
2 20177 20178 
2 15473 15474 
2 16943 16944 
2 16942 16943 
3 8620 8621 
3 8621 8622 
3 10768 10769 
3 2270 2271 
2 11495 11496 
2 11494 11495 
3 8708 8709 
3 21410 21411 
3 21409 21410 
3 2269 2270 
1 2269 21409 
3 21176 21177 
3 21175 21176 
3 19777 19778 
3 19204 19205 
1 19204 19777 
3 19778 19779 
3 19205 19206 
3 20639 20640 
3 2216 2217 
1 2217 20640 
3 12886 12887 
2 8318 8319 
3 2215 2216 
3 14404 14405 
3 14405 14406 
3 6011 6012 
3 6010 6011 
1 6010 10311 
2 10310 10311 
2 10309 10310 
1 17478 18177 
3 7430 7431 
3 3040 3041 
1 3040 7431 
3 3041 3042 
3 7429 7430 
3 13748 13749 
3 13747 13748 
3 17477 17478 
3 17476 17477 
3 9584 9585 
3 9583 9584 
3 5264 5265 
2 5147 5148 
2 14671 14672 
2 14672 14673 
3 5263 5264 
1 5263 14895 
3 10502 10503 
3 14893 14894 
3 11428 11429 
1 11428 14893 
3 14894 14895 
3 11203 11204 
3 11204 11205 
3 10501 10502 
1 10501 11203 
3 6332 6333 
3 7964 7965 
3 7963 7964 
3 6331 6332 
1 6331 7965 
2 13540 13541 
2 13541 13542 
2 5146 5147 
2 16798 16799 
1 16798 21184 
2 16799 16800 
3 698 699 
1 699 10615 
3 10615 10616 
3 10616 10617 
3 12404 12405 
3 697 698 
1 697 12405 
3 12403 12404 
2 20176 20177 
3 4358 4359 
3 4357 4358 
2 3593 3594 
2 3592 3593 
1 3592 13818 
3 13817 13818 
3 13816 13817 
2 10463 10464 
2 10462 10463 
3 10069 10070 
3 10070 10071 
3 5332 5333 
3 12547 12548 
3 12548 12549 
2 1325 1326 
2 1324 1325 
2 21155 21156 
2 21154 21155 
2 17638 17639 
2 17639 17640 
3 13819 13820 
1 5334 12888 
3 5333 5334 
3 12887 12888 
3 10148 10149 
2 15832 15833 
3 10147 10148 
1 10147 15832 
3 19724 19725 
3 19723 19724 
1 4209 19725 
2 8317 8318 
3 20591 20592 
1 357 20590 
3 20590 20591 
3 4750 4751 
3 4751 4752 
2 15833 15834 
3 4208 4209 
3 4207 4208 
3 3469 3470 
1 3471 7503 
3 3470 3471 
2 9503 9504 
2 9502 9503 
1 4752 13267 
3 13267 13268 
3 13268 13269 
3 17618 17619 
2 18176 18177 
2 18175 18176 
3 3331 3332 
3 3332 3333 
3 7502 7503 
3 7501 7502 
1 7501 12144 
3 10286 10287 
3 10285 10286 
1 10285 18030 
3 18029 18030 
3 17617 17618 
3 1652 1653 
3 1651 1652 
2 2146 2147 
2 18134 18135 
2 18133 18134 
2 1720 1721 
2 1721 1722 
3 11429 11430 
3 11195 11196 
3 11194 11195 
3 12557 12558 
3 3499 3500 
3 3500 3501 
3 12556 12557 
2 9911 9912 
3 18149 18150 
3 18148 18149 
2 3724 3725 
2 3725 3726 
2 9910 9911 
2 18907 18908 
2 18908 18909 
3 13820 13821 
3 12077 12078 
3 12076 12077 
2 356 357 
2 355 356 
3 11216 11217 
3 8420 8421 
1 8421 13269 
3 8419 8420 
3 15352 15353 
3 15353 15354 
3 11215 11216 
1 11215 14863 
3 14863 14864 
3 14864 14865 
2 4670 4671 
2 4669 4670 
3 12143 12144 
3 12142 12143 
2 12596 12597 
2 12595 12596 
3 18028 18029 
2 2147 2148 
3 7781 7782 
3 15329 15330 
2 12869 12870 
2 12868 12869 
3 2962 2963 
1 669 12955 
3 668 669 
3 12956 12957 
3 12955 12956 
3 2963 2964 
3 17375 17376 
3 17374 17375 
2 3580 3581 
2 3581 3582 
3 5011 5012 
3 5012 5013 
2 17182 17183 
2 17183 17184 
3 13631 13632 
2 1571 1572 
2 6878 6879 
3 3352 3353 
1 3352 20295 
3 20293 20294 
3 20294 20295 
3 2105 2106 
3 2104 2105 
2 3484 3485 
2 3485 3486 
3 10778 10779 
3 10777 10778 
3 3353 3354 
1 3354 10777 
2 3263 3264 
2 3262 3263 
2 898 899 
1 898 3262 
3 18553 18554 
3 18554 18555 
3 19706 19707 
3 19705 19706 
2 17879 17880 
2 460 461 
1 460 11197 
2 461 462 
3 11197 11198 
2 1355 1356 
2 1354 1355 
3 2992 2993 
3 5981 5982 
3 5980 5981 
3 667 668 
2 21466 21467 
1 11199 17290 
3 11198 11199 
2 17290 17291 
2 17291 17292 
2 6760 6761 
2 6761 6762 
3 14060 14061 
3 14059 14060 
2 18322 18323 
2 18323 18324 
3 17542 17543 
3 15203 15204 
3 15202 15203 
1 15204 17544 
3 17543 17544 
3 8552 8553 
3 8551 8552 
3 13630 13631 
1 13630 20179 
2 20179 20180 
2 20180 20181 
2 7462 7463 
1 7462 20181 
2 7463 7464 
2 3016 3017 
1 3016 7464 
3 21508 21509 
3 21509 21510 
2 3017 3018 
1 3018 20211 
3 20210 20211 
3 20209 20210 
2 9970 9971 
2 9971 9972 
3 15079 15080 
3 15080 15081 
1 390 15079 
2 1570 1571 
2 19019 19020 
2 6877 6878 
2 14032 14033 
2 14033 14034 
3 5239 5240 
1 5239 14034 
3 5240 5241 
3 1879 1880 
2 899 900 
2 82 83 
2 83 84 
3 3121 3122 
3 10993 10994 
3 10994 10995 
3 1880 1881 
2 8377 8378 
2 8378 8379 
2 19183 19184 
2 3179 3180 
2 7187 7188 
3 2993 2994 
3 19631 19632 
2 2302 2303 
2 2303 2304 
2 21467 21468 
2 16894 16895 
2 16895 16896 
3 16220 16221 
3 16219 16220 
1 14061 17461 
2 17461 17462 
2 17462 17463 
2 14722 14723 
1 14722 20082 
2 13385 13386 
2 16756 16757 
3 2518 2519 
1 2518 7882 
3 7882 7883 
3 7883 7884 
3 2519 2520 
3 598 599 
2 4399 4400 
2 4400 4401 
1 3417 4399 
3 3416 3417 
3 3415 3416 
1 3415 14724 
2 14723 14724 
1 10014 10413 
3 10012 10013 
2 16757 16758 
2 6317 6318 
1 6318 16758 
3 3541 3542 
1 3541 3645 
2 3644 3645 
2 3643 3644 
1 3543 18636 
3 3542 3543 
3 599 600 
2 389 390 
2 388 389 
2 6316 6317 
2 19018 19019 
2 5635 5636 
2 6106 6107 
2 6107 6108 
2 3775 3776 
1 3775 7092 
2 1690 1691 
1 1690 7090 
2 7090 7091 
2 7091 7092 
2 5636 5637 
3 3122 3123 
1 3123 5637 
2 1691 1692 
2 12992 12993 
2 19918 19919 
2 12991 12992 
1 12991 19918 
2 19919 19920 
3 18121 18122 
3 18122 18123 
3 659 660 
2 1093 1094 
2 1094 1095 
1 1095 12792 
2 3361 3362 
1 3361 19185 
2 19184 19185 
2 3362 3363 
2 13552 13553 
3 19267 19268 
3 19268 19269 
2 11282 11283 
2 11281 11282 
2 8888 8889 
2 8887 8888 
3 19630 19631 
3 14710 14711 
3 14711 14712 
3 17177 17178 
2 4124 4125 
3 17176 17177 
2 4123 4124 
1 4123 17176 
2 19627 19628 
3 8320 8321 
3 8321 8322 
2 20080 20081 
2 20081 20082 
2 13384 13385 
3 18634 18635 
2 11015 11016 
2 11014 11015 
2 2083 2084 
3 10013 10014 
2 10412 10413 
3 18635 18636 
2 2636 2637 
2 2635 2636 
3 5158 5159 
3 5159 5160 
2 3776 3777 
2 15940 15941 
2 15941 15942 
3 19015 19016 
3 18280 18281 
3 18281 18282 
2 5530 5531 
3 1457 1458 
3 1456 1457 
1 1456 5530 
2 5531 5532 
3 20266 20267 
1 19017 20266 
3 20267 20268 
2 5840 5841 
1 5841 15942 
2 5839 5840 
3 19016 19017 
2 19648 19649 
2 19649 19650 
1 5532 7912 
3 7912 7913 
3 18451 18452 
3 18452 18453 
2 12791 12792 
1 14349 16644 
3 14348 14349 
3 5128 5129 
1 5128 13737 
2 13736 13737 
3 5129 5130 
2 2375 2376 
2 13735 13736 
2 1639 1640 
1 1639 13735 
2 2374 2375 
3 15763 15764 
3 19408 19409 
3 19409 19410 
3 19895 19896 
1 1302 19896 
2 1301 1302 
2 1300 1301 
1 1300 19101 
3 7469 7470 
3 7468 7469 
2 5939 5940 
2 1640 1641 
1 1641 10512 
2 10511 10512 
2 10510 10511 
1 8748 10510 
3 19544 19545 
3 19543 19544 
2 19100 19101 
2 19099 19100 
2 19628 19629 
2 8747 8748 
2 8746 8747 
3 11546 11547 
2 4162 4163 
2 2084 2085 
2 193 194 
1 193 2085 
2 194 195 
3 1760 1761 
2 4163 4164 
3 1759 1760 
3 12287 12288 
3 12286 12287 
2 4627 4628 
2 4628 4629 
3 3329 3330 
3 3328 3329 
1 3328 4627 
3 15817 15818 
3 15818 15819 
3 7055 7056 
1 885 19650 
2 883 884 
2 884 885 
3 7913 7914 
2 10513 10514 
2 2980 2981 
2 2981 2982 
1 16083 17022 
2 17021 17022 
2 16082 16083 
2 17020 17021 
3 17768 17769 
2 5417 5418 
2 5416 5417 
3 14347 14348 
2 18227 18228 
3 11404 11405 
3 15764 15765 
3 13064 13065 
3 13063 13064 
1 13063 15765 
3 7318 7319 
3 4091 4092 
3 7319 7320 
2 9995 9996 
1 5940 9994 
2 9994 9995 
2 13963 13964 
1 13963 18226 
2 18226 18227 
2 8387 8388 
2 8386 8387 
3 5533 5534 
1 5533 13221 
2 13220 13221 
2 13219 13220 
1 13219 19137 
3 6151 6152 
3 6152 6153 
3 5534 5535 
3 4804 4805 
3 4805 4806 
2 3793 3794 
2 3794 3795 
3 11545 11546 
3 16916 16917 
3 16915 16916 
3 3908 3909 
3 3907 3908 
3 16769 16770 
3 15421 15422 
1 15423 16768 
3 15422 15423 
3 16768 16769 
3 9482 9483 
2 15682 15683 
2 15683 15684 
3 7054 7055 
3 9481 9482 
2 4340 4341 
2 4339 4340 
3 12818 12819 
3 12817 12818 
1 12817 15972 
3 15970 15971 
3 15971 15972 
2 1157 1158 
2 1156 1157 
2 5345 5346 
2 5344 5345 
1 5344 16368 
2 12937 12938 
2 12938 12939 
1 10515 12819 
2 10514 10515 
3 19708 19709 
1 2982 19708 
3 19709 19710 
3 17767 17768 
2 16366 16367 
2 16367 16368 
3 5015 5016 
3 5014 5015 
3 674 675 
3 3874 3875 
1 3876 10600 
3 3875 3876 
3 10600 10601 
1 11406 20517 
2 20516 20517 
3 11405 11406 
2 4114 4115 
2 6971 6972 
1 6972 9741 
1 4116 6970 
2 6970 6971 
2 4115 4116 
3 9740 9741 
3 9739 9740 
3 10727 10728 
3 4171 4172 
3 4172 4173 
2 9541 9542 
2 9542 9543 
3 17717 17718 
3 6926 6927 
3 673 674 
1 673 8299 
3 8299 8300 
3 8300 8301 
3 19135 19136 
1 8301 19135 
3 19136 19137 
3 10601 10602 
2 13964 13965 
3 6875 6876 
3 6874 6875 
3 2401 2402 
3 13958 13959 
3 17716 17717 
3 17609 17610 
3 2402 2403 
2 12883 12884 
2 12884 12885 
1 231 12885 
2 230 231 
1 2412 21013 
2 2411 2412 
3 21014 21015 
3 21013 21014 
3 4819 4820 
3 11452 11453 
1 11452 20733 
3 20732 20733 
3 20731 20732 
1 20731 21565 
3 21565 21566 
3 3773 3774 
3 3772 3773 
1 3772 21567 
3 21566 21567 
3 17608 17609 
3 17566 17567 
3 17567 17568 
2 229 230 
2 16562 16563 
2 7666 7667 
2 7667 7668 
2 19573 19574 
1 17568 19573 
2 19574 19575 
3 3817 3818 
1 3819 17761 
3 17762 17763 
3 3818 3819 
3 17761 17762 
3 18229 18230 
3 18230 18231 
3 2852 2853 
2 17624 17625 
3 16622 16623 
3 6188 6189 
3 6187 6188 
3 16528 16529 
3 18977 18978 
3 16529 16530 
3 18976 18977 
1 16530 18976 
2 8107 8108 
2 8108 8109 
3 8111 8112 
3 8110 8111 
1 8110 18978 
3 10349 10350 
3 10348 10349 
3 21158 21159 
2 15808 15809 
3 9062 9063 
3 9061 9062 
3 3686 3687 
3 3685 3686 
2 7831 7832 
2 7832 7833 
1 7833 9063 
2 10097 10098 
2 10096 10097 
3 17047 17048 
3 17048 17049 
3 18004 18005 
2 3511 3512 
2 3190 3191 
2 3191 3192 
2 7325 7326 
2 7324 7325 
1 7324 17946 
3 2746 2747 
3 2747 2748 
2 12407 12408 
2 12406 12407 
2 8210 8211 
2 8209 8210 
3 18005 18006 
2 17944 17945 
2 17945 17946 
3 9484 9485 
3 15775 15776 
2 7283 7284 
2 7282 7283 
3 6832 6833 
1 6832 7282 
3 6833 6834 
2 4145 4146 
3 16739 16740 
3 21377 21378 
3 21157 21158 
2 15809 15810 
2 14933 14934 
2 14932 14933 
2 2285 2286 
1 2286 3687 
2 7849 7850 
2 7850 7851 
2 2284 2285 
1 2284 7851 
2 10315 10316 
2 10316 10317 
2 2450 2451 
2 2449 2450 
2 1888 1889 
2 1889 1890 
2 7384 7385 
3 1726 1727 
2 9752 9753 
1 7326 9753 
2 9751 9752 
3 1727 1728 
3 5069 5070 
3 5068 5069 
3 18872 18873 
3 1643 1644 
3 1642 1643 
3 18871 18872 
3 1918 1919 
3 1919 1920 
3 19799 19800 
3 19798 19799 
2 9697 9698 
1 9697 19798 
2 9698 9699 
2 16397 16398 
2 16396 16397 
3 6770 6771 
3 6769 6770 
3 21376 21377 
2 1487 1488 
2 1486 1487 
3 17987 17988 
3 17986 17987 
1 8499 10317 
2 8497 8498 
2 8498 8499 
2 7385 7386 
2 257 258 
2 256 257 
3 18187 18188 
3 12383 12384 
3 12382 12383 
3 499 500 
3 500 501 
2 12377 12378 
1 501 12376 
2 12376 12377 
3 6368 6369 
3 6367 6368 
1 6369 8379 
2 1624 1625 
2 1625 1626 
3 19358 19359 
2 13301 13302 
2 13300 13301 
2 21121 21122 
2 21122 21123 
3 12967 12968 
1 12967 21123 
3 19357 19358 
3 12968 12969 
1 12969 19305 
1 4602 5755 
3 5755 5756 
3 5756 5757 
3 4601 4602 
3 11438 11439 
3 4600 4601 
1 4600 11439 
3 11437 11438 
2 12865 12866 
2 12866 12867 
2 19154 19155 
2 19153 19154 
2 6628 6629 
2 6629 6630 
3 18188 18189 
3 8258 8259 
3 13486 13487 
3 8257 8258 
2 20914 20915 
3 21586 21587 
3 21587 21588 
1 4245 21588 
3 4748 4749 
2 7799 7800 
3 19504 19505 
3 19636 19637 
3 2756 2757 
3 2755 2756 
2 280 281 
2 281 282 
3 19637 19638 
2 4433 4434 
2 4432 4433 
3 20323 20324 
3 20324 20325 
3 4361 4362 
3 20297 20298 
3 4360 4361 
1 4360 20296 
3 20296 20297 
3 20614 20615 
3 20615 20616 
3 3004 3005 
1 3004 20614 
3 3005 3006 
3 13487 13488 
3 14704 14705 
2 7798 7799 
2 12416 12417 
2 12415 12416 
3 658 659 
2 14573 14574 
2 5246 5247 
1 9675 20050 
2 20050 20051 
2 20051 20052 
3 9674 9675 
1 3531 19636 
3 3530 3531 
3 3529 3530 
2 571 572 
1 571 5247 
2 572 573 
2 3311 3312 
2 18467 18468 
3 20461 20462 
3 20462 20463 
3 16724 16725 
3 16723 16724 
2 3310 3311 
3 19892 19893 
3 19891 19892 
3 8459 8460 
3 8458 8459 
3 11239 11240 
3 12259 12260 
1 12259 18451 
3 12260 12261 
3 16093 16094 
3 16094 16095 
2 2059 2060 
2 2060 2061 
2 5245 5246 
2 12790 12791 
2 7816 7817 
1 7816 19240 
2 19240 19241 
2 19241 19242 
2 14572 14573 
2 7817 7818 
1 2259 17307 
2 2258 2259 
3 9673 9674 
2 18466 18467 
3 18823 18824 
3 18824 18825 
2 19190 19191 
2 19189 19190 
2 17213 17214 
2 17212 17213 
1 17212 19189 
3 10639 10640 
3 10640 10641 
2 17305 17306 
2 17306 17307 
2 11012 11013 
2 16081 16082 
2 11011 11012 
1 11011 16081 
3 14131 14132 
1 14131 17769 
1 2061 14133 
3 14132 14133 
3 20009 20010 
3 20008 20009 
2 18988 18989 
2 18989 18990 
3 4867 4868 
2 14644 14645 
1 14644 19242 
2 14645 14646 
3 1079 1080 
3 19792 19793 
3 19793 19794 
1 1080 19794 
3 1078 1079 
2 2257 2258 
3 14149 14150 
3 14150 14151 
3 10262 10263 
3 10261 10262 
3 3850 3851 
1 3850 10261 
2 15713 15714 
2 21460 21461 
2 8735 8736 
2 2026 2027 
1 2026 4869 
2 2027 2028 
3 15692 15693 
3 15691 15692 
3 4868 4869 
3 17590 17591 
1 1914 6850 
3 6850 6851 
3 6851 6852 
1 6852 8467 
3 8467 8468 
3 8468 8469 
2 19580 19581 
2 19579 19580 
2 3194 3195 
2 7651 7652 
1 7651 19581 
2 7652 7653 
2 13198 13199 
2 13199 13200 
3 17591 17592 
3 4783 4784 
3 4784 4785 
3 3851 3852 
2 11591 11592 
2 11590 11591 
2 1462 1463 
2 1463 1464 
2 15712 15713 
2 21461 21462 
2 11897 11898 
2 8734 8735 
2 14365 14366 
2 7774 7775 
2 7775 7776 
3 1912 1913 
3 1913 1914 
2 7427 7428 
1 7428 19579 
2 7426 7427 
2 3193 3194 
2 10496 10497 
1 729 13200 
3 728 729 
3 727 728 
1 727 10497 
3 1226 1227 
3 1225 1226 
2 11825 11826 
2 2275 2276 
1 2275 11592 
2 2276 2277 
2 11824 11825 
3 9632 9633 
3 14302 14303 
3 14303 14304 
2 16253 16254 
2 16252 16253 
3 9631 9632 
3 1861 1862 
2 20515 20516 
3 7856 7857 
3 7855 7856 
3 6859 6860 
2 14647 14648 
2 14648 14649 
1 303 14649 
3 301 302 
3 302 303 
3 20849 20850 
3 20848 20849 
3 10726 10727 
1 10726 20850 
3 8069 8070 
3 5957 5958 
3 5956 5957 
3 6860 6861 
2 130 131 
3 19829 19830 
1 13959 19830 
3 8068 8069 
3 19828 19829 
2 1679 1680 
2 1678 1679 
2 4904 4905 
3 4820 4821 
2 6620 6621 
2 6619 6620 
1 6619 11851 
2 4903 4904 
1 4903 6621 
2 2437 2438 
2 11906 11907 
2 11905 11906 
3 4193 4194 
2 16561 16562 
3 14698 14699 
3 14699 14700 
3 2851 2852 
2 15179 15180 
2 15178 15179 
1 3900 15178 
3 3899 3900 
3 3898 3899 
3 17396 17397 
3 17395 17396 
2 11912 11913 
2 11911 11912 
3 1379 1380 
3 1378 1379 
3 16621 16622 
3 11300 11301 
3 11299 11300 
2 20764 20765 
2 20765 20766 
3 19202 19203 
3 12994 12995 
3 12995 12996 
3 18442 18443 
3 18443 18444 
1 18444 21496 
2 21496 21497 
2 21497 21498 
2 1661 1662 
2 1660 1661 
1 1662 17778 
2 16324 16325 
2 14455 14456 
1 14455 16324 
2 16325 16326 
3 9581 9582 
3 9580 9581 
1 9580 16326 
3 5078 5079 
3 6305 6306 
3 5077 5078 
1 5077 6306 
3 5768 5769 
1 5769 19201 
3 19201 19202 
3 5767 5768 
1 5767 14736 
3 14735 14736 
3 17777 17778 
3 17776 17777 
2 3013 3014 
2 3014 3015 
3 14734 14735 
2 14366 14367 
2 11053 11054 
2 11054 11055 
3 18568 18569 
2 6359 6360 
3 18569 18570 
2 6358 6359 
1 6358 18568 
2 10495 10496 
2 11344 11345 
3 21301 21302 
3 21302 21303 
3 956 957 
2 11345 11346 
3 8650 8651 
3 8651 8652 
3 14527 14528 
3 14528 14529 
3 955 956 
2 12397 12398 
2 13595 13596 
3 4919 4920 
3 7519 7520 
1 7519 16986 
3 16985 16986 
3 4918 4919 
1 4918 16984 
3 16984 16985 
2 9044 9045 
2 9043 9044 
1 9043 10048 
2 10048 10049 
2 10049 10050 
2 6533 6534 
2 6532 6533 
2 131 132 
3 10277 10278 
3 7570 7571 
3 7571 7572 
2 11852 11853 
3 12634 12635 
3 12635 12636 
2 11254 11255 
1 6534 11254 
2 11255 11256 
2 3791 3792 
1 3792 5085 
2 5083 5084 
1 5083 10276 
3 10276 10277 
2 5084 5085 
2 11851 11852 
3 8686 8687 
2 2438 2439 
3 21595 21596 
3 21596 21597 
2 8401 8402 
2 3790 3791 
2 8402 8403 
3 4192 4193 
1 4192 8403 
3 18316 18317 
3 18317 18318 
3 3961 3962 
3 8687 8688 
3 8392 8393 
3 8393 8394 
3 3962 3963 
3 10922 10923 
3 4324 4325 
3 4325 4326 
2 21212 21213 
2 21211 21212 
3 21233 21234 
3 21232 21233 
3 4651 4652 
2 20354 20355 
2 20353 20354 
3 4553 4554 
3 6304 6305 
3 11548 11549 
3 11549 11550 
3 8683 8684 
1 8683 14457 
3 8684 8685 
2 14456 14457 
2 21182 21183 
3 8276 8277 
3 2137 2138 
3 8248 8249 
3 8249 8250 
2 10861 10862 
2 10862 10863 
3 8275 8276 
1 4323 8275 
3 4322 4323 
3 4321 4322 
3 7196 7197 
3 7195 7196 
3 2138 2139 
2 5441 5442 
2 5440 5441 
1 5440 7506 
3 4418 4419 
3 4417 4418 
2 11176 11177 
2 11177 11178 
3 9985 9986 
3 9986 9987 
3 14801 14802 
2 12518 12519 
2 12517 12518 
2 1832 1833 
2 12398 12399 
2 20275 20276 
2 20276 20277 
2 1307 1308 
3 12034 12035 
2 7709 7710 
3 12035 12036 
2 7708 7709 
2 16960 16961 
2 16961 16962 
3 18074 18075 
3 18073 18074 
3 2371 2372 
3 2372 2373 
1 297 2371 
2 14093 14094 
2 14092 14093 
3 3293 3294 
3 3292 3293 
3 17510 17511 
3 17509 17510 
3 1262 1263 
1 1263 8422 
3 1261 1262 
1 1261 2068 
3 2068 2069 
3 2069 2070 
3 15632 15633 
2 19532 19533 
3 11414 11415 
3 11413 11414 
2 4016 4017 
2 4015 4016 
1 4015 11415 
3 11191 11192 
3 11192 11193 
3 6509 6510 
3 6508 6509 
1 6508 14085 
2 1562 1563 
2 1561 1562 
2 21511 21512 
2 14084 14085 
2 14083 14084 
2 583 584 
2 584 585 
2 18478 18479 
2 18479 18480 
3 18035 18036 
3 18034 18035 
3 10921 10922 
1 10921 18034 
2 21202 21203 
2 21203 21204 
3 13729 13730 
3 13730 13731 
2 9083 9084 
2 9082 9083 
2 17732 17733 
1 4653 17731 
2 17731 17732 
3 4652 4653 
2 16745 16746 
2 16744 16745 
3 4552 4553 
2 21181 21182 
2 13009 13010 
2 13010 13011 
2 13582 13583 
3 12229 12230 
3 12230 12231 
2 13583 13584 
2 7505 7506 
2 7504 7505 
3 13435 13436 
3 13436 13437 
1 7191 10578 
3 10576 10577 
3 10577 10578 
3 14477 14478 
3 14476 14477 
3 14800 14801 
2 4550 4551 
2 4549 4550 
3 11069 11070 
3 11068 11069 
2 7190 7191 
2 7189 7190 
2 1831 1832 
2 1306 1307 
1 1306 18465 
2 15247 15248 
2 15248 15249 
2 13910 13911 
2 13909 13910 
1 13911 15249 
2 12046 12047 
3 2057 2058 
3 2056 2057 
3 15829 15830 
3 15631 15632 
1 9147 19531 
2 19531 19532 
3 9146 9147 
3 9145 9146 
3 15830 15831 
3 11936 11937 
3 11935 11936 
1 11935 15831 
3 17683 17684 
2 10829 10830 
2 10828 10829 
2 10564 10565 
1 10564 10828 
2 10565 10566 
2 2491 2492 
1 2493 10390 
2 2492 2493 
3 10390 10391 
2 21512 21513 
2 4934 4935 
2 4933 4934 
2 7511 7512 
1 7512 10830 
2 11920 11921 
2 11921 11922 
2 6739 6740 
2 6740 6741 
2 2197 2198 
2 2198 2199 
2 9848 9849 
2 9847 9848 
2 11948 11949 
2 11947 11948 
2 9892 9893 
1 9892 10540 
3 10540 10541 
3 10541 10542 
2 9893 9894 
2 13112 13113 
2 13111 13112 
2 772 773 
1 772 13111 
2 773 774 
3 9790 9791 
2 14972 14973 
2 13409 13410 
2 13408 13409 
2 14971 14972 
3 14227 14228 
3 11992 11993 
1 11992 14227 
3 14228 14229 
3 11993 11994 
2 4643 4644 
2 4642 4643 
3 2242 2243 
3 2243 2244 
2 19948 19949 
2 19949 19950 
3 5234 5235 
3 5233 5234 
3 5539 5540 
3 5540 5541 
2 2458 2459 
1 2458 5539 
2 2459 2460 
2 9344 9345 
1 1383 9343 
2 9343 9344 
3 11356 11357 
1 9345 11356 
2 1382 1383 
2 1381 1382 
3 11336 11337 
3 11335 11336 
2 19412 19413 
2 19411 19412 
3 11357 11358 
2 2995 2996 
2 2996 2997 
2 18974 18975 
2 18973 18974 
2 509 510 
2 508 509 
3 15901 15902 
3 15902 15903 
2 21368 21369 
1 17235 21367 
2 21367 21368 
3 14398 14399 
1 14398 21369 
2 17233 17234 
2 17234 17235 
3 14399 14400 
2 17405 17406 
2 17404 17405 
2 10940 10941 
2 10939 10940 
1 10939 19273 
2 6974 6975 
1 870 6975 
2 6973 6974 
3 19157 19158 
2 7024 7025 
1 7024 19158 
2 7025 7026 
3 5303 5304 
3 5302 5303 
3 7061 7062 
3 18097 18098 
3 7060 7061 
1 7060 18097 
3 18098 18099 
2 8384 8385 
2 869 870 
2 868 869 
3 19156 19157 
3 3110 3111 
3 3109 3110 
3 9112 9113 
3 9113 9114 
3 14155 14156 
3 14156 14157 
2 11780 11781 
2 11779 11780 
3 7948 7949 
3 7949 7950 
2 2093 2094 
2 2092 2093 
3 17684 17685 
3 10654 10655 
3 10655 10656 
3 10648 10649 
3 10649 10650 
3 10391 10392 
3 1666 1667 
3 1667 1668 
2 7510 7511 
2 5701 5702 
2 9278 9279 
2 6475 6476 
2 6476 6477 
2 6320 6321 
2 14281 14282 
2 4672 4673 
1 4672 14283 
2 14282 14283 
2 4673 4674 
2 18340 18341 
2 18341 18342 
2 5702 5703 
2 9277 9278 
2 6319 6320 
3 10583 10584 
3 10582 10583 
3 12614 12615 
3 12613 12614 
3 9791 9792 
3 19595 19596 
2 811 812 
3 10016 10017 
3 10015 10016 
2 976 977 
2 977 978 
2 17791 17792 
2 17792 17793 
3 19393 19394 
2 17669 17670 
2 17668 17669 
2 20404 20405 
2 20405 20406 
2 3880 3881 
2 3881 3882 
2 877 878 
2 878 879 
3 12724 12725 
3 6101 6102 
1 6102 12726 
3 6100 6101 
3 12725 12726 
3 8527 8528 
2 413 414 
2 412 413 
3 16393 16394 
3 16394 16395 
2 14519 14520 
3 4810 4811 
1 4810 14518 
2 14518 14519 
3 4811 4812 
3 7735 7736 
1 18639 19275 
2 19273 19274 
2 19274 19275 
3 59 60 
3 58 59 
3 7736 7737 
2 18637 18638 
2 18638 18639 
3 1969 1970 
3 1970 1971 
3 10757 10758 
3 7961 7962 
3 148 149 
1 148 7962 
3 149 150 
3 7960 7961 
3 20804 20805 
3 20803 20804 
3 10733 10734 
3 10732 10733 
3 18614 18615 
3 14761 14762 
3 14762 14763 
2 18821 18822 
2 18820 18821 
3 11981 11982 
3 11980 11981 
1 11980 18820 
2 18559 18560 
2 18560 18561 
3 12727 12728 
3 12728 12729 
3 19594 19595 
1 19594 20068 
3 20068 20069 
3 20069 20070 
2 812 813 
1 813 12981 
3 6812 6813 
3 6811 6812 
1 16098 17850 
3 16097 16098 
3 7928 7929 
3 16096 16097 
1 16096 20070 
3 10718 10719 
3 10717 10718 
3 7927 7928 
1 7927 10717 
3 17849 17850 
3 19346 19347 
3 12980 12981 
3 12979 12980 
1 12979 18930 
2 18929 18930 
3 16321 16322 
2 1940 1941 
2 1939 1940 
3 16322 16323 
3 20231 20232 
2 3614 3615 
2 3613 3614 
3 20230 20231 
2 7373 7374 
2 7372 7373 
1 7372 20094 
2 18928 18929 
2 8426 8427 
2 8425 8426 
3 12122 12123 
3 12121 12122 
2 21538 21539 
2 21539 21540 
2 20093 20094 
2 20092 20093 
2 15136 15137 
1 15136 20092 
2 15137 15138 
3 19280 19281 
3 19279 19280 
3 17245 17246 
3 17246 17247 
3 13549 13550 
1 879 13551 
3 13550 13551 
2 2669 2670 
2 2668 2669 
2 21269 21270 
1 8730 14707 
2 14707 14708 
2 14708 14709 
2 21268 21269 
1 14709 21268 
2 3029 3030 
2 3028 3029 
2 16444 16445 
2 4064 4065 
1 4065 16446 
2 16445 16446 
1 17904 19279 
3 8528 8529 
3 17903 17904 
3 17902 17903 
1 8529 17902 
2 19565 19566 
3 11612 11613 
3 11611 11612 
1 11613 17247 
3 13093 13094 
3 13094 13095 
2 4063 4064 
2 20806 20807 
2 20807 20808 
2 781 782 
1 781 20806 
3 4316 4317 
2 782 783 
2 15346 15347 
3 4315 4316 
2 1259 1260 
2 1258 1259 
3 313 314 
3 314 315 
2 19024 19025 
2 19025 19026 
2 15347 15348 
3 18733 18734 
3 2179 2180 
3 2180 2181 
3 18734 18735 
2 13135 13136 
2 13136 13137 
2 2099 2100 
3 10507 10508 
3 10508 10509 
2 2002 2003 
2 913 914 
3 10550 10551 
3 10549 10550 
3 13802 13803 
3 13801 13802 
3 16072 16073 
3 16073 16074 
2 914 915 
3 3068 3069 
2 14614 14615 
2 14615 14616 
2 18163 18164 
2 16378 16379 
2 16379 16380 
2 18164 18165 
3 1747 1748 
3 1154 1155 
3 1153 1154 
1 1153 6696 
3 19166 19167 
3 19165 19166 
2 12572 12573 
3 21005 21006 
3 21004 21005 
1 16179 21006 
3 1748 1749 
3 14677 14678 
3 14678 14679 
1 9468 20560 
2 20560 20561 
2 9467 9468 
3 14524 14525 
3 14525 14526 
2 15782 15783 
2 15781 15782 
1 15781 20562 
2 20561 20562 
2 19147 19148 
2 19148 19149 
1 1977 20416 
3 20416 20417 
3 11285 11286 
3 11284 11285 
3 20417 20418 
3 11597 11598 
3 11596 11597 
3 21449 21450 
3 1849 1850 
3 1850 1851 
3 16333 16334 
3 16334 16335 
2 17602 17603 
2 17603 17604 
2 2771 2772 
1 2772 19470 
2 2770 2771 
3 13091 13092 
3 13090 13091 
3 14920 14921 
3 14921 14922 
2 19469 19470 
2 19468 19469 
3 1553 1554 
3 1552 1553 
2 4093 4094 
2 4094 4095 
3 19622 19623 
3 19621 19622 
2 5716 5717 
2 5717 5718 
1 81 5718 
3 80 81 
3 79 80 
1 79 7272 
2 7271 7272 
2 7270 7271 
3 17287 17288 
3 17288 17289 
2 20555 20556 
2 20554 20555 
2 2777 2778 
3 1672 1673 
3 1673 1674 
3 21448 21449 
1 6180 7299 
2 2776 2777 
1 2776 17604 
2 6179 6180 
2 6178 6179 
1 6178 6492 
2 6490 6491 
2 6491 6492 
3 13571 13572 
3 13570 13571 
3 13606 13607 
1 10629 12744 
2 12743 12744 
2 12742 12743 
3 10628 10629 
3 10627 10628 
1 5988 10627 
3 5986 5987 
1 5986 18661 
3 5987 5988 
2 18661 18662 
2 18662 18663 
3 13607 13608 
3 160 161 
1 160 13608 
3 161 162 
1 162 18984 
2 18983 18984 
2 5408 5409 
2 5407 5408 
1 5407 21255 
3 21253 21254 
3 21254 21255 
3 14413 14414 
3 14414 14415 
2 6821 6822 
3 7844 7845 
2 16693 16694 
2 16694 16695 
2 11840 11841 
2 11839 11840 
2 11776 11777 
2 11777 11778 
2 7298 7299 
2 7297 7298 
3 17092 17093 
3 17093 17094 
1 17094 17970 
2 14728 14729 
1 14730 19558 
2 14729 14730 
3 21094 21095 
3 21095 21096 
2 17969 17970 
2 17968 17969 
2 8825 8826 
2 18485 18486 
2 18484 18485 
1 8826 18484 
2 8824 8825 
3 19558 19559 
3 19559 19560 
3 16415 16416 
3 16414 16415 
2 14797 14798 
2 14798 14799 
2 10880 10881 
2 10879 10880 
2 4402 4403 
2 4403 4404 
2 6820 6821 
1 6820 18702 
2 18700 18701 
1 13242 18700 
2 18701 18702 
2 15371 15372 
2 985 986 
1 985 4402 
2 986 987 
1 987 15372 
2 12677 12678 
2 18982 18983 
3 7636 7637 
3 7637 7638 
3 10087 10088 
3 10088 10089 
2 15370 15371 
2 20654 20655 
3 21517 21518 
3 21518 21519 
3 10234 10235 
2 16946 16947 
2 16945 16946 
2 4201 4202 
2 4202 4203 
2 236 237 
2 235 236 
1 235 18486 
2 9496 9497 
2 2515 2516 
1 2515 9496 
2 9497 9498 
2 2516 2517 
2 2576 2577 
2 2575 2576 
2 13240 13241 
2 13241 13242 
2 4925 4926 
2 4924 4925 
2 12676 12677 
1 12676 19743 
2 19741 19742 
2 19742 19743 
2 20360 20361 
2 14599 14600 
2 14600 14601 
2 8926 8927 
2 8927 8928 
2 20840 20841 
2 20839 20840 
2 8239 8240 
3 16435 16436 
3 16436 16437 
3 13559 13560 
2 13331 13332 
2 13330 13331 
1 4203 13330 
2 17648 17649 
3 11387 11388 
3 11386 11387 
2 17647 17648 
2 20359 20360 
2 15616 15617 
3 15169 15170 
1 15169 15616 
3 2327 2328 
3 2326 2327 
2 15061 15062 
3 1951 1952 
1 1951 7999 
3 7999 8000 
3 1952 1953 
2 10957 10958 
2 15617 15618 
2 10411 10412 
2 9298 9299 
3 4718 4719 
1 4719 9298 
2 9299 9300 
3 4717 4718 
2 12311 12312 
1 9300 12312 
2 12310 12311 
1 2652 12310 
2 2651 2652 
2 6211 6212 
3 4342 4343 
3 4343 4344 
3 13558 13559 
3 14024 14025 
3 10888 10889 
3 10889 10890 
3 3920 3921 
3 19510 19511 
3 19511 19512 
2 4462 4463 
2 4463 4464 
1 4464 9366 
2 9364 9365 
1 9364 19512 
2 9365 9366 
3 13825 13826 
3 13826 13827 
2 13030 13031 
1 13032 19899 
2 13031 13032 
2 3566 3567 
2 19898 19899 
2 20743 20744 
2 20744 20745 
2 12124 12125 
3 15170 15171 
3 11551 11552 
1 11551 15171 
3 11552 11553 
1 11553 14608 
3 14608 14609 
2 15062 15063 
2 14062 14063 
2 14063 14064 
3 8000 8001 
3 20633 20634 
3 20632 20633 
2 10958 10959 
2 3565 3566 
1 3565 10959 
2 19897 19898 
3 20036 20037 
3 4840 4841 
3 4841 4842 
2 6460 6461 
2 6461 6462 
3 9445 9446 
3 9446 9447 
2 5938 5939 
2 21103 21104 
2 21104 21105 
2 18457 18458 
1 18457 21105 
2 18458 18459 
2 11719 11720 
2 11720 11721 
1 11721 13168 
2 13168 13169 
2 12451 12452 
1 12451 13686 
2 13684 13685 
2 13685 13686 
3 3919 3920 
2 527 528 
2 526 527 
2 13169 13170 
1 13170 20667 
2 20666 20667 
2 20665 20666 
2 12760 12761 
1 12760 20665 
2 12452 12453 
2 5537 5538 
2 5536 5537 
1 5536 20097 
3 15227 15228 
2 682 683 
2 683 684 
3 15226 15227 
1 15226 19285 
3 19285 19286 
3 19286 19287 
2 12125 12126 
3 14609 14610 
3 20035 20036 
3 7129 7130 
1 7129 20035 
3 7130 7131 
2 16976 16977 
2 19427 19428 
2 16975 16976 
1 16975 19428 
2 19426 19427 
2 17737 17738 
1 17737 19426 
2 6983 6984 
2 6982 6983 
2 2590 2591 
2 2591 2592 
2 2606 2607 
2 2605 2606 
2 21148 21149 
3 11161 11162 
3 11162 11163 
2 12761 12762 
2 20096 20097 
2 20095 20096 
3 2360 2361 
3 2359 2360 
1 2359 18736 
3 18736 18737 
3 4592 4593 
3 4591 4592 
3 398 399 
2 11873 11874 
3 397 398 
1 397 11161 
2 11872 11873 
2 15664 15665 
2 18245 18246 
2 18244 18245 
3 11770 11771 
3 11771 11772 
3 14744 14745 
3 14743 14744 
2 7540 7541 
1 7540 14743 
3 6790 6791 
1 6790 15255 
3 15254 15255 
1 6792 7476 
3 6791 6792 
3 15253 15254 
2 10427 10428 
2 10426 10427 
2 7541 7542 
2 1468 1469 
3 7475 7476 
3 7474 7475 
3 6667 6668 
3 6668 6669 
2 1469 1470 
2 4568 4569 
2 4567 4568 
2 21149 21150 
3 6925 6926 
2 2410 2411 
3 10685 10686 
3 13957 13958 
1 13957 18738 
3 18737 18738 
1 2082 11454 
3 10684 10685 
3 2080 2081 
1 2080 10684 
3 2081 2082 
2 15665 15666 
3 11453 11454 
3 15197 15198 
3 15196 15197 
2 9662 9663 
2 9661 9662 
2 17596 17597 
2 17597 17598 
2 10609 10610 
2 10610 10611 
1 9663 10611 
2 1801 1802 
1 1801 15198 
2 1802 1803 
2 17623 17624 
2 14570 14571 
2 14569 14570 
3 17218 17219 
3 17219 17220 
2 9055 9056 
2 11230 11231 
1 14310 15399 
2 14309 14310 
2 14308 14309 
2 15397 15398 
2 15398 15399 
2 9056 9057 
3 17153 17154 
2 1684 1685 
2 1685 1686 
1 1686 11857 
2 11857 11858 
2 11858 11859 
1 11370 12654 
3 11368 11369 
3 11369 11370 
2 6292 6293 
2 6293 6294 
2 409 410 
2 410 411 
2 16886 16887 
2 16885 16886 
2 19231 19232 
2 19232 19233 
3 2732 2733 
3 2731 2732 
3 559 560 
1 561 2731 
3 560 561 
3 11854 11855 
3 11855 11856 
3 7210 7211 
3 7211 7212 
3 2507 2508 
3 2506 2507 
3 9704 9705 
3 9703 9704 
2 11251 11252 
2 8018 8019 
2 8017 8018 
2 13538 13539 
2 6727 6728 
1 6727 13537 
2 13537 13538 
2 6728 6729 
1 11232 15541 
2 15541 15542 
2 15542 15543 
2 14090 14091 
3 18803 18804 
3 18802 18803 
2 14089 14090 
1 14089 18804 
2 11231 11232 
3 9712 9713 
3 9713 9714 
3 19688 19689 
3 21446 21447 
3 21445 21446 
1 19689 21447 
3 17152 17153 
1 17152 19687 
3 19687 19688 
3 3560 3561 
3 3559 3560 
1 9714 18213 
2 17963 17964 
2 17962 17963 
1 5832 10618 
3 5831 5832 
2 10618 10619 
2 10619 10620 
2 6260 6261 
2 6259 6260 
3 12653 12654 
3 12652 12653 
2 12215 12216 
2 12214 12215 
2 17077 17078 
3 8290 8291 
3 8291 8292 
3 5830 5831 
2 18533 18534 
2 18532 18533 
2 17228 17229 
3 19043 19044 
3 19042 19043 
1 19042 19233 