ITEM: TIMESTEP
20000000
ITEM: NUMBER OF ENTRIES
745
ITEM: BOX BOUNDS pp pp pp
0 50
0 50
0 50
ITEM: ENTRIES c_binfo[1] c_binfo[2] c_binfo[3] 
1 13605 14419 
2 14419 14420 
3 13604 13605 
3 13603 13604 
2 334 335 
1 9186 14911 
2 14911 14912 
2 9185 9186 
2 9184 9185 
1 2466 9184 
2 2464 2465 
2 2465 2466 
1 2448 4816 
2 2447 2448 
2 2446 2447 
2 2167 2168 
2 2168 2169 
1 753 21229 
3 21229 21230 
2 752 753 
2 751 752 
1 751 11661 
1 9570 17439 
2 11651 11652 
2 11650 11651 
1 11650 17437 
2 17437 17438 
2 17438 17439 
2 14011 14012 
1 14011 16140 
2 5675 5676 
2 5674 5675 
1 5674 16138 
2 16138 16139 
2 16139 16140 
2 7925 7926 
2 4976 4977 
1 4977 7924 
2 7924 7925 
2 13744 13745 
2 335 336 
2 247 248 
2 17317 17318 
1 13746 17317 
2 248 249 
1 336 1516 
2 1516 1517 
2 13745 13746 
2 1517 1518 
3 19642 19643 
3 1318 1319 
1 1318 19642 
3 1319 1320 
1 1320 21231 
3 21230 21231 
2 20777 20778 
2 20776 20777 
2 14420 14421 
2 17116 17117 
2 4975 4976 
3 19643 19644 
2 14912 14913 
2 20789 20790 
2 20788 20789 
2 11017 11018 
2 11018 11019 
1 16383 20790 
2 11350 11351 
1 11350 14829 
2 18781 18782 
2 18782 18783 
2 8242 8243 
2 11659 11660 
2 11660 11661 
2 14105 14106 
2 9049 9050 
1 9049 14088 
2 9050 9051 
2 8302 8303 
2 3838 3839 
1 3838 8302 
1 9051 13162 
2 13162 13163 
2 13163 13164 
2 3839 3840 
2 14012 14013 
1 3840 14013 
2 12472 12473 
2 17573 17574 
2 12473 12474 
2 17572 17573 
2 14827 14828 
2 4816 4817 
2 4817 4818 
2 14828 14829 
2 17318 17319 
1 192 6364 
2 191 192 
2 190 191 
1 190 17319 
2 6364 6365 
2 15280 15281 
2 15281 15282 
1 15282 17599 
2 17599 17600 
2 17600 17601 
2 8243 8244 
1 8244 15280 
2 9569 9570 
2 5521 5522 
2 4916 4917 
2 14182 14183 
2 14183 14184 
1 4917 14184 
2 6650 6651 
1 7926 17118 
2 6649 6650 
1 6649 14764 
2 14764 14765 
2 14765 14766 
2 17992 17993 
1 1902 17992 
2 1901 1902 
2 17993 17994 
2 16546 16547 
2 16547 16548 
1 16548 17344 
2 17344 17345 
2 7784 7785 
2 7783 7784 
1 7783 17601 
2 17345 17346 
2 9568 9569 
2 5522 5523 
2 1693 1694 
2 17117 17118 
2 1694 1695 
1 1695 5523 
2 10189 10190 
2 1900 1901 
1 1900 10191 
2 10190 10191 
1 10185 10189 
2 21386 21387 
1 8490 21385 
2 21385 21386 
2 8489 8490 
2 8488 8489 
1 8488 17985 
2 166 167 
1 166 7867 
2 7868 7869 
2 7867 7868 
3 3544 3545 
1 3546 9874 
3 3545 3546 
2 4072 4073 
2 4603 4604 
3 9874 9875 
3 9875 9876 
2 4073 4074 
2 14086 14087 
2 3427 3428 
1 3427 9876 
2 1423 1424 
1 1423 12409 
2 12410 12411 
2 12409 12410 
2 1424 1425 
2 14069 14070 
1 3429 12474 
2 11456 11457 
2 11455 11456 
2 3428 3429 
2 14068 14069 
2 6749 6750 
2 11351 11352 
2 16382 16383 
3 14548 14549 
1 14548 16381 
2 16381 16382 
3 14549 14550 
1 14550 18924 
2 18919 18920 
2 18920 18921 
2 5990 5991 
2 14104 14105 
2 14087 14088 
2 5909 5910 
2 4942 4943 
1 4942 5910 
2 8303 8304 
2 5908 5909 
1 1425 5908 
2 5917 5918 
1 5917 15340 
2 15340 15341 
2 15341 15342 
2 5918 5919 
2 6365 6366 
2 4174 4175 
2 17492 17493 
2 8605 8606 
1 8605 15250 
2 17069 17070 
2 15250 15251 
2 8606 8607 
2 17068 17069 
2 9025 9026 
2 9026 9027 
1 912 14212 
2 14212 14213 
2 911 912 
2 14213 14214 
2 910 911 
2 20477 20478 
2 14017 14018 
1 14017 20476 
2 20476 20477 
2 14018 14019 
1 14019 18549 
2 503 504 
2 502 503 
1 502 4915 
2 4915 4916 
2 2260 2261 
2 11519 11520 
2 11518 11519 
2 2261 2262 
1 2262 15342 
2 16765 16766 
2 16766 16767 
1 16767 20631 
2 3133 3134 
2 20630 20631 
2 4175 4176 
2 6020 6021 
2 6019 6020 
1 6021 18676 
2 18676 18677 
2 17491 17492 
2 17999 18000 
2 17998 17999 
1 15252 17998 
2 15251 15252 
2 17008 17009 
1 17008 17491 
2 17009 17010 
2 16822 16823 
1 16822 17010 
2 16823 16824 
2 167 168 
2 6779 6780 
2 19214 19215 
2 19213 19214 
1 3135 12931 
2 12931 12932 
2 3134 3135 
2 12932 12933 
2 15067 15068 
2 15068 15069 
2 12457 12458 
1 12457 18499 
2 18499 18500 
2 18500 18501 
2 12458 12459 
2 17983 17984 
2 17984 17985 
2 13180 13181 
1 13180 16824 
2 13181 13182 
2 10183 10184 
2 10184 10185 
2 10418 10419 
2 20504 20505 
3 18923 18924 
2 19082 19083 
2 19081 19082 
1 5145 19081 
2 5144 5145 
2 5143 5144 
2 2338 2339 
1 2338 5143 
2 2339 2340 
2 4604 4605 
1 4605 14173 
1 4074 5895 
2 14173 14174 
2 14174 14175 
2 5894 5895 
2 5770 5771 
1 5770 5893 
2 5893 5894 
2 1238 1239 
2 20503 20504 
2 6661 6662 
1 6661 20503 
2 1237 1238 
1 1237 6663 
2 6662 6663 
2 13718 13719 
1 9756 11457 
2 9755 9756 
2 6748 6749 
2 992 993 
2 991 992 
1 991 13719 
2 15791 15792 
3 18922 18923 
2 827 828 
2 826 827 
1 826 11950 
2 11950 11951 
2 11951 11952 
2 5989 5990 
1 3552 11952 
2 3551 3552 
2 3550 3551 
1 117 3550 
2 5771 5772 
1 2340 9945 
2 17132 17133 
2 760 761 
1 760 17131 
2 17131 17132 
2 761 762 
1 762 8682 
2 1741 1742 
1 1741 5772 
2 9754 9755 
2 19217 19218 
2 19216 19217 
2 4481 4482 
2 2126 2127 
2 2125 2126 
1 2125 19218 
2 4480 4481 
1 4480 11115 
2 4132 4133 
1 4132 19216 
2 4133 4134 
2 5896 5897 
2 5897 5898 
2 9098 9099 
2 18106 18107 
2 15790 15791 
2 706 707 
1 706 15790 
2 707 708 
2 18641 18642 
2 21320 21321 
1 708 21321 
2 18640 18641 
2 181 182 
1 181 18640 
2 21319 21320 
2 16312 16313 
2 16313 16314 
1 2187 16314 
2 8891 8892 
2 8890 8891 
2 18547 18548 
1 5964 18921 
2 18548 18549 
2 5963 5964 
2 13856 13857 
2 13855 13856 
2 4943 4944 
2 16078 16079 
2 16079 16080 
2 5962 5963 
2 3115 3116 
1 3115 5962 
2 3116 3117 
2 116 117 
2 115 116 
1 115 15052 
2 15052 15053 
2 15053 15054 
1 15054 20310 
2 20309 20310 
2 8681 8682 
2 20308 20309 
2 11114 11115 
2 20629 20630 
2 11113 11114 
2 2935 2936 
1 2935 16080 
2 11212 11213 
1 11212 20308 
2 8680 8681 
1 8680 10932 
2 9097 9098 
1 10644 11113 
2 10643 10644 
2 16834 16835 
1 16834 17643 
2 7930 7931 
2 182 183 
1 183 17641 
2 17642 17643 
2 17641 17642 
2 13712 13713 
2 2185 2186 
1 2185 13713 
2 13711 13712 
2 2186 2187 
2 4999 5000 
1 4999 8890 
2 19711 19712 
2 19712 19713 
2 12833 12834 
2 6778 6779 
1 6778 19711 
2 12832 12833 
1 12832 19713 
1 3117 8925 
2 1676 1677 
2 8924 8925 
2 8923 8924 
2 1675 1676 
1 1675 8923 
2 19655 19656 
2 19654 19655 
1 2937 21400 
2 2936 2937 
2 21401 21402 
2 21400 21401 
2 11213 11214 
2 18677 18678 
2 10642 10643 
1 10642 15379 
2 15379 15380 
2 15380 15381 
1 8046 18678 
2 8044 8045 
1 8044 15787 
2 8045 8046 
2 15787 15788 
2 15788 15789 
2 3212 3213 
2 10139 10140 
2 10138 10139 
2 3211 3212 
1 3211 10138 
2 10202 10203 
2 10201 10202 
2 9119 9120 
2 9118 9119 
2 67 68 
1 67 9118 
2 400 401 
2 4498 4499 
2 401 402 
1 402 4498 
2 10417 10418 
2 12115 12116 
2 12116 12117 
2 9088 9089 
2 5092 5093 
1 1239 14242 
2 14242 14243 
2 14243 14244 
2 1645 1646 
2 1646 1647 
1 1647 17728 
2 17728 17729 
2 2969 2970 
2 9952 9953 
1 9952 13717 
2 13717 13718 
2 2968 2969 
2 9089 9090 
2 3001 3002 
2 3002 3003 
2 3802 3803 
2 5093 5094 
1 5094 13303 
2 13303 13304 
2 3803 3804 
1 1959 3804 
2 1958 1959 
2 13360 13361 
1 13360 14244 
2 9944 9945 
2 13361 13362 
1 13362 16911 
2 9943 9944 
2 5329 5330 
1 5329 9943 
2 5330 5331 
2 12271 12272 
2 20567 20568 
2 20566 20567 
2 12272 12273 
2 17729 17730 
2 1742 1743 
1 17730 20568 
1 1743 17041 
2 17041 17042 
2 17042 17043 
1 17043 20104 
2 20104 20105 
1 9954 21573 
2 9953 9954 
1 5808 5898 
2 5807 5808 
2 5806 5807 
1 5806 7059 
3 15746 15747 
2 18107 18108 
2 14461 14462 
1 14461 18108 
2 18769 18770 
2 16474 16475 
2 1018 1019 
1 1018 3003 
2 1019 1020 
2 1957 1958 
1 1957 19122 
2 19121 19122 
2 16475 16476 
2 3934 3935 
1 3934 5331 
2 19120 19121 
1 17073 19120 
2 3935 3936 
2 17072 17073 
1 3936 10579 
1 795 12273 
2 793 794 
2 794 795 
2 10579 10580 
2 20105 20106 
2 10580 10581 
2 10931 10932 
2 10930 10931 
1 10930 17040 
2 17039 17040 
2 17038 17039 
1 17038 18565 
2 18565 18566 
2 7073 7074 
2 19265 19266 
1 7932 19266 
2 7931 7932 
2 19264 19265 
1 19170 19264 
2 14462 14463 
2 11092 11093 
1 11092 19624 
2 19624 19625 
2 19625 19626 
2 19169 19170 
2 11093 11094 
2 5000 5001 
2 5552 5553 
2 5551 5552 
1 5551 13126 
2 13126 13127 
2 18770 18771 
2 20020 20021 
2 20021 20022 
1 16476 16627 
2 16627 16628 
2 16628 16629 
1 16629 19656 
1 6177 6273 
2 17071 17072 
2 322 323 
1 322 17071 
2 6272 6273 
2 6271 6272 
1 6271 20067 
2 323 324 
1 324 5857 
2 5857 5858 
2 20066 20067 
1 10581 10663 
1 11214 21039 
2 5858 5859 
1 5859 9120 
2 10663 10664 
2 10664 10665 
2 16835 16836 
2 21038 21039 
2 5173 5174 
1 5173 16836 
2 21037 21038 
2 18566 18567 
2 5174 5175 
1 15789 16464 
2 7244 7245 
1 7245 7941 
2 7243 7244 
1 3213 7243 
2 16463 16464 
2 13127 13128 
2 16462 16463 
2 11690 11691 
2 11689 11690 
1 10791 19297 
2 19297 19298 
2 10790 10791 
2 10789 10790 
2 20065 20066 
2 12002 12003 
1 12003 12534 
2 12533 12534 
2 68 69 
1 69 2193 
2 12001 12002 
1 12001 12117 
2 12532 12533 
2 4499 4500 
3 2192 2193 
3 2191 2192 
3 12470 12471 
2 5080 5081 
1 5082 17616 
2 5081 5082 
2 17615 17616 
2 13304 13305 
1 13305 13506 
2 13505 13506 
2 16910 16911 
2 16909 16910 
2 21572 21573 
2 21571 21572 
2 12814 12815 
1 12814 21571 
2 12815 12816 
2 7058 7059 
2 7057 7058 
1 7057 17934 
2 17933 17934 
2 17932 17933 
3 15745 15746 
2 5773 5774 
2 5774 5775 
1 5775 16474 
1 11928 14784 
2 17614 17615 
2 13504 13505 
1 13504 16771 
2 16771 16772 
2 11927 11928 
2 11926 11927 
1 11926 16876 
2 16876 16877 
2 16877 16878 
2 6175 6176 
1 6175 16878 
2 16579 16580 
2 16772 16773 
2 4723 4724 
1 4723 15442 
2 15442 15443 
2 4724 4725 
2 15443 15444 
2 7072 7073 
2 6034 6035 
1 2400 6034 
2 6035 6036 
2 2399 2400 
1 7557 20106 
2 7556 7557 
2 7555 7556 
1 7555 16780 
2 16780 16781 
2 16781 16782 
1 1665 16782 
1 11094 13879 
2 13879 13880 
2 19168 19169 
2 13880 13881 
2 1339 1340 
2 1340 1341 
2 6176 6177 
1 10665 11091 
2 11090 11091 
2 11089 11090 
2 3731 3732 
2 3730 3731 
1 10659 18567 
2 10658 10659 
2 10657 10658 
2 1664 1665 
2 7940 7941 
2 9218 9219 
2 7939 7940 
1 7939 8097 
1 10974 13128 
2 8095 8096 
2 7204 7205 
1 7204 8095 
2 8096 8097 
2 10973 10974 
2 10972 10973 
1 10972 16906 
2 16906 16907 
2 16907 16908 
2 19298 19299 
2 16307 16308 
2 16306 16307 
1 16306 18306 
3 12469 12470 
1 12469 18304 
3 18304 18305 
3 18305 18306 
3 4873 4874 
3 4874 4875 
3 16136 16137 
3 16135 16136 
2 14782 14783 
1 14782 16135 
2 14783 14784 
2 16580 16581 
2 9650 9651 
2 7388 7389 
1 7389 9649 
2 9649 9650 
2 2398 2399 
2 227 228 
2 226 227 
2 19903 19904 
2 7387 7388 
1 7387 19905 
2 19904 19905 
2 1663 1664 
2 9328 9329 
2 9329 9330 
2 9217 9218 
2 18953 18954 
2 12526 12527 
1 12526 18954 
2 12527 12528 
2 7205 7206 
3 5308 5309 
1 5308 11314 
3 11314 11315 
3 5309 5310 
2 18952 18953 
1 5310 18952 
3 11315 11316 
