ITEM: TIMESTEP
20000000
ITEM: NUMBER OF ENTRIES
935
ITEM: BOX BOUNDS pp pp pp
0 50
0 50
0 50
ITEM: ENTRIES c_binfo[1] c_binfo[2] c_binfo[3] 
2 4769 4770 
2 4768 4769 
1 4768 10975 
3 10976 10977 
3 10975 10976 
3 1792 1793 
1 1792 14022 
3 14960 14961 
1 1794 14959 
3 14959 14960 
3 1793 1794 
3 3430 3431 
1 3430 14961 
3 14021 14022 
3 14020 14021 
2 4219 4220 
1 4219 11365 
2 4220 4221 
2 11366 11367 
2 11365 11366 
3 19103 19104 
3 19102 19103 
3 13984 13985 
1 13984 19104 
3 17686 17687 
3 17687 17688 
3 18709 18710 
3 11569 11570 
1 11569 18709 
3 12998 12999 
2 18958 18959 
2 18959 18960 
3 3658 3659 
1 3658 11095 
3 3659 3660 
3 11096 11097 
3 11095 11096 
1 4221 13333 
3 13333 13334 
3 13334 13335 
1 9930 13335 
3 9929 9930 
3 2252 2253 
3 2251 2252 
1 2251 13830 
3 18896 18897 
3 9635 9636 
3 9634 9635 
1 9634 19735 
3 19735 19736 
3 19736 19737 
3 15898 15899 
3 18895 18896 
3 10912 10913 
1 10912 18895 
1 10914 17127 
3 10913 10914 
1 9636 13425 
3 13424 13425 
3 16193 16194 
3 8476 8477 
3 8477 8478 
3 2672 2673 
3 16192 16193 
3 2671 2672 
1 2671 16192 
3 18182 18183 
3 6241 6242 
3 13985 13986 
3 14575 14576 
3 6242 6243 
3 18181 18182 
1 13986 18181 
3 2200 2201 
3 2201 2202 
1 2202 14905 
3 14905 14906 
1 6243 8343 
3 13829 13830 
3 6139 6140 
3 13828 13829 
3 6140 6141 
3 11602 11603 
1 11602 18711 
3 18710 18711 
3 11603 11604 
1 11604 13461 
1 4782 20883 
3 4780 4781 
3 4781 4782 
3 8959 8960 
1 8959 19540 
1 7482 11121 
3 11120 11121 
3 8960 8961 
3 11119 11120 
1 11119 19854 
3 19540 19541 
3 12997 12998 
1 12997 14577 
3 2195 2196 
3 2194 2195 
3 4388 4389 
3 14576 14577 
3 6143 6144 
3 4387 4388 
1 4387 8883 
3 5647 5648 
3 5648 5649 
1 5649 14185 
3 14185 14186 
3 838 839 
1 838 5647 
3 14906 14907 
3 14186 14187 
2 5669 5670 
3 1421 1422 
3 17587 17588 
2 6640 6641 
1 6640 17587 
3 17588 17589 
3 9928 9929 
1 9928 17002 
3 6613 6614 
1 6613 17004 
3 17002 17003 
3 17003 17004 
3 1420 1421 
1 1420 19341 
3 13423 13424 
3 9793 9794 
1 9793 13423 
3 19340 19341 
3 19339 19340 
3 9794 9795 
2 6641 6642 
3 5959 5960 
1 5959 9795 
3 5960 5961 
3 8342 8343 
3 8341 8342 
3 11555 11556 
3 11554 11555 
1 11554 17125 
3 17125 17126 
1 11556 12345 
3 15899 15900 
3 17126 17127 
1 4002 15900 
3 4001 4002 
3 4000 4001 
1 4000 15751 
3 11609 11610 
3 20881 20882 
1 11610 20881 
1 8478 13531 
3 13531 13532 
3 13532 13533 
3 13660 13661 
1 2673 13660 
3 8146 8147 
1 8146 13533 
3 8147 8148 
3 11959 11960 
1 11959 13543 
3 13661 13662 
3 12862 12863 
1 12862 13662 
3 13543 13544 
3 3826 3827 
1 3826 7302 
3 3827 3828 
2 8539 8540 
1 8539 13828 
2 8540 8541 
1 8541 19176 
3 19175 19176 
3 8968 8969 
3 8969 8970 
3 3112 3113 
3 3113 3114 
3 12217 12218 
1 2958 3114 
3 13459 13460 
3 13460 13461 
3 7178 7179 
3 7177 7178 
1 7177 16731 
3 20882 20883 
3 1148 1149 
3 1147 1148 
1 1147 3750 
3 9380 9381 
3 7480 7481 
1 7480 9379 
3 9379 9380 
3 19541 19542 
1 7179 19542 
3 11960 11961 
3 6142 6143 
1 6142 11961 
3 7481 7482 
3 19775 19776 
1 3420 19776 
3 19774 19775 
1 4389 19774 
3 3185 3186 
3 8830 8831 
3 1729 1730 
1 1729 8830 
1 8832 14187 
3 8831 8832 
3 206 207 
3 3184 3185 
1 207 14392 
3 205 206 
1 205 3184 
3 14392 14393 
1 16038 16950 
3 16949 16950 
3 6121 6122 
1 6121 14907 
3 6122 6123 
3 19174 19175 
1 11154 19174 
1 6123 14401 
3 14401 14402 
3 11153 11154 
3 14402 14403 
3 11152 11153 
3 12218 12219 
2 6224 6225 
2 6223 6224 
1 1422 6223 
3 18062 18063 
3 18061 18062 
2 5668 5669 
3 6614 6615 
3 19634 19635 
3 19633 19634 
1 13062 19635 
3 13061 13062 
1 6642 13060 
3 13060 13061 
3 2206 2207 
3 20041 20042 
1 5961 11044 
3 11044 11045 
3 11045 11046 
1 1236 11046 
3 1235 1236 
3 1234 1235 
3 12344 12345 
3 12343 12344 
3 15751 15752 
3 11608 11609 
1 11608 16653 
3 12839 12840 
3 12838 12839 
1 12838 15753 
3 16652 16653 
3 16651 16652 
1 15525 16651 
3 15752 15753 
3 15524 15525 
3 13103 13104 
3 3748 3749 
1 3748 13104 
3 1600 1601 
1 1600 2337 
1 2208 8148 
3 2207 2208 
3 13544 13545 
3 14738 14739 
1 13545 14739 
3 14737 14738 
3 12863 12864 
3 7301 7302 
1 10335 12864 
3 10334 10335 
3 10333 10334 
3 10279 10280 
3 10280 10281 
3 7300 7301 
1 7300 10279 
3 19151 19152 
1 2709 10281 
3 17128 17129 
1 7344 17128 
3 17129 17130 
3 18697 18698 
1 18697 19152 
3 1633 1634 
1 1633 8968 
3 1634 1635 
3 7801 7802 
3 7802 7803 
1 7803 21451 
3 21451 21452 
3 21452 21453 
3 5572 5573 
1 5572 8601 
3 16730 16731 
3 16729 16730 
1 16729 18037 
3 18037 18038 
3 18038 18039 
1 17304 18039 
3 5573 5574 
3 3749 3750 
1 6600 15229 
3 15229 15230 
3 15230 15231 
3 1186 1187 
1 1186 15231 
3 2797 2798 
1 2797 9381 
3 1601 1602 
1 1602 2799 
3 2798 2799 
3 8903 8904 
3 6856 6857 
1 6856 8904 
3 3418 3419 
1 3418 15709 
3 15709 15710 
3 3419 3420 
3 15710 15711 
3 13231 13232 
1 13231 15711 
3 6857 6858 
3 5392 5393 
1 5392 14544 
1 1731 19150 
3 1730 1731 
3 19150 19151 
3 14393 14394 
3 16037 16038 
3 4180 4181 
1 4180 16036 
3 4181 4182 
3 16036 16037 
1 4182 19419 
1 14394 17130 
1 7248 17571 
3 3440 3441 
3 11758 11759 
3 17569 17570 
3 17570 17571 
1 3441 17569 
1 6582 11152 
3 11759 11760 
3 7543 7544 
1 7543 11760 
3 6581 6582 
3 6580 6581 
3 2957 2958 
3 2956 2957 
1 2956 4414 
3 7544 7545 
3 4414 4415 
3 4415 4416 
3 11894 11895 
3 11893 11894 
3 15535 15536 
3 15536 15537 
3 10007 10008 
1 10008 12439 
3 12439 12440 
3 12440 12441 
3 20042 20043 
3 6028 6029 
1 6028 20043 
3 6029 6030 
1 3972 6030 
3 2842 2843 
1 2842 5037 
1 15537 19390 
3 5036 5037 
3 19390 19391 
3 19391 19392 
3 2708 2709 
3 20032 20033 
3 2707 2708 
1 2707 20032 
3 20033 20034 
3 17303 17304 
3 18461 18462 
3 18460 18461 
3 17302 17303 
3 13102 13103 
3 15523 15524 
1 9801 13102 
1 12441 15523 
3 9799 9800 
3 9800 9801 
1 3990 9799 
3 2335 2336 
1 2335 9226 
3 2336 2337 
3 9226 9227 
3 9227 9228 
3 3989 3990 
3 7039 7040 
1 7039 9280 
3 10487 10488 
1 13464 14737 
3 13463 13464 
3 10486 10487 
1 10486 13462 
3 13462 13463 
3 15320 15321 
3 15319 15320 
1 15319 16236 
1 2844 10333 
3 2843 2844 
3 6784 6785 
1 6784 18699 
3 18698 18699 
3 7343 7344 
3 6785 6786 
1 6063 16153 
3 7342 7343 
3 6061 6062 
1 6061 7342 
3 6062 6063 
1 11526 13993 
1 6786 12105 
3 8600 8601 
3 8599 8600 
3 21413 21414 
3 21412 21413 
3 16267 16268 
1 16267 21412 
3 16268 16269 
3 20980 20981 
1 16269 20980 
3 3539 3540 
1 3540 18258 
3 18257 18258 
3 3538 3539 
1 3538 10977 
3 9280 9281 
3 9281 9282 
3 1187 1188 
1 1188 9282 
3 11462 11463 
3 11461 11462 
3 20557 20558 
1 13233 15321 
3 13232 13233 
3 3215 3216 
3 3214 3215 
1 3214 6858 
1 3216 14146 
3 14146 14147 
3 14543 14544 
3 14542 14543 
3 3598 3599 
1 3598 14542 
3 3599 3600 
1 1233 17512 
3 17512 17513 
3 13993 13994 
3 19418 19419 
3 13994 13995 
3 19417 19418 
1 13995 19417 
3 17513 17514 
3 14621 14622 
3 14620 14621 
3 7247 7248 
3 7246 7247 
1 7246 14622 
3 20378 20379 
3 20377 20378 
3 10006 10007 
3 9437 9438 
3 3971 3972 
3 17455 17456 
3 3970 3971 
1 3970 17457 
3 17456 17457 
3 16055 16056 
3 16054 16055 
1 10488 16056 
3 5035 5036 
3 10022 10023 
3 10021 10022 
1 2808 10021 
3 2807 2808 
3 731 732 
3 730 731 
3 3988 3989 
3 7040 7041 
3 7088 7089 
3 9019 9020 
1 9019 9438 
1 7041 7089 
3 9020 9021 
1 9021 9228 
3 6797 6798 
3 6796 6797 
3 7087 7088 
3 16235 16236 
3 16234 16235 
1 10971 16234 
3 10970 10971 
3 10969 10970 
1 10969 14190 
3 12103 12104 
3 12104 12105 
3 16154 16155 
3 16153 16154 
3 11524 11525 
3 11525 11526 
3 118 119 
1 732 16155 
3 119 120 
3 20981 20982 
3 12905 12906 
3 12904 12905 
3 5269 5270 
1 5269 12904 
3 5270 5271 
3 17192 17193 
3 8533 8534 
3 6136 6137 
1 6136 8533 
3 8534 8535 
3 6137 6138 
1 6798 14148 
3 14147 14148 
3 3382 3383 
3 3383 3384 
1 3384 3600 
3 9131 9132 
1 9132 20559 
3 20558 20559 
3 802 803 
1 802 3382 
3 803 804 
1 3375 17514 
3 9248 9249 
3 3373 3374 
1 3373 9249 
3 3374 3375 
3 9247 9248 
1 8994 9247 
3 2101 2102 
1 2101 6805 
3 6805 6806 
3 2102 2103 
2 5582 5583 
2 5581 5582 
1 5581 19971 
2 19970 19971 
3 9436 9437 
1 5583 17455 
3 17308 17309 
3 17309 17310 
3 700 701 
3 16018 16019 
3 16019 16020 
3 21079 21080 
3 21080 21081 
3 20675 20676 
1 702 14188 
3 14188 14189 
3 14189 14190 
3 701 702 
3 2806 2807 
1 2806 19992 
3 19991 19992 
3 19990 19991 
3 8993 8994 
3 8992 8993 
1 120 463 
3 463 464 
3 464 465 
1 19839 21079 
3 19838 19839 
3 19837 19838 
1 17193 17341 
3 17342 17343 
3 17341 17342 
3 6494 6495 
3 20674 20675 
3 11788 11789 
1 11788 20674 
3 11789 11790 
3 9130 9131 
3 6493 6494 
3 3274 3275 
3 6806 6807 
2 19969 19970 
3 11570 11571 
3 19852 19853 
3 19853 19854 
3 21235 21236 
3 21236 21237 
3 12566 12567 
3 21403 21404 
3 21404 21405 
3 10504 10505 
3 10505 10506 
3 17702 17703 
3 17701 17702 
1 3939 17703 
3 14357 14358 
3 14356 14357 
1 14356 18496 
3 18496 18497 
3 18497 18498 
3 8881 8882 
1 8881 21237 
3 8882 8883 
3 12565 12566 
3 11065 11066 
1 11065 12565 
3 11066 11067 
1 177 11067 
3 176 177 
3 2678 2679 
3 2677 2678 
1 2679 3186 
3 839 840 
3 9314 9315 
3 14482 14483 
3 9313 9314 
1 9313 14482 
3 20140 20141 
3 13214 13215 
1 13215 20140 
3 13213 13214 
3 14465 14466 
1 14466 14532 
3 14464 14465 
3 4148 4149 
3 199 200 
3 4147 4148 
1 4147 17557 
2 10399 10400 
2 10400 10401 
3 200 201 
3 17557 17558 
3 17558 17559 
1 14877 17559 
3 11512 11513 
3 14483 14484 
2 1163 1164 
3 10651 10652 
1 1164 10651 
2 1162 1163 
3 5599 5600 
1 5599 14530 
3 5600 5601 
3 8371 8372 
3 8372 8373 
1 5601 8373 
3 14531 14532 
3 14530 14531 
3 3938 3939 
3 3937 3938 
1 3937 5805 
3 7693 7694 
1 7693 15288 
3 5804 5805 
3 5803 5804 
1 5803 6598 
3 6598 6599 
3 13675 13676 
1 13675 18498 
3 13676 13677 
3 7675 7676 
1 7675 9126 
3 2740 2741 
3 13021 13022 
1 13021 13677 
3 7676 7677 
3 2741 2742 
3 175 176 
1 2742 17104 
3 17104 17105 
3 13022 13023 
3 14876 14877 
3 16997 16998 
3 16996 16997 
3 14857 14858 
1 14857 16996 
3 10298 10299 
3 12629 12630 
3 10297 10298 
3 14875 14876 
3 16948 16949 
3 8911 8912 
1 8911 9315 
3 20141 20142 
1 7368 20142 
3 7367 7368 
1 8913 12628 
3 8912 8913 
3 12628 12629 
3 7366 7367 
3 3439 3440 
1 3439 10297 
3 10198 10199 
3 10199 10200 
3 7694 7695 
1 201 7677 
3 809 810 
3 808 809 
1 810 21579 
3 16538 16539 
1 11514 16539 
3 16537 16538 
3 11513 11514 
3 10652 10653 
3 1934 1935 
3 18437 18438 
3 18436 18437 
3 4444 4445 
1 4444 18438 
3 1933 1934 
1 1933 18436 
3 4445 4446 
3 3742 3743 
1 3742 21366 
3 21365 21366 
3 21364 21365 
3 9556 9557 
1 9556 21364 
3 9557 9558 
3 5936 5937 
3 5935 5936 
3 3743 3744 
3 7382 7383 
3 14770 14771 
3 7381 7382 
1 7381 14770 
3 14771 14772 
1 14772 21414 
3 15287 15288 
3 5299 5300 
1 5299 9105 
3 21548 21549 
3 15286 15287 
1 15286 21547 
3 21547 21548 
3 6037 6038 
1 6037 21549 
3 6599 6600 
3 9125 9126 
3 15125 15126 
3 9124 9125 
1 9124 15126 
3 15124 15125 
3 2950 2951 
1 2950 15124 
3 17105 17106 
3 5393 5394 
1 5394 17106 
3 8902 8903 
1 8902 13023 
3 1231 1232 
1 1231 14451 
3 14858 14859 
1 141 7339 
3 7339 7340 
3 7340 7341 
3 14449 14450 
1 14449 14859 
3 14450 14451 
1 7341 13767 
3 13313 13314 
3 13312 13313 
1 13312 13357 
3 8311 8312 
1 8311 21129 
3 8312 8313 
3 5300 5301 
3 21425 21426 
1 21426 21577 
3 21578 21579 
3 21577 21578 
3 4990 4991 
3 4991 4992 
3 13765 13766 
1 13765 16537 
3 13766 13767 
3 6209 6210 
3 13357 13358 
3 6208 6209 
1 12480 21127 
3 21128 21129 
3 21127 21128 
3 12479 12480 
3 12478 12479 
3 20089 20090 
3 20090 20091 
3 21431 21432 
3 21430 21431 
3 13700 13701 
3 13699 13700 
1 13699 20815 
3 20815 20816 
3 20816 20817 
3 10195 10196 
1 10195 13701 
3 5288 5289 
3 9103 9104 
3 5287 5288 
1 5287 9103 
1 4011 5289 
3 3431 3432 
3 11473 11474 
3 11474 11475 
3 18256 18257 
1 7650 21424 
3 6038 6039 
3 7649 7650 
3 9104 9105 
3 7648 7649 
1 7648 9667 
3 9667 9668 
1 9669 17251 
3 9668 9669 
1 6039 11463 
3 2951 2952 
1 9660 15070 
3 15070 15071 
3 9659 9660 
3 679 680 
1 679 11673 
3 2107 2108 
1 2107 2952 
3 2108 2109 
1 2109 20557 
3 11672 11673 
3 140 141 
3 139 140 
1 139 11671 
3 11671 11672 
3 5749 5750 
1 5751 12270 
3 5750 5751 
3 1232 1233 
3 1808 1809 
3 1807 1808 
1 1807 10213 
3 10213 10214 
3 10214 10215 
1 10215 11392 
3 11392 11393 
3 4 5 
1 4 13624 
3 21424 21425 
3 712 713 
3 9658 9659 
1 4992 9658 
3 17321 17322 
3 20468 20469 
1 4101 17322 
3 4099 4100 
1 4099 6208 
3 4100 4101 
3 13358 13359 
3 11393 11394 
3 6485 6486 
3 6484 6485 
1 6484 13359 
3 5 6 
2 8569 8570 
2 8570 8571 
3 10196 10197 
3 11704 11705 
1 8571 10197 
3 11705 11706 
3 3890 3891 
3 3889 3890 
3 4010 4011 
3 4009 4010 
1 4009 12906 
3 17251 17252 
3 17252 17253 
3 17191 17192 
1 17191 17253 
3 15071 15072 
3 3931 3932 
1 3931 11739 
1 3933 15072 
3 3932 3933 
3 17320 17321 
3 680 681 
1 681 5313 
3 5312 5313 
3 12269 12270 
3 12268 12269 
1 3276 12268 
3 3275 3276 
2 6929 6930 
1 6930 18742 
2 18446 18447 
3 13624 13625 
3 13625 13626 
3 713 714 
3 20467 20468 
2 6928 6929 
1 6928 18445 
2 18445 18446 
2 1207 1208 
2 7994 7995 
3 11737 11738 
3 11738 11739 
3 5311 5312 
1 5311 6495 
2 18742 18743 
2 18743 18744 
2 1208 1209 
2 7354 7355 
1 1209 7354 
2 7355 7356 
1 7356 19228 
2 19228 19229 
3 13696 13697 
1 1725 13698 
2 1723 1724 
1 1723 7993 
2 7993 7994 
3 13697 13698 
2 1724 1725 
2 19229 19230 
2 5930 5931 
2 5929 5930 
1 5929 19230 
