ITEM: TIMESTEP
20000000
ITEM: NUMBER OF ENTRIES
196
ITEM: BOX BOUNDS pp pp pp
0 50
0 50
0 50
ITEM: ENTRIES c_binfo[1] c_binfo[2] c_binfo[3] 
2 8213 8214 
2 8212 8213 
1 8212 15193 
2 15193 15194 
2 15194 15195 
2 2047 2048 
1 2047 15195 
2 19171 19172 
2 13234 13235 
2 12146 12147 
2 19172 19173 
2 13235 13236 
2 3251 3252 
2 3250 3251 
1 3250 14268 
2 14267 14268 
1 3252 19173 
2 6430 6431 
1 6430 13236 
2 6431 6432 
2 5189 5190 
2 5188 5189 
2 19492 19493 
2 14266 14267 
2 7594 7595 
1 7594 14266 
2 7595 7596 
1 3708 7596 
2 3707 3708 
2 3706 3707 
1 3706 15636 
2 14618 14619 
2 14617 14618 
2 2048 2049 
2 9319 9320 
1 2049 9319 
2 9320 9321 
1 4449 9321 
2 5618 5619 
2 5617 5618 
2 15275 15276 
2 6892 6893 
2 6893 6894 
1 6894 15274 
2 15274 15275 
3 14825 14826 
3 18617 18618 
3 18616 18617 
2 12145 12146 
1 12145 18616 
2 9521 9522 
3 14824 14825 
1 14824 18618 
2 14375 14376 
2 14374 14375 
2 9520 9521 
1 9520 14374 
2 9071 9072 
2 17036 17037 
2 17035 17036 
2 6854 6855 
1 6855 17035 
2 19097 19098 
2 3575 3576 
1 6432 16815 
2 19096 19097 
2 3574 3575 
1 3574 15276 
2 1775 1776 
2 2768 2769 
2 6538 6539 
1 2769 6538 
2 2767 2768 
1 2767 12166 
2 12166 12167 
2 10229 10230 
2 10228 10229 
1 10228 18834 
2 6539 6540 
2 19738 19739 
2 904 905 
2 905 906 
2 9596 9597 
2 7804 7805 
1 7804 9597 
1 906 10902 
2 9730 9731 
2 7805 7806 
2 16814 16815 
2 19493 19494 
2 16813 16814 
2 11227 11228 
1 11227 16813 
2 11228 11229 
2 7612 7613 
1 7612 11229 
2 12167 12168 
2 18832 18833 
1 18832 20217 
2 18833 18834 
2 20216 20217 
2 940 941 
1 940 20215 
2 20215 20216 
2 14387 14388 
2 14386 14387 
2 9595 9596 
2 9731 9732 
2 941 942 
1 942 9702 
2 9701 9702 
2 9700 9701 
1 9700 14619 
2 4448 4449 
2 4447 4448 
1 4447 8445 
2 8444 8445 
2 8443 8444 
2 6053 6054 
1 2934 19671 
2 2933 2934 
2 6052 6053 
2 2932 2933 
2 9070 9071 
1 9070 13458 
2 13457 13458 
2 13456 13457 
1 4983 13456 
2 4982 4983 
2 19670 19671 
2 1774 1775 
1 1774 19669 
2 9560 9561 
1 9561 15087 
2 19669 19670 
2 15086 15087 
2 15085 15086 
2 7315 7316 
1 7315 15085 
2 4981 4982 
2 18161 18162 
2 19739 19740 
2 7316 7317 
1 18162 19740 
2 14222 14223 
2 6853 6854 
2 7876 7877 
1 7876 14223 
2 10901 10902 
2 10918 10919 
2 7877 7878 
1 7878 10918 
2 10919 10920 
2 10900 10901 
1 10900 20311 
2 20311 20312 
2 20312 20313 
2 7613 7614 
2 9559 9560 
1 9559 10920 
2 14491 14492 
1 7614 17158 
2 17158 17159 
2 14492 14493 
2 17159 17160 
1 8967 14388 
1 14493 15708 
2 18160 18161 
2 8966 8967 
1 5205 8965 
2 8965 8966 
2 19108 19109 
2 15707 15708 
2 15706 15707 
1 15706 19108 
2 19255 19256 
2 7514 7515 
2 7513 7514 
2 4663 4664 
1 4663 5203 
2 4664 4665 
2 5203 5204 
2 19256 19257 
2 5204 5205 
3 18601 18602 
3 18602 18603 
2 14221 14222 
2 19109 19110 
3 6563 6564 
1 1287 19255 
2 1286 1287 
2 1285 1286 
1 1285 6564 
3 6562 6563 
2 15634 15635 
2 15635 15636 
