ITEM: TIMESTEP
20000000
ITEM: NUMBER OF ATOMS
15828
ITEM: BOX BOUNDS pp pp pp
0.0000000000000000e+00 5.0000000000000000e+01
0.0000000000000000e+00 5.0000000000000000e+01
0.0000000000000000e+00 5.0000000000000000e+01
ITEM: ATOMS id type vx vy vz 
11505 1 0.0335076 -3.47421 -3.20258 
11504 3 -0.175983 0.85916 -3.1291 
11503 1 -0.149304 6.98667 -1.06712 
7917 1 -6.87307 3.61382 -5.73996 
15021 1 -3.72318 1.2117 3.2536 
7916 2 0.282296 2.7324 -0.120698 
7915 1 2.65174 -4.56566 1.51397 
6419 3 -3.29439 -1.06118 -0.917879 
6418 1 -0.0910816 -5.23667 -0.702319 
12948 1 1.40657 -1.32777 4.15049 
15019 1 -0.466332 5.46055 2.47032 
15020 2 -0.730277 0.461958 -0.460407 
6420 1 5.39286 3.01282 -8.0675 
20791 1 -3.68252 -4.42855 0.119536 
12947 3 -4.6269 0.816362 -3.66106 
2817 1 -2.92056 -3.38504 -3.62331 
2816 3 -0.419627 -0.34583 1.52596 
12946 1 1.42345 -0.511117 -2.44676 
2815 1 2.69622 2.87414 8.55589 
20792 2 0.379519 -1.18021 1.48852 
20793 1 -2.78163 5.19473 5.39031 
6333 1 5.51625 -3.66926 0.810193 
12960 1 0.0930893 -2.17436 -0.236865 
12959 3 -2.4585 -3.90976 5.69515 
12958 1 -3.80622 2.18542 -1.70272 
20709 1 -1.28184 7.45545 -2.86404 
20708 3 0.213757 -1.55195 -1.06411 
20707 1 6.33649 -2.32991 -0.376416 
15472 1 -0.897682 0.819639 1.8395 
10080 1 -0.310828 -2.57405 -2.01896 
21185 2 1.96184 3.58025 1.02333 
21184 1 -2.02003 6.0759 6.68779 
21186 1 -1.35874 -1.46524 1.51027 
10079 2 3.91861 1.44924 -1.06989 
10078 1 -2.23975 -8.46996 -4.10233 
10729 1 2.13456 -1.74481 0.0580418 
10730 3 6.98513 -0.724859 1.40388 
10731 1 -2.31933 2.98979 6.59723 
10769 3 4.51589 -2.18113 -1.29107 
10770 1 -7.16397 -0.830571 -1.30851 
20178 1 2.15068 -4.69774 -0.98684 
20177 2 -3.31056 0.607788 -4.46403 
15474 1 1.44926 2.57253 2.42982 
15473 2 -1.97949 -0.472109 -3.80174 
16943 2 3.6059 -2.30227 4.29285 
16942 1 9.70366 4.96769 6.70947 
8622 1 2.10394 -3.63837 -4.37694 
8620 1 -0.321918 4.97696 -4.64922 
8621 3 0.353009 0.990865 0.989201 
10768 1 -7.322 1.59739 2.87153 
2270 3 1.65652 2.24506 -1.27922 
2271 1 -0.506992 -3.53324 -0.96087 
11495 2 -1.78734 2.4304 -4.37367 
11496 1 -0.43014 6.29366 -1.37786 
11494 1 -2.50307 -2.30334 0.323904 
8708 3 -0.744108 0.944775 0.256462 
8709 1 1.2606 2.47308 0.514408 
21410 3 5.0206 3.81789 -2.14763 
21409 1 2.35237 -0.59737 -1.84082 
2269 1 3.96013 -2.80438 5.38255 
21411 1 -8.90678 -3.21829 -3.84442 
21177 1 0.142361 2.05056 -2.0886 
21176 3 1.67417 3.36468 -1.74429 
21175 1 5.16951 0.106792 -2.6139 
19206 1 -0.688712 2.79928 2.55723 
19777 1 4.30485 6.23039 -7.7913 
19204 1 -5.99443 1.4812 0.316681 
19778 3 0.365325 -4.34756 1.9669 
19205 3 1.70654 4.29164 -5.43427 
20529 1 -0.217602 4.45183 8.23965 
20639 3 2.64283 -3.69904 2.19162 
2216 3 -3.42813 -2.86127 2.33147 
2217 1 4.76035 -0.306662 -3.08219 
20640 1 0.29291 2.22751 1.26703 
12886 1 5.11515 -4.18157 2.50259 
19779 1 -1.73063 4.29036 -2.24915 
8319 1 4.82067 8.91069 1.64445 
8318 2 2.68836 -2.46104 1.7467 
2215 1 -3.36566 5.96441 0.129868 
14404 1 -0.285105 2.27511 4.06088 
14405 3 1.92653 1.21324 -2.20081 
6011 3 1.30693 -1.17024 -4.11251 
6012 1 3.91427 -5.14299 -1.5776 
6010 1 1.96838 -0.0520644 -6.76304 
10310 2 -4.47275 0.831843 -2.96862 
10311 1 -4.31848 -1.37987 2.45627 
10309 1 -3.82116 1.05218 3.55254 
18177 1 -0.897932 -1.28747 1.19524 
17478 1 3.25355 3.81893 -0.702907 
7430 3 -1.85963 -1.01452 0.906652 
7431 1 3.46912 1.25951 8.2736 
3040 1 -1.82501 -6.99647 -0.170215 
3041 3 1.72568 0.864981 -1.3083 
7429 1 2.7301 0.270277 4.83047 
13748 3 0.670322 -6.2199 -3.67497 
13749 1 1.951 -0.883178 -4.44211 
13747 1 -2.67241 0.551464 -3.76738 
17477 3 -1.13412 0.0128726 -0.0968042 
17476 1 -10.9915 -1.2642 -4.36244 
9585 1 -1.42133 1.1452 3.8712 
9584 3 1.61073 1.58098 -0.0187009 
9583 1 0.596246 -3.02321 -2.91944 
5264 3 0.512467 2.82554 1.62325 
5265 1 5.75325 -5.12971 2.00117 
14673 1 4.75736 1.73409 0.214896 
5148 1 3.4081 -1.83286 0.804637 
5147 2 -1.35868 5.90989 -0.687722 
14671 1 2.00435 0.173504 1.25313 
14672 2 3.59686 -0.322582 -3.42797 
10503 1 4.65241 -8.11341 -3.52291 
5263 1 -1.08259 0.966367 4.87029 
14895 1 -5.79198 2.78026 -3.47119 
10502 3 -0.689871 -6.7653 -1.84564 
14893 1 -0.816228 -0.876471 6.47237 
11428 1 -1.26117 -3.39492 -4.2559 
14894 3 3.47664 1.28944 -4.64407 
11203 1 1.91607 -1.53422 2.95728 
11205 1 -4.89494 -1.37093 -2.56636 
11204 3 -0.0950951 0.93309 2.48742 
10501 1 0.2284 1.32533 1.81897 
6332 3 0.383262 -5.68367 1.28326 
7964 3 -3.31124 3.3709 -1.60763 
7965 1 -4.68241 1.82672 -1.59451 
7963 1 -0.869115 1.77085 1.62644 
6331 1 5.25841 2.32464 1.51823 
13542 1 3.64418 4.17892 1.76725 
13540 1 -0.236609 4.63779 -4.83666 
13541 2 3.48444 0.798975 0.835054 
5146 1 1.79129 -0.0155856 -4.10104 
16798 1 -3.27884 -2.45373 7.73347 
16800 1 0.410447 3.2799 3.92452 
16799 2 -1.43937 0.542795 -5.67835 
698 3 -0.0232447 -0.086272 0.390554 
699 1 -1.50979 1.91274 -5.66669 
10615 1 2.05146 5.26599 -4.27746 
10616 3 1.83284 -3.7795 2.17822 
10617 1 -1.85026 -4.97262 5.70797 
12404 3 -0.653144 -2.73106 1.01585 
12405 1 0.426429 0.385216 5.53967 
697 1 -3.12458 1.05236 -1.82394 
12403 1 1.21143 8.26753 -1.14077 
20176 1 2.47248 -1.13073 3.29835 
3594 1 2.93768 0.935825 0.69779 
4358 3 -0.326538 0.581892 -1.48514 
4359 1 6.06152 1.26224 -4.79672 
4357 1 2.02593 -7.86446 -2.6069 
3593 2 1.21167 -0.726155 2.7319 
3592 1 0.851216 -5.90321 2.93676 
13818 1 2.42345 2.18855 7.3121 
13817 3 -0.821706 -1.11446 1.58877 
13816 1 -6.35888 -1.15571 -4.02715 
10464 1 2.80951 3.01521 -2.55134 
10463 2 1.5739 2.75596 1.77106 
10462 1 -3.99937 2.05121 3.59899 
10069 1 -0.280656 2.64942 0.752922 
10070 3 -1.98664 1.12427 -0.908313 
10071 1 -2.72327 0.449016 3.07631 
5332 1 1.43458 -7.49778 6.19574 
12547 1 -9.33993 -4.74734 3.79401 
12548 3 -2.36874 -2.80143 -0.707264 
12549 1 -3.5903 -1.0494 -4.60622 
1325 2 -2.87844 1.64007 0.266277 
1324 1 -0.7994 1.39615 1.68495 
21155 2 -1.68908 1.64239 -1.98311 
21154 1 -1.64326 -7.29099 3.23553 
21156 1 3.3236 -5.2454 -3.99077 
17638 1 -6.0123 -3.12221 3.81679 
17640 1 -2.6221 0.770574 -1.84457 
17639 2 -2.89272 -1.95955 -1.3726 
13819 1 -3.61112 -3.57189 1.28615 
5334 1 3.53587 0.740236 -1.41554 
5333 3 4.23632 0.353622 -4.78176 
12888 1 -1.9273 0.476588 -0.68229 
12887 3 3.24323 4.09608 1.61404 
10149 1 -4.56235 -4.42199 -5.03651 
10148 3 0.377942 2.97419 -0.469134 
15832 1 2.23178 -0.276063 0.645956 
10147 1 -0.539687 0.73393 -2.31023 
19724 3 2.19669 2.75809 -0.339136 
19723 1 0.627189 1.15269 -4.53344 
4209 1 3.20636 0.98501 -2.15575 
19725 1 -5.58123 5.67414 3.31491 
8317 1 8.50276 -2.03051 -0.641401 
20592 1 -1.31331 -4.74623 3.64655 
20591 3 -2.86197 -2.95096 -2.81149 
357 1 -3.5132 -1.93023 -0.567584 
20590 1 2.28786 1.79292 3.49574 
4750 1 2.8939 0.872525 -0.477345 
4751 3 -2.69484 0.693013 2.01563 
14406 1 -1.29877 -0.304682 -3.94324 
15833 2 0.374364 -0.365906 0.186591 
4208 3 3.90984 0.598937 3.09648 
4207 1 3.04783 -1.53 -6.73365 
3469 1 -3.23425 3.52769 -0.378197 
7503 1 -2.73738 4.66461 -2.51663 
3471 1 -0.610908 -2.0093 1.13753 
3470 3 -2.86756 -0.966243 4.93042 
9503 2 0.459866 2.81549 -0.358709 
9504 1 -4.56013 4.1143 5.01054 
9502 1 -4.60416 -3.14306 -6.66185 
4752 1 -1.19667 0.798176 -1.68119 
13267 1 -4.10481 -3.94956 -3.15836 
13268 3 6.60589 0.462135 4.44733 
17619 1 1.90671 -0.868261 0.5655 
17618 3 -2.2311 -2.0075 -2.36184 
1653 1 1.53258 -3.85623 -0.42457 
18176 2 -0.38599 2.31538 2.69622 
18175 1 -2.67052 -0.394038 -1.6667 
3331 1 -3.65872 3.27615 -1.40539 
3332 3 4.61179 -2.4186 -3.24586 
3333 1 -6.11632 -1.17214 -1.74052 
7502 3 -1.50451 -5.61289 1.05942 
7501 1 -1.09379 4.88661 2.16686 
10287 1 -1.89626 6.59497 -3.91425 
10286 3 -4.34116 1.2586 0.21106 
10285 1 0.968464 0.451101 1.78015 
18030 1 0.725929 2.99574 -3.26055 
18029 3 -2.6443 -4.34972 0.953089 
17617 1 -0.948432 -1.60161 -4.98354 
1652 3 1.51284 -1.83544 1.85214 
1651 1 -3.40364 -0.0361253 4.29589 
2146 1 -1.51981 -1.60997 -2.69671 
18135 1 -4.52784 1.34242 -0.467506 
18134 2 0.381989 -2.65755 0.101049 
18133 1 4.2868 1.7108 -1.3704 
1720 1 -2.60341 1.79425 -7.40126 
1721 2 0.801352 -4.08958 -0.737799 
11429 3 3.69533 0.985949 -4.1062 
11196 1 5.31097 0.865674 -0.0887735 
11195 3 -3.00487 1.14927 1.94208 
11194 1 -0.711559 0.240221 -3.64237 
12557 3 -5.2284 0.371287 -3.18003 
3499 1 -1.33149 4.69836 -2.82002 
3500 3 -0.872935 0.457365 -1.3741 
3501 1 -3.07863 3.99331 -4.14829 
12558 1 -4.53067 -8.84307 5.37353 
11430 1 6.14343 -1.67342 1.10153 
12556 1 -3.33999 -4.99339 0.400572 
3726 1 6.91128 1.81682 3.96943 
9912 1 -0.304344 1.9582 -1.32809 
9911 2 -0.397552 0.916145 3.18429 
18149 3 1.83056 2.59324 -0.0662375 
18148 1 -0.751846 0.0161574 3.4685 
18150 1 -0.0945442 -1.72881 -3.74899 
3724 1 -0.910546 -1.30518 1.75253 
3725 2 -2.07516 0.602559 2.94054 
17184 1 4.35488 1.17687 -0.399857 
9910 1 1.68687 1.19261 -0.886165 
18909 1 -2.02894 2.14881 4.64317 
18907 1 -6.3227 -4.14801 -0.371377 
18908 2 4.14377 -2.46044 1.82254 
1326 1 0.727294 1.28679 -1.60441 
13820 3 -1.81907 0.13139 -4.74601 
13821 1 -3.99829 1.69099 0.726696 
12077 3 1.01287 -1.2811 -2.64251 
12076 1 2.85273 -2.16992 -4.32077 
12078 1 0.482502 0.631024 4.05188 
356 2 1.92252 3.36916 -0.00823182 
355 1 3.96556 3.55497 3.76741 
15834 1 0.184194 2.38941 -3.90923 
11217 1 5.03217 0.561796 6.09165 
11216 3 -6.86539 4.35024 -1.76418 
8420 3 3.39001 -2.44339 -3.10817 
8421 1 -9.39412 -4.98269 -0.316469 
13269 1 1.02098 1.91783 -2.87442 
8419 1 0.880691 -1.40915 5.12018 
15354 1 1.03419 -1.642 -0.968814 
15352 1 -5.03484 8.01033 0.748854 
15353 3 1.54509 -0.398857 1.28142 
11215 1 -0.799439 0.0266129 -0.923811 
14863 1 5.76175 -1.51921 -6.35001 
14864 3 0.771476 2.80426 -1.36713 
14865 1 4.98861 -0.758577 0.0486279 
4671 1 2.36233 0.695847 4.41006 
4670 2 0.319929 2.109 -2.97321 
4669 1 -4.3163 4.82953 -2.30968 
12143 3 -2.02006 -1.6482 -1.17177 
12144 1 -2.87731 3.60895 2.02713 
12142 1 0.169185 1.68116 -7.07572 
12596 2 -0.913316 -1.50497 -1.09016 
12595 1 -2.76608 0.688051 -5.13817 
12597 1 4.48708 1.79842 -1.23402 
18028 1 -3.72982 -2.03857 7.7199 
2148 1 -0.00598022 3.90113 1.04853 
2147 2 2.63747 -2.42529 -3.22366 
7781 3 -0.411149 1.43551 1.01436 
7782 1 -5.9756 -0.765865 -0.0489624 
15330 1 3.59385 -1.19132 -6.66613 
15329 3 -0.0925961 1.22727 1.94906 
12869 2 -1.10045 -0.818545 -0.47567 
12868 1 -4.24071 -1.96132 2.6931 
12870 1 -4.2297 2.97512 -5.79454 
1722 1 -2.74307 -0.312781 1.80378 
462 1 2.89983 -1.70456 -1.96798 
2962 1 -3.4763 -3.14671 -3.4278 
12957 1 -1.90424 5.93105 -0.329931 
669 1 -6.17388 1.16987 -4.62445 
668 3 -6.77281 -0.0116037 2.70421 
12956 3 -0.763775 0.360835 -0.584122 
12955 1 -4.40294 -2.97147 2.93845 
2964 1 -1.96677 0.808585 4.42008 
2963 3 1.99149 4.77728 1.14719 
17375 3 0.878637 2.10689 1.51923 
17376 1 -1.73157 -4.15347 0.158716 
17374 1 1.29815 3.78021 -3.68303 
5013 1 -0.28883 -0.566985 -1.07959 
13632 1 3.04262 -4.72311 -3.22407 
3580 1 3.03295 1.43032 -2.18351 
3581 2 -0.63693 3.73934 -1.29232 
3582 1 2.45552 2.97782 5.0866 
5011 1 3.45944 0.411615 -4.05782 
5012 3 -1.61144 -1.70673 0.958097 
17182 1 0.132851 -2.90447 5.65184 
17183 2 2.35978 -2.38698 -3.3073 
13631 3 2.77079 -3.64971 -2.70974 
1571 2 -5.26134 2.43257 1.39103 
1572 1 -5.00036 -0.334928 3.49558 
6879 1 -0.365273 -0.0598803 -0.0563119 
6878 2 1.87219 -3.38304 0.952459 
3352 1 3.43367 0.435001 0.380039 
20295 1 1.44611 3.51141 0.160282 
20293 1 1.02482 -0.302365 1.71224 
20294 3 -0.290853 0.87521 -1.75628 
2105 3 -1.00395 0.477528 1.84328 
2104 1 -1.78691 8.47838 1.70077 
3486 1 0.182871 4.04185 1.0317 
3484 1 0.895467 -1.38423 1.33419 
3485 2 0.277241 -1.04302 4.43018 
10778 3 -1.29809 -2.01154 -0.0694895 
10779 1 -1.01928 2.51043 1.26478 
10777 1 1.4832 5.41009 3.3266 
3353 3 -0.498576 -3.12033 -4.7362 
3354 1 1.16939 0.443064 -1.64932 
3263 2 -2.12978 -2.39946 -2.23762 
3262 1 4.06874 0.849759 -5.1927 
898 1 -4.31412 3.14942 -2.91806 
18553 1 1.93913 -1.66047 3.04739 
18555 1 -5.12032 4.07167 -4.64237 
18554 3 2.41269 -2.16015 -4.59457 
2106 1 -3.56081 4.30119 2.6781 
19707 1 0.695656 -0.159155 -4.09769 
19706 3 -3.66558 4.31378 -4.09344 
19705 1 0.25688 1.8567 0.129259 
3264 1 6.89395 -2.24863 -4.25458 
5982 1 0.735975 -1.74893 5.10592 
17880 1 4.62025 -2.99569 -2.18663 
17879 2 1.82373 4.63911 2.16005 
460 1 0.639898 -3.88842 0.0735635 
461 2 -1.1415 -1.29157 1.60965 
11197 1 2.59094 -3.85215 -1.34314 
1356 1 -0.372393 3.5654 4.46666 
1355 2 -2.86291 1.49008 0.995052 
1354 1 -0.567507 -4.47413 -0.102089 
2992 1 3.44083 2.55117 3.90439 
5981 3 -4.53538 1.9126 -2.97513 
5980 1 -0.0333403 -1.38253 -2.9311 
667 1 1.13935 4.30426 -6.93344 
21466 1 2.01038 1.25511 -0.53081 
21468 1 1.66974 -5.06858 1.34237 
11199 1 4.93732 -2.4261 -3.32096 
11198 3 2.22772 1.45837 -1.85533 
17290 1 1.37773 1.74122 -0.0899099 
17291 2 1.2564 0.672155 0.63575 
6760 1 1.16877 -4.96418 3.836 
6762 1 2.7458 9.1543 1.9257 
6761 2 0.0442134 -0.522711 3.34347 
16221 1 -1.70971 3.61921 4.88744 
14060 3 -0.595414 2.20786 -3.13406 
14059 1 0.500147 2.83688 2.49739 
18322 1 -3.93922 1.6251 2.75633 
18324 1 -1.57938 1.12316 0.891273 
18323 2 0.726752 1.62242 -0.00704674 
17542 1 -0.73536 -2.53327 -2.72594 
15203 3 -0.887579 -0.908054 6.17183 
15202 1 2.39208 6.35045 -3.3294 
15204 1 4.8804 7.63183 1.08374 
17544 1 9.61497 -0.540373 0.0705385 
17543 3 0.0618572 0.368182 1.5507 
8553 1 0.375622 -2.50251 1.47808 
8552 3 -1.34076 0.490826 -3.0919 
8551 1 -0.805474 -1.53589 -7.10786 
13630 1 -6.457 4.05398 -2.34857 
20179 1 -0.722414 -2.97385 3.33422 
20180 2 3.5538 -4.10604 -1.21139 
20181 1 -0.507288 -4.58887 8.16233 
7462 1 5.25652 7.90847 0.244888 
7463 2 -0.948298 1.52507 -1.6816 
7464 1 0.768944 3.75434 0.720076 
3016 1 -1.94315 -0.0109733 -0.170786 
21508 1 3.47909 3.66338 3.12249 
21509 3 1.63219 -2.6102 0.680926 
3017 2 2.14522 0.544321 4.26062 
3018 1 0.820217 0.885267 3.92189 
20211 1 1.85599 5.39674 -0.587798 
20210 3 0.933935 -0.283826 -0.0816249 
20209 1 -1.05311 -0.57829 3.09944 
9970 1 -3.77661 -1.55932 3.98516 
9972 1 -1.74156 2.77587 -2.1427 
9971 2 2.61329 -3.32777 4.52448 
15081 1 2.96292 -0.323528 1.32133 
15079 1 -2.44239 -7.15553 2.12282 
15080 3 2.60712 -1.83838 -0.658009 
390 1 -2.77112 0.34889 -1.59646 
19020 1 2.99909 -0.297043 3.60231 
1570 1 -3.83698 3.12206 -3.74994 
19019 2 -3.49958 -1.97665 -3.19549 
21510 1 -0.612763 0.423848 -5.50562 
6877 1 -4.87979 0.910675 1.17667 
14032 1 4.76987 -1.35258 0.0409194 
14033 2 1.38751 0.631287 2.32122 
5239 1 3.4201 -2.54651 -0.312625 
14034 1 -0.972999 5.37314 0.632841 
5240 3 -1.16054 -3.03872 -5.20002 
5241 1 -0.342747 -4.35489 0.105523 
1879 1 -1.55652 -2.04746 3.27729 
899 2 0.369401 1.78572 -0.106749 
82 1 1.01425 0.190525 1.80849 
84 1 -4.86899 0.707879 -4.25156 
83 2 0.599069 2.8238 -1.50602 
10995 1 0.498428 2.76632 1.19838 
3121 1 4.1615 -3.48078 1.67199 
10993 1 8.11062 -1.95638 -1.8056 
10994 3 2.76014 -0.602683 -1.62221 
1881 1 4.69066 1.43181 1.42404 
1880 3 1.5246 -3.01398 0.601916 
900 1 3.38174 2.23923 0.661816 
18123 1 7.38341 2.49178 -0.0491706 
8377 1 1.40426 -4.42977 -1.33392 
8378 2 0.541227 0.601877 0.661185 
19183 1 -0.934204 0.610997 3.34716 
3180 1 -0.493732 -1.90949 -8.77597 
3179 2 0.843974 -0.335189 -1.23779 
7187 2 -0.826855 1.02428 -2.84385 
7188 1 -0.947466 -3.63909 5.81158 
2993 3 1.9097 -2.04562 1.02083 
2994 1 2.68633 -1.26628 -2.2555 
19631 3 1.53126 1.9853 -0.690546 
19632 1 0.53102 -1.98569 1.44817 
2304 1 -3.00625 4.30446 4.04296 
2302 1 1.67854 9.39767 3.14575 
2303 2 -1.80243 2.78506 -2.3627 
21467 2 -0.407945 4.3502 0.267545 
17292 1 2.79893 -3.65434 -3.33772 
16894 1 2.51665 0.0965625 6.94703 
16895 2 5.15341 -2.77703 3.48802 
16896 1 -1.65833 0.478928 5.33367 
16220 3 0.786071 7.37991 -0.582375 
16219 1 3.60773 -1.26354 -7.67875 
14061 1 5.20966 -2.03744 -1.76737 
17461 1 -3.47183 -2.90133 -0.934326 
17463 1 -0.375719 0.0112624 5.6425 
17462 2 -1.56436 -0.391538 -2.81839 
14722 1 -0.382841 1.19465 0.192442 
20082 1 0.285824 0.630001 -3.43597 
13385 2 -2.64881 0.0608622 -1.27377 
13386 1 -2.01065 -0.766483 -1.54817 
16756 1 0.0176967 -4.99375 4.3291 
2518 1 -0.625782 10.4347 4.11142 
7882 1 1.45242 -2.43069 1.16986 
7883 3 -1.62666 -2.12497 -1.19196 
2519 3 2.20659 -4.1432 -1.21045 
2520 1 6.01577 -0.866825 3.05464 
598 1 1.69949 5.71993 -0.333375 
4399 1 1.03404 -0.624836 -4.42659 
4401 1 10.0115 -0.6572 2.4293 
4400 2 -0.293726 -3.51716 2.51251 
3417 1 -0.703552 -5.16349 0.0565717 
3416 3 -2.79514 -1.33229 1.35012 
3415 1 4.06927 1.15518 -5.50911 
14724 1 -0.644644 -2.45763 -3.18699 
14723 2 -2.84755 0.668995 0.425269 
10014 1 -2.31074 -2.1011 2.50228 
10012 1 1.08321 -0.527212 0.0549593 
16757 2 1.6058 2.2058 3.51759 
6317 2 -0.621591 4.30129 -0.450453 
6318 1 -1.78888 -3.32548 -0.86445 
16758 1 -1.31135 1.28456 -3.6304 
7884 1 -1.11608 -6.64412 -4.14161 
3645 1 5.25396 -0.153043 -2.84841 
3541 1 -0.0633786 -2.38892 -4.18182 
3644 2 -0.0443092 -2.5902 -1.80858 
3643 1 2.86641 -5.49856 -3.73549 
3543 1 -2.29805 3.63683 1.0207 
3542 3 -2.86464 1.16176 2.58567 
599 3 4.53243 -0.251279 0.817465 
600 1 2.54413 3.33 4.07503 
389 2 -1.97922 -0.717903 2.16891 
388 1 1.03889 -2.73362 -8.84347 
6316 1 2.76901 2.26829 1.32416 
19018 1 0.274914 -4.42791 0.35219 
5635 1 -5.60164 -3.03686 0.328215 
6106 1 2.43534 -0.224825 0.990074 
6108 1 -0.230937 2.99815 1.48184 
6107 2 2.15696 -1.93275 2.80315 
7092 1 2.62943 -0.792514 -4.07938 
3775 1 -4.83978 2.32949 -3.19378 
1690 1 -2.32675 2.73981 1.62831 
7090 1 -0.614237 -2.52991 1.8567 
7091 2 -2.64519 -0.0432463 -0.600038 
20268 1 2.51027 3.8661 5.53706 
5636 2 0.769768 0.80822 -0.635565 
3122 3 2.85241 2.19933 -1.72549 
5637 1 0.469362 2.70263 -3.61723 
3123 1 0.609021 -4.68677 7.92108 
1692 1 -2.62732 2.31783 -1.97401 
1691 2 -2.7701 1.5797 -0.904577 
12992 2 -0.351602 3.7069 0.896526 
19918 1 -2.82566 -1.45495 0.143538 
12991 1 -2.77624 4.56617 0.999285 
19919 2 6.95757 0.607948 -1.97349 
19920 1 -3.76088 5.48491 2.29534 
18121 1 -0.620985 5.45556 -5.36064 
18122 3 -0.778762 -0.112782 2.99203 
659 3 -0.566241 0.840865 -2.48913 
660 1 -5.95796 0.535732 6.81589 
12993 1 -0.378957 7.28101 5.78918 
1093 1 4.79661 -1.39747 0.451225 
1094 2 -1.09135 4.39024 0.834975 
12792 1 -6.08055 -1.02138 1.12142 
1095 1 -2.29436 -3.4463 -3.07918 
3361 1 -2.63322 -1.2157 0.0988195 
19185 1 0.34523 1.80831 1.51886 
19184 2 -3.41864 3.82032 1.25716 
3363 1 8.44004 2.27347 2.62219 
3362 2 -0.74106 -1.49734 1.99961 
13552 1 -2.33114 -1.89791 -3.20134 
19269 1 -4.39553 0.00943341 -0.825674 
19267 1 -3.02168 1.40893 -0.629937 
19268 3 -2.07366 0.848311 2.9175 
11282 2 -0.682196 -0.0221172 -2.22226 
11283 1 -2.01941 3.17685 -0.587185 
11281 1 0.914139 -0.656331 4.73535 
8888 2 -3.74333 0.156498 -0.744812 
8887 1 4.48647 2.52358 -2.80552 
8889 1 8.74263 -0.263952 -0.191802 
19630 1 -3.52053 4.60367 -1.35265 
14710 1 -5.71676 -3.47259 3.29186 
14711 3 0.402418 -3.31997 2.1904 
14712 1 1.99922 -2.01593 -2.28835 
17178 1 5.28062 -1.93577 -4.3391 
17177 3 2.54833 1.1183 -0.79706 
4124 2 4.31444 0.0477725 1.93727 
17176 1 -5.41411 -1.26447 -3.58007 
4123 1 2.31209 3.4584 -0.953417 
19627 1 1.05563 -7.24894 -2.06874 
8320 1 1.99966 -3.76867 0.886656 
8321 3 5.01014 -1.62051 -0.441052 
20080 1 -5.96357 2.61662 -1.60047 
20081 2 -2.57527 -0.336537 -5.49038 
13384 1 -2.41411 3.90732 -3.14568 
18634 1 6.06423 -2.02476 -1.40752 
11015 2 0.95274 -1.19145 2.46801 
11014 1 1.48738 2.98277 7.32898 
2083 1 1.03257 -0.206287 -3.76973 
10013 3 -2.2416 -1.46644 -1.51942 
10413 1 0.662831 -6.63684 -3.52223 
10412 2 -2.30636 2.5971 -0.040628 
18636 1 1.73473 -6.29875 -4.64114 
18635 3 0.78474 -1.52029 2.07938 
11016 1 -4.41524 4.6396 3.70166 
2637 1 0.295485 0.740671 0.762358 
2636 2 1.09918 2.62155 2.71584 
2635 1 0.487769 -1.74089 0.571527 
5158 1 -0.688208 -2.20584 0.0159122 
5159 3 1.2125 0.867562 -0.0015512 
5160 1 -0.437585 0.107375 2.12426 
3777 1 -0.206325 5.51398 -2.75549 
3776 2 1.63886 -3.70709 -2.09103 
15940 1 -6.36926 3.82909 2.22891 
15941 2 0.610102 -0.759484 1.48933 
15942 1 -1.14284 7.62472 -1.75134 
19015 1 -2.1582 -4.99125 0.993017 
18280 1 5.45037 -1.34036 3.5751 
18281 3 0.599962 -1.35623 -5.12643 
18282 1 -3.69846 -0.860342 2.25311 
1458 1 5.01084 -2.49584 -9.94404 
5530 1 -1.08318 -0.986602 0.849331 
1457 3 0.326619 -2.26227 -2.06076 
1456 1 -2.24984 -1.93799 -2.42104 
5531 2 -2.54607 -0.868809 -0.504664 
20266 1 -1.92474 2.10096 -0.254279 
19017 1 -5.9219 -3.78108 7.07043 
20267 3 0.887041 -2.46246 4.20153 
5840 2 -1.05594 1.94531 0.972351 
5841 1 -8.6303 -2.56573 3.58928 
5839 1 -0.709934 -4.72055 5.68527 
19016 3 1.46173 3.97055 -1.09521 
19648 1 -0.287691 -7.19393 -4.86438 
19649 2 1.71577 0.404163 0.562707 
5532 1 1.99856 -8.85938 -5.82474 
7912 1 1.81497 -2.20643 0.644941 
18453 1 1.65681 -8.77119 -5.83383 
18451 1 0.0876198 -0.61132 2.46575 
18452 3 -2.02169 -0.364978 -2.09022 
12791 2 -1.69456 1.533 0.910754 
14349 1 -4.75029 1.54384 0.0730014 
14348 3 -1.26296 0.429698 -0.918026 
16644 1 -2.67102 -1.66979 -1.43038 
5128 1 5.30824 -1.6151 3.8432 
13737 1 -2.03893 2.01916 -1.87014 
13736 2 0.624437 -3.83714 1.01135 
5129 3 -1.06646 3.22943 2.55932 
2375 2 -1.26505 1.81399 2.08753 
13735 1 -0.292315 2.84998 -4.03509 
1639 1 -0.678143 3.26594 -1.94464 
2374 1 1.54179 -1.12072 -5.25636 
2376 1 -1.4597 1.95614 7.26888 
15763 1 1.6981 -3.0563 -2.0149 
19410 1 -1.0466 -3.19116 -2.44274 
19408 1 2.90217 2.45245 8.83025 
19409 3 -3.92401 -3.91362 2.87169 
19896 1 -0.886024 -5.45838 -0.896601 
19895 3 0.584222 -1.27102 -0.857312 
1302 1 -2.26195 3.64275 -9.58048 
1301 2 0.875099 -2.82052 -2.9876 
1300 1 2.31369 -0.986465 2.04826 
19101 1 2.45522 -3.86922 0.946811 
7320 1 -4.89306 6.33249 -3.10063 
7469 3 -3.3414 1.42994 3.10777 
7468 1 -0.572361 3.74168 -3.90016 
7470 1 3.28678 -1.08676 -5.51005 
5939 2 -1.91415 2.84067 1.48295 
4125 1 -6.25275 0.124616 -2.74172 
1640 2 1.3504 1.27283 -0.984635 
10512 1 -1.62979 1.24948 -3.0879 
1641 1 -0.568239 7.41541 2.73794 
10511 2 3.07459 1.17248 -1.04457 
10510 1 3.02443 0.148363 0.817545 
8748 1 -4.2973 0.861781 -1.40177 
19544 3 2.11617 -1.57881 0.80559 
19543 1 1.21762 -1.25992 0.715567 
19545 1 5.52851 0.9171 4.61742 
19100 2 3.34892 0.919534 -0.559241 
19099 1 -7.71184 1.31585 -1.21295 
19628 2 -3.50609 -0.528256 -4.43333 
8322 1 -3.06841 0.0355061 1.80765 
8747 2 0.241915 3.02359 3.47014 
8746 1 -0.257867 1.36919 2.99929 
19629 1 -2.92913 -0.810131 -8.56585 
11547 1 -2.45003 1.02309 -0.512831 
11546 3 -3.14089 0.385456 2.92086 
4162 1 -1.66928 -2.51623 9.27487 
2084 2 -0.123006 2.31639 -1.59255 
2085 1 0.525752 -0.761116 4.77796 
193 1 1.3055 -2.30582 1.7082 
194 2 -1.67066 -0.313499 -0.781697 
195 1 -1.12527 1.06973 -1.05015 
1760 3 -0.490106 -4.29736 2.93266 
1761 1 1.92778 1.92586 1.43109 
4629 1 2.58578 -0.0215323 3.8636 
4164 1 1.65263 -3.67969 -3.76493 
4163 2 2.07721 5.77463 1.56608 
1759 1 1.30393 -0.328856 2.67853 
12287 3 -1.88017 0.166288 -6.46798 
12286 1 3.27057 1.62983 -2.73939 
12288 1 -1.45196 -0.29153 -1.87 
4627 1 1.28947 -7.64411 6.17302 
4628 2 1.85674 0.412919 0.19211 
3330 1 -0.12663 4.95746 4.12319 
3329 3 1.18751 1.10654 -1.7344 
3328 1 -4.17146 -2.24204 -4.4471 
15819 1 4.49748 0.422739 2.60592 
15817 1 -0.807653 4.11394 -3.89176 
15818 3 -0.358012 2.74727 1.26238 
7056 1 -6.92662 2.83808 1.34886 
7055 3 -2.63237 1.01579 1.09599 
1158 1 -5.1897 -0.0851735 -5.86169 
885 1 4.86144 1.39227 -1.85361 
19650 1 3.23461 -4.1289 2.83044 
883 1 -1.88177 -0.337485 -6.16869 
884 2 -0.0450537 -2.79587 -2.15146 
7913 3 -4.4452 0.590311 -1.78308 
7914 1 3.02049 -0.253095 -0.724264 
10513 1 3.92952 1.66268 1.0234 
2980 1 3.56454 5.29942 -1.49115 
2981 2 0.808228 1.98646 1.01131 
16083 1 -1.65597 0.914296 1.01524 
17022 1 0.31207 -3.80817 -0.752522 
17021 2 4.35455 -3.28491 3.00578 
16082 2 2.3984 -0.36697 -2.4836 
17020 1 4.88552 -4.0095 0.524496 
17768 3 1.95961 -0.402902 -4.55682 
5418 1 3.83596 2.24465 -3.88202 
5417 2 0.358701 -1.58933 -4.79051 
5416 1 8.50957 1.47265 -2.3228 
14347 1 -6.66644 1.52407 5.47677 
18228 1 0.122763 3.82848 -4.32009 
18227 2 -2.08247 -0.289944 2.90543 
11404 1 1.75141 -0.845637 -1.15445 
15764 3 0.218834 -6.11073 -3.88752 
13064 3 -0.0736132 0.169722 -3.68725 
13065 1 1.69249 -2.36197 1.78582 
13063 1 6.35318 2.20601 0.696583 
15765 1 0.96023 -1.41489 5.02718 
7318 1 -7.35073 -0.0439179 7.82594 
4092 1 -0.678145 2.51214 -0.791771 
4091 3 4.82754 -0.760297 0.340249 
7319 3 3.84917 2.72583 -0.986772 
9995 2 3.16507 -4.05207 -1.28912 
9996 1 -3.99131 6.06025 0.150168 
5940 1 -2.68939 -2.31014 -2.9337 
9994 1 1.80062 -5.09999 -2.2033 
13963 1 0.0428898 -0.50759 -3.52369 
18226 1 0.285218 -0.212194 2.42366 
4173 1 0.040519 -0.340975 0.303868 
8387 2 -1.58388 -0.905047 -0.45905 
8386 1 -2.48953 0.762373 6.20906 
8388 1 2.29845 6.33837 5.18377 
13221 1 -0.853281 5.55647 1.86848 
5533 1 1.29822 2.29708 -5.1803 
13220 2 -0.242705 3.6678 -6.07805 
13219 1 -0.944225 -2.29352 0.894104 
6151 1 -0.175575 -3.63025 3.4668 
6152 3 -0.490534 -0.020277 3.91078 
6153 1 5.00342 2.97196 -2.38562 
5534 3 1.97558 -1.23415 -1.82882 
5535 1 3.30874 3.71846 -2.99409 
4806 1 -0.938783 2.57245 -0.645114 
4804 1 5.04718 -1.37634 -4.45552 
4805 3 1.52069 3.18203 -2.41197 
3793 1 2.95667 0.400439 0.183927 
3795 1 -2.60681 -0.572957 -0.489735 
3794 2 3.53242 0.614601 2.15003 
11545 1 2.1443 2.48205 1.3407 
19575 1 0.272865 1.8994 2.16944 
16916 3 -1.23757 1.47028 1.20125 
16915 1 -1.71796 -8.06346 -3.97425 
3908 3 -1.14709 -0.919759 -1.10937 
3907 1 5.04558 0.639488 -0.325044 
3909 1 -3.08676 0.706093 -1.70756 
16770 1 -2.80359 -9.0147 -3.90881 
16769 3 -0.733643 0.423507 0.426322 
16917 1 -0.353444 -0.529498 -4.53188 
15421 1 -0.435089 0.493509 -2.7664 
15423 1 0.292614 -1.17425 -3.48291 
15422 3 -1.97651 3.51259 -3.36258 
16768 1 0.0892699 0.775978 -3.26512 
9483 1 3.03973 -2.6055 1.73168 
9482 3 1.00633 -0.931139 -1.93971 
15682 1 0.0116162 1.31223 -7.33632 
15684 1 -3.26813 -6.23716 -4.43595 
15683 2 -0.383985 -0.22007 3.31986 
7054 1 2.91889 -0.889522 2.08942 
9481 1 -0.697003 4.65713 -3.05274 
4340 2 2.21663 2.33085 -0.841136 
4339 1 -0.0653554 5.47601 -0.99121 
4341 1 0.705498 -1.58936 -2.22355 
12818 3 4.02172 -1.38521 -4.42528 
12817 1 -0.139599 2.82083 -1.50951 
15972 1 2.87163 -3.58209 -1.75121 
15970 1 0.733968 1.20375 -9.40238 
15971 3 1.42266 -2.67267 3.62023 
1157 2 1.13908 -0.032125 3.72374 
1156 1 5.1569 -0.384684 3.50282 
5345 2 1.85062 1.05482 -3.10184 
5346 1 -4.81512 1.57339 -6.4314 
5344 1 3.76167 -0.779611 3.62139 
12937 1 -0.0733355 -3.20419 -5.65869 
12938 2 -2.89035 -5.38058 -3.11622 
10515 1 -3.8715 1.50307 1.08145 
12819 1 2.25786 -2.49838 -7.12061 
10514 2 -1.26512 2.46814 -1.80891 
19708 1 -1.52255 6.75007 1.89476 
2982 1 7.82296 -1.57021 -3.68358 
19709 3 0.422563 2.3213 -4.19141 
19710 1 -3.98671 -1.04602 2.4261 
17767 1 4.96543 -0.507726 -1.00102 
5016 1 -0.763661 1.05418 -3.21172 
16366 1 -0.397466 -2.32003 -0.993995 
16367 2 2.15691 -1.28701 1.6215 
16368 1 4.53985 -0.374537 0.106754 
5015 3 0.325636 1.1945 -0.198694 
5014 1 -8.00035 0.612284 8.78042 
674 3 -1.84649 1.05847 -0.0289509 
675 1 4.36412 0.289248 0.765822 
3874 1 0.982035 -3.51035 1.17103 
3876 1 0.0743152 -5.0002 1.2008 
3875 3 -1.89463 4.55228 1.70802 
10600 1 -2.15944 -4.0999 -0.899364 
11406 1 0.288301 -2.66007 -0.347982 
20516 2 -0.0753102 4.18493 -2.03137 
20517 1 3.07274 2.77094 4.4929 
11405 3 0.454002 -1.45342 0.655268 
4114 1 1.1701 -2.73262 1.50402 
6971 2 0.483007 -2.39562 -4.08286 
9741 1 -0.747095 4.25407 -2.491 
6972 1 -3.55171 -3.41252 -1.31703 
4116 1 -0.723663 -3.80039 0.249748 
6970 1 -3.00208 -3.49254 -1.27372 
4115 2 -3.65185 -0.0191002 -0.414242 
9740 3 -1.45494 -1.32765 0.922822 
9739 1 1.92212 4.55327 -2.6562 
10728 1 -5.12799 3.58467 -2.13739 
10727 3 2.03899 1.42956 -1.18719 
4171 1 3.40325 -0.954457 -4.03932 
4172 3 3.33624 -1.61835 0.87295 
9543 1 1.72487 -0.509768 -1.51094 
9541 1 2.59204 -2.77251 1.93726 
9542 2 -4.27541 -0.121777 1.74366 
21483 1 2.76854 -0.868695 0.474293 
17717 3 1.55972 -2.63478 2.77391 
6926 3 -4.92533 -2.48619 0.340846 
673 1 2.92096 -2.08385 -2.34858 
8299 1 8.22344 -8.00675 -2.15677 
8300 3 -2.00677 1.10065 -1.83928 
19135 1 5.13549 -1.25469 1.04689 
8301 1 -0.895703 5.98406 1.9867 
19136 3 4.44398 -0.308055 -0.302431 
10601 3 0.527049 7.83397 0.0558117 
13964 2 -1.11788 -2.83206 -4.03065 
13965 1 0.804629 3.99171 0.809162 
6875 3 -0.805014 5.00091 1.28389 
6874 1 2.0158 -2.21963 1.0098 
6876 1 5.58437 -2.72813 2.30611 
2401 1 3.06761 8.71713 -1.81851 
6927 1 -9.36433 -2.60534 0.60537 
13958 3 -0.442549 2.63032 -3.30063 
17716 1 -4.73572 0.778913 0.539006 
19137 1 -10.4732 -0.831659 0.848584 
17610 1 -4.792 -1.75243 -0.491925 
17609 3 1.65808 1.75359 -1.24047 
2402 3 -4.8458 1.26292 1.39922 
2403 1 3.73038 -0.21921 -1.45103 
12883 1 4.18268 -1.85955 2.23018 
12884 2 -2.83198 -2.13324 3.72021 
231 1 -0.811367 -2.10412 0.886881 
12885 1 -1.62558 1.01838 3.70966 
230 2 1.45159 -2.41826 0.585363 
2412 1 -7.08807 1.93653 2.12633 
2411 2 -0.539374 0.766303 2.71978 
21014 3 -3.45006 -2.03152 0.463036 
21013 1 3.9659 -6.3498 -3.57662 
21015 1 2.99615 2.41888 1.5856 
4819 1 1.24356 3.22095 6.64727 
20733 1 -3.20106 1.5802 3.54348 
11452 1 3.27153 -3.71999 -2.37322 
20732 3 4.89159 2.13734 0.882736 
20731 1 -5.56958 -4.46939 -3.47377 
21565 1 -0.765881 -0.73182 1.52375 
3773 3 2.63633 1.15764 1.26709 
3772 1 3.82249 -0.692531 1.60647 
21567 1 -8.11503 -0.832722 -1.74348 
21566 3 -2.08699 -0.833332 -1.09139 
17608 1 -1.17631 1.59891 -1.98653 
17566 1 -0.214785 5.20665 5.40205 
17567 3 6.76768 -0.375588 -0.753293 
229 1 -4.67595 6.42813 -0.104817 
3774 1 -1.46405 3.08673 3.53794 
16562 2 0.804354 0.206172 3.54977 
16563 1 4.63296 1.97911 -4.83081 
7666 1 2.82916 -1.26034 2.25386 
7667 2 3.92999 -4.85336 -1.32468 
19573 1 1.72871 -0.3426 4.99697 
17568 1 -0.903771 -0.555058 -2.49871 
19574 2 -0.0105193 0.81788 3.26987 
7668 1 -2.70263 -5.4169 0.355074 
3817 1 2.07789 4.12981 3.29885 
3819 1 -1.88921 2.64127 5.53318 
17762 3 1.28079 3.10979 0.32535 
3818 3 2.54268 5.66233 1.493 
17761 1 0.18185 3.22489 0.610185 
18229 1 -3.37356 -10.6625 0.596096 