ITEM: TIMESTEP
20000000
ITEM: NUMBER OF ATOMS
345
ITEM: BOX BOUNDS pp pp pp
0.0000000000000000e+00 5.0000000000000000e+01
0.0000000000000000e+00 5.0000000000000000e+01
0.0000000000000000e+00 5.0000000000000000e+01
ITEM: ATOMS id type xs ys zs
10063 1 0.0022313 0.0389602 0.245605
20890 1 0.000999062 0.0647843 0.254176
14839 1 6.54855e-05 0.135915 0.297641
19977 1 0.0044064 0.0605958 0.332631
19975 1 5.70795e-05 0.0454132 0.326548
19976 3 0.00216839 0.0525937 0.329563
19331 3 0.967844 0.10276 0.211195
19330 1 0.968596 0.108191 0.204363
21199 1 0.96916 0.110708 0.201785
21201 1 0.973472 0.122472 0.190238
21200 3 0.970313 0.116633 0.195311
3462 1 0.933541 0.0290952 0.238653
15539 3 0.9346 0.017647 0.239205
15538 1 0.933863 0.0260275 0.238628
10996 1 0.955959 0.0289237 0.242129
15663 1 0.955984 0.0262632 0.243171
15540 1 0.936512 0.010888 0.24157
15662 2 0.956636 0.0192808 0.245559
3461 3 0.933475 0.0368961 0.239375
3460 1 0.933926 0.044572 0.238172
6838 1 0.933807 0.0473609 0.237797
6839 3 0.932691 0.0548072 0.236245
7035 1 0.933095 0.0670773 0.235872
6840 1 0.932722 0.0636338 0.235705
12455 3 0.953836 0.0550198 0.239508
12454 1 0.954189 0.0482042 0.238792
10998 1 0.954668 0.0450558 0.238627
10997 3 0.95541 0.0366304 0.240026
12456 1 0.952863 0.0620314 0.239364
10065 1 0.990812 0.0484981 0.241881
3325 1 0.974941 0.0632045 0.234121
10132 1 0.976671 0.0611323 0.235833
10133 3 0.98254 0.0558349 0.239648
10064 3 0.996249 0.0437807 0.243999
10134 1 0.989019 0.0503886 0.241095
7034 3 0.934835 0.0744551 0.236708
3327 1 0.967654 0.0784607 0.231115
7033 1 0.935964 0.0821682 0.237457
16650 1 0.958012 0.0861168 0.231774
5227 1 0.957076 0.0843516 0.234197
16649 3 0.960477 0.0908089 0.225771
5228 3 0.953843 0.0804354 0.240642
16648 1 0.964582 0.095958 0.219744
19332 1 0.96556 0.0978749 0.217179
3326 3 0.971453 0.0710907 0.232101
7148 3 0.979541 0.0980359 0.241069
7147 1 0.974901 0.0950689 0.236312
8785 1 0.974244 0.0758725 0.245862
14230 1 0.925036 0.0263639 0.270033
14231 3 0.932041 0.0297207 0.269365
5372 2 0.959888 0.00195376 0.251145
5371 1 0.958004 0.00943542 0.249181
15661 1 0.958256 0.0123382 0.248282
466 1 0.976527 0.0302874 0.259949
14232 1 0.938018 0.034834 0.267358
17913 1 0.940593 0.0369799 0.266235
17912 3 0.945402 0.0415262 0.263086
17911 1 0.948113 0.0464254 0.258503
1954 1 0.945349 0.0645638 0.263883
1955 3 0.944464 0.0618228 0.27001
7008 1 0.946082 0.0662374 0.261337
8126 3 0.963682 0.0539633 0.256769
8125 1 0.958755 0.0602886 0.256829
468 1 0.969506 0.044513 0.258817
8127 1 0.968071 0.0472796 0.258547
20892 1 0.988352 0.0614794 0.26619
18054 1 0.985947 0.0606233 0.268432
18053 3 0.979771 0.0576182 0.273238
20891 3 0.994899 0.0630983 0.259384
467 3 0.972963 0.037995 0.259331
8980 1 0.90017 0.0838805 0.259071
8982 1 0.899275 0.0887767 0.273446
8542 1 0.899288 0.0886101 0.276766
8981 2 0.899596 0.0882781 0.266761
5229 1 0.952263 0.0759026 0.246878
7007 3 0.94953 0.0707901 0.255874
11375 3 0.965754 0.0728691 0.271444
7006 1 0.952004 0.074242 0.249705
11321 3 0.942992 0.0920765 0.276164
18622 1 0.945274 0.0923988 0.265077
11320 1 0.944298 0.0918656 0.26808
18624 1 0.946357 0.0893648 0.249844
18623 3 0.946124 0.0918178 0.257967
7149 1 0.984369 0.0991234 0.247473
8787 1 0.969431 0.0742883 0.260957
8786 3 0.971487 0.0745736 0.253985
11376 1 0.968505 0.0738901 0.263706
19308 1 0.922752 0.104032 0.272396
15065 3 0.958897 0.0107869 0.288353
15066 1 0.962416 0.0180718 0.291893
18007 1 0.964444 0.0203906 0.292973
18992 3 0.940784 0.0233891 0.295561
18991 1 0.936468 0.0173265 0.298807
18993 1 0.944916 0.0291816 0.292232
10485 1 0.946662 0.0315109 0.290946
15064 1 0.952052 0.00564392 0.287007
18008 3 0.968176 0.0254944 0.296358
670 1 0.991137 0.0183887 0.303388
18009 1 0.973084 0.0307458 0.299982
10437 1 0.975287 0.0331116 0.301956
671 3 0.993434 0.0246489 0.306576
12561 1 0.987126 0.0292743 0.283142
11377 1 0.952436 0.0397205 0.302007
3956 3 0.93913 0.0560284 0.288463
3957 1 0.937844 0.0531011 0.295312
10192 1 0.937603 0.051548 0.297638
10193 3 0.935832 0.0464108 0.303973
1956 1 0.942155 0.0592972 0.277504
3955 1 0.941334 0.05858 0.280783
7259 3 0.965589 0.0489802 0.28358
7258 1 0.959209 0.0440243 0.286177
10483 1 0.956377 0.0421558 0.287331
10484 3 0.950113 0.0371816 0.287967
11378 3 0.957038 0.0399931 0.30746
12560 3 0.985829 0.0369304 0.284884
18052 1 0.974038 0.0551592 0.278558
12559 1 0.984598 0.0442702 0.288198
7260 1 0.971662 0.0534695 0.280774
5920 1 0.984513 0.0472482 0.289856
10436 3 0.978729 0.0388176 0.305326
5921 3 0.983573 0.0538702 0.293095
5922 1 0.980322 0.06108 0.293834
2331 1 0.978792 0.0630553 0.294292
17145 1 0.89937 0.0836824 0.294862
8543 3 0.898829 0.086908 0.283554
8544 1 0.898793 0.0841043 0.291646
17144 3 0.900305 0.0845357 0.302165
19307 3 0.920333 0.102406 0.280003
19306 1 0.917573 0.101839 0.28664
17691 1 0.932548 0.0719244 0.281713
17690 3 0.927344 0.0766872 0.284918
17689 1 0.924724 0.0815544 0.28952
9805 1 0.923236 0.0839575 0.29108
9806 3 0.921706 0.089652 0.295493
9807 1 0.92419 0.0945441 0.300562
7347 1 0.925026 0.0967916 0.303018
11322 1 0.942738 0.0922553 0.28452
14239 1 0.942365 0.0925456 0.287313
11374 1 0.960393 0.0733201 0.278454
19312 1 0.958447 0.0734726 0.281216
14240 3 0.941968 0.0961424 0.29444
19313 3 0.954255 0.0730811 0.288059
19314 1 0.950624 0.0733119 0.294621
15960 1 0.949151 0.0735816 0.297313
1124 3 0.961369 0.10162 0.301176
1125 1 0.963128 0.093766 0.298818
7600 1 0.964449 0.0911216 0.298435
14241 1 0.942263 0.100041 0.301891
15959 3 0.945665 0.0759992 0.30362
2330 3 0.974902 0.0690054 0.295462
7601 3 0.967846 0.0848944 0.297926
2329 1 0.97137 0.0753458 0.296289
7602 1 0.970603 0.0775631 0.29676
11363 3 0.981616 0.101553 0.302817
11362 1 0.983425 0.0947115 0.305457
1798 1 0.984077 0.0914195 0.306731
14820 1 0.930063 0.113915 0.292768
14819 2 0.935484 0.12054 0.293269
12700 1 0.944495 0.127764 0.292854
12701 3 0.949503 0.134401 0.293777
1123 1 0.96116 0.108475 0.304963
20995 1 0.96077 0.110587 0.306683
14818 1 0.942045 0.125755 0.293225
11364 1 0.982092 0.108621 0.299797
14840 2 0.99616 0.130803 0.305591
12702 1 0.953188 0.141801 0.295765
10744 1 0.918454 0.00968655 0.335753
10745 3 0.921637 0.0171151 0.337744
15529 1 0.941263 0.0290793 0.324249
145 1 0.942318 0.0274877 0.326734
146 3 0.944302 0.0231352 0.334217
15530 3 0.938739 0.0340189 0.318171
17427 1 0.966702 0.00451336 0.321002
17426 3 0.966005 0.0123484 0.322122
17425 1 0.965175 0.0198797 0.324945
3523 1 0.96521 0.0224125 0.325297
3524 3 0.966356 0.0314543 0.326672
4984 1 0.996238 0.00397809 0.312329
4985 3 0.993992 0.00582383 0.319864
672 1 0.99464 0.0303833 0.312225
12811 1 0.995175 0.0329099 0.314789
4986 1 0.990652 0.00526064 0.32692
6993 1 0.989612 0.00540544 0.329448
6992 3 0.985683 0.00482394 0.335793
8363 2 0.900672 0.0548285 0.317971
8362 1 0.894864 0.0527097 0.323693
8364 1 0.907091 0.056449 0.312876
2894 3 0.927517 0.0672088 0.330679
2893 1 0.932166 0.0641242 0.326257
14434 1 0.934487 0.0631844 0.324539
2537 3 0.96081 0.0609552 0.311719
4426 1 0.94639 0.041741 0.330324
15531 1 0.936718 0.0401973 0.312596
10194 1 0.936162 0.0421158 0.310549
14436 1 0.949472 0.0613217 0.315471
2538 1 0.952389 0.0607008 0.31424
11379 1 0.960781 0.0408092 0.315489
14435 3 0.941811 0.0613134 0.319818
4427 3 0.944675 0.0470935 0.336704
12513 1 0.958201 0.0628857 0.337642
4054 1 0.958262 0.0643938 0.335574
12813 1 0.999452 0.0432567 0.324727
2536 1 0.968009 0.0633392 0.309882
12812 3 0.996511 0.0381646 0.320136
10435 1 0.979989 0.0451421 0.309713
14145 1 0.98086 0.0475974 0.311135
3525 1 0.968249 0.0393049 0.327871
1101 1 0.968753 0.042587 0.328082
14144 3 0.984706 0.0540047 0.316365
14143 1 0.988619 0.0572463 0.321674
1100 3 0.970291 0.0491764 0.329054
1099 1 0.973459 0.0566911 0.331702
16659 1 0.97521 0.0595529 0.332207
16658 3 0.978777 0.0655183 0.332701
17143 1 0.903137 0.0833875 0.309286
2895 1 0.921037 0.0697709 0.33452
10019 3 0.92154 0.0920034 0.327299
10020 1 0.926684 0.0883762 0.322483
19209 1 0.928672 0.086779 0.320598
19208 3 0.934198 0.0830706 0.316629
10018 1 0.916382 0.0969436 0.331872
15958 1 0.940604 0.0789902 0.309639
19207 1 0.939126 0.0801087 0.311791
13895 3 0.963114 0.0847767 0.321717
4055 3 0.958204 0.0699194 0.32995
13894 1 0.96073 0.0783294 0.323078
4056 1 0.95999 0.0755743 0.324904
13896 1 0.9649 0.0917642 0.320122
1800 1 0.98656 0.0786066 0.31528
1799 3 0.985823 0.0841597 0.310543
16657 1 0.983997 0.0707684 0.332882
6057 1 0.985815 0.0967393 0.337065
7346 3 0.926933 0.102621 0.308152
8325 1 0.930798 0.108739 0.317029
7345 1 0.929716 0.106887 0.314428
8324 3 0.934376 0.114286 0.322831
8777 3 0.919971 0.120925 0.336013
8778 1 0.915036 0.124133 0.330443
8323 1 0.93691 0.120813 0.326457
20996 3 0.958801 0.118089 0.310661
20997 1 0.957368 0.124207 0.314169
882 1 0.957534 0.126193 0.315634
881 3 0.955776 0.131899 0.320618
880 1 0.952692 0.136639 0.325902
15129 1 0.948418 0.116512 0.3335
15128 3 0.954282 0.110438 0.336452
14431 1 0.971303 0.124398 0.320452
14433 1 0.978882 0.111379 0.327106
14432 3 0.975699 0.117731 0.324004
6056 3 0.983066 0.103529 0.332483
6055 1 0.980138 0.109423 0.328458
14841 1 0.993981 0.126908 0.311552
21174 1 0.951885 0.138017 0.328617
21173 3 0.94867 0.141872 0.336283
10983 1 0.924105 0.0278161 0.340982
10746 1 0.923334 0.0249505 0.340212
7456 1 0.947129 0.00470994 0.357524
147 1 0.944185 0.0184259 0.341369
8962 1 0.944135 0.0162898 0.343762
8963 3 0.944882 0.0114122 0.349611
8964 1 0.946774 0.0064963 0.355953
11814 1 0.952147 0.0245195 0.351045
11813 3 0.952731 0.0320067 0.352584
11127 1 0.966083 0.0100504 0.34394
20113 1 0.967457 0.0127512 0.344434
16246 1 0.946972 0.0145606 0.367593
16247 3 0.953855 0.0192118 0.369291
11126 3 0.963166 0.00312563 0.342713
6991 1 0.980634 0.00395152 0.341464
20114 3 0.971172 0.019387 0.345343
6427 1 0.977008 0.0293176 0.344254
20115 1 0.975768 0.0265322 0.344017
10982 3 0.927446 0.0350124 0.343451
10981 1 0.930857 0.0432345 0.345672
3210 1 0.934377 0.0569074 0.358476
11812 1 0.953488 0.0396944 0.355995
12511 1 0.956586 0.0564449 0.352921
12512 3 0.957251 0.0592445 0.345262
3209 3 0.937998 0.0549669 0.352304
3208 1 0.940357 0.0512194 0.345731
2188 1 0.953202 0.0539407 0.368461
4428 1 0.94146 0.0501367 0.343382
2189 3 0.953695 0.047703 0.363196
2190 1 0.953592 0.0419274 0.357999
12157 1 0.993589 0.0670227 0.36217
6428 3 0.978886 0.0370845 0.345614
6429 1 0.978685 0.0447086 0.346699
10363 1 0.974447 0.0571857 0.3641
10364 3 0.974511 0.0502777 0.368864
9430 1 0.974038 0.0592769 0.362353
9431 3 0.973894 0.0661177 0.357762
12789 1 0.907955 0.0840676 0.357454
12788 3 0.910669 0.0856298 0.350126
12787 1 0.913007 0.0910884 0.344706
4630 1 0.934933 0.0997622 0.351171
7696 1 0.933345 0.102443 0.350882
2665 1 0.949611 0.0692538 0.345487
2666 3 0.94542 0.075886 0.346258
5249 3 0.962042 0.0939208 0.344142
2667 1 0.94326 0.0832056 0.34826
4632 1 0.942624 0.0856236 0.349223
4631 3 0.939034 0.0930533 0.351244
11236 1 0.966673 0.0858898 0.345556
5250 1 0.965596 0.0879272 0.344895
5248 1 0.958203 0.100813 0.341635
12159 1 0.999511 0.0783113 0.352537
12158 3 0.996656 0.0719716 0.356414
11075 3 0.989021 0.0890273 0.343836
11076 1 0.98655 0.0950718 0.338808
11237 3 0.968972 0.0794641 0.347455
9432 1 0.972816 0.0709467 0.352996
11238 1 0.971644 0.0732075 0.351025
11074 1 0.992833 0.0850379 0.349264
7697 3 0.929817 0.109327 0.348247
7698 1 0.926432 0.115182 0.343071
8776 1 0.924775 0.117257 0.340878
15127 1 0.957391 0.103268 0.340436
16216 1 0.978382 0.121994 0.344054
16217 3 0.981603 0.116187 0.34886
16218 1 0.984023 0.110691 0.353677
8215 1 0.985016 0.108775 0.355912
8217 1 0.990853 0.10349 0.369097
8216 2 0.988114 0.104322 0.361873
21172 1 0.945239 0.144681 0.3432
20862 1 0.93504 0.0317279 0.370873
16248 1 0.960627 0.0241124 0.370678
18972 1 0.963138 0.0262191 0.370839
18971 3 0.967933 0.0325141 0.370979
16531 1 0.933754 0.0581689 0.385008
16533 1 0.927449 0.0454943 0.391517
16532 2 0.929807 0.0519701 0.388724
20860 1 0.947127 0.0373127 0.378171
5436 1 0.949868 0.0385838 0.379825
20861 3 0.941573 0.0346496 0.374459
5435 3 0.955689 0.0418792 0.384117
5434 1 0.961467 0.0444874 0.387562
10365 1 0.97249 0.042059 0.370088
18970 1 0.971071 0.0393283 0.370958
14501 2 0.994517 0.105072 0.379211
14500 1 0.992012 0.103597 0.372209
14502 1 0.998164 0.107283 0.386947
5373 1 0.964047 0.994993 0.252553
11125 1 0.962059 0.994273 0.341612
7457 3 0.946761 0.999494 0.363262
7458 1 0.946755 0.993643 0.369178
