ITEM: TIMESTEP
20000000
ITEM: NUMBER OF ATOMS
1029
ITEM: BOX BOUNDS pp pp pp
0.0000000000000000e+00 5.0000000000000000e+01
0.0000000000000000e+00 5.0000000000000000e+01
0.0000000000000000e+00 5.0000000000000000e+01
ITEM: ATOMS id type xs ys zs
4770 1 0.693403 0.679597 0.116962
4769 2 0.69483 0.686247 0.122481
4768 1 0.695567 0.692876 0.127377
14022 1 0.665891 0.719254 0.148343
10977 1 0.695834 0.706362 0.138347
10976 3 0.695313 0.700315 0.133662
10975 1 0.695776 0.694569 0.129057
1792 1 0.667482 0.721055 0.146348
14960 3 0.68651 0.73059 0.132434
1794 1 0.678385 0.726101 0.137781
14959 1 0.680846 0.727243 0.135941
1793 3 0.672663 0.724877 0.14181
14961 1 0.692476 0.734803 0.129934
3430 1 0.695382 0.736797 0.129423
14021 3 0.661816 0.714256 0.154063
14020 1 0.657513 0.711416 0.159439
4219 1 0.737853 0.626864 0.0249344
4220 2 0.73866 0.632195 0.0297735
11366 2 0.738247 0.617658 0.0186223
11365 1 0.737722 0.624826 0.0229274
11367 1 0.738795 0.611739 0.0126524
18897 1 0.746951 0.694348 0.0233854
19103 3 0.783933 0.686676 0.0243345
19102 1 0.777428 0.68988 0.019935
13984 1 0.793145 0.685887 0.0305149
19104 1 0.790558 0.685598 0.0290705
17686 1 0.696784 0.718375 0.0275615
17688 1 0.711242 0.714794 0.0233694
17687 3 0.703321 0.7147 0.0257436
18709 1 0.719849 0.729754 0.0276819
11569 1 0.719312 0.731996 0.0248941
12999 1 0.77474 0.711564 0.0180062
12998 3 0.778037 0.707308 0.0248721
18960 1 0.811402 0.718012 0.0161295
18958 1 0.826518 0.717419 0.00842033
18959 2 0.819737 0.716755 0.0124123
3658 1 0.735435 0.622893 0.056784
3659 3 0.735223 0.631168 0.0531014
11097 1 0.737786 0.604174 0.060956
11096 3 0.736756 0.611591 0.059488
11095 1 0.735653 0.619935 0.057499
3660 1 0.735658 0.638261 0.0479116
4221 1 0.740077 0.639539 0.0342684
13333 1 0.740408 0.641935 0.0358086
13334 3 0.742087 0.647776 0.0408759
13335 1 0.741942 0.65117 0.0482721
9930 1 0.741286 0.652568 0.0512273
9929 3 0.739655 0.655978 0.0577501
8343 1 0.799311 0.667123 0.0591838
2253 1 0.820465 0.649624 0.0376209
2252 3 0.822305 0.655913 0.0420488
2251 1 0.823383 0.662419 0.0457533
13830 1 0.824877 0.665279 0.0478124
19737 1 0.726014 0.670295 0.0373297
18896 3 0.74342 0.695006 0.0311017
9635 3 0.750443 0.670615 0.0476033
9634 1 0.743177 0.670719 0.044312
19735 1 0.740667 0.670754 0.0430937
19736 3 0.732932 0.671244 0.0402967
15898 1 0.745202 0.683454 0.0568939
18895 1 0.74046 0.6959 0.0373793
10912 1 0.739215 0.696267 0.0399878
10914 1 0.731692 0.69766 0.0541472
17127 1 0.730384 0.697442 0.0569216
10913 3 0.735753 0.69705 0.0470333
16194 1 0.775923 0.680964 0.0353514
9636 1 0.758166 0.669912 0.052416
13425 1 0.760609 0.669544 0.0542127
13424 3 0.767659 0.669118 0.0596523
16193 3 0.777555 0.683212 0.0433713
8476 1 0.758484 0.694535 0.0491919
8477 3 0.761384 0.692378 0.0559612
2672 3 0.78324 0.685972 0.0608123
16192 1 0.780386 0.68506 0.0501069
2671 1 0.782157 0.685538 0.0528526
18182 3 0.815172 0.688374 0.0450624
6241 1 0.791713 0.673324 0.0437863
13985 3 0.800102 0.686991 0.0357004
14575 1 0.789908 0.70133 0.0481768
6242 3 0.794957 0.670829 0.0499023
18181 1 0.809731 0.687583 0.0413479
13986 1 0.807225 0.687279 0.0394854
2200 1 0.796086 0.6876 0.0574006
2201 3 0.802547 0.693559 0.0589884
2202 1 0.807843 0.698674 0.0601181
14905 1 0.810487 0.700694 0.0604925
6243 1 0.797929 0.668351 0.0565801
18183 1 0.82271 0.688814 0.0498449
13829 3 0.827379 0.671421 0.0537946
6139 1 0.843216 0.68546 0.0507304
13828 1 0.827714 0.676418 0.0602327
6140 3 0.850447 0.683792 0.0534461
6141 1 0.858377 0.684251 0.0566362
18711 1 0.721034 0.721631 0.04175
11602 1 0.720892 0.720399 0.0444293
18710 3 0.720513 0.725618 0.0341513
11603 3 0.719863 0.71752 0.0518551
11604 1 0.71808 0.715 0.0588711
13461 1 0.716937 0.713729 0.0613911
4782 1 0.747181 0.711416 0.0607779
4780 1 0.739023 0.720648 0.0511363
4781 3 0.743436 0.716026 0.0552347
2196 1 0.755758 0.706382 0.0477579
8959 1 0.732501 0.733913 0.0550056
7482 1 0.755942 0.729413 0.0563182
11120 3 0.755988 0.731092 0.0448906
11121 1 0.756035 0.729512 0.0529636
8960 3 0.734706 0.734784 0.0483926
11119 1 0.755256 0.733007 0.0371036
19540 1 0.731191 0.733669 0.058092
19854 1 0.754455 0.734364 0.0339928
12997 1 0.781197 0.705289 0.0315309
14577 1 0.782669 0.704543 0.034532
2195 3 0.762233 0.706936 0.0430948
2194 1 0.767854 0.708749 0.038434
4388 3 0.780543 0.731324 0.058115
6144 1 0.78014 0.708718 0.0509116
14576 3 0.786177 0.70375 0.0409078
6143 3 0.777114 0.706945 0.0587759
4387 1 0.778891 0.734318 0.0500637
5647 1 0.804945 0.731705 0.0388032
5648 3 0.802072 0.726012 0.0448209
5649 1 0.79839 0.722756 0.0506984
14185 1 0.797428 0.72154 0.0531305
838 1 0.806222 0.733851 0.0368147
14906 3 0.817455 0.705388 0.0609363
14186 3 0.796753 0.718079 0.0600519
14907 1 0.823732 0.709516 0.0609319
5669 2 0.719431 0.632079 0.0897963
5670 1 0.720604 0.626355 0.0853382
1421 3 0.754023 0.630812 0.0881031
17587 1 0.783922 0.630825 0.0841542
6640 1 0.781425 0.632248 0.0855902
17589 1 0.794608 0.622572 0.0766004
17588 3 0.789501 0.626402 0.079707
9928 1 0.739884 0.658994 0.0658098
6613 1 0.744933 0.66391 0.0870859
17004 1 0.743341 0.663246 0.0844059
17002 1 0.74091 0.659626 0.0692022
17003 3 0.742737 0.661455 0.0765183
1420 1 0.755487 0.638157 0.0838227
19341 1 0.756323 0.640642 0.0821216
13423 1 0.774721 0.666881 0.0641209
9793 1 0.777079 0.666164 0.0659155
19340 3 0.758794 0.646667 0.0783637
19339 1 0.760879 0.652922 0.0741343
9794 3 0.782846 0.664649 0.0722742
6641 2 0.775034 0.635741 0.0897411
9795 1 0.789029 0.664186 0.078012
5959 1 0.791016 0.664016 0.0797949
5960 3 0.796779 0.661038 0.0863934
8342 3 0.803174 0.663478 0.0658821
8341 1 0.806705 0.660428 0.0724
11555 3 0.720155 0.695079 0.0820943
11554 1 0.722685 0.695785 0.0739969
17125 1 0.724097 0.696222 0.0706328
12345 1 0.715175 0.692783 0.0913094
11556 1 0.716475 0.693795 0.0890978
15899 3 0.742332 0.683492 0.0641782
17126 3 0.727629 0.696871 0.0636511
15900 1 0.740361 0.683954 0.0721488
4002 1 0.739161 0.684006 0.0750929
4001 3 0.737142 0.683332 0.0834218
4000 1 0.734351 0.6838 0.09152
11609 3 0.753075 0.697681 0.0867439
20881 1 0.753729 0.701129 0.075367
11610 1 0.754172 0.700241 0.0780509
8478 1 0.763139 0.689391 0.0626337
13531 1 0.764021 0.687839 0.065584
13532 3 0.765446 0.684538 0.0723004
13660 1 0.785114 0.68572 0.0721474
2673 1 0.784682 0.685893 0.0688991
13533 1 0.764651 0.682907 0.0804698
8146 1 0.765234 0.681501 0.0837101
8147 3 0.766215 0.678151 0.0905534
11959 1 0.773451 0.700811 0.0843871
13661 3 0.786037 0.685038 0.0802915
13662 1 0.786759 0.684525 0.0886294
12862 1 0.787114 0.684097 0.0914659
13543 1 0.773099 0.699958 0.0877971
3828 1 0.801138 0.695868 0.0742729
3826 1 0.810567 0.687568 0.0861671
7302 1 0.811155 0.686985 0.0879388
3827 3 0.806624 0.692464 0.0803227
8539 1 0.827473 0.678852 0.0622136
8540 2 0.826654 0.684935 0.067966
8541 1 0.826644 0.692079 0.0735929
19176 1 0.826698 0.694119 0.0757736
19175 3 0.827931 0.699758 0.0814388
8968 1 0.843019 0.675985 0.0909363
8970 1 0.843215 0.687766 0.0790412
8969 3 0.842473 0.681413 0.0848721
3112 1 0.861892 0.678885 0.0874316
3113 3 0.862129 0.687755 0.0887935
12217 1 0.85085 0.697539 0.0813218
3114 1 0.862144 0.694954 0.0901879
2958 1 0.862817 0.697322 0.0906473
13459 1 0.709646 0.708544 0.0744098
13460 3 0.713739 0.711409 0.0679536
7178 3 0.726143 0.730732 0.0836142
20883 1 0.748425 0.709676 0.0627731
7177 1 0.726435 0.726691 0.0913529
20882 3 0.751801 0.70519 0.068006
1149 1 0.738801 0.716934 0.077767
1148 3 0.737402 0.713071 0.0845524
1147 1 0.737352 0.708744 0.0906817
9381 1 0.754955 0.718939 0.0902139
9380 3 0.754226 0.722392 0.0827458
7480 1 0.755627 0.72577 0.0720749
9379 1 0.755389 0.724397 0.0749139
19541 3 0.729981 0.732176 0.0660202
7179 1 0.728598 0.731154 0.0765976
19542 1 0.728745 0.731054 0.0735713
11960 3 0.773786 0.704081 0.0766217
11961 1 0.775906 0.705234 0.0695034
6142 1 0.776495 0.705771 0.0666922
7481 3 0.756833 0.72825 0.0643404
19775 3 0.779677 0.723967 0.0752592
19776 1 0.779247 0.721521 0.0820746
3420 1 0.778985 0.721017 0.0847817
19774 1 0.780674 0.726774 0.0687728
4389 1 0.780676 0.728002 0.0658992
3185 3 0.814186 0.727956 0.0652116
8830 1 0.795318 0.708467 0.0840558
1729 1 0.795087 0.707649 0.0867926
14187 1 0.796311 0.715448 0.0666466
8832 1 0.795755 0.714152 0.0693703
8831 3 0.794767 0.711083 0.0772405
206 3 0.815753 0.717296 0.0800653
3184 1 0.815126 0.722318 0.0707547
207 1 0.814717 0.714958 0.0881112
205 1 0.81574 0.720432 0.0731749
14392 1 0.814819 0.713652 0.0909413
16038 1 0.798506 0.729227 0.0874375
16950 1 0.798799 0.73027 0.0849198
16949 3 0.800072 0.733408 0.0774926
6121 1 0.826441 0.711098 0.0617949
6122 3 0.832499 0.715914 0.0658018
19174 1 0.831281 0.705566 0.0846657
11154 1 0.832237 0.708038 0.0857979
6123 1 0.838461 0.718888 0.0693014
14401 1 0.840796 0.720427 0.0703991
11153 3 0.834901 0.715049 0.0887119
14402 3 0.846874 0.724457 0.0738798
11152 1 0.83773 0.721554 0.0913308
12218 3 0.849522 0.702916 0.0760715
12219 1 0.848555 0.708891 0.0700072
14403 1 0.852784 0.72867 0.0751548
6225 1 0.749902 0.609487 0.105268
6224 2 0.750286 0.616455 0.101143
6223 1 0.751116 0.622597 0.0959544
1422 1 0.751829 0.624966 0.0936004
18063 1 0.799649 0.63017 0.105857
18062 3 0.795276 0.625803 0.111395
18061 1 0.79063 0.621296 0.116364
5668 1 0.720275 0.639376 0.0940405
6614 3 0.748774 0.665182 0.0941798
6615 1 0.752612 0.665788 0.101995
19634 3 0.754006 0.65615 0.114603
12840 1 0.726772 0.664422 0.122777
19633 1 0.748108 0.659714 0.120632
19635 1 0.759274 0.653565 0.109484
13062 1 0.761284 0.651567 0.107048
13061 3 0.765246 0.646935 0.101411
6642 1 0.771124 0.639747 0.0949221
13060 1 0.769641 0.641225 0.0968347
2206 1 0.770459 0.66489 0.112568
20041 1 0.77204 0.663228 0.120755
5961 1 0.802707 0.659722 0.0927887
11044 1 0.804347 0.659558 0.0952816
11045 3 0.809521 0.65883 0.10083
11046 1 0.816398 0.658155 0.105672
1236 1 0.818943 0.65801 0.107082
1235 3 0.826659 0.657653 0.110397
1234 1 0.833538 0.656743 0.114358
1635 1 0.851784 0.664534 0.103463
12344 3 0.710869 0.689307 0.0980174
12343 1 0.710191 0.684087 0.104361
15751 1 0.733896 0.682817 0.094373
16653 1 0.753338 0.691997 0.0954684
11608 1 0.753319 0.693711 0.0929292
12839 3 0.729187 0.668586 0.11632
12838 1 0.729078 0.673589 0.109406
16652 3 0.752049 0.687789 0.101852
15753 1 0.729631 0.675509 0.107222
16651 1 0.751584 0.683295 0.108502
15525 1 0.7514 0.681834 0.110693
15752 3 0.732137 0.679885 0.100834
15524 3 0.74966 0.677956 0.117475
13103 3 0.734163 0.694402 0.117927
13104 1 0.735278 0.698344 0.111488
3748 1 0.736001 0.70011 0.109206
1600 1 0.754605 0.701231 0.120382
2208 1 0.766885 0.671664 0.0998065
8148 1 0.766954 0.673265 0.0974321
2207 3 0.767983 0.668433 0.105786
13544 3 0.77245 0.697626 0.09616
14738 3 0.771568 0.689477 0.115284
13545 1 0.772941 0.694318 0.104798
14739 1 0.772597 0.692742 0.107825
14737 1 0.7703 0.686704 0.122195
12863 3 0.788725 0.683027 0.0984926
7301 3 0.812827 0.685514 0.0954776
12864 1 0.789008 0.680169 0.104833
10335 1 0.788862 0.678713 0.107634
10334 3 0.790472 0.675448 0.114192
10333 1 0.791939 0.673129 0.121271
10279 1 0.812418 0.67934 0.105962
10280 3 0.812679 0.674668 0.112893
7300 1 0.812672 0.681062 0.103264
19151 3 0.790618 0.698804 0.111492
10281 1 0.812929 0.670822 0.11982
2709 1 0.813965 0.669599 0.12202
17128 1 0.810136 0.695072 0.119396
19152 1 0.78832 0.695045 0.118619
7344 1 0.810274 0.693999 0.122065
17129 3 0.810784 0.69861 0.112134
18697 1 0.787882 0.693874 0.121632
1633 1 0.843709 0.674714 0.0928273
1634 3 0.847006 0.669411 0.0989734
7801 1 0.833133 0.680126 0.112111
7802 3 0.838228 0.684084 0.111241
7803 1 0.844016 0.688309 0.110531
21451 1 0.846355 0.689379 0.1098
21452 3 0.852754 0.693154 0.108212
21453 1 0.858876 0.697327 0.10532
5572 1 0.70146 0.716192 0.112844
16731 1 0.725905 0.725147 0.0936066
16730 3 0.723664 0.720288 0.0994865
5574 1 0.69866 0.716051 0.0959709
16729 1 0.722789 0.715599 0.106451
18037 1 0.72177 0.713714 0.108615
18038 3 0.71884 0.707966 0.113961
18039 1 0.717693 0.703199 0.120271
17304 1 0.717187 0.702087 0.122377
5573 3 0.700482 0.715229 0.103794
8601 1 0.70135 0.71668 0.115738
3750 1 0.737339 0.706975 0.0941054
3749 3 0.736991 0.704355 0.10212
6600 1 0.741159 0.731353 0.103589
15229 1 0.740938 0.728914 0.105863
15230 3 0.740976 0.723074 0.111693
15231 1 0.740044 0.7177 0.117218
1186 1 0.739947 0.716465 0.119597
2797 1 0.755389 0.717802 0.0929197
1601 3 0.754836 0.704339 0.113567
1602 1 0.754419 0.709053 0.107079
2799 1 0.754868 0.710774 0.104396
2798 3 0.755492 0.714618 0.0991564
8903 3 0.760647 0.732144 0.106612
6856 1 0.761987 0.72779 0.115732
8904 1 0.761519 0.728631 0.113396
3418 1 0.777344 0.717997 0.0992774
15709 1 0.776796 0.717143 0.102235
3419 3 0.778199 0.720262 0.092474
15710 3 0.776076 0.71482 0.110355
15711 1 0.774861 0.712962 0.118611
13231 1 0.774811 0.712044 0.120797
6857 3 0.762026 0.725884 0.123118
5392 1 0.782224 0.733062 0.122499
1731 1 0.792858 0.70278 0.101286
1730 3 0.794517 0.704734 0.0940497
19150 1 0.792144 0.701745 0.104291
14393 3 0.815195 0.709721 0.097899
16037 3 0.797612 0.726864 0.0937262
4180 1 0.79676 0.72217 0.103615
4181 3 0.79704 0.718736 0.110789
16036 1 0.796872 0.723231 0.101233
4182 1 0.796528 0.716722 0.117439
19419 1 0.796288 0.716025 0.120232
14394 1 0.81391 0.705107 0.104578
17130 1 0.813206 0.703302 0.106628
17571 1 0.817343 0.722155 0.119431
7248 1 0.816592 0.720621 0.121676
3440 3 0.82003 0.733603 0.0975753
11758 1 0.827275 0.706022 0.111825
17569 1 0.820824 0.729489 0.106599
17570 3 0.820582 0.726305 0.112883
3441 1 0.820662 0.730772 0.104063
6582 1 0.838944 0.723837 0.0927605
11759 3 0.83526 0.706294 0.110463
7543 1 0.844852 0.710806 0.110584
11760 1 0.841975 0.70934 0.110411
6581 3 0.843136 0.729253 0.0963692
6580 1 0.84721 0.734115 0.100646
2957 3 0.86504 0.704793 0.0928829
2956 1 0.866637 0.712949 0.0946108
7545 1 0.85727 0.716576 0.11648
7544 3 0.851158 0.713846 0.112657
4414 1 0.867233 0.715341 0.0960474
4415 3 0.868388 0.722239 0.100074
4416 1 0.868849 0.729755 0.103226
11894 3 0.77815 0.613903 0.149194
11893 1 0.784273 0.609365 0.147047
11895 1 0.771192 0.618462 0.153246
15535 1 0.7921 0.6253 0.140264
15536 3 0.795332 0.631771 0.144327
10007 3 0.748036 0.658822 0.147162
10008 1 0.746986 0.661182 0.14133
12439 1 0.746935 0.662614 0.139322
12440 3 0.747634 0.667084 0.132472
20042 3 0.772525 0.659289 0.128281
20043 1 0.774759 0.654742 0.13435
6028 1 0.776072 0.653616 0.13698
6029 3 0.779238 0.650493 0.141869
6030 1 0.782952 0.647271 0.148215
3972 1 0.783971 0.645986 0.151117
2842 1 0.794956 0.665718 0.139152
15537 1 0.799972 0.636394 0.147804
5036 3 0.798607 0.662104 0.149922
5037 1 0.796374 0.664922 0.142231
19390 1 0.801814 0.638541 0.149026
19391 3 0.806818 0.643672 0.152524
2708 3 0.817169 0.666184 0.128541
20032 1 0.820223 0.662291 0.138475
2707 1 0.819064 0.66333 0.135633
20033 3 0.822361 0.660192 0.145587
20034 1 0.824623 0.658479 0.153209
17303 3 0.716027 0.698917 0.129606
18461 3 0.702492 0.678081 0.148547
18460 1 0.701549 0.685493 0.147543
17302 1 0.713996 0.696206 0.136743
18462 1 0.702527 0.6708 0.15069
13102 1 0.733959 0.692236 0.124802
15523 1 0.748455 0.673921 0.12413
9801 1 0.733664 0.691022 0.127434
12441 1 0.748421 0.671686 0.126695
9799 1 0.732058 0.68354 0.141429
9800 3 0.732204 0.687152 0.133946
3990 1 0.73232 0.682249 0.143912
2335 1 0.753492 0.691648 0.137853
2336 3 0.753988 0.695849 0.130886
9226 1 0.753424 0.690179 0.140138
9227 3 0.751897 0.686814 0.148293
3989 3 0.732658 0.679116 0.149993
2337 1 0.754524 0.699933 0.123464
7039 1 0.738943 0.700649 0.15345
10487 3 0.767765 0.670384 0.148409
13464 1 0.769967 0.685323 0.124887
13463 3 0.768904 0.681807 0.131662
10486 1 0.766969 0.675453 0.141994
13462 1 0.76741 0.677741 0.139228
15320 3 0.770821 0.700318 0.144456
15319 1 0.770492 0.697357 0.151321
2844 1 0.791779 0.671824 0.124149
2843 3 0.793577 0.66841 0.132007
6784 1 0.789709 0.686477 0.139183
18699 1 0.789519 0.688341 0.136375
18698 3 0.788017 0.692186 0.129413
7343 3 0.810279 0.691326 0.129361
6785 3 0.790075 0.682305 0.147173
6063 1 0.812893 0.679844 0.153592
7342 1 0.81079 0.6885 0.13637
6061 1 0.811146 0.687212 0.139343
6062 3 0.811269 0.683625 0.146751
11526 1 0.793987 0.700753 0.153731
6786 1 0.788014 0.678716 0.153537
8600 3 0.701556 0.71822 0.12321
8599 1 0.703088 0.721853 0.130296
21414 1 0.724526 0.734241 0.123485
21413 3 0.724718 0.730011 0.130724
21412 1 0.724719 0.724605 0.13717
16267 1 0.724798 0.723067 0.139629
16268 3 0.721584 0.716031 0.14581
20980 1 0.715749 0.709044 0.151121
16269 1 0.717365 0.711319 0.149456
3539 3 0.696645 0.716205 0.143417
18258 1 0.698156 0.725731 0.148735
3540 1 0.69791 0.72328 0.147331
18257 3 0.698393 0.732867 0.152281
3538 1 0.695994 0.709072 0.139837
9280 1 0.738808 0.701605 0.150856
9281 3 0.738537 0.705318 0.144004
1187 3 0.739164 0.712829 0.127184
9282 1 0.737901 0.70924 0.137432
1188 1 0.738255 0.710613 0.134448
11462 3 0.744195 0.730466 0.145317
11461 1 0.742508 0.72536 0.151261
11463 1 0.744486 0.734471 0.137969
20557 1 0.762453 0.733738 0.151296
14544 1 0.782236 0.731921 0.125233
15321 1 0.773264 0.703093 0.137886
13233 1 0.773883 0.704148 0.135489
13232 3 0.774648 0.707575 0.127932
3215 3 0.759832 0.718142 0.139877
3214 1 0.760856 0.722046 0.133404
6858 1 0.760755 0.723323 0.130897
3216 1 0.757986 0.71449 0.146675
14146 1 0.757373 0.713321 0.149804
14543 3 0.781701 0.730915 0.132982
14542 1 0.780655 0.72825 0.140248
3598 1 0.780193 0.726747 0.14318
3599 3 0.77937 0.721732 0.150193
1233 1 0.802216 0.732298 0.135381
17512 1 0.801426 0.73115 0.137645
13993 1 0.793593 0.702021 0.151398
19418 3 0.794291 0.713476 0.128287
13994 3 0.79216 0.705051 0.144412
19417 1 0.792581 0.70925 0.134569
13995 1 0.792176 0.708273 0.137075
17513 3 0.799691 0.728548 0.144249
14622 1 0.8166 0.711955 0.1367
14621 3 0.815815 0.708941 0.144934
14620 1 0.816646 0.705571 0.152627
7247 3 0.816834 0.717821 0.127396
7246 1 0.816748 0.713372 0.134068
17514 1 0.797793 0.727434 0.151505
20379 1 0.81115 0.616249 0.159219
20378 3 0.802875 0.613408 0.157833
20377 1 0.796216 0.609266 0.157533
10006 1 0.751072 0.654673 0.154682
9437 3 0.749591 0.66538 0.179077
3971 3 0.785066 0.642972 0.158169
17455 1 0.780345 0.636482 0.183312
3970 1 0.78358 0.641548 0.165433
17457 1 0.783003 0.64095 0.168482
17456 3 0.782369 0.639463 0.175775
16056 1 0.769592 0.665132 0.158262
16055 3 0.76983 0.661759 0.164557
16054 1 0.770025 0.657065 0.170622
10488 1 0.769058 0.666288 0.155711
5035 1 0.798939 0.660074 0.158064
10023 1 0.795957 0.649457 0.164778
10022 3 0.79813 0.656176 0.169187
19392 1 0.811345 0.648395 0.157502
10021 1 0.801452 0.66031 0.174715
2808 1 0.802445 0.662136 0.177474
2807 3 0.804317 0.666573 0.184231
16020 1 0.813651 0.653424 0.182409
731 3 0.826545 0.666783 0.175448
730 1 0.83166 0.663508 0.180762
20982 1 0.708344 0.69633 0.157277
3988 1 0.733043 0.673834 0.156645
9228 1 0.750583 0.682815 0.155201
7040 3 0.739031 0.69734 0.159774
9438 1 0.748094 0.670495 0.17297
7088 3 0.73455 0.687099 0.176284
9019 1 0.748233 0.672476 0.17082
7089 1 0.736339 0.690742 0.168976
7041 1 0.73765 0.69216 0.166185
9020 3 0.749442 0.676461 0.164714
9021 1 0.750416 0.68075 0.158224
6797 3 0.75523 0.701229 0.17332
6796 1 0.753808 0.69671 0.179321
7087 1 0.731374 0.684201 0.182906
16236 1 0.770613 0.696494 0.154406
16235 3 0.769881 0.693953 0.161845
16234 1 0.771356 0.69044 0.168738
10971 1 0.772529 0.689275 0.171076
10970 3 0.774594 0.686481 0.17793
10969 1 0.777581 0.682928 0.183136
12103 1 0.788546 0.673511 0.17137
12104 3 0.788452 0.6751 0.164046
12105 1 0.787779 0.677859 0.156383
16154 3 0.816078 0.672866 0.162252
16153 1 0.813467 0.677777 0.156142
11524 1 0.798941 0.694443 0.168477
11525 3 0.796447 0.697477 0.16128
118 1 0.811302 0.680824 0.176402
16155 1 0.8201 0.670045 0.168171
732 1 0.822145 0.669202 0.170505
119 3 0.817655 0.685379 0.180056
20981 3 0.71149 0.702674 0.153996
12905 3 0.712894 0.731918 0.171716
12904 1 0.710803 0.726197 0.176607
5269 1 0.70996 0.723614 0.178136
5270 3 0.707261 0.715937 0.180342
5271 1 0.707455 0.708184 0.183566
17192 3 0.73688 0.733334 0.179482
8535 1 0.739697 0.724838 0.157203
8533 1 0.738143 0.715898 0.169436
6136 1 0.737782 0.714447 0.172092
8534 3 0.738956 0.719744 0.162671
6137 3 0.736573 0.712022 0.178993
6798 1 0.75523 0.704676 0.166617
14148 1 0.755438 0.706124 0.164125
14147 3 0.756307 0.709755 0.157716
3382 1 0.777054 0.712908 0.174183
3383 3 0.776913 0.71622 0.167193
3384 1 0.778127 0.718337 0.159511
9131 3 0.760261 0.722887 0.177573
3600 1 0.778264 0.719235 0.157323
20559 1 0.760879 0.727805 0.167109
9132 1 0.760353 0.727051 0.17002
20558 3 0.762445 0.72991 0.158981
802 1 0.777375 0.711931 0.1763
803 3 0.777833 0.70872 0.183309
3375 1 0.797203 0.726716 0.154089
9248 3 0.795297 0.71395 0.176756
3373 1 0.795938 0.720626 0.168085
9249 1 0.795794 0.718888 0.170383
3374 3 0.7959 0.724088 0.161232
9247 1 0.794679 0.708953 0.182607
8994 1 0.79447 0.706752 0.183857
2101 1 0.835816 0.721207 0.18158
6805 1 0.832712 0.720794 0.182806
2102 3 0.842867 0.722089 0.178795
2103 1 0.848657 0.723297 0.173471
5582 2 0.780266 0.633514 0.193568
5581 1 0.778972 0.630452 0.200138
19971 1 0.778414 0.62957 0.202874
19970 2 0.778195 0.626418 0.210978
9436 1 0.749641 0.662037 0.186464
5583 1 0.779988 0.635584 0.186035
17310 1 0.768372 0.664502 0.200331
17308 1 0.763435 0.659293 0.187416
17309 3 0.766232 0.662462 0.194224
700 1 0.787668 0.667113 0.215381
16018 1 0.823692 0.650563 0.194345
16019 3 0.818081 0.652315 0.188774
21079 1 0.713337 0.699461 0.192067
21080 3 0.709846 0.692593 0.189213
21081 1 0.704424 0.687665 0.18769
20675 3 0.771832 0.694396 0.198371
20676 1 0.773095 0.686697 0.200787
702 1 0.785598 0.671332 0.199301
14188 1 0.785018 0.672542 0.196567
14189 3 0.782204 0.676073 0.190203
14190 1 0.778893 0.680947 0.185597
701 3 0.786045 0.668632 0.208034
2806 1 0.806433 0.672529 0.190174
19992 1 0.806966 0.674738 0.192041
19991 3 0.807744 0.681479 0.197474
19990 1 0.80969 0.687404 0.20269
8993 3 0.794839 0.699444 0.187563
8992 1 0.795578 0.691315 0.19028
120 1 0.822545 0.689267 0.185628
463 1 0.824398 0.691224 0.187524
464 3 0.827952 0.697579 0.191065
19839 1 0.715103 0.70159 0.19331
19838 3 0.720476 0.705347 0.196949
19837 1 0.724516 0.709632 0.201838
17193 1 0.739025 0.730841 0.187478
17342 3 0.741434 0.726341 0.197482
17341 1 0.740121 0.729529 0.190229
6138 1 0.73423 0.70947 0.18605
17343 1 0.743361 0.72179 0.20428
6494 3 0.773027 0.733154 0.19648
20674 1 0.768589 0.702798 0.197209
11788 1 0.767453 0.705933 0.196784
804 1 0.778038 0.704723 0.190793
11789 3 0.764292 0.713223 0.197631
11790 1 0.758997 0.719878 0.198098
9130 1 0.760426 0.720447 0.185896
6493 1 0.773893 0.731199 0.204672
3274 1 0.800322 0.734242 0.185129
465 1 0.830701 0.70448 0.19417
6807 1 0.818387 0.71642 0.191315
6806 3 0.825086 0.720024 0.186428
19969 1 0.777863 0.626269 0.218795
11571 1 0.714138 0.741081 0.0131313
11570 3 0.7169 0.736321 0.0191829
19852 1 0.749241 0.740362 0.019669
19853 3 0.75262 0.737359 0.0263508
21235 1 0.780652 0.744513 0.0148048
21236 3 0.77857 0.742726 0.0220807
21237 1 0.776961 0.742066 0.0300309
12567 1 0.814169 0.763151 0.0189178
12566 3 0.808645 0.761724 0.0253071
21405 1 0.789407 0.765698 0.023807
840 1 0.813406 0.744745 0.0276941
21403 1 0.776594 0.773057 0.0155413
21404 3 0.782329 0.768781 0.0197336
10504 1 0.805224 0.785067 0.02005
10506 1 0.796374 0.791191 0.0302491
10505 3 0.800993 0.787746 0.0258825
14484 1 0.831093 0.768136 0.0287615
17702 3 0.747316 0.755692 0.0435857
17703 1 0.745386 0.755158 0.0520436
17701 1 0.747554 0.755887 0.0354757
3939 1 0.74482 0.754393 0.054927
8961 1 0.738514 0.737249 0.0409025
14357 3 0.774117 0.761094 0.0390851
14356 1 0.77145 0.758071 0.0467277
18496 1 0.770742 0.75691 0.0492777
14358 1 0.775938 0.764167 0.0321155
18497 3 0.768115 0.754099 0.0557944
8881 1 0.777314 0.741065 0.0327451
8883 1 0.778093 0.735463 0.0472722
8882 3 0.777504 0.738624 0.0396524
12565 1 0.803905 0.75876 0.0323125
11065 1 0.802997 0.758062 0.0350962
11066 3 0.800057 0.757352 0.0434396
11067 1 0.796705 0.753707 0.0496786
177 1 0.795211 0.752678 0.052123
176 3 0.790312 0.750745 0.0580755
2678 3 0.812017 0.745141 0.0549477
2677 1 0.811331 0.751655 0.0497476
3186 1 0.812887 0.735035 0.0604366
2679 1 0.81289 0.737725 0.0590054
839 3 0.810283 0.738615 0.0317145
9314 3 0.823101 0.76085 0.0515714
14482 1 0.825816 0.764817 0.0423684
9313 1 0.825187 0.763681 0.0449123
9315 1 0.821684 0.760362 0.0598467
20140 1 0.830696 0.738258 0.0549812
13214 3 0.829717 0.736253 0.0430626
13215 1 0.830559 0.737618 0.0519127
13213 1 0.829815 0.735157 0.0360117
14465 3 0.730479 0.779742 0.047852
14466 1 0.728724 0.773123 0.0535218
14464 1 0.731209 0.785092 0.0441039
14532 1 0.728951 0.770715 0.0562443
4149 1 0.77252 0.782505 0.0323308
4148 3 0.780498 0.781331 0.0375315
199 1 0.779868 0.782576 0.0544856
4147 1 0.786516 0.780225 0.0422072
10399 1 0.760206 0.79296 0.0515972
10400 2 0.760101 0.792006 0.0584687
200 3 0.7759 0.778245 0.0604644
17557 1 0.788821 0.779801 0.0448524
17559 1 0.799706 0.774117 0.0562503
17558 3 0.7945 0.779163 0.0510872
14877 1 0.801534 0.772564 0.0581851
11512 1 0.795422 0.79653 0.0614558
14483 3 0.828008 0.76801 0.0359184
1163 2 0.843308 0.783684 0.048597
10651 1 0.840504 0.777473 0.0583767
1164 1 0.840943 0.779436 0.0556923
1162 1 0.843608 0.787108 0.0415776
5599 1 0.726027 0.75766 0.0694287
5600 3 0.723175 0.751565 0.0734935
7383 1 0.724269 0.749963 0.0901199
8373 1 0.71692 0.745092 0.0799905
8371 1 0.703453 0.739991 0.0881603
8372 3 0.709687 0.740863 0.0836881
5601 1 0.718656 0.746654 0.0782274
14531 3 0.727422 0.765966 0.0625623
14530 1 0.72676 0.759945 0.0672726
3938 3 0.743086 0.751959 0.0617695
3937 1 0.743676 0.74845 0.0688998
7693 1 0.754972 0.764313 0.0880262
5805 1 0.743658 0.74757 0.0724332
15288 1 0.754351 0.762965 0.0906616
5804 3 0.74211 0.744776 0.080421
5803 1 0.74252 0.740983 0.0875941
6598 1 0.742152 0.739873 0.0906867
13675 1 0.763849 0.750724 0.0654718
18498 1 0.764468 0.751736 0.0628724
13676 3 0.762656 0.747881 0.0736237
7675 1 0.774696 0.764067 0.0837722
9126 1 0.773788 0.762886 0.0865104
2740 1 0.780142 0.749117 0.0707388
13021 1 0.763242 0.743584 0.0831664
13677 1 0.762971 0.744505 0.0807677
7676 3 0.775573 0.767138 0.0765324
2741 3 0.783812 0.74774 0.0777657
175 1 0.785869 0.751163 0.0644653
2742 1 0.783791 0.745951 0.0857399
17104 1 0.783929 0.744897 0.0885715
13022 3 0.763291 0.739683 0.0905953
14876 3 0.805986 0.767879 0.0633066
16998 1 0.794585 0.760739 0.0744633
16997 3 0.796971 0.762751 0.0827315
16996 1 0.799018 0.759809 0.0899344
14857 1 0.800252 0.757737 0.0922946
10298 3 0.816246 0.745294 0.082877
10299 1 0.815685 0.749763 0.0753657
12629 3 0.817215 0.764967 0.0884078
10297 1 0.817558 0.741016 0.0886064
14875 1 0.811287 0.764 0.0677893
16948 1 0.80285 0.739753 0.0720497
8911 1 0.821937 0.759944 0.0627358
20141 3 0.832113 0.740558 0.0627858
7368 1 0.835284 0.743111 0.0723304
7367 3 0.836581 0.743464 0.0817672
8913 1 0.820685 0.761368 0.07816
8912 3 0.822245 0.759926 0.0703154
12628 1 0.819811 0.762543 0.0809414
20142 1 0.834548 0.742777 0.0696309
7366 1 0.838685 0.744922 0.088957
10653 1 0.841327 0.765066 0.0676098
4446 1 0.846051 0.764894 0.0866693
3439 1 0.818196 0.738913 0.0911847
10200 1 0.725839 0.777633 0.0760576
10198 1 0.728095 0.792848 0.0753493
10199 3 0.727622 0.785842 0.0772151
7694 3 0.755577 0.768951 0.0817099
10401 1 0.759355 0.790206 0.0673811
7695 1 0.75678 0.774734 0.0754379
7677 1 0.775044 0.772264 0.0693195
201 1 0.775035 0.774074 0.0664406
809 3 0.76497 0.786476 0.0831705
808 1 0.763403 0.787911 0.0753583
810 1 0.764353 0.784737 0.0909282
16538 3 0.793941 0.78578 0.0853597
16539 1 0.794815 0.789422 0.0774807
11514 1 0.795307 0.790285 0.0748318
16537 1 0.791566 0.781591 0.091331
11513 3 0.796291 0.79342 0.0675598
10652 3 0.839978 0.771859 0.0640023
1934 3 0.820034 0.797539 0.0675096
18437 3 0.831211 0.786165 0.0773703
18436 1 0.826268 0.790797 0.0734069
18438 1 0.836637 0.780833 0.0805604
4444 1 0.838579 0.778229 0.0815432
1933 1 0.823939 0.792446 0.0717161
4445 3 0.841742 0.77213 0.0844313
21432 1 0.844841 0.790026 0.0903529
9558 1 0.87796 0.779393 0.0723501
21366 1 0.850889 0.795751 0.0803097
3742 1 0.849283 0.797934 0.0807575
21365 3 0.85602 0.791058 0.0795855
21364 1 0.863426 0.787477 0.0789302
9556 1 0.865632 0.786399 0.0784108
9557 3 0.871846 0.782458 0.0760675
5936 3 0.785965 0.809467 0.0903822
5935 1 0.78938 0.808526 0.0840845
1935 1 0.815923 0.802714 0.064103
3743 3 0.844716 0.803695 0.0793545
3744 1 0.842536 0.811782 0.0783106
7382 3 0.722757 0.747553 0.0974675
14770 1 0.722617 0.742574 0.10787
7381 1 0.722476 0.743862 0.104978
14771 3 0.723169 0.739065 0.114312
14772 1 0.724269 0.735719 0.12097
15287 3 0.752175 0.75781 0.0969905
5299 1 0.729319 0.765156 0.116454
21548 3 0.748291 0.750711 0.112503
15286 1 0.749859 0.754621 0.104075
21547 1 0.749203 0.753875 0.106518
6037 1 0.746831 0.744441 0.121215
21549 1 0.74723 0.746036 0.11908
9105 1 0.728929 0.762718 0.118469
6599 3 0.742078 0.735564 0.0965071
9125 3 0.772918 0.760766 0.0934229
15126 1 0.771506 0.756787 0.102354
15125 3 0.768928 0.755294 0.110175
9124 1 0.771735 0.75784 0.0995768
15124 1 0.768546 0.754215 0.117766
2950 1 0.768314 0.75354 0.120401
17105 3 0.784728 0.742172 0.0959285
13023 1 0.761557 0.737492 0.0977889
5393 3 0.783801 0.736133 0.115222
5394 1 0.784776 0.738475 0.107073
17106 1 0.785164 0.739025 0.104478
8902 1 0.761197 0.736443 0.100541
1231 1 0.805814 0.736833 0.121227
12630 1 0.816262 0.767546 0.0961644
14858 3 0.803256 0.753488 0.0979812
141 1 0.788598 0.754537 0.118148
7339 1 0.788368 0.755361 0.115489
7340 3 0.788999 0.759114 0.109491
14859 1 0.804649 0.748485 0.103537
14449 1 0.805203 0.745951 0.105532
14450 3 0.805001 0.740713 0.111253
13314 1 0.808892 0.755195 0.11338
13767 1 0.788559 0.767026 0.101618
7341 1 0.788726 0.76477 0.103846
13313 3 0.811482 0.760162 0.117334
13312 1 0.814901 0.766488 0.120858
14451 1 0.806 0.737626 0.118582
8311 1 0.837232 0.760534 0.0996726
8312 3 0.840064 0.754698 0.0976419
8313 1 0.84346 0.748539 0.0931922
21129 1 0.835887 0.762901 0.100969
1809 1 0.834553 0.735108 0.121636
5300 3 0.729203 0.771268 0.110899