ITEM: TIMESTEP
0
ITEM: NUMBER OF ATOMS
345
ITEM: BOX BOUNDS pp pp pp
0.0000000000000000e+00 5.0000000000000000e+01
0.0000000000000000e+00 5.0000000000000000e+01
0.0000000000000000e+00 5.0000000000000000e+01
ITEM: ATOMS id type 
4630 1 
4631 3 
4632 1 
7147 1 
7148 3 
7149 1 
2536 1 
2537 3 
2538 1 
7033 1 
7034 3 
7035 1 
8962 1 
8963 3 
8964 1 
145 1 
146 3 
147 1 
3208 1 
3209 3 
3210 1 
3325 1 
3326 3 
3327 1 
6991 1 
6992 3 
6993 1 
8125 1 
8126 3 
8127 1 
466 1 
467 3 
468 1 
3460 1 
3461 3 
3462 1 
3523 1 
3524 3 
3525 1 
4426 1 
4427 3 
4428 1 
5920 1 
5921 3 
5922 1 
7006 1 
7007 3 
7008 1 
8323 1 
8324 3 
8325 1 
8980 1 
8981 2 
8982 1 
10063 1 
10064 3 
10065 1 
10363 1 
10364 3 
10365 1 
10483 1 
10484 3 
10485 1 
2329 1 
2330 3 
2331 1 
6055 1 
6056 3 
6057 1 
6838 1 
6839 3 
6840 1 
7258 1 
7259 3 
7260 1 
8215 1 
8216 2 
8217 1 
10018 1 
10019 3 
10020 1 
10132 1 
10133 3 
10134 1 
10192 1 
10193 3 
10194 1 
10435 1 
10436 3 
10437 1 
670 1 
671 3 
672 1 
4984 1 
4985 3 
4986 1 
5227 1 
5228 3 
5229 1 
6427 1 
6428 3 
6429 1 
9430 1 
9431 3 
9432 1 
10744 1 
10745 3 
10746 1 
10981 1 
10982 3 
10983 1 
1099 1 
1100 3 
1101 1 
2893 1 
2894 3 
2895 1 
7456 1 
7457 3 
7458 1 
7696 1 
7697 3 
7698 1 
8362 1 
8363 2 
8364 1 
8542 1 
8543 3 
8544 1 
8776 1 
8777 3 
8778 1 
10996 1 
10997 3 
10998 1 
1954 1 
1955 3 
1956 1 
2188 1 
2189 3 
2190 1 
2665 1 
2666 3 
2667 1 
4054 1 
4055 3 
4056 1 
5248 1 
5249 3 
5250 1 
5371 1 
5372 2 
5373 1 
5434 1 
5435 3 
5436 1 
7345 1 
7346 3 
7347 1 
8785 1 
8786 3 
8787 1 
9805 1 
9806 3 
9807 1 
11074 1 
11075 3 
11076 1 
880 1 
881 3 
882 1 
1123 1 
1124 3 
1125 1 
7600 1 
7601 3 
7602 1 
1798 1 
1799 3 
1800 1 
3955 1 
3956 3 
3957 1 
14230 1 
14231 3 
14232 1 
15661 1 
15662 2 
15663 1 
20890 1 
20891 3 
20892 1 
11236 1 
11237 3 
11238 1 
11362 1 
11363 3 
11364 1 
12559 1 
12560 3 
12561 1 
14239 1 
14240 3 
14241 1 
18622 1 
18623 3 
18624 1 
11125 1 
11126 3 
11127 1 
11374 1 
11375 3 
11376 1 
12454 1 
12455 3 
12456 1 
12511 1 
12512 3 
12513 1 
14431 1 
14432 3 
14433 1 
14434 1 
14435 3 
14436 1 
16531 1 
16532 2 
16533 1 
16648 1 
16649 3 
16650 1 
17425 1 
17426 3 
17427 1 
11320 1 
11321 3 
11322 1 
11377 1 
11378 3 
11379 1 
12157 1 
12158 3 
12159 1 
14500 1 
14501 2 
14502 1 
16657 1 
16658 3 
16659 1 
20860 1 
20861 3 
20862 1 
15529 1 
15530 3 
15531 1 
15538 1 
15539 3 
15540 1 
17689 1 
17690 3 
17691 1 
20995 1 
20996 3 
20997 1 
12787 1 
12788 3 
12789 1 
15064 1 
15065 3 
15066 1 
15127 1 
15128 3 
15129 1 
18007 1 
18008 3 
18009 1 
18970 1 
18971 3 
18972 1 
19207 1 
19208 3 
19209 1 
19330 1 
19331 3 
19332 1 
14839 1 
14840 2 
14841 1 
16216 1 
16217 3 
16218 1 
20113 1 
20114 3 
20115 1 
21199 1 
21200 3 
21201 1 
12811 1 
12812 3 
12813 1 
13894 1 
13895 3 
13896 1 
17911 1 
17912 3 
17913 1 
18991 1 
18992 3 
18993 1 
12700 1 
12701 3 
12702 1 
14143 1 
14144 3 
14145 1 
16246 1 
16247 3 
16248 1 
17143 1 
17144 3 
17145 1 
19306 1 
19307 3 
19308 1 
11812 1 
11813 3 
11814 1 
14818 1 
14819 2 
14820 1 
15958 1 
15959 3 
15960 1 
18052 1 
18053 3 
18054 1 
19312 1 
19313 3 
19314 1 
19975 1 
19976 3 
19977 1 
21172 1 
21173 3 
21174 1 
