ITEM: TIMESTEP
0
ITEM: NUMBER OF ATOMS
222
ITEM: BOX BOUNDS pp pp pp
0.0000000000000000e+00 5.0000000000000000e+01
0.0000000000000000e+00 5.0000000000000000e+01
0.0000000000000000e+00 5.0000000000000000e+01
ITEM: ATOMS id type 
3250 1 
3251 2 
3252 1 
4447 1 
4448 2 
4449 1 
7804 1 
7805 2 
7806 1 
9070 1 
9071 2 
9072 1 
6853 1 
6854 2 
6855 1 
7876 1 
7877 2 
7878 1 
9319 1 
9320 2 
9321 1 
1285 1 
1286 2 
1287 1 
3574 1 
3575 2 
3576 1 
8965 1 
8966 2 
8967 1 
10228 1 
10229 2 
10230 1 
3706 1 
3707 2 
3708 1 
4663 1 
4664 2 
4665 1 
5617 1 
5618 2 
5619 1 
6052 1 
6053 2 
6054 1 
6892 1 
6893 2 
6894 1 
8212 1 
8213 2 
8214 1 
904 1 
905 2 
906 1 
2047 1 
2048 2 
2049 1 
2767 1 
2768 2 
2769 1 
4981 1 
4982 2 
4983 1 
6430 1 
6431 2 
6432 1 
9730 1 
9731 2 
9732 1 
6562 1 
6563 3 
6564 1 
7513 1 
7514 2 
7515 1 
9559 1 
9560 2 
9561 1 
1774 1 
1775 2 
1776 1 
5188 1 
5189 2 
5190 1 
7594 1 
7595 2 
7596 1 
940 1 
941 2 
942 1 
5203 1 
5204 2 
5205 1 
8443 1 
8444 2 
8445 1 
9520 1 
9521 2 
9522 1 
9700 1 
9701 2 
9702 1 
10900 1 
10901 2 
10902 1 
2932 1 
2933 2 
2934 1 
6538 1 
6539 2 
6540 1 
7315 1 
7316 2 
7317 1 
7612 1 
7613 2 
7614 1 
9595 1 
9596 2 
9597 1 
10918 1 
10919 2 
10920 1 
11227 1 
11228 2 
11229 1 
14221 1 
14222 2 
14223 1 
18601 1 
18602 3 
18603 1 
13456 1 
13457 2 
13458 1 
18616 1 
18617 3 
18618 1 
12145 1 
12146 2 
12147 1 
13234 1 
13235 2 
13236 1 
14374 1 
14375 2 
14376 1 
14491 1 
14492 2 
14493 1 
15634 1 
15635 2 
15636 1 
12166 1 
12167 2 
12168 1 
14266 1 
14267 2 
14268 1 
14386 1 
14387 2 
14388 1 
14617 1 
14618 2 
14619 1 
15706 1 
15707 2 
15708 1 
18832 1 
18833 2 
18834 1 
19492 1 
19493 2 
19494 1 
19669 1 
19670 2 
19671 1 
19738 1 
19739 2 
19740 1 
14824 1 
14825 3 
14826 1 
15193 1 
15194 2 
15195 1 
16813 1 
16814 2 
16815 1 
19096 1 
19097 2 
19098 1 
15085 1 
15086 2 
15087 1 
15274 1 
15275 2 
15276 1 
19108 1 
19109 2 
19110 1 
19171 1 
19172 2 
19173 1 
20311 1 
20312 2 
20313 1 
18160 1 
18161 2 
18162 1 
17035 1 
17036 2 
17037 1 
17158 1 
17159 2 
17160 1 
19255 1 
19256 2 
19257 1 
20215 1 
20216 2 
20217 1 
