ITEM: TIMESTEP
20000000
ITEM: NUMBER OF ATOMS
849
ITEM: BOX BOUNDS pp pp pp
0.0000000000000000e+00 5.0000000000000000e+01
0.0000000000000000e+00 5.0000000000000000e+01
0.0000000000000000e+00 5.0000000000000000e+01
ITEM: ATOMS id type xs ys zs
5676 1 0.205785 0.851538 0.208451
13605 1 0.181189 0.885018 0.210325
14419 1 0.179286 0.884087 0.211999
13604 3 0.186022 0.888752 0.206081
13603 1 0.191709 0.893988 0.202909
334 1 0.213094 0.876852 0.209915
9186 1 0.186269 0.81227 0.237687
14911 1 0.186306 0.810686 0.239922
13164 1 0.169186 0.820217 0.235142
9185 2 0.18634 0.816446 0.231426
9184 1 0.184802 0.820568 0.224989
2466 1 0.18504 0.822345 0.22277
2464 1 0.188595 0.835558 0.219239
2465 2 0.186437 0.828144 0.219483
2448 1 0.20217 0.825436 0.242018
2447 2 0.205918 0.824315 0.234721
2446 1 0.210043 0.823769 0.229031
11019 1 0.223571 0.813347 0.236242
2167 1 0.251662 0.835317 0.236027
2168 2 0.254951 0.831867 0.229702
2169 1 0.257742 0.828706 0.223029
753 1 0.276079 0.837689 0.239621
21229 1 0.275971 0.840617 0.238398
752 2 0.27697 0.830307 0.242631
751 1 0.279165 0.822106 0.242753
17439 1 0.149888 0.867412 0.237484
9570 1 0.14797 0.868777 0.239205
11651 2 0.172251 0.857915 0.225679
11652 1 0.178961 0.856077 0.222104
11650 1 0.165401 0.859721 0.228583
17437 1 0.162704 0.860672 0.229675
17438 2 0.155386 0.863072 0.232194
14011 1 0.184816 0.844299 0.238432
16140 1 0.186094 0.845127 0.235746
5675 2 0.199643 0.850084 0.214116
5674 1 0.195731 0.849773 0.220596
16138 1 0.194523 0.849561 0.223341
16139 2 0.19044 0.847914 0.229383
249 1 0.207976 0.84642 0.232896
7925 2 0.186094 0.873682 0.240918
4976 2 0.204035 0.874893 0.236634
4977 1 0.196532 0.873534 0.238528
7924 1 0.193298 0.873407 0.239243
13744 1 0.237506 0.845792 0.21914
335 2 0.218081 0.873741 0.214096
247 1 0.219164 0.857635 0.23158
17317 1 0.232295 0.84478 0.238045
13746 1 0.233249 0.845833 0.235622
248 2 0.214135 0.851422 0.232733
336 1 0.223769 0.870663 0.218261
1516 1 0.225653 0.869873 0.219929
13745 2 0.234948 0.846014 0.22735
1517 2 0.230606 0.868811 0.226706
1518 1 0.236108 0.867149 0.231602
19642 1 0.275279 0.873071 0.22311
1318 1 0.275368 0.870678 0.224522
1319 3 0.276853 0.863275 0.228363
21231 1 0.278242 0.853907 0.232149
1320 1 0.278151 0.856699 0.230786
21230 3 0.277173 0.847899 0.23508
20777 2 0.159768 0.895434 0.23722
20776 1 0.158806 0.902875 0.236771
20778 1 0.162381 0.888858 0.239507
14420 2 0.17299 0.881699 0.2162
14421 1 0.166399 0.878158 0.220637
17116 1 0.158967 0.875385 0.242375
4975 1 0.211061 0.876878 0.232389
19644 1 0.275869 0.887113 0.216122
19643 3 0.275934 0.880258 0.220028
14912 2 0.187202 0.805778 0.245672
14913 1 0.188826 0.802814 0.252209
14829 1 0.219819 0.809674 0.26989
20790 1 0.238732 0.792491 0.266998
20789 2 0.234699 0.795243 0.261372
20788 1 0.229371 0.797858 0.256844
11017 1 0.218413 0.804643 0.248561
11018 2 0.221411 0.808919 0.243148
16383 1 0.240288 0.791487 0.270057
11350 1 0.221312 0.808438 0.272157
18781 1 0.268703 0.799205 0.263345
18783 1 0.253033 0.79864 0.267211
18782 2 0.261123 0.799662 0.266117
8242 1 0.281687 0.806455 0.269485
11659 1 0.286162 0.804502 0.246986
11660 2 0.282621 0.811824 0.245253
14105 2 0.147348 0.837841 0.27109
14106 1 0.145384 0.843759 0.266823
9049 1 0.162651 0.815817 0.271586
9050 2 0.16331 0.815991 0.263193
8302 1 0.175169 0.835791 0.272101
3838 1 0.175489 0.836675 0.269043
9051 1 0.164802 0.816709 0.254898
13162 1 0.165192 0.817038 0.251621
13163 2 0.167753 0.818811 0.243525
3839 2 0.176845 0.839416 0.261882
14012 2 0.181365 0.842709 0.244795
14013 1 0.179266 0.841834 0.251892
3840 1 0.178478 0.841637 0.254654
12472 1 0.199291 0.822928 0.270342
17573 2 0.204567 0.838163 0.266743
12473 2 0.194011 0.816707 0.272534
17572 1 0.205759 0.830373 0.269347
14827 1 0.209384 0.817072 0.257926
4818 1 0.194494 0.828627 0.258553
4816 1 0.201048 0.825988 0.244839
4817 2 0.197 0.82725 0.251819
14828 2 0.214863 0.813278 0.263873
17318 2 0.228627 0.840754 0.244828
192 1 0.225046 0.832165 0.269776
191 2 0.2259 0.834661 0.261817
190 1 0.227465 0.836859 0.254629
17319 1 0.228233 0.838138 0.251848
6364 1 0.225005 0.831005 0.272399
15280 1 0.272216 0.822747 0.266163
15281 2 0.26923 0.829115 0.264263
15282 1 0.266719 0.836159 0.261252
17599 1 0.266108 0.838229 0.259808
17600 2 0.262924 0.843619 0.256267
8243 2 0.277624 0.81377 0.26899
8244 1 0.273967 0.819944 0.266993
11661 1 0.279835 0.819611 0.243285
9569 2 0.142856 0.872587 0.243984
5521 1 0.14498 0.87406 0.263372
20478 1 0.146133 0.863771 0.27303
4916 2 0.161986 0.860644 0.269263
17118 1 0.174723 0.874482 0.244015
14182 1 0.161547 0.85057 0.244747
14183 2 0.162804 0.853688 0.251677
14184 1 0.16157 0.85726 0.259173
4917 1 0.161637 0.858403 0.261735
6651 1 0.174427 0.864882 0.253739
6650 2 0.18126 0.861904 0.257192
7926 1 0.178373 0.874169 0.244092
14766 1 0.204898 0.855662 0.269234
17574 1 0.204786 0.845096 0.264934
6649 1 0.186691 0.86058 0.261886
14764 1 0.189455 0.859834 0.263801
14765 2 0.196435 0.858474 0.266936
17992 1 0.210272 0.861251 0.255385
1902 1 0.20995 0.864486 0.256357
1901 2 0.210434 0.872144 0.261406
17993 2 0.211402 0.85401 0.253241
12459 1 0.224216 0.874714 0.266937
16546 1 0.224749 0.863608 0.252545
16547 2 0.231823 0.865871 0.257078
17994 1 0.213603 0.845625 0.253158
16548 1 0.238198 0.866861 0.260413
17344 1 0.240642 0.866351 0.262213
17346 1 0.253375 0.865315 0.270829
7785 1 0.249508 0.862207 0.24356
7784 2 0.253205 0.858008 0.248599
17601 1 0.259976 0.849594 0.253005
7783 1 0.258233 0.851952 0.251503
17345 2 0.246274 0.866234 0.266686
14214 1 0.282097 0.844397 0.271229
9568 1 0.13873 0.876706 0.2491
5522 2 0.151329 0.878634 0.263245
1693 1 0.167513 0.899073 0.258463
17117 2 0.166776 0.875687 0.243518
1694 2 0.162944 0.8919 0.259977
1695 1 0.158072 0.886541 0.260926
5523 1 0.156119 0.884395 0.261671
10189 1 0.210831 0.898552 0.271743
1900 1 0.210707 0.879557 0.265594
10190 2 0.209936 0.891048 0.270397
10191 1 0.21061 0.882805 0.266827
10185 1 0.211173 0.901334 0.272176
21387 1 0.224012 0.904765 0.255264
21386 2 0.230137 0.900983 0.259978
8490 1 0.238609 0.896796 0.266039
21385 1 0.235688 0.897836 0.264378
8489 2 0.245435 0.893025 0.269614
8488 1 0.251012 0.889263 0.272373
166 1 0.277995 0.875943 0.269598
7868 2 0.276276 0.886306 0.264631
7869 1 0.276081 0.893967 0.261993
7867 1 0.277653 0.878513 0.267714
19083 1 0.144932 0.7775 0.300363
3544 1 0.150174 0.773083 0.27829
3546 1 0.164332 0.780791 0.276806
3545 3 0.158553 0.776347 0.277169
20505 1 0.209379 0.776353 0.301814
4072 1 0.150407 0.800143 0.292899
4603 1 0.17707 0.788993 0.302804
9874 1 0.166529 0.78322 0.27647
9875 3 0.172318 0.788931 0.276603
4073 2 0.153808 0.801925 0.299036
9876 1 0.176408 0.794463 0.276567
14086 1 0.163412 0.811805 0.290332
3427 1 0.178102 0.796772 0.276206
14070 1 0.204932 0.796068 0.291297
12411 1 0.193602 0.787657 0.295935
1423 1 0.183104 0.802468 0.297537
12410 2 0.188468 0.793312 0.297303
12409 1 0.184051 0.799404 0.297309
1424 2 0.182241 0.810168 0.298235
14069 2 0.202969 0.797391 0.283416
12474 1 0.188452 0.81076 0.274591
3429 1 0.187056 0.808501 0.274853
11456 2 0.204646 0.804177 0.302254
11455 1 0.206328 0.801227 0.295581
3428 2 0.182703 0.802677 0.275179
14068 1 0.200459 0.797426 0.275811
6749 2 0.231096 0.803474 0.300796
11351 2 0.225562 0.804987 0.278575
6750 1 0.235887 0.797783 0.29626
11352 1 0.23064 0.802322 0.285019
16382 2 0.243597 0.789632 0.27605
14548 1 0.246993 0.786663 0.285373
16381 1 0.246045 0.787371 0.283195
14549 3 0.25019 0.784875 0.292195
14550 1 0.254777 0.784165 0.299022
18924 1 0.257049 0.783418 0.301169
17070 1 0.257897 0.808312 0.291793
5991 1 0.145046 0.818556 0.297007
18919 1 0.142904 0.836796 0.297413
18920 2 0.145271 0.843835 0.301144
5990 2 0.137015 0.819662 0.301646
14104 1 0.147548 0.832326 0.276577
14087 2 0.161347 0.814793 0.282307
14088 1 0.162031 0.815876 0.27455
5909 2 0.176595 0.829286 0.300163
4942 1 0.171197 0.838919 0.303051
5910 1 0.172745 0.83672 0.302403
8303 2 0.173562 0.834895 0.279886
8304 1 0.170816 0.832448 0.286629
5908 1 0.179793 0.821729 0.299652
1425 1 0.180519 0.818676 0.29914
5917 1 0.201079 0.828553 0.289753
15340 1 0.19885 0.830815 0.290145
15341 2 0.194115 0.836021 0.290878
5918 2 0.206448 0.82248 0.29129
5919 1 0.211208 0.816596 0.293073
15342 1 0.189447 0.842277 0.291302
6366 1 0.226564 0.821835 0.286875
6365 2 0.225508 0.827414 0.280685
4174 1 0.217424 0.838738 0.303751
17493 1 0.237327 0.831782 0.294372
17492 2 0.238486 0.839393 0.296917
8605 1 0.250875 0.84244 0.277655
17069 2 0.259395 0.813345 0.285448
18642 1 0.259296 0.829949 0.302145
8607 1 0.266352 0.840531 0.274299
15250 1 0.247728 0.843439 0.277752
8606 2 0.258127 0.841871 0.276609
17068 1 0.262173 0.815755 0.279015
9025 1 0.281816 0.817952 0.286362
9026 2 0.279022 0.82482 0.287771
912 1 0.296296 0.838526 0.282517
14212 1 0.293803 0.839929 0.280697
911 2 0.302311 0.834621 0.285245
14213 2 0.28764 0.841741 0.275481
9027 1 0.276854 0.831832 0.287312
910 1 0.309321 0.831292 0.286187
20477 2 0.142499 0.863182 0.279629
14017 1 0.13717 0.862177 0.289659
20476 1 0.139154 0.862692 0.28602
14018 2 0.132999 0.862025 0.297249
14019 1 0.130398 0.86196 0.304178
503 2 0.161902 0.862746 0.289047
502 1 0.162594 0.862341 0.280283
4915 1 0.162295 0.862037 0.277106
2260 1 0.176964 0.856585 0.292454
504 1 0.162931 0.863067 0.297178
11520 1 0.179631 0.860501 0.279823
11519 2 0.179673 0.867889 0.277664
11518 1 0.178686 0.87508 0.275369
2261 2 0.182629 0.85157 0.291315
2262 1 0.187995 0.844876 0.291434
16765 1 0.206298 0.851471 0.277216
16766 2 0.204939 0.854667 0.285178
16767 1 0.205087 0.858103 0.292795
20631 1 0.204536 0.859606 0.295592
3133 1 0.194054 0.874622 0.277086
20630 2 0.202199 0.863893 0.302125
4176 1 0.213569 0.850292 0.295492
4175 2 0.216416 0.844405 0.299871
6020 2 0.224795 0.864963 0.296584
6019 1 0.218267 0.859817 0.295999
6021 1 0.230416 0.870288 0.300537
18676 1 0.232843 0.871861 0.302102
17491 1 0.241803 0.846136 0.299125
18000 1 0.216162 0.858217 0.273833
17999 2 0.22339 0.854661 0.274086
17998 1 0.229775 0.850889 0.275227
15252 1 0.232768 0.849319 0.275743
15251 2 0.239696 0.846412 0.275937
17008 1 0.24304 0.848705 0.299743
17009 2 0.245856 0.855672 0.301227
17010 1 0.250555 0.862033 0.302232
16822 1 0.252748 0.863888 0.302657
16823 2 0.259054 0.86899 0.301919
16824 1 0.26394 0.87513 0.300842
168 1 0.282079 0.866043 0.282373
167 2 0.279245 0.870277 0.275863
6779 2 0.143986 0.881802 0.302504
6780 1 0.149662 0.878473 0.297238
19214 2 0.178827 0.896498 0.280055
19213 1 0.18102 0.901235 0.273828
19215 1 0.17306 0.894372 0.28605
3135 1 0.20356 0.879465 0.288996
12931 1 0.205359 0.880293 0.291478
3134 2 0.199465 0.876826 0.282749
12932 2 0.211016 0.882067 0.296925
15067 1 0.190493 0.891414 0.304251
15068 2 0.192181 0.895739 0.297987
15069 1 0.197224 0.900135 0.291904
12457 1 0.230807 0.881339 0.280671
18499 1 0.231994 0.882721 0.283314
12933 1 0.217352 0.883233 0.302717
18500 2 0.235026 0.886063 0.289309
18501 1 0.23754 0.889624 0.29547
12458 2 0.228294 0.877685 0.273782
17985 1 0.253104 0.888019 0.273482
17983 1 0.267021 0.883745 0.280361
17984 2 0.259591 0.885715 0.277284
13180 1 0.265275 0.877531 0.300743
13181 2 0.268075 0.884713 0.299873
13182 1 0.27088 0.890964 0.297311
10183 1 0.211672 0.916889 0.275382
10184 2 0.210908 0.90869 0.273839
10419 1 0.254625 0.914022 0.299204
10418 2 0.262064 0.914782 0.302892
20504 2 0.204152 0.780957 0.308477
18923 3 0.262358 0.781224 0.308021
19082 2 0.141809 0.783871 0.304878
19081 1 0.140955 0.789376 0.309687
5145 1 0.140445 0.792067 0.311636
5144 2 0.14077 0.798876 0.316848
5143 1 0.144196 0.804906 0.321039
2338 1 0.145119 0.806659 0.322634
2339 2 0.147189 0.811533 0.327045
4604 2 0.171002 0.787624 0.307806
4605 1 0.166195 0.787364 0.314037
4074 1 0.158423 0.803992 0.304891
5895 1 0.160207 0.805372 0.306792
14175 1 0.155219 0.786636 0.328587
14173 1 0.164587 0.787267 0.316457
14174 2 0.160692 0.787602 0.322839
5894 2 0.165744 0.808431 0.312101
5770 1 0.172188 0.812453 0.319703
5893 1 0.170263 0.811115 0.317764
1238 2 0.18019 0.796295 0.330838
20503 1 0.19977 0.785351 0.312885
6661 1 0.197913 0.78696 0.315151
1237 1 0.184446 0.793025 0.325569
6663 1 0.186574 0.79233 0.323775
6662 2 0.192234 0.790818 0.319427
13718 2 0.2124 0.807692 0.334265
11457 1 0.202599 0.808221 0.309508
9756 1 0.201275 0.809302 0.311779
9755 2 0.197774 0.812443 0.319499
6748 1 0.226732 0.809103 0.304573
15792 1 0.236789 0.804914 0.313692
993 1 0.215378 0.789669 0.315659
992 2 0.216201 0.797266 0.319065
991 1 0.214385 0.802928 0.324933
13719 1 0.213546 0.804471 0.327232
15791 2 0.24041 0.811513 0.316937
18922 1 0.268507 0.781838 0.3132
828 1 0.0936355 0.820187 0.319924
827 2 0.101923 0.82036 0.322219
826 1 0.109658 0.823249 0.324504
11950 1 0.11269 0.824608 0.324766
11951 2 0.118764 0.8285 0.325625
5989 1 0.131401 0.822562 0.306007
11952 1 0.124886 0.833299 0.325309
3552 1 0.127768 0.834361 0.325326
3551 2 0.135583 0.83828 0.325106
3550 1 0.143224 0.841694 0.325504
117 1 0.145957 0.84244 0.325576
17133 1 0.148829 0.823382 0.311827
5771 2 0.177431 0.815554 0.32512
2340 1 0.1518 0.817332 0.330993
9945 1 0.153611 0.819752 0.332442
17132 2 0.156552 0.826807 0.313812
760 1 0.166306 0.832801 0.31897
17131 1 0.163622 0.83151 0.317605
761 2 0.173178 0.835397 0.322327
762 1 0.178431 0.839245 0.326467
8682 1 0.180791 0.840952 0.328406
5772 1 0.182471 0.819347 0.330532
1741 1 0.183849 0.820729 0.332531
9754 1 0.194359 0.813261 0.326546
19217 2 0.203292 0.83266 0.311821
19218 1 0.197304 0.837089 0.31149
19216 1 0.210784 0.828931 0.311957
4481 2 0.205458 0.83655 0.330885
4482 1 0.202292 0.830648 0.33459
2126 2 0.188839 0.843963 0.310201
2125 1 0.195256 0.838363 0.311
4480 1 0.207156 0.842991 0.325896
4132 1 0.212995 0.827234 0.311928
4133 2 0.220174 0.822871 0.312186
4134 1 0.227035 0.8196 0.312179
5896 1 0.225387 0.821444 0.323641
5897 2 0.226653 0.824205 0.330952
9099 1 0.233321 0.832473 0.31381
9098 2 0.233042 0.838575 0.319121
18106 1 0.239026 0.83654 0.331967
15790 1 0.244827 0.817195 0.320996
706 1 0.247107 0.819601 0.322303
707 2 0.252874 0.823448 0.325418
18641 2 0.258052 0.836331 0.306651
21320 2 0.266187 0.834601 0.329613
708 1 0.258884 0.828638 0.327112
21321 1 0.26101 0.830571 0.327576
18640 1 0.256508 0.84157 0.312269
181 1 0.255723 0.843183 0.313912
21319 1 0.272605 0.837552 0.33288
16312 1 0.279579 0.824151 0.305606
16314 1 0.278948 0.839964 0.311155
16313 2 0.279446 0.832432 0.308598
2187 1 0.277827 0.842912 0.312625
8891 2 0.287129 0.837203 0.3303
8892 1 0.290517 0.831235 0.328248
8890 1 0.283558 0.84276 0.333387
18547 1 0.119037 0.86395 0.319094
18921 1 0.148185 0.849889 0.305087
5964 1 0.148906 0.852629 0.305988
18549 1 0.128608 0.861344 0.307196
18548 2 0.124272 0.861643 0.314654
5963 2 0.151651 0.859273 0.307518
13856 2 0.139852 0.866824 0.328886
13855 1 0.134344 0.861294 0.324556
13857 1 0.146134 0.872951 0.330231
4943 2 0.166725 0.845504 0.304743
4944 1 0.164557 0.853066 0.304862
16078 1 0.174392 0.858393 0.306563
16079 2 0.178442 0.864551 0.30843
5962 1 0.155474 0.865666 0.308849
3115 1 0.157377 0.868047 0.309961
3116 2 0.160124 0.87461 0.3126
116 2 0.15341 0.846105 0.326351
115 1 0.158858 0.852961 0.327217
15052 1 0.160628 0.85488 0.327088
15053 2 0.167423 0.858635 0.326726
15054 1 0.174591 0.862047 0.327979
20310 1 0.177354 0.863572 0.328732
2127 1 0.182345 0.848642 0.308331
20309 2 0.183141 0.866531 0.330423
8681 2 0.186769 0.845046 0.331959
20308 1 0.19088 0.870499 0.332148
16080 1 0.182683 0.870594 0.310266
11115 1 0.207698 0.845536 0.323836
11114 2 0.208623 0.853086 0.320048
20629 1 0.200356 0.867574 0.309741
11113 1 0.21198 0.859957 0.317742
2935 1 0.184461 0.872861 0.310823
11212 1 0.193516 0.871932 0.332897
8680 1 0.192423 0.849246 0.335392
9097 1 0.233438 0.844429 0.325428
10644 1 0.213219 0.862854 0.317012
10643 2 0.216758 0.870633 0.315588
16834 1 0.240503 0.872296 0.335606
17643 1 0.24109 0.869498 0.334095
7930 1 0.215937 0.862003 0.334889
182 2 0.253308 0.848125 0.319454
183 1 0.249786 0.85368 0.324057
17642 2 0.244511 0.861562 0.329881
17641 1 0.248589 0.855889 0.325489
13712 2 0.268231 0.866288 0.323902
13713 1 0.271568 0.859221 0.320457
2185 1 0.272372 0.856415 0.31882
13711 1 0.266301 0.873695 0.328037
2186 2 0.275166 0.849467 0.315492
4999 1 0.282099 0.84475 0.334665
19711 1 0.135805 0.886151 0.309784
19712 2 0.131458 0.888069 0.315819
12833 2 0.125622 0.889737 0.332559
6778 1 0.137867 0.884815 0.307441
19713 1 0.128675 0.889408 0.322499
12832 1 0.127539 0.889313 0.325263
3117 1 0.163986 0.881097 0.315343
8925 1 0.165613 0.884214 0.316479
1676 2 0.178544 0.905076 0.324716
8924 2 0.170808 0.890416 0.319265
8923 1 0.175423 0.89596 0.322646
1675 1 0.176989 0.898461 0.323591
19655 2 0.152385 0.884555 0.332687
19654 1 0.156787 0.88586 0.326232
2937 1 0.191764 0.884807 0.316848
2936 2 0.188786 0.878504 0.312791
21401 2 0.197404 0.891903 0.320157
21400 1 0.193336 0.887045 0.317822
21402 1 0.202813 0.897683 0.323121
11213 2 0.199704 0.87573 0.334038
18677 2 0.237833 0.87584 0.305895
10642 1 0.22017 0.877604 0.315795
15379 1 0.221007 0.87991 0.3159
15380 2 0.22536 0.886834 0.317161
15381 1 0.228039 0.893614 0.318022
18678 1 0.24377 0.879006 0.310925
8046 1 0.246231 0.879706 0.312792
8044 1 0.257654 0.883631 0.322842
8045 2 0.252355 0.88209 0.317085
15787 1 0.259756 0.884305 0.325167
15788 2 0.264317 0.886598 0.332361
3212 2 0.247154 0.89831 0.335628
10140 1 0.243899 0.906155 0.310033
10139 2 0.245196 0.902953 0.317469
10138 1 0.245885 0.900722 0.324941
3211 1 0.246323 0.899815 0.327743
10202 2 0.175213 0.929956 0.318368
10203 1 0.181967 0.931734 0.315223
1677 1 0.179601 0.912659 0.328097
10201 1 0.168178 0.926108 0.320558
9119 2 0.20022 0.906829 0.33481
9118 1 0.205047 0.913123 0.3355
67 1 0.206624 0.91573 0.335646
400 1 0.22559 0.907768 0.317046
4498 1 0.232285 0.917091 0.331357
401 2 0.227633 0.91149 0.323902
402 1 0.231127 0.915883 0.329574
10417 1 0.269178 0.914695 0.307911
12115 1 0.181401 0.950923 0.32515
12116 2 0.18437 0.945913 0.330083
12117 1 0.185203 0.939255 0.335576
9088 1 0.238453 0.780285 0.349904
5092 1 0.126915 0.806383 0.356337
1239 1 0.176572 0.801672 0.336288
14242 1 0.175467 0.803733 0.338591
14243 2 0.171439 0.809245 0.342899
14244 1 0.168375 0.812763 0.348177
1645 1 0.193653 0.79516 0.342419
1646 2 0.192298 0.801544 0.347134
1647 1 0.189548 0.807415 0.353011
17728 1 0.188778 0.810044 0.354282
2970 1 0.227802 0.796007 0.340055
2969 2 0.229404 0.803197 0.345829
9952 1 0.213865 0.810869 0.345504
13717 1 0.213558 0.810155 0.342259
2968 1 0.230433 0.81016 0.349854
9089 2 0.244932 0.784598 0.352098
9090 1 0.25122 0.787905 0.352504
3001 1 0.115856 0.82963 0.358928
3002 2 0.119034 0.837193 0.356821
3802 1 0.131055 0.814146 0.341325
5093 2 0.130213 0.813206 0.360256
5094 1 0.133257 0.818461 0.364496
13303 1 0.134503 0.820932 0.366247
3803 2 0.132916 0.821638 0.340695
3804 1 0.134586 0.829695 0.342247
1959 1 0.135392 0.832611 0.343534
1958 2 0.138981 0.839522 0.346806
3003 1 0.12253 0.844031 0.353521
13360 1 0.166598 0.814618 0.350564
9944 2 0.158262 0.825741 0.336044
13361 2 0.163882 0.819051 0.355202
16911 1 0.161441 0.819956 0.36572
13362 1 0.162255 0.819744 0.362885
9943 1 0.161607 0.831517 0.338941
5329 1 0.163203 0.833161 0.339629
5330 2 0.168159 0.838946 0.342745
12271 1 0.15662 0.828608 0.363466
20568 1 0.181064 0.825453 0.35988
20567 2 0.177086 0.833208 0.360314
20566 1 0.173055 0.839093 0.362945
12272 2 0.156203 0.837049 0.363335
17729 2 0.18592 0.816867 0.357084
1742 2 0.188155 0.824185 0.338399
17730 1 0.182299 0.822666 0.359184
1743 1 0.193356 0.82837 0.343158
17041 1 0.19484 0.829519 0.344509
17042 2 0.199362 0.833077 0.349641
17043 1 0.203199 0.838408 0.353907
20104 1 0.204724 0.840565 0.355895
9954 1 0.210078 0.817128 0.360765
21573 1 0.209175 0.81794 0.363066
9953 2 0.213462 0.81403 0.353642
5898 1 0.228051 0.827317 0.33828
5808 1 0.227754 0.827848 0.341288
5807 2 0.228089 0.828585 0.349536
5806 1 0.227104 0.829762 0.357883
7059 1 0.227191 0.830405 0.361133
15746 3 0.256336 0.824438 0.366322
18107 2 0.244558 0.839186 0.336725
18108 1 0.248998 0.84146 0.341785
14461 1 0.250943 0.842348 0.344037
15747 1 0.259405 0.831996 0.366577
18769 1 0.0936922 0.870647 0.360181
16474 1 0.123732 0.873256 0.367065
1018 1 0.123097 0.846742 0.35272
1020 1 0.128454 0.860402 0.351046
1019 2 0.124807 0.85439 0.349913
1957 1 0.142763 0.846084 0.347787
19122 1 0.144053 0.848358 0.347859
19121 2 0.1479 0.855019 0.349263
16475 2 0.129204 0.874457 0.361702
5331 1 0.173688 0.845389 0.345759
3934 1 0.175328 0.848333 0.347016
19120 1 0.152926 0.861929 0.349161
17073 1 0.155042 0.864127 0.348726
3935 2 0.178187 0.854291 0.349643
17072 2 0.160191 0.869397 0.347679
3936 1 0.181672 0.86028 0.351865
12273 1 0.157757 0.844403 0.364245
795 1 0.158359 0.846779 0.36419
793 1 0.161464 0.862067 0.364732
794 2 0.161072 0.854232 0.364685
10579 1 0.183103 0.862418 0.353102
20105 2 0.208669 0.84564 0.361376
10932 1 0.19376 0.850052 0.336807
10580 2 0.186622 0.869296 0.355872
10931 2 0.19777 0.853514 0.342141
17040 1 0.203515 0.860747 0.349667
10930 1 0.20236 0.858743 0.347717
17039 2 0.207809 0.865611 0.354939
20106 1 0.212334 0.850387 0.366522
17038 1 0.209682 0.871118 0.359436
18565 1 0.210837 0.872961 0.361643
7074 1 0.190521 0.854142 0.359367
7073 2 0.187745 0.849628 0.366186
19265 2 0.232026 0.858647 0.355383
19266 1 0.227745 0.860048 0.348884
7932 1 0.226181 0.860386 0.346827
7931 2 0.221561 0.860021 0.340601
19264 1 0.237129 0.855662 0.361262
19170 1 0.238824 0.854681 0.362963
14462 2 0.256731 0.846011 0.348646
14463 1 0.262693 0.848869 0.352077
5001 1 0.272114 0.857119 0.338214
11092 1 0.263341 0.866774 0.357891
19624 1 0.263901 0.866892 0.355133
19625 2 0.265191 0.867164 0.346839
19626 1 0.265086 0.867433 0.339403
19169 2 0.245249 0.850579 0.366906
11093 2 0.260648 0.866967 0.365794
5000 2 0.277885 0.851017 0.337528
5553 1 0.278041 0.85165 0.362702
5552 2 0.280504 0.858889 0.363516
5551 1 0.283129 0.866578 0.365072
13126 1 0.28463 0.869419 0.365788
18770 2 0.0968796 0.877585 0.359819
18771 1 0.100688 0.884882 0.360592
20020 1 0.121198 0.904991 0.354729
12834 1 0.122329 0.890576 0.339835
20021 2 0.1227 0.897077 0.353996
20022 1 0.124135 0.889181 0.352479
16476 1 0.133901 0.875898 0.355943
16627 1 0.135807 0.876616 0.353727
16628 2 0.139819 0.879012 0.34699
16629 1 0.144797 0.881643 0.340795
19656 1 0.146929 0.882772 0.338028
6177 1 0.155852 0.88165 0.365989
17071 1 0.16523 0.875475 0.344414
322 1 0.16712 0.877232 0.34355
6273 1 0.157852 0.883431 0.365143
6272 2 0.164479 0.888126 0.363433
6271 1 0.169371 0.894482 0.360754
20067 1 0.171379 0.896277 0.359626
323 2 0.172684 0.881943 0.341961
324 1 0.179095 0.886197 0.341363
5857 1 0.181185 0.887934 0.340834
20066 2 0.176461 0.902188 0.357062
10581 1 0.187541 0.876891 0.359165
11214 1 0.20621 0.879521 0.33751
21039 1 0.208658 0.880892 0.337838
5858 2 0.186944 0.893532 0.338642
5859 1 0.192767 0.898658 0.336606
10663 1 0.187675 0.879225 0.360462
9120 1 0.194628 0.900872 0.33606
10664 2 0.189586 0.885231 0.36464
16835 2 0.237415 0.877716 0.340903
16836 1 0.235209 0.883921 0.34665
21038 2 0.215678 0.884809 0.340034
5173 1 0.233885 0.886801 0.34859
21037 1 0.22271 0.887493 0.340759
18566 2 0.213745 0.878946 0.366773
5174 2 0.230695 0.893645 0.353275
5175 1 0.227595 0.897322 0.359009
15789 1 0.268353 0.887276 0.339411
16464 1 0.269927 0.887076 0.342382
7244 2 0.253225 0.895236 0.353211
7245 1 0.25668 0.893076 0.360365
7941 1 0.257451 0.892771 0.362646
7243 1 0.250068 0.896121 0.346034
3213 1 0.249066 0.89665 0.343128
16463 2 0.27274 0.887154 0.349075
13127 2 0.288455 0.875542 0.365679
16462 1 0.276297 0.889554 0.357337
11690 2 0.295506 0.896344 0.35454
11689 1 0.302041 0.900337 0.359134
11691 1 0.289356 0.893196 0.350491
10791 1 0.166431 0.926767 0.361046
19297 1 0.165318 0.925402 0.363247
10790 2 0.168489 0.930396 0.35408
10789 1 0.170849 0.935108 0.347221
20065 1 0.18221 0.907455 0.356457
12002 2 0.188167 0.931471 0.342258
12003 1 0.190427 0.927253 0.348863
12534 1 0.191285 0.925595 0.351392
12533 2 0.192548 0.922734 0.358761
68 2 0.209298 0.922418 0.335968
69 1 0.211892 0.931312 0.33816
12001 1 0.185526 0.936326 0.337187
12532 1 0.190154 0.919948 0.36598
4500 1 0.238907 0.923874 0.344518
4499 2 0.234632 0.920249 0.338036
2193 1 0.212721 0.93408 0.338331
2192 3 0.213607 0.940969 0.34139
2191 1 0.214577 0.946701 0.345419
12470 3 0.246963 0.937979 0.363836
12471 1 0.247101 0.945529 0.360262
5080 1 0.103572 0.821369 0.383854
17616 1 0.113499 0.835833 0.377635
5082 1 0.111535 0.833766 0.377986
5081 2 0.107367 0.828103 0.380758
17615 2 0.120731 0.841505 0.379148
13304 2 0.137287 0.826908 0.370547
13305 1 0.141883 0.831798 0.374787
13506 1 0.142896 0.83412 0.376214
13505 2 0.145223 0.841572 0.378789
16910 2 0.158068 0.818564 0.373003
16909 1 0.153136 0.818066 0.378896
21572 2 0.205408 0.820294 0.368959
21571 1 0.200908 0.822022 0.374017
12814 1 0.199219 0.823647 0.376434
12815 2 0.194753 0.82905 0.382067
12816 1 0.189666 0.83528 0.387033
7058 2 0.227437 0.831959 0.369233
7057 1 0.224494 0.83311 0.376477
17934 1 0.223056 0.833786 0.379262
17933 2 0.220189 0.834986 0.386773
17932 1 0.218874 0.833524 0.393877
15745 1 0.251812 0.817655 0.367677
5773 1 0.106247 0.874305 0.378082
5774 2 0.113747 0.874039 0.37406
5775 1 0.121401 0.872835 0.368942
11928 1 0.123588 0.852388 0.398054
17614 1 0.127174 0.846616 0.381222
13504 1 0.147606 0.847935 0.381875
16771 1 0.148547 0.850559 0.383208
11927 2 0.126192 0.855918 0.39233
11926 1 0.129927 0.860554 0.387045
16876 1 0.131363 0.862639 0.385098
16877 2 0.135827 0.867065 0.379632
16878 1 0.142119 0.870519 0.374637
6175 1 0.144366 0.871474 0.372833
16579 1 0.135344 0.864079 0.398127
16772 2 0.152918 0.857366 0.387227
16773 1 0.15694 0.863347 0.389953
4723 1 0.176601 0.859539 0.386253
15442 1 0.177092 0.862765 0.38674
4724 2 0.176144 0.852049 0.383241
4725 1 0.174002 0.84506 0.381099
15443 2 0.177487 0.869984 0.386738
7072 1 0.184848 0.845029 0.371822
6034 1 0.197645 0.865062 0.38311
2400 1 0.197979 0.86471 0.385914
6035 2 0.196891 0.867781 0.375585
2399 2 0.198997 0.864149 0.394036
6036 1 0.19719 0.870416 0.367467
7557 1 0.213703 0.852297 0.368419
7556 2 0.217469 0.856146 0.373423
7555 1 0.221844 0.859704 0.379125
16780 1 0.224027 0.861577 0.380723
16781 2 0.228965 0.866491 0.3845
16782 1 0.232578 0.871832 0.389306
1665 1 0.233321 0.87381 0.391619
11094 1 0.258356 0.867764 0.372896
13879 1 0.257246 0.868488 0.376025
19168 1 0.251803 0.847768 0.372403
13880 2 0.253811 0.868049 0.383094
13881 1 0.248845 0.866324 0.388421
1339 1 0.268914 0.848591 0.379914
1341 1 0.279269 0.851441 0.391786
1340 2 0.273157 0.850624 0.386443
6176 2 0.150087 0.876091 0.369831
15444 1 0.1791 0.87808 0.385581
11091 1 0.194712 0.892555 0.370314
10665 1 0.1933 0.890459 0.36858
11090 2 0.198725 0.89584 0.375148
11089 1 0.202856 0.900431 0.379402
3732 1 0.239085 0.878054 0.375901
3731 2 0.238897 0.883469 0.37151
3730 1 0.238012 0.891246 0.369158
18567 1 0.215766 0.884575 0.371968
10659 1 0.216798 0.886822 0.373694
10658 2 0.220349 0.89189 0.378409
10657 1 0.225278 0.897541 0.38226
1664 2 0.236023 0.878216 0.398185
7940 2 0.26332 0.890605 0.368759
9219 1 0.247294 0.888491 0.389805
9218 2 0.253281 0.889378 0.394144
8097 1 0.269224 0.888353 0.377265
7939 1 0.267639 0.888877 0.374873
13128 1 0.29258 0.881368 0.369696
10974 1 0.293396 0.883632 0.371446
8095 1 0.274068 0.887165 0.391398
7204 1 0.274155 0.887344 0.394416
8096 2 0.273095 0.886673 0.383868
10973 2 0.2958 0.889475 0.376167
10972 1 0.299861 0.895518 0.380544
16906 1 0.300935 0.89761 0.382366
16907 2 0.304227 0.902614 0.388669
19298 2 0.161236 0.92202 0.369163
19299 1 0.157529 0.916874 0.374125
16308 1 0.227511 0.907163 0.389724
16307 2 0.233017 0.911795 0.384725
16306 1 0.238292 0.915037 0.379366
18306 1 0.24067 0.916642 0.377278
12469 1 0.246559 0.931201 0.368014
18304 1 0.246054 0.928067 0.369956
18305 3 0.244257 0.92212 0.373864
4873 1 0.268223 0.923823 0.376542
4875 1 0.277622 0.910251 0.373444
4874 3 0.273431 0.916494 0.376968
16908 1 0.306561 0.906931 0.394896
16137 1 0.105787 0.832334 0.421935
16136 3 0.111369 0.834827 0.416492
16135 1 0.114824 0.838616 0.412506
14782 1 0.116298 0.840797 0.410141
14783 2 0.119649 0.845043 0.4049
14784 1 0.122328 0.850529 0.400094
16580 2 0.135988 0.872259 0.400498
9651 1 0.145127 0.850378 0.410026
9650 2 0.149211 0.856787 0.407276
7388 2 0.160749 0.872824 0.403064
7389 1 0.156175 0.864914 0.404106
9649 1 0.154574 0.862414 0.404744
2398 1 0.198395 0.864296 0.402111
12528 1 0.248712 0.873605 0.405681
227 2 0.281156 0.8665 0.399048
228 1 0.282468 0.874229 0.399407
226 1 0.280931 0.857959 0.398895
16581 1 0.137158 0.879285 0.402886
19903 1 0.173206 0.895582 0.400039
7387 1 0.164048 0.879433 0.402497
19904 2 0.168844 0.889363 0.402204
19905 1 0.165327 0.881953 0.40217
1663 1 0.239718 0.884049 0.40209
9328 1 0.224476 0.90333 0.420649
9329 2 0.226259 0.898283 0.41506
9330 1 0.229409 0.895852 0.409134
9217 1 0.260263 0.889756 0.40094
18954 1 0.251512 0.885646 0.41977
18953 2 0.253764 0.890616 0.425738
12526 1 0.250945 0.883483 0.417415
12527 2 0.250656 0.877583 0.412156
7206 1 0.273586 0.888445 0.411996
7205 2 0.273599 0.887432 0.40324
5308 1 0.257585 0.904021 0.448633
11314 1 0.257371 0.905077 0.45167
5309 3 0.256861 0.900265 0.44251
18952 1 0.255151 0.89467 0.432586
5310 1 0.255642 0.896373 0.435904
11315 3 0.2559 0.908133 0.458205
11316 1 0.252477 0.911787 0.464925
