ITEM: TIMESTEP
0
ITEM: NUMBER OF ATOMS
855
ITEM: BOX BOUNDS pp pp pp
0.0000000000000000e+00 5.0000000000000000e+01
0.0000000000000000e+00 5.0000000000000000e+01
0.0000000000000000e+00 5.0000000000000000e+01
ITEM: ATOMS id type 
487 1 
488 2 
489 1 
1387 1 
1388 2 
1389 1 
2527 1 
2528 2 
2529 1 
3301 1 
3302 2 
3303 1 
3664 1 
3665 2 
3666 1 
4330 1 
4331 2 
4332 1 
4564 1 
4565 2 
4566 1 
4807 1 
4808 2 
4809 1 
5590 1 
5591 2 
5592 1 
5704 1 
5705 2 
5706 1 
6841 1 
6842 2 
6843 1 
7027 1 
7028 2 
7029 1 
7747 1 
7748 2 
7749 1 
8944 1 
8945 2 
8946 1 
9007 1 
9008 2 
9009 1 
9121 1 
9122 2 
9123 1 
433 1 
434 2 
435 1 
1219 1 
1220 2 
1221 1 
1336 1 
1337 2 
1338 1 
1342 1 
1343 2 
1344 1 
2233 1 
2234 2 
2235 1 
2293 1 
2294 2 
2295 1 
2356 1 
2357 2 
2358 1 
2539 1 
2540 2 
2541 1 
2602 1 
2603 2 
2604 1 
3553 1 
3554 2 
3555 1 
3739 1 
3740 2 
3741 1 
4576 1 
4577 2 
4578 1 
4762 1 
4763 2 
4764 1 
5836 1 
5837 2 
5838 1 
6022 1 
6023 2 
6024 1 
6682 1 
6683 2 
6684 1 
6742 1 
6743 3 
6744 1 
6862 1 
6863 2 
6864 1 
6916 1 
6917 2 
6918 1 
7222 1 
7223 2 
7224 1 
7762 1 
7763 2 
7764 1 
8236 1 
8237 2 
8238 1 
9076 1 
9077 2 
9078 1 
325 1 
326 2 
327 1 
331 1 
332 2 
333 1 
448 1 
449 2 
450 1 
511 1 
512 2 
513 1 
1588 1 
1589 2 
1590 1 
2368 1 
2369 2 
2370 1 
2425 1 
2426 2 
2427 1 
3205 1 
3206 2 
3207 1 
3271 1 
3272 2 
3273 1 
4654 1 
4655 2 
4656 1 
6751 1 
6752 2 
6753 1 
6988 1 
6989 2 
6990 1 
7174 1 
7175 2 
7176 1 
7234 1 
7235 2 
7236 1 
8185 1 
8186 2 
8187 1 
8905 1 
8906 2 
8907 1 
9271 1 
9272 2 
9273 1 
9334 1 
9335 2 
9336 1 
10345 1 
10346 2 
10347 1 
10414 1 
10415 2 
10416 1 
337 1 
338 2 
339 1 
1183 1 
1184 2 
1185 1 
2626 1 
2627 2 
2628 1 
3340 1 
3341 2 
3342 1 
3343 1 
3344 2 
3345 1 
3466 1 
3467 2 
3468 1 
4726 1 
4727 2 
4728 1 
4786 1 
4787 2 
4788 1 
5563 1 
5564 2 
5565 1 
5626 1 
5627 2 
5628 1 
8200 1 
8201 2 
8202 1 
478 1 
479 2 
480 1 
1432 1 
1433 2 
1434 1 
1618 1 
1619 2 
1620 1 
2572 1 
2573 2 
2574 1 
3229 1 
3230 2 
3231 1 
3289 1 
3290 2 
3291 1 
4375 1 
4376 2 
4377 1 
5689 1 
5690 2 
5691 1 
5812 1 
5813 2 
5814 1 
6829 1 
6830 2 
6831 1 
10375 1 
10376 2 
10377 1 
661 1 
662 2 
663 1 
3064 1 
3065 2 
3066 1 
3787 1 
3788 2 
3789 1 
4261 1 
4262 2 
4263 1 
5050 1 
5051 2 
5052 1 
5221 1 
5222 2 
5223 1 
5230 1 
5231 2 
5232 1 
5404 1 
5405 2 
5406 1 
6127 1 
6128 2 
6129 1 
6184 1 
6185 2 
6186 1 
6541 1 
6542 2 
6543 1 
6601 1 
6602 2 
6603 1 
8461 1 
8462 2 
8463 1 
8587 1 
8588 2 
8589 1 
9427 1 
9428 3 
9429 1 
9901 1 
9902 2 
9903 1 
10864 1 
10865 2 
10866 1 
553 1 
554 2 
555 1 
799 1 
800 2 
801 1 
1936 1 
1937 2 
1938 1 
2119 1 
2120 2 
2121 1 
2716 1 
2717 2 
2718 1 
3079 1 
3080 2 
3081 1 
4102 1 
4103 2 
4104 1 
5122 1 
5123 2 
5124 1 
5359 1 
5360 2 
5361 1 
6073 1 
6074 2 
6075 1 
6556 1 
6557 2 
6558 1 
7639 1 
7640 2 
7641 1 
7642 1 
7643 2 
7644 1 
7699 1 
7700 2 
7701 1 
8473 1 
8474 2 
8475 1 
9862 1 
9863 2 
9864 1 
11059 1 
11060 2 
11061 1 
814 1 
815 2 
816 1 
1051 1 
1052 2 
1053 1 
2791 1 
2792 2 
2793 1 
3085 1 
3086 2 
3087 1 
3991 1 
3992 2 
3993 1 
6154 1 
6155 2 
6156 1 
6214 1 
6215 2 
6216 1 
6574 1 
6575 2 
6576 1 
6631 1 
6632 2 
6633 1 
7291 1 
7292 2 
7293 1 
8494 1 
8495 2 
8496 1 
8554 1 
8555 2 
8556 1 
9685 1 
9686 2 
9687 1 
9868 1 
9869 2 
9870 1 
10588 1 
10589 2 
10590 1 
10834 1 
10835 2 
10836 1 
11008 1 
11009 2 
11010 1 
577 1 
578 2 
579 1 
703 1 
704 2 
705 1 
943 1 
944 2 
945 1 
1717 1 
1718 2 
1719 1 
5086 1 
5087 3 
5088 1 
5257 1 
5258 2 
5259 1 
5320 1 
5321 2 
5322 1 
5383 1 
5384 2 
5385 1 
6406 1 
6407 2 
6408 1 
6586 1 
6587 2 
6588 1 
7357 1 
7358 2 
7359 1 
8803 1 
8804 2 
8805 1 
9760 1 
9761 2 
9762 1 
9880 1 
9881 2 
9882 1 
3835 1 
3836 3 
3837 1 
3892 1 
3893 2 
3894 1 
3895 1 
3896 3 
3897 1 
4249 1 
4250 2 
4251 1 
4255 1 
4256 2 
4257 1 
4312 1 
4313 2 
4314 1 
4969 1 
4970 2 
4971 1 
5209 1 
5210 2 
5211 1 
7738 1 
7739 2 
7740 1 
11464 1 
11465 2 
11466 1 
12070 1 
12071 2 
12072 1 
13564 1 
13565 2 
13566 1 
15484 1 
15485 2 
15486 1 
15544 1 
15545 2 
15546 1 
15550 1 
15551 2 
15552 1 
17524 1 
17525 2 
17526 1 
18727 1 
18728 2 
18729 1 
18787 1 
18788 2 
18789 1 
20830 1 
20831 2 
20832 1 
21010 1 
21011 2 
21012 1 
11353 1 
11354 2 
11355 1 
11422 1 
11423 2 
11424 1 
12502 1 
12503 2 
12504 1 
14299 1 
14300 2 
14301 1 
14359 1 
14360 2 
14361 1 
15376 1 
15377 2 
15378 1 
15553 1 
15554 2 
15555 1 
15742 1 
15743 2 
15744 1 
16522 1 
16523 2 
16524 1 
17539 1 
17540 2 
17541 1 
18673 1 
18674 3 
18675 1 
20533 1 
20534 2 
20535 1 
13348 1 
13349 2 
13350 1 
13585 1 
13586 2 
13587 1 
15445 1 
15446 2 
15447 1 
15511 1 
15512 2 
15513 1 
17794 1 
17795 2 
17796 1 
18811 1 
18812 2 
18813 1 
20851 1 
20852 2 
20853 1 
13426 1 
13427 2 
13428 1 
14257 1 
14258 2 
14259 1 
14317 1 
14318 2 
14319 1 
14557 1 
14558 2 
14559 1 
15406 1 
15407 2 
15408 1 
15457 1 
15458 2 
15459 1 
15517 1 
15518 2 
15519 1 
15643 1 
15644 2 
15645 1 
16603 1 
16604 2 
16605 1 
16606 1 
16607 2 
16608 1 
17377 1 
17378 2 
17379 1 
17563 1 
17564 2 
17565 1 
17626 1 
17627 2 
17628 1 
19846 1 
19847 2 
19848 1 
20683 1 
20684 3 
20685 1 
21046 1 
21047 2 
21048 1 
11218 1 
11219 2 
11220 1 
11389 1 
11390 2 
11391 1 
12295 1 
12296 2 
12297 1 
12598 1 
12599 2 
12600 1 
13192 1 
13193 2 
13194 1 
13429 1 
13430 2 
13431 1 
15415 1 
15416 2 
15417 1 
16438 1 
16439 2 
16440 1 
16609 1 
16610 2 
16611 1 
17392 1 
17393 2 
17394 1 
17815 1 
17816 2 
17817 1 
18529 1 
18530 2 
18531 1 
18892 1 
18893 2 
18894 1 
19609 1 
19610 2 
19611 1 
19618 1 
19619 2 
19620 1 
19675 1 
19676 2 
19677 1 
20575 1 
20576 2 
20577 1 
20578 1 
20579 2 
20580 1 
21058 1 
21059 2 
21060 1 
11530 1 
11531 2 
11532 1 
11584 1 
11585 2 
11586 1 
11761 1 
11762 2 
11763 1 
11941 1 
11942 2 
11943 1 
12784 1 
12785 2 
12786 1 
12901 1 
12902 2 
12903 1 
13087 1 
13088 2 
13089 1 
17230 1 
17231 2 
17232 1 
17821 1 
17822 2 
17823 1 
17884 1 
17885 2 
17886 1 
17890 1 
17891 2 
17892 1 
18310 1 
18311 2 
18312 1 
19030 1 
19031 2 
19032 1 
11593 1 
11594 2 
11595 1 
11722 1 
11723 2 
11724 1 
12916 1 
12917 2 
12918 1 
13039 1 
13040 3 
13041 1 
13639 1 
13640 2 
13641 1 
14836 1 
14837 2 
14838 1 
15199 1 
15200 2 
15201 1 
16879 1 
16880 2 
16881 1 
17839 1 
17840 2 
17841 1 
11728 1 
11729 2 
11730 1 
11794 1 
11795 2 
11796 1 
11968 1 
11969 2 
11970 1 
12928 1 
12929 3 
12930 1 
14008 1 
14009 2 
14010 1 
15988 1 
15989 2 
15990 1 
17248 1 
17249 2 
17250 1 
18025 1 
18026 2 
18027 1 
18085 1 
18086 2 
18087 1 
19348 1 
19349 2 
19350 1 
20251 1 
20252 2 
20253 1 
21145 1 
21146 2 
21147 1 
21271 1 
21272 2 
21273 1 
21391 1 
21392 2 
21393 1 
12703 1 
12704 2 
12705 1 
13123 1 
13124 2 
13125 1 
13780 1 
13781 2 
13782 1 
13960 1 
13961 2 
13962 1 
14206 1 
14207 3 
14208 1 
15106 1 
15107 2 
15108 1 
16006 1 
16007 2 
16008 1 
16846 1 
16847 2 
16848 1 
16903 1 
16904 2 
16905 1 
17866 1 
17867 2 
17868 1 
17920 1 
17921 2 
17922 1 
19057 1 
19058 2 
19059 1 
19360 1 
19361 2 
19362 1 
20200 1 
20201 2 
20202 1 
21097 1 
21098 2 
21099 1 
21337 1 
21338 2 
21339 1 
11638 1 
11639 2 
11640 1 
11749 1 
11750 2 
11751 1 
11932 1 
11933 2 
11934 1 
13975 1 
13976 2 
13977 1 
13978 1 
13979 2 
13980 1 
16792 1 
16793 2 
16794 1 
18058 1 
18059 2 
18060 1 
18178 1 
18179 2 
18180 1 
18949 1 
18950 2 
18951 1 
19378 1 
19379 2 
19380 1 
20038 1 
20039 2 
20040 1 
21169 1 
21170 2 
21171 1 
21358 1 
21359 2 
21360 1 
