ITEM: TIMESTEP
20000000
ITEM: NUMBER OF ENTRIES
763
ITEM: BOX BOUNDS pp pp pp
0 50
0 50
0 50
ITEM: ENTRIES c_binfo[1] c_binfo[2] c_binfo[3] 
2 20851 20852 
2 3079 3080 
1 3079 20851 
2 3080 3081 
2 4330 4331 
2 20579 20580 
2 20578 20579 
2 7748 7749 
2 16523 16524 
2 6214 6215 
1 6214 7747 
2 7747 7748 
2 6406 6407 
2 6215 6216 
2 9869 9870 
1 9870 18060 
2 18059 18060 
2 18058 18059 
2 479 480 
2 478 479 
1 480 5626 
2 5626 5627 
2 1937 1938 
2 6752 6753 
2 4564 4565 
1 4564 6753 
2 6751 6752 
2 1936 1937 
2 9868 9869 
2 1336 1337 
2 1337 1338 
2 19360 19361 
1 1338 19360 
2 6407 6408 
2 19361 19362 
2 8803 8804 
1 4263 6408 
2 4262 4263 
2 4261 4262 
2 3665 3666 
2 5404 5405 
1 5404 8803 
2 3664 3665 
1 3664 8805 
2 8804 8805 
3 3836 3837 
3 3835 3836 
2 9902 9903 
2 9901 9902 
2 2539 2540 
2 8587 8588 
2 8588 8589 
1 6684 8589 
2 13976 13977 
2 13975 13976 
1 14559 21010 
2 14558 14559 
2 14557 14558 
2 5627 5628 
2 11762 11763 
2 8554 8555 
2 3991 3992 
1 3991 8554 
1 1344 5628 
2 3992 3993 
2 4565 4566 
2 1342 1343 
2 11933 11934 
2 1343 1344 
1 7740 11934 
1 4566 17230 
2 7357 7358 
2 7739 7740 
2 17230 17231 
2 17231 17232 
2 7358 7359 
2 20200 20201 
2 20201 20202 
2 12599 12600 
2 7738 7739 
1 3273 20200 
1 7029 13977 
2 7028 7029 
2 17890 17891 
2 7027 7028 
1 7027 17890 
2 17891 17892 
2 12785 12786 
2 5405 5406 
1 4656 17526 
2 4655 4656 
1 6156 17866 
2 17866 17867 
2 4654 4655 
2 17867 17868 
3 18674 18675 
1 17868 18673 
3 18673 18674 
1 5838 15511 
2 15511 15512 
2 15512 15513 
2 11464 11465 
2 11531 11532 
2 11530 11531 
1 11530 17524 
1 15378 19057 
2 17524 17525 
2 17525 17526 
2 14317 14318 
2 14318 14319 
1 2541 14319 
2 15989 15990 
2 2540 2541 
2 15988 15989 
2 7175 7176 
2 7174 7175 
1 7174 15988 
2 6683 6684 
2 6682 6683 
2 14009 14010 
1 13962 14008 
2 14008 14009 
2 5836 5837 
2 13961 13962 
1 12504 12598 
2 12503 12504 
2 5837 5838 
2 1219 1220 
1 1219 8202 
2 12502 12503 
2 11728 11729 
1 11728 12502 
2 1220 1221 
1 1221 3291 
2 11729 11730 
2 8201 8202 
2 8200 8201 
3 3895 3896 
1 3895 8200 
2 21010 21011 
2 3788 3789 
2 11465 11466 
1 4971 21012 
2 21011 21012 
2 4970 4971 
2 3787 3788 
1 3787 11466 
2 8555 8556 
2 15377 15378 
2 15376 15377 
2 12916 12917 
2 3553 3554 
1 3553 12916 
1 3555 15376 
2 3554 3555 
1 6843 16438 
2 20039 20040 
2 7291 7292 
1 7291 20040 
1 8556 20038 
2 20038 20039 
2 16438 16439 
2 12917 12918 
2 11932 11933 
2 15643 15644 
2 15644 15645 
2 11059 11060 
1 11059 15645 
2 11060 11061 
2 433 434 
2 21170 21171 
2 21169 21170 
2 434 435 
2 12598 12599 
2 21058 21059 
1 21058 21169 
2 12784 12785 
2 21059 21060 
2 3289 3290 
1 3289 12784 
2 3290 3291 
2 5209 5210 
2 5210 5211 
2 1588 1589 
2 3739 3740 
1 1590 3739 
2 1589 1590 
2 13960 13961 
1 13960 14208 
3 14207 14208 
3 14206 14207 
3 5086 5087 
1 5086 13039 
3 13040 13041 
3 13039 13040 
1 3897 13041 
2 19057 19058 
2 19058 19059 
2 9880 9881 
1 9880 13587 
2 3085 3086 
1 3085 18813 
2 18812 18813 
1 7293 18811 
2 18811 18812 
2 9881 9882 
2 6155 6156 
2 6154 6155 
2 13348 13349 
1 13348 14317 
2 13349 13350 
2 661 662 
1 661 5322 
2 662 663 
1 663 6154 
2 4762 4763 
1 3741 4764 
2 4763 4764 
2 1432 1433 
2 3740 3741 
2 6556 6557 
2 703 704 
1 703 6558 
2 6557 6558 
2 704 705 
1 5052 11730 
2 5051 5052 
2 5050 5051 
3 3896 3897 
2 15416 15417 
2 4969 4970 
1 10590 15417 
2 10588 10589 
1 10588 17821 
2 10589 10590 
2 2573 2574 
2 12070 12071 
2 2572 2573 
1 2572 12070 
2 17821 17822 
2 17822 17823 
2 9272 9273 
2 16439 16440 
2 7292 7293 
2 9271 9272 
1 9271 10866 
2 1433 1434 
2 11969 11970 
2 5321 5322 
2 5320 5321 
1 5320 11970 
2 10865 10866 
2 10864 10865 
1 10864 15744 
2 15743 15744 
2 5257 5258 
1 5257 15742 
2 15742 15743 
2 5258 5259 
1 5259 6633 
3 6743 6744 
1 5211 6744 
2 6632 6633 
2 6631 6632 
3 6742 6743 
3 5087 5088 
3 20684 20685 
2 13585 13586 
2 13586 13587 
2 3086 3087 
3 20683 20684 
2 6829 6830 
2 6830 6831 
2 7642 7643 
2 7643 7644 
2 3301 3302 
1 3301 12072 
2 6989 6990 
2 15517 15518 
2 15518 15519 
2 6988 6989 
2 3302 3303 
2 12071 12072 
2 18949 18950 
1 1434 17922 
2 17921 17922 
2 17920 17921 
2 331 332 
1 331 17920 
2 332 333 
2 11008 11009 
2 11009 11010 
3 12929 12930 
3 12928 12929 
1 12930 15459 
2 7235 7236 
2 7234 7235 
1 7234 20853 
2 20852 20853 
2 4102 4103 
2 4331 4332 
2 15458 15459 
2 15457 15458 
1 15457 16792 
2 16792 16793 
2 16793 16794 
2 15485 15486 
2 15484 15485 
2 3340 3341 
1 3340 15484 
2 3341 3342 
2 16522 16523 
2 5563 5564 
1 5563 17379 
2 4103 4104 
2 18788 18789 
2 18787 18788 
2 9121 9122 
1 9121 18789 
2 12902 12903 
2 12901 12902 
1 6543 9429 
3 9428 9429 
3 9427 9428 
2 18892 18893 
2 9007 9008 
2 9008 9009 
1 9009 12295 
2 12295 12296 
2 12296 12297 
2 8185 8186 
2 449 450 
1 5565 18894 
2 18893 18894 
2 5564 5565 
2 9122 9123 
2 16879 16880 
2 326 327 
2 448 449 
1 2628 19378 
2 19378 19379 
2 2627 2628 
2 19379 19380 
2 2626 2627 
1 2626 17628 
1 339 16794 
2 338 339 
2 337 338 
1 337 14301 
1 2295 21099 
1 20253 20580 
2 20252 20253 
2 2119 2120 
1 2119 17796 
2 2120 2121 
2 20251 20252 
1 2121 20251 
2 21098 21099 
2 19618 19619 
2 17378 17379 
2 799 800 
1 799 10834 
2 800 801 
2 10834 10835 
2 17377 17378 
2 4249 4250 
1 4249 17377 
1 4251 17886 
2 4250 4251 
2 6541 6542 
1 6541 19030 
2 6542 6543 
2 10835 10836 
2 19030 19031 
2 5383 5384 
1 5383 10836 
2 19031 19032 
1 11724 19032 
2 11723 11724 
2 11722 11723 
2 814 815 
1 814 15408 
2 815 816 
2 2294 2295 
2 8186 8187 
2 2293 2294 
1 2293 8187 
1 3231 12297 
2 3230 3231 
2 13430 13431 
2 3229 3230 
1 3229 11391 
2 19619 19620 
2 18728 18729 
2 18727 18728 
2 11390 11391 
2 21359 21360 
2 11585 11586 
2 511 512 
2 9077 9078 
2 15406 15407 
2 15407 15408 
2 11584 11585 
1 11584 16881 
2 512 513 
2 16880 16881 
2 325 326 
2 7640 7641 
2 17539 17540 
2 17540 17541 
1 14259 17541 
2 7639 7640 
1 7639 17392 
2 17392 17393 
2 17393 17394 
1 17394 18087 
2 18086 18087 
2 10375 10376 
2 10376 10377 
2 21358 21359 
2 1051 1052 
1 1051 21358 
2 20533 20534 
2 1052 1053 
1 1053 17565 
2 17564 17565 
2 17563 17564 
2 11761 11762 
2 11594 11595 
2 6128 6129 
1 6129 11593 
2 11593 11594 
2 9335 9336 
2 9334 9335 
2 8473 8474 
1 8473 9334 
2 6127 6128 
1 6127 20832 
2 17627 17628 
2 8474 8475 
1 8238 17626 
2 8237 8238 
2 8236 8237 
2 7699 7700 
1 7699 8236 
2 17626 17627 
1 8475 12918 
2 14300 14301 
2 14299 14300 
1 3993 14299 
2 21097 21098 
2 6022 6023 
1 6022 6075 
2 13088 13089 
2 13087 13088 
2 6023 6024 
1 5814 13087 
1 6024 21097 
2 5813 5814 
2 6074 6075 
2 6073 6074 
2 5812 5813 
1 5812 16008 
2 17795 17796 
2 17794 17795 
2 3271 3272 
2 17884 17885 
1 11640 17884 
2 11639 11640 
1 489 11638 
2 11638 11639 
2 17885 17886 
2 3272 3273 
2 2603 2604 
2 5384 5385 
1 5385 11943 
2 11942 11943 
2 2602 2603 
1 2602 5406 
2 19609 19610 
2 19610 19611 
1 9336 19611 
2 8495 8496 
2 13979 13980 
1 13566 13980 
2 13978 13979 
2 13429 13430 
1 6576 13429 
2 6575 6576 
2 6574 6575 
1 6574 15199 
2 15199 15200 
2 2357 2358 
2 2356 2357 
2 1618 1619 
1 1618 2356 
2 21047 21048 
2 11389 11390 
2 21046 21047 
2 8462 8463 
2 8461 8462 
2 5689 5690 
1 5689 8461 
1 8463 18729 
2 5690 5691 
1 15447 21048 
2 6586 6587 
1 6586 9076 
2 9076 9077 
2 6587 6588 
1 6588 19677 
2 1388 1389 
2 1387 1388 
1 1387 11586 
1 1389 11751 
2 11750 11751 
2 18026 18027 
2 11941 11942 
1 10347 18027 
2 10346 10347 
2 10345 10346 
2 11794 11795 
1 11794 11941 
2 11795 11796 
2 2717 2718 
2 21391 21392 
2 2716 2717 
1 2716 21391 
2 20576 20577 
2 14258 14259 
2 14257 14258 
1 14257 20577 
2 18085 18086 
2 1619 1620 
1 16905 18085 
2 16904 16905 
2 16903 16904 
1 6186 16903 
2 6185 6186 
2 20534 20535 
2 3344 3345 
2 3343 3344 
2 577 578 
1 577 20535 
2 578 579 
2 14837 14838 
2 14836 14837 
2 21338 21339 
2 20830 20831 
2 5221 5222 
2 20831 20832 
2 5222 5223 
2 13564 13565 
1 13564 17815 
2 17815 17816 
2 17816 17817 
2 6842 6843 
2 7700 7701 
2 6841 6842 
1 6841 17817 
2 16606 16607 
2 15550 15551 
1 15550 16606 
1 7701 15552 
2 15551 15552 
1 13125 21145 
2 21145 21146 
2 21146 21147 
2 15445 15446 
2 9760 9761 
1 9760 15445 
2 16007 16008 
2 9761 9762 
2 11218 11219 
1 11218 16006 
2 16006 16007 
2 11219 11220 
2 15446 15447 
1 9762 11355 
2 11968 11969 
2 4375 4376 
1 4728 13194 
2 4726 4727 
1 4726 19675 
2 4727 4728 
2 4376 4377 
1 4377 21171 
2 15106 15107 
2 15107 15108 
2 488 489 
2 487 488 
1 15108 17839 
2 17840 17841 
1 4788 16603 
2 17839 17840 
2 13565 13566 
2 2791 2792 
1 2791 3064 
2 10414 10415 
1 10414 19848 
2 19847 19848 
2 10415 10416 
2 2792 2793 
2 3064 3065 
2 8494 8495 
1 8494 15553 
2 15553 15554 
2 15554 15555 
2 13426 13427 
1 13426 15555 
2 15200 15201 
1 15201 21147 
2 1184 1185 
1 1185 5124 
2 2368 2369 
1 2368 4807 
1 2358 15544 
2 15544 15545 
1 4809 5691 
2 15545 15546 
2 4808 4809 
2 4576 4577 
1 4576 15546 
2 4807 4808 
2 4577 4578 
1 4314 8946 
2 4313 4314 
2 2369 2370 
2 4786 4787 
2 19676 19677 
2 11749 11750 
2 8944 8945 
1 8944 11749 
2 19675 19676 
1 555 3468 
2 18025 18026 
2 3466 3467 
1 3466 18025 
2 3467 3468 
2 8945 8946 
2 554 555 
2 4787 4788 
2 16609 16610 
2 16610 16611 
2 21271 21272 
2 21392 21393 
2 5122 5123 
1 5122 20575 
2 20575 20576 
2 5123 5124 
2 6184 6185 
2 6862 6863 
2 6863 6864 
2 943 944 
1 943 6862 
2 944 945 
2 21337 21338 
1 16611 21337 
1 2529 5223 
2 2528 2529 
1 9273 14361 
2 14359 14360 
2 2527 2528 
1 2527 14359 
2 16607 16608 
2 13124 13125 
2 14360 14361 
2 13123 13124 
1 1719 13123 
2 1718 1719 
2 1717 1718 
1 1717 7764 
2 7222 7223 
2 6601 6602 
1 6601 7222 
2 5590 5591 
1 5590 18951 
2 2426 2427 
1 11220 18529 
2 18529 18530 
2 5591 5592 
2 11353 11354 
1 5592 11353 
2 11354 11355 
1 2370 9685 
2 9685 9686 
2 9686 9687 
2 18530 18531 
2 11423 11424 
2 13193 13194 
2 13192 13193 
1 13192 19348 
2 19348 19349 
1 9687 11422 
2 11422 11423 
2 19349 19350 
2 16603 16604 
2 16604 16605 
2 5704 5705 
1 5704 19846 
2 19846 19847 
2 13427 13428 
2 1183 1184 
1 1183 3207 
1 6603 13428 
2 6602 6603 
2 3206 3207 
2 3205 3206 
1 3205 12705 
2 12704 12705 
2 5705 5706 
2 4312 4313 
2 2425 2426 
1 2425 5232 
1 4578 5230 
2 5230 5231 
2 5231 5232 
2 553 554 
1 553 13780 
2 13780 13781 
2 13781 13782 
2 21272 21273 
2 18179 18180 
2 18178 18179 
2 7223 7224 
2 7763 7764 
2 7762 7763 
2 16847 16848 
1 2427 16846 
2 16846 16847 
2 13640 13641 
2 18950 18951 
2 17248 17249 
1 11424 17248 
2 17249 17250 
2 3892 3893 
1 3892 12703 
2 12703 12704 
2 13639 13640 
1 3894 13639 
2 3893 3894 
2 6917 6918 
2 6916 6917 
1 9864 13641 
2 9862 9863 
2 9863 9864 
2 2234 2235 
2 2233 2234 
1 2233 18312 
2 18311 18312 
2 18310 18311 
1 3066 18310 
2 3065 3066 
2 8906 8907 
2 8905 8906 
1 8905 10416 
2 4256 4257 
2 4255 4256 
2 5359 5360 
1 4257 5359 
2 5360 5361 
1 5361 15415 
2 15415 15416 
