ITEM: TIMESTEP
20000000
ITEM: NUMBER OF ATOMS
345
ITEM: BOX BOUNDS pp pp pp
0.0000000000000000e+00 5.0000000000000000e+01
0.0000000000000000e+00 5.0000000000000000e+01
0.0000000000000000e+00 5.0000000000000000e+01
ITEM: ATOMS id type vx vy vz 
10063 1 -2.53572 -1.795 -1.87264 
20890 1 -2.82155 4.26152 -0.016493 
14839 1 -6.94434 7.86544 -3.38231 
19977 1 1.72842 -0.587566 0.859507 
19975 1 2.47156 -5.22307 -2.03097 
19976 3 1.61648 3.58536 -0.90457 
19331 3 -0.415854 -3.06595 3.05829 
19330 1 -1.06506 -0.309335 0.0868534 
21199 1 -0.451397 -1.32244 0.401924 
21201 1 -2.61679 -3.91503 -0.770058 
21200 3 -2.11544 0.978041 -3.15425 
3462 1 0.732826 -2.72362 1.88274 
15539 3 2.2972 -7.96441 3.07405 
15538 1 -0.850322 -3.14134 1.76763 
10996 1 2.32988 -3.82321 2.51247 
15663 1 1.83735 -0.752494 -5.47505 
15540 1 3.52834 0.923529 0.336375 
15662 2 0.10837 0.407403 -2.70835 
3461 3 1.02309 1.19796 0.483745 
3460 1 1.29573 -4.09963 2.78913 
6838 1 -0.951067 3.98694 1.41407 
6839 3 3.08838 -2.25513 1.08282 
7035 1 -0.626298 -1.69098 -4.86853 
6840 1 -3.47608 0.442682 -0.648573 
12455 3 -0.805396 2.39436 -0.906984 
12454 1 3.42466 -2.55707 1.64049 
10998 1 4.76066 0.0833141 -3.12409 
10997 3 3.8923 2.64302 -6.47813 
12456 1 2.51497 -3.35365 0.845355 
10065 1 -1.14711 0.663676 5.15948 
3325 1 -4.04815 9.39535 -2.34863 
10132 1 4.70083 -2.91993 -1.8477 
10133 3 0.458706 2.13733 -3.56367 
10064 3 1.4317 1.18676 1.09224 
10134 1 -2.9939 2.95286 -5.53182 
7034 3 -1.61545 -0.688986 -2.592 
3327 1 -3.90274 -3.18614 2.53265 
7033 1 -4.01228 -1.48836 1.11856 
16650 1 3.23295 3.24713 7.08654 
5227 1 1.86749 -5.15986 -3.0973 
16649 3 0.541829 2.04437 -5.89972 
5228 3 0.189543 -4.76136 -4.24248 
16648 1 -3.55849 -0.327377 -2.87563 
19332 1 9.5925 -4.1701 1.11915 
3326 3 -0.173071 -1.88962 -2.36178 
7148 3 4.46419 2.43515 -2.00083 
7147 1 -3.94672 2.54037 -0.0883659 
8785 1 0.552859 1.27327 -2.56379 
14230 1 3.05036 0.582283 0.758257 
14231 3 2.75946 -1.10117 -0.869345 
5372 2 3.21497 0.534306 0.0318118 
5371 1 0.122975 -1.95888 -2.34104 
15661 1 0.190887 -3.51514 0.0616528 
466 1 -1.57344 -0.482135 -6.68597 
14232 1 -2.26733 -2.3645 -0.154938 
17913 1 -1.75754 -3.4274 1.30596 
17912 3 -0.543071 3.89258 -0.484411 
17911 1 -1.17966 -0.918005 3.62399 
1954 1 -1.60474 -2.72439 4.83803 
1955 3 1.91019 0.671247 -1.48056 
7008 1 4.48968 3.61174 8.75674 
8126 3 -0.507536 0.219889 3.87983 
8125 1 -6.07327 -2.95471 1.63772 
468 1 4.5452 0.569404 0.468477 
8127 1 -2.30507 -2.05359 -0.317679 
20892 1 0.889991 -2.95486 -1.72378 
18054 1 -1.84186 -4.17968 -2.00905 
18053 3 0.536287 -0.737846 -2.58044 
20891 3 0.854037 1.923 -2.84123 
467 3 -0.654674 0.261815 -3.50699 
8980 1 -0.864337 8.60713 -1.7535 
8982 1 0.261316 1.00083 4.98065 
8542 1 -3.97641 0.0657328 2.02439 
8981 2 1.33771 0.395327 0.00594817 
5229 1 -0.457705 -1.8016 -0.997531 
7007 3 -4.85185 -4.44845 0.143751 
11375 3 -1.62268 -2.88581 1.8336 
7006 1 0.671437 -1.64618 -2.43128 
11321 3 2.15267 1.51506 0.622998 
18622 1 -0.802696 -4.37149 4.58638 
11320 1 -0.381358 2.94027 -0.440347 
18624 1 -2.22475 2.24249 -1.88444 
18623 3 -1.10824 2.83895 1.84073 
7149 1 -0.49523 -1.44694 -2.8673 
8787 1 -2.07031 0.869156 -0.319903 
8786 3 3.67999 -1.12147 -3.03513 
11376 1 -1.20076 -5.82115 -4.60032 
19308 1 2.70523 -4.52903 0.805719 
15065 3 -3.34524 -1.17172 -2.98604 
15066 1 -0.383935 4.72894 2.55462 
18007 1 -0.799837 -5.64003 9.81639 
18992 3 2.30872 -1.24272 2.80998 
18991 1 -1.54862 1.07052 0.23532 
18993 1 1.74103 -0.905943 -0.561657 
10485 1 2.5065 1.87435 2.57377 
15064 1 -2.72751 3.96305 2.26907 
18008 3 -1.31536 -3.58357 -3.85014 
670 1 3.02436 1.14622 2.6174 
18009 1 -4.56658 2.31427 -3.3373 
10437 1 -5.44054 5.46603 -2.76989 
671 3 2.22501 -2.78453 -3.16402 
12561 1 4.82374 1.44867 -0.53698 
11377 1 2.45642 7.61617 6.18075 
3956 3 -3.18873 0.363708 -2.79045 
3957 1 -5.25585 -1.33723 -1.09418 
10192 1 0.910535 2.2866 2.43568 
10193 3 -1.86745 -0.344338 5.44405 
1956 1 -2.06916 -4.68249 -3.96204 
3955 1 -3.5214 -0.536444 -2.73687 
7259 3 2.97779 3.88731 0.785174 
7258 1 1.99644 1.18335 5.59895 
10483 1 0.0429142 2.49819 1.19389 
10484 3 2.51346 -2.22462 0.281604 
11378 3 4.23315 0.62949 0.183828 
12560 3 3.07608 6.41084 0.995192 
18052 1 2.81183 -1.90252 0.682577 
12559 1 -1.65198 -3.1531 -3.03577 
7260 1 -1.32169 1.79948 1.85032 
5920 1 2.28283 -4.00838 -1.13149 
10436 3 -0.901296 -1.43599 0.314379 
5921 3 1.37277 0.0470153 -0.0207382 
5922 1 -0.188987 -2.08568 5.8716 
2331 1 2.11514 3.95726 -1.57406 
17145 1 -3.80213 2.42348 5.35897 
8543 3 -4.25634 0.163222 1.50343 
8544 1 0.402193 0.196795 -0.716611 
17144 3 1.37078 2.38018 0.960518 
19307 3 0.55203 -1.36168 5.07737 
19306 1 1.39684 5.58917 4.08148 
17691 1 3.62619 -2.74904 -2.17139 
17690 3 -4.34495 1.9111 1.34292 
17689 1 -1.72964 -4.96005 1.06477 
9805 1 5.64053 -6.34766 1.1909 
9806 3 1.92545 -0.648761 -2.31497 
9807 1 -0.345208 -4.00768 -3.84627 
7347 1 -1.53866 -0.0368844 2.90026 
11322 1 1.22268 -1.59549 -2.29989 
14239 1 5.30148 0.843857 2.47967 
11374 1 2.60867 1.52538 -4.04328 
19312 1 -1.8502 0.218434 -4.60531 
14240 3 -1.34414 1.1189 1.33847 
19313 3 0.56744 -3.77882 -2.34723 
19314 1 0.189939 -0.328917 -2.79667 
15960 1 4.46734 2.6344 -5.75555 
1124 3 -1.38804 -3.53255 1.3641 
1125 1 -5.02103 -5.49562 -1.66337 
7600 1 -0.0176223 -2.34322 -3.24963 
14241 1 6.75907 0.287264 -1.06006 
15959 3 -1.0879 0.104228 -2.1775 
2330 3 2.7258 1.10201 -3.09789 
7601 3 -0.74874 1.66783 0.207853 
2329 1 2.67615 7.7123 4.41613 
7602 1 3.54468 5.53648 7.55501 
11363 3 3.15024 1.7957 1.13269 
11362 1 0.478773 5.60354 -0.189501 
1798 1 3.26208 5.26134 -5.93179 
14820 1 5.76101 0.470874 6.89159 
14819 2 2.06994 1.35839 -2.11957 
12700 1 1.40903 1.21113 -4.93508 
12701 3 -0.828474 -1.88128 0.173343 
1123 1 -4.59218 3.28855 3.55814 
20995 1 -4.36922 3.23033 0.828254 
14818 1 -3.9821 8.36319 -1.59696 
11364 1 -7.3705 -2.1221 2.9538 
14840 2 0.420787 0.695449 -3.77922 
12702 1 3.40688 0.478968 -1.76689 
10744 1 1.24588 -0.0631628 1.71398 
10745 3 1.57997 -3.48749 0.831159 
15529 1 -0.876228 1.27698 7.63595 
145 1 -2.36405 0.460981 6.05601 
146 3 -1.11997 -0.159839 -0.521312 
15530 3 1.27209 0.446586 0.155658 
17427 1 -2.29413 -2.83969 3.7323 
17426 3 -1.8232 1.4508 -2.85572 
17425 1 5.08425 -0.863136 -0.329678 
3523 1 2.37432 -0.54506 0.634005 
3524 3 -0.042975 0.18786 -3.555 
4984 1 1.40494 -3.93826 0.770248 
4985 3 -3.04297 1.33301 -1.30484 
672 1 7.15918 -0.71271 -3.15822 
12811 1 -0.468889 -0.717857 -3.03717 
4986 1 0.118701 -4.7793 -3.67043 
6993 1 0.851438 -0.575053 -1.4234 
6992 3 -0.562839 -0.0342734 2.1919 
8363 2 0.765162 -0.931764 -0.0290874 
8362 1 -8.08875 4.46879 -1.08529 
8364 1 -0.30869 0.584319 -7.11965 
2894 3 -5.28752 1.31403 0.667537 
2893 1 -3.61655 -1.2803 0.0327738 
14434 1 5.5415 3.51518 0.799083 
2537 3 1.47631 -0.89293 -0.29399 
4426 1 0.435081 1.25296 -1.94611 
15531 1 3.07757 0.396067 2.85108 
10194 1 2.26734 5.23551 3.68614 
14436 1 2.17061 3.22054 1.12818 
2538 1 -5.1366 -6.72456 -2.02101 
11379 1 -0.481596 -0.658011 0.732898 
14435 3 -1.59792 5.94991 -0.904933 
4427 3 1.09701 4.01008 1.60183 
12513 1 0.270367 -1.64433 -3.93048 
4054 1 0.51366 -1.51688 7.89119 
12813 1 -1.39371 -2.0775 3.43268 
2536 1 0.120712 2.34534 -6.2656 
12812 3 -1.34388 0.991168 0.253539 
10435 1 4.1305 -1.93814 -2.02271 
14145 1 -3.26855 -0.3544 1.97021 
3525 1 -1.22753 2.86865 4.02227 
1101 1 2.31753 -3.57571 -1.66592 
14144 3 -2.65635 -0.361799 -3.8532 
14143 1 2.56959 3.04988 -3.16482 
1100 3 5.81507 -3.28849 -3.38835 
1099 1 -6.22081 -3.1811 0.191806 
16659 1 -1.42336 0.331875 0.371042 
16658 3 3.06459 -0.14188 -1.82904 
17143 1 -1.14914 -6.02246 5.3353 
2895 1 2.52563 -2.43558 -1.18493 
10019 3 -3.61013 -4.23609 0.110976 
10020 1 1.00091 -2.42135 -0.448995 
19209 1 -3.82665 0.730444 -1.6436 
19208 3 1.82095 -1.15796 1.0636 
10018 1 0.311975 1.47863 -2.56629 
15958 1 7.66051 6.26485 -6.98138 
19207 1 0.449777 -1.66385 -11.1868 
13895 3 3.45241 2.22479 -1.72314 
4055 3 -4.08889 -1.33168 -1.5569 
13894 1 0.365355 -5.62669 -3.2043 
4056 1 4.61496 -3.12113 -0.79453 
13896 1 -3.19434 0.803996 0.939241 
1800 1 -3.19679 0.532714 -0.524862 
1799 3 1.72367 -2.78313 -4.22425 
16657 1 -3.80824 3.79142 0.299398 
6057 1 3.50666 3.07579 5.65458 
7346 3 -2.87813 -1.66371 -0.223551 
8325 1 -7.89206 -0.940423 -1.27858 
7345 1 4.07377 2.03511 0.156354 
8324 3 2.5084 -2.61272 -0.827284 
8777 3 -0.561649 -2.29972 -2.02678 
8778 1 -5.11283 -2.33859 -1.99289 
8323 1 1.96836 0.898713 4.02326 
20996 3 3.68909 -2.38015 -0.869879 
20997 1 -2.68376 -2.38719 1.41225 
882 1 -0.729278 5.45556 5.43599 
881 3 5.21836 -2.53204 1.00545 
880 1 -0.0458072 3.03615 -1.43677 
15129 1 -3.26114 0.109075 1.25673 
15128 3 -0.608233 4.63893 -1.85308 
14431 1 -0.642888 -5.97284 -3.53688 
14433 1 1.55819 3.20467 -0.79551 
14432 3 2.04327 3.64823 -4.23535 
6056 3 3.94465 0.933987 -3.43187 
6055 1 2.35644 5.22924 3.15128 
14841 1 8.20289 3.50801 9.62113 
21174 1 -7.59995 -2.32917 -8.03172 
21173 3 -1.01276 -0.151054 4.41732 
10983 1 -1.26317 -5.177 -1.63055 
10746 1 -0.31558 0.754069 5.24596 
7456 1 -3.016 4.03631 5.56827 
147 1 -0.0805528 4.63643 0.814762 
8962 1 -1.413 1.97182 -7.15817 
8963 3 -1.70175 0.972251 3.18506 
8964 1 -2.61194 6.43533 -0.738572 
11814 1 1.69321 0.874288 2.75213 
11813 3 0.154095 0.252466 -0.377477 
11127 1 -4.00589 0.195905 -0.837734 
20113 1 2.3069 -8.01177 0.59885 
16246 1 -3.43395 -0.973276 1.00301 
16247 3 1.90108 5.51114 -2.36964 
11126 3 -2.78875 1.39254 1.76751 
6991 1 2.06494 -0.453692 1.94549 
20114 3 -0.942292 4.53702 -2.36552 
6427 1 0.524854 -8.78394 5.0312 
20115 1 -0.160786 -4.18369 -3.00216 
10982 3 0.371428 -2.77409 2.76892 
10981 1 4.77355 -2.45468 -1.73903 
3210 1 -1.01453 0.338648 1.23912 
11812 1 2.7682 1.01748 -2.95541 
12511 1 2.77857 -1.70131 -1.96475 
12512 3 -4.35226 -0.647725 -2.59284 
3209 3 -0.354068 -2.26204 -3.95117 
3208 1 0.407673 0.328124 -5.6058 
2188 1 2.40572 1.41424 -1.96322 
4428 1 0.621285 2.46957 -4.56439 
2189 3 1.25143 1.53235 -3.94376 
2190 1 -1.8671 2.76302 -0.651314 
12157 1 -1.60407 -3.08448 -0.455014 
6428 3 1.83816 -3.00923 4.27514 
6429 1 -3.90301 -0.964032 -5.89536 
10363 1 -2.92092 1.392 -4.64223 
10364 3 2.74271 -1.8043 4.1576 
9430 1 2.1746 0.0404409 -0.667381 
9431 3 -2.74094 3.00269 0.335034 
12789 1 -5.02199 -5.5282 1.08809 
12788 3 -1.33609 1.17034 -1.37851 
12787 1 1.14996 4.16285 4.77324 
4630 1 0.802256 0.154129 -1.95311 
7696 1 -2.10953 5.98805 -5.72512 
2665 1 -6.40236 -0.231143 0.311144 
2666 3 -2.1509 -2.46672 -1.20831 
5249 3 -4.35187 0.0475683 3.09689 
2667 1 2.50343 1.93378 -7.77636 
4632 1 1.67362 -2.02131 -5.06774 
4631 3 -2.02768 -4.44159 -0.863223 
11236 1 1.24456 -2.3285 3.48096 
5250 1 -5.55518 -2.61446 2.12391 
5248 1 -2.18772 -0.418664 2.13511 
12159 1 2.71498 2.91571 2.15182 
12158 3 3.57284 -0.913652 0.678428 
11075 3 -0.628408 -1.97494 -0.713548 
11076 1 0.807019 -3.50463 -0.423244 
11237 3 -2.54378 0.799939 -4.06094 
9432 1 -5.17954 2.08158 1.90191 
11238 1 0.627981 -8.36945 5.44147 
11074 1 1.54969 0.509301 -1.28442 
7697 3 2.4047 0.744038 2.36382 
7698 1 -2.33358 6.15187 -5.38586 
8776 1 3.86322 1.064 -0.706871 
15127 1 -0.388326 -1.40457 -11.3475 
16216 1 1.64644 5.37953 2.97432 
16217 3 -0.435203 -1.09198 1.61904 
16218 1 -0.496658 -2.53261 -3.39743 
8215 1 0.257527 -1.92971 -1.41845 
8217 1 -0.325123 -3.91973 -2.30249 
8216 2 -0.478647 -1.99659 0.738737 
21172 1 -1.63586 -2.12515 -0.159268 
20862 1 2.18206 -4.0352 -5.42677 
16248 1 -2.20283 6.59179 2.63198 
18972 1 1.6799 3.00255 -2.17658 
18971 3 0.829054 0.531532 2.07886 
16531 1 4.40623 -4.6085 -4.25928 
16533 1 1.94488 3.23062 0.0694623 
16532 2 -2.33182 1.43755 1.30225 
20860 1 -3.11902 -1.52124 0.160264 
5436 1 -8.37548 -1.81492 3.04586 
20861 3 -0.269476 1.93809 -1.81906 
5435 3 2.36208 0.159521 1.43621 
5434 1 2.086 2.97818 -0.232573 
10365 1 2.17493 -1.39228 -0.529001 
18970 1 0.469564 -2.01682 1.04306 
14501 2 0.595179 0.415263 0.369017 
14500 1 3.29959 -4.59166 -5.44882 
14502 1 5.17712 4.41453 -3.27616 
5373 1 -1.1541 -0.290208 0.531808 
11125 1 -2.57466 -0.33159 3.12973 
7457 3 -0.560972 -2.50188 -1.28235 
7458 1 -0.406403 -4.18776 5.66456 
