ITEM: TIMESTEP
0
ITEM: NUMBER OF ATOMS
849
ITEM: BOX BOUNDS pp pp pp
0.0000000000000000e+00 5.0000000000000000e+01
0.0000000000000000e+00 5.0000000000000000e+01
0.0000000000000000e+00 5.0000000000000000e+01
ITEM: ATOMS id type 
67 1 
68 2 
69 1 
181 1 
182 2 
183 1 
190 1 
191 2 
192 1 
247 1 
248 2 
249 1 
2464 1 
2465 2 
2466 1 
3427 1 
3428 2 
3429 1 
3544 1 
3545 3 
3546 1 
3550 1 
3551 2 
3552 1 
3730 1 
3731 2 
3732 1 
5521 1 
5522 2 
5523 1 
5770 1 
5771 2 
5772 1 
6661 1 
6662 2 
6663 1 
7204 1 
7205 2 
7206 1 
7867 1 
7868 2 
7869 1 
7924 1 
7925 2 
7926 1 
7930 1 
7931 2 
7932 1 
8044 1 
8045 2 
8046 1 
8890 1 
8891 2 
8892 1 
9184 1 
9185 2 
9186 1 
10201 1 
10202 2 
10203 1 
322 1 
323 2 
324 1 
502 1 
503 2 
504 1 
1339 1 
1340 2 
1341 1 
1516 1 
1517 2 
1518 1 
4816 1 
4817 2 
4818 1 
4873 1 
4874 3 
4875 1 
5773 1 
5774 2 
5775 1 
5893 1 
5894 2 
5895 1 
5896 1 
5897 2 
5898 1 
5962 1 
5963 2 
5964 1 
6019 1 
6020 2 
6021 1 
7939 1 
7940 2 
7941 1 
8242 1 
8243 2 
8244 1 
8302 1 
8303 2 
8304 1 
334 1 
335 2 
336 1 
1645 1 
1646 2 
1647 1 
3211 1 
3212 2 
3213 1 
5551 1 
5552 2 
5553 1 
5674 1 
5675 2 
5676 1 
5908 1 
5909 2 
5910 1 
6034 1 
6035 2 
6036 1 
6748 1 
6749 2 
6750 1 
9025 1 
9026 2 
9027 1 
9088 1 
9089 2 
9090 1 
9328 1 
9329 2 
9330 1 
166 1 
167 2 
168 1 
226 1 
227 2 
228 1 
400 1 
401 2 
402 1 
1237 1 
1238 2 
1239 1 
1423 1 
1424 2 
1425 1 
1663 1 
1664 2 
1665 1 
2260 1 
2261 2 
2262 1 
2446 1 
2447 2 
2448 1 
4480 1 
4481 2 
4482 1 
4603 1 
4604 2 
4605 1 
4723 1 
4724 2 
4725 1 
5806 1 
5807 2 
5808 1 
5857 1 
5858 2 
5859 1 
5917 1 
5918 2 
5919 1 
7057 1 
7058 2 
7059 1 
7243 1 
7244 2 
7245 1 
7783 1 
7784 2 
7785 1 
8923 1 
8924 2 
8925 1 
9097 1 
9098 2 
9099 1 
9217 1 
9218 2 
9219 1 
10183 1 
10184 2 
10185 1 
10417 1 
10418 2 
10419 1 
115 1 
116 2 
117 1 
1318 1 
1319 3 
1320 1 
1675 1 
1676 2 
1677 1 
2338 1 
2339 2 
2340 1 
2398 1 
2399 2 
2400 1 
4498 1 
4499 2 
4500 1 
4915 1 
4916 2 
4917 1 
5989 1 
5990 2 
5991 1 
6778 1 
6779 2 
6780 1 
7072 1 
7073 2 
7074 1 
8095 1 
8096 2 
8097 1 
9049 1 
9050 2 
9051 1 
9118 1 
9119 2 
9120 1 
10138 1 
10139 2 
10140 1 
10189 1 
10190 2 
10191 1 
910 1 
911 2 
912 1 
1741 1 
1742 2 
1743 1 
2167 1 
2168 2 
2169 1 
3001 1 
3002 2 
3003 1 
6364 1 
6365 2 
6366 1 
7387 1 
7388 2 
7389 1 
10930 1 
10931 2 
10932 1 
793 1 
794 2 
795 1 
1693 1 
1694 2 
1695 1 
3133 1 
3134 2 
3135 1 
3802 1 
3803 2 
3804 1 
4942 1 
4943 2 
4944 1 
4999 1 
5000 2 
5001 1 
5173 1 
5174 2 
5175 1 
10579 1 
10580 2 
10581 1 
10642 1 
10643 2 
10644 1 
751 1 
752 2 
753 1 
991 1 
992 2 
993 1 
2125 1 
2126 2 
2127 1 
2185 1 
2186 2 
2187 1 
2191 1 
2192 3 
2193 1 
2968 1 
2969 2 
2970 1 
3934 1 
3935 2 
3936 1 
4174 1 
4175 2 
4176 1 
5308 1 
5309 3 
5310 1 
6271 1 
6272 2 
6273 1 
8488 1 
8489 2 
8490 1 
8605 1 
8606 2 
8607 1 
9568 1 
9569 2 
9570 1 
9754 1 
9755 2 
9756 1 
9874 1 
9875 3 
9876 1 
706 1 
707 2 
708 1 
760 1 
761 2 
762 1 
826 1 
827 2 
828 1 
1900 1 
1901 2 
1902 1 
1957 1 
1958 2 
1959 1 
5080 1 
5081 2 
5082 1 
5143 1 
5144 2 
5145 1 
8680 1 
8681 2 
8682 1 
9943 1 
9944 2 
9945 1 
10657 1 
10658 2 
10659 1 
10663 1 
10664 2 
10665 1 
11017 1 
11018 2 
11019 1 
1018 1 
1019 2 
1020 1 
2935 1 
2936 2 
2937 1 
3115 1 
3116 2 
3117 1 
3838 1 
3839 2 
3840 1 
4072 1 
4073 2 
4074 1 
4132 1 
4133 2 
4134 1 
4975 1 
4976 2 
4977 1 
5092 1 
5093 2 
5094 1 
5329 1 
5330 2 
5331 1 
6175 1 
6176 2 
6177 1 
6649 1 
6650 2 
6651 1 
7555 1 
7556 2 
7557 1 
9649 1 
9650 2 
9651 1 
9952 1 
9953 2 
9954 1 
10789 1 
10790 2 
10791 1 
10972 1 
10973 2 
10974 1 
11089 1 
11090 2 
11091 1 
11092 1 
11093 2 
11094 1 
11350 1 
11351 2 
11352 1 
13504 1 
13505 2 
13506 1 
14461 1 
14462 2 
14463 1 
16381 1 
16382 2 
16383 1 
16627 1 
16628 2 
16629 1 
17344 1 
17345 2 
17346 1 
17641 1 
17642 2 
17643 1 
18547 1 
18548 2 
18549 1 
18781 1 
18782 2 
18783 1 
19624 1 
19625 2 
19626 1 
11113 1 
11114 2 
11115 1 
13162 1 
13163 2 
13164 1 
14242 1 
14243 2 
14244 1 
14419 1 
14420 2 
14421 1 
15379 1 
15380 2 
15381 1 
15442 1 
15443 2 
15444 1 
16462 1 
16463 2 
16464 1 
16579 1 
16580 2 
16581 1 
17599 1 
17600 2 
17601 1 
18499 1 
18500 2 
18501 1 
18676 1 
18677 2 
18678 1 
19642 1 
19643 3 
19644 1 
20776 1 
20777 2 
20778 1 
11314 1 
11315 3 
11316 1 
12271 1 
12272 2 
12273 1 
14548 1 
14549 3 
14550 1 
15745 1 
15746 3 
15747 1 
16474 1 
16475 2 
16476 1 
17491 1 
17492 2 
17493 1 
17614 1 
17615 2 
17616 1 
17728 1 
17729 2 
17730 1 
18565 1 
18566 2 
18567 1 
19654 1 
19655 2 
19656 1 
19711 1 
19712 2 
19713 1 
20788 1 
20789 2 
20790 1 
12457 1 
12458 2 
12459 1 
12526 1 
12527 2 
12528 1 
13180 1 
13181 2 
13182 1 
13303 1 
13304 2 
13305 1 
13360 1 
13361 2 
13362 1 
13603 1 
13604 3 
13605 1 
15340 1 
15341 2 
15342 1 
16546 1 
16547 2 
16548 1 
17317 1 
17318 2 
17319 1 
17437 1 
17438 2 
17439 1 
18640 1 
18641 2 
18642 1 
19903 1 
19904 2 
19905 1 
20566 1 
20567 2 
20568 1 
21037 1 
21038 2 
21039 1 
11212 1 
11213 2 
11214 1 
11455 1 
11456 2 
11457 1 
11518 1 
11519 2 
11520 1 
12115 1 
12116 2 
12117 1 
12409 1 
12410 2 
12411 1 
12469 1 
12470 3 
12471 1 
12472 1 
12473 2 
12474 1 
12532 1 
12533 2 
12534 1 
17572 1 
17573 2 
17574 1 
18769 1 
18770 2 
18771 1 
20629 1 
20630 2 
20631 1 
11650 1 
11651 2 
11652 1 
11950 1 
11951 2 
11952 1 
12001 1 
12002 2 
12003 1 
13744 1 
13745 2 
13746 1 
14104 1 
14105 2 
14106 1 
14764 1 
14765 2 
14766 1 
14827 1 
14828 2 
14829 1 
15067 1 
15068 2 
15069 1 
15250 1 
15251 2 
15252 1 
15787 1 
15788 2 
15789 1 
15790 1 
15791 2 
15792 1 
17041 1 
17042 2 
17043 1 
18304 1 
18305 3 
18306 1 
19081 1 
19082 2 
19083 1 
19264 1 
19265 2 
19266 1 
20104 1 
20105 2 
20106 1 
11659 1 
11660 2 
11661 1 
13879 1 
13880 2 
13881 1 
14173 1 
14174 2 
14175 1 
14182 1 
14183 2 
14184 1 
14782 1 
14783 2 
14784 1 
16822 1 
16823 2 
16824 1 
16876 1 
16877 2 
16878 1 
17116 1 
17117 2 
17118 1 
18919 1 
18920 2 
18921 1 
18922 1 
18923 3 
18924 1 
19213 1 
19214 2 
19215 1 
19216 1 
19217 2 
19218 1 
20476 1 
20477 2 
20478 1 
21319 1 
21320 2 
21321 1 
12814 1 
12815 2 
12816 1 
12931 1 
12932 2 
12933 1 
13711 1 
13712 2 
13713 1 
14011 1 
14012 2 
14013 1 
14068 1 
14069 2 
14070 1 
14911 1 
14912 2 
14913 1 
16765 1 
16766 2 
16767 1 
16771 1 
16772 2 
16773 1 
16834 1 
16835 2 
16836 1 
17008 1 
17009 2 
17010 1 
17068 1 
17069 2 
17070 1 
17071 1 
17072 2 
17073 1 
17131 1 
17132 2 
17133 1 
19168 1 
19169 2 
19170 1 
20065 1 
20066 2 
20067 1 
20308 1 
20309 2 
20310 1 
21385 1 
21386 2 
21387 1 
21571 1 
21572 2 
21573 1 
11926 1 
11927 2 
11928 1 
13126 1 
13127 2 
13128 1 
13717 1 
13718 2 
13719 1 
14017 1 
14018 2 
14019 1 
14086 1 
14087 2 
14088 1 
15280 1 
15281 2 
15282 1 
16306 1 
16307 2 
16308 1 
16780 1 
16781 2 
16782 1 
16906 1 
16907 2 
16908 1 
17983 1 
17984 2 
17985 1 
18106 1 
18107 2 
18108 1 
19120 1 
19121 2 
19122 1 
19297 1 
19298 2 
19299 1 
20020 1 
20021 2 
20022 1 
20503 1 
20504 2 
20505 1 
21400 1 
21401 2 
21402 1 
11689 1 
11690 2 
11691 1 
12832 1 
12833 2 
12834 1 
13855 1 
13856 2 
13857 1 
14212 1 
14213 2 
14214 1 
15052 1 
15053 2 
15054 1 
16078 1 
16079 2 
16080 1 
16135 1 
16136 3 
16137 1 
16138 1 
16139 2 
16140 1 
16312 1 
16313 2 
16314 1 
16909 1 
16910 2 
16911 1 
17038 1 
17039 2 
17040 1 
17932 1 
17933 2 
17934 1 
17992 1 
17993 2 
17994 1 
17998 1 
17999 2 
18000 1 
18952 1 
18953 2 
18954 1 
21229 1 
21230 3 
21231 1 
