ITEM: TIMESTEP
0
ITEM: NUMBER OF ATOMS
1029
ITEM: BOX BOUNDS pp pp pp
0.0000000000000000e+00 5.0000000000000000e+01
0.0000000000000000e+00 5.0000000000000000e+01
0.0000000000000000e+00 5.0000000000000000e+01
ITEM: ATOMS id type 
4 1 
5 3 
6 1 
1147 1 
1148 3 
1149 1 
1207 1 
1208 2 
1209 1 
3184 1 
3185 3 
3186 1 
3430 1 
3431 3 
3432 1 
4387 1 
4388 3 
4389 1 
4444 1 
4445 3 
4446 1 
5581 1 
5582 2 
5583 1 
5647 1 
5648 3 
5649 1 
6784 1 
6785 3 
6786 1 
7087 1 
7088 3 
7089 1 
7801 1 
7802 3 
7803 1 
8881 1 
8882 3 
8883 1 
9124 1 
9125 3 
9126 1 
9130 1 
9131 3 
9132 1 
9247 1 
9248 3 
9249 1 
10021 1 
10022 3 
10023 1 
10504 1 
10505 3 
10506 1 
139 1 
140 3 
141 1 
199 1 
200 3 
201 1 
1162 1 
1163 2 
1164 1 
1633 1 
1634 3 
1635 1 
3373 1 
3374 3 
3375 1 
3382 1 
3383 3 
3384 1 
3439 1 
3440 3 
3441 1 
3742 1 
3743 3 
3744 1 
5599 1 
5600 3 
5601 1 
5959 1 
5960 3 
5961 1 
6796 1 
6797 3 
6798 1 
6856 1 
6857 3 
6858 1 
7039 1 
7040 3 
7041 1 
7993 1 
7994 2 
7995 1 
8902 1 
8903 3 
8904 1 
8959 1 
8960 3 
8961 1 
9019 1 
9020 3 
9021 1 
9313 1 
9314 3 
9315 1 
10213 1 
10214 3 
10215 1 
10279 1 
10280 3 
10281 1 
10333 1 
10334 3 
10335 1 
10399 1 
10400 2 
10401 1 
205 1 
206 3 
207 1 
1231 1 
1232 3 
1233 1 
1234 1 
1235 3 
1236 1 
2251 1 
2252 3 
2253 1 
3214 1 
3215 3 
3216 1 
3274 1 
3275 3 
3276 1 
3748 1 
3749 3 
3750 1 
4414 1 
4415 3 
4416 1 
4768 1 
4769 2 
4770 1 
5668 1 
5669 2 
5670 1 
6028 1 
6029 3 
6030 1 
6805 1 
6806 3 
6807 1 
6928 1 
6929 2 
6930 1 
8311 1 
8312 3 
8313 1 
8911 1 
8912 3 
8913 1 
8968 1 
8969 3 
8970 1 
463 1 
464 3 
465 1 
1186 1 
1187 3 
1188 1 
1420 1 
1421 3 
1422 1 
1600 1 
1601 3 
1602 1 
4780 1 
4781 3 
4782 1 
5803 1 
5804 3 
5805 1 
6037 1 
6038 3 
6039 1 
7177 1 
7178 3 
7179 1 
7246 1 
7247 3 
7248 1 
8146 1 
8147 3 
8148 1 
9103 1 
9104 3 
9105 1 
9226 1 
9227 3 
9228 1 
9280 1 
9281 3 
9282 1 
10006 1 
10007 3 
10008 1 
10297 1 
10298 3 
10299 1 
10486 1 
10487 3 
10488 1 
118 1 
119 3 
120 1 
175 1 
176 3 
177 1 
2335 1 
2336 3 
2337 1 
3418 1 
3419 3 
3420 1 
3538 1 
3539 3 
3540 1 
3598 1 
3599 3 
3600 1 
3658 1 
3659 3 
3660 1 
5572 1 
5573 3 
5574 1 
5749 1 
5750 3 
5751 1 
5929 1 
5930 2 
5931 1 
5935 1 
5936 3 
5937 1 
8992 1 
8993 3 
8994 1 
10195 1 
10196 3 
10197 1 
10198 1 
10199 3 
10200 1 
730 1 
731 3 
732 1 
1807 1 
1808 3 
1809 1 
2101 1 
2102 3 
2103 1 
2107 1 
2108 3 
2109 1 
2707 1 
2708 3 
2709 1 
2950 1 
2951 3 
2952 1 
3970 1 
3971 3 
3972 1 
4147 1 
4148 3 
4149 1 
4990 1 
4991 3 
4992 1 
5287 1 
5288 3 
5289 1 
6061 1 
6062 3 
6063 1 
6121 1 
6122 3 
6123 1 
6241 1 
6242 3 
6243 1 
6484 1 
6485 3 
6486 1 
7381 1 
7382 3 
7383 1 
8341 1 
8342 3 
8343 1 
8830 1 
8831 3 
8832 1 
9667 1 
9668 3 
9669 1 
11044 1 
11045 3 
11046 1 
679 1 
680 3 
681 1 
802 1 
803 3 
804 1 
1933 1 
1934 3 
1935 1 
2842 1 
2843 3 
2844 1 
2956 1 
2957 3 
2958 1 
4099 1 
4100 3 
4101 1 
4219 1 
4220 2 
4221 1 
5299 1 
5300 3 
5301 1 
6136 1 
6137 3 
6138 1 
6139 1 
6140 3 
6141 1 
6142 1 
6143 3 
6144 1 
6493 1 
6494 3 
6495 1 
6613 1 
6614 3 
6615 1 
7339 1 
7340 3 
7341 1 
7342 1 
7343 3 
7344 1 
7693 1 
7694 3 
7695 1 
8476 1 
8477 3 
8478 1 
8533 1 
8534 3 
8535 1 
8539 1 
8540 2 
8541 1 
8599 1 
8600 3 
8601 1 
9379 1 
9380 3 
9381 1 
9436 1 
9437 3 
9438 1 
9556 1 
9557 3 
9558 1 
9793 1 
9794 3 
9795 1 
9799 1 
9800 3 
9801 1 
808 1 
809 3 
810 1 
2194 1 
2195 3 
2196 1 
2671 1 
2672 3 
2673 1 
3931 1 
3932 3 
3933 1 
3988 1 
3989 3 
3990 1 
5311 1 
5312 3 
5313 1 
6208 1 
6209 3 
6210 1 
7354 1 
7355 2 
7356 1 
7648 1 
7649 3 
7650 1 
8371 1 
8372 3 
8373 1 
9634 1 
9635 3 
9636 1 
9928 1 
9929 3 
9930 1 
10651 1 
10652 3 
10653 1 
11065 1 
11066 3 
11067 1 
700 1 
701 3 
702 1 
1723 1 
1724 2 
1725 1 
2200 1 
2201 3 
2202 1 
2206 1 
2207 3 
2208 1 
2677 1 
2678 3 
2679 1 
2740 1 
2741 3 
2742 1 
2797 1 
2798 3 
2799 1 
2806 1 
2807 3 
2808 1 
3826 1 
3827 3 
3828 1 
3937 1 
3938 3 
3939 1 
4000 1 
4001 3 
4002 1 
4180 1 
4181 3 
4182 1 
6223 1 
6224 2 
6225 1 
6580 1 
6581 3 
6582 1 
6640 1 
6641 2 
6642 1 
7300 1 
7301 3 
7302 1 
7366 1 
7367 3 
7368 1 
7480 1 
7481 3 
7482 1 
7543 1 
7544 3 
7545 1 
712 1 
713 3 
714 1 
838 1 
839 3 
840 1 
1729 1 
1730 3 
1731 1 
1792 1 
1793 3 
1794 1 
3112 1 
3113 3 
3114 1 
3889 1 
3890 3 
3891 1 
4009 1 
4010 3 
4011 1 
5035 1 
5036 3 
5037 1 
5269 1 
5270 3 
5271 1 
5392 1 
5393 3 
5394 1 
6598 1 
6599 3 
6600 1 
7675 1 
7676 3 
7677 1 
8569 1 
8570 2 
8571 1 
9658 1 
9659 3 
9660 1 
10912 1 
10913 3 
10914 1 
10969 1 
10970 3 
10971 1 
10975 1 
10976 3 
10977 1 
11095 1 
11096 3 
11097 1 
11461 1 
11462 3 
11463 1 
14401 1 
14402 3 
14403 1 
14464 1 
14465 3 
14466 1 
14530 1 
14531 3 
14532 1 
17341 1 
17342 3 
17343 1 
17587 1 
17588 3 
17589 1 
17701 1 
17702 3 
17703 1 
20881 1 
20882 3 
20883 1 
11119 1 
11120 3 
11121 1 
11473 1 
11474 3 
11475 1 
12439 1 
12440 3 
12441 1 
13213 1 
13214 3 
13215 1 
13333 1 
13334 3 
13335 1 
13459 1 
13460 3 
13461 1 
13462 1 
13463 3 
13464 1 
14356 1 
14357 3 
14358 1 
14482 1 
14483 3 
14484 1 
14542 1 
14543 3 
14544 1 
15319 1 
15320 3 
15321 1 
17302 1 
17303 3 
17304 1 
18436 1 
18437 3 
18438 1 
18496 1 
18497 3 
18498 1 
18742 1 
18743 2 
18744 1 
19633 1 
19634 3 
19635 1 
11365 1 
11366 2 
11367 1 
12268 1 
12269 3 
12270 1 
12565 1 
12566 3 
12567 1 
12628 1 
12629 3 
12630 1 
13231 1 
13232 3 
13233 1 
13531 1 
13532 3 
13533 1 
15751 1 
15752 3 
15753 1 
16651 1 
16652 3 
16653 1 
17308 1 
17309 3 
17310 1 
18445 1 
18446 2 
18447 1 
19774 1 
19775 3 
19776 1 
20674 1 
20675 3 
20676 1 
12103 1 
12104 3 
12105 1 
12217 1 
12218 3 
12219 1 
12343 1 
12344 3 
12345 1 
13357 1 
13358 3 
13359 1 
13423 1 
13424 3 
13425 1 
13543 1 
13544 3 
13545 1 
14620 1 
14621 3 
14622 1 
15523 1 
15524 3 
15525 1 
16537 1 
16538 3 
16539 1 
17320 1 
17321 3 
17322 1 
17557 1 
17558 3 
17559 1 
17686 1 
17687 3 
17688 1 
18460 1 
18461 3 
18462 1 
18697 1 
18698 3 
18699 1 
19540 1 
19541 3 
19542 1 
19837 1 
19838 3 
19839 1 
20557 1 
20558 3 
20559 1 
20980 1 
20981 3 
20982 1 
11152 1 
11153 3 
11154 1 
11392 1 
11393 3 
11394 1 
11512 1 
11513 3 
11514 1 
12478 1 
12479 3 
12480 1 
13312 1 
13313 3 
13314 1 
14392 1 
14393 3 
14394 1 
14449 1 
14450 3 
14451 1 
14575 1 
14576 3 
14577 1 
15535 1 
15536 3 
15537 1 
15709 1 
15710 3 
15711 1 
16729 1 
16730 3 
16731 1 
17455 1 
17456 3 
17457 1 
17512 1 
17513 3 
17514 1 
17569 1 
17570 3 
17571 1 
18709 1 
18710 3 
18711 1 
18895 1 
18896 3 
18897 1 
19735 1 
19736 3 
19737 1 
19852 1 
19853 3 
19854 1 
20815 1 
20816 3 
20817 1 
11524 1 
11525 3 
11526 1 
11704 1 
11705 3 
11706 1 
12904 1 
12905 3 
12906 1 
13021 1 
13022 3 
13023 1 
13624 1 
13625 3 
13626 1 
13984 1 
13985 3 
13986 1 
14770 1 
14771 3 
14772 1 
15070 1 
15071 3 
15072 1 
15124 1 
15125 3 
15126 1 
16267 1 
16268 3 
16269 1 
17104 1 
17105 3 
17106 1 
18061 1 
18062 3 
18063 1 
18181 1 
18182 3 
18183 1 
19150 1 
19151 3 
19152 1 
19390 1 
19391 3 
19392 1 
19990 1 
19991 3 
19992 1 
20041 1 
20042 3 
20043 1 
20467 1 
20468 3 
20469 1 
21127 1 
21128 3 
21129 1 
21364 1 
21365 3 
21366 1 
21424 1 
21425 3 
21426 1 
21430 1 
21431 3 
21432 1 
21547 1 
21548 3 
21549 1 
11602 1 
11603 3 
11604 1 
11893 1 
11894 3 
11895 1 
11959 1 
11960 3 
11961 1 
12862 1 
12863 3 
12864 1 
13102 1 
13103 3 
13104 1 
13696 1 
13697 3 
13698 1 
13699 1 
13700 3 
13701 1 
13993 1 
13994 3 
13995 1 
14959 1 
14960 3 
14961 1 
16036 1 
16037 3 
16038 1 
16153 1 
16154 3 
16155 1 
16996 1 
16997 3 
16998 1 
17002 1 
17003 3 
17004 1 
18256 1 
18257 3 
18258 1 
19102 1 
19103 3 
19104 1 
19339 1 
19340 3 
19341 1 
21079 1 
21080 3 
21081 1 
11554 1 
11555 3 
11556 1 
11608 1 
11609 3 
11610 1 
11671 1 
11672 3 
11673 1 
11788 1 
11789 3 
11790 1 
13765 1 
13766 3 
13767 1 
13828 1 
13829 3 
13830 1 
14185 1 
14186 3 
14187 1 
14188 1 
14189 3 
14190 1 
14905 1 
14906 3 
14907 1 
16054 1 
16055 3 
16056 1 
16234 1 
16235 3 
16236 1 
16948 1 
16949 3 
16950 1 
17125 1 
17126 3 
17127 1 
17128 1 
17129 3 
17130 1 
17191 1 
17192 3 
17193 1 
17251 1 
17252 3 
17253 1 
19174 1 
19175 3 
19176 1 
19228 1 
19229 2 
19230 1 
21451 1 
21452 3 
21453 1 
11737 1 
11738 3 
11739 1 
12997 1 
12998 3 
12999 1 
13060 1 
13061 3 
13062 1 
13660 1 
13661 3 
13662 1 
14020 1 
14021 3 
14022 1 
14146 1 
14147 3 
14148 1 
14737 1 
14738 3 
14739 1 
14857 1 
14858 3 
14859 1 
15286 1 
15287 3 
15288 1 
18037 1 
18038 3 
18039 1 
19417 1 
19418 3 
19419 1 
20140 1 
20141 3 
20142 1 
20377 1 
20378 3 
20379 1 
21403 1 
21404 3 
21405 1 
21577 1 
21578 3 
21579 1 
11569 1 
11570 3 
11571 1 
11758 1 
11759 3 
11760 1 
12838 1 
12839 3 
12840 1 
13675 1 
13676 3 
13677 1 
14875 1 
14876 3 
14877 1 
15229 1 
15230 3 
15231 1 
15898 1 
15899 3 
15900 1 
16018 1 
16019 3 
16020 1 
16192 1 
16193 3 
16194 1 
18958 1 
18959 2 
18960 1 
19969 1 
19970 2 
19971 1 
20032 1 
20033 3 
20034 1 
20089 1 
20090 3 
20091 1 
21235 1 
21236 3 
21237 1 
21412 1 
21413 3 
21414 1 
