ITEM: TIMESTEP
20000000
ITEM: NUMBER OF ENTRIES
424
ITEM: BOX BOUNDS pp pp pp
0 50
0 50
0 50
ITEM: ENTRIES c_binfo[1] c_binfo[2] c_binfo[3] 
3 19457 19458 
3 19456 19457 
3 16927 16928 
3 14821 14822 
3 3125 3126 
3 10366 10367 
1 10366 19458 
3 10367 10368 
3 14822 14823 
3 6253 6254 
3 10606 10607 
3 6709 6710 
3 6710 6711 
3 563 564 
2 3437 3438 
3 5630 5631 
3 5629 5630 
1 5629 18019 
3 18019 18020 
3 18020 18021 
3 12793 12794 
1 12793 17722 
3 12794 12795 
3 16928 16929 
3 10607 10608 
3 3124 3125 
1 3124 16929 
3 13418 13419 
3 13417 13418 
1 13417 18372 
3 18371 18372 
1 3219 9406 
3 9406 9407 
3 9407 9408 
3 13256 13257 
3 1744 1745 
3 3218 3219 
3 3217 3218 
1 3217 13255 
3 13255 13256 
3 562 563 
3 17612 17613 
3 17611 17612 
3 14740 14741 
1 14740 17518 
3 14741 14742 
3 17518 17519 
3 6124 6125 
1 6124 13419 
3 6125 6126 
3 15851 15852 
3 7936 7937 
1 7936 15852 
3 7937 7938 
3 1745 1746 
3 12433 12434 
3 12434 12435 
3 15173 15174 
1 6912 15174 
3 15172 15173 
3 7861 7862 
3 4429 4430 
1 4429 7861 
1 4431 6255 
3 6254 6255 
3 4430 4431 
3 10852 10853 
3 7862 7863 
1 3096 7863 
3 3094 3095 
1 3094 6445 
3 3095 3096 
3 2867 2868 
3 2866 2867 
3 20452 20453 
3 20453 20454 
2 17299 17300 
2 17300 17301 
2 13772 13773 
2 13771 13772 
1 13771 19366 
2 19366 19367 
2 19367 19368 
1 14508 19368 
3 14507 14508 
3 8530 8531 
1 8530 17301 
3 8531 8532 
1 8532 10638 
3 10637 10638 
3 10636 10637 
3 14378 14379 
3 14377 14378 
3 1840 1841 
1 1840 19668 
3 1841 1842 
3 15689 15690 
3 15688 15689 
1 15688 17520 
2 14050 14051 
3 4372 4373 
2 3436 3437 
1 3436 4372 
3 4373 4374 
3 2362 2363 
1 2362 4374 
3 2363 2364 
3 17722 17723 
3 14107 14108 
3 14108 14109 
1 14109 14874 
3 18344 18345 
3 18343 18344 
3 13546 13547 
1 13546 18345 
3 7105 7106 
1 7105 17724 
3 17723 17724 
3 7106 7107 
3 18370 18371 
1 606 8121 
3 605 606 
3 604 605 
1 604 20538 
1 17613 20536 
3 20536 20537 
3 20537 20538 
3 19667 19668 
3 19666 19667 
3 8852 8853 
3 8851 8852 
1 8851 19194 
3 19193 19194 
3 17519 17520 
3 10672 10673 
3 15289 15290 
3 15290 15291 
3 10673 10674 
1 10674 21390 
3 9742 9743 
3 9743 9744 
3 2164 2165 
1 2164 18033 
1 13548 15850 
3 15850 15851 
3 13547 13548 
3 12421 12422 
3 12422 12423 
1 1296 12421 
3 1295 1296 
3 1294 1295 
1 1294 6910 
3 6910 6911 
1 441 10854 
3 6911 6912 
3 2230 2231 
3 163 164 
1 163 2230 
3 164 165 
3 10849 10850 
1 165 10849 
3 10850 10851 
3 2231 2232 
3 10853 10854 
3 15262 15263 
3 15263 15264 
1 6924 15264 
3 6550 6551 
3 6551 6552 
2 13577 13578 
2 13576 13577 
1 13576 16206 
3 21389 21390 
3 21388 21389 
3 18032 18033 
3 10321 10322 
3 10322 10323 
3 18031 18032 
3 3713 3714 
3 3712 3713 
1 3712 15715 
3 15715 15716 
1 15717 18015 
3 15716 15717 
3 11866 11867 
3 6445 6446 
3 8 9 
3 7 8 
1 7 6922 
3 6923 6924 
3 6922 6923 
1 9 11868 
3 1007 1008 
3 1006 1007 
3 439 440 
1 439 1006 
3 440 441 
3 11867 11868 
3 6446 6447 
1 16818 20454 
3 16817 16818 
3 16816 16817 
1 16816 16861 
3 16861 16862 
3 16862 16863 
3 10961 10962 
3 10960 10961 
3 14873 14874 
3 14872 14873 
3 2722 2723 
1 2722 10351 
3 18682 18683 
3 18683 18684 
3 10351 10352 
3 11989 11990 
3 1732 1733 
1 1732 11989 
3 1733 1734 
3 11990 11991 
1 11991 19192 
2 13073 13074 
2 13072 13073 
1 13072 15690 
3 14506 14507 
1 14506 16009 
3 16009 16010 
3 16010 16011 
1 14073 16011 
1 2364 16488 
3 14072 14073 
3 16487 16488 
3 13982 13983 
3 16871 16872 
3 16870 16871 
3 13981 13982 
1 13981 16872 
1 12423 13983 
3 8120 8121 
3 10352 10353 
3 8119 8120 
1 8119 10353 
3 16025 16026 
3 7864 7865 
1 7864 16024 
3 16024 16025 
1 7119 16026 
3 19192 19193 
3 7118 7119 
3 13105 13106 
3 2695 2696 
1 2695 13105 
3 7117 7118 
1 7117 13107 
3 13106 13107 
3 11582 11583 
2 10168 10169 
1 10168 11583 
2 10169 10170 
2 14051 14052 
3 10585 10586 
1 10585 14052 
3 10586 10587 
1 10587 15621 
3 16486 16487 
1 16486 20031 
3 20030 20031 
3 20054 20055 
3 9202 9203 
1 9202 20053 
3 1948 1949 
1 1948 9204 
3 9203 9204 
3 20053 20054 
3 18077 18078 
3 18076 18077 
1 18076 20604 
3 7081 7082 
3 2165 2166 
3 18014 18015 
1 2166 17140 
3 17140 17141 
3 17141 17142 
3 21137 21138 
3 18013 18014 
1 18013 21138 
3 21136 21137 
3 21124 21125 
3 21125 21126 
3 13315 13316 
3 4793 4794 
3 4792 4793 
1 4792 13315 
1 4794 9885 
3 13316 13317 
3 16205 16206 
3 2696 2697 
1 4515 13317 
3 16204 16205 
3 4513 4514 
1 4513 16204 
3 4514 4515 
3 16408 16409 
3 16409 16410 
3 15620 15621 
3 15619 15620 
1 12585 15619 
3 12584 12585 
3 12583 12584 
3 4978 4979 
1 1950 4978 
3 4979 4980 
3 7084 7085 
1 7084 10323 
3 7085 7086 
3 1949 1950 
1 7086 18078 
1 1770 11866 
3 8132 8133 
3 15023 15024 
1 14697 21126 
3 15022 15023 
3 8131 8132 
1 2040 8131 
3 2039 2040 
3 16460 16461 
3 16459 16460 
3 2038 2039 
1 16461 16863 
3 4291 4292 
1 4291 21160 
3 4292 4293 
1 4293 10554 
3 21160 21161 
2 10553 10554 
2 10552 10553 
2 1769 1770 
2 1768 1769 
1 1768 15918 
3 15917 15918 
3 15916 15917 
3 2723 2724 
3 14071 14072 
1 14071 20842 
3 20842 20843 
1 7866 20352 
3 20351 20352 
3 20350 20351 
3 14410 14411 
3 14411 14412 
3 11845 11846 
1 11845 14412 
3 1708 1709 
3 7865 7866 
1 1710 20346 
3 20345 20346 
3 20344 20345 
1 17799 20344 
3 1709 1710 
3 11581 11582 
1 11581 17797 
3 17797 17798 
3 17798 17799 
3 7885 7886 
3 7886 7887 
1 7887 15660 
3 920 921 
1 921 10812 
3 919 920 
3 20029 20030 
1 9978 20029 
3 20843 20844 
3 9977 9978 
3 11846 11847 
3 6118 6119 
1 6118 20844 
3 9976 9977 
1 9976 10212 
3 6119 6120 
3 7082 7083 
1 11847 20367 
3 20365 20366 
3 20366 20367 
3 20603 20604 
3 20602 20603 
3 7954 7955 
1 7954 9883 
3 9883 9884 
1 7956 11334 
3 7955 7956 
3 3940 3941 
3 9884 9885 
3 3941 3942 
2 15659 15660 
1 3942 10810 
3 10811 10812 
3 10810 10811 
1 2703 16410 
3 2702 2703 
3 14968 14969 
3 14969 14970 
3 2701 2702 
1 2701 5466 
3 5465 5466 
3 10211 10212 
3 10210 10211 
3 14696 14697 
3 14695 14696 
3 21161 21162 
1 6120 12033 
3 11333 11334 
2 15658 15659 
1 9477 15658 
3 9475 9476 
3 9476 9477 
3 2855 2856 
3 5464 5465 
3 2854 2855 
1 2854 5464 
3 12032 12033 
3 12031 12032 
2 1564 1565 
1 1564 12031 
2 1565 1566 
3 11332 11333 
