ITEM: TIMESTEP
20000000
ITEM: NUMBER OF ATOMS
477
ITEM: BOX BOUNDS pp pp pp
0.0000000000000000e+00 5.0000000000000000e+01
0.0000000000000000e+00 5.0000000000000000e+01
0.0000000000000000e+00 5.0000000000000000e+01
ITEM: ATOMS id type xs ys zs
3126 1 0.6199 0.274521 0.81817
19457 3 0.660508 0.276656 0.810534
19456 1 0.667815 0.276403 0.815613
16927 1 0.614537 0.308082 0.817841
14821 1 0.626983 0.308209 0.801964
3125 3 0.618757 0.282712 0.81761
19458 1 0.655833 0.279135 0.80491
10366 1 0.654405 0.27931 0.802919
13257 1 0.658688 0.293761 0.814727
10368 1 0.644573 0.280413 0.790922
10367 3 0.649349 0.279634 0.797266
14822 3 0.620653 0.310288 0.797508
14823 1 0.614834 0.313879 0.793516
6126 1 0.600253 0.323866 0.817072
12435 1 0.630359 0.314635 0.816474
6253 1 0.676897 0.312074 0.814767
13773 1 0.554065 0.24544 0.847942
10606 1 0.59805 0.270472 0.827662
6711 1 0.620325 0.273358 0.842429
6709 1 0.609162 0.263296 0.837514
6710 3 0.61438 0.268123 0.840343
563 3 0.642547 0.27255 0.826791
564 1 0.641189 0.26549 0.822314
5631 1 0.561345 0.289451 0.825931
3438 1 0.553509 0.283934 0.834223
3437 2 0.550042 0.282419 0.842109
10608 1 0.595141 0.288363 0.826067
5630 3 0.567923 0.287304 0.830235
5629 1 0.573452 0.285119 0.835459
18019 1 0.575667 0.284155 0.837705
18020 3 0.580676 0.281814 0.843444
18021 1 0.586638 0.279073 0.848094
12793 1 0.574581 0.302533 0.848566
12795 1 0.586317 0.302516 0.838574
12794 3 0.580185 0.302813 0.843126
16928 3 0.614021 0.299913 0.819468
10607 3 0.59715 0.279817 0.82745
3124 1 0.615619 0.290051 0.818875
16929 1 0.614993 0.293042 0.818749
13418 3 0.59966 0.302744 0.834284
13419 1 0.598597 0.308853 0.829943
13417 1 0.601822 0.296091 0.838715
18372 1 0.602591 0.293538 0.840361
18371 3 0.605337 0.28761 0.844847
3219 1 0.628327 0.296411 0.833979
9406 1 0.626504 0.297562 0.835792
9407 3 0.62102 0.301012 0.84048
9408 1 0.614249 0.303847 0.845301
13256 3 0.650593 0.292906 0.818974
1744 1 0.647878 0.309955 0.825895
3218 3 0.634157 0.29353 0.829081
3217 1 0.640982 0.293797 0.824151
13255 1 0.643461 0.293898 0.822441
562 1 0.642702 0.28028 0.830074
17612 3 0.64291 0.305214 0.843762
17611 1 0.64589 0.305209 0.836083
14740 1 0.656632 0.285151 0.845352
14741 3 0.656627 0.288164 0.8382
17518 1 0.657125 0.283585 0.847961
14742 1 0.655517 0.292749 0.831926
6124 1 0.59859 0.311289 0.827609
6125 3 0.5985 0.316983 0.821795
15851 3 0.608592 0.322711 0.84389
15852 1 0.614311 0.326461 0.839758
7936 1 0.616486 0.327527 0.838459
7938 1 0.624521 0.336647 0.827486
7937 3 0.620519 0.331451 0.832333
1745 3 0.654999 0.312852 0.823147
12433 1 0.637201 0.314589 0.830324
1746 1 0.661917 0.317157 0.822572
12434 3 0.633005 0.314597 0.824039
15173 3 0.645603 0.326391 0.838455
15174 1 0.640249 0.325671 0.844975
6912 1 0.63845 0.325313 0.846833
15172 1 0.6513 0.327296 0.832961
7861 1 0.657666 0.340755 0.833158
4429 1 0.659293 0.337893 0.832098
2232 1 0.670582 0.313761 0.843745
6255 1 0.672087 0.323905 0.825622
4431 1 0.670284 0.325877 0.82681
6254 3 0.675073 0.318021 0.821194
4430 3 0.664615 0.33187 0.829463
10852 1 0.669359 0.329434 0.846071
7862 3 0.65405 0.347374 0.834623
7863 1 0.648785 0.352004 0.837401
3096 1 0.646349 0.35299 0.83907
3094 1 0.635685 0.360945 0.847179
3095 3 0.64079 0.357454 0.84334
2867 3 0.671677 0.364299 0.841726
2866 1 0.664544 0.36933 0.843521
2868 1 0.678152 0.361805 0.837877
20452 1 0.705582 0.353495 0.841251
20453 3 0.700734 0.353712 0.847991
17299 1 0.566055 0.241967 0.851006
17300 2 0.57312 0.24634 0.852668
13772 2 0.553731 0.252239 0.851273
13771 1 0.553985 0.257748 0.857072
19366 1 0.554217 0.260434 0.859257
19367 2 0.554561 0.265571 0.865524
19368 1 0.555461 0.270224 0.870646
14508 1 0.556188 0.272375 0.873066
14507 3 0.557143 0.278191 0.87869
17301 1 0.579463 0.25029 0.853874
8530 1 0.582485 0.252075 0.853844
8531 3 0.588501 0.256732 0.85522
8532 1 0.593907 0.262226 0.857198
10637 3 0.600611 0.271387 0.857356
10636 1 0.604201 0.278676 0.855913
10638 1 0.595876 0.264329 0.857933
14378 3 0.618696 0.273028 0.869123
14377 1 0.613026 0.267406 0.86947
19668 1 0.635571 0.274424 0.854759
1842 1 0.634916 0.255815 0.851426
1840 1 0.635741 0.271494 0.854189
1841 3 0.635404 0.26357 0.852673
15689 3 0.667127 0.276707 0.871693
15688 1 0.6649 0.276213 0.863935
17520 1 0.663949 0.276926 0.861275
14050 1 0.686619 0.276764 0.875382
4372 1 0.548644 0.282699 0.853785
3436 1 0.548887 0.282603 0.85044
4373 3 0.547552 0.284912 0.861171
4374 1 0.546861 0.288803 0.8677
2362 1 0.547119 0.290667 0.87044
2363 3 0.547355 0.29624 0.876072
17722 1 0.573134 0.302164 0.85128
14107 1 0.567841 0.280863 0.856247
14108 3 0.571709 0.281296 0.863587
14874 1 0.578655 0.279297 0.873126
14109 1 0.576685 0.279748 0.870547
18344 3 0.591149 0.295551 0.864227
18343 1 0.590056 0.288408 0.868061
18345 1 0.593398 0.301991 0.860618
13546 1 0.594554 0.304219 0.859509
7105 1 0.568367 0.299518 0.869285
17724 1 0.568687 0.299366 0.866364
17723 3 0.570509 0.300569 0.857691
7106 3 0.568407 0.299866 0.876905
9744 1 0.582131 0.308632 0.876552
18370 1 0.609519 0.285543 0.851444
606 1 0.618813 0.292173 0.878063
605 3 0.623315 0.295731 0.873295
604 1 0.62759 0.298899 0.866831
14379 1 0.623988 0.279178 0.866072
17613 1 0.63979 0.30405 0.849709
20536 1 0.638236 0.303725 0.852336
20537 3 0.634238 0.302993 0.858819
19667 3 0.634101 0.282269 0.856413
20538 1 0.629138 0.299903 0.864803
8853 1 0.654602 0.302988 0.860348
19666 1 0.634852 0.290343 0.858013
8852 3 0.651547 0.297512 0.865524
19194 1 0.645749 0.290604 0.872184
8851 1 0.647155 0.292779 0.870478
19193 3 0.641937 0.285763 0.876543
17519 3 0.660651 0.279908 0.854558
10672 1 0.560694 0.317259 0.875149
15289 1 0.529585 0.318615 0.867779
15290 3 0.532026 0.319316 0.874901
10673 3 0.562747 0.325256 0.875005
10674 1 0.565791 0.333398 0.876432
21390 1 0.566426 0.336072 0.87688
9742 1 0.586245 0.319005 0.866156
9743 3 0.584004 0.314631 0.870777
18033 1 0.593038 0.339647 0.872337
2164 1 0.594343 0.337932 0.874734
13548 1 0.60221 0.316049 0.85147
15850 1 0.603832 0.317713 0.849324
13547 3 0.598216 0.31031 0.855936
12421 1 0.61099 0.314113 0.870978
12422 3 0.605229 0.312109 0.876015
1296 1 0.613763 0.315124 0.869054
1295 3 0.619512 0.318203 0.864643
1294 1 0.62449 0.321619 0.859263
6910 1 0.626584 0.322559 0.857162
441 1 0.654515 0.339122 0.852536
10854 1 0.656985 0.337977 0.851432
6911 3 0.632353 0.323633 0.852019
2230 1 0.660764 0.315851 0.856088
163 1 0.657895 0.316072 0.857783
164 3 0.651364 0.316731 0.862186
10849 1 0.643206 0.317888 0.869814
165 1 0.645277 0.317504 0.867234
10850 3 0.638467 0.319379 0.876101
2231 3 0.66651 0.314438 0.85016
6552 1 0.693712 0.314377 0.852283
10853 3 0.663071 0.334118 0.849291
15262 1 0.676311 0.323577 0.860524
15263 3 0.671364 0.327586 0.865476
15264 1 0.665753 0.33252 0.868566
6924 1 0.664314 0.33483 0.869359
6550 1 0.686338 0.322074 0.86422
6551 3 0.690878 0.317072 0.85831
13578 1 0.716139 0.333382 0.866194
13577 2 0.710688 0.331165 0.871397
16206 1 0.701778 0.32865 0.877452
13576 1 0.704383 0.329316 0.876051
21389 3 0.570506 0.342833 0.877272
21388 1 0.57437 0.350409 0.878306
18032 3 0.590988 0.344231 0.867665
10321 1 0.579477 0.36373 0.866913
10322 3 0.581159 0.360967 0.874234
18031 1 0.589347 0.350759 0.862673
3713 3 0.600459 0.36814 0.866689
3712 1 0.604071 0.361155 0.868868
15715 1 0.605053 0.359659 0.869399
18015 1 0.615564 0.345717 0.877121
15717 1 0.613766 0.347267 0.875761
15716 3 0.609231 0.352424 0.872662
1008 1 0.622336 0.341621 0.859096
11866 1 0.623951 0.366401 0.877188
6447 1 0.624022 0.371369 0.85803
6445 1 0.633862 0.36276 0.84858
8 3 0.64596 0.35159 0.874853
7 1 0.652287 0.347321 0.874105
6923 3 0.660288 0.34118 0.871602
6922 1 0.654193 0.345728 0.873726
11868 1 0.63764 0.35868 0.875348
9 1 0.639591 0.357218 0.875343
1007 3 0.629996 0.344075 0.857758
1006 1 0.638218 0.343861 0.856469
439 1 0.641168 0.343627 0.856338
440 3 0.648572 0.341746 0.854915
11867 3 0.631052 0.362258 0.875128
6446 3 0.629234 0.366769 0.854338
10962 1 0.694982 0.370542 0.873817
16818 1 0.693083 0.353642 0.855531
20454 1 0.695448 0.35337 0.853461
16817 3 0.687559 0.35386 0.860747
16816 1 0.682151 0.355061 0.866785
16861 1 0.680114 0.356555 0.869154
16862 3 0.675332 0.359417 0.875099
10961 3 0.70076 0.368295 0.868729
10960 1 0.706893 0.365843 0.86501
3714 1 0.596047 0.374711 0.865615
14873 3 0.58234 0.278537 0.880231
14872 1 0.585606 0.27836 0.887533
2722 1 0.594357 0.278048 0.905108
18682 1 0.615525 0.257818 0.897357
18684 1 0.613417 0.261728 0.88265
18683 3 0.614782 0.260486 0.890261
10351 1 0.596703 0.278901 0.903242
11989 1 0.635298 0.26386 0.891843
1732 1 0.634816 0.260965 0.893097
1733 3 0.63359 0.254256 0.895446
1734 1 0.631786 0.248588 0.900184
11990 3 0.637176 0.271854 0.887616
11991 1 0.6391 0.278202 0.883361
13074 1 0.67734 0.271895 0.896109
13073 2 0.67386 0.273151 0.888826
15690 1 0.670161 0.275692 0.879233
13072 1 0.671513 0.274614 0.882108
14506 1 0.559086 0.282954 0.884841
16009 1 0.559664 0.284786 0.88711
16010 3 0.558838 0.289995 0.892444
16011 1 0.558075 0.294673 0.899152
14073 1 0.55794 0.296009 0.902314
2364 1 0.546246 0.301798 0.881911
14072 3 0.558928 0.300647 0.908596
16488 1 0.546137 0.304041 0.883983
16487 3 0.546574 0.30994 0.890687
7107 1 0.566681 0.299179 0.88464
13982 3 0.594531 0.304206 0.887414
16871 3 0.583398 0.29204 0.895811
16870 1 0.578685 0.284878 0.898974
13981 1 0.589584 0.299993 0.890818
16872 1 0.588103 0.297755 0.892061
20055 1 0.577757 0.305295 0.895187
13983 1 0.598083 0.308108 0.881672
8121 1 0.616626 0.290345 0.879653
12423 1 0.599445 0.30937 0.879555
8120 3 0.611041 0.287665 0.883995
10352 3 0.601464 0.280496 0.896812
10353 1 0.604112 0.282948 0.891142
8119 1 0.605474 0.284132 0.889244
16025 3 0.613121 0.301475 0.901169
7864 1 0.603988 0.301543 0.905544
16024 1 0.60647 0.301859 0.90425
16026 1 0.619833 0.301969 0.897395
7119 1 0.622133 0.30199 0.896223
19192 1 0.6396 0.280029 0.881559
11583 1 0.660441 0.300571 0.904873
7118 3 0.630097 0.302909 0.893206
13105 1 0.655806 0.307295 0.886636
2695 1 0.658335 0.308777 0.885953
13107 1 0.640709 0.303613 0.890972
7117 1 0.637522 0.303513 0.891416
13106 3 0.648718 0.304816 0.889238
11582 3 0.653786 0.300233 0.908003
10168 1 0.663521 0.300891 0.902869
10169 2 0.670811 0.298905 0.901522
14051 2 0.687997 0.283499 0.879073
14052 1 0.690302 0.289309 0.883873
10170 1 0.676765 0.294993 0.899151
10585 1 0.691161 0.291425 0.884825
10586 3 0.694145 0.297921 0.88826
10587 1 0.695207 0.304729 0.891247
15621 1 0.695629 0.307481 0.892479
15291 1 0.535339 0.320419 0.882085
16486 1 0.549321 0.314988 0.896636
20031 1 0.549967 0.316634 0.898644
20030 3 0.55291 0.321233 0.905361
20054 3 0.573427 0.312904 0.895538
9202 1 0.570262 0.322665 0.894804
9204 1 0.565973 0.338497 0.894988
1948 1 0.56473 0.34104 0.895425
9203 3 0.568167 0.330194 0.893835
20053 1 0.571219 0.319983 0.894983
18077 3 0.590136 0.337773 0.90184
18076 1 0.59288 0.331506 0.907239
7081 1 0.583453 0.325365 0.90794
2165 3 0.596886 0.3329 0.880579
18014 3 0.619391 0.33952 0.880071
17142 1 0.602984 0.316761 0.900521
2166 1 0.598652 0.327897 0.886635
17140 1 0.59923 0.326612 0.88926
17141 3 0.601104 0.322338 0.89573
21138 1 0.622529 0.329791 0.884643
21137 3 0.621594 0.322278 0.887895
18013 1 0.622394 0.332503 0.883329
21136 1 0.618141 0.315789 0.892066
21124 1 0.607202 0.334398 0.898646
21125 3 0.613704 0.338267 0.901959
21126 1 0.62052 0.341019 0.904628
10851 1 0.634199 0.320252 0.882676
13315 1 0.652146 0.331266 0.89528
4793 3 0.642653 0.329312 0.902055
4792 1 0.649736 0.330426 0.896809
4794 1 0.637267 0.326908 0.906305
9885 1 0.63555 0.325862 0.908417
13316 3 0.658504 0.333186 0.890251
16205 3 0.694065 0.328376 0.87978
2696 3 0.665422 0.312682 0.885777
2697 1 0.671388 0.318291 0.885039
13317 1 0.665879 0.333906 0.88835
4515 1 0.668678 0.333675 0.887737
16204 1 0.686739 0.330187 0.88091
4513 1 0.684206 0.33058 0.88214
4514 3 0.676435 0.332903 0.885161
16408 1 0.676077 0.314711 0.895896
16409 3 0.677842 0.320801 0.902074
16410 1 0.678927 0.324729 0.908853
15620 3 0.696968 0.313983 0.89651
15619 1 0.698296 0.321903 0.898555
12585 1 0.698501 0.324959 0.899465
12584 3 0.69835 0.331911 0.90093
12583 1 0.69654 0.338608 0.902661
4978 1 0.559278 0.358781 0.892187
1950 1 0.560473 0.356205 0.893425
4979 3 0.555457 0.365621 0.89011
10323 1 0.582849 0.356494 0.880754
7084 1 0.58356 0.354742 0.88316
18078 1 0.587436 0.342959 0.897377
7085 3 0.585404 0.350452 0.889273
1949 3 0.56274 0.348871 0.89576
7086 1 0.586704 0.344592 0.895432
1770 1 0.621561 0.367661 0.878887
8132 3 0.628089 0.371138 0.903172
15024 1 0.604444 0.350496 0.901643
15023 3 0.60563 0.35863 0.902722
14697 1 0.623301 0.341928 0.906251
15022 1 0.608241 0.366283 0.903881
8131 1 0.632209 0.365331 0.899551
2040 1 0.633875 0.363203 0.89777
2039 3 0.637837 0.35741 0.894358
16460 3 0.660288 0.364329 0.886054
16459 1 0.653015 0.366097 0.88752
2038 1 0.642061 0.351133 0.890564
16461 1 0.667354 0.36322 0.882492
16863 1 0.669728 0.362378 0.880913
4291 1 0.674487 0.351402 0.906885
4292 3 0.681496 0.352972 0.90391
10554 1 0.691636 0.356007 0.898539
4293 1 0.688916 0.355033 0.899565
21160 1 0.67221 0.351074 0.907532
10553 2 0.697713 0.357947 0.894295
10552 1 0.704887 0.35819 0.888742
4980 1 0.552212 0.372856 0.889535
1769 2 0.617322 0.372279 0.883724
1768 1 0.611331 0.376638 0.887247
15918 1 0.609204 0.378946 0.888892
15917 3 0.603885 0.383713 0.892047
15916 1 0.599013 0.389551 0.895675
8133 1 0.624297 0.376083 0.906121
2724 1 0.582886 0.275028 0.917923
2723 3 0.587865 0.276958 0.911338
14071 1 0.559868 0.304889 0.914451
20842 1 0.56002 0.307116 0.916904
7866 1 0.589717 0.303333 0.912022
20351 3 0.579669 0.302029 0.914699
20352 1 0.58674 0.303539 0.912936
20350 1 0.571801 0.301788 0.915717
14410 1 0.577347 0.287506 0.934698
14411 3 0.576492 0.295782 0.933178
11845 1 0.579203 0.306172 0.932603
14412 1 0.578067 0.303571 0.932768
1708 1 0.594091 0.308921 0.927593
7865 3 0.596978 0.301517 0.909196
20346 1 0.61214 0.3062 0.924702
1710 1 0.609505 0.307044 0.925817
20345 3 0.618916 0.304186 0.921959
20344 1 0.62648 0.302709 0.919673
17799 1 0.628783 0.30201 0.918444
1709 3 0.601559 0.308045 0.927807
11581 1 0.646033 0.299622 0.91136
17797 1 0.64305 0.299738 0.912174
17798 3 0.636302 0.300248 0.914735
7885 1 0.656837 0.303058 0.92591
7886 3 0.649684 0.305899 0.929437
7887 1 0.642655 0.308106 0.933266
15660 1 0.639688 0.30937 0.934689
920 3 0.683697 0.302993 0.920304
10812 1 0.674172 0.308022 0.919611
921 1 0.676233 0.306675 0.919752
919 1 0.691214 0.300334 0.921454
20029 1 0.554954 0.327681 0.910442
9978 1 0.55588 0.330413 0.912064
20843 3 0.56158 0.313589 0.922395
9977 3 0.557975 0.336474 0.916417
20604 1 0.59418 0.329814 0.90928
11846 3 0.582876 0.313644 0.932706
20844 1 0.562515 0.318848 0.927539
6118 1 0.563144 0.320428 0.929505
9976 1 0.564287 0.341045 0.920545
6119 3 0.56455 0.325495 0.934906
7082 3 0.577491 0.324726 0.914314
7083 1 0.571709 0.324509 0.920124
11847 1 0.586718 0.320763 0.934431
20365 1 0.591828 0.336978 0.931009
20367 1 0.587824 0.323621 0.934725
20366 3 0.590861 0.330906 0.934491
20603 3 0.598707 0.326142 0.914983
20602 1 0.603951 0.321568 0.918857
7954 1 0.622604 0.324724 0.92154
9883 1 0.625139 0.324045 0.91935
11334 1 0.612008 0.330336 0.93436
7956 1 0.613392 0.329218 0.932306
7955 3 0.617807 0.326601 0.926187
3940 1 0.651921 0.333756 0.92
9884 3 0.629508 0.324651 0.914211
3941 3 0.656882 0.32746 0.91895
15659 2 0.63361 0.313467 0.938226
3942 1 0.661 0.321965 0.919583
10811 3 0.667566 0.313164 0.91984
10810 1 0.662793 0.319588 0.919577
2703 1 0.679508 0.32582 0.912084
2702 3 0.679511 0.328401 0.919032
14968 1 0.662664 0.33839 0.938065
14969 3 0.667646 0.340955 0.932011
5466 1 0.681885 0.328107 0.930174
2701 1 0.681745 0.328132 0.92687
5465 3 0.682091 0.325758 0.938049
10212 1 0.566858 0.342763 0.921534
10211 3 0.57367 0.347387 0.923413
10210 1 0.579793 0.352459 0.925696
14696 3 0.627982 0.34533 0.910251
21162 1 0.657221 0.347779 0.910999
14695 1 0.632778 0.347659 0.916086
21161 3 0.664788 0.350237 0.910638
14970 1 0.672612 0.343639 0.926168
6120 1 0.565205 0.331991 0.940022
12033 1 0.565439 0.3343 0.941623
11333 3 0.609978 0.335491 0.940558
15658 1 0.62793 0.316501 0.942724
9477 1 0.626147 0.317449 0.944533
9475 1 0.616613 0.320047 0.956175
9476 3 0.621298 0.318688 0.950493
2855 3 0.680992 0.31948 0.955952
5464 1 0.68182 0.324096 0.946215
2854 1 0.681186 0.322878 0.949522
2856 1 0.679961 0.316456 0.963459
12032 3 0.564385 0.34136 0.94442
12031 1 0.564986 0.348446 0.947359
1564 1 0.564767 0.35109 0.947679
1566 1 0.569385 0.366208 0.946156
1565 2 0.566035 0.358881 0.948491
11332 1 0.607882 0.341271 0.946435
