ITEM: TIMESTEP
20000000
ITEM: NUMBER OF ATOMS
63
ITEM: BOX BOUNDS pp pp pp
0.0000000000000000e+00 5.0000000000000000e+01
0.0000000000000000e+00 5.0000000000000000e+01
0.0000000000000000e+00 5.0000000000000000e+01
ITEM: ATOMS id type vx vy vz 
21463 1 -0.656436 -1.18098 2.45772 
21464 2 3.46809 -0.120228 0.261982 
21465 1 -0.997226 1.5136 -1.39245 
2730 1 -0.968963 4.02431 -2.39866 
3144 1 2.40186 0.0865024 -2.57794 
3143 3 1.95448 -0.954366 -1.24754 
20532 1 0.663512 -2.74757 3.55064 
20531 3 1.51673 0.147979 -0.763664 
2729 2 0.0975486 -2.77382 -2.26854 
2728 1 -2.45213 -4.61817 1.24778 
15698 3 -0.322145 0.973916 -0.0764321 
3142 1 -1.94129 -2.10959 -1.6939 
129 1 -2.73215 -3.04183 -2.10715 
13678 1 0.0476627 -2.77215 6.7708 
13679 3 -2.09857 -2.22135 -2.23497 
128 3 0.648003 -2.36537 2.23124 
127 1 1.99123 0.184712 3.04777 
21474 1 -5.79528 0.761544 3.14215 
21473 3 0.988691 -2.35133 -1.31918 
13680 1 2.99993 1.83534 4.61231 
8812 1 -5.24758 -2.78111 2.2946 
8813 3 -0.658125 2.2877 0.605952 
8814 1 0.0553894 1.7731 -2.36707 
15699 1 -3.30009 3.3064 4.22395 
10909 1 -2.48796 2.68388 -3.64499 
10911 1 0.768148 -0.756325 2.38633 
10910 3 0.182997 -2.33912 4.27527 
20530 1 -4.51466 1.23708 1.25432 
7353 1 -2.83619 -4.88938 1.71115 
17500 1 0.286836 -1.78845 -10.1787 
20585 3 1.70223 1.05755 0.738688 
20586 1 -1.82542 0.393786 8.72665 
20584 1 -0.866038 -4.84224 -0.16698 
7352 3 -3.18879 1.0957 -3.74656 
11818 1 3.15423 1.51144 6.60757 
15697 1 -3.49292 -2.74848 -2.7402 
15258 1 -3.39405 3.60673 -4.34689 
11820 1 -1.51819 0.454882 4.48417 
11819 3 -0.672857 2.93014 -5.8587 
21472 1 -5.91079 2.46899 -4.96043 
6511 1 -0.568433 5.99053 -5.14599 
6512 3 3.05256 -0.347144 2.17725 
17501 3 1.48928 -2.03642 -2.88491 
6513 1 4.71682 -4.39004 -2.54843 
18775 1 0.00706454 4.49578 -1.79369 
18776 3 -0.449605 -3.13667 2.92632 
4158 1 -0.468417 -2.13394 3.23482 
4157 3 -0.883432 1.50958 3.31909 
7351 1 1.29059 -3.7715 -3.77967 
4156 1 2.03455 7.17258 -2.77181 
21318 1 -0.234973 -3.16472 -3.54559 
21316 1 -1.66862 -4.31133 -2.17969 
21317 3 0.365414 -4.55534 -0.129162 
18777 1 2.25189 2.68678 -4.85181 
20475 1 2.21978 0.671354 -1.10235 
20474 3 -1.62477 0.33081 3.09319 
20473 1 0.889956 3.99789 -3.63646 
15257 3 -2.03525 2.33084 0.310224 
2046 1 -5.93078 -1.36505 -3.68109 
15256 1 -1.55295 2.30332 3.68865 
2044 1 5.99458 4.00269 -1.57337 
2045 3 -1.67215 1.51074 -1.89907 
17502 1 3.79145 2.77783 3.44315 
