ITEM: TIMESTEP
20000000
ITEM: NUMBER OF ATOMS
63
ITEM: BOX BOUNDS pp pp pp
0.0000000000000000e+00 5.0000000000000000e+01
0.0000000000000000e+00 5.0000000000000000e+01
0.0000000000000000e+00 5.0000000000000000e+01
ITEM: ATOMS id type xs ys zs
21463 1 0.060994 0.801236 0.582512
21464 2 0.0672312 0.806444 0.583731
21465 1 0.0736577 0.80956 0.585783
2730 1 0.0764157 0.810982 0.586681
3144 1 0.115665 0.810132 0.5743
3143 3 0.11565 0.812414 0.581354
20532 1 0.106754 0.798234 0.620995
20531 3 0.114522 0.796875 0.620886
2729 2 0.0836821 0.811995 0.589382
2728 1 0.090238 0.814543 0.593836
15698 3 0.0896738 0.833419 0.61828
3142 1 0.115201 0.814923 0.589773
129 1 0.0929478 0.815592 0.596039
13678 1 0.115995 0.816167 0.592477
13679 3 0.120172 0.819274 0.599083
128 3 0.0985849 0.817963 0.600781
127 1 0.102973 0.818974 0.607186
21474 1 0.104954 0.819928 0.610242
21473 3 0.108447 0.819932 0.618326
13680 1 0.124422 0.819907 0.606393
8812 1 0.126235 0.820471 0.609202
8813 3 0.130065 0.82168 0.615267
8814 1 0.132821 0.826247 0.621056
15699 1 0.0919404 0.83875 0.613205
10909 1 0.0909005 0.80433 0.633001
10911 1 0.103602 0.799302 0.621856
10910 3 0.0961246 0.801763 0.625716
20530 1 0.123079 0.795707 0.621405
7353 1 0.116639 0.799455 0.636448
17500 1 0.0988601 0.803128 0.647939
20585 3 0.134742 0.794679 0.62264
20586 1 0.125903 0.795833 0.62195
20584 1 0.142988 0.792214 0.623989
7352 3 0.124157 0.80458 0.638198
11818 1 0.0889788 0.805507 0.634966
15697 1 0.0879465 0.829154 0.624707
15258 1 0.0816684 0.817578 0.648347
11820 1 0.0826421 0.815462 0.646169
11819 3 0.0849906 0.810327 0.640322
21472 1 0.11039 0.820781 0.625218
6511 1 0.11063 0.821388 0.628546
6512 3 0.111284 0.821126 0.636083
17501 3 0.105758 0.805861 0.652819
6513 1 0.112079 0.819442 0.643858
18775 1 0.133879 0.827675 0.623188
18776 3 0.136468 0.832957 0.628336
4158 1 0.132589 0.810677 0.640682
4157 3 0.139179 0.815005 0.642521
7351 1 0.130401 0.809341 0.640007
4156 1 0.146328 0.81883 0.642259
21318 1 0.149107 0.820583 0.642247
21316 1 0.160598 0.830277 0.642374
21317 3 0.155942 0.824834 0.641053
18777 1 0.139587 0.838991 0.632368
20475 1 0.140674 0.840843 0.634522
20474 3 0.143457 0.844891 0.639874
20473 1 0.146777 0.84743 0.646083
15257 3 0.0796635 0.822402 0.654139
2046 1 0.0736615 0.8285 0.660399
15256 1 0.0752935 0.827178 0.658527
2044 1 0.0620527 0.835879 0.670033
2045 3 0.0680737 0.83201 0.665898
17502 1 0.111729 0.810519 0.656578
