ITEM: TIMESTEP
20000000
ITEM: NUMBER OF ATOMS
849
ITEM: BOX BOUNDS pp pp pp
0.0000000000000000e+00 5.0000000000000000e+01
0.0000000000000000e+00 5.0000000000000000e+01
0.0000000000000000e+00 5.0000000000000000e+01
ITEM: ATOMS id type vx vy vz 
5676 1 0.817006 0.327031 2.94171 
13605 1 -3.56113 -1.91583 -3.86522 
14419 1 -1.46968 -3.31196 -2.30051 
13604 3 3.05454 -1.17047 4.11055 
13603 1 1.8728 -2.83079 1.96488 
334 1 2.697 1.77564 3.81387 
9186 1 2.92588 5.74585 5.46209 
14911 1 0.166781 -4.76852 -2.89726 
13164 1 -0.0966171 1.69547 7.66316 
9185 2 -6.34635 4.15954 -2.00916 
9184 1 -1.98319 3.58116 -1.09059 
2466 1 -1.30916 2.77727 1.52875 
2464 1 1.23513 -0.64507 -3.80658 
2465 2 -1.36502 -2.19063 -0.508456 
2448 1 -5.0736 1.88965 -2.66138 
2447 2 -2.48486 0.114847 0.235328 
2446 1 -0.162865 -0.597852 0.479382 
11019 1 -2.11535 2.03454 2.2786 
2167 1 -3.63586 -1.98291 6.15421 
2168 2 2.67307 -3.6931 -5.36719 
2169 1 -0.298406 2.54006 4.20888 
753 1 -2.09373 -0.584428 2.37958 
21229 1 -1.6358 -3.39009 4.52506 
752 2 -2.38374 0.389579 0.994264 
751 1 0.833039 -6.83252 0.432901 
17439 1 -1.48674 -0.13134 7.90371 
9570 1 1.48281 -3.52137 -3.1159 
11651 2 3.17435 -1.93043 2.00041 
11652 1 -0.119318 -7.08888 1.47445 
11650 1 2.02772 1.97886 -7.66572 
17437 1 6.09871 -1.55745 -1.47386 
17438 2 1.3844 2.65647 -4.04742 
14011 1 0.221034 -1.08061 0.452516 
16140 1 -6.78957 3.66205 1.29489 
5675 2 -1.71457 2.09857 3.20166 
5674 1 -2.53929 4.06264 -0.152517 
16138 1 2.42183 -2.48694 2.12263 
16139 2 -0.382516 1.61575 0.924392 
249 1 4.17394 -2.28494 2.22976 
7925 2 1.2443 -1.13115 3.05562 
4976 2 -1.28081 1.42171 6.66187 
4977 1 -2.40866 3.166 -2.92883 
7924 1 -3.44222 0.542117 1.73425 
13744 1 0.720481 -0.109681 0.666851 
335 2 -0.32283 0.153389 -0.672095 
247 1 -3.3048 6.31162 -6.04842 
17317 1 3.46492 7.76607 -2.87009 
13746 1 5.54355 7.04908 6.52115 
248 2 -0.663301 0.575359 1.61654 
336 1 1.85474 0.297904 -0.226365 
1516 1 -4.94942 4.49801 -6.0487 
13745 2 -3.67247 2.87852 5.30217 
1517 2 -1.78441 -2.22897 2.90838 
1518 1 1.66332 -1.32788 1.00263 
19642 1 -0.206197 4.2534 4.1841 
1318 1 2.35882 3.30862 2.49843 
1319 3 -0.609741 1.12826 2.8486 
21231 1 1.96154 -1.56097 0.925792 
1320 1 -1.81925 0.435753 1.46885 
21230 3 -2.28844 2.07041 -0.46676 
20777 2 5.63152 1.54661 -3.75359 
20776 1 -3.19371 -1.24711 -3.93597 
20778 1 -4.85224 0.886628 -2.22991 
14420 2 -1.08403 -1.17275 0.986191 
14421 1 -4.24158 -0.171212 -3.91723 
17116 1 3.45408 0.710698 2.05705 
4975 1 3.57476 -2.71013 -2.29581 
19644 1 0.646611 -3.27375 -5.28425 
19643 3 -0.224024 1.90986 -2.53649 
14912 2 -2.55953 0.925563 -0.806531 
14913 1 0.0194585 -0.511661 1.04796 
14829 1 -1.10516 0.13686 -2.94712 
20790 1 3.48356 -1.25054 -1.32785 
20789 2 -0.0320228 2.89587 -0.380881 
20788 1 0.491535 0.428867 -2.69312 
11017 1 -2.88371 0.302343 -6.25323 
11018 2 4.07969 -4.18545 -1.8668 
16383 1 -12.743 4.04365 1.571 
11350 1 1.05095 -0.18774 -1.92863 
18781 1 4.38765 3.9459 0.612407 
18783 1 -6.80932 6.03169 4.8411 
18782 2 3.37313 0.540112 0.677765 
8242 1 1.5133 -0.941745 -0.670952 
11659 1 -1.01657 2.64591 -1.23957 
11660 2 -0.649936 -0.707498 1.79891 
14105 2 -2.73238 -1.98985 2.41454 
14106 1 -1.38935 0.382307 0.232839 
9049 1 -2.138 -1.71418 0.804541 
9050 2 1.67865 0.786717 -3.08714 
8302 1 3.26832 -5.83143 -0.439401 
3838 1 1.29619 -3.67996 1.4643 
9051 1 2.75016 -0.159979 -2.2973 
13162 1 0.467127 2.61303 1.66582 
13163 2 0.798385 1.75466 0.534607 
3839 2 2.61046 -0.92285 1.104 
14012 2 -2.40816 -1.76069 3.31311 
14013 1 -0.344735 6.86125 7.77179 
3840 1 2.22266 -1.34104 -3.98476 
12472 1 -0.489443 0.866906 -1.43691 
17573 2 3.17282 -0.872256 0.832527 
12473 2 -0.443779 -4.20638 -1.7793 
17572 1 -1.759 2.70322 0.0458731 
14827 1 2.95612 1.9514 -9.37394 
4818 1 -7.69042 2.47301 0.529202 
4816 1 -3.25352 -0.823906 -2.83357 
4817 2 3.3182 1.06712 -1.64951 
14828 2 1.47743 0.603795 0.893961 
17318 2 3.35794 -2.23538 -1.47221 
192 1 1.10525 -6.91979 -4.52375 
191 2 -1.31429 -0.42388 0.0664719 
190 1 5.06968 -2.10649 2.92953 
17319 1 2.9905 1.82252 1.41821 
6364 1 -2.26352 2.32186 -4.3208 
15280 1 2.45679 0.62835 -2.769 
15281 2 -0.199381 -0.190913 3.68459 
15282 1 -2.1784 -3.34917 -0.31343 
17599 1 2.95378 4.55846 2.94033 
17600 2 -2.76199 2.14557 3.17136 
8243 2 0.39329 0.822098 -1.31433 
8244 1 -3.28243 -3.88057 0.334301 
11661 1 1.10092 -6.12554 -1.15165 
9569 2 4.411 3.17516 3.32102 
5521 1 -0.11717 -3.19071 1.08357 
20478 1 5.50741 -0.23821 -0.926294 
4916 2 -0.090423 -3.00441 4.54375 
17118 1 -3.42019 -3.12496 3.18097 
14182 1 -0.535897 4.74934 2.41826 
14183 2 1.3733 -1.41286 0.663341 
14184 1 -5.15118 4.45191 -0.976959 
4917 1 -4.64532 4.02155 1.16268 
6651 1 5.20814 -2.18961 0.762364 
6650 2 2.16258 3.29513 -1.64157 
7926 1 -1.41354 -1.76233 1.71437 
14766 1 0.337754 -1.04331 1.19793 
17574 1 -0.0321002 2.83022 -3.02882 
6649 1 1.56853 -1.62833 4.17391 
14764 1 -2.07068 4.00989 -1.82838 
14765 2 4.27439 2.93318 2.2644 
17992 1 -1.15233 -0.589214 4.09071 
1902 1 -0.588445 4.7803 3.30396 
1901 2 -1.44867 1.4862 0.109517 
17993 2 -2.00109 1.63261 0.421895 
12459 1 4.13633 1.19215 -0.681896 
16546 1 -3.9664 1.06798 5.50014 
16547 2 -5.0315 1.62253 -0.779264 
17994 1 7.25173 6.90825 1.53609 
16548 1 3.39651 -0.584206 -4.82 
17344 1 -1.14341 1.84141 -6.0921 
17346 1 -1.37096 -5.24826 0.827449 
7785 1 0.42459 -0.261775 -5.00271 
7784 2 -2.3713 1.5006 -4.58178 
17601 1 1.29404 1.05516 5.39343 
7783 1 -0.449658 3.98839 -2.72551 
17345 2 -0.361382 -0.358511 -0.649058 
14214 1 -0.372716 1.70962 -7.10357 
9568 1 0.791621 2.07141 -2.22193 
5522 2 0.189654 -2.83166 1.55665 
1693 1 -2.23002 -2.27805 -0.939731 
17117 2 -0.68798 -0.949558 0.972161 
1694 2 1.93529 3.99958 0.339683 
1695 1 2.66615 1.82614 -1.12895 
5523 1 -2.39048 4.18756 -0.519875 
10189 1 2.8556 4.60755 -5.05128 
1900 1 -5.85084 -0.087726 1.9095 
10190 2 0.366543 3.51443 2.45031 
10191 1 4.16266 7.07517 -1.19265 
10185 1 -0.317861 5.91438 2.07316 
21387 1 1.15025 4.51116 1.37483 
21386 2 0.150392 -1.9733 -3.33481 
8490 1 2.2402 -5.16589 -2.72 
21385 1 -3.06222 2.7354 -4.09726 
8489 2 0.73166 -2.47165 2.07338 
8488 1 -3.97808 -0.502362 -1.11281 
166 1 0.255607 -0.06046 2.50399 
7868 2 -3.07201 4.75699 1.74878 
7869 1 0.132695 0.288059 1.97507 
7867 1 4.78811 -5.25416 -4.74613 
19083 1 1.27592 0.684376 -2.86847 
3544 1 -5.86764 2.4325 -4.93337 
3546 1 -0.332101 -0.978753 4.77226 
3545 3 1.09823 2.59796 3.81395 
20505 1 3.44012 1.98984 1.08529 
4072 1 -0.814999 3.29687 0.0386615 
4603 1 -1.85922 -0.788795 1.43491 
9874 1 -2.6716 0.846886 -2.50642 
9875 3 1.35654 1.531 -4.30878 
4073 2 0.889051 2.60579 -1.61781 
9876 1 1.47851 4.01379 -2.64066 
14086 1 -3.38458 -6.2591 -5.28076 
3427 1 1.84394 2.88427 -1.52613 
14070 1 1.16508 -0.901739 2.44355 
12411 1 -3.36165 5.52978 -7.71779 
1423 1 1.96972 -1.22529 -0.0752968 
12410 2 -0.750395 -3.66509 1.066 
12409 1 -0.697348 -0.166504 3.76877 
1424 2 3.40306 -3.17376 5.67169 
14069 2 1.22278 -4.31852 1.10271 
12474 1 1.66326 -4.15306 4.49686 
3429 1 -2.42933 1.77396 2.33604 
11456 2 1.68075 -3.58567 -1.33776 
11455 1 1.59334 -8.17419 -4.78083 
3428 2 6.05256 0.868385 2.89763 
14068 1 0.915858 -2.57367 3.14881 
6749 2 0.188055 -2.10483 -1.26087 
11351 2 2.30009 -0.641054 1.55499 
6750 1 1.35952 9.54252 -0.30396 
11352 1 0.377558 -0.76898 3.08176 
16382 2 -1.46313 -0.688009 -1.67961 
14548 1 9.09988 3.68859 7.16065 
16381 1 -2.57136 2.0436 -2.12402 
14549 3 3.39454 -0.911746 2.78526 
14550 1 1.02185 2.00147 -1.91127 
18924 1 -5.82768 1.81811 3.05792 
17070 1 3.9275 -0.307797 1.396 
5991 1 0.0253909 0.00168501 -0.753815 
18919 1 -5.04748 -0.195938 2.10068 
18920 2 -1.30999 0.803852 -2.36934 
5990 2 0.752879 -3.42174 0.996441 
14104 1 5.0452 -5.91886 -2.06393 
14087 2 1.87208 2.31839 -2.75515 
14088 1 2.53313 -1.49006 -0.0566094 
5909 2 -3.02009 2.36862 2.99515 
4942 1 -1.26127 4.62254 3.34671 
5910 1 -0.48948 -0.991266 -0.784329 
8303 2 -0.824197 -3.23958 2.0576 
8304 1 -4.65947 -6.8455 -3.57847 
5908 1 2.01625 7.61974 0.339312 
1425 1 -5.90744 0.761855 3.36429 
5917 1 -0.238738 -1.30008 -3.84001 
15340 1 -1.65068 -0.707729 2.19599 
15341 2 -1.30285 -1.30249 0.935816 
5918 2 -5.0598 -2.59598 4.4123 
5919 1 -5.21123 1.56933 -3.6524 
15342 1 0.6902 0.0900684 2.85371 
6366 1 5.48691 0.403637 3.85298 
6365 2 0.291074 -3.21481 -2.51043 
4174 1 -4.09512 0.739126 8.32628 
17493 1 -5.58489 -5.41084 2.55815 
17492 2 0.0588745 -3.1943 -1.7554 
8605 1 -1.98591 1.42802 -2.20586 
17069 2 -1.09093 2.18272 3.55248 
18642 1 1.23508 -6.88848 -3.45623 
8607 1 0.439694 -2.51847 -1.69877 
15250 1 -4.6975 -1.03485 2.52993 
8606 2 1.41258 -0.386499 1.47999 
17068 1 -2.58189 2.45465 1.74766 
9025 1 -3.29623 5.24726 -5.42009 
9026 2 -6.15785 0.613435 2.037 
912 1 -1.64662 4.11541 -2.94124 
14212 1 3.159 -2.44163 1.69439 
911 2 0.32957 0.449043 -0.186186 
14213 2 -2.5182 -7.21767 2.3196 
9027 1 -1.11678 0.559027 -1.61232 
910 1 2.46876 3.18047 -1.95312 
20477 2 2.82027 4.63983 -1.09112 
14017 1 -0.0297316 0.448473 5.01859 
20476 1 -1.74242 4.82346 -6.12426 
14018 2 -3.90021 -1.40572 -1.46753 
14019 1 1.00491 0.128205 5.8005 
503 2 -0.675283 -0.621844 0.380345 
502 1 -1.08601 -2.21966 0.0375078 
4915 1 2.5812 0.895991 1.57179 
2260 1 -2.13115 -5.82467 -4.43959 
504 1 0.0338714 -3.44266 -1.84364 
11520 1 5.15149 0.932765 -6.13292 
11519 2 2.44003 -0.467681 -0.253957 
11518 1 1.67625 -2.48321 3.02972 
2261 2 -0.12818 -2.11485 -1.52645 
2262 1 -5.26868 0.34363 -11.0027 
16765 1 0.494884 1.13642 -4.91013 
16766 2 -0.123537 4.7309 -0.872147 
16767 1 -3.3202 2.56779 -3.16251 
20631 1 0.688703 4.07733 -3.53836 
3133 1 3.26742 -3.98296 -0.222971 
20630 2 -1.62925 -1.57674 0.0292743 
4176 1 -6.62134 3.90477 -0.513542 
4175 2 -3.75006 -1.99775 3.57874 
6020 2 0.0882088 -4.43154 1.65533 
6019 1 0.266179 -8.89881 2.3288 
6021 1 3.35383 -1.17163 -1.25029 
18676 1 1.75457 -0.248491 3.76645 
17491 1 -5.56066 -5.46472 1.20602 
18000 1 -0.987826 3.62282 3.45202 
17999 2 -3.07156 -0.0436069 2.59649 
17998 1 -5.68003 -1.17241 -0.587944 
15252 1 1.47818 1.62877 0.623829 
15251 2 -2.36074 0.468957 1.17078 
17008 1 2.77589 2.32455 1.78996 
17009 2 0.20405 1.5499 -1.13385 
17010 1 -2.65203 -3.59117 0.449044 
16822 1 0.943355 2.88916 2.38101 
16823 2 1.24624 2.59477 -0.811724 
16824 1 -4.67639 2.21688 -4.19235 
168 1 -0.336149 8.18185 -1.8342 
167 2 1.78735 2.54053 -1.62812 
6779 2 1.67842 0.710473 0.267596 
6780 1 1.75741 3.68096 0.528939 
19214 2 -0.680107 1.65222 -1.35615 
19213 1 2.43868 1.14479 -1.58835 
19215 1 1.88484 1.04916 0.0638446 
3135 1 -1.83988 0.0326163 0.643037 
12931 1 0.748228 -2.85337 -4.49721 
3134 2 0.67909 0.465652 -0.736544 
12932 2 -1.02361 3.32566 -2.92085 
15067 1 3.72452 0.776004 -3.29367 
15068 2 0.718042 1.80601 0.623973 
15069 1 1.06059 -0.127306 -0.915605 
12457 1 5.06603 3.09403 -4.2555 
18499 1 4.90505 -4.5578 -1.56014 
12933 1 0.6205 3.69007 -3.02091 
18500 2 -1.61602 -0.507476 -2.03631 
18501 1 -0.922909 1.59223 -0.230189 
12458 2 0.843393 0.535186 0.336872 
17985 1 0.730061 -0.0946412 -6.95189 
17983 1 -2.25365 2.38733 -0.535362 
17984 2 -3.92408 -4.55723 1.30745 
13180 1 0.788021 2.88445 2.36305 
13181 2 4.7654 -4.32085 -1.15283 
13182 1 -6.84077 -1.82535 2.7728 
10183 1 6.68398 3.45164 4.65809 
10184 2 3.20915 0.499564 -1.42607 
10419 1 0.212466 -0.790767 -4.6601 
10418 2 3.14609 4.74962 -2.38881 
20504 2 2.87234 4.5478 -3.10638 
18923 3 1.37161 -0.911023 -4.27722 
19082 2 -1.41178 1.82871 0.805192 
19081 1 -3.90136 0.271129 2.65761 
5145 1 -2.26406 -0.535191 6.68861 
5144 2 -1.41256 -1.54437 -3.91377 
5143 1 1.09647 -2.68206 0.0829546 
2338 1 -4.09545 -6.29786 -0.853458 
2339 2 -0.11891 -0.618284 -1.70014 
4604 2 -2.71611 3.71778 -1.35032 
4605 1 4.25159 3.21643 -1.07836 
4074 1 1.25426 -6.67252 -1.60248 
5895 1 2.14516 -4.88518 -3.93853 
14175 1 3.16758 -2.06526 3.12947 
14173 1 0.873105 -1.16938 2.73729 
14174 2 3.21822 0.827396 -2.60457 
5894 2 -1.99909 1.14503 1.06593 
5770 1 -3.56614 -2.46985 5.08626 
5893 1 2.8224 -1.94022 -2.81615 
1238 2 -3.63321 2.39301 0.0559246 
20503 1 -5.93663 -2.7492 -2.48508 
6661 1 2.15875 -5.97115 4.44569 
1237 1 0.696045 4.42135 -5.13596 
6663 1 -7.80739 4.09883 7.00279 
6662 2 1.5989 -1.63613 -2.59675 
13718 2 -0.00959795 -1.67302 2.25695 
11457 1 -2.44034 -1.15165 8.05607 
9756 1 4.79375 -0.536353 1.02507 
9755 2 -2.47459 -3.7494 1.4256 
6748 1 0.202645 7.71455 -3.34091 
15792 1 -1.92016 -3.62306 1.87549 
993 1 5.65616 0.494818 3.55226 
992 2 0.664842 -0.260098 0.31666 
991 1 3.81604 -2.81788 3.31141 
13719 1 -2.32208 -4.02618 -0.609614 
15791 2 -0.660915 5.14471 2.03882 
18922 1 0.680687 -1.38478 -0.806016 
828 1 -1.2237 1.6787 -1.51355 
827 2 0.523255 -1.88874 2.892 
826 1 -1.6637 4.94447 -5.62348 
11950 1 2.96486 -2.70538 6.5526 
11951 2 0.151545 1.06275 1.19596 
5989 1 -5.69535 0.468369 0.637237 
11952 1 5.78411 -3.9038 0.910471 
3552 1 -2.89132 -1.26282 8.73636 
3551 2 -2.39256 2.29756 1.81618 
3550 1 2.36957 1.84078 -1.0389 
117 1 3.1965 2.98038 2.02683 
17133 1 -0.626294 -0.577062 6.98788 
5771 2 1.64139 -3.63253 1.76674 
2340 1 -4.23948 0.0333969 0.91499 
9945 1 0.146295 -2.31555 -0.181762 
17132 2 4.14924 3.3214 3.20144 
760 1 0.0240486 2.00396 2.49406 
17131 1 -2.25171 -0.38289 4.4813 
761 2 0.278885 -8.53961 -0.16811 
762 1 -4.27186 0.324521 -2.08469 
8682 1 2.92289 -2.46476 1.36877 
5772 1 0.52198 -0.718068 -4.33342 
1741 1 -1.10457 -1.35662 1.75812 
9754 1 3.34444 -1.15661 5.48002 
19217 2 -0.914419 -4.0884 -0.809242 
19218 1 0.966114 -4.56301 7.82264 
19216 1 4.50202 -0.0620211 -5.06424 
4481 2 0.927934 -1.1471 5.06427 
4482 1 0.450153 -2.49625 -2.50633 
2126 2 2.24239 0.682554 0.836055 
2125 1 3.10413 -2.59633 -2.29548 
4480 1 -4.16387 -3.95321 -3.07666 
4132 1 -2.45231 4.77842 3.82299 
4133 2 0.216705 -2.22713 -0.219543 
4134 1 0.277496 1.48554 0.639754 
5896 1 -1.04606 2.43261 2.85735 
5897 2 -0.820647 -2.69118 1.32413 
9099 1 2.23867 0.915798 8.17631 
9098 2 1.32117 0.0234911 4.64308 
18106 1 7.44273 0.773701 1.15882 
15790 1 4.2459 -1.38997 1.58941 
706 1 2.78684 -4.9484 -2.37639 
707 2 -3.87855 1.26422 3.47708 
18641 2 3.00757 2.12028 -1.76255 
21320 2 1.10186 0.381732 3.33888 
708 1 -1.84777 -4.61314 -2.67802 
21321 1 9.25323 -1.1399 1.61723 
18640 1 -0.490839 -6.00955 -5.11092 
181 1 5.13174 -8.69874 -5.94786 
21319 1 -2.60491 3.38793 -3.38623 
16312 1 1.08159 1.20416 2.24937 
16314 1 1.54368 0.534626 2.47929 
16313 2 2.77918 -0.95299 1.84764 
2187 1 5.86934 3.63928 8.45619 
8891 2 2.68909 1.1137 6.82182 
8892 1 -3.6754 -2.64733 -3.32242 
8890 1 -0.709264 -0.354715 1.02952 
18547 1 -0.501296 -1.56198 -4.02688 
18921 1 7.3283 5.0904 0.191971 
5964 1 -3.90709 6.15876 -5.56197 
18549 1 1.26817 9.47339 6.14815 
18548 2 0.398108 -1.62249 -2.68556 
5963 2 0.904157 -2.64036 -2.47327 
13856 2 3.6161 -3.15501 3.11509 
13855 1 5.34957 -1.03872 5.39448 
13857 1 0.260708 1.23329 8.41492 
4943 2 1.41687 -4.04147 0.71613 
4944 1 5.43172 -9.70906 -0.591684 
16078 1 4.69328 -4.66756 1.67097 
16079 2 0.353101 1.87172 -3.32215 
5962 1 1.09018 2.0819 -2.02895 
3115 1 4.75481 2.30978 -2.12006 
3116 2 1.28221 -0.883825 3.94376 
116 2 0.908414 -2.85149 4.49611 
115 1 -4.18078 0.426586 -1.05955 
15052 1 -2.61309 -10.642 1.38644 
15053 2 -2.02133 1.87873 1.81221 
15054 1 -0.412316 -1.10698 -0.248502 
20310 1 2.90186 -3.73364 2.44426 
2127 1 -1.05563 -4.16582 -5.58831 
20309 2 1.87097 -2.63132 -3.06268 
8681 2 0.149004 0.0119103 -4.58659 
20308 1 2.76283 -2.19467 3.50653 
16080 1 0.882242 -4.23683 -4.53028 
11115 1 -0.752818 -8.78074 -3.80286 
11114 2 0.592442 0.217982 1.55795 
20629 1 4.2472 -2.54722 -0.413018 
11113 1 -0.922537 -3.46391 5.37386 
2935 1 6.8466 4.40886 0.401545 
11212 1 1.86132 4.06429 -1.24489 
8680 1 -1.92502 -5.33118 -0.947138 
9097 1 -6.35678 0.986383 0.958322 
10644 1 -0.775532 -5.96211 -2.77486 
10643 2 1.47544 -4.67022 2.6696 
16834 1 1.14358 -6.58339 0.2184 
17643 1 -3.24301 -2.9748 -1.65492 
7930 1 1.5376 -3.75471 -7.45525 
182 2 -0.712298 1.17793 -0.383932 
183 1 -0.89101 -1.20851 0.127534 
17642 2 -1.95281 0.483457 2.31622 
17641 1 -2.23456 -2.38353 -3.44075 
13712 2 2.26039 1.22808 1.11242 
13713 1 5.57596 -1.8762 6.2257 
2185 1 -5.38784 -5.11238 7.82467 
13711 1 2.5333 -1.7078 -2.05275 
2186 2 -5.16208 0.426928 0.0434172 
4999 1 -0.743935 4.93243 -2.93217 
19711 1 1.26849 -2.35979 -0.191688 
19712 2 -1.35982 3.41768 1.83712 
12833 2 -2.9947 2.17705 -3.07719 
6778 1 4.11522 -3.78157 0.327078 
19713 1 -1.24133 -2.92139 5.45324 
12832 1 0.628393 -1.07418 -4.56868 
3117 1 4.18049 -2.25338 -7.57189 
8925 1 3.16616 -0.341523 -1.74229 
1676 2 -1.11676 -1.7654 5.54297 
8924 2 2.122 -1.81746 1.58413 
8923 1 -1.5601 -2.17691 4.17991 
1675 1 0.17372 -0.632182 -4.03998 
19655 2 2.16824 0.167017 -2.46844 
19654 1 -8.37669 -1.65137 -2.50779 
2937 1 4.0773 -1.60702 4.399 
2936 2 0.0335784 6.49373 -3.73662 
21401 2 3.18761 -3.44488 0.0710862 
21400 1 -0.0256105 -3.11443 -10.0206 
21402 1 -4.27866 1.82955 -0.145052 
11213 2 2.77504 -0.1961 -1.05071 
18677 2 -4.43395 1.14438 -0.807309 
10642 1 3.4 1.04787 2.51241 
15379 1 2.89925 -4.56371 3.5087 
15380 2 -1.8338 -1.70274 4.4803 
15381 1 3.35875 0.44595 -0.99091 
18678 1 -5.07076 -2.05766 4.79835 
8046 1 0.173689 0.698475 1.46936 
8044 1 -0.77795 1.12832 0.100831 
8045 2 -0.106908 1.60289 -1.0642 
15787 1 -5.12064 -2.63499 1.98123 
15788 2 -2.15226 -1.44798 -0.604827 
3212 2 -3.37127 2.35655 0.773126 
10140 1 2.34724 1.69915 -0.407287 
10139 2 -0.75683 -0.0847539 -0.321335 
10138 1 -3.32984 -3.79111 -3.40798 
3211 1 0.640687 0.83392 -1.22638 
10202 2 -1.89951 2.06915 0.118042 
10203 1 0.647084 -3.17835 -6.17528 
1677 1 1.37036 -2.24995 2.47046 
10201 1 -0.146167 -4.42244 1.2856 
9119 2 -1.08751 -0.885986 1.83642 
9118 1 -1.89258 -0.386614 8.35315 
67 1 2.24266 -4.21425 0.237375 
400 1 1.42139 0.493774 -4.03948 
4498 1 3.85145 4.00045 -2.84019 
401 2 2.36174 3.58616 -1.44846 
402 1 4.04951 4.85 2.97937 
10417 1 3.17235 -1.03 -0.552245 
12115 1 2.45141 -0.894645 5.47767 
12116 2 0.8589 -1.53756 -1.2163 
12117 1 -2.69384 6.12409 -1.83058 
9088 1 4.42483 4.21476 -0.0675143 
5092 1 -5.09213 0.934237 2.21849 
1239 1 -2.47569 0.407865 5.04746 
14242 1 7.70843 -1.79735 1.60189 
14243 2 -0.778513 2.25414 0.626957 
14244 1 2.85375 0.369363 -0.12376 
1645 1 -0.4585 -3.44422 -1.13525 
1646 2 -1.80736 0.0403991 2.21051 
1647 1 -0.825295 -1.46168 -0.481993 
17728 1 0.243672 -3.09034 0.805175 
2970 1 5.60884 1.55537 2.46006 
2969 2 -0.715243 3.07594 -5.82382 
9952 1 1.61968 -2.96831 5.64558 
13717 1 -2.14996 1.85866 -0.167899 
2968 1 0.577533 6.64839 4.16002 
9089 2 1.31201 -2.66063 -0.822259 
9090 1 -1.82983 3.48979 -2.76649 
3001 1 2.49621 -2.0795 -0.391906 
3002 2 4.63295 1.42748 0.894826 
3802 1 -1.25314 0.27214 -3.35626 
5093 2 -1.36235 -1.49649 1.33974 
5094 1 -0.0875588 -1.7959 3.70215 
13303 1 8.89939 4.55314 1.39046 
3803 2 -1.77011 -3.0985 -3.41896 
3804 1 -1.9915 1.13875 2.77712 
1959 1 -0.666354 3.19085 -0.665579 
1958 2 1.06764 -0.398065 -5.46469 
3003 1 -3.84825 -1.55237 -2.87977 
13360 1 -1.31459 -3.11194 0.187874 
9944 2 2.31742 -3.8588 -0.48217 
13361 2 -2.07563 0.609934 -2.94385 
16911 1 2.20569 -2.94889 -5.59935 
13362 1 1.00051 -2.95873 0.0580963 
9943 1 4.54704 -0.333479 4.79887 
5329 1 0.512208 -6.61611 -2.719 
5330 2 2.19617 2.11545 -2.64126 
12271 1 -0.673796 4.97189 -0.397604 
20568 1 3.69677 -1.67227 3.24678 
20567 2 -4.15724 -2.21844 -2.32545 
20566 1 -1.26634 -3.39772 -6.11512 
12272 2 -2.49514 1.09154 1.7234 
17729 2 1.45665 -0.186566 3.25441 
1742 2 -0.488019 -2.26471 -2.62199 
17730 1 3.3947 -0.0832266 -0.909442 
1743 1 3.02199 1.7177 -1.62659 
17041 1 0.392747 -0.347091 6.74091 
17042 2 -0.416932 2.25817 0.410113 
17043 1 3.62043 4.04166 0.288514 
20104 1 -6.47123 4.58547 1.06249 
9954 1 -5.38016 -7.38883 -3.0339 
21573 1 2.758 1.49376 0.815464 
9953 2 2.89243 4.98926 1.50159 
5898 1 -2.83675 1.53405 -1.42644 
5808 1 -6.26022 5.33047 2.40223 
5807 2 -0.17127 1.52852 -3.16997 
5806 1 1.20186 0.128081 -2.16577 
7059 1 -5.8188 -0.253978 0.912098 
15746 3 -0.42255 -2.5298 2.60391 
18107 2 4.60126 -2.5505 -1.41817 
18108 1 0.625874 -1.58405 -1.56069 
14461 1 -0.816594 6.0074 -2.06314 
15747 1 -2.74119 1.87486 -2.72241 
18769 1 -4.32871 -3.73819 -1.58157 
16474 1 0.205024 -2.55233 1.76013 
1018 1 -1.7419 -0.705885 -2.83821 
1020 1 3.83968 -3.56814 2.07944 
1019 2 -4.85197 1.23243 1.81434 
1957 1 0.218926 3.13886 -0.44121 
19122 1 -7.44408 -4.71617 1.83364 
19121 2 0.168028 1.0612 1.55792 
16475 2 1.14948 4.3069 0.984412 
5331 1 -1.49536 -1.60469 4.51799 
3934 1 2.70549 3.79825 -1.62317 
19120 1 -4.94922 -1.46313 0.034742 
17073 1 -4.44059 -0.572485 1.41528 
3935 2 -0.246659 1.24943 4.72362 
17072 2 -4.03966 0.305282 -2.21328 
3936 1 -2.63309 1.17456 3.46344 
12273 1 -2.10241 -3.43922 -5.34761 
795 1 -4.77581 -5.9483 -2.36474 
793 1 0.688338 1.47201 2.03259 
794 2 0.463493 -4.05008 0.813238 
10579 1 -1.09148 -6.52481 -0.683091 
20105 2 -0.592419 -5.52529 -1.89717 
10932 1 -0.118166 2.0504 2.11181 
10580 2 1.13712 1.55963 2.82816 
10931 2 5.64089 -0.16706 0.448023 
17040 1 4.0613 0.386243 -1.53228 
10930 1 -1.55283 2.55455 8.89279 
17039 2 2.09036 0.695202 -0.0913419 
20106 1 7.57319 -3.68622 0.00101696 
17038 1 0.41427 5.33279 -2.54491 
18565 1 0.811868 1.16766 -3.01192 
7074 1 1.0259 3.15534 4.0854 
7073 2 -0.168306 -2.09668 1.03138 
19265 2 3.41747 -0.561117 3.40367 
19266 1 -0.964761 2.41899 -0.958047 
7932 1 6.18168 -4.73186 3.58188 
7931 2 -0.281643 3.65785 -0.268298 
19264 1 -0.725101 3.99933 1.04661 
19170 1 -6.14037 -4.16361 -2.0687 
14462 2 0.401444 -3.90688 -1.35275 
14463 1 -4.14715 0.256387 0.736498 
5001 1 -3.37654 2.1021 -2.05036 
11092 1 -3.85854 3.88607 2.94851 
19624 1 0.131541 -0.161278 2.21575 
19625 2 -0.417144 0.939013 -0.902883 
19626 1 -5.2752 7.37408 -1.80718 
19169 2 -1.77856 -0.659515 2.54157 
11093 2 1.42651 5.14629 -4.05605 
5000 2 0.483973 -2.02192 2.34779 
5553 1 -0.417279 5.1733 5.03126 
5552 2 -1.69237 1.27915 2.92847 
5551 1 -4.15285 -3.33496 0.786548 
13126 1 -3.29803 0.617001 6.47389 
18770 2 -2.3361 1.9943 1.29858 
18771 1 -5.49773 3.74588 -1.36524 
20020 1 2.02701 0.672054 2.8976 
12834 1 0.274245 -4.52699 -1.56483 
20021 2 -4.49374 1.92084 -4.27662 
20022 1 1.98659 5.46988 1.48418 
16476 1 -6.26236 -0.645028 -2.39875 
16627 1 -0.506469 -1.96092 2.48929 
16628 2 4.34454 -1.02724 -2.04702 
16629 1 3.39882 -1.9748 4.86234 
19656 1 -1.26259 2.27734 1.0588 
6177 1 6.36415 -0.879768 0.696305 
17071 1 1.88463 3.7418 2.17726 
322 1 1.40012 1.30741 2.46568 
6273 1 0.0915945 -0.304377 -4.57825 
6272 2 -3.52885 1.27043 -0.632074 
6271 1 1.02139 -4.98962 -2.03763 
20067 1 -5.18056 0.627259 0.317881 
323 2 -4.07912 -5.39591 0.67342 
324 1 -1.6877 0.0125127 2.26582 
5857 1 4.81491 -3.77195 -1.02969 
20066 2 -4.05474 1.61879 -0.418687 
10581 1 3.35866 -3.16244 -0.0597832 
11214 1 -0.0646142 0.654526 4.38471 
21039 1 1.08592 1.35226 2.62904 
5858 2 1.0347 0.96913 -0.473774 
5859 1 4.13659 0.893286 8.82543 
10663 1 0.212584 -0.156229 -4.17086 
9120 1 -1.7777 0.0521233 -2.08334 
10664 2 0.803197 -3.51871 2.06352 
16835 2 2.21002 -1.20918 -2.40787 
16836 1 1.77881 -3.6147 -3.97495 
21038 2 0.971711 -1.00813 1.72988 
5173 1 1.2432 -5.37077 0.829182 
21037 1 -1.06389 -1.12479 -4.28373 
18566 2 -0.28827 -0.604557 -0.803007 
5174 2 -3.63562 -1.56609 1.3262 
5175 1 1.61665 2.84287 -2.12372 
15789 1 3.3696 -1.86582 -2.20188 
16464 1 2.52317 1.40124 -0.1849 
7244 2 0.515463 2.33666 1.45504 
7245 1 3.87094 3.17758 -6.62747 
7941 1 -0.554329 -2.01134 -5.7152 
7243 1 -1.60402 -6.63546 1.29589 
3213 1 -4.43502 0.553343 2.38814 
16463 2 -0.915133 -4.028 -1.54817 
13127 2 -2.53677 -0.776938 3.54709 
16462 1 -3.15804 -0.552864 -0.33344 
11690 2 -1.03591 -3.28682 2.09639 
11689 1 1.13918 3.96596 1.66296 
11691 1 -1.42719 7.34402 2.33539 
10791 1 2.62985 -0.265041 3.66468 
19297 1 -1.07361 0.21934 -1.3489 
10790 2 0.110689 -0.225648 -2.19042 
10789 1 -4.37035 0.364459 1.62111 
20065 1 0.525434 -3.75484 -3.37473 
12002 2 1.53002 -1.73185 -3.05188 
12003 1 -3.52298 4.69474 -4.84241 
12534 1 0.8034 4.95066 -1.64732 
12533 2 -5.19268 0.948431 -2.3396 
68 2 -3.13718 -0.917737 -0.23154 
69 1 3.79697 0.818541 -2.52573 
12001 1 -2.17175 -0.30828 -0.830542 
12532 1 3.09547 -3.10781 -4.73943 
4500 1 1.35701 5.51958 6.48288 
4499 2 0.57173 2.09755 0.988196 
2193 1 -2.01805 2.65061 -1.43075 
2192 3 0.373856 0.628155 2.51686 
2191 1 5.35124 0.873637 -3.62391 
12470 3 1.25441 -2.80077 1.30072 
12471 1 5.43408 -0.45406 -4.00364 
5080 1 1.04093 -4.83347 -2.05695 
17616 1 -1.09226 -2.44825 -2.28298 
5082 1 -3.08629 -0.777815 3.05691 
5081 2 2.68177 -0.232782 0.114411 
17615 2 -4.41645 3.35739 1.66991 
13304 2 -1.89814 -3.61198 2.10982 
13305 1 -1.43612 -2.24828 -2.11337 
13506 1 -0.187474 4.22215 -1.0228 
13505 2 0.204494 0.222077 2.90924 
16910 2 0.21248 1.45231 0.603434 
16909 1 -5.37601 0.056406 -3.04574 
21572 2 -0.124966 -4.17324 3.179 
21571 1 0.393367 -1.40864 4.55367 
12814 1 -2.5215 2.11478 -2.6695 
12815 2 -2.15093 -2.47517 -1.38915 
12816 1 -0.827526 -0.226484 6.16601 
7058 2 2.87057 1.61394 0.316362 
7057 1 -2.92722 0.717354 -3.75568 
17934 1 2.60241 -1.41336 0.738008 
17933 2 1.07389 0.506229 -0.834554 
17932 1 -3.42854 2.30168 1.97179 
15745 1 2.00792 -1.64245 6.16093 
5773 1 1.88747 4.16887 -0.129188 
5774 2 -1.41702 0.476753 1.1385 
5775 1 -2.40865 -9.99042 -2.95378 
11928 1 -1.65411 -2.06563 -5.80143 
17614 1 -0.453655 2.77493 -0.333335 
13504 1 2.77808 -5.04175 -1.72984 
16771 1 -1.41226 0.0885449 -1.57202 
11927 2 3.37972 0.0883719 -0.287159 
11926 1 0.928694 -1.01706 -5.50202 
16876 1 -2.26479 1.66521 -6.62726 
16877 2 0.484349 0.967068 -3.62871 
16878 1 0.53398 1.09295 2.7837 
6175 1 -4.50517 -1.82836 -1.15349 
16579 1 -4.00334 -0.308048 5.73302 
16772 2 1.187 -0.237004 4.16113 
16773 1 0.867349 1.67795 -8.70281 
4723 1 0.912238 -7.41936 1.45736 
15442 1 7.21871 4.69818 -0.362705 
4724 2 1.63098 1.56389 -1.62747 
4725 1 0.889695 2.23249 -0.470616 
15443 2 2.31932 -0.815615 1.95246 
7072 1 1.94198 0.598087 7.03954 
6034 1 3.30279 1.89908 1.09353 
2400 1 2.43407 -2.8296 -1.52588 
6035 2 -0.510123 -1.71441 -4.6327 
2399 2 -2.85708 4.17138 -2.34524 
6036 1 1.33298 1.49211 -3.0896 
7557 1 0.922716 -0.0540275 8.45207 
7556 2 5.72259 -2.42499 -2.62482 
7555 1 -5.1264 0.0492096 1.68443 
16780 1 -4.27857 1.31468 -4.77736 
16781 2 3.16872 0.649353 -0.899875 
16782 1 -0.842695 -2.92185 -1.40284 
1665 1 -4.0089 -2.10344 -4.00471 
11094 1 1.65114 0.385453 -0.0214086 
13879 1 -7.70497 0.819404 -4.61356 
19168 1 2.40378 -2.52142 -5.87166 
13880 2 3.05967 1.44323 -2.3397 
13881 1 3.10732 -3.25237 0.928197 
1339 1 -1.93014 1.56064 -8.57716 
1341 1 -0.730273 4.49059 -2.70768 
1340 2 -0.886384 1.09195 -0.688686 
6176 2 1.32727 -0.1396 2.71592 
15444 1 -0.180362 4.63278 2.66652 
11091 1 1.53088 -4.00153 1.37264 
10665 1 1.71643 -2.5073 4.08731 
11090 2 3.59675 1.3788 -3.38561 
11089 1 -4.92235 1.2837 3.91697 
3732 1 -4.55405 -1.07076 5.12328 
3731 2 -4.10813 -1.41002 1.55373 
3730 1 -3.45096 2.8667 4.65014 
18567 1 -0.939114 -3.77361 1.48578 
10659 1 0.396188 -2.65865 -1.08054 
10658 2 -3.73973 1.91487 -1.3919 
10657 1 -4.90411 4.0334 -4.83088 
1664 2 0.982894 -4.17043 3.95993 
7940 2 1.65342 -0.522236 2.64424 
9219 1 -0.713575 -1.3802 0.573241 
9218 2 -3.80992 1.33601 -1.7692 
8097 1 2.22304 -0.638985 -2.06526 
7939 1 -3.17012 -3.83283 1.06786 
13128 1 3.07711 -1.70787 1.65018 
10974 1 -2.12395 -1.87862 1.42582 
8095 1 -3.55697 2.63518 -5.0776 
7204 1 1.99287 3.59454 -0.850581 
8096 2 -0.921728 -0.855155 -2.06138 
10973 2 1.02283 2.1519 -2.0042 
10972 1 -3.98923 -2.11641 -0.183393 
16906 1 -0.412853 2.457 4.34903 
16907 2 5.39805 -0.0823185 5.02771 
19298 2 -1.09245 1.61109 0.199361 
19299 1 1.21333 1.37036 -6.95133 
16308 1 -6.7028 1.34401 1.11756 
16307 2 -2.79395 1.91755 -0.355837 
16306 1 3.81358 -0.508384 -2.19282 
18306 1 -7.49677 -0.0260423 2.917 
12469 1 -2.96034 4.90372 -8.1202 
18304 1 -0.541467 -1.81442 0.124211 
18305 3 2.65928 0.149187 1.02664 
4873 1 5.19158 1.57175 3.46553 
4875 1 4.35121 -0.949775 -8.5487 
4874 3 0.567839 1.22025 4.53015 
16908 1 -8.27875 0.741918 2.19258 
16137 1 1.88874 -6.40418 -0.487072 
16136 3 -1.13267 0.926188 -2.54617 
16135 1 4.16455 0.561736 -5.16399 
14782 1 8.16693 -1.35219 -3.51525 
14783 2 1.34465 1.56557 3.01084 
14784 1 -3.3101 6.16436 0.93823 
16580 2 2.29474 0.216742 -0.954518 
9651 1 5.08896 4.00638 2.271 
9650 2 -0.283138 1.00538 1.54611 
7388 2 1.90622 0.070489 0.243315 
7389 1 3.50788 6.46019 0.335843 
9649 1 0.878818 -0.875304 -1.83829 
2398 1 3.17128 3.78944 2.92164 
12528 1 -2.97853 -0.0501952 1.4004 
227 2 -0.280697 -0.239248 2.44885 
228 1 -0.22882 0.7852 -0.979259 
226 1 -3.43629 -0.923267 5.25436 
16581 1 4.33079 8.2962 1.30088 
19903 1 0.890305 2.1949 -0.376951 
7387 1 -5.79919 2.05122 -1.08996 
19904 2 -0.876797 -1.88801 -3.07387 
19905 1 -2.60008 2.01004 2.56386 
1663 1 -1.31639 0.118729 2.81525 
9328 1 -2.52269 -2.04882 -8.74458 
9329 2 -2.86982 -1.39832 2.00957 
9330 1 1.64945 0.00755092 -3.39029 
9217 1 -4.26622 0.354403 -3.78436 
18954 1 0.840887 -1.644 2.34472 
18953 2 -5.67166 0.183759 2.91852 
12526 1 5.17593 -2.67514 1.79707 
12527 2 -1.18757 -0.555393 2.28622 
7206 1 4.85374 1.80566 -2.84665 
7205 2 -0.724384 1.37702 -0.295553 
5308 1 -3.64072 1.34049 1.20644 
11314 1 -3.68842 -2.24559 -3.01605 
5309 3 -0.291722 3.41475 -0.402987 
18952 1 -2.7281 4.01559 -1.64065 
5310 1 -5.15478 -6.45436 7.28651 
11315 3 -0.727549 -2.53112 -5.56097 
11316 1 3.00037 -1.67852 -2.12959 
