ITEM: TIMESTEP
20000000
ITEM: NUMBER OF ATOMS
855
ITEM: BOX BOUNDS pp pp pp
0.0000000000000000e+00 5.0000000000000000e+01
0.0000000000000000e+00 5.0000000000000000e+01
0.0000000000000000e+00 5.0000000000000000e+01
ITEM: ATOMS id type xs ys zs
3081 1 0.0981014 0.584082 0.520082
20851 1 0.095663 0.602536 0.517029
3079 1 0.0952858 0.599566 0.516818
3080 2 0.0961876 0.591116 0.517662
4330 1 0.0289933 0.607206 0.552248
20579 2 0.0599848 0.609479 0.556383
20578 1 0.058175 0.605952 0.549015
16524 1 0.0726686 0.598317 0.540156
7748 2 0.0806448 0.604158 0.557803
16523 2 0.0715619 0.60624 0.53809
6214 1 0.0909297 0.60382 0.553856
7747 1 0.0880259 0.603993 0.554948
6406 1 0.117812 0.583729 0.554638
6215 2 0.097893 0.604532 0.551538
6216 1 0.105711 0.605325 0.548151
3666 1 0.13155 0.602404 0.553519
9869 2 0.103044 0.578638 0.581108
9870 1 0.110667 0.576123 0.581745
18060 1 0.113738 0.575121 0.582575
18059 2 0.121238 0.572583 0.586103
18058 1 0.128433 0.570192 0.590534
479 2 0.052696 0.59856 0.576481
478 1 0.0487684 0.600885 0.56947
480 1 0.0531632 0.596247 0.584152
5626 1 0.0535438 0.595473 0.586926
1937 2 0.0721316 0.606478 0.588643
6752 2 0.0746631 0.591188 0.57554
6753 1 0.0795773 0.587426 0.582264
4564 1 0.0811747 0.586394 0.584925
6751 1 0.0727337 0.597083 0.569841
7749 1 0.0737193 0.604103 0.560781
19362 1 0.0910707 0.605522 0.5847
1936 1 0.072125 0.604579 0.581882
9868 1 0.0959742 0.580175 0.581646
1336 1 0.119232 0.595464 0.569789
1337 2 0.111634 0.597608 0.57092
19360 1 0.102167 0.600395 0.575108
1338 1 0.104378 0.599637 0.573512
6407 2 0.12088 0.581485 0.561905
19361 2 0.0961792 0.602324 0.579362
8803 1 0.145537 0.607598 0.584425
4263 1 0.126383 0.583432 0.570494
6408 1 0.124764 0.582579 0.568339
4262 2 0.131666 0.58724 0.575762
4261 1 0.136847 0.590817 0.581499
3665 2 0.135309 0.603592 0.559887
8805 1 0.139792 0.604667 0.57019
5404 1 0.146736 0.608233 0.587371
3664 1 0.138921 0.60415 0.567323
8804 2 0.143165 0.606477 0.577236
3836 3 0.120631 0.539868 0.614621
3835 1 0.113752 0.540481 0.610354
3837 1 0.12669 0.537824 0.618866
9903 1 0.0423339 0.563238 0.606583
9902 2 0.0494393 0.567815 0.608045
9901 1 0.0545616 0.573357 0.607651
2539 1 0.0585672 0.567027 0.620515
7176 1 0.0926445 0.578826 0.617887
8587 1 0.116011 0.570028 0.599587
8588 2 0.114175 0.568575 0.60758
8589 1 0.113094 0.566184 0.616038
6684 1 0.112469 0.565483 0.618571
13976 2 0.139585 0.575696 0.609158
13975 1 0.142182 0.567796 0.611307
14559 1 0.0130954 0.609856 0.621677
14558 2 0.00982466 0.609409 0.613024
14557 1 0.00567715 0.610625 0.605371
5627 2 0.054637 0.593812 0.594519
11762 2 0.0310948 0.61091 0.602725
8554 1 0.0546996 0.607195 0.618379
3991 1 0.0545647 0.608585 0.615836
5628 1 0.0576917 0.591163 0.601611
1344 1 0.0594515 0.589568 0.605244
11763 1 0.0357648 0.606563 0.598564
3992 2 0.0540184 0.610485 0.608089
4565 2 0.0856561 0.585415 0.59147
1342 1 0.0667215 0.583336 0.618335
11933 2 0.0828476 0.597464 0.617247
1343 2 0.0632587 0.586985 0.61166
11934 1 0.0866902 0.599377 0.610733
7740 1 0.0886459 0.600593 0.60843
4566 1 0.0923123 0.58419 0.596374
1938 1 0.0718705 0.608032 0.597035
7357 1 0.118296 0.591614 0.597683
17232 1 0.103034 0.583887 0.609749
7739 2 0.0929209 0.603015 0.601457
17230 1 0.0942932 0.583269 0.598494
7359 1 0.107441 0.600998 0.590801
17231 2 0.0994063 0.582926 0.603198
7358 2 0.113033 0.595923 0.594481
20200 1 0.113344 0.6085 0.610847
20202 1 0.107423 0.596955 0.618934
20201 2 0.1113 0.602415 0.614026
12600 1 0.114466 0.584229 0.613552
12599 2 0.120009 0.583922 0.619473
7738 1 0.0982962 0.603665 0.595708
3273 1 0.114261 0.610588 0.610336
13977 1 0.137597 0.583055 0.607074
7029 1 0.137157 0.585403 0.6065
7028 2 0.1361 0.59243 0.602291
17890 1 0.132776 0.601921 0.596254
7027 1 0.133642 0.599689 0.59815
17891 2 0.12933 0.607006 0.592036
12785 2 0.132737 0.605345 0.623069
5405 2 0.149832 0.610976 0.595185
17526 1 0.0525405 0.547149 0.639888
4656 1 0.0539582 0.544909 0.640691
4655 2 0.0579477 0.537569 0.644932
6156 1 0.0909477 0.54807 0.655851
17866 1 0.0925427 0.546496 0.654614
4654 1 0.062485 0.533007 0.649634
17867 2 0.098123 0.541328 0.650749
18675 1 0.117144 0.523785 0.646016
18674 3 0.111096 0.529787 0.648381
17868 1 0.103098 0.536423 0.650021
18673 1 0.105702 0.534456 0.649722
5838 1 0.136936 0.545757 0.63148
15511 1 0.13602 0.543198 0.631648
15512 2 0.134816 0.53498 0.6318
15513 1 0.131657 0.527428 0.632756
11532 1 0.0287761 0.568216 0.626818
11464 1 0.0226583 0.576526 0.631754
11531 2 0.0347836 0.564213 0.630758
11530 1 0.0405202 0.56089 0.634081
15378 1 0.0385299 0.574674 0.6549
17524 1 0.0425629 0.558829 0.635406
17525 2 0.0474628 0.553329 0.638198
14317 1 0.0624594 0.560384 0.653958
14319 1 0.063959 0.565506 0.63867
14318 2 0.0632618 0.564861 0.646951
2541 1 0.0637205 0.565604 0.635579
15990 1 0.0911297 0.552059 0.638962
15989 2 0.0908187 0.559069 0.634158
2540 2 0.0620239 0.566884 0.627786
15988 1 0.0919769 0.564715 0.629693
7175 2 0.0927028 0.573434 0.623618
7174 1 0.0924666 0.567254 0.627682
6683 2 0.111578 0.563959 0.625925
6682 1 0.108997 0.564714 0.634563
14010 1 0.104756 0.565157 0.646142
14009 2 0.112613 0.56137 0.646534
13962 1 0.119963 0.554014 0.650305
14008 1 0.118083 0.555706 0.649494
5836 1 0.14193 0.559502 0.630022
13961 2 0.125828 0.549724 0.653919
12504 1 0.125896 0.57924 0.62762
12503 2 0.12774 0.575705 0.635607
5837 2 0.139264 0.553107 0.630615
8202 1 0.153855 0.56484 0.642341
1219 1 0.152578 0.566441 0.640684
12502 1 0.130017 0.573911 0.642973
11728 1 0.131338 0.573838 0.645826
1220 2 0.148294 0.572823 0.636315
1221 1 0.146 0.579282 0.634014
11729 2 0.133983 0.573913 0.654047
8201 2 0.157707 0.55925 0.647537
8200 1 0.159442 0.554289 0.653525
3895 1 0.16035 0.552362 0.656188
21010 1 0.0136417 0.609532 0.624411
3788 2 0.00273104 0.590969 0.642134
11465 2 0.0171985 0.580421 0.634888
11466 1 0.0113764 0.584998 0.639261
4971 1 0.0150651 0.608021 0.645034
21012 1 0.0156226 0.60795 0.641975
21011 2 0.0149319 0.60843 0.633326
4970 2 0.0152686 0.608471 0.653343
3787 1 0.00923129 0.58664 0.640633
8555 2 0.0554475 0.603454 0.625321
15377 2 0.0378685 0.57996 0.648148
15376 1 0.0376507 0.585486 0.641992
12916 1 0.0378688 0.604125 0.628848
3553 1 0.038209 0.601384 0.630118
3555 1 0.0377143 0.587488 0.639821
3554 2 0.0381849 0.59427 0.634269
6843 1 0.0341561 0.609907 0.653597
20039 2 0.0580256 0.594388 0.641967
20040 1 0.0578764 0.588871 0.64789
7291 1 0.057661 0.587493 0.65078
8556 1 0.0572383 0.6001 0.632042
20038 1 0.057919 0.598579 0.634558
16438 1 0.0341528 0.607719 0.65488
12917 2 0.036213 0.610711 0.625147
11932 1 0.081267 0.596212 0.624959
15643 1 0.0892524 0.588827 0.637125
15644 2 0.0839491 0.594745 0.637607
11059 1 0.0779876 0.604072 0.636538
15645 1 0.0797463 0.601884 0.636786
11060 2 0.0736257 0.610402 0.635167
21171 1 0.109747 0.610293 0.632575
433 1 0.111942 0.593462 0.654178
21170 2 0.115682 0.606866 0.634929
21169 1 0.122379 0.603765 0.638049
434 2 0.104224 0.594568 0.653138
435 1 0.0962233 0.596683 0.654068
12598 1 0.124752 0.580452 0.625621
21058 1 0.124935 0.602519 0.639521
12784 1 0.135082 0.59887 0.626028
21059 2 0.130809 0.598264 0.642443
3289 1 0.136552 0.596068 0.627282
3290 2 0.140967 0.588874 0.629247
3291 1 0.144836 0.581652 0.632685
21060 1 0.135377 0.592276 0.645683
5209 1 0.149451 0.588477 0.648613
5210 2 0.14779 0.593438 0.654094
1588 1 0.113314 0.536057 0.669697
3739 1 0.0982168 0.545306 0.678994
1590 1 0.10045 0.543246 0.678094
1589 2 0.106612 0.54013 0.67472
13960 1 0.131904 0.546498 0.656889
14208 1 0.134666 0.544982 0.658153
14207 3 0.140976 0.541954 0.661381
14206 1 0.148279 0.538875 0.66293
20685 1 0.140459 0.545099 0.686348
5086 1 0.155635 0.531279 0.68836
13041 1 0.160797 0.5444 0.67513
13040 3 0.159626 0.53946 0.680861
13039 1 0.157172 0.533576 0.686831
3897 1 0.161481 0.545962 0.672216
19057 1 0.0387646 0.573233 0.657048
19058 2 0.0395664 0.569313 0.664622
19059 1 0.0408041 0.56449 0.670015
13587 1 0.0362545 0.563573 0.687055
9880 1 0.0387926 0.561165 0.686067
18813 1 0.0594998 0.572984 0.683912
3085 1 0.0602433 0.57286 0.686944
18812 2 0.0589137 0.575369 0.675946
7293 1 0.0586433 0.579495 0.665125
18811 1 0.0585066 0.578139 0.66797
9882 1 0.0497876 0.55228 0.678344
9881 2 0.0441839 0.555595 0.682826
6155 2 0.0866709 0.552518 0.659411
6154 1 0.0840131 0.558591 0.662484
13348 1 0.0621173 0.558779 0.656557
13349 2 0.0623985 0.555117 0.662357
13350 1 0.0631989 0.550296 0.668306
661 1 0.0791667 0.576792 0.662898
662 2 0.0809397 0.569696 0.663869
663 1 0.0831179 0.56164 0.663153
4762 1 0.0697732 0.563695 0.68603
4764 1 0.0833431 0.556846 0.684373
3741 1 0.0862749 0.555263 0.683433
4763 2 0.0763977 0.560599 0.68455
1432 1 0.0795599 0.575314 0.680394
3740 2 0.0921743 0.550882 0.681102
5322 1 0.0781255 0.579818 0.662196
6556 1 0.0933144 0.576866 0.678641
703 1 0.107238 0.57549 0.66675
6557 2 0.0985619 0.576376 0.673569
6558 1 0.105063 0.575377 0.668755
704 2 0.1129 0.57623 0.66234
705 1 0.117967 0.575257 0.656928
11730 1 0.13733 0.574103 0.661337
5052 1 0.138576 0.573653 0.664179
5051 2 0.140195 0.572244 0.67174
5050 1 0.139887 0.569909 0.680769
3896 3 0.161545 0.549083 0.663494
15416 2 0.00374224 0.591756 0.664929
4969 1 0.0141998 0.609215 0.661454
10590 1 0.012979 0.585272 0.668223
10588 1 0.0294585 0.586533 0.672001
10589 2 0.0209928 0.584368 0.669834
15417 1 0.010129 0.586716 0.667475
2574 1 0.0171098 0.604741 0.672615
2573 2 0.0223966 0.606066 0.678829
12070 1 0.0299048 0.606423 0.686898
2572 1 0.0277714 0.606589 0.68417
17823 1 0.0492102 0.591129 0.673251
17821 1 0.0319261 0.58709 0.673
17822 2 0.0402449 0.588964 0.674016
9272 2 0.0523258 0.608307 0.678323
16439 2 0.0341841 0.600365 0.658667
7292 2 0.0580169 0.583056 0.65768
16440 1 0.0339442 0.59121 0.659081
9271 1 0.0587142 0.603925 0.678625
10866 1 0.0612397 0.602315 0.678713
6990 1 0.0509132 0.591587 0.686786
16608 1 0.0522045 0.610476 0.664631
1433 2 0.0797972 0.580443 0.685355
11969 2 0.0786543 0.604541 0.656504
5321 2 0.0784555 0.586965 0.659853
5320 1 0.0791964 0.594605 0.659066
10865 2 0.0681926 0.599833 0.677745
10864 1 0.0759869 0.597269 0.678022
15744 1 0.0786177 0.596712 0.677827
11970 1 0.0792821 0.597706 0.658359
15743 2 0.0867859 0.596962 0.676862
18531 1 0.0963623 0.606201 0.669785
5257 1 0.0987333 0.596583 0.674535
15742 1 0.095157 0.596978 0.674946
5258 2 0.105422 0.596288 0.673632
6633 1 0.116383 0.596717 0.670179
5259 1 0.11361 0.596414 0.671308
6743 3 0.149669 0.601585 0.671069
6744 1 0.148652 0.598168 0.663487
5211 1 0.148129 0.596812 0.660199
6632 2 0.124077 0.597739 0.668238
6631 1 0.132168 0.600496 0.667297
6742 1 0.149907 0.60387 0.678463
5088 1 0.149069 0.519947 0.695923
5087 3 0.152029 0.52623 0.692364
20684 3 0.144377 0.548234 0.692144
13585 1 0.0250236 0.57291 0.694834
13586 2 0.0302002 0.568346 0.690226
3086 2 0.061395 0.572436 0.69442
3087 1 0.0638467 0.571668 0.702377
20683 1 0.147988 0.550279 0.698615
6831 1 0.021077 0.593349 0.71008
6829 1 0.0199082 0.609913 0.710029
7644 1 0.0178029 0.59579 0.692142
6830 2 0.0197396 0.602065 0.710806
7642 1 0.0172765 0.580038 0.68923
7643 2 0.0166052 0.587326 0.690827
3301 1 0.0408033 0.608574 0.701746
6989 2 0.0542473 0.591515 0.693138
15519 1 0.0508965 0.585599 0.705621
15517 1 0.0413612 0.580248 0.716842
15518 2 0.0456692 0.583119 0.710733
6988 1 0.0566612 0.593855 0.70095
12072 1 0.0390422 0.607823 0.699568
3303 1 0.0507278 0.61046 0.713839
3302 2 0.0458079 0.609505 0.708167
12071 2 0.0341805 0.607541 0.693158
18949 1 0.0837428 0.608376 0.699386
1434 1 0.0787274 0.585348 0.692667
11010 1 0.0921558 0.583276 0.700757
17922 1 0.0785282 0.587831 0.695028
17921 2 0.0764918 0.592847 0.701022
17920 1 0.0720011 0.598146 0.706363
331 1 0.0701956 0.600017 0.70806
332 2 0.0666841 0.60325 0.712336
333 1 0.0637327 0.605871 0.718373
11008 1 0.104569 0.586978 0.692167
11009 2 0.0981377 0.585753 0.696535
12929 3 0.0432903 0.624656 0.514972
12928 1 0.0432008 0.627172 0.508485
12930 1 0.0431661 0.623559 0.523357
3342 1 0.0643089 0.629442 0.524451
7235 2 0.102372 0.628109 0.513263
7236 1 0.104546 0.634512 0.509985
7234 1 0.0997856 0.621699 0.515545
20853 1 0.0986327 0.618454 0.516489
20852 2 0.0968951 0.61106 0.51643
4102 1 0.094831 0.649136 0.524448
4332 1 0.0275318 0.617387 0.539659
4331 2 0.0286451 0.612171 0.545344
15458 2 0.0433902 0.624409 0.534318
15459 1 0.043255 0.623261 0.526505
15457 1 0.0448372 0.625304 0.542849
16792 1 0.0448346 0.625703 0.545857
16793 2 0.0455042 0.625849 0.553866
15485 2 0.0665781 0.629709 0.552147
15484 1 0.0647608 0.630007 0.544069
3340 1 0.0643907 0.629755 0.540097
3341 2 0.0651006 0.630135 0.532654
16522 1 0.0697161 0.612134 0.53386
5563 1 0.0885288 0.641871 0.549027
17379 1 0.090236 0.64075 0.550702
4103 2 0.097963 0.643203 0.52668
4104 1 0.102065 0.636673 0.529967
18788 2 0.113022 0.632707 0.545998
18787 1 0.113302 0.624313 0.543742
9121 1 0.116169 0.64251 0.545844
18789 1 0.114949 0.639918 0.545875
12903 1 0.11881 0.623003 0.524988
12902 2 0.114931 0.617147 0.530353
12901 1 0.113715 0.611276 0.53418
6543 1 0.143276 0.627595 0.550288
9429 1 0.141807 0.628081 0.548448
9428 3 0.136212 0.63037 0.542783
9427 1 0.130339 0.631581 0.537433
18892 1 0.0590225 0.652503 0.538776
9007 1 0.031817 0.668007 0.529974
9008 2 0.0391174 0.668348 0.535095
9009 1 0.0444072 0.666702 0.541239
12295 1 0.046063 0.665494 0.543901
12296 2 0.0503656 0.663909 0.550953
8185 1 0.0321377 0.647601 0.551944
449 2 0.0698165 0.670647 0.5481
450 1 0.0654065 0.664267 0.550693
18894 1 0.0717317 0.646492 0.543171
5565 1 0.0739217 0.645582 0.544016
18893 2 0.0646317 0.648877 0.539857
5564 2 0.0811507 0.643829 0.546072
21360 1 0.0964933 0.665758 0.554356
9122 2 0.118387 0.649758 0.546536
9123 1 0.120161 0.657432 0.547934
16879 1 0.132954 0.671469 0.556052
326 2 0.0250806 0.678917 0.550675
327 1 0.0265104 0.676622 0.542486
448 1 0.0748714 0.676143 0.545734
7641 1 0.0234712 0.710036 0.556337
2628 1 0.0244597 0.638833 0.570353
19378 1 0.0216374 0.640001 0.56881
2627 2 0.0306323 0.636826 0.575593
19379 2 0.0143426 0.641499 0.566258
11595 1 0.011148 0.634925 0.586724
2626 1 0.0352163 0.635548 0.580962
339 1 0.0468358 0.623953 0.564499
16794 1 0.0462145 0.625069 0.561631
338 2 0.0470056 0.620611 0.572379
337 1 0.0483988 0.617262 0.580269
14301 1 0.0489822 0.61662 0.582304
17628 1 0.0363979 0.635263 0.583247
2295 1 0.0560757 0.640407 0.574751
21099 1 0.058075 0.639253 0.576966
15486 1 0.0695031 0.630134 0.560081
20580 1 0.0640208 0.613282 0.561171
20253 1 0.0656152 0.614613 0.563311
20252 2 0.0707432 0.618059 0.568821
2119 1 0.0899287 0.623923 0.586401
2120 2 0.0843747 0.622262 0.581512
20251 1 0.0758314 0.620018 0.574986
2121 1 0.0783091 0.620817 0.577055
21098 2 0.0625734 0.635826 0.582809
19618 1 0.0871102 0.640636 0.57424
13089 1 0.0790822 0.643008 0.584298
17378 2 0.0946745 0.638821 0.557008
799 1 0.119341 0.618755 0.569344
800 2 0.11364 0.616847 0.562765
10834 1 0.121224 0.619416 0.571277
17377 1 0.0991447 0.637591 0.564172
4249 1 0.100938 0.637033 0.567021
4251 1 0.106753 0.636829 0.580321
17886 1 0.107929 0.636463 0.583472
4250 2 0.103666 0.636442 0.572418
801 1 0.107977 0.615415 0.557365
6541 1 0.152615 0.623265 0.562524
6542 2 0.14799 0.625672 0.556984
10835 2 0.124644 0.621872 0.57703
19030 1 0.154419 0.622387 0.564726
15408 1 0.152402 0.64226 0.57532
10836 1 0.12848 0.625836 0.58364
5383 1 0.130084 0.627146 0.585825
17892 1 0.124295 0.612555 0.587996
19031 2 0.158347 0.620625 0.570932
19032 1 0.163682 0.619772 0.577379
11724 1 0.16654 0.619058 0.579635
11723 2 0.173828 0.618587 0.584279
11722 1 0.181741 0.618624 0.586428
814 1 0.154651 0.641877 0.57766
815 2 0.160792 0.641764 0.582586
19380 1 0.00696924 0.644623 0.565449
2294 2 0.05044 0.643867 0.569816
8186 2 0.0373588 0.648075 0.558364
2293 1 0.0445647 0.646071 0.564689
8187 1 0.0422217 0.646479 0.5633
13431 1 0.0382417 0.660608 0.580443
12297 1 0.0555755 0.6627 0.557013
3231 1 0.0570485 0.662069 0.559429
3230 2 0.0612144 0.661453 0.567451
13430 2 0.0414897 0.659291 0.587307
3229 1 0.0645601 0.659105 0.574158
11391 1 0.0661222 0.65829 0.576911
19620 1 0.0749553 0.649898 0.570665
19619 2 0.0809516 0.645791 0.572309
18728 2 0.0839851 0.672831 0.583176
18727 1 0.0836107 0.675644 0.57587
11390 2 0.0680144 0.657108 0.5844
21359 2 0.0965401 0.672904 0.558414
9078 1 0.101043 0.661763 0.579639
11585 2 0.122189 0.675723 0.580383
511 1 0.122052 0.644048 0.569542
9077 2 0.101212 0.658906 0.587837
11586 1 0.118204 0.674482 0.587836
15406 1 0.141043 0.64344 0.564217
15407 2 0.1465 0.643932 0.569937
11584 1 0.124931 0.675645 0.572526
16881 1 0.126052 0.675386 0.570039
512 2 0.126668 0.647012 0.575551
16880 2 0.129826 0.674945 0.562341
513 1 0.132264 0.651546 0.5808
325 1 0.0226093 0.679983 0.558276
7640 2 0.0312912 0.707483 0.558572
17539 1 0.0410173 0.678492 0.571315
17540 2 0.0428877 0.679414 0.578152
14259 1 0.0457205 0.681022 0.588471
17541 1 0.0447529 0.680278 0.585393
7639 1 0.0378318 0.705427 0.56127
17392 1 0.0405721 0.70457 0.562478
17393 2 0.0472083 0.702161 0.5667
17394 1 0.0521612 0.701781 0.573273
18087 1 0.0534478 0.701266 0.576145
18086 2 0.0560745 0.701538 0.584078
10375 1 0.060696 0.679786 0.574749
10377 1 0.0689378 0.679213 0.588244
10376 2 0.0636864 0.679859 0.582382
21358 1 0.0988874 0.679561 0.561597
1051 1 0.100018 0.681738 0.56286
20533 1 0.0937432 0.687537 0.582268
1052 2 0.102013 0.689479 0.565767
1053 1 0.106617 0.695256 0.57116
17565 1 0.107939 0.696924 0.573127
17564 2 0.109751 0.702194 0.578323
17563 1 0.111256 0.707784 0.582326
11761 1 0.025938 0.614974 0.606029
11594 2 0.00831054 0.635138 0.594433
6128 2 0.00521811 0.628418 0.613305
6129 1 0.00570688 0.631649 0.605402
11593 1 0.00614317 0.632706 0.602383
9335 2 0.0269286 0.641698 0.607155
9334 1 0.029254 0.635324 0.611578
8473 1 0.0296417 0.632707 0.613355
6127 1 0.00452352 0.626685 0.620202
17627 2 0.0397429 0.63439 0.589803
8474 2 0.0310509 0.62621 0.617009
8238 1 0.0448138 0.634769 0.599304
8237 2 0.0482918 0.632678 0.606604
8236 1 0.0506878 0.630047 0.613799
7699 1 0.0513114 0.629098 0.616187
17626 1 0.0438059 0.635197 0.596394
8475 1 0.0332826 0.619614 0.620559
14300 2 0.0511139 0.616158 0.589753
14299 1 0.0521539 0.614164 0.59795
3993 1 0.0527176 0.613144 0.601123
17796 1 0.0919559 0.624041 0.589156
21097 1 0.0649814 0.632833 0.589953
6022 1 0.0728132 0.623707 0.604938
13088 2 0.0833295 0.641668 0.592674
13087 1 0.0846612 0.641243 0.60093
6023 2 0.0690183 0.628288 0.599035
5814 1 0.084662 0.641146 0.603811
6024 1 0.066176 0.631449 0.592637
6075 1 0.0745514 0.621729 0.607304
5813 2 0.0846257 0.63869 0.612093
6074 2 0.0793735 0.616955 0.611703
6073 1 0.0847355 0.612329 0.615632
5812 1 0.0846554 0.634264 0.618835
17795 2 0.0962792 0.62391 0.595401
17794 1 0.103457 0.621448 0.59978
3271 1 0.123569 0.623282 0.605705
17884 1 0.114886 0.636595 0.597793
11640 1 0.116017 0.636946 0.600402
11639 2 0.118229 0.638266 0.607155
489 1 0.121292 0.637575 0.61642
11638 1 0.120516 0.637684 0.613808
17885 2 0.111353 0.636784 0.590505
3272 2 0.11901 0.616553 0.60784
5406 1 0.151697 0.614104 0.603219
2603 2 0.154031 0.616436 0.612783
5384 2 0.133806 0.632031 0.591323
5385 1 0.137182 0.634854 0.597425
11943 1 0.138395 0.636372 0.599679
11942 2 0.140906 0.640292 0.607074
2602 1 0.152387 0.614906 0.605947
2604 1 0.154714 0.618399 0.620391
816 1 0.163953 0.640878 0.590273
19609 1 0.0211502 0.664374 0.5913
19610 2 0.0209546 0.65728 0.595386
19611 1 0.0227234 0.651659 0.600657
9336 1 0.0240496 0.649283 0.602614
8496 1 0.0282216 0.663236 0.612411
2718 1 0.0130791 0.673223 0.60137
8495 2 0.0294553 0.661554 0.620444
13979 2 0.0062344 0.649521 0.612624
13566 1 0.014312 0.646702 0.620616
13980 1 0.0125096 0.647774 0.618456
13978 1 0.00146965 0.651506 0.605631
13429 1 0.0421816 0.656899 0.594311
6576 1 0.042798 0.656101 0.597362
6575 2 0.0452105 0.652996 0.605426
6574 1 0.0459646 0.651029 0.613239
15199 1 0.0460386 0.649944 0.616599
2357 2 0.0654467 0.67003 0.619436
2356 1 0.0652787 0.672746 0.611582
1618 1 0.0654898 0.673511 0.608724
21047 2 0.0693229 0.652038 0.608095
11389 1 0.0663204 0.65605 0.592367
21046 1 0.0673163 0.655864 0.60131
8462 2 0.0876494 0.667522 0.600933
8461 1 0.0870568 0.664551 0.609351
5689 1 0.0862605 0.662957 0.612243
18729 1 0.086118 0.671455 0.590781
8463 1 0.0865389 0.67058 0.593454
21048 1 0.0683251 0.647935 0.61413
5690 2 0.0847283 0.660753 0.620007
15447 1 0.0681331 0.64613 0.616641
6586 1 0.100243 0.655063 0.597385
9076 1 0.100443 0.655713 0.59462
6587 2 0.10016 0.652442 0.604989
6588 1 0.100183 0.651569 0.613229
1388 2 0.11299 0.674122 0.597073
1387 1 0.116553 0.674555 0.590254
1389 1 0.109114 0.674951 0.603463
11751 1 0.107696 0.674568 0.606304
11750 2 0.104799 0.672759 0.614797
18026 2 0.121273 0.659097 0.615571
19677 1 0.100369 0.651175 0.615316
11941 1 0.141691 0.646387 0.612787
14838 1 0.143043 0.673079 0.59344
18027 1 0.125177 0.65852 0.607792
10347 1 0.126669 0.65843 0.605173
10346 2 0.129861 0.659629 0.597683
10345 1 0.133511 0.659485 0.589736
11794 1 0.141986 0.648706 0.614978
11795 2 0.14235 0.655825 0.619402
2717 2 0.015555 0.676378 0.608347
21391 1 0.0201882 0.681625 0.618003
2716 1 0.0187554 0.680061 0.615646
20576 2 0.0486613 0.681112 0.613648
14258 2 0.0466156 0.683737 0.595899
14257 1 0.046722 0.682369 0.603639
20577 1 0.0470102 0.681439 0.606549
18085 1 0.0609844 0.699467 0.590942
1619 2 0.068454 0.676715 0.602284
16905 1 0.062725 0.698617 0.592858
16904 2 0.0675886 0.696001 0.599234
16903 1 0.0696826 0.693881 0.605867
1620 1 0.0705836 0.681147 0.595631
6186 1 0.0709232 0.692665 0.608744
6185 2 0.0750169 0.690278 0.615843
20534 2 0.0942369 0.690095 0.590286
3344 2 0.118691 0.696357 0.601178
3343 1 0.115532 0.6989 0.594221
20535 1 0.0956499 0.691142 0.597982
577 1 0.0961354 0.691691 0.600947
578 2 0.0959711 0.69417 0.608816
579 1 0.0959418 0.696101 0.616728
3345 1 0.12122 0.695267 0.609175
21339 1 0.128486 0.693718 0.613298
14837 2 0.137607 0.678985 0.597128
14836 1 0.133686 0.684211 0.603001
21338 2 0.129824 0.688297 0.61861
20830 1 0.000949561 0.623411 0.63953
5221 1 0.00715335 0.633571 0.642155
20831 2 0.00278374 0.624859 0.631417
5222 2 0.0131367 0.633068 0.648602
13564 1 0.0238843 0.639539 0.63122
17815 1 0.025403 0.637323 0.633126
17816 2 0.029154 0.631578 0.637749
20832 1 0.00413781 0.62591 0.623758
6842 2 0.0341599 0.61668 0.648698
12918 1 0.0344093 0.617043 0.621779
7700 2 0.0528275 0.626527 0.623135
17817 1 0.0317787 0.624985 0.641445
6841 1 0.0323121 0.623056 0.643474
16606 1 0.0537128 0.617716 0.648793
15550 1 0.0540511 0.618818 0.646633
7701 1 0.0548086 0.623944 0.630012
15552 1 0.0547814 0.622907 0.6325
15551 2 0.0542782 0.621343 0.63935
13125 1 0.0522716 0.638793 0.648715
21145 1 0.0519075 0.639777 0.646208
21146 2 0.0489139 0.642792 0.639841
11061 1 0.0678818 0.616355 0.633227
15445 1 0.0696353 0.638618 0.631091
9760 1 0.0699929 0.637271 0.633879
16007 2 0.0852294 0.628302 0.629683
16008 1 0.0848671 0.632856 0.621467
9761 2 0.0701662 0.633849 0.641916
11218 1 0.0877318 0.623505 0.639835
16006 1 0.0871699 0.624537 0.637188
11219 2 0.0899924 0.621148 0.647286
15446 2 0.0685008 0.642214 0.623783
9762 1 0.0722654 0.630634 0.648653
11355 1 0.0723546 0.629386 0.651152
11968 1 0.0776577 0.611806 0.651064
4375 1 0.0944878 0.617478 0.624914
4728 1 0.107375 0.634497 0.64451
13194 1 0.107789 0.632417 0.647468
4726 1 0.104818 0.642765 0.630585
4727 2 0.106253 0.638431 0.637548
4376 2 0.101605 0.614754 0.628672
4377 1 0.10739 0.611595 0.631266
15106 1 0.128197 0.617965 0.637654
15107 2 0.134866 0.621661 0.636976
488 2 0.124086 0.638017 0.623518
487 1 0.126521 0.637414 0.630428
15108 1 0.141309 0.624541 0.636192
17840 2 0.149534 0.629243 0.633431
4788 1 0.130041 0.64105 0.652368
17839 1 0.144009 0.625951 0.635456
12786 1 0.129471 0.611652 0.621345
17841 1 0.158922 0.633215 0.632417
10416 1 0.00196409 0.667885 0.629301
13565 2 0.0191173 0.643465 0.626313
2791 1 0.00743513 0.652928 0.64396
10414 1 0.0147651 0.673432 0.639662
19848 1 0.0166592 0.67401 0.641898
19847 2 0.0221313 0.674937 0.647233
10415 2 0.00870257 0.67108 0.634087
2793 1 0.0180163 0.662782 0.652591
2792 2 0.0132576 0.656829 0.649297
3064 1 0.00533563 0.652046 0.642221
21147 1 0.0463107 0.645845 0.633029
8494 1 0.0313584 0.660413 0.628856
15553 1 0.0321617 0.659827 0.631482
15554 2 0.0353383 0.658038 0.639016
15555 1 0.0357935 0.655477 0.646854
13426 1 0.0356643 0.653722 0.649974
15200 2 0.045954 0.648281 0.623329
15201 1 0.0456468 0.646312 0.630568
1184 2 0.0519467 0.669774 0.650503
5124 1 0.0516813 0.67559 0.63992
1185 1 0.051858 0.674028 0.643165
2368 1 0.0850998 0.647336 0.645174
2358 1 0.0644343 0.668194 0.626407
15544 1 0.0641508 0.667305 0.629018
4809 1 0.0832378 0.656013 0.628472
5691 1 0.0837161 0.657593 0.625562
15545 2 0.0635696 0.662878 0.635499
15546 1 0.066012 0.659545 0.642016
4808 2 0.0830337 0.652213 0.635448
4576 1 0.0668042 0.658422 0.644602
4807 1 0.0844271 0.648941 0.64218
4577 2 0.0685917 0.65516 0.652443
8946 1 0.0919073 0.671621 0.641512
4314 1 0.090803 0.671845 0.644539
4313 2 0.0881652 0.672689 0.652148
2369 2 0.0874993 0.643799 0.651546
4786 1 0.122185 0.646724 0.639991
19676 2 0.102067 0.649206 0.6225
11749 1 0.100919 0.67158 0.622244
8944 1 0.09966 0.671366 0.625316
19675 1 0.103994 0.644474 0.627947
555 1 0.11109 0.658976 0.642898
18025 1 0.119519 0.659353 0.623454
3466 1 0.119112 0.659836 0.626819
3468 1 0.112093 0.659512 0.640633
3467 2 0.115812 0.660563 0.634366
8945 2 0.0958119 0.672054 0.632839
554 2 0.107673 0.658879 0.649988
4787 2 0.127041 0.643868 0.646099
11796 1 0.143644 0.662461 0.622365
16609 1 0.133306 0.669424 0.636782
16610 2 0.131662 0.674982 0.632554
21271 1 0.127008 0.663142 0.64851
21392 2 0.0240347 0.687011 0.623447
21393 1 0.027096 0.691671 0.628674
5122 1 0.0510143 0.680508 0.624954
20575 1 0.0508533 0.680775 0.621807
5123 2 0.0512678 0.6792 0.63228
6184 1 0.0793534 0.689406 0.622461
6862 1 0.105913 0.696762 0.629521
6863 2 0.101021 0.703651 0.628337
943 1 0.10797 0.693807 0.630196
944 2 0.112192 0.687462 0.630343
945 1 0.117505 0.680633 0.630254
21337 1 0.130074 0.682297 0.624838
16611 1 0.129863 0.680451 0.627401
6864 1 0.0965188 0.711158 0.628437
18180 1 0.00892933 0.625779 0.684747
2529 1 0.0203668 0.631027 0.655777
5223 1 0.0186819 0.63165 0.653666
2528 2 0.025932 0.630434 0.661413
9273 1 0.0462514 0.61349 0.675952
7764 1 0.0583564 0.625773 0.684614
14361 1 0.0442716 0.615867 0.675416
14359 1 0.0347594 0.62583 0.668507
2527 1 0.0321374 0.627666 0.66699
16607 2 0.0537192 0.613883 0.656583
13124 2 0.0541981 0.636109 0.657289
14360 2 0.0392632 0.621465 0.672087
13123 1 0.0555634 0.634875 0.664876
1719 1 0.056604 0.634184 0.66754
1718 2 0.0590215 0.632005 0.675147
1717 1 0.0580512 0.627371 0.681867
7222 1 0.0332475 0.640214 0.685493
6601 1 0.0337826 0.642019 0.68301
5590 1 0.0770223 0.615821 0.684364
2426 2 0.0760924 0.64037 0.685556
11220 1 0.0906189 0.618206 0.654378
18529 1 0.0913274 0.616405 0.657002
5591 2 0.0767277 0.619318 0.676141
11353 1 0.0741513 0.622792 0.665889
5592 1 0.0745187 0.622061 0.668658
11354 2 0.0723594 0.625681 0.658438
2370 1 0.089721 0.638632 0.658187
9685 1 0.0905602 0.637164 0.661261
9686 2 0.0920496 0.634603 0.669374
18530 2 0.0951108 0.611551 0.664099
19350 1 0.120616 0.617593 0.674265
11423 2 0.100233 0.626304 0.684299
13193 2 0.109445 0.628652 0.653768
13192 1 0.112604 0.62415 0.659376
19348 1 0.114353 0.622259 0.661538
9687 1 0.0949155 0.63161 0.675579
11422 1 0.0965339 0.63028 0.67809
19349 2 0.116586 0.619692 0.668328
16603 1 0.131426 0.640203 0.655562
16604 2 0.133223 0.637455 0.661204
16605 1 0.13493 0.634866 0.668883
5704 1 0.029136 0.673773 0.656345
19846 1 0.0269552 0.674041 0.653836
13427 2 0.0354913 0.651166 0.658163
1183 1 0.0503387 0.665625 0.657602
13428 1 0.0352325 0.650011 0.666108
3207 1 0.0502164 0.664029 0.661057
6603 1 0.0351749 0.649313 0.669023
6602 2 0.0343615 0.645753 0.676098
3206 2 0.0509193 0.66123 0.668897
3205 1 0.0532827 0.659194 0.67564
12705 1 0.0544559 0.658261 0.678243
12704 2 0.0585344 0.654777 0.68464
5706 1 0.0404428 0.67415 0.669305
5705 2 0.034294 0.673189 0.662853
4312 1 0.0851545 0.672993 0.659457
2425 1 0.074531 0.643847 0.679019
5232 1 0.0736747 0.645383 0.676702
4578 1 0.0711412 0.653304 0.660021
5230 1 0.071877 0.652595 0.662721
5231 2 0.0724308 0.649635 0.669739
553 1 0.104105 0.65973 0.657594
13780 1 0.102401 0.659672 0.660173
13781 2 0.0978472 0.660858 0.667267
13782 1 0.0927996 0.663401 0.672775
21272 2 0.127837 0.669127 0.653691
21273 1 0.129585 0.675938 0.657913
7224 1 0.0293406 0.633613 0.699134
18179 2 0.0143769 0.623137 0.691686
18178 1 0.0169579 0.619781 0.699332
7223 2 0.031825 0.635732 0.692062
7763 2 0.060033 0.621928 0.691
7762 1 0.0629397 0.618093 0.697544
16847 2 0.0797843 0.630777 0.701891
2427 1 0.0777932 0.635721 0.691979
16846 1 0.0782198 0.634321 0.694515
13640 2 0.0650243 0.640031 0.715349
16848 1 0.0824368 0.628483 0.709281
18951 1 0.0780641 0.614779 0.687243
18950 2 0.080361 0.61157 0.692993
17248 1 0.100389 0.619636 0.692702
11424 1 0.100838 0.621464 0.690366
17249 2 0.0998714 0.616808 0.700519
17250 1 0.0975581 0.614096 0.708401
3892 1 0.061434 0.651535 0.693151
12703 1 0.060808 0.652641 0.690682
13639 1 0.0652341 0.644746 0.709861
3894 1 0.0648417 0.645969 0.707509
3893 2 0.063671 0.649284 0.700133
6917 2 0.0915293 0.658363 0.698883
6916 1 0.0849932 0.656275 0.703488
6918 1 0.0983062 0.661158 0.693168
13641 1 0.0662326 0.633134 0.720066
9864 1 0.0666419 0.630124 0.722419
9862 1 0.0692825 0.619019 0.73373
9863 2 0.0678054 0.624179 0.727286
2235 1 0.977052 0.629149 0.604287
2234 2 0.980934 0.631355 0.610724
2233 1 0.983245 0.635337 0.616606
18312 1 0.984933 0.637067 0.618804
8907 1 0.984956 0.663317 0.618837
3789 1 0.995455 0.593536 0.641917
18311 2 0.989345 0.640858 0.624372
18310 1 0.992702 0.643884 0.630493
3066 1 0.99462 0.645428 0.633241
3065 2 0.999901 0.647817 0.637892
8906 2 0.992195 0.66443 0.622956
8905 1 0.999446 0.666598 0.627635
4256 2 0.96768 0.60144 0.657971
4255 1 0.960198 0.599534 0.656824
5359 1 0.979399 0.600526 0.658939
4257 1 0.976059 0.601293 0.65851
5360 2 0.986408 0.600056 0.660193
5361 1 0.994514 0.59744 0.662355
15415 1 0.996925 0.596264 0.662982
