ITEM: TIMESTEP
20000000
ITEM: NUMBER OF ATOMS
663
ITEM: BOX BOUNDS pp pp pp
0.0000000000000000e+00 5.0000000000000000e+01
0.0000000000000000e+00 5.0000000000000000e+01
0.0000000000000000e+00 5.0000000000000000e+01
ITEM: ATOMS id type xs ys zs
15966 1 0.493833 0.316842 0.58847
7036 1 0.493625 0.335214 0.589712
9860 3 0.490067 0.357772 0.59063
10290 1 0.484163 0.301531 0.59554
10289 3 0.479663 0.295651 0.599415
10288 1 0.475475 0.290366 0.603626
7661 3 0.468706 0.301069 0.619593
9225 1 0.446931 0.324175 0.607012
9224 3 0.452282 0.324183 0.613716
9223 1 0.453549 0.325269 0.62139
4473 1 0.458979 0.31099 0.595498
4472 3 0.46267 0.307654 0.602493
21530 3 0.493647 0.310135 0.621428
15965 3 0.489059 0.311503 0.591702
15964 1 0.485634 0.304174 0.594041
4471 1 0.464612 0.304318 0.609656
7662 1 0.465697 0.30359 0.61262
4047 1 0.473531 0.32724 0.621103
966 1 0.475638 0.327485 0.618616
965 3 0.48159 0.328888 0.612642
964 1 0.485109 0.331559 0.605813
4640 2 0.449576 0.344534 0.622671
4641 1 0.45651 0.346121 0.620521
64 1 0.458645 0.3459 0.619216
7037 3 0.489156 0.333373 0.596185
65 3 0.465464 0.346439 0.615768
9861 1 0.484971 0.355136 0.595913
19516 1 0.482899 0.354004 0.597884
19517 3 0.47872 0.352274 0.603254
66 1 0.470433 0.348511 0.610878
7038 1 0.486115 0.332151 0.603897
19518 1 0.473072 0.349468 0.609072
12253 1 0.491323 0.345178 0.620405
13467 1 0.490037 0.343959 0.622411
6313 1 0.486607 0.213994 0.638065
6314 2 0.491616 0.217368 0.643556
12007 1 0.492143 0.270209 0.635975
12009 1 0.487582 0.256197 0.630756
12008 2 0.49031 0.262867 0.632996
17820 1 0.492711 0.272755 0.637027
7660 1 0.472978 0.299747 0.626338
17819 3 0.494417 0.279465 0.640134
14703 1 0.456385 0.309935 0.643247
14702 2 0.460158 0.315116 0.639095
21529 1 0.486964 0.31402 0.623637
4046 3 0.468786 0.325234 0.627427
864 1 0.484373 0.327485 0.655422
4045 1 0.465117 0.322161 0.631992
14701 1 0.463741 0.320772 0.633788
863 3 0.490597 0.327206 0.649202
4639 1 0.441901 0.341109 0.624952
2440 1 0.449693 0.337877 0.645484
2441 3 0.454418 0.344359 0.642937
6197 3 0.462151 0.358503 0.633916
2442 1 0.456961 0.350397 0.639597
6198 1 0.458275 0.352579 0.63822
10632 1 0.482097 0.36099 0.652429
6499 1 0.473951 0.341656 0.654163
13465 1 0.482045 0.341719 0.637292
6501 1 0.480504 0.34141 0.640026
6500 3 0.476941 0.341709 0.646779
13466 3 0.486029 0.343421 0.629381
6196 1 0.466844 0.36177 0.627929
2052 1 0.482959 0.327646 0.65766
2050 1 0.473898 0.325311 0.672178
2051 3 0.478106 0.326877 0.664171
17579 3 0.491213 0.33718 0.687485
2089 1 0.493613 0.339581 0.676494
10699 1 0.475503 0.361868 0.665697
10700 3 0.481762 0.357306 0.664445
17578 1 0.492795 0.339491 0.679349
10701 1 0.488215 0.35199 0.662435
18089 2 0.492531 0.354168 0.709119
17580 1 0.48934 0.33507 0.695135
18088 1 0.487553 0.354972 0.715295
17634 1 0.472699 0.389461 0.520419
17633 3 0.477958 0.383621 0.523896
15878 3 0.492726 0.365922 0.521423
16550 3 0.492414 0.391907 0.554828
15879 1 0.486205 0.365315 0.525457
17632 1 0.481994 0.379284 0.52941
1535 3 0.476949 0.400201 0.537865
1534 1 0.468948 0.40219 0.537341
1536 1 0.484792 0.397714 0.536338
20248 1 0.487611 0.396903 0.535945
15157 1 0.460905 0.381969 0.57044
15159 1 0.469696 0.373123 0.560093
15158 3 0.464917 0.377099 0.56528
2420 3 0.480697 0.382202 0.590174
14294 3 0.486242 0.387789 0.57269
14295 1 0.488755 0.390237 0.565127
14293 1 0.483674 0.3856 0.580443
16549 1 0.489562 0.391025 0.562216
2419 1 0.482608 0.384684 0.583659
8452 1 0.455751 0.396778 0.589616
1702 1 0.494558 0.373521 0.603794
2421 1 0.480116 0.377663 0.597221
1704 1 0.483948 0.370485 0.614519
1703 3 0.489726 0.372424 0.609581
346 1 0.48176 0.369653 0.615983
8454 1 0.468628 0.392197 0.598072
347 3 0.474089 0.366971 0.620489
8453 2 0.463116 0.394508 0.593468
12804 1 0.494293 0.393406 0.610377
8279 3 0.462655 0.367445 0.654775
8280 1 0.469832 0.365482 0.654581
18141 1 0.483954 0.383093 0.626031
18139 1 0.477672 0.382575 0.640734
5002 1 0.476988 0.382945 0.643471
18140 3 0.480717 0.382835 0.633795
1426 1 0.492985 0.36411 0.636232
5003 3 0.475383 0.382678 0.650879
348 1 0.46891 0.363065 0.625853
10631 3 0.48664 0.362655 0.645906
10630 1 0.491317 0.363358 0.639274
8278 1 0.454982 0.370343 0.656842
5004 1 0.472423 0.383748 0.658902
5598 1 0.491977 0.384412 0.666416
4075 1 0.489371 0.393089 0.685295
9495 1 0.490672 0.391911 0.687177
1212 1 0.485724 0.367999 0.680018
1211 3 0.491158 0.362806 0.68259
9524 3 0.475883 0.408775 0.671499
9525 1 0.470128 0.41245 0.667359
9523 1 0.479242 0.403641 0.674626
4076 3 0.484598 0.396253 0.680574
4077 1 0.480414 0.401961 0.676188
9494 3 0.494242 0.387188 0.691861
3024 1 0.522682 0.370585 0.524659
15877 1 0.499186 0.367873 0.518113
21022 1 0.562341 0.401863 0.52312
19429 1 0.515484 0.340962 0.548883
8636 3 0.557348 0.33594 0.556939
11625 1 0.556391 0.313767 0.556846
8637 1 0.562505 0.330526 0.553676
19430 3 0.516523 0.347989 0.552768
19431 1 0.517033 0.354196 0.557216
3023 3 0.523558 0.371871 0.53222
20644 1 0.497106 0.366705 0.540321
20645 3 0.504563 0.364269 0.539562
20646 1 0.512357 0.36286 0.54034
18841 1 0.543846 0.358883 0.543716
15943 1 0.542743 0.356276 0.545168
15944 3 0.539637 0.349492 0.549074
18842 3 0.544014 0.366452 0.54165
15945 1 0.534684 0.34304 0.551977
15756 1 0.583213 0.347504 0.559999
6390 1 0.522298 0.392605 0.532004
6389 2 0.51436 0.393787 0.533192
20250 1 0.50389 0.394093 0.534898
6388 1 0.506859 0.394017 0.534735
15132 1 0.524867 0.376999 0.541117
3022 1 0.52447 0.375319 0.538306
15131 3 0.525669 0.38093 0.546973
15130 1 0.527608 0.386233 0.553167
6814 1 0.514475 0.381692 0.55663
16551 1 0.497396 0.393847 0.547858
20249 3 0.495811 0.395655 0.534351
21023 3 0.559038 0.395825 0.526919
21024 1 0.554071 0.390566 0.529485
12039 1 0.552224 0.388054 0.530482
12038 3 0.550023 0.381163 0.533498
12037 1 0.546715 0.375353 0.536915
18843 1 0.545715 0.372526 0.53818
12067 1 0.528399 0.388396 0.555285
13034 3 0.543327 0.398954 0.545089
13035 1 0.538946 0.392276 0.544427
4526 3 0.51633 0.408472 0.552583
4527 1 0.511739 0.405674 0.559067
4525 1 0.522415 0.410732 0.546933
12495 1 0.5494 0.408 0.545954
12494 3 0.553894 0.413994 0.546823
13033 1 0.547473 0.405181 0.545127
8834 3 0.538178 0.427098 0.556474
8833 1 0.533439 0.426595 0.55061
12493 1 0.558102 0.421389 0.547171
1696 1 0.560196 0.263756 0.588763
1697 3 0.562265 0.269889 0.593948
8697 1 0.514053 0.307768 0.592687
8696 3 0.519553 0.302525 0.593453
8695 1 0.525812 0.298442 0.592332
1272 1 0.528206 0.296784 0.592068
10093 1 0.560417 0.299099 0.586686
17976 1 0.559604 0.300672 0.58928
1270 1 0.539731 0.287627 0.594136
1271 3 0.534599 0.292943 0.590912
10095 1 0.566021 0.292378 0.573444
10094 3 0.564009 0.295696 0.580313
3916 1 0.495094 0.336362 0.587091
3176 3 0.523258 0.323742 0.576171
20466 1 0.511447 0.333173 0.590511
3175 1 0.524605 0.31616 0.577356
3177 1 0.522342 0.331288 0.574314
14956 1 0.522098 0.334097 0.573468
3917 2 0.49917 0.339993 0.581332
8635 1 0.552144 0.339224 0.562976
20286 1 0.549768 0.339183 0.565449
11623 1 0.548587 0.315261 0.569376
5138 3 0.542901 0.316368 0.579733
3424 1 0.539096 0.319757 0.589138
5137 1 0.540157 0.318355 0.586881
5139 1 0.547319 0.315454 0.572176
20285 3 0.546256 0.340147 0.571952
11624 2 0.551401 0.313754 0.562533
6987 1 0.564052 0.324395 0.589595
12857 2 0.591337 0.323318 0.585231
12856 1 0.584974 0.326043 0.590663
20992 1 0.583076 0.327429 0.591926
10575 1 0.615328 0.317176 0.575453
10574 2 0.60735 0.319656 0.578263
10573 1 0.600055 0.320859 0.58123
12858 1 0.597607 0.321791 0.582021
8039 3 0.50004 0.367757 0.57675
19219 1 0.516428 0.355712 0.594275
19220 3 0.522077 0.356998 0.588932
19221 1 0.526959 0.359213 0.582929
8038 1 0.50484 0.371892 0.570802
14957 3 0.523267 0.343173 0.571779
14958 1 0.52706 0.350625 0.570821
3918 1 0.503618 0.343795 0.57481
8040 1 0.496638 0.363978 0.582418
9859 1 0.494985 0.362464 0.584662
2225 3 0.533203 0.360142 0.56948
2226 1 0.539266 0.366489 0.568217
13158 1 0.540999 0.368939 0.567555
20284 1 0.542196 0.341613 0.577894
14794 1 0.541 0.342173 0.580597
2224 1 0.528994 0.354007 0.570545
14795 3 0.538955 0.3443 0.587717
8847 1 0.544723 0.364933 0.577051
8846 3 0.551866 0.362673 0.578247
8845 1 0.558523 0.359666 0.5796
7872 1 0.545329 0.369765 0.587289
7871 3 0.53954 0.367983 0.593865
10557 1 0.560013 0.348484 0.590907
15755 3 0.578261 0.345342 0.566004
15754 1 0.573622 0.345781 0.572903
8783 3 0.56723 0.347377 0.582138
8782 1 0.572075 0.346164 0.575441
6371 3 0.564394 0.371894 0.594735
6370 1 0.565222 0.364264 0.592244
8784 1 0.562021 0.347924 0.588377
2525 3 0.508936 0.401814 0.567338
6816 1 0.506804 0.373693 0.568822
6815 3 0.510694 0.378255 0.562918
11930 3 0.517569 0.380291 0.585296
11931 1 0.523602 0.382479 0.581871
11929 1 0.512287 0.377121 0.589289
17055 1 0.509999 0.376464 0.591363
2526 1 0.505572 0.398482 0.573881
17326 1 0.504774 0.39768 0.576875
17327 3 0.503662 0.396239 0.584969
10051 1 0.52692 0.384374 0.581122
17328 1 0.500877 0.395664 0.592948
12068 3 0.529704 0.394047 0.560782
13157 3 0.54476 0.376149 0.565673
13156 1 0.548053 0.383071 0.562942
12069 1 0.530975 0.400148 0.566202
10052 3 0.534131 0.386781 0.579432
10053 1 0.541467 0.388573 0.576426
2524 1 0.510465 0.404815 0.561258
21434 3 0.503371 0.423829 0.590594
16186 1 0.52382 0.405042 0.587527
16187 3 0.518586 0.410792 0.588049
21435 1 0.51005 0.418115 0.589549
16188 1 0.51301 0.416137 0.589332
21433 1 0.497069 0.43015 0.591509
304 1 0.546166 0.424207 0.563901
8835 1 0.543694 0.424999 0.56202
305 3 0.553261 0.422182 0.568716
306 1 0.560276 0.41966 0.57137
4335 1 0.592476 0.244745 0.603228
15508 1 0.51693 0.273719 0.627509
429 1 0.550647 0.274055 0.600646
3822 1 0.580958 0.271904 0.61603
4334 3 0.588253 0.251059 0.603723
2693 3 0.562426 0.264737 0.625155
18487 1 0.580219 0.257849 0.607878
4333 1 0.582335 0.256115 0.606473
18489 1 0.569847 0.264438 0.616999
2692 1 0.567501 0.264193 0.61905
18488 3 0.575114 0.262733 0.6114
3821 3 0.585731 0.278576 0.616975
1698 1 0.563424 0.274752 0.600261
3238 1 0.564121 0.27694 0.60262
15509 3 0.516731 0.281655 0.628845
11748 1 0.501502 0.303162 0.617189
21531 1 0.499018 0.305511 0.618478
11747 3 0.506454 0.297374 0.614076
11746 1 0.511901 0.292872 0.611264
13693 1 0.526306 0.302347 0.611812
427 1 0.541759 0.286025 0.594924
428 3 0.546409 0.281131 0.598046
17975 3 0.557752 0.302283 0.597064
17974 1 0.555324 0.304478 0.60435
13694 3 0.531206 0.298161 0.617054
10633 1 0.554524 0.30525 0.607116
10634 3 0.55321 0.307929 0.613578
6608 3 0.546552 0.28964 0.627085
13695 1 0.537038 0.293654 0.621495
6609 1 0.539852 0.292556 0.623155
3820 1 0.588515 0.286253 0.615161
10152 1 0.58917 0.289011 0.614612
3239 3 0.565581 0.282133 0.609168
3240 1 0.565726 0.286953 0.614187
17725 1 0.566113 0.289472 0.615925
17726 3 0.568347 0.294725 0.621422
10151 3 0.590116 0.296443 0.612689
9288 1 0.592165 0.306588 0.609657
10150 1 0.591073 0.303574 0.610422
17727 1 0.571307 0.30036 0.625269
11829 1 0.572609 0.301922 0.626893
20465 3 0.509989 0.33234 0.597991
12624 1 0.507431 0.331071 0.608771
20464 1 0.507938 0.331568 0.605908
16983 1 0.52404 0.324688 0.623434
13254 1 0.525281 0.324769 0.620481
12622 1 0.505428 0.327931 0.623955
12623 3 0.50592 0.329444 0.615723
1327 1 0.504764 0.327342 0.626514
13253 3 0.528421 0.325729 0.612715
3425 3 0.536094 0.323119 0.595599
13252 1 0.531207 0.326274 0.605482
3426 1 0.532356 0.326048 0.602451
6986 3 0.559869 0.325126 0.595536
6985 1 0.555002 0.328032 0.601728
15160 1 0.553942 0.32894 0.604308
15161 3 0.5511 0.331414 0.610903
15162 1 0.547655 0.333345 0.618241
10635 1 0.550807 0.310136 0.620435
20448 1 0.545734 0.333977 0.620665
1501 1 0.549788 0.311008 0.622953
20447 3 0.541074 0.336498 0.626885
9287 2 0.593335 0.314797 0.606888
17939 3 0.570428 0.340895 0.609335
20993 3 0.579148 0.33295 0.596624
20994 1 0.575306 0.337231 0.601787
17938 1 0.574093 0.338184 0.603616
9286 1 0.594405 0.322533 0.606873
2152 1 0.595411 0.325764 0.606767
7681 1 0.569912 0.321735 0.615085
10240 1 0.590609 0.327683 0.62751
7682 3 0.568675 0.323613 0.622754
2153 3 0.599744 0.331635 0.606521
2154 1 0.602228 0.339609 0.607481
5557 1 0.514307 0.354745 0.596076
12255 1 0.501371 0.350637 0.60896
6002 3 0.520221 0.345159 0.619458
6001 1 0.525888 0.34446 0.613168
5559 1 0.503125 0.350873 0.606761
5558 3 0.508501 0.351429 0.601504
6003 1 0.516105 0.346746 0.625974
1057 1 0.514399 0.346956 0.628795
15418 1 0.52759 0.344794 0.611083
16122 1 0.505164 0.367726 0.623732
16121 3 0.511801 0.368284 0.619421
16120 1 0.517851 0.368079 0.615046
15045 1 0.51997 0.368566 0.613031
15044 3 0.526366 0.369193 0.608565
1428 1 0.502949 0.367294 0.625098
12254 3 0.496138 0.349026 0.614966
14796 1 0.535671 0.343892 0.595079
15420 1 0.534457 0.343956 0.597536
2657 3 0.533791 0.359767 0.62713
15419 3 0.531296 0.344116 0.604727
10556 3 0.555206 0.350646 0.597007
10555 1 0.551154 0.352835 0.604331
18238 1 0.550281 0.35363 0.606592
18239 3 0.546043 0.356061 0.613029
18240 1 0.540879 0.356292 0.619022
2658 1 0.538627 0.356754 0.621192
15043 1 0.531855 0.368445 0.602805
7870 1 0.533941 0.368262 0.60007
19118 3 0.561307 0.346414 0.626691
4835 3 0.582208 0.359068 0.599544
4836 1 0.586268 0.353552 0.595875
17940 1 0.566718 0.343257 0.617024
15579 1 0.565892 0.368462 0.624382
14448 1 0.567657 0.36798 0.621966
4834 1 0.578831 0.362925 0.604724
14447 3 0.572881 0.366315 0.615257
14446 1 0.577044 0.363884 0.607406
19117 1 0.565227 0.343994 0.619239
17053 1 0.497136 0.373451 0.601506
17054 3 0.503034 0.375156 0.596395
16288 1 0.509352 0.389591 0.61585
16289 3 0.515421 0.392415 0.612973
4737 1 0.507115 0.388685 0.617427
4736 3 0.50059 0.386654 0.622668
16290 1 0.522125 0.39657 0.610325
15652 1 0.525012 0.397481 0.610018
12803 3 0.49667 0.394049 0.602599
12802 1 0.499662 0.394992 0.595727
4735 1 0.495331 0.381922 0.626307
16131 1 0.555192 0.39862 0.623935
16130 3 0.548825 0.399342 0.619157
15654 1 0.539247 0.399906 0.612573
16129 1 0.542202 0.399745 0.614078
12611 3 0.561157 0.385422 0.613131
12612 1 0.554388 0.381255 0.614864
5796 1 0.552081 0.380599 0.615265
5795 3 0.545371 0.378707 0.618029
15653 3 0.532623 0.399428 0.60931
5794 1 0.538712 0.379677 0.621355
7684 1 0.536327 0.38037 0.622912
7685 3 0.52929 0.38126 0.627245
6372 1 0.562267 0.377534 0.60149
12610 1 0.566401 0.390744 0.611227
14536 1 0.581989 0.400965 0.608109
14537 3 0.580996 0.394772 0.602496
14538 1 0.579636 0.390414 0.597586
6315 1 0.495952 0.221557 0.64891
9925 1 0.497247 0.223075 0.650524
9927 1 0.507181 0.229704 0.661454
9926 3 0.502158 0.22728 0.654524
2694 1 0.557212 0.267193 0.630053
17818 1 0.496561 0.285755 0.644702
15510 1 0.51471 0.28948 0.63086
12836 3 0.501461 0.298326 0.656655
10181 3 0.527497 0.296567 0.641053
15223 1 0.517752 0.301142 0.637188
10180 1 0.520525 0.299049 0.638117
15224 3 0.510789 0.305295 0.637156
15225 1 0.502782 0.308224 0.635459
12835 1 0.502218 0.290629 0.657665
12837 1 0.498658 0.305542 0.654724
10182 1 0.534125 0.293808 0.644137
20908 1 0.54706 0.304066 0.649929
6607 1 0.552277 0.287316 0.632251
20909 3 0.543859 0.305823 0.658201
7688 3 0.566568 0.306563 0.650781
7687 1 0.571761 0.302198 0.647308
11828 3 0.578502 0.305997 0.63167
4271 3 0.587702 0.291675 0.653426
4272 1 0.59352 0.294304 0.650017
406 1 0.580907 0.287397 0.659694
4270 1 0.58255 0.288749 0.657863
1329 1 0.497038 0.326318 0.640542
16982 3 0.521796 0.325726 0.630517
16029 1 0.510643 0.324383 0.659553
16839 1 0.511571 0.325091 0.656532
16981 1 0.51831 0.325735 0.638296
16837 1 0.517104 0.326015 0.641483
16838 3 0.514215 0.326039 0.649133
862 1 0.495523 0.3267 0.642731
2091 1 0.499907 0.340866 0.661644
1328 3 0.50108 0.326001 0.633885
16260 1 0.501084 0.341054 0.659233
18113 3 0.536265 0.332048 0.661702
7689 1 0.561506 0.313269 0.653051
1503 1 0.544266 0.318552 0.636424
1908 1 0.543754 0.319995 0.638897
1907 3 0.541034 0.323836 0.644885
1502 3 0.546936 0.314786 0.629815
1906 1 0.53875 0.32821 0.651013
21556 1 0.561385 0.329672 0.648131
19302 1 0.560649 0.32975 0.650988
18112 1 0.537744 0.329424 0.653841
20446 1 0.535962 0.339482 0.633365
19301 3 0.558771 0.328977 0.658889
10176 1 0.5345 0.340222 0.635697
11827 1 0.580668 0.311379 0.638166
10241 3 0.587993 0.334198 0.630979
10242 1 0.585247 0.340791 0.633718
7683 1 0.566907 0.326355 0.630008
21558 1 0.566222 0.327502 0.633087
21557 3 0.56334 0.329044 0.641269
10141 1 0.578255 0.33035 0.646478
10143 1 0.582565 0.32012 0.658427
10142 3 0.579515 0.325855 0.652311
4800 1 0.603201 0.313972 0.659576
1058 3 0.510796 0.346605 0.636236
16259 3 0.504213 0.343096 0.652211
16258 1 0.507537 0.345335 0.645867
1059 1 0.508525 0.345991 0.643619
1823 3 0.521997 0.362173 0.642127
1824 1 0.527857 0.361722 0.636521
6400 1 0.514235 0.363692 0.649576
1822 1 0.516024 0.363338 0.647949
10174 1 0.527079 0.345864 0.648729
12264 1 0.525973 0.346261 0.651761
6401 3 0.509339 0.365912 0.654463
1427 3 0.497549 0.365851 0.6296
6402 1 0.503976 0.371238 0.658344
12263 3 0.522776 0.348587 0.65975
15578 3 0.561126 0.369999 0.630463
10175 3 0.530423 0.343179 0.641573
2656 1 0.529795 0.361141 0.634019
15577 1 0.556547 0.371391 0.635439
21207 1 0.554866 0.371567 0.637651
19679 3 0.553583 0.349737 0.643544
19680 1 0.548836 0.349912 0.651097
18225 1 0.54749 0.350678 0.653961
19119 1 0.55864 0.347675 0.63356
19678 1 0.557429 0.348293 0.636106
21206 3 0.549556 0.371864 0.64339
21205 1 0.544043 0.371154 0.648131
16182 1 0.541576 0.370793 0.650021
16181 3 0.535832 0.370828 0.654513
18224 3 0.545264 0.354413 0.661217
19407 1 0.590486 0.362221 0.634294
19406 3 0.584878 0.366678 0.633221
4899 1 0.584269 0.342609 0.635756
4897 1 0.579503 0.354004 0.645548
17067 1 0.578219 0.356698 0.646868
4898 3 0.581752 0.34795 0.64134
17066 3 0.573247 0.362502 0.650024
6567 1 0.592074 0.349281 0.656031
17065 1 0.56897 0.367438 0.655425
17023 1 0.567381 0.369574 0.657575
6566 3 0.597616 0.346038 0.660154
5596 1 0.502412 0.373273 0.659475
1874 3 0.519023 0.382763 0.643675
1873 1 0.523254 0.382135 0.636897
7686 1 0.524633 0.382114 0.634158
1875 1 0.515036 0.384359 0.650428
16180 1 0.531305 0.373381 0.659517
6090 1 0.529188 0.374659 0.661529
19509 1 0.560228 0.402712 0.653709
15994 1 0.543194 0.398539 0.632987
15995 3 0.541157 0.398176 0.640177
15996 1 0.539614 0.397152 0.647533
19507 1 0.567154 0.390691 0.659663
19508 3 0.563642 0.396926 0.655143
19405 1 0.578454 0.372453 0.632695
17024 3 0.56305 0.373544 0.662444
18235 1 0.508822 0.230661 0.663983
18236 3 0.515065 0.232721 0.669474
18237 1 0.520201 0.238781 0.672996
7726 1 0.521466 0.24107 0.674153
7727 2 0.526056 0.246877 0.677491
11765 2 0.554817 0.245242 0.694517
11764 1 0.560022 0.244879 0.688694
7728 1 0.53128 0.252685 0.681076
5655 1 0.532954 0.255677 0.68255
270 1 0.540984 0.271835 0.690714
269 2 0.545003 0.27806 0.692972
5654 2 0.536501 0.263294 0.685879
5653 1 0.539559 0.269766 0.689008
17337 1 0.564965 0.262284 0.673448
17336 2 0.566843 0.268614 0.669773
17335 1 0.570299 0.275062 0.667593
408 1 0.571157 0.278111 0.666595
268 1 0.549737 0.285115 0.692376
3489 1 0.539484 0.305164 0.669336
20910 1 0.540936 0.305937 0.666112
3488 3 0.53771 0.306323 0.677589
3487 1 0.538237 0.307117 0.685674
2245 1 0.53802 0.280191 0.664338
5252 3 0.557862 0.298127 0.671162
2246 3 0.5436 0.284905 0.667229
2247 1 0.549379 0.290171 0.669875
5251 1 0.551654 0.292095 0.669987
5712 1 0.567626 0.295027 0.693405
5253 1 0.562876 0.304482 0.671943
12177 1 0.564087 0.306814 0.671893
407 3 0.575017 0.284571 0.663897
10799 2 0.612713 0.289146 0.689513
10800 1 0.618829 0.292733 0.685863
10798 1 0.60831 0.284217 0.694192
1021 1 0.606346 0.282582 0.696084
2090 3 0.497662 0.340391 0.669639
19925 2 0.503436 0.316387 0.681245
19926 1 0.501892 0.314236 0.689621
18290 3 0.515959 0.332522 0.690657
18291 1 0.520394 0.327125 0.685495
16028 3 0.508666 0.322043 0.666115
19924 1 0.505644 0.317936 0.674587
16027 1 0.506234 0.319173 0.672641
18289 1 0.511333 0.33795 0.693899
12074 3 0.530128 0.338648 0.677976
12075 1 0.532861 0.335404 0.670321
18114 1 0.53402 0.33426 0.668131
19300 1 0.557056 0.329383 0.666052
13900 1 0.556362 0.330172 0.66866
13902 1 0.549781 0.337699 0.681612
13901 3 0.553412 0.333741 0.675606
7629 1 0.577238 0.312329 0.686597
13743 1 0.578821 0.312238 0.684305
13742 3 0.585238 0.311939 0.678956
13741 1 0.591615 0.312579 0.673443
4798 1 0.594122 0.312683 0.670532
12176 3 0.566825 0.313932 0.67295
7628 3 0.57266 0.312251 0.693261
9065 3 0.574641 0.331221 0.673122
9064 1 0.577374 0.338985 0.672904
12175 1 0.569315 0.321841 0.673711
9066 1 0.570536 0.324513 0.674066
12373 1 0.590836 0.339846 0.683336
11433 1 0.592445 0.337723 0.684548
21208 1 0.602578 0.323358 0.691861
11432 2 0.596568 0.330918 0.686933
11431 1 0.600797 0.324998 0.690637
21209 3 0.607135 0.317245 0.69471
8058 1 0.603812 0.340166 0.666539
8057 3 0.610175 0.33551 0.669804
4799 3 0.599728 0.312785 0.665998
8056 1 0.616174 0.331596 0.672254
1210 1 0.496445 0.357939 0.685557
6578 3 0.506029 0.350352 0.694417
6579 1 0.510073 0.350557 0.687847
10339 1 0.511343 0.351344 0.685266
10340 3 0.513818 0.35161 0.677772
10341 1 0.517519 0.351163 0.669995
12262 1 0.518827 0.350336 0.667621
12073 1 0.528453 0.343272 0.684498
18223 1 0.541961 0.359163 0.667237
13227 1 0.540576 0.360825 0.670135
13226 3 0.53823 0.362097 0.676641
13225 1 0.536768 0.36089 0.684881
13989 1 0.557906 0.356748 0.674021
12374 3 0.587437 0.345272 0.679767
12375 1 0.585757 0.350511 0.676083
13988 3 0.563767 0.351973 0.671672
13987 1 0.569015 0.346833 0.669179
6565 1 0.602185 0.342144 0.664887
15997 1 0.520036 0.378769 0.677832
15999 1 0.522352 0.379345 0.693261
15998 3 0.520597 0.378631 0.685822
6089 3 0.522855 0.37821 0.66692
6088 1 0.520319 0.378763 0.674228
5597 3 0.498496 0.378697 0.663204
9018 1 0.547513 0.382451 0.68474
19861 1 0.556523 0.377863 0.669755
17025 1 0.558482 0.376244 0.667458
2684 3 0.550374 0.402194 0.670272
2685 1 0.550513 0.39703 0.676998
9017 3 0.543838 0.383012 0.691008
19863 1 0.548576 0.382259 0.682175
19862 3 0.552099 0.381359 0.675423
2683 1 0.551732 0.408357 0.664054
11766 1 0.550442 0.245112 0.700576
16106 2 0.583049 0.247252 0.707268
16107 1 0.579671 0.240181 0.70994
9116 2 0.57404 0.231279 0.710365
9115 1 0.577883 0.237863 0.71013
9117 1 0.570249 0.225231 0.710538
20381 2 0.570835 0.250241 0.72411
20382 1 0.570042 0.25664 0.718822
21562 1 0.569809 0.258484 0.716575
21563 2 0.568493 0.263793 0.711103
21564 1 0.568708 0.268656 0.704618
16105 1 0.585062 0.254577 0.707493
15786 1 0.586969 0.25783 0.707053
15785 2 0.590467 0.265224 0.706528
15784 1 0.594479 0.271619 0.705628
1023 1 0.596421 0.273939 0.704551
5710 1 0.574095 0.290367 0.705925
5711 3 0.570653 0.291894 0.699625
1022 2 0.601187 0.279206 0.701441
20522 3 0.558939 0.329837 0.702019
20523 1 0.552127 0.332236 0.699772
7627 1 0.56768 0.312655 0.700238
20521 1 0.567596 0.326873 0.704649
21210 1 0.610231 0.310981 0.697617
6577 1 0.499892 0.351475 0.699732
18090 1 0.497712 0.352026 0.702134
9493 1 0.498088 0.383157 0.698577
9016 1 0.539193 0.386934 0.69817
16806 1 0.572829 0.241351 0.729007
20380 1 0.572402 0.243643 0.727628
16804 1 0.574108 0.227811 0.736732
16805 2 0.573561 0.234234 0.732427
