ITEM: TIMESTEP
0
ITEM: NUMBER OF ATOMS
15828
ITEM: BOX BOUNDS pp pp pp
0.0000000000000000e+00 5.0000000000000000e+01
0.0000000000000000e+00 5.0000000000000000e+01
0.0000000000000000e+00 5.0000000000000000e+01
ITEM: ATOMS id type 
1 1 
2 3 
3 1 
10 1 
11 2 
12 1 
61 1 
62 3 
63 1 
121 1 
122 2 
123 1 
124 1 
125 2 
126 1 
130 1 
131 2 
132 1 
184 1 
185 3 
186 1 
187 1 
188 2 
189 1 
241 1 
242 2 
243 1 
244 1 
245 2 
246 1 
250 1 
251 3 
252 1 
301 1 
302 3 
303 1 
307 1 
308 2 
309 1 
310 1 
311 2 
312 1 
361 1 
362 3 
363 1 
364 1 
365 3 
366 1 
367 1 
368 2 
369 1 
370 1 
371 2 
372 1 
421 1 
422 3 
423 1 
424 1 
425 3 
426 1 
430 1 
431 2 
432 1 
481 1 
482 3 
483 1 
490 1 
491 2 
492 1 
1141 1 
1142 2 
1143 1 
1144 1 
1145 3 
1146 1 
1150 1 
1151 2 
1152 1 
1201 1 
1202 3 
1203 1 
1204 1 
1205 3 
1206 1 
1261 1 
1262 3 
1263 1 
1264 1 
1265 3 
1266 1 
1267 1 
1268 2 
1269 1 
1324 1 
1325 2 
1326 1 
1330 1 
1331 2 
1332 1 
1381 1 
1382 2 
1383 1 
1384 1 
1385 3 
1386 1 
1390 1 
1391 3 
1392 1 
1441 1 
1442 2 
1443 1 
1444 1 
1445 2 
1446 1 
1447 1 
1448 2 
1449 1 
1450 1 
1451 3 
1452 1 
1504 1 
1505 2 
1506 1 
1507 1 
1508 3 
1509 1 
1561 1 
1562 2 
1563 1 
1567 1 
1568 2 
1569 1 
1570 1 
1571 2 
1572 1 
1621 1 
1622 2 
1623 1 
1624 1 
1625 2 
1626 1 
1627 1 
1628 3 
1629 1 
2221 1 
2222 3 
2223 1 
2227 1 
2228 2 
2229 1 
2281 1 
2282 2 
2283 1 
2284 1 
2285 2 
2286 1 
2287 1 
2288 2 
2289 1 
2290 1 
2291 3 
2292 1 
2344 1 
2345 2 
2346 1 
2347 1 
2348 3 
2349 1 
2350 1 
2351 2 
2352 1 
2401 1 
2402 3 
2403 1 
2404 1 
2405 3 
2406 1 
2407 1 
2408 3 
2409 1 
2410 1 
2411 2 
2412 1 
2461 1 
2462 3 
2463 1 
2467 1 
2468 3 
2469 1 
2470 1 
2471 3 
2472 1 
2530 1 
2531 2 
2532 1 
2581 1 
2582 2 
2583 1 
2584 1 
2585 3 
2586 1 
2587 1 
2588 3 
2589 1 
2590 1 
2591 2 
2592 1 
3187 1 
3188 3 
3189 1 
3190 1 
3191 2 
3192 1 
3241 1 
3242 2 
3243 1 
3244 1 
3245 2 
3246 1 
3247 1 
3248 2 
3249 1 
3304 1 
3305 3 
3306 1 
3307 1 
3308 2 
3309 1 
3310 1 
3311 2 
3312 1 
3361 1 
3362 2 
3363 1 
3364 1 
3365 3 
3366 1 
3367 1 
3368 3 
3369 1 
3370 1 
3371 3 
3372 1 
3421 1 
3422 2 
3423 1 
3481 1 
3482 2 
3483 1 
3484 1 
3485 2 
3486 1 
3490 1 
3491 2 
3492 1 
3541 1 
3542 3 
3543 1 
3547 1 
3548 2 
3549 1 
3601 1 
3602 3 
3603 1 
3604 1 
3605 2 
3606 1 
3607 1 
3608 3 
3609 1 
3610 1 
3611 2 
3612 1 
3661 1 
3662 3 
3663 1 
3667 1 
3668 3 
3669 1 
3670 1 
3671 3 
3672 1 
3721 1 
3722 2 
3723 1 
3724 1 
3725 2 
3726 1 
3727 1 
3728 2 
3729 1 
4321 1 
4322 3 
4323 1 
4324 1 
4325 3 
4326 1 
4327 1 
4328 2 
4329 1 
4381 1 
4382 3 
4383 1 
4390 1 
4391 2 
4392 1 
4441 1 
4442 3 
4443 1 
4450 1 
4451 3 
4452 1 
4501 1 
4502 3 
4503 1 
4504 1 
4505 3 
4506 1 
4507 1 
4508 3 
4509 1 
4510 1 
4511 2 
4512 1 
4561 1 
4562 2 
4563 1 
4567 1 
4568 2 
4569 1 
4570 1 
4571 3 
4572 1 
4621 1 
4622 3 
4623 1 
4624 1 
4625 2 
4626 1 
4627 1 
4628 2 
4629 1 
4681 1 
4682 2 
4683 1 
4684 1 
4685 3 
4686 1 
4687 1 
4688 2 
4689 1 
4690 1 
4691 2 
4692 1 
4741 1 
4742 3 
4743 1 
4744 1 
4745 3 
4746 1 
4747 1 
4748 3 
4749 1 
4750 1 
4751 3 
4752 1 
4801 1 
4802 2 
4803 1 
4804 1 
4805 3 
4806 1 
4810 1 
4811 3 
4812 1 
4861 1 
4862 3 
4863 1 
4864 1 
4865 2 
4866 1 
4867 1 
4868 3 
4869 1 
4870 1 
4871 2 
4872 1 
5461 1 
5462 2 
5463 1 
5467 1 
5468 2 
5469 1 
5470 1 
5471 2 
5472 1 
5524 1 
5525 3 
5526 1 
5527 1 
5528 2 
5529 1 
5530 1 
5531 2 
5532 1 
5584 1 
5585 3 
5586 1 
5587 1 
5588 2 
5589 1 
5641 1 
5642 2 
5643 1 
5644 1 
5645 3 
5646 1 
5650 1 
5651 3 
5652 1 
5701 1 
5702 2 
5703 1 
5707 1 
5708 2 
5709 1 
5764 1 
5765 2 
5766 1 
5767 1 
5768 3 
5769 1 
5821 1 
5822 3 
5823 1 
5824 1 
5825 3 
5826 1 
5827 1 
5828 2 
5829 1 
5830 1 
5831 3 
5832 1 
5881 1 
5882 2 
5883 1 
5884 1 
5885 2 
5886 1 
5887 1 
5888 3 
5889 1 
5890 1 
5891 2 
5892 1 
5941 1 
5942 3 
5943 1 
5944 1 
5945 3 
5946 1 
5947 1 
5948 2 
5949 1 
5950 1 
5951 3 
5952 1 
6004 1 
6005 2 
6006 1 
6007 1 
6008 3 
6009 1 
6010 1 
6011 3 
6012 1 
6664 1 
6665 2 
6666 1 
6667 1 
6668 3 
6669 1 
6670 1 
6671 2 
6672 1 
6721 1 
6722 3 
6723 1 
6724 1 
6725 3 
6726 1 
6727 1 
6728 2 
6729 1 
6730 1 
6731 3 
6732 1 
6781 1 
6782 2 
6783 1 
6787 1 
6788 2 
6789 1 
6790 1 
6791 3 
6792 1 
6844 1 
6845 3 
6846 1 
6850 1 
6851 3 
6852 1 
6901 1 
6902 2 
6903 1 
6904 1 
6905 2 
6906 1 
6907 1 
6908 2 
6909 1 
6961 1 
6962 3 
6963 1 
6964 1 
6965 3 
6966 1 
6967 1 
6968 3 
6969 1 
6970 1 
6971 2 
6972 1 
7021 1 
7022 2 
7023 1 
7024 1 
7025 2 
7026 1 
7030 1 
7031 2 
7032 1 
7090 1 
7091 2 
7092 1 
7141 1 
7142 3 
7143 1 
7144 1 
7145 2 
7146 1 
7150 1 
7151 2 
7152 1 
7201 1 
7202 2 
7203 1 
7207 1 
7208 3 
7209 1 
7210 1 
7211 3 
7212 1 
7741 1 
7742 2 
7743 1 
7744 1 
7745 2 
7746 1 
7750 1 
7751 2 
7752 1 
7807 1 
7808 3 
7809 1 
7810 1 
7811 3 
7812 1 
7921 1 
7922 2 
7923 1 
7927 1 
7928 3 
7929 1 
7981 1 
7982 3 
7983 1 
7984 1 
7985 2 
7986 1 
7987 1 
7988 3 
7989 1 
7990 1 
7991 3 
7992 1 
8047 1 
8048 3 
8049 1 
8050 1 
8051 3 
8052 1 
8101 1 
8102 3 
8103 1 
8104 1 
8105 3 
8106 1 
8107 1 
8108 2 
8109 1 
8110 1 
8111 3 
8112 1 
8161 1 
8162 2 
8163 1 
8164 1 
8165 3 
8166 1 
8167 1 
8168 2 
8169 1 
8170 1 
8171 2 
8172 1 
8221 1 
8222 3 
8223 1 
8224 1 
8225 3 
8226 1 
8227 1 
8228 3 
8229 1 
8281 1 
8282 3 
8283 1 
8284 1 
8285 2 
8286 1 
8287 1 
8288 2 
8289 1 
8290 1 
8291 3 
8292 1 
8884 1 
8885 3 
8886 1 
8887 1 
8888 2 
8889 1 
8941 1 
8942 3 
8943 1 
8947 1 
8948 3 
8949 1 
8950 1 
8951 3 
8952 1 
9001 1 
9002 3 
9003 1 
9004 1 
9005 2 
9006 1 
9010 1 
9011 2 
9012 1 
9061 1 
9062 3 
9063 1 
9181 1 
9182 2 
9183 1 
9187 1 
9188 2 
9189 1 
9190 1 
9191 3 
9192 1 
9241 1 
9242 2 
9243 1 
9244 1 
9245 2 
9246 1 
9250 1 
9251 2 
9252 1 
9301 1 
9302 3 
9303 1 
9304 1 
9305 2 
9306 1 
9307 1 
9308 3 
9309 1 
9310 1 
9311 2 
9312 1 
9961 1 
9962 3 
9963 1 
9967 1 
9968 2 
9969 1 
9970 1 
9971 2 
9972 1 
10024 1 
10025 3 
10026 1 
10027 1 
10028 3 
10029 1 
10030 1 
10031 3 
10032 1 
10081 1 
10082 3 
10083 1 
10084 1 
10085 2 
10086 1 
10087 1 
10088 3 
10089 1 
10090 1 
10091 3 
10092 1 
10144 1 
10145 2 
10146 1 
10147 1 
10148 3 
10149 1 
10204 1 
10205 2 
10206 1 
10207 1 
10208 3 
10209 1 
10261 1 
10262 3 
10263 1 
10264 1 
10265 2 
10266 1 
10267 1 
10268 2 
10269 1 
10270 1 
10271 2 
10272 1 
10324 1 
10325 3 
10326 1 
10327 1 
10328 3 
10329 1 
10330 1 
10331 2 
10332 1 
10381 1 
10382 2 
10383 1 
10384 1 
10385 3 
10386 1 
10390 1 
10391 3 
10392 1 
10441 1 
10442 2 
10443 1 
10444 1 
10445 3 
10446 1 
10450 1 
10451 2 
10452 1 
10501 1 
10502 3 
10503 1 
10507 1 
10508 3 
10509 1 
10510 1 
10511 2 
10512 1 
16 1 
17 2 
18 1 
22 1 
23 3 
24 1 
73 1 
74 3 
75 1 
76 1 
77 3 
78 1 
79 1 
80 3 
81 1 
82 1 
83 2 
84 1 
133 1 
134 3 
135 1 
136 1 
137 2 
138 1 
142 1 
143 3 
144 1 
193 1 
194 2 
195 1 
196 1 
197 2 
198 1 
202 1 
203 3 
204 1 
253 1 
254 2 
255 1 
256 1 
257 2 
258 1 
259 1 
260 2 
261 1 
313 1 
314 3 
315 1 
316 1 
317 2 
318 1 
319 1 
320 2 
321 1 
373 1 
374 3 
375 1 
376 1 
377 2 
378 1 
379 1 
380 2 
381 1 
382 1 
383 2 
384 1 
436 1 
437 3 
438 1 
442 1 
443 3 
444 1 
493 1 
494 3 
495 1 
496 1 
497 2 
498 1 
499 1 
500 3 
501 1 
1153 1 
1154 3 
1155 1 
1156 1 
1157 2 
1158 1 
1159 1 
1160 3 
1161 1 
1213 1 
1214 2 
1215 1 
1216 1 
1217 3 
1218 1 
1273 1 
1274 3 
1275 1 
1276 1 
1277 2 
1278 1 
1279 1 
1280 2 
1281 1 
1282 1 
1283 3 
1284 1 
1333 1 
1334 3 
1335 1 
1393 1 
1394 3 
1395 1 
1396 1 
1397 2 
1398 1 
1399 1 
1400 3 
1401 1 
1402 1 
1403 3 
1404 1 
1453 1 
1454 2 
1455 1 
1456 1 
1457 3 
1458 1 
1459 1 
1460 2 
1461 1 
1462 1 
1463 2 
1464 1 
1513 1 
1514 2 
1515 1 
1519 1 
1520 2 
1521 1 
1522 1 
1523 2 
1524 1 
1573 1 
1574 2 
1575 1 
1576 1 
1577 3 
1578 1 
1579 1 
1580 3 
1581 1 
1582 1 
1583 3 
1584 1 
1636 1 
1637 3 
1638 1 
1639 1 
1640 2 
1641 1 
1642 1 
1643 3 
1644 1 
2239 1 
2240 3 
2241 1 
2242 1 
2243 3 
2244 1 
2296 1 
2297 2 
2298 1 
2299 1 
2300 3 
2301 1 
2302 1 
2303 2 
2304 1 
2353 1 
2354 2 
2355 1 
2359 1 
2360 3 
2361 1 
2413 1 
2414 2 
2415 1 
2416 1 
2417 2 
2418 1 
2473 1 
2474 2 
2475 1 
2476 1 
2477 3 
2478 1 
2479 1 
2480 2 
2481 1 
2482 1 
2483 2 
2484 1 
2533 1 
2534 3 
2535 1 
2542 1 
2543 3 
2544 1 
2593 1 
2594 3 
2595 1 
2596 1 
2597 3 
2598 1 
3193 1 
3194 2 
3195 1 
3196 1 
3197 2 
3198 1 
3199 1 
3200 3 
3201 1 
3202 1 
3203 2 
3204 1 
3253 1 
3254 3 
3255 1 
3256 1 
3257 3 
3258 1 
3259 1 
3260 2 
3261 1 
3262 1 
3263 2 
3264 1 
3313 1 
3314 2 
3315 1 
3316 1 
3317 2 
3318 1 
3319 1 
3320 2 
3321 1 
3322 1 
3323 3 
3324 1 
3376 1 
3377 3 
3378 1 
3379 1 
3380 3 
3381 1 
3433 1 
3434 3 
3435 1 
3442 1 
3443 3 
3444 1 
3493 1 
3494 3 
3495 1 
3496 1 
3497 2 
3498 1 
3499 1 
3500 3 
3501 1 
3556 1 
3557 3 
3558 1 
3559 1 
3560 3 
3561 1 
3562 1 
3563 3 
3564 1 
3613 1 
3614 2 
3615 1 
3616 1 
3617 2 
3618 1 
3619 1 
3620 2 
3621 1 
3622 1 
3623 2 
3624 1 
3673 1 
3674 2 
3675 1 
3679 1 
3680 2 
3681 1 
3682 1 
3683 3 
3684 1 
3733 1 
3734 3 
3735 1 
3736 1 
3737 2 
3738 1 
4336 1 
4337 2 
4338 1 
4339 1 
4340 2 
4341 1 
4342 1 
4343 3 
4344 1 
4393 1 
4394 3 
4395 1 
4396 1 
4397 3 
4398 1 
4399 1 
4400 2 
4401 1 
4402 1 
4403 2 
4404 1 
4453 1 
4454 2 
4455 1 
4456 1 
4457 2 
4458 1 
4459 1 
4460 3 
4461 1 
4462 1 
4463 2 
4464 1 
4519 1 
4520 3 
4521 1 
4522 1 
4523 3 
4524 1 
4573 1 
4574 2 
4575 1 
4579 1 
4580 2 
4581 1 
4582 1 
4583 2 
4584 1 
4633 1 
4634 3 
4635 1 
4636 1 
4637 2 
4638 1 
4642 1 
4643 2 
4644 1 
4693 1 
4694 3 
4695 1 
4696 1 
4697 3 
4698 1 
4699 1 
4700 3 
4701 1 
4702 1 
4703 2 
4704 1 
4753 1 
4754 2 
4755 1 
4756 1 
4757 2 
4758 1 
4759 1 
4760 3 
4761 1 
4813 1 
4814 3 
4815 1 
4819 1 
4820 3 
4821 1 
4822 1 
4823 2 
4824 1 
4876 1 
4877 2 
4878 1 
4879 1 
4880 3 
4881 1 
4882 1 
4883 2 
4884 1 
5473 1 
5474 2 
5475 1 
5476 1 
5477 2 
5478 1 
5479 1 
5480 3 
5481 1 
5482 1 
5483 3 
5484 1 
5533 1 
5534 3 
5535 1 
5536 1 
5537 2 
5538 1 
5539 1 
5540 3 
5541 1 
5542 1 
5543 3 
5544 1 
5593 1 
5594 3 
5595 1 
5602 1 
5603 3 
5604 1 
5656 1 
5657 3 
5658 1 
5659 1 
5660 2 
5661 1 
5662 1 
5663 3 
5664 1 
5713 1 
5714 3 
5715 1 
5716 1 
5717 2 
5718 1 
5719 1 
5720 3 
5721 1 
5779 1 
5780 2 
5781 1 
5782 1 
5783 2 
5784 1 
5833 1 
5834 2 
5835 1 
5839 1 
5840 2 
5841 1 
5842 1 
5843 3 
5844 1 
5899 1 
5900 3 
5901 1 
5902 1 
5903 3 
5904 1 
5956 1 
5957 3 
5958 1 
6013 1 
6014 2 
6015 1 
6016 1 
6017 3 
6018 1 
6673 1 
6674 3 
6675 1 
6676 1 
6677 2 
6678 1 
6679 1 
6680 2 
6681 1 
6733 1 
6734 2 
6735 1 
6736 1 
6737 3 
6738 1 
6739 1 
6740 2 
6741 1 
6793 1 
6794 2 
6795 1 
6799 1 
6800 3 
6801 1 
6859 1 
6860 3 
6861 1 
6913 1 
6914 2 
6915 1 
6919 1 
6920 3 
6921 1 
6973 1 
6974 2 
6975 1 
6976 1 
6977 3 
6978 1 
6979 1 
6980 2 
6981 1 
6982 1 
6983 2 
6984 1 
7042 1 
7043 3 
7044 1 
7096 1 
7097 2 
7098 1 
7099 1 
7100 2 
7101 1 
7102 1 
7103 2 
7104 1 
7153 1 
7154 3 
7155 1 
7156 1 
7157 2 
7158 1 
7159 1 
7160 3 
7161 1 
7162 1 
7163 3 
7164 1 
7213 1 
7214 3 
7215 1 
7216 1 
7217 2 
7218 1 
7219 1 
7220 3 
7221 1 
7753 1 
7754 3 
7755 1 
7756 1 
7757 2 
7758 1 
7759 1 
7760 2 
7761 1 
7813 1 
7814 3 
7815 1 
7816 1 
7817 2 
7818 1 
7819 1 
7820 2 
7821 1 
7822 1 
7823 3 
7824 1 
7873 1 
7874 2 
7875 1 
7879 1 
7880 2 
7881 1 
7882 1 
7883 3 
7884 1 
7942 1 
7943 2 
7944 1 
7996 1 
7997 3 
7998 1 
7999 1 
8000 3 
8001 1 
8002 1 
8003 2 
8004 1 
8053 1 
8054 3 
8055 1 
8062 1 
8063 2 
8064 1 
8113 1 
8114 2 
8115 1 
8116 1 
8117 2 
8118 1 
8122 1 
8123 2 
8124 1 
8173 1 
8174 2 
8175 1 
8176 1 
8177 2 
8178 1 
8182 1 
8183 2 
8184 1 
8233 1 
8234 3 
8235 1 
8239 1 
8240 2 
8241 1 
8293 1 
8294 2 
8295 1 
8296 1 
8297 2 
8298 1 
8299 1 
8300 3 
8301 1 
8893 1 
8894 2 
8895 1 
8896 1 
8897 2 
8898 1 
8899 1 
8900 2 
8901 1 
8953 1 
8954 2 
8955 1 
9013 1 
9014 3 
9015 1 
9022 1 
9023 2 
9024 1 
9073 1 
9074 2 
9075 1 
9079 1 
9080 3 
9081 1 
9082 1 
9083 2 
9084 1 
9133 1 
9134 3 
9135 1 
9136 1 
9137 2 
9138 1 
9139 1 
9140 2 
9141 1 
9193 1 
9194 2 
9195 1 
9196 1 
9197 2 
9198 1 
9199 1 
9200 2 
9201 1 
9253 1 
9254 2 
9255 1 
9259 1 
9260 3 
9261 1 
9262 1 
9263 3 
9264 1 
9316 1 
9317 2 
9318 1 
9322 1 
9323 2 
9324 1 
9973 1 
9974 3 
9975 1 
9979 1 
9980 2 
9981 1 
9982 1 
9983 2 
9984 1 
10033 1 
10034 3 
10035 1 
10036 1 
10037 2 
10038 1 
10039 1 
10040 3 
10041 1 
10042 1 
10043 3 
10044 1 
10096 1 
10097 2 
10098 1 
10099 1 
10100 2 
10101 1 
10102 1 
10103 3 
10104 1 
10153 1 
10154 2 
10155 1 
10156 1 
10157 3 
10158 1 
10159 1 
10160 3 
10161 1 
10162 1 
10163 3 
10164 1 
10216 1 
10217 3 
10218 1 
10219 1 
10220 2 
10221 1 
10222 1 
10223 3 
10224 1 
10273 1 
10274 2 
10275 1 
10276 1 
10277 3 
10278 1 
10282 1 
10283 2 
10284 1 
10336 1 
10337 2 
10338 1 
10342 1 
10343 2 
10344 1 
10393 1 
10394 3 
10395 1 
10396 1 
10397 3 
10398 1 
10402 1 
10403 2 
10404 1 
10453 1 
10454 3 
10455 1 
10456 1 
10457 3 
10458 1 
10459 1 
10460 3 
10461 1 
10462 1 
10463 2 
10464 1 
10513 1 
10514 2 
10515 1 
10516 1 
10517 2 
10518 1 
10519 1 
10520 2 
10521 1 
10522 1 
10523 3 
10524 1 
25 1 
26 2 
27 1 
31 1 
32 3 
33 1 
34 1 
35 3 
36 1 
85 1 
86 2 
87 1 
88 1 
89 3 
90 1 
91 1 
92 2 
93 1 
94 1 
95 3 
96 1 
148 1 
149 3 
150 1 
151 1 
152 2 
153 1 
154 1 
155 2 
156 1 
208 1 
209 3 
210 1 
211 1 
212 3 
213 1 
214 1 
215 3 
216 1 
265 1 
266 2 
267 1 
271 1 
272 2 
273 1 
328 1 
329 3 
330 1 
385 1 
386 3 
387 1 
388 1 
389 2 
390 1 
391 1 
392 3 
393 1 
394 1 
395 3 
396 1 
445 1 
446 3 
447 1 
451 1 
452 3 
453 1 
454 1 
455 2 
456 1 
505 1 
506 3 
507 1 
508 1 
509 2 
510 1 
514 1 
515 3 
516 1 
1165 1 
1166 2 
1167 1 
1171 1 
1172 3 
1173 1 
1174 1 
1175 2 
1176 1 
1225 1 
1226 3 
1227 1 
1228 1 
1229 3 
1230 1 
1288 1 
1289 2 
1290 1 
1291 1 
1292 3 
1293 1 
1345 1 
1346 3 
1347 1 
1348 1 
1349 2 
1350 1 
1351 1 
1352 3 
1353 1 
1354 1 
1355 2 
1356 1 
1405 1 
1406 2 
1407 1 
1408 1 
1409 3 
1410 1 
1411 1 
1412 2 
1413 1 
1414 1 
1415 3 
1416 1 
1465 1 
1466 2 
1467 1 
1468 1 
1469 2 
1470 1 
1471 1 
1472 3 
1473 1 
1474 1 
1475 3 
1476 1 
1525 1 
1526 3 
1527 1 
1585 1 
1586 3 
1587 1 
1591 1 
1592 2 
1593 1 
1594 1 
1595 2 
1596 1 
1651 1 
1652 3 
1653 1 
1654 1 
1655 3 
1656 1 
2248 1 
2249 2 
2250 1 
2254 1 
2255 3 
2256 1 
2305 1 
2306 3 
2307 1 
2308 1 
2309 2 
2310 1 
2311 1 
2312 3 
2313 1 
2365 1 
2366 3 
2367 1 
2371 1 
2372 3 
2373 1 
2374 1 
2375 2 
2376 1 
2431 1 
2432 3 
2433 1 
2434 1 
2435 2 
2436 1 
2485 1 
2486 2 
2487 1 
2488 1 
2489 2 
2490 1 
2491 1 
2492 2 
2493 1 
2494 1 
2495 3 
2496 1 
2545 1 
2546 2 
2547 1 
2548 1 
2549 2 
2550 1 
2551 1 
2552 3 
2553 1 
2554 1 
2555 3 
2556 1 
2605 1 
2606 2 
2607 1 
2608 1 
2609 2 
2610 1 
2614 1 
2615 2 
2616 1 
3265 1 
3266 2 
3267 1 
3268 1 
3269 2 
3270 1 
3328 1 
3329 3 
3330 1 
3331 1 
3332 3 
3333 1 
3334 1 
3335 3 
3336 1 
3385 1 
3386 2 
3387 1 
3388 1 
3389 3 
3390 1 
3391 1 
3392 2 
3393 1 
3394 1 
3395 3 
3396 1 
3445 1 
3446 2 
3447 1 
3448 1 
3449 2 
3450 1 
3451 1 
3452 3 
3453 1 
3454 1 
3455 2 
3456 1 
3505 1 
3506 3 
3507 1 
3508 1 
3509 3 
3510 1 
3511 1 
3512 2 
3513 1 
3514 1 
3515 2 
3516 1 
3565 1 
3566 2 
3567 1 
3568 1 
3569 2 
3570 1 
3571 1 
3572 3 
3573 1 
3625 1 
3626 3 
3627 1 
3631 1 
3632 2 
3633 1 
3685 1 
3686 3 
3687 1 
3688 1 
3689 3 
3690 1 
3691 1 
3692 3 
3693 1 
3694 1 
3695 2 
3696 1 
3745 1 
3746 3 
3747 1 
3751 1 
3752 3 
3753 1 
3754 1 
3755 3 
3756 1 
4345 1 
4346 2 
4347 1 
4348 1 
4349 3 
4350 1 
4351 1 
4352 3 
4353 1 
4354 1 
4355 2 
4356 1 
4405 1 
4406 2 
4407 1 
4408 1 
4409 2 
4410 1 
4411 1 
4412 3 
4413 1 
4465 1 
4466 3 
4467 1 
4468 1 
4469 2 
4470 1 
4474 1 
4475 2 
4476 1 
4528 1 
4529 2 
4530 1 
4531 1 
4532 3 
4533 1 
4534 1 
4535 2 
4536 1 
4585 1 
4586 3 
4587 1 
4588 1 
4589 2 
4590 1 
4591 1 
4592 3 
4593 1 
4594 1 
4595 2 
4596 1 
4645 1 
4646 2 
4647 1 
4648 1 
4649 2 
4650 1 
4651 1 
4652 3 
4653 1 
4705 1 
4706 2 
4707 1 
4708 1 
4709 3 
4710 1 
4711 1 
4712 3 
4713 1 
4765 1 
4766 3 
4767 1 
4771 1 
4772 3 
4773 1 
4774 1 
4775 2 
4776 1 
4825 1 
4826 3 
4827 1 
4828 1 
4829 3 
4830 1 
4831 1 
4832 3 
4833 1 
4885 1 
4886 3 
4887 1 
4888 1 
4889 3 
4890 1 
4894 1 
4895 3 
4896 1 
5485 1 
5486 2 
5487 1 
5488 1 
5489 2 
5490 1 
5491 1 
5492 2 
5493 1 
5494 1 
5495 2 
5496 1 
5545 1 
5546 3 
5547 1 
5548 1 
5549 3 
5550 1 
5554 1 
5555 3 
5556 1 
5605 1 
5606 2 
5607 1 
5608 1 
5609 2 
5610 1 
5611 1 
5612 3 
5613 1 
5614 1 
5615 2 
5616 1 
5665 1 
5666 3 
5667 1 
5671 1 
5672 3 
5673 1 
5725 1 
5726 2 
5727 1 
5731 1 
5732 2 
5733 1 
5734 1 
5735 3 
5736 1 
5785 1 
5786 3 
5787 1 
5788 1 
5789 3 
5790 1 
5791 1 
5792 3 
5793 1 
5845 1 
5846 2 
5847 1 
5848 1 
5849 2 
5850 1 
5851 1 
5852 2 
5853 1 
5854 1 
5855 2 
5856 1 
5911 1 
5912 3 
5913 1 
5914 1 
5915 2 
5916 1 
5965 1 
5966 3 
5967 1 
5968 1 
5969 3 
5970 1 
5971 1 
5972 3 
5973 1 
5974 1 
5975 3 
5976 1 
6025 1 
6026 3 
6027 1 
6031 1 
6032 2 
6033 1 
6688 1 
6689 3 
6690 1 
6691 1 
6692 2 
6693 1 
6694 1 
6695 3 
6696 1 
6745 1 
6746 2 
6747 1 
6754 1 
6755 3 
6756 1 
6808 1 
6809 3 
6810 1 
6811 1 
6812 3 
6813 1 
6865 1 
6866 2 
6867 1 
6868 1 
6869 2 
6870 1 
6871 1 
6872 2 
6873 1 
6874 1 
6875 3 
6876 1 
6925 1 
6926 3 
6927 1 
6934 1 
6935 3 
6936 1 
6994 1 
6995 2 
6996 1 
7045 1 
7046 3 
7047 1 
7048 1 
7049 2 
7050 1 
7051 1 
7052 2 
7053 1 
7054 1 
7055 3 
7056 1 
7108 1 
7109 3 
7110 1 
7111 1 
7112 2 
7113 1 
7114 1 
7115 2 
7116 1 
7165 1 
7166 3 
7167 1 
7168 1 
7169 3 
7170 1 
7171 1 
7172 2 
7173 1 
7225 1 
7226 2 
7227 1 
7228 1 
7229 2 
7230 1 
7231 1 
7232 3 
7233 1 
7765 1 
7766 3 
7767 1 
7768 1 
7769 2 
7770 1 
7771 1 
7772 3 
7773 1 
7774 1 
7775 2 
7776 1 
7828 1 
7829 2 
7830 1 
7831 1 
7832 2 
7833 1 
7888 1 
7889 2 
7890 1 
7891 1 
7892 2 
7893 1 
7894 1 
7895 3 
7896 1 
7945 1 
7946 2 
7947 1 
7948 1 
7949 3 
7950 1 
7951 1 
7952 3 
7953 1 
8005 1 
8006 2 
8007 1 
8008 1 
8009 3 
8010 1 
8011 1 
8012 3 
8013 1 
8014 1 
8015 3 
8016 1 
8065 1 
8066 2 
8067 1 
8068 1 
8069 3 
8070 1 
8071 1 
8072 2 
8073 1 
8074 1 
8075 3 
8076 1 
8128 1 
8129 2 
8130 1 
8134 1 
8135 3 
8136 1 
8188 1 
8189 3 
8190 1 
8191 1 
8192 2 
8193 1 
8194 1 
8195 3 
8196 1 
8245 1 
8246 2 
8247 1 
8248 1 
8249 3 
8250 1 
8251 1 
8252 3 
8253 1 
8254 1 
8255 2 
8256 1 
8305 1 
8306 2 
8307 1 
8308 1 
8309 2 
8310 1 
8314 1 
8315 2 
8316 1 
8908 1 
8909 3 
8910 1 
8914 1 
8915 3 
8916 1 
8971 1 
8972 2 
8973 1 
8974 1 
8975 3 
8976 1 
9028 1 
9029 3 
9030 1 
9031 1 
9032 2 
9033 1 
9034 1 
9035 3 
9036 1 
9085 1 
9086 3 
9087 1 
9091 1 
9092 2 
9093 1 
9094 1 
9095 2 
9096 1 
9145 1 
9146 3 
9147 1 
9148 1 
9149 3 
9150 1 
9151 1 
9152 3 
9153 1 
9154 1 
9155 3 
9156 1 
9205 1 
9206 3 
9207 1 
9208 1 
9209 3 
9210 1 
9211 1 
9212 2 
9213 1 
9214 1 
9215 2 
9216 1 
9265 1 
9266 3 
9267 1 
9274 1 
9275 2 
9276 1 
9325 1 
9326 2 
9327 1 
9331 1 
9332 2 
9333 1 
9985 1 
9986 3 
9987 1 
9988 1 
9989 2 
9990 1 
9994 1 
9995 2 
9996 1 
10045 1 
10046 3 
10047 1 
10048 1 
10049 2 
10050 1 
10105 1 
10106 3 
10107 1 
10108 1 
10109 2 
10110 1 
10111 1 
10112 2 
10113 1 
10114 1 
10115 3 
10116 1 
10165 1 
10166 2 
10167 1 
10171 1 
10172 3 
10173 1 
10225 1 
10226 3 
10227 1 
10231 1 
10232 2 
10233 1 
10234 1 
10235 3 
10236 1 
10285 1 
10286 3 
10287 1 
10291 1 
10292 3 
10293 1 
10294 1 
10295 3 
10296 1 
10348 1 
10349 3 
10350 1 
10354 1 
10355 3 
10356 1 
10405 1 
10406 3 
10407 1 
10408 1 
10409 3 
10410 1 
10411 1 
10412 2 
10413 1 
10465 1 
10466 2 
10467 1 
10468 1 
10469 3 
10470 1 
10471 1 
10472 2 
10473 1 
10474 1 
10475 3 
10476 1 
10525 1 
10526 3 
10527 1 
10528 1 
10529 2 
10530 1 
10531 1 
10532 2 
10533 1 
10534 1 
10535 3 
10536 1 
37 1 
38 2 
39 1 
40 1 
41 2 
42 1 
43 1 
44 2 
45 1 
46 1 
47 2 
48 1 
97 1 
98 3 
99 1 
100 1 
101 2 
102 1 
103 1 
104 3 
105 1 
106 1 
107 2 
108 1 
157 1 
158 2 
159 1 
160 1 
161 3 
162 1 
217 1 
218 3 
219 1 
220 1 
221 2 
222 1 
223 1 
224 2 
225 1 
277 1 
278 3 
279 1 
280 1 
281 2 
282 1 
283 1 
284 2 
285 1 
286 1 
287 3 
288 1 
340 1 
341 2 
342 1 
343 1 
344 3 
345 1 
397 1 
398 3 
399 1 
403 1 
404 3 
405 1 
457 1 
458 2 
459 1 
460 1 
461 2 
462 1 
517 1 
518 3 
519 1 
520 1 
521 2 
522 1 
526 1 
527 2 
528 1 
1177 1 
1178 3 
1179 1 
1180 1 
1181 2 
1182 1 
1243 1 
1244 2 
1245 1 
1246 1 
1247 2 
1248 1 
1297 1 
1298 2 
1299 1 
1300 1 
1301 2 
1302 1 
1303 1 
1304 3 
1305 1 
1306 1 
1307 2 
1308 1 
1357 1 
1358 2 
1359 1 
1360 1 
1361 3 
1362 1 
1363 1 
1364 2 
1365 1 
1366 1 
1367 2 
1368 1 
1417 1 
1418 3 
1419 1 
1477 1 
1478 3 
1479 1 
1480 1 
1481 3 
1482 1 
1483 1 
1484 3 
1485 1 
1486 1 
1487 2 
1488 1 
1537 1 
1538 3 
1539 1 
1540 1 
1541 2 
1542 1 
1543 1 
1544 2 
1545 1 
1546 1 
1547 3 
1548 1 
1597 1 
1598 3 
1599 1 
1603 1 
1604 3 
1605 1 
1606 1 
1607 3 
1608 1 
1657 1 
1658 3 
1659 1 
1660 1 
1661 2 
1662 1 
1666 1 
1667 3 
1668 1 
2257 1 
2258 2 
2259 1 
2263 1 
2264 3 
2265 1 
2266 1 
2267 2 
2268 1 
2317 1 
2318 3 
2319 1 
2320 1 
2321 3 
2322 1 
2323 1 
2324 3 
2325 1 
2326 1 
2327 3 
2328 1 
2377 1 
2378 2 
2379 1 
2380 1 
2381 2 
2382 1 
2383 1 
2384 2 
2385 1 
2386 1 
2387 3 
2388 1 
2437 1 
2438 2 
2439 1 
2497 1 
2498 3 
2499 1 
2500 1 
2501 3 
2502 1 
2503 1 
2504 2 
2505 1 
2506 1 
2507 3 
2508 1 
2560 1 
2561 2 
2562 1 
2563 1 
2564 2 
2565 1 
2566 1 
2567 2 
2568 1 
2617 1 
2618 3 
2619 1 
2620 1 
2621 2 
2622 1 
2623 1 
2624 3 
2625 1 
3220 1 
3221 3 
3222 1 
3223 1 
3224 3 
3225 1 
3226 1 
3227 3 
3228 1 
3277 1 
3278 2 
3279 1 
3280 1 
3281 2 
3282 1 
3283 1 
3284 2 
3285 1 
3286 1 
3287 3 
3288 1 
3337 1 
3338 3 
3339 1 
3346 1 
3347 2 
3348 1 
3397 1 
3398 3 
3399 1 
3403 1 
3404 3 
3405 1 
3406 1 
3407 3 
3408 1 
3463 1 
3464 2 
3465 1 
3517 1 
3518 3 
3519 1 
3520 1 
3521 2 
3522 1 
3526 1 
3527 3 
3528 1 
3577 1 
3578 3 
3579 1 
3580 1 
3581 2 
3582 1 
3583 1 
3584 3 
3585 1 
3586 1 
3587 3 
3588 1 
3637 1 
3638 2 
3639 1 
3643 1 
3644 2 
3645 1 
3646 1 
3647 3 
3648 1 
3697 1 
3698 2 
3699 1 
3700 1 
3701 3 
3702 1 
3703 1 
3704 3 
3705 1 
3760 1 
3761 3 
3762 1 
3763 1 
3764 2 
3765 1 
3766 1 
3767 2 
3768 1 
4357 1 
4358 3 
4359 1 
4360 1 
4361 3 
4362 1 
4363 1 
4364 2 
4365 1 
4366 1 
4367 3 
4368 1 
4417 1 
4418 3 
4419 1 
4423 1 
4424 3 
4425 1 
4483 1 
4484 2 
4485 1 
4486 1 
4487 2 
4488 1 
4537 1 
4538 2 
4539 1 
4540 1 
4541 2 
4542 1 
4546 1 
4547 2 
4548 1 
4597 1 
4598 2 
4599 1 
4600 1 
4601 3 
4602 1 
4606 1 
4607 2 
4608 1 
4657 1 
4658 2 
4659 1 
4660 1 
4661 2 
4662 1 
4666 1 
4667 2 
4668 1 
4717 1 
4718 3 
4719 1 
4720 1 
4721 2 
4722 1 
4777 1 
4778 2 
4779 1 
4783 1 
4784 3 
4785 1 
4837 1 
4838 2 
4839 1 
4840 1 
4841 3 
4842 1 
4843 1 
4844 2 
4845 1 
4846 1 
4847 2 
4848 1 
4900 1 
4901 3 
4902 1 
4903 1 
4904 2 
4905 1 
4906 1 
4907 3 
4908 1 
5497 1 
5498 2 
5499 1 
5500 1 
5501 2 
5502 1 
5506 1 
5507 2 
5508 1 
5560 1 
5561 3 
5562 1 
5566 1 
5567 2 
5568 1 
5620 1 
5621 2 
5622 1 
5623 1 
5624 2 
5625 1 
5677 1 
5678 3 
5679 1 
5680 1 
5681 3 
5682 1 
5683 1 
5684 3 
5685 1 
5686 1 
5687 3 
5688 1 
5737 1 
5738 3 
5739 1 
5740 1 
5741 2 
5742 1 
5743 1 
5744 3 
5745 1 
5746 1 
5747 2 
5748 1 
5797 1 
5798 2 
5799 1 
5800 1 
5801 2 
5802 1 
5860 1 
5861 2 
5862 1 
5863 1 
5864 2 
5865 1 
5866 1 
5867 3 
5868 1 
5923 1 
5924 3 
5925 1 
5926 1 
5927 3 
5928 1 
5977 1 
5978 3 
5979 1 
5980 1 
5981 3 
5982 1 
5983 1 
5984 2 
5985 1 
5986 1 
5987 3 
5988 1 
6040 1 
6041 3 
6042 1 
6043 1 
6044 3 
6045 1 
6046 1 
6047 3 
6048 1 
6697 1 
6698 2 
6699 1 
6700 1 
6701 3 
6702 1 
6703 1 
6704 3 
6705 1 
6706 1 
6707 2 
6708 1 
6757 1 
6758 3 
6759 1 
6760 1 
6761 2 
6762 1 
6763 1 
6764 3 
6765 1 
6766 1 
6767 3 
6768 1 
6817 1 
6818 2 
6819 1 
6820 1 
6821 2 
6822 1 
6823 1 
6824 3 
6825 1 
6826 1 
6827 3 
6828 1 
6877 1 
6878 2 
6879 1 
6880 1 
6881 3 
6882 1 
6883 1 
6884 3 
6885 1 
6886 1 
6887 2 
6888 1 
6937 1 
6938 2 
6939 1 
6940 1 
6941 2 
6942 1 
6943 1 
6944 3 
6945 1 
6946 1 
6947 3 
6948 1 
6997 1 
6998 3 
6999 1 
7000 1 
7001 2 
7002 1 
7003 1 
7004 2 
7005 1 
7060 1 
7061 3 
7062 1 
7063 1 
7064 2 
7065 1 
7066 1 
7067 3 
7068 1 
7120 1 
7121 2 
7122 1 
7126 1 
7127 3 
7128 1 
7180 1 
7181 2 
7182 1 
7183 1 
7184 3 
7185 1 
7186 1 
7187 2 
7188 1 
7237 1 
7238 2 
7239 1 
7240 1 
7241 3 
7242 1 
7777 1 
7778 3 
7779 1 
7780 1 
7781 3 
7782 1 
7786 1 
7787 2 
7788 1 
7837 1 
7838 3 
7839 1 
7840 1 
7841 2 
7842 1 
7843 1 
7844 3 
7845 1 
7846 1 
7847 2 
7848 1 
7897 1 
7898 3 
7899 1 
7900 1 
7901 3 
7902 1 
7906 1 
7907 3 
7908 1 
7957 1 
7958 3 
7959 1 
7960 1 
7961 3 
7962 1 
7963 1 
7964 3 
7965 1 
7966 1 
7967 2 
7968 1 
8017 1 
8018 2 
8019 1 
8020 1 
8021 2 
8022 1 
8023 1 
8024 2 
8025 1 
8026 1 
8027 3 
8028 1 
8077 1 
8078 3 
8079 1 
8080 1 
8081 3 
8082 1 
8083 1 
8084 2 
8085 1 
8137 1 
8138 2 
8139 1 
8140 1 
8141 3 
8142 1 
8197 1 
8198 2 
8199 1 
8203 1 
8204 3 
8205 1 
8206 1 
8207 3 
8208 1 
8257 1 
8258 3 
8259 1 
8260 1 
8261 3 
8262 1 
8263 1 
8264 2 
8265 1 
8266 1 
8267 3 
8268 1 
8317 1 
8318 2 
8319 1 
8320 1 
8321 3 
8322 1 
8326 1 
8327 2 
8328 1 
8917 1 
8918 3 
8919 1 
8920 1 
8921 3 
8922 1 
8926 1 
8927 2 
8928 1 
8977 1 
8978 3 
8979 1 
8983 1 
8984 3 
8985 1 
8986 1 
8987 3 
8988 1 
9037 1 
9038 3 
9039 1 
9043 1 
9044 2 
9045 1 
9046 1 
9047 3 
9048 1 
9100 1 
9101 3 
9102 1 
9106 1 
9107 2 
9108 1 
9157 1 
9158 2 
9159 1 
9160 1 
9161 2 
9162 1 
9163 1 
9164 3 
9165 1 
9166 1 
9167 2 
9168 1 
9220 1 
9221 3 
9222 1 
9277 1 
9278 2 
9279 1 
9337 1 
9338 3 
9339 1 
9340 1 
9341 3 
9342 1 
9343 1 
9344 2 
9345 1 
9346 1 
9347 3 
9348 1 
9997 1 
9998 2 
9999 1 
10000 1 
10001 3 
10002 1 
10003 1 
10004 3 
10005 1 
10057 1 
10058 2 
10059 1 
10060 1 
10061 2 
10062 1 
10066 1 
10067 3 
10068 1 
10117 1 
10118 2 
10119 1 
10120 1 
10121 3 
10122 1 
10123 1 
10124 3 
10125 1 
10126 1 
10127 3 
10128 1 
10237 1 
10238 2 
10239 1 
10246 1 
10247 2 
10248 1 
10300 1 
10301 3 
10302 1 
10303 1 
10304 2 
10305 1 
10306 1 
10307 2 
10308 1 
10357 1 
10358 2 
10359 1 
10360 1 
10361 3 
10362 1 
10420 1 
10421 2 
10422 1 
10423 1 
10424 3 
10425 1 
10426 1 
10427 2 
10428 1 
10477 1 
10478 2 
10479 1 
10480 1 
10481 2 
10482 1 
10537 1 
10538 2 
10539 1 
10540 1 
10541 3 
10542 1 
10543 1 
10544 2 
10545 1 
10546 1 
10547 2 
10548 1 
49 1 
50 3 
51 1 
52 1 
53 2 
54 1 
55 1 
56 2 
57 1 
58 1 
59 3 
60 1 
109 1 
110 3 
111 1 
112 1 
113 3 
114 1 
169 1 
170 3 
171 1 
172 1 
173 3 
174 1 
178 1 
179 2 
180 1 
229 1 
230 2 
231 1 
232 1 
233 2 
234 1 
235 1 
236 2 
237 1 
238 1 
239 3 
240 1 
289 1 
290 3 
291 1 
292 1 
293 3 
294 1 
295 1 
296 2 
297 1 
298 1 
299 3 
300 1 
349 1 
350 3 
351 1 
352 1 
353 3 
354 1 
355 1 
356 2 
357 1 
358 1 
359 3 
360 1 
409 1 
410 2 
411 1 
412 1 
413 2 
414 1 
415 1 
416 3 
417 1 
418 1 
419 2 
420 1 
469 1 
470 2 
471 1 
472 1 
473 3 
474 1 
475 1 
476 3 
477 1 
529 1 
530 3 
531 1 
532 1 
533 3 
534 1 
535 1 
536 3 
537 1 
538 1 
539 3 
540 1 
1189 1 
1190 3 
1191 1 
1192 1 
1193 3 
1194 1 
1195 1 
1196 3 
1197 1 
1198 1 
1199 2 
1200 1 
1249 1 
1250 2 
1251 1 
1252 1 
1253 2 
1254 1 
1255 1 
1256 2 
1257 1 
1258 1 
1259 2 
1260 1 
1309 1 
1310 3 
1311 1 
1312 1 
1313 2 
1314 1 
1315 1 
1316 2 
1317 1 
1369 1 
1370 3 
1371 1 
1375 1 
1376 2 
1377 1 
1378 1 
1379 3 
1380 1 
1429 1 
1430 3 
1431 1 
1435 1 
1436 3 
1437 1 
1438 1 
1439 2 
1440 1 
1489 1 
1490 2 
1491 1 
1492 1 
1493 2 
1494 1 
1495 1 
1496 2 
1497 1 
1498 1 
1499 3 
1500 1 
1549 1 
1550 3 
1551 1 
1552 1 
1553 3 
1554 1 
1555 1 
1556 3 
1557 1 
1558 1 
1559 3 
1560 1 
1609 1 
1610 2 
1611 1 
1612 1 
1613 3 
1614 1 
1615 1 
1616 3 
1617 1 
1669 1 
1670 2 
1671 1 
1672 1 
1673 3 
1674 1 
1678 1 
1679 2 
1680 1 
2269 1 
2270 3 
2271 1 
2275 1 
2276 2 
2277 1 
2389 1 
2390 2 
2391 1 
2392 1 
2393 3 
2394 1 
2395 1 
2396 2 
2397 1 
2449 1 
2450 2 
2451 1 
2455 1 
2456 3 
2457 1 
2458 1 
2459 2 
2460 1 
2509 1 
2510 3 
2511 1 
2515 1 
2516 2 
2517 1 
2518 1 
2519 3 
2520 1 
2569 1 
2570 3 
2571 1 
2575 1 
2576 2 
2577 1 
2578 1 
2579 3 
2580 1 
2629 1 
2630 2 
2631 1 
2632 1 
2633 3 
2634 1 
2635 1 
2636 2 
2637 1 
2638 1 
2639 2 
2640 1 
3235 1 
3236 3 
3237 1 
3292 1 
3293 3 
3294 1 
3298 1 
3299 3 
3300 1 
3349 1 
3350 2 
3351 1 
3352 1 
3353 3 
3354 1 
3355 1 
3356 2 
3357 1 
3358 1 
3359 2 
3360 1 
3409 1 
3410 2 
3411 1 
3412 1 
3413 2 
3414 1 
3415 1 
3416 3 
3417 1 
3469 1 
3470 3 
3471 1 
3472 1 
3473 3 
3474 1 
3475 1 
3476 2 
3477 1 
3478 1 
3479 3 
3480 1 
3529 1 
3530 3 
3531 1 
3532 1 
3533 3 
3534 1 
3535 1 
3536 3 
3537 1 
3589 1 
3590 2 
3591 1 
3592 1 
3593 2 
3594 1 
3595 1 
3596 3 
3597 1 
3649 1 
3650 2 
3651 1 
3652 1 
3653 3 
3654 1 
3655 1 
3656 2 
3657 1 
3709 1 
3710 2 
3711 1 
3715 1 
3716 2 
3717 1 
3718 1 
3719 2 
3720 1 
3769 1 
3770 2 
3771 1 
3772 1 
3773 3 
3774 1 
3775 1 
3776 2 
3777 1 
3778 1 
3779 3 
3780 1 
4369 1 
4370 2 
4371 1 
4378 1 
4379 2 
4380 1 
4432 1 
4433 2 
4434 1 
4435 1 
4436 3 
4437 1 
4438 1 
4439 3 
4440 1 
4489 1 
4490 3 
4491 1 
4492 1 
4493 2 
4494 1 
4549 1 
4550 2 
4551 1 
4552 1 
4553 3 
4554 1 
4558 1 
4559 3 
4560 1 
4609 1 
4610 2 
4611 1 
4612 1 
4613 3 
4614 1 
4615 1 
4616 3 
4617 1 
4669 1 
4670 2 
4671 1 
4672 1 
4673 2 
4674 1 
4675 1 
4676 2 
4677 1 
4678 1 
4679 3 
4680 1 
4729 1 
4730 2 
4731 1 
4732 1 
4733 3 
4734 1 
4738 1 
4739 3 
4740 1 
4789 1 
4790 2 
4791 1 
4795 1 
4796 3 
4797 1 
4852 1 
4853 2 
4854 1 
4855 1 
4856 3 
4857 1 
4858 1 
4859 3 
4860 1 
4918 1 
4919 3 
4920 1 
5509 1 
5510 3 
5511 1 
5512 1 
5513 3 
5514 1 
5515 1 
5516 2 
5517 1 
5518 1 
5519 3 
5520 1 
5575 1 
5576 3 
5577 1 
5632 1 
5633 3 
5634 1 
5635 1 
5636 2 
5637 1 
5638 1 
5639 2 
5640 1 
5692 1 
5693 2 
5694 1 
5695 1 
5696 2 
5697 1 
5698 1 
5699 3 
5700 1 
5755 1 
5756 3 
5757 1 
5758 1 
5759 3 
5760 1 
5809 1 
5810 2 
5811 1 
5869 1 
5870 2 
5871 1 
5872 1 
5873 2 
5874 1 
5875 1 
5876 2 
5877 1 
5878 1 
5879 3 
5880 1 
5932 1 
5933 3 
5934 1 
5938 1 
5939 2 
5940 1 
5995 1 
5996 3 
5997 1 
5998 1 
5999 3 
6000 1 
6049 1 
6050 2 
6051 1 
6058 1 
6059 2 
6060 1 
6712 1 
6713 2 
6714 1 
6718 1 
6719 3 
6720 1 
6769 1 
6770 3 
6771 1 
6772 1 
6773 2 
6774 1 
6775 1 
6776 2 