LAMMPS data file via write_data, version 7 Aug 2019, timestep = 20000000

477 atoms
3 atom types
424 bonds
3 bond types
371 angles
3 angle types

0.0000000000000000e+00 5.0000000000000000e+01 xlo xhi
0.0000000000000000e+00 5.0000000000000000e+01 ylo yhi
0.0000000000000000e+00 5.0000000000000000e+01 zlo zhi

Masses

1 0.25
2 0.5
3 0.5

Bond Coeffs # harmonic

1 6000 0.15
2 2000 0.4
3 2000 0.4

Angle Coeffs # harmonic

1 100 180
2 50 180
3 50 180

Atoms # angle

3126 1 1 3.0995012348800426e+01 1.3726062207793364e+01 4.0908502728808529e+01
19457 3 3 3.3025377767909511e+01 1.3832775140204557e+01 4.0526717516408283e+01
19456 1 1 3.3390727589302088e+01 1.3820173603076618e+01 4.0780666878342707e+01
16927 1 1 3.0726860936242431e+01 1.5404117086534987e+01 4.0892047817582878e+01
14821 1 1 3.1349166510617508e+01 1.5410471915631881e+01 4.0098204132743270e+01
3125 3 3 3.0937850167739960e+01 1.4135591198655208e+01 4.0880496629673317e+01
19458 1 1 3.2791661016978289e+01 1.3956761880387949e+01 4.0245491432441462e+01
10366 1 1 3.2720253729102147e+01 1.3965509704105717e+01 4.0145926387795107e+01
13257 1 1 3.2934424036119815e+01 1.4688034209625707e+01 4.0736334585371182e+01
10368 1 1 3.2228654150393595e+01 1.4020658025605865e+01 3.9546077900783558e+01
10367 3 3 3.2467474924256678e+01 1.3981711292742713e+01 3.9863300564335624e+01
14822 3 3 3.1032637274830211e+01 1.5514383427349088e+01 3.9875415626730145e+01
14823 1 1 3.0741685534054973e+01 1.5693960886735303e+01 3.9675781093351780e+01
6126 1 1 3.0012648187536985e+01 1.6193305550758527e+01 4.0853597097619996e+01
12435 1 1 3.1517934369742107e+01 1.5731769575923188e+01 4.0823684093344852e+01
6253 1 1 3.3844828180781001e+01 1.5603706205749139e+01 4.0738340981689099e+01
13773 1 1 2.7703269235671403e+01 1.2272017273079948e+01 4.2397122584674982e+01
10606 1 1 2.9902487653792893e+01 1.3523617490243385e+01 4.1383104279075901e+01
6711 1 1 3.1016234763830088e+01 1.3667916320781506e+01 4.2121443930520265e+01
6709 1 1 3.0458078413312133e+01 1.3164789244135358e+01 4.1875715204078588e+01
6710 3 3 3.0719008435065437e+01 1.3406140029004913e+01 4.2017130730214618e+01
563 3 3 3.2127334141145937e+01 1.3627522883334613e+01 4.1339545200441208e+01
564 1 1 3.2059431541993803e+01 1.3274509574395582e+01 4.1115698319103203e+01
5631 1 1 2.8067273133809483e+01 1.4472563108445543e+01 4.1296542779111711e+01
3438 1 1 2.7675438240674033e+01 1.4196723892413576e+01 4.1711166641085697e+01
3437 2 2 2.7502109742070797e+01 1.4120967735074235e+01 4.2105464102824612e+01
10608 1 1 2.9757068140865510e+01 1.4418134733901368e+01 4.1303337387015723e+01
5630 3 3 2.8396149199880465e+01 1.4365185319123068e+01 4.1511726830188124e+01
5629 1 1 2.8672580121643048e+01 1.4255959273388751e+01 4.1772943751642515e+01
18019 1 1 2.8783325406901429e+01 1.4207768920628162e+01 4.1885240963866252e+01
18020 3 3 2.9033806491897501e+01 1.4090675926939278e+01 4.2172192963619601e+01
18021 1 1 2.9331876666045201e+01 1.3953643240919661e+01 4.2404678776501498e+01
12793 1 1 2.8729046131426092e+01 1.5126628275827445e+01 4.2428293565441017e+01
12795 1 1 2.9315868428595866e+01 1.5125805750351244e+01 4.1928708001324360e+01
12794 3 3 2.9009241386969340e+01 1.5140666391226075e+01 4.2156296757856900e+01
16928 3 3 3.0701073887631093e+01 1.4995674387291942e+01 4.0973381395733725e+01
10607 3 3 2.9857492376809667e+01 1.3990848052556325e+01 4.1372522100233155e+01
3124 1 1 3.0780972791649969e+01 1.4502557791353885e+01 4.0943763370179155e+01
16929 1 1 3.0749661440814023e+01 1.4652113094459587e+01 4.0937437479231264e+01
13418 3 3 2.9982999251333659e+01 1.5137207133579931e+01 4.1714177656794334e+01
13419 1 1 2.9929825792791789e+01 1.5442666392809135e+01 4.1497131905259934e+01
13417 1 1 3.0091076729098766e+01 1.4804538075073591e+01 4.1935734202354944e+01
18372 1 1 3.0129534976773229e+01 1.4676896323270293e+01 4.2018056476428164e+01
18371 3 3 3.0266844168812813e+01 1.4380506052488220e+01 4.2242348513917356e+01
3219 1 1 3.1416326814664817e+01 1.4820562418871623e+01 4.1698972315216047e+01
9406 1 1 3.1325224717341204e+01 1.4878104921713744e+01 4.1789594105392119e+01
9407 3 3 3.1051004036208848e+01 1.5050605431165362e+01 4.2023985600321353e+01
9408 1 1 3.0712435535892748e+01 1.5192354512871288e+01 4.2265027039695937e+01
13256 3 3 3.2529670261911441e+01 1.4645316130397687e+01 4.0948695761447041e+01
1744 1 1 3.2393875057382715e+01 1.5497739434548016e+01 4.1294772076808833e+01
3218 3 3 3.1707829144214298e+01 1.4676480066797303e+01 4.1454051191473347e+01
3217 1 1 3.2049115989225150e+01 1.4689864180501131e+01 4.1207565984232232e+01
13255 1 1 3.2173051104497219e+01 1.4694896088568077e+01 4.1122071965823928e+01
562 1 1 3.2135086147713317e+01 1.4013988571124116e+01 4.1503693374013324e+01
17612 3 3 3.2145498658810162e+01 1.5260681741965534e+01 4.2188104466563068e+01
17611 1 1 3.2294504982580307e+01 1.5260434738721930e+01 4.1804154295422450e+01
14740 1 1 3.2831598282291012e+01 1.4257528753382976e+01 4.2267621325698322e+01
14741 3 3 3.2831327359689801e+01 1.4408218388276785e+01 4.1909980328558298e+01
17518 1 1 3.2856250814976825e+01 1.4179273354934796e+01 4.2398033947829262e+01
14742 1 1 3.2775866282441889e+01 1.4637448704044781e+01 4.1596302468577449e+01
6124 1 1 2.9929481385390432e+01 1.5564470577265169e+01 4.1380451140656540e+01
6125 3 3 2.9925024342588220e+01 1.5849140957751448e+01 4.1089763532526106e+01
15851 3 3 3.0429621673989427e+01 1.6135535201738126e+01 4.2194491221069690e+01
15852 1 1 3.0715542393424499e+01 1.6323072938663966e+01 4.1987883110975268e+01
7936 1 1 3.0824297849038938e+01 1.6376352027082628e+01 4.1922932594218388e+01
7938 1 1 3.1226030516576834e+01 1.6832360342985648e+01 4.1374297350012149e+01
7937 3 3 3.1025932415991576e+01 1.6572530710864473e+01 4.1616627166159461e+01
1745 3 3 3.2749926560858995e+01 1.5642618958291067e+01 4.1157367928773837e+01
12433 1 1 3.1860071548051806e+01 1.5729439247202125e+01 4.1516179184770408e+01
1746 1 1 3.3095859236702111e+01 1.5857847115405628e+01 4.1128578811149495e+01
12434 3 3 3.1650261009156722e+01 1.5729833415739815e+01 4.1201970479306929e+01
15173 3 3 3.2280140837759184e+01 1.6319556784571791e+01 4.1922733304156672e+01
15174 1 1 3.2012460604910771e+01 1.6283571807073240e+01 4.2248739801784396e+01
6912 1 1 3.1922495194854687e+01 1.6265625224415121e+01 4.2341647082364382e+01
15172 1 1 3.2565003269912353e+01 1.6364788000637233e+01 4.1648062630846006e+01
7861 1 1 3.2883290772925612e+01 1.7037772119715552e+01 4.1657893839727684e+01
4429 1 1 3.2964628286514355e+01 1.6894667655726185e+01 4.1604906816568224e+01
2232 1 1 3.3529101121157431e+01 1.5688029217141137e+01 4.2187251404791937e+01
6255 1 1 3.3604351304331935e+01 1.6195228547986218e+01 4.1281124271151249e+01
4431 1 1 3.3514213419021374e+01 1.6293849155216623e+01 4.1340514122252259e+01
6254 3 3 3.3753664863537026e+01 1.5901052283331810e+01 4.1059690277315262e+01
4430 3 3 3.3230757867183286e+01 1.6593475432659790e+01 4.1473167374852167e+01
10852 1 1 3.3467933373563234e+01 1.6471690151233247e+01 4.2303566268380266e+01
7862 3 3 3.2702479434733569e+01 1.7368710372733144e+01 4.1731160185003915e+01
7863 1 1 3.2439243514494187e+01 1.7600191068016446e+01 4.1870045371745448e+01
3096 1 1 3.2317446787708597e+01 1.7649484914606369e+01 4.1953518628555486e+01
3094 1 1 3.1784274773127326e+01 1.8047240622072927e+01 4.2358931180941404e+01
3095 3 3 3.2039521844931905e+01 1.7872717700866787e+01 4.2166981803072161e+01
2867 3 3 3.3583861217014274e+01 1.8214943842274103e+01 4.2086291408936773e+01
2866 1 1 3.3227224163609080e+01 1.8466496435901451e+01 4.2176071235908729e+01
2868 1 1 3.3907599714192166e+01 1.8090266600254957e+01 4.1893866542143677e+01
20452 1 1 3.5279091086728982e+01 1.7674768978529098e+01 4.2062540439476017e+01
20453 3 3 3.5036685295438204e+01 1.7685595652866095e+01 4.2399557647762151e+01
17299 1 1 2.8302739155955095e+01 1.2098369992812687e+01 4.2550297362522706e+01
17300 2 2 2.8655994361620365e+01 1.2317015137055666e+01 4.2633394138970438e+01
13772 2 2 2.7686574500561566e+01 1.2611940569584892e+01 4.2563648793357032e+01
13771 1 1 2.7699274409142269e+01 1.2887390062627714e+01 4.2853607186538746e+01
19366 1 1 2.7710874544592173e+01 1.3021719413209187e+01 4.2962861317190161e+01
19367 2 2 2.7728031814972564e+01 1.3278531342295842e+01 4.3276190280466004e+01
19368 1 1 2.7773026586004811e+01 1.3511179789302123e+01 4.3532280003842665e+01
14508 1 1 2.7809418172770844e+01 1.3618746990295000e+01 4.3653309697888950e+01
14507 3 3 2.7857154596164570e+01 1.3909551528979470e+01 4.3934479965194058e+01
17301 1 1 2.8973140288881137e+01 1.2514483862361944e+01 4.2693722301117759e+01
8530 1 1 2.9124226742251185e+01 1.2603747171720959e+01 4.2692209441524945e+01
8531 3 3 2.9425037338764206e+01 1.2836620323990330e+01 4.2761021692166445e+01
8532 1 1 2.9695340243869577e+01 1.3111291702572469e+01 4.2859900843348974e+01
10637 3 3 3.0030560730781477e+01 1.3569328561174657e+01 4.2867785193395903e+01
10636 1 1 3.0210074950309117e+01 1.3933809535338700e+01 4.2795655619484769e+01
10638 1 1 2.9793818663945107e+01 1.3216449151230568e+01 4.2896669386131421e+01
14378 3 3 3.0934810611732551e+01 1.3651416796917633e+01 4.3456134680161007e+01
14377 1 1 3.0651318389581299e+01 1.3370276785915744e+01 4.3473502757661770e+01
19668 1 1 3.1778534851442128e+01 1.3721187734462058e+01 4.2737953225608969e+01
1842 1 1 3.1745794559911005e+01 1.2790726249165013e+01 4.2571315304055148e+01
1840 1 1 3.1787062230182300e+01 1.3574687328524815e+01 4.2709467411610433e+01
1841 3 3 3.1770202162811461e+01 1.3178502177554975e+01 4.2633635067834319e+01
15689 3 3 3.3356347881741755e+01 1.3835355789793939e+01 4.3584658711200774e+01
15688 1 1 3.3244991798776574e+01 1.3810647505798103e+01 4.3196725829147759e+01
17520 1 1 3.3197425863948787e+01 1.3846278463940903e+01 4.3063748802299870e+01
14050 1 1 3.4330926144582691e+01 1.3838189679767622e+01 4.3769097812609289e+01
4372 1 1 2.7432222173797754e+01 1.4134945016103154e+01 4.2689225515378467e+01
3436 1 1 2.7444325066401174e+01 1.4130131356413719e+01 4.2522014409613249e+01
4373 3 3 2.7377621876190794e+01 1.4245600454978156e+01 4.3058546581729885e+01
4374 1 1 2.7343030378529651e+01 1.4440154700925346e+01 4.3385003202408633e+01
2362 1 1 2.7355969150706116e+01 1.4533331162941765e+01 4.3521985632220918e+01
2363 3 3 2.7367741361423203e+01 1.4811991520302417e+01 4.3803580296922092e+01
17722 1 1 2.8656685956882395e+01 1.5108195561164823e+01 4.2564024970038268e+01
14107 1 1 2.8392047530215539e+01 1.4043131320695048e+01 4.2812367245644069e+01
14108 3 3 2.8585446258975345e+01 1.4064817919882676e+01 4.3179352187244405e+01
14874 1 1 2.8932756564057474e+01 1.3964837797405078e+01 4.3656292709547394e+01
14109 1 1 2.8834266147836288e+01 1.3987422527450141e+01 4.3527366211875808e+01
18344 3 3 2.9557457043425281e+01 1.4777540497303628e+01 4.3211335588541203e+01
18343 1 1 2.9502806643487084e+01 1.4420400486938863e+01 4.3403036334081662e+01
18345 1 1 2.9669880911558291e+01 1.5099541483646767e+01 4.3030878794806434e+01
13546 1 1 2.9727699514539243e+01 1.5210973866905448e+01 4.2975431111128600e+01
7105 1 1 2.8418366358414229e+01 1.4975912664166700e+01 4.3464265227821869e+01
17724 1 1 2.8434349309567036e+01 1.4968305751816089e+01 4.3318194787201250e+01
17723 3 3 2.8525433966120431e+01 1.5028468997954324e+01 4.2884572832859362e+01
7106 3 3 2.8420352540975063e+01 1.4993297107300936e+01 4.3845240749962123e+01
9744 1 1 2.9106544030358904e+01 1.5431624844307338e+01 4.3827604038111680e+01
18370 1 1 3.0475933515998310e+01 1.4277151914453347e+01 4.2572210926236799e+01
606 1 1 3.0940652785885135e+01 1.4608639387159995e+01 4.3903153520895799e+01
605 3 3 3.1165771503724955e+01 1.4786541399262864e+01 4.3664765460659730e+01
604 1 1 3.1379508148751256e+01 1.4944940672489633e+01 4.3341540160551737e+01
14379 1 1 3.1199381771262765e+01 1.3958892994943017e+01 4.3303587357124108e+01
17613 1 1 3.1989501197653691e+01 1.5202487086426890e+01 4.2485425984942772e+01
20536 1 1 3.1911823878456861e+01 1.5186272856884315e+01 4.2616798685841324e+01
20537 3 3 3.1711923896233849e+01 1.5149626580046819e+01 4.2940947804445159e+01
19667 3 3 3.1705048417602079e+01 1.4113436760322562e+01 4.2820643704797668e+01
20538 1 1 3.1456876760254136e+01 1.4995149103604330e+01 4.3240145361040021e+01
8853 1 1 3.2730107177688225e+01 1.5149406442981387e+01 4.3017412388966527e+01
19666 1 1 3.1742607673153106e+01 1.4517148865977409e+01 4.2900648276405349e+01
8852 3 3 3.2577360760604961e+01 1.4875576568305432e+01 4.3276183745620003e+01
19194 1 1 3.2287452388318208e+01 1.4530197734096221e+01 4.3609194971596068e+01
8851 1 1 3.2357772471985825e+01 1.4638969769929632e+01 4.3523880421087583e+01
19193 3 3 3.2096832387391714e+01 1.4288157406846453e+01 4.3827145373374833e+01
17519 3 3 3.3032571120592657e+01 1.3995383038549045e+01 4.2727877514507668e+01
10672 1 1 2.8034678888385887e+01 1.5862931851254876e+01 4.3757469601715222e+01
15289 1 1 2.6479272395183553e+01 1.5930739225133079e+01 4.3388974235594183e+01
15290 3 3 2.6601319467266816e+01 1.5965783466381756e+01 4.3745068737454694e+01
10673 3 3 2.8137344352742563e+01 1.6262793185213017e+01 4.3750262054991104e+01
10674 1 1 2.8289548607050719e+01 1.6669898829902504e+01 4.3821575555769599e+01
21390 1 1 2.8321275846020583e+01 1.6803592461529504e+01 4.3844001779584282e+01
9742 1 1 2.9312253150893625e+01 1.5950257296905370e+01 4.3307821785976834e+01
9743 3 3 2.9200218662523501e+01 1.5731538497102374e+01 4.3538874223504543e+01
18033 1 1 2.9651922384482745e+01 1.6982352564762273e+01 4.3616846871906354e+01
2164 1 1 2.9717136363494969e+01 1.6896585242865680e+01 4.3736681848897213e+01
13548 1 1 3.0110478927689254e+01 1.5802433592150438e+01 4.2573499056814690e+01
15850 1 1 3.0191621790919637e+01 1.5885672932015140e+01 4.2466210711611076e+01
13547 3 3 2.9910799555820070e+01 1.5515507436254412e+01 4.2796775975988112e+01
12421 1 1 3.0549512860058663e+01 1.5705631344148152e+01 4.3548921167218211e+01
12422 3 3 3.0261474710356474e+01 1.5605443355095925e+01 4.3800766159139812e+01
1296 1 1 3.0688145074540714e+01 1.5756209474288077e+01 4.3452683766351313e+01
1295 3 3 3.0975619775035039e+01 1.5910169857155545e+01 4.3232170296117275e+01
1294 1 1 3.1224498485845039e+01 1.6080945944393225e+01 4.2963150811574650e+01
6910 1 1 3.1329190574509528e+01 1.6127953877153480e+01 4.2858119968859732e+01
441 1 1 3.2725764764886073e+01 1.6956094239642212e+01 4.2626779896699126e+01
10854 1 1 3.2849231513388688e+01 1.6898867628046677e+01 4.2571588957669960e+01
6911 3 3 3.1617629637506958e+01 1.6181673691259931e+01 4.2600934797673993e+01
2230 1 1 3.3038214323481604e+01 1.5792571736322524e+01 4.2804403789909372e+01
163 1 1 3.2894751325670967e+01 1.5803578850965790e+01 4.2889168348014159e+01
164 3 3 3.2568189981211333e+01 1.5836555718903051e+01 4.3109276488502971e+01
10849 1 1 3.2160294102165608e+01 1.5894421722993544e+01 4.3490675138433360e+01
165 1 1 3.2263869108418007e+01 1.5875207558604473e+01 4.3361700060668511e+01
10850 3 3 3.1923367549340863e+01 1.5968932087217540e+01 4.3805060116191214e+01
2231 3 3 3.3325513501290089e+01 1.5721882721108688e+01 4.2508015969242862e+01
6552 1 1 3.4685582796085640e+01 1.5718871041691722e+01 4.2614156265350502e+01
10853 3 3 3.3153549166966855e+01 1.6705894745962976e+01 4.2464540717688870e+01
15262 1 1 3.3815530527541689e+01 1.6178850492348367e+01 4.3026224138555243e+01
15263 3 3 3.3568177663625313e+01 1.6379311481299233e+01 4.3273812501307994e+01
15264 1 1 3.3287656110268387e+01 1.6626014068222272e+01 4.3428278797540848e+01
6924 1 1 3.3215677327794602e+01 1.6741491830985034e+01 4.3467965998146440e+01
6550 1 1 3.4316911373793964e+01 1.6103697516224837e+01 4.3211008603162455e+01
6551 3 3 3.4543911785285665e+01 1.5853597681120247e+01 4.2915511631146742e+01
13578 1 1 3.5806929932071590e+01 1.6669090593551221e+01 4.3309683554095500e+01
13577 2 2 3.5534390276439012e+01 1.6558253190022782e+01 4.3569826017185200e+01
16206 1 1 3.5088921421537414e+01 1.6432507895417821e+01 4.3872583500824348e+01
13576 1 1 3.5219133923941065e+01 1.6465788715759807e+01 4.3802525032604763e+01
21389 3 3 2.8525299563243259e+01 1.7141642819400023e+01 4.3863578246815067e+01
21388 1 1 2.8718485853214361e+01 1.7520474449548804e+01 4.3915297214818338e+01
18032 3 3 2.9549404925319212e+01 1.7211550397623139e+01 4.3383252911620382e+01
10321 1 1 2.8973849564097581e+01 1.8186480186179029e+01 4.3345628610428065e+01
10322 3 3 2.9057942454514009e+01 1.8048338022314415e+01 4.3711692658361486e+01
18031 1 1 2.9467339162438158e+01 1.7537951930258377e+01 4.3133651302675588e+01
3713 3 3 3.0022951109800594e+01 1.8407010044564242e+01 4.3334427369977547e+01
3712 1 1 3.0203526954069368e+01 1.8057737432807158e+01 4.3443390967520848e+01
15715 1 1 3.0252660713727980e+01 1.7982966681708938e+01 4.3469961701007527e+01
18015 1 1 3.0778198182266873e+01 1.7285841145368767e+01 4.3856026912665982e+01
15717 1 1 3.0688324813904480e+01 1.7363360327149667e+01 4.3788031567645262e+01
15716 3 3 3.0461547923555262e+01 1.7621195653404911e+01 4.3633123807903154e+01
1008 1 1 3.1116801962914238e+01 1.7081074077547722e+01 4.2954807713041070e+01
11866 1 1 3.1197567541911699e+01 1.8320054733571830e+01 4.3859403111628239e+01
6447 1 1 3.1201087042498909e+01 1.8568451098254123e+01 4.2901510599625936e+01
6445 1 1 3.1693124813133856e+01 1.8138005196648876e+01 4.2428999596386632e+01
8 3 3 3.2297998521380521e+01 1.7579506407239133e+01 4.3742672595971129e+01
7 1 1 3.2614342596249195e+01 1.7366068297975030e+01 4.3705240303160501e+01
6923 3 3 3.3014383004920468e+01 1.7059000321678461e+01 4.3580097332028906e+01
6922 1 1 3.2709659467343322e+01 1.7286402629085092e+01 4.3686297293760717e+01
11868 1 1 3.1881977078402038e+01 1.7933997002260078e+01 4.3767387419812152e+01
9 1 1 3.1979549713170869e+01 1.7860891935702409e+01 4.3767170837482432e+01
1007 3 3 3.1499818853389701e+01 1.7203750555912677e+01 4.2887916998814042e+01
1006 1 1 3.1910922583910580e+01 1.7193026880810805e+01 4.2823431477540197e+01
439 1 1 3.2058383162035078e+01 1.7181350148579735e+01 4.2816908850887806e+01
440 3 3 3.2428609055802696e+01 1.7087288365977965e+01 4.2745733950964059e+01
11867 3 3 3.1552588782257928e+01 1.8112905410090118e+01 4.3756420033558790e+01
6446 3 3 3.1461715558193369e+01 1.8338437818646486e+01 4.2716878214873596e+01
10962 1 1 3.4749117737990552e+01 1.8527100602834377e+01 4.3690841977690788e+01
16818 1 1 3.4654137688877725e+01 1.7682121888120289e+01 4.2776550671177404e+01
20454 1 1 3.4772397026739348e+01 1.7668501972445661e+01 4.2673044014048614e+01
16817 3 3 3.4377960433720610e+01 1.7692994972414759e+01 4.3037360197659318e+01
16816 1 1 3.4107529844831070e+01 1.7753051716592797e+01 4.3339273923390699e+01
16861 1 1 3.4005722786568448e+01 1.7827727246750367e+01 4.3457718274442016e+01
16862 3 3 3.3766576670872887e+01 1.7970835818389347e+01 4.3754953814312564e+01
10961 3 3 3.5037989847743830e+01 1.8414755590208550e+01 4.3436456260414396e+01
10960 1 1 3.5344646523831663e+01 1.8292137147110896e+01 4.3250478330393186e+01
3714 1 1 2.9802365588759631e+01 1.8735551260700390e+01 4.3280756552969507e+01
14873 3 3 2.9116993104370003e+01 1.3926830949730459e+01 4.4011546764265333e+01
14872 1 1 2.9280294141499812e+01 1.3917979385522678e+01 4.4376666233918165e+01
2722 1 1 2.9717856596844250e+01 1.3902401862838916e+01 4.5255381027638549e+01
18682 1 1 3.0776259083829935e+01 1.2890921010741087e+01 4.4867829986614446e+01
18684 1 1 3.0670842304296453e+01 1.3086379737312187e+01 4.4132479463370103e+01
18683 3 3 3.0739076494846177e+01 1.3024300499139818e+01 4.4513046199223830e+01
10351 1 1 2.9835168699801162e+01 1.3945039583579538e+01 4.5162078424028962e+01
11989 1 1 3.1764879219318480e+01 1.3193017888659707e+01 4.4592127050611580e+01
1732 1 1 3.1740824121289474e+01 1.3048262510492222e+01 4.4654834882504232e+01
1733 3 3 3.1679489029951345e+01 1.2712822860778516e+01 4.4772285547760241e+01
1734 1 1 3.1589286342548093e+01 1.2429387000589633e+01 4.5009215789484848e+01
11990 3 3 3.1858801033965534e+01 1.3592723260308775e+01 4.4380805651455667e+01
11991 1 1 3.1954979656884717e+01 1.3910116773136506e+01 4.4168028065625471e+01
13074 1 1 3.3866984807059339e+01 1.3594746800890020e+01 4.4805461379519500e+01
13073 2 2 3.3692988807741983e+01 1.3657556327720439e+01 4.4441321020727102e+01
15690 1 1 3.3508032288202415e+01 1.3784602243866994e+01 4.3961659076345775e+01
13072 1 1 3.3575631881013400e+01 1.3730675916198473e+01 4.4105395459699025e+01
14506 1 1 2.7954290455048248e+01 1.4147709092564169e+01 4.4242043974367697e+01
16009 1 1 2.7983214472301373e+01 1.4239297829891406e+01 4.4355481887928633e+01
16010 3 3 2.7941885737826929e+01 1.4499766241768613e+01 4.4622203948295443e+01
16011 1 1 2.7903755469655156e+01 1.4733649750392779e+01 4.4957586821896889e+01
14073 1 1 2.7897011309945587e+01 1.4800457324749443e+01 4.5115717367315668e+01
2364 1 1 2.7312321975863981e+01 1.5089917126279349e+01 4.4095573399181781e+01
14072 3 3 2.7946384758206644e+01 1.5032363233315296e+01 4.5429803485421210e+01
16488 1 1 2.7306845569190106e+01 1.5202052650387486e+01 4.4199154667546530e+01
16487 3 3 2.7328720256210755e+01 1.5497016420101117e+01 4.4534352599875859e+01
7107 1 1 2.8334060244303508e+01 1.4958960402056698e+01 4.4231992604974188e+01
13982 3 3 2.9726534625074045e+01 1.5210299641506827e+01 4.4370716802519404e+01
16871 3 3 2.9169883890964815e+01 1.4601990604498731e+01 4.4790544573831376e+01
16870 1 1 2.8934237248435291e+01 1.4243882942497384e+01 4.4948706861337890e+01
13981 1 1 2.9479182080430256e+01 1.4999632584197371e+01 4.4540913040232951e+01
16872 1 1 2.9405144242498114e+01 1.4887741261948849e+01 4.4603033451763167e+01
20055 1 1 2.8887838092877256e+01 1.5264767101270420e+01 4.4759333087468434e+01
13983 1 1 2.9904151076569942e+01 1.5405399727623086e+01 4.4083603482774492e+01
8121 1 1 3.0831304297201658e+01 1.4517274577665123e+01 4.3982625208987088e+01
12423 1 1 2.9972259972757392e+01 1.5468475447178980e+01 4.3977745633366240e+01
8120 3 3 3.0552045448577982e+01 1.4383227589728511e+01 4.4199735041307747e+01
10352 3 3 3.0073184998189859e+01 1.4024821996115971e+01 4.4840618478280518e+01
10353 1 1 3.0205576393298092e+01 1.4147379518183715e+01 4.4557108237245970e+01
8119 1 1 3.0273687693638433e+01 1.4206579576045614e+01 4.4462195880777777e+01
16025 3 3 3.0656070923798765e+01 1.5073752818120056e+01 4.5058459467127662e+01
7864 1 1 3.0199393161647713e+01 1.5077161458188863e+01 4.5277199007304731e+01
16024 1 1 3.0323491124923851e+01 1.5092953228253863e+01 4.5212509639190579e+01
16026 1 1 3.0991658192940402e+01 1.5098470024879944e+01 4.4869768349796011e+01
7119 1 1 3.1106650126927160e+01 1.5099494779360516e+01 4.4811174270295687e+01
19192 1 1 3.1979983378635776e+01 1.4001432760366944e+01 4.4077951258894416e+01
11583 1 1 3.3022057913804296e+01 1.5028532372404882e+01 4.5243625630893249e+01
7118 3 3 3.1504833924432674e+01 1.5145465423575123e+01 4.4660285904209289e+01
13105 1 1 3.2790316835767918e+01 1.5364761066777744e+01 4.4331806366699475e+01
2695 1 1 3.2916729894661586e+01 1.5438868469102959e+01 4.4297647084811594e+01
13107 1 1 3.2035439963471383e+01 1.5180646928183489e+01 4.4548580930898517e+01
7117 1 1 3.1876116662907982e+01 1.5175663916275301e+01 4.4570791628734042e+01
13106 3 3 3.2435900628333037e+01 1.5240804562468744e+01 4.4461875207449495e+01
11582 3 3 3.2689311444912619e+01 1.5011662464819366e+01 4.5400149584037337e+01
10168 1 1 3.3176029258191292e+01 1.5044559908771227e+01 4.5143431810413233e+01
10169 2 2 3.3540554637834816e+01 1.4945226102460605e+01 4.5076110916567650e+01
14051 2 2 3.4399852287461293e+01 1.4174972890058006e+01 4.3953663995271668e+01
14052 1 1 3.4515087844809230e+01 1.4465460160769362e+01 4.4193643147791647e+01
10170 1 1 3.3838257362759272e+01 1.4749642288561066e+01 4.4957557487402866e+01
10585 1 1 3.4558072016452421e+01 1.4571233978250044e+01 4.4241227189297270e+01
10586 3 3 3.4707247986749053e+01 1.4896051615527766e+01 4.4413015340609171e+01
10587 1 1 3.4760342353218881e+01 1.5236460671339884e+01 4.4562363817438452e+01
15621 1 1 3.4781436520327588e+01 1.5374070181675808e+01 4.4623929505155203e+01
15291 1 1 2.6766966037161978e+01 1.6020971739404413e+01 4.4104231834471825e+01
16486 1 1 2.7466056259735620e+01 1.5749396457932004e+01 4.4831800306982167e+01
20031 1 1 2.7498371994322003e+01 1.5831704003163409e+01 4.4932217404654708e+01
20030 3 3 2.7645509723333845e+01 1.6061665475698771e+01 4.5268041841963985e+01
20054 3 3 2.8671369888974958e+01 1.5645178215444624e+01 4.4776917397665564e+01
9202 1 1 2.8513105100607817e+01 1.6133234019295070e+01 4.4740193953985177e+01
9204 1 1 2.8298647565365712e+01 1.6924858117960472e+01 4.4749391121308555e+01
1948 1 1 2.8236503324604410e+01 1.7051997682802401e+01 4.4771226595797977e+01
9203 3 3 2.8408370940283550e+01 1.6509687207250902e+01 4.4691773129976148e+01
20053 1 1 2.8560926457929870e+01 1.5999167304438032e+01 4.4749173650906378e+01
18077 3 3 2.9506807986834581e+01 1.6888644314042601e+01 4.5091992573846490e+01
18076 1 1 2.9643975862416031e+01 1.6575278143212287e+01 4.5361962171495165e+01
7081 1 1 2.9172625976315704e+01 1.6268239670237826e+01 4.5396988998711258e+01
2165 3 3 2.9844309617120164e+01 1.6645021515311466e+01 4.4028929463320139e+01
18014 3 3 3.0969573881007904e+01 1.6975975827592908e+01 4.4003538718797145e+01
17142 1 1 3.0149220579657207e+01 1.5838043012505617e+01 4.5026030736178242e+01
2166 1 1 2.9932578927486190e+01 1.6394833065707495e+01 4.4331729498185439e+01
17140 1 1 2.9961506219975732e+01 1.6330598650263124e+01 4.4462983549500002e+01
17141 3 3 3.0055205036445049e+01 1.6116924713775369e+01 4.4786478109830263e+01
21138 1 1 3.1126436087438833e+01 1.6489561284689199e+01 4.4232129613198339e+01
21137 3 3 3.1079714775875608e+01 1.6113912275534503e+01 4.4394772988762611e+01
18013 1 1 3.1119687784628709e+01 1.6625148981943401e+01 4.4166433335718516e+01
21136 1 1 3.0907071385194378e+01 1.5789470558184407e+01 4.4603308556112907e+01
21124 1 1 3.0360077415339926e+01 1.6719911051796753e+01 4.4932315271717790e+01
21125 3 3 3.0685217488692459e+01 1.6913334027463108e+01 4.5097960476869986e+01
21126 1 1 3.1026016031736219e+01 1.7050971325168241e+01 4.5231403678855948e+01
10851 1 1 3.1709965911064849e+01 1.6012607617729234e+01 4.4133807464821516e+01
13315 1 1 3.2607289129945798e+01 1.6563300491805894e+01 4.4763997920228931e+01
4793 3 3 3.2132639825342224e+01 1.6465612880128916e+01 4.5102741908450682e+01
4792 1 1 3.2486816648610635e+01 1.6521300541458356e+01 4.4840447391837898e+01
4794 1 1 3.1863325551063394e+01 1.6345391373420799e+01 4.5315265096760172e+01
9885 1 1 3.1777518077065629e+01 1.6293080091666749e+01 4.5420852446990182e+01
13316 3 3 3.2925208777504480e+01 1.6659317623622400e+01 4.4512546073548620e+01
16205 3 3 3.4703240894940357e+01 1.6418802731955651e+01 4.3988995836939289e+01
2696 3 3 3.3271089522568467e+01 1.5634086182904555e+01 4.4288835758208499e+01
2697 1 1 3.3569390404049436e+01 1.5914527757654827e+01 4.4251934195383271e+01
13317 1 1 3.3293929140200163e+01 1.6695282348062513e+01 4.4417514434719919e+01
4515 1 1 3.3433906766905878e+01 1.6683728940501442e+01 4.4386853231176467e+01
16204 1 1 3.4336953816691519e+01 1.6509367346066522e+01 4.4045513879613367e+01
4513 1 1 3.4210298290910856e+01 1.6529014258299487e+01 4.4106999024420183e+01
4514 3 3 3.3821761853042084e+01 1.6645163337333354e+01 4.4258067136283280e+01
16408 1 1 3.3803869296384576e+01 1.5735535631351944e+01 4.4794792339688570e+01
16409 3 3 3.3892098500189249e+01 1.6040036188457961e+01 4.5103686034863273e+01
16410 1 1 3.3946374261887527e+01 1.6236447250458749e+01 4.5442660892747142e+01
15620 3 3 3.4848416190661943e+01 1.5699168554545372e+01 4.4825513115900883e+01
15619 1 1 3.4914821887411776e+01 1.6095131670867040e+01 4.4927749388132547e+01
12585 1 1 3.4925069523218973e+01 1.6247951070924408e+01 4.4973245274876120e+01
12584 3 3 3.4917499892991145e+01 1.6595551583896313e+01 4.5046478202280078e+01
12583 1 1 3.4827019084466649e+01 1.6930380326307716e+01 4.5133052424063116e+01
4978 1 1 2.7963894410145191e+01 1.7939056193919221e+01 4.4609340501577321e+01
1950 1 1 2.8023633165893315e+01 1.7810243941789789e+01 4.4671229890399680e+01
4979 3 3 2.7772861716637838e+01 1.8281068811866060e+01 4.4505512322103762e+01
10323 1 1 2.9142461979953261e+01 1.7824719970610555e+01 4.4037706040176857e+01
7084 1 1 2.9178006906460794e+01 1.7737095584847623e+01 4.4158011488361709e+01
18078 1 1 2.9371815979835798e+01 1.7147954106479773e+01 4.4868865413646603e+01
7085 3 3 2.9270193209745507e+01 1.7522621970839573e+01 4.4463646910375864e+01
1949 3 3 2.8137014066543170e+01 1.7443564109662550e+01 4.4787978243645625e+01
7086 1 1 2.9335190859415889e+01 1.7229602416922315e+01 4.4771615107039992e+01
1770 1 1 3.1078071838084007e+01 1.8383061233947977e+01 4.3944374144518861e+01
8132 3 3 3.1404434824875583e+01 1.8556897941353625e+01 4.5158622988671567e+01
15024 1 1 3.0222196194936920e+01 1.7524775370482722e+01 4.5082157025825616e+01
15023 3 3 3.0281517126835208e+01 1.7931505664880962e+01 4.5136098012644993e+01
14697 1 1 3.1165069568266166e+01 1.7096395635136549e+01 4.5312545328656405e+01
15022 1 1 3.0412049111077248e+01 1.8314173491074669e+01 4.5194052263869409e+01
8131 1 1 3.1610453643359794e+01 1.8266546844625751e+01 4.4977566848700206e+01
2040 1 1 3.1693771056506673e+01 1.8160134091263064e+01 4.4888507465264269e+01
2039 3 3 3.1891837194413263e+01 1.7870508666103994e+01 4.4717900717796880e+01
16460 3 3 3.3014382731278111e+01 1.8216451713139637e+01 4.4302720131613611e+01
16459 1 1 3.2650751131432820e+01 1.8304874252836498e+01 4.4375989584689762e+01
2038 1 1 3.2103029979899780e+01 1.7556629485394499e+01 4.4528205086814999e+01
16461 1 1 3.3367686026266348e+01 1.8161005739789942e+01 4.4124595946992983e+01
16863 1 1 3.3486386329695037e+01 1.8118908447184541e+01 4.4045655337472454e+01
4291 1 1 3.3724335539206116e+01 1.7570119318090132e+01 4.5344246614687648e+01
4292 3 3 3.4074779021199710e+01 1.7648577649174271e+01 4.5195516099976984e+01
10554 1 1 3.4581794724197188e+01 1.7800357333310910e+01 4.4926960583175386e+01
4293 1 1 3.4445781873163391e+01 1.7751660779352804e+01 4.4978247903022684e+01
21160 1 1 3.3610507453580290e+01 1.7553676124523506e+01 4.5376613349864662e+01