LAMMPS data file via write_data, version 7 Aug 2019, timestep = 20000000

1269 atoms
3 atom types
1157 bonds
3 bond types
1045 angles
3 angle types

0.0000000000000000e+00 5.0000000000000000e+01 xlo xhi
0.0000000000000000e+00 5.0000000000000000e+01 ylo yhi
0.0000000000000000e+00 5.0000000000000000e+01 zlo zhi

Masses

1 0.25
2 0.5
3 0.5

Bond Coeffs # harmonic

1 6000 0.15
2 2000 0.4
3 2000 0.4

Angle Coeffs # harmonic

1 100 180
2 50 180
3 50 180

Atoms # angle

12184 1 1 2.6973741235876833e+01 1.3872432018736761e+01 1.0450714851255782e+01
12186 1 1 2.6417622710184133e+01 1.4143323578179366e+01 9.9702079991385979e+00
12185 2 2 2.6753797022959386e+01 1.4022261694346005e+01 1.0189165067573844e+01
21153 1 1 2.6191366321801080e+01 1.5321698804877487e+01 9.9941789242630996e+00
19789 1 1 2.8012322606485323e+01 1.5057731238200466e+01 1.0220848361975584e+01
19790 2 2 2.8196792481706762e+01 1.5383607200742485e+01 1.0146859335208342e+01
13508 2 2 2.7778121217843122e+01 1.4586837753445096e+01 1.0400940047554011e+01
13509 1 1 2.7950207243279909e+01 1.4915987597923333e+01 1.0279419632538970e+01
13507 1 1 2.7606919183847754e+01 1.4228327778715032e+01 1.0578766537935445e+01
15211 1 1 2.7996579502354386e+01 1.3675650983324212e+01 1.0957487087945186e+01
15212 2 2 2.7812637411349179e+01 1.3328404912250232e+01 1.0872560297933523e+01
15213 1 1 2.7591833770588103e+01 1.3028455552044983e+01 1.0756829954589991e+01
3157 1 1 2.7918859614373055e+01 1.3766321347416749e+01 1.1821082622243662e+01
17859 1 1 2.7876003772463385e+01 1.3888691844266733e+01 1.1739337634857577e+01
3158 2 2 2.7999717189526006e+01 1.3473741251916058e+01 1.2081601637765447e+01
21408 1 1 2.5718498463256005e+01 1.5187494984629158e+01 1.1740290422723691e+01
21407 2 2 2.5589411398611329e+01 1.5497776063177668e+01 1.1504638139086159e+01
13528 1 1 2.6725190866349340e+01 1.4686526922295602e+01 1.0872667229558909e+01
13529 2 2 2.6785010798005924e+01 1.5066086458585714e+01 1.0839285999730581e+01
11700 1 1 2.6355705930461347e+01 1.4147697704695448e+01 1.1610170648326346e+01
11698 1 1 2.6051186262827851e+01 1.4952128790448212e+01 1.1636770597578083e+01
11699 2 2 2.6210199896150030e+01 1.4540482751945731e+01 1.1570664564603266e+01
2454 1 1 2.7133700943013192e+01 1.5492013464369700e+01 1.1744673512886271e+01
2453 2 2 2.6817589392063645e+01 1.5364991334231132e+01 1.1979378105298537e+01
13530 1 1 2.6698020365457179e+01 1.5431589874575634e+01 1.0878257226387854e+01
18863 2 2 2.8753305250606513e+01 1.4944942229873801e+01 1.1024546274866145e+01
11860 1 1 2.9036460233377795e+01 1.5296104457212573e+01 1.0821762475100266e+01
18862 1 1 2.8948975586899660e+01 1.5217966275927061e+01 1.0857036018798423e+01
18864 1 1 2.8607690789323701e+01 1.4619363259373552e+01 1.1170170838247063e+01
17857 1 1 2.7712493080653179e+01 1.4621089999347214e+01 1.1422815220721452e+01
17858 2 2 2.7738708300125012e+01 1.4224509032578750e+01 1.1568652168639527e+01
627 1 1 2.6584698087395846e+01 1.3947721880303828e+01 1.2221762240233470e+01
2007 1 1 2.8035971586857070e+01 1.2480724007234093e+01 1.2988245050940931e+01
2006 2 2 2.8079721363874967e+01 1.2768333230586350e+01 1.2691614853151467e+01
2005 1 1 2.8097462553718174e+01 1.3044281029648916e+01 1.2440240085907845e+01
3159 1 1 2.8056706660800309e+01 1.3170758502785580e+01 1.2347126656483031e+01
6931 1 1 2.3820171935775619e+01 1.5381697940825788e+01 1.3165305900082707e+01
6932 2 2 2.4195887243341279e+01 1.5358246062589268e+01 1.3096738547169929e+01
6933 1 1 2.4579631534919752e+01 1.5259512935245764e+01 1.2965459881334937e+01
5570 2 2 2.5075472648794488e+01 1.5110315547529034e+01 1.2759004704825667e+01
5571 1 1 2.5516423883311287e+01 1.5105363854798611e+01 1.2681001282682800e+01
5569 1 1 2.4723346620950931e+01 1.5226948440492352e+01 1.2923154581274392e+01
5118 1 1 2.5646198870995565e+01 1.5144177895777194e+01 1.2643362115312831e+01
5117 2 2 2.6002242233894577e+01 1.5186453251260772e+01 1.2456755202067779e+01
2452 1 1 2.6493931272001497e+01 1.5265588378235735e+01 1.2195502141128246e+01
5116 1 1 2.6363866485266602e+01 1.5243234300733858e+01 1.2261208592185232e+01
10802 2 2 2.6977160968379401e+01 1.5300594125474820e+01 1.3102631459489208e+01
626 2 2 2.6975463284822823e+01 1.4053406222938877e+01 1.2299485005205485e+01
625 1 1 2.7320155043840629e+01 1.4137995416663991e+01 1.2520923919791340e+01
10803 1 1 2.6701196000181373e+01 1.5077686718616325e+01 1.3230308017401233e+01
13189 1 1 2.7435021027064248e+01 1.4178456735884414e+01 1.2594305360239140e+01
15453 1 1 2.9064270854879030e+01 1.5007549839198155e+01 1.3094908647054085e+01
6685 1 1 2.8281691543951645e+01 1.5254461913103691e+01 1.2498198681418062e+01
952 1 1 2.8936074898030842e+01 1.4937532085814649e+01 1.3061095953125447e+01
953 2 2 2.8539757644461076e+01 1.4750624858706095e+01 1.2949519264600436e+01
13191 1 1 2.8070512406237697e+01 1.4545880765861785e+01 1.2831584414064109e+01
954 1 1 2.8210653073846188e+01 1.4606472097131407e+01 1.2863738974544459e+01
13190 2 2 2.7761957681011015e+01 1.4341764697380240e+01 1.2785896119442123e+01
15838 1 1 2.5683511689735305e+01 1.3543882194128777e+01 1.5012407685817017e+01
15840 1 1 2.5277692557125057e+01 1.3167307826679743e+01 1.4453100260875619e+01
15839 2 2 2.5492225306426988e+01 1.3379779006312557e+01 1.4732023469970182e+01
15325 1 1 2.5762976120387819e+01 1.3581239321462350e+01 1.5125024721786579e+01
10188 1 1 2.6727784561104436e+01 1.3226416236260034e+01 1.4643563317166603e+01
10187 2 2 2.6829283111505131e+01 1.3598779059152527e+01 1.4429703840304036e+01
10186 1 1 2.6920848893098064e+01 1.3911444627510420e+01 1.4334840634289494e+01
1010 2 2 2.8068687429787971e+01 1.3885010478304896e+01 1.4932710306076897e+01
1011 1 1 2.8244239753228495e+01 1.3745746598287152e+01 1.4582360384213858e+01
11565 1 1 2.4904216656448128e+01 1.5030052772902609e+01 1.4058714390002498e+01
16647 1 1 2.5943105164989614e+01 1.4673095727098103e+01 1.4424139560081898e+01
6849 1 1 2.5790048452845600e+01 1.4597438880661642e+01 1.4413365138123380e+01
6847 1 1 2.5065595883968655e+01 1.4211105389574563e+01 1.4413801482100437e+01
5278 1 1 2.5635008322065712e+01 1.5276714207077173e+01 1.5119644654902746e+01
6848 3 3 2.5423275163202241e+01 1.4405857523967908e+01 1.4439233935874439e+01
1631 2 2 2.5933558868470961e+01 1.5390363733550686e+01 1.3667823115433174e+01
11564 2 2 2.4801968260350375e+01 1.5420798877708114e+01 1.3975841228566786e+01
1632 1 1 2.5816356489963830e+01 1.5053712611456303e+01 1.3918643053411014e+01
10780 1 1 2.6993455443536568e+01 1.4571503046457908e+01 1.5059754564383118e+01
567 1 1 2.6685072676990689e+01 1.5263723093478887e+01 1.4392057769171460e+01
16645 1 1 2.6578579075118473e+01 1.5137861048955536e+01 1.4409367244303471e+01
13203 1 1 2.7488574469212942e+01 1.4607554465070947e+01 1.4086102329902776e+01
13202 3 3 2.7249037707423195e+01 1.4356756571259554e+01 1.4225789332442854e+01
16646 2 2 2.6298368652852233e+01 1.4852177264211063e+01 1.4435471233711413e+01
13201 1 1 2.7021072924141912e+01 1.4034918821326363e+01 1.4296856349435879e+01
5778 1 1 2.8083286932772612e+01 1.5465031804113929e+01 1.3642982608593160e+01
11665 1 1 2.7569203382958246e+01 1.4714929537687865e+01 1.4002734241192538e+01
11667 1 1 2.8024839348426056e+01 1.5368042368063925e+01 1.3682005338702803e+01
11666 2 2 2.7805372175812884e+01 1.5057397205063308e+01 1.3822767149197604e+01
2428 1 1 2.7661464514894462e+01 1.7411609966819192e+01 7.5375461549287683e+00
10926 1 1 2.6809879039088877e+01 1.9576741828571400e+01 7.3684313697697261e+00
2122 1 1 2.7369141752003557e+01 1.9653644300794994e+01 7.4654935663485711e+00
2123 2 2 2.7648947774707111e+01 1.9332257358388681e+01 7.5377301539165344e+00
13175 2 2 2.7488410824257560e+01 1.6057759888298531e+01 8.1266870117839964e+00
13174 1 1 2.7352940584609108e+01 1.5927975518777457e+01 8.4548438405830417e+00
15845 2 2 2.7218831065009741e+01 1.5731012432785539e+01 8.9568737978204727e+00
15846 1 1 2.7293125787197894e+01 1.5873209204117041e+01 8.5933880106325677e+00
13176 1 1 2.7574733925914252e+01 1.6180103321841408e+01 7.7448427386845644e+00
8060 2 2 2.4428198121357951e+01 1.8612518485148488e+01 9.0414501466985637e+00
7414 1 1 2.5902236602015837e+01 1.8625627255570258e+01 8.4528439667892119e+00
3635 2 2 2.7097447886245455e+01 1.7617258826059413e+01 8.6558603129560687e+00
2430 1 1 2.7418911281594770e+01 1.7581766627476465e+01 8.1847954520012092e+00
3636 1 1 2.7348829408966964e+01 1.7593973443329038e+01 8.3175574141091992e+00
2429 2 2 2.7550951361142488e+01 1.7487652103118723e+01 7.8791312907708564e+00
3634 1 1 2.6847013684517549e+01 1.7706170198145607e+01 8.9284137635404903e+00
7416 1 1 2.6753274451792727e+01 1.8573674407847264e+01 8.3726160861354497e+00
7415 2 2 2.6322092794483620e+01 1.8638008417309674e+01 8.3937571611894182e+00
4198 1 1 2.9021567653195806e+01 1.7501528301134471e+01 8.3400036122622598e+00
18563 2 2 2.8009428821774698e+01 1.8287478903215614e+01 8.6933290535719756e+00
11506 1 1 2.8483677159153149e+01 1.8430671739626032e+01 7.8944345876886670e+00
4200 1 1 2.8383829431143010e+01 1.7960208374194011e+01 8.4941831565483934e+00
18562 1 1 2.8299448716908426e+01 1.8045263698667970e+01 8.5467634335712628e+00
4199 2 2 2.8735309357033163e+01 1.7752077680835132e+01 8.3368879760107966e+00
18564 1 1 2.7701711875854585e+01 1.8481692571149441e+01 8.9274894437868255e+00
9993 1 1 2.7574227119947672e+01 1.8554783753594482e+01 9.0426577275920899e+00
8059 1 1 2.4142227551767675e+01 1.8849310141847155e+01 8.9853166036028647e+00
8232 1 1 2.5521862175681594e+01 1.9475605581678874e+01 8.5609455805962007e+00
4938 1 1 2.4914640571131343e+01 2.0217284548581805e+01 8.5067830447114350e+00
8231 2 2 2.5850796583431645e+01 1.9609237042868259e+01 8.3429739218726979e+00
4937 2 2 2.5056764052340046e+01 2.0187571653319221e+01 8.9166490000847247e+00
10925 2 2 2.6513411442412700e+01 1.9711823503978113e+01 7.6415449532579247e+00
10924 1 1 2.6221522263509602e+01 1.9677312675219543e+01 7.9271827774685093e+00
8230 1 1 2.6139706322476265e+01 1.9657820175136262e+01 8.0263629488442874e+00
13903 1 1 2.6607775846665351e+01 1.9782973322202800e+01 8.7744999131079311e+00
13904 2 2 2.7015150722044684e+01 1.9771077045408656e+01 8.8085920700419891e+00
13905 1 1 2.7380172057537358e+01 1.9687152679744205e+01 8.8725013234102565e+00
5151 1 1 2.7526427442640138e+01 1.9655564162156399e+01 8.8812757505087241e+00
11507 2 2 2.8227053140914968e+01 1.8764171352550829e+01 7.8091839967445233e+00
11508 1 1 2.7977253737542142e+01 1.8982724579046053e+01 7.6856196576177602e+00
2124 1 1 2.7883624559912313e+01 1.9065584409675179e+01 7.6518232146743754e+00
5150 2 2 2.7925882045547670e+01 1.9658480475996399e+01 8.9254197075866042e+00
5149 1 1 2.8323053140445968e+01 1.9632781206233112e+01 8.9995646657855541e+00
12190 1 1 2.8491705257793932e+01 1.9635240545510822e+01 9.0205478409874313e+00
6417 1 1 2.6702041313029490e+01 2.0959603796558024e+01 8.7432247909507641e+00
19513 1 1 2.6780755948793232e+01 2.1322774465787298e+01 8.9834845091296458e+00
6416 2 2 2.6611052354398378e+01 2.0659782742217143e+01 8.9956367746814205e+00
17923 1 1 2.5394136813923545e+01 2.3065990088844394e+01 8.9773576664465295e+00
9127 1 1 2.5369968186092859e+01 2.3198558360742538e+01 8.8816301911207383e+00
3503 3 3 2.7962224571771550e+01 2.2039325472158371e+01 8.9201678245321911e+00
3502 1 1 2.7974427023931899e+01 2.2410123649229998e+01 8.6275955634087129e+00
17447 3 3 2.9070284065791181e+01 2.2366326688164474e+01 8.8333525211958612e+00
17448 1 1 2.8986885536570902e+01 2.2750443789633280e+01 8.7348451294110685e+00
13598 3 3 2.8981301656635360e+01 2.3323888207299124e+01 8.6801414098620953e+00
13597 1 1 2.8971853510540715e+01 2.2914771386911312e+01 8.7116931052313618e+00
9128 3 3 2.5280720507671489e+01 2.3544191026172541e+01 8.6365014643097204e+00
9129 1 1 2.5205269654746605e+01 2.3902400166683055e+01 8.4162499369838422e+00
13599 1 1 2.9060461079613109e+01 2.3703586313824790e+01 8.6307460380349372e+00
15844 1 1 2.7082883860283594e+01 1.5672660970918162e+01 9.3380218328777005e+00
12028 1 1 2.6935046644444224e+01 1.6771217759016849e+01 9.9261849244989531e+00
12029 2 2 2.6895051553050425e+01 1.6438539086205601e+01 9.9343315706264974e+00
12030 1 1 2.6710008535377650e+01 1.6067339140158971e+01 9.9883872181610407e+00
21151 1 1 2.6652613279818567e+01 1.5952645167727169e+01 9.9961885285749599e+00
21152 2 2 2.6456624019198490e+01 1.5598846511554829e+01 1.0022396004676219e+01
4909 1 1 2.8707985426497277e+01 1.6661098635364660e+01 1.0289987147303387e+01
19791 1 1 2.8302394632290955e+01 1.5777783103463305e+01 1.0181417351771858e+01
4910 2 2 2.8507861235914998e+01 1.6317109280259746e+01 1.0245500968745599e+01
4911 1 1 2.8363043726102052e+01 1.5928625455022427e+01 1.0179461108991978e+01
15703 1 1 2.4873498307232744e+01 1.8300048244812370e+01 9.2309218225021947e+00
15704 2 2 2.5168208608367525e+01 1.8062927608230396e+01 9.2910317623724250e+00
15705 1 1 2.5567833028107394e+01 1.7939936899247797e+01 9.3944856685915781e+00
8061 1 1 2.4766102554106126e+01 1.8377092048772429e+01 9.1822865646634089e+00
7658 2 2 2.5929745832724240e+01 1.8521434225910866e+01 1.0550376843513485e+01
14199 1 1 2.5677825282523017e+01 1.7912589675227998e+01 9.4399506345508790e+00
14198 2 2 2.6021038559679965e+01 1.7891404582723922e+01 9.5477972281524028e+00
12200 3 3 2.6823424203681576e+01 1.7856864834694807e+01 9.8872000412150189e+00
12199 1 1 2.7155203629122358e+01 1.7902228310436428e+01 1.0091672689384659e+01
12201 1 1 2.6465519674732111e+01 1.7850994954177043e+01 9.6982363047753797e+00
14197 1 1 2.6367539032089145e+01 1.7857708163274694e+01 9.6577378353423864e+00
2948 2 2 2.8118636971876821e+01 1.7925034525178180e+01 9.8580116727729923e+00
2949 1 1 2.7755296841957353e+01 1.7924849791309473e+01 9.9798766375535557e+00
2947 1 1 2.8552733784593016e+01 1.7851683424676079e+01 9.8209798425522870e+00
20059 1 1 2.5208464452399159e+01 1.9440923016188609e+01 9.1305203873286658e+00
4936 1 1 2.5130989233142181e+01 2.0081692546186417e+01 9.3015437877525091e+00
7659 1 1 2.5907957314773505e+01 1.8987169509681785e+01 1.0503279507908792e+01
20060 2 2 2.5565942397358715e+01 1.9405951779754737e+01 9.3774199140203720e+00
6804 1 1 2.5865488450288769e+01 1.9890301458303799e+01 1.0456514826093036e+01
6802 1 1 2.5915799663700678e+01 1.9132095373040290e+01 1.0501599027662687e+01
6803 2 2 2.5923195981266939e+01 1.9514763665457465e+01 1.0537749938236749e+01
20061 1 1 2.5955095616898600e+01 1.9361197861702294e+01 9.5633931226981215e+00
9992 2 2 2.7282520990042695e+01 1.8794362141467925e+01 9.2291993665800369e+00
13155 1 1 2.6821470474210887e+01 1.8984293851744116e+01 9.5361880890041775e+00
9991 1 1 2.6948166996416710e+01 1.8921218712017232e+01 9.4601260361266029e+00
8181 1 1 2.7543587450438192e+01 1.9117490042188294e+01 1.0427894184408132e+01
13154 2 2 2.6530585575057721e+01 1.9122290696940613e+01 9.6690957676921450e+00
13153 1 1 2.6175181099619103e+01 1.9212386490064684e+01 9.8078195270356137e+00
8180 2 2 2.7467080761673408e+01 1.8777076143828140e+01 1.0600433668571654e+01
4555 1 1 2.7565664645915234e+01 1.9255128329473269e+01 1.0354883891715025e+01
11372 2 2 2.6544742591445697e+01 2.0205079149612658e+01 9.7735973236990947e+00
11373 1 1 2.6576331322810763e+01 2.0065209952755687e+01 1.0135708424639541e+01
15651 1 1 2.8825554937592383e+01 2.0267908346729882e+01 9.8967412452863588e+00
12191 2 2 2.8876302582238296e+01 1.9578949394285395e+01 9.1366604999058687e+00
8335 1 1 2.8800564830981795e+01 2.0165559119225239e+01 9.9989952651242184e+00
8336 2 2 2.8766243885317053e+01 1.9822045353325901e+01 1.0301431447936210e+01
8337 1 1 2.8653459022951704e+01 1.9559740395693076e+01 1.0577154605511673e+01
4557 1 1 2.7765179430697508e+01 1.9908305698415621e+01 9.9465070175362644e+00
20229 1 1 2.7826851529751984e+01 2.0031702387677562e+01 9.8898643396177981e+00
4556 2 2 2.7667567591923785e+01 1.9587682168386554e+01 1.0117546596729412e+01
2557 1 1 2.4168653540843412e+01 2.0808569805515187e+01 1.0139472475617698e+01
2558 2 2 2.4486092867003023e+01 2.0941687560969754e+01 1.0272694137281526e+01
486 1 1 2.4934751197810630e+01 2.1141729019820822e+01 1.0510707505993597e+01
2559 1 1 2.4810142370776941e+01 2.1100057734493049e+01 1.0430506872915014e+01
21346 1 1 2.5251726544408076e+01 2.0475324990016233e+01 9.9555131132490207e+00
21347 2 2 2.5631804692011691e+01 2.0691313038717432e+01 1.0025800271510597e+01
21348 1 1 2.5925196926381158e+01 2.0874457669216454e+01 1.0168576066508033e+01
9966 1 1 2.6013626967636572e+01 2.0954747974651440e+01 1.0203694636309917e+01
16788 1 1 2.5557285198037683e+01 2.1660384457788311e+01 1.0055695090704223e+01
9964 1 1 2.6642698063883277e+01 2.1473088173714871e+01 1.0316168257071084e+01
19514 2 2 2.6936821804136873e+01 2.1592988030918846e+01 9.2218944894243542e+00
11371 1 1 2.6572905093065479e+01 2.0384346680057156e+01 9.4721227726185759e+00
6415 1 1 2.6565844846948764e+01 2.0457715968912090e+01 9.3274895248895007e+00
9965 2 2 2.6338117241098807e+01 2.1207851095418722e+01 1.0316518093622092e+01
18398 2 2 2.7509987967370652e+01 2.1350775981597995e+01 1.0304307070487674e+01
18399 1 1 2.7427554018172728e+01 2.1078375893481944e+01 1.0523425740738441e+01
10950 1 1 2.7373092878351141e+01 2.0937904294345774e+01 1.0571761264351775e+01
15650 2 2 2.8982587635066377e+01 2.0555616168545633e+01 9.6456168862120872e+00
3504 1 1 2.7986847007779406e+01 2.1758666643578884e+01 9.0919305220200961e+00
5337 1 1 2.7999657364659033e+01 2.1642993899759478e+01 9.1532973252319501e+00
20228 2 2 2.7933373191085188e+01 2.0335764574389867e+01 9.7139551527215353e+00
18397 1 1 2.7665620032649667e+01 2.1685902071788160e+01 1.0141633908843952e+01
1966 1 1 2.7739483062205778e+01 2.1832398424774340e+01 1.0080929061435745e+01
20227 1 1 2.8029665185421354e+01 2.0677273396051653e+01 9.5386547626891964e+00
5335 1 1 2.8051501978195109e+01 2.0826677855320412e+01 9.4723174244167634e+00
5336 2 2 2.8075605757637682e+01 2.1237249407635055e+01 9.3086161999288795e+00
21355 1 1 2.8729267146749063e+01 2.1159129967972707e+01 1.0483007447878764e+01
21356 2 2 2.8802635408599802e+01 2.1477368726178923e+01 1.0290419349504710e+01
9526 1 1 2.8674453629554282e+01 2.1043012072790795e+01 1.0557524696490772e+01
21357 1 1 2.8966271429497642e+01 2.1796887277733418e+01 1.0082112365430770e+01
17924 3 3 2.5492522553153162e+01 2.2718220682085104e+01 9.2110830754239892e+00
17925 1 1 2.5619858821205167e+01 2.2440840635502010e+01 9.4772611362934072e+00
16787 2 2 2.5616715844381176e+01 2.1941321535264496e+01 9.8218968340115023e+00
16786 1 1 2.5618180659366089e+01 2.2306125534039882e+01 9.5855531167007832e+00
19515 1 1 2.6977949387143159e+01 2.1935549175927800e+01 9.4952545708779574e+00
3401 3 3 2.8939978637291944e+01 2.2974150335572642e+01 1.0482385766943288e+01
1967 2 2 2.7918709092815668e+01 2.2154875871888247e+01 9.9623985693591326e+00
1968 1 1 2.8178411656304053e+01 2.2425638103702205e+01 9.8086296699831923e+00
15077 3 3 2.3647448667764156e+01 1.5772935654775528e+01 1.2063284790739814e+01
15076 1 1 2.3677809004861519e+01 1.5628903172902900e+01 1.1704076275165542e+01
21406 1 1 2.5459072935414913e+01 1.5867329344500625e+01 1.1340157395814431e+01
18267 1 1 2.5387480472989342e+01 1.6010228172632601e+01 1.1299163665391266e+01
16350 1 1 2.5064026092475718e+01 1.6894927865824808e+01 1.1091386582228527e+01
18266 2 2 2.5211175254015224e+01 1.6376340386009012e+01 1.1189623244714477e+01
18265 1 1 2.5108911045766380e+01 1.6746434119026151e+01 1.1095315421278613e+01
4478 2 2 2.6194738926260193e+01 1.6711855887550755e+01 1.0917857959679045e+01
18632 2 2 2.6599095684861897e+01 1.5908564436870099e+01 1.0971198397523324e+01
18631 1 1 2.6443893383349170e+01 1.6223289777158673e+01 1.1004552286290572e+01
4477 1 1 2.6361861142023077e+01 1.6350743392999174e+01 1.1007073417238805e+01
2611 1 1 2.7261867543145371e+01 1.6590676150790618e+01 1.1481802426806810e+01
16688 2 2 2.6550040679044081e+01 1.6313917310280857e+01 1.1951936161395006e+01
14346 1 1 2.6263939655981094e+01 1.6906680074431772e+01 1.1918162650741884e+01
16689 1 1 2.6837586880292683e+01 1.6269536233855131e+01 1.1752521659609894e+01
4479 1 1 2.6139547058918556e+01 1.7054712944459872e+01 1.0859061287945531e+01
2612 2 2 2.7175169332782044e+01 1.6994140895922232e+01 1.1275304190310816e+01
16779 1 1 2.7238531328246765e+01 1.5514880570480006e+01 1.1668047120054473e+01
18633 1 1 2.6665829823825103e+01 1.5563423555062071e+01 1.0901808410300994e+01
16777 1 1 2.7957642313136279e+01 1.5593597164788941e+01 1.1496588050458143e+01
20011 1 1 2.7739847559421570e+01 1.6299119272701560e+01 1.1403458808584826e+01
20012 2 2 2.8137385802705538e+01 1.6442253995492649e+01 1.1349313737544740e+01
12396 1 1 2.7759491022900033e+01 1.7058293314639229e+01 1.2044074132769357e+01
20013 1 1 2.8495692712914963e+01 1.6513817973865372e+01 1.1355405192099109e+01
1138 1 1 2.8625211996518694e+01 1.6541467198373880e+01 1.1394700338088109e+01
1139 2 2 2.8968518471630517e+01 1.6632600567033876e+01 1.1472165039306114e+01
16778 2 2 2.7581601523461558e+01 1.5595776389950030e+01 1.1596095043791644e+01
6687 1 1 2.8629105848721142e+01 1.5755524206826282e+01 1.1991128066178174e+01
1771 1 1 2.4473392600120338e+01 1.8459606213801017e+01 1.1073841999026206e+01
5505 1 1 2.4387821002703056e+01 1.8580763041187851e+01 1.1136745310126745e+01
7657 1 1 2.5970771081707532e+01 1.8134976122215917e+01 1.0638006528298073e+01
3102 1 1 2.6009066626864012e+01 1.7993488874171067e+01 1.0680235123590652e+01
16348 1 1 2.4891226027690852e+01 1.7673899495226959e+01 1.0911825889852716e+01
16349 2 2 2.5030713899753575e+01 1.7308390534837347e+01 1.0970835500893745e+01
938 2 2 2.5256796296954750e+01 1.8159048636727505e+01 1.2080623221271649e+01
937 1 1 2.5347053930981620e+01 1.8516685703155648e+01 1.1943093342350174e+01
1773 1 1 2.4836693184729935e+01 1.7827980792348562e+01 1.0926517799316239e+01
1772 2 2 2.4722482471401158e+01 1.8167021657646753e+01 1.0962974699194762e+01
11023 1 1 2.5373429682469137e+01 1.8650523060023115e+01 1.1877647396526687e+01
3100 1 1 2.6102900366438718e+01 1.7213377675197282e+01 1.0836631034843561e+01
3101 2 2 2.6059458037736746e+01 1.7587037341845658e+01 1.0805962490459194e+01
14344 1 1 2.6283871909227052e+01 1.7693435332163862e+01 1.1770365677905909e+01
2613 1 1 2.7163004102606362e+01 1.7371027854829670e+01 1.1055047707921293e+01
14345 2 2 2.6276517430914797e+01 1.7303563762148578e+01 1.1832850172963171e+01
20410 1 1 2.7187483782927895e+01 1.7525886718538352e+01 1.0999900589198827e+01
12963 1 1 2.6294278602252991e+01 1.7820243057909920e+01 1.1756644027564885e+01
8179 1 1 2.7384123953916060e+01 1.8387905950130900e+01 1.0727330670183623e+01
20411 2 2 2.7275710668683921e+01 1.7911110237503170e+01 1.0882995200804585e+01
12962 2 2 2.6316005760520408e+01 1.8224018609943681e+01 1.1609352906467738e+01
12961 1 1 2.6454359643051024e+01 1.8613117120622078e+01 1.1413675761028610e+01
20412 1 1 2.7350239695558738e+01 1.8233260345417694e+01 1.0765321746965475e+01
19235 2 2 2.7395187635529581e+01 1.8429746513646634e+01 1.2082649607693249e+01
4269 1 1 2.7694465398490919e+01 1.7106284880566683e+01 1.0610571401548741e+01
4267 1 1 2.8374756229200276e+01 1.7416177934520178e+01 1.0792783187920763e+01
4268 2 2 2.8068526650786769e+01 1.7287106383352960e+01 1.0703152616911709e+01
2272 1 1 2.8526251701309455e+01 1.7476768920743343e+01 1.0820139150293654e+01
2273 2 2 2.8891625531502555e+01 1.7644046254342612e+01 1.0795140985958652e+01
20767 1 1 2.7810939616641193e+01 1.7204678013292881e+01 1.1982444980600784e+01
20768 2 2 2.7939406208373800e+01 1.7562137212529510e+01 1.1799436654971656e+01
4892 2 2 2.8217869633554802e+01 1.8333318921112109e+01 1.1325563575525656e+01
4893 1 1 2.8360910280055926e+01 1.8672678263342206e+01 1.1167369243961044e+01
4891 1 1 2.8108562886652422e+01 1.7998012264707516e+01 1.1521579581707343e+01
20769 1 1 2.8081257261016400e+01 1.7874300875875054e+01 1.1583914073818740e+01
5504 3 3 2.4154973749798859e+01 1.8924566670501584e+01 1.1304466834690526e+01
5503 1 1 2.3901873400055379e+01 1.9209166029516684e+01 1.1481059925726450e+01
11024 2 2 2.5517652166014781e+01 1.9013967057749401e+01 1.1757505756977411e+01
11025 1 1 2.5725902054236279e+01 1.9327151685288278e+01 1.1642155273149219e+01
5164 1 1 2.5782937259459374e+01 1.9449433271604658e+01 1.1599654602314983e+01
5165 2 2 2.5940864021102094e+01 1.9850995517649835e+01 1.1512000832053475e+01
4912 1 1 2.5127704212615576e+01 2.0058522910524136e+01 1.1984426171604428e+01
5722 1 1 2.6465609591124672e+01 1.8722859579602279e+01 1.1371666242459202e+01
5723 2 2 2.6582126032815822e+01 1.9064293891116709e+01 1.1262786513429512e+01
9269 2 2 2.6937768738274130e+01 1.9812249472763611e+01 1.0901208993494501e+01
5724 1 1 2.6792826408168413e+01 1.9444386343070693e+01 1.1146150747977270e+01
9270 1 1 2.6837670350733365e+01 1.9538851947106657e+01 1.1082445847222660e+01
9268 1 1 2.7086445453466268e+01 2.0115804162714159e+01 1.0767453437313844e+01
17074 1 1 2.6962445623823218e+01 1.9908927147975451e+01 1.2104204318963763e+01
19236 1 1 2.7508523379933710e+01 1.8762884014070639e+01 1.1915574668881852e+01
8269 1 1 2.7554352630704297e+01 1.8882127892975518e+01 1.1839365521928940e+01
10948 1 1 2.7134563284757540e+01 2.0240526645808227e+01 1.0730638047586771e+01
5166 1 1 2.6144477461149886e+01 2.0202857241616549e+01 1.1408543696701642e+01
17075 2 2 2.7114606034179335e+01 2.0208934502384608e+01 1.1944676377196592e+01
10710 1 1 2.8598781868181643e+01 1.9449281948499291e+01 1.0696412921532396e+01
10708 1 1 2.8420064904243617e+01 1.8805641823748836e+01 1.1067376750695564e+01
8585 2 2 2.8636682761514113e+01 1.9021838860626072e+01 1.2098353375274737e+01
10709 2 2 2.8495044356646687e+01 1.9172089087053791e+01 1.0897107061474907e+01
20148 1 1 2.7888777499540804e+01 1.9719749668618523e+01 1.1541675454493326e+01
8271 1 1 2.7832351213667192e+01 1.9605339246946077e+01 1.1600769850811940e+01
20147 2 2 2.8029390443005049e+01 2.0045548099411899e+01 1.1290664094193408e+01
8270 2 2 2.7630075480633291e+01 1.9249003637167803e+01 1.1684580136954610e+01
8584 1 1 2.8757037288450096e+01 1.9362668601715434e+01 1.1928653537335061e+01
264 1 1 2.8811191838646391e+01 1.9460384660231515e+01 1.1859774810618630e+01
263 2 2 2.8977422021833313e+01 1.9747803980858652e+01 1.1632044636353422e+01
485 2 2 2.5226918358235430e+01 2.1294271025830955e+01 1.0731795421443540e+01
484 1 1 2.5515911468176817e+01 2.1537934597116760e+01 1.0862982565001653e+01
4913 2 2 2.5107758392861090e+01 2.0414915397576035e+01 1.2045920767752982e+01
4914 1 1 2.5057204939357394e+01 2.0824599346846554e+01 1.2090066966882922e+01
4422 1 1 2.5015358326910860e+01 2.0992690591346324e+01 1.2118643448589786e+01
10949 2 2 2.7301864460516814e+01 2.0576301344402768e+01 1.0653632433183146e+01
3295 1 1 2.6195671316876268e+01 2.0301173810362197e+01 1.1376558302352013e+01
3297 1 1 2.6524398191131063e+01 2.1035918322831559e+01 1.1230226856929612e+01
14172 1 1 2.6563182793307597e+01 2.1178790922303229e+01 1.1233401803629135e+01
3296 2 2 2.6394647525349740e+01 2.0642970014086345e+01 1.1239169422481645e+01
14171 2 2 2.6664115294758851e+01 2.1605974699286886e+01 1.1310432646407127e+01
17076 1 1 2.7305523206522810e+01 2.0556602094187305e+01 1.1807742081333513e+01
4497 1 1 2.7383955481587346e+01 2.0697322473568072e+01 1.1752790918407106e+01
4496 2 2 2.7557544648728285e+01 2.1051415964738343e+01 1.1663562295172150e+01
9527 2 2 2.8461459808636771e+01 2.0735624300665776e+01 1.0737771731993520e+01
20146 1 1 2.8184070351789757e+01 2.0355716447398038e+01 1.1071302004521206e+01
9528 1 1 2.8261324570710336e+01 2.0449832392031727e+01 1.0969641125508911e+01
4246 1 1 2.8601125703909918e+01 2.1173274958050154e+01 1.1705215865854790e+01
7550 2 2 2.8453659552879991e+01 2.0680703238133706e+01 1.2004750271844514e+01
19685 2 2 2.7838343082312768e+01 2.1842266993585049e+01 1.1394297303839812e+01
4495 1 1 2.7645539379253972e+01 2.1422164301353732e+01 1.1579473497049205e+01
19684 1 1 2.7689710750907025e+01 2.1536252416576716e+01 1.1547256198118095e+01
7549 1 1 2.8573297403360652e+01 2.1044097708565523e+01 1.1803771907054880e+01
4248 1 1 2.8846372118379762e+01 2.1791741379238218e+01 1.1198796610999265e+01
4247 2 2 2.8769744919244161e+01 2.1491994188430628e+01 1.1452080538122958e+01
2334 1 1 2.5460611379269590e+01 2.2588174375271670e+01 1.1737521500807297e+01
2332 1 1 2.5600458732209191e+01 2.1987043606342215e+01 1.1243202791220652e+01
2333 2 2 2.5518440932905669e+01 2.2287845132428213e+01 1.1493592649310692e+01
14170 1 1 2.6726210350113334e+01 2.1967205518321681e+01 1.1342794562481917e+01
10137 1 1 2.6754393072582861e+01 2.2151524887235574e+01 1.1384530129504606e+01
71 2 2 2.7203093477169613e+01 2.3457849734233076e+01 1.1601600057345902e+01
72 1 1 2.7084047602861794e+01 2.3070852514610536e+01 1.1510318555237349e+01
10135 1 1 2.7042442877201779e+01 2.2940019499463599e+01 1.1501646965810377e+01
10136 2 2 2.6890368117995077e+01 2.2524638147395802e+01 1.1464414969519794e+01
3400 1 1 2.8656094141002463e+01 2.2750397284584970e+01 1.0646764866983636e+01
2522 2 2 2.8297920594019057e+01 2.2399640647182029e+01 1.0867003207151878e+01
2521 1 1 2.8556374335748298e+01 2.2651936940098075e+01 1.0710530621705642e+01
19686 1 1 2.8046479730493523e+01 2.2073892756489954e+01 1.1205460247691166e+01
2523 1 1 2.8118322716739783e+01 2.2159868919350824e+01 1.1132014095189012e+01
70 1 1 2.7280409339438918e+01 2.3888786409725931e+01 1.1634370286064343e+01
15078 1 1 2.3644865818949750e+01 1.6007445342434423e+01 1.2372308155219875e+01
10447 1 1 2.3676476996611296e+01 1.6089072360054406e+01 1.2497402097967813e+01
10448 2 2 2.3710295337923537e+01 1.6325350187218270e+01 1.2760002082457197e+01
10449 1 1 2.3682652459017952e+01 1.6585894281028562e+01 1.3066249093712864e+01
5815 1 1 2.3652541207838340e+01 1.6720873783221300e+01 1.3198514047085522e+01
5816 2 2 2.3515959216998038e+01 1.6946381813822480e+01 1.3538110772254102e+01
9465 1 1 2.4256772342962936e+01 1.6779400792487653e+01 1.3233685999816249e+01
6585 1 1 2.4394798649783954e+01 1.6049196294243366e+01 1.2680244639465066e+01
6584 2 2 2.4825727860628856e+01 1.6108813073064354e+01 1.2606713449826138e+01
17881 1 1 2.4950312403493090e+01 1.6845798813017051e+01 1.2429684253453251e+01