ITEM: TIMESTEP
20000000
ITEM: NUMBER OF ATOMS
15828
ITEM: BOX BOUNDS pp pp pp
0.0000000000000000e+00 5.0000000000000000e+01
0.0000000000000000e+00 5.0000000000000000e+01
0.0000000000000000e+00 5.0000000000000000e+01
ITEM: ATOMS id type xs ys zs
11505 1 0.113617 0.0155938 0.0183243
11504 3 0.114786 0.023211 0.021157
11503 1 0.116661 0.0300681 0.0224281
7917 1 0.0209527 0.0504644 0.0217547
15021 1 0.0240159 0.0492872 0.0226903
7916 2 0.0142626 0.0523746 0.0193646
7915 1 0.00870446 0.0570877 0.0170657
6419 3 0.0484336 0.0381666 0.0285263
6418 1 0.0568136 0.0359337 0.0297183
12948 1 0.059732 0.0362134 0.0298407
15019 1 0.0380843 0.0434848 0.0263381
15020 2 0.0313066 0.0464288 0.0250628
6420 1 0.0409945 0.0424207 0.0266133
20791 1 0.0596881 0.0387994 0.00676727
12947 3 0.0678428 0.0371777 0.0287819
2817 1 0.0780613 0.04122 0.0227552
2816 3 0.0844382 0.0449548 0.0206353
12946 1 0.0750107 0.0400109 0.0239516
2815 1 0.0898624 0.0501998 0.0183925
20792 2 0.0675675 0.0400676 0.00266276
20793 1 0.0736234 0.0432395 0.000483294
6333 1 0.100266 0.0610658 0.0228724
12960 1 0.117668 0.0330937 0.0233211
12959 3 0.121143 0.0410499 0.0246975
12958 1 0.124409 0.0478727 0.0262383
20709 1 0.230101 0.0341541 0.0131157
20708 3 0.229401 0.042168 0.0102228
20707 1 0.231093 0.0496258 0.00788052
15472 1 0.2503 0.0582839 0.0159864
10080 1 0.023339 0.0705754 0.0281649
21185 2 0.0183829 0.0816801 0.020829
21184 1 0.0204835 0.0816056 0.0284491
21186 1 0.0142486 0.0808443 0.0145549
10079 2 0.0309043 0.067262 0.0285057
10078 1 0.0380188 0.0652583 0.0272426
10729 1 0.100537 0.0627972 0.0198601
10730 3 0.101042 0.0649737 0.0131532
10731 1 0.101463 0.0685548 0.00699898
10769 3 0.0973767 0.0890148 0.0129439
10770 1 0.102813 0.0838374 0.0140451
20178 1 0.179883 0.0799555 0.0160767
20177 2 0.179022 0.0767047 0.0231468
15474 1 0.244271 0.0728585 0.024127
15473 2 0.247707 0.066279 0.0196555
16943 2 0.567827 0.0829427 0.00531855
16942 1 0.564876 0.0838127 0.0127495
8622 1 0.051137 0.103952 0.0212549
8620 1 0.0530588 0.117173 0.0132255
8621 3 0.0523166 0.109903 0.016674
10768 1 0.0935481 0.0946504 0.00961063
2270 3 0.266409 0.121454 0.00329659
2271 1 0.270909 0.116197 0.000432656
11495 2 0.433764 0.100903 0.017032
11496 1 0.432463 0.107398 0.0144037
11494 1 0.434628 0.0940114 0.0202379
8708 3 0.178374 0.13022 0.00225153
8709 1 0.183765 0.125659 0.00568258
21410 3 0.259161 0.13744 0.0117599
21409 1 0.261732 0.130455 0.00859496
2269 1 0.262829 0.127724 0.00679728
21411 1 0.256265 0.144512 0.015385
21177 1 0.348525 0.131195 0.00760414
21176 3 0.353543 0.129047 0.0127352
21175 1 0.358003 0.128951 0.0193233
19206 1 0.428437 0.15891 0.00911321
19777 1 0.435082 0.177349 0.00657176
19204 1 0.433987 0.174718 0.00643987
19778 3 0.439715 0.183621 0.0042975
19205 3 0.431133 0.166554 0.00684478
20529 1 0.0971414 0.214013 0.00569028
20639 3 0.274789 0.214339 0.00127113
2216 3 0.292351 0.215374 0.00602478
2217 1 0.285607 0.214375 0.00458506
20640 1 0.282731 0.214548 0.00345709
12886 1 0.415857 0.215861 0.0297892
19779 1 0.443865 0.188611 0.00124233
8319 1 0.0508813 0.220485 0.0279094
8318 2 0.0587894 0.219463 0.0293061
2215 1 0.299578 0.217407 0.00746086
14404 1 0.439483 0.243701 0.0175432
14405 3 0.439938 0.239899 0.0242995
6011 3 0.158501 0.26572 0.0234555
6012 1 0.153408 0.265686 0.0293254
6010 1 0.161988 0.266834 0.0171316
10310 2 0.167592 0.265384 0.00785534
10311 1 0.163254 0.266239 0.0148617
10309 1 0.172226 0.263179 0.000696378
18177 1 0.388329 0.27573 0.028531
17478 1 0.388454 0.27792 0.0264408
7430 3 0.414915 0.276596 0.0215713
7431 1 0.412196 0.276016 0.0145647
3040 1 0.410285 0.276056 0.0123817
3041 3 0.407505 0.276739 0.0039237
7429 1 0.417213 0.2789 0.0286532
13748 3 0.151615 0.283115 0.0015305
13749 1 0.14439 0.288234 0.00507152
13747 1 0.1594 0.281391 0.000625064
17477 3 0.388746 0.282545 0.0197354
17476 1 0.389716 0.285631 0.0126371
9585 1 0.441651 0.287444 0.00550759
9584 3 0.448748 0.291349 0.00807733
9583 1 0.456223 0.291712 0.00912804
5264 3 0.0552611 0.0276088 0.0492118
5265 1 0.0540238 0.020767 0.0458585
14673 1 0.551671 0.010888 0.0366705
5148 1 0.552342 0.0249866 0.0477829
5147 2 0.559517 0.0280471 0.0476299
14671 1 0.567207 0.00503416 0.0334739
14672 2 0.558944 0.00765924 0.0347861
10503 1 0.0516685 0.0532634 0.0353555
5263 1 0.0582654 0.0358931 0.0521416
14895 1 0.059168 0.038555 0.0534326
10502 3 0.0599873 0.0557723 0.0343532
14893 1 0.0666333 0.0508708 0.0595408
11428 1 0.0684801 0.0526651 0.0604651
14894 3 0.0621397 0.0449227 0.0566652
11203 1 0.070943 0.0568194 0.0361741
11205 1 0.0860795 0.0609866 0.0401028
11204 3 0.0789302 0.0584346 0.0382506
10501 1 0.0680683 0.0566025 0.0355983
6332 3 0.0987957 0.0579438 0.0311103
7964 3 0.0962488 0.0560032 0.0508759
7965 1 0.09806 0.0571876 0.0423364
7963 1 0.0965043 0.0537594 0.0594992
6331 1 0.0983557 0.0573024 0.0394311
13542 1 0.422437 0.0570616 0.0322502
13540 1 0.436359 0.0522621 0.0328129
13541 2 0.429696 0.0545582 0.0320446
5146 1 0.565713 0.0314536 0.0485261
16798 1 0.0209261 0.0821543 0.0310171
16800 1 0.0257859 0.0850128 0.0449812
16799 2 0.0239153 0.0828781 0.0384624
698 3 0.0582081 0.0841653 0.0471056
699 1 0.0522438 0.0864976 0.0522779
10615 1 0.0499067 0.0880534 0.0536848
10616 3 0.0428203 0.0903855 0.0564725
10617 1 0.0352468 0.0920446 0.0571937
12404 3 0.0763668 0.0803346 0.0396609
12405 1 0.0688599 0.0817223 0.0429147
697 1 0.0660945 0.0824726 0.0442857
12403 1 0.0835548 0.0804591 0.03746
20176 1 0.177907 0.0740969 0.0306317
3594 1 0.232199 0.0871439 0.0434111
4358 3 0.578299 0.0857821 0.0431098
4359 1 0.581095 0.0799723 0.0382645
4357 1 0.576886 0.0917575 0.0488928
3593 2 0.229652 0.0946735 0.0418555
3592 1 0.227354 0.100706 0.0372809
13818 1 0.226215 0.103084 0.035541
13817 3 0.222133 0.108962 0.0326966
13816 1 0.217236 0.115654 0.0311335
10464 1 0.0155709 0.139972 0.0468736
10463 2 0.0200903 0.141374 0.0537257
10462 1 0.0234337 0.142965 0.0602188
10069 1 0.304146 0.140802 0.0483912
10070 3 0.304282 0.134155 0.054473
10071 1 0.302613 0.127653 0.0591828
5332 1 0.401746 0.185772 0.0439696
12547 1 0.433773 0.184727 0.0387298
12548 3 0.433894 0.184045 0.0459991
12549 1 0.435681 0.184378 0.053952
1325 2 0.499835 0.177874 0.0579379
1324 1 0.499197 0.172007 0.0522895
21155 2 0.519175 0.167888 0.0577521
21154 1 0.514198 0.173656 0.0570192
21156 1 0.524487 0.162192 0.0592156
17638 1 0.098183 0.204247 0.0431995
17640 1 0.0969062 0.189848 0.0366632
17639 2 0.0967203 0.19696 0.0403155
13819 1 0.398028 0.195235 0.0593273
5334 1 0.406705 0.200188 0.0368557
5333 3 0.40412 0.193531 0.0405145
12888 1 0.407907 0.202349 0.0349218
12887 3 0.412378 0.208682 0.0319283
10149 1 0.428308 0.200878 0.0439024
10148 3 0.427871 0.206551 0.0483816
15832 1 0.43062 0.214438 0.0551007
10147 1 0.430044 0.212155 0.0533127
19724 3 0.545349 0.200907 0.0403617
19723 1 0.54677 0.193444 0.0368695
4209 1 0.545524 0.21229 0.043432
19725 1 0.545942 0.20937 0.0427673
8317 1 0.0659226 0.219255 0.0318755
20592 1 0.205227 0.227981 0.0414743
20591 3 0.203461 0.225244 0.0486789
357 1 0.202691 0.224601 0.0598634
20590 1 0.202892 0.224323 0.0560645
4750 1 0.274515 0.240362 0.0402505
4751 3 0.278556 0.244513 0.046147
14406 1 0.440826 0.235439 0.0304659
15833 2 0.432776 0.220675 0.0593932
4208 3 0.544027 0.21978 0.0452916
4207 1 0.543825 0.227922 0.0473904
3469 1 0.102712 0.26104 0.0542608
7503 1 0.109399 0.277352 0.0571908
3471 1 0.10853 0.274459 0.0570773
3470 3 0.104764 0.267367 0.0557797
9503 2 0.136938 0.256197 0.0400959
9504 1 0.13594 0.250938 0.0342031
9502 1 0.136542 0.257696 0.0479356
4752 1 0.28325 0.250133 0.050779
13267 1 0.285066 0.252315 0.0523586
13268 3 0.28954 0.257182 0.0567807
17619 1 0.276044 0.267579 0.0513682
17618 3 0.276862 0.272499 0.0456232
1653 1 0.315837 0.272298 0.0515212
18176 2 0.386999 0.270828 0.0349338
18175 1 0.38413 0.264091 0.0390909
3331 1 0.391937 0.253364 0.041341
3332 3 0.399358 0.253264 0.0386871
3333 1 0.405889 0.251873 0.0366726
7502 3 0.113302 0.284062 0.0573314
7501 1 0.115883 0.29079 0.0599508
10287 1 0.243074 0.299981 0.0456873
10286 3 0.249899 0.300715 0.0488177
10285 1 0.25713 0.30031 0.0521347
18030 1 0.259456 0.300028 0.0540896
18029 3 0.264745 0.301077 0.0601177
17617 1 0.278017 0.280429 0.0412475
1652 3 0.313432 0.280123 0.0509143
1651 1 0.313376 0.287987 0.0507315
2146 1 0.372553 0.279166 0.0593244
18135 1 0.520088 0.280245 0.0415292
18134 2 0.523782 0.285544 0.0477821
18133 1 0.525838 0.291261 0.0522901
1720 1 0.336557 0.00377702 0.0837681
1721 2 0.344673 0.005642 0.0877087
11429 3 0.0746444 0.0579325 0.0645183
11196 1 0.334333 0.046271 0.0861232
11195 3 0.33854 0.0524942 0.0857046
11194 1 0.343458 0.0571983 0.0866042
12557 3 0.497359 0.0574609 0.0674442
3499 1 0.519332 0.0467545 0.0853967
3500 3 0.515347 0.0397906 0.0854262
3501 1 0.511681 0.032702 0.0857185
12558 1 0.492748 0.0518346 0.0644019
11430 1 0.0802865 0.0628576 0.0664426
12556 1 0.503579 0.0628196 0.0706479
3726 1 0.49256 0.0922066 0.0805387
9912 1 0.0504135 0.11649 0.0775935
9911 2 0.0451973 0.120312 0.0731298
18149 3 0.195338 0.107776 0.0761857
18148 1 0.192953 0.107645 0.0677458
18150 1 0.197939 0.109535 0.0834387
3724 1 0.506614 0.0989392 0.0796594
3725 2 0.49964 0.0954653 0.0789012
17184 1 0.00630724 0.154416 0.088569
9910 1 0.0406529 0.124737 0.0682216
18909 1 0.231727 0.129682 0.0829642
18907 1 0.224429 0.143533 0.0860074
18908 2 0.228491 0.136625 0.0845262
1326 1 0.501186 0.184466 0.0634134
13820 3 0.403208 0.196527 0.0646995
13821 1 0.40744 0.198926 0.069797
12077 3 0.0839365 0.23468 0.0851887
12076 1 0.0808517 0.227712 0.084753
12078 1 0.0886032 0.240689 0.0862805
356 2 0.202386 0.226528 0.0688599
355 1 0.201129 0.228966 0.0763238
15834 1 0.434891 0.22651 0.0642208
11217 1 0.437591 0.235087 0.0800388
11216 3 0.435991 0.242828 0.0795377
8420 3 0.29957 0.267002 0.0690526
8421 1 0.295775 0.26313 0.0634559
13269 1 0.294109 0.261835 0.0613986
8419 1 0.303526 0.270481 0.0756163
15354 1 0.417306 0.27585 0.0815259
15352 1 0.40726 0.275365 0.0696789
15353 3 0.412073 0.276053 0.0757345
11215 1 0.434765 0.251146 0.0796442
14863 1 0.435053 0.254284 0.0800924
14864 3 0.435905 0.262528 0.081792
14865 1 0.436438 0.270089 0.0829659
4671 1 0.0235655 0.300457 0.0665826
4670 2 0.0273344 0.303154 0.0718017
4669 1 0.0322215 0.30621 0.0759231
12143 3 0.120672 0.298555 0.0664372
12144 1 0.117021 0.293203 0.0612445
12142 1 0.125371 0.303097 0.0705466
12596 2 0.192491 0.299272 0.0773952
12595 1 0.198102 0.294748 0.0786866
12597 1 0.183961 0.301192 0.0781201
18028 1 0.269929 0.303521 0.0659553
2148 1 0.371968 0.291382 0.0683203
2147 2 0.371635 0.285411 0.0638525
7781 3 0.0252113 0.00226866 0.105974
7782 1 0.0281549 0.00577659 0.0987467
15330 1 0.22516 0.0101865 0.0997141
15329 3 0.226149 0.00343373 0.101971
12869 2 0.317225 0.0184706 0.0909971
12868 1 0.310232 0.0212829 0.0917584
12870 1 0.32528 0.0175757 0.0912739
1722 1 0.350208 0.00825598 0.0923691
462 1 0.419262 0.0111637 0.118541
2962 1 0.47916 0.0274132 0.108927
12957 1 0.0337802 0.0495842 0.10801
669 1 0.0507473 0.043386 0.114144
668 3 0.0577626 0.0394937 0.117454
12956 3 0.0412007 0.0474913 0.110425
12955 1 0.0486293 0.0442894 0.112881
2964 1 0.487136 0.0399845 0.102961
2963 3 0.482567 0.0336982 0.105412
17375 3 0.379909 0.0857581 0.105368
17376 1 0.373954 0.0897918 0.106254
17374 1 0.386564 0.0828117 0.105029
5013 1 0.579279 0.0917196 0.0920365
13632 1 0.0263727 0.122868 0.114095
3580 1 0.173782 0.109381 0.0984953
3581 2 0.174703 0.103875 0.104284
3582 1 0.175519 0.0995831 0.111142
5011 1 0.569072 0.0970358 0.1047
5012 3 0.573491 0.0941168 0.098126
17182 1 0.0069974 0.139253 0.0946255
17183 2 0.00714999 0.146874 0.0913876
13631 3 0.0318347 0.125998 0.118316
1571 2 0.532968 0.175327 0.119041
1572 1 0.53625 0.168764 0.115869
6879 1 0.0319685 0.207315 0.112514
6878 2 0.0330935 0.204095 0.119165
3352 1 0.0543035 0.247606 0.104609
20295 1 0.0569458 0.24687 0.104244
20293 1 0.069762 0.24135 0.0998122
20294 3 0.0619412 0.243986 0.102439
2105 3 0.29138 0.244341 0.0991158
2104 1 0.292806 0.242343 0.0920692
3486 1 0.317916 0.231931 0.103519
3484 1 0.315254 0.245089 0.114318
3485 2 0.316733 0.238683 0.109054
10778 3 0.0283341 0.255652 0.10942
10779 1 0.019763 0.25507 0.111228
10777 1 0.0359416 0.254467 0.108605
3353 3 0.0468684 0.250734 0.106154
3354 1 0.0392033 0.254064 0.10863
3263 2 0.151324 0.278987 0.112997
3262 1 0.144497 0.278051 0.117197
898 1 0.141731 0.277733 0.11839
18553 1 0.187846 0.268408 0.100553
18555 1 0.197264 0.25403 0.0955999
18554 3 0.19165 0.261495 0.0978827
2106 1 0.292437 0.249293 0.106118
19707 1 0.0252475 0.293667 0.112547
19706 3 0.0306324 0.297256 0.116254
19705 1 0.0373153 0.302704 0.117303
3264 1 0.158485 0.279098 0.109072
5982 1 0.0207113 0.0304495 0.149987
17880 1 0.214054 0.0111363 0.1334
17879 2 0.21425 0.00246864 0.136309
460 1 0.420831 0.0255682 0.127727
461 2 0.421103 0.018347 0.122631
11197 1 0.420411 0.0283901 0.129983
1356 1 0.459117 0.00958104 0.142006
1355 2 0.465321 0.00952466 0.136009
1354 1 0.470142 0.0105595 0.129411
2992 1 0.518685 0.00740188 0.148303
5981 3 0.0176076 0.0358624 0.143007
5980 1 0.0136197 0.0415393 0.138778
667 1 0.0632974 0.039334 0.122455
21466 1 0.389678 0.0556954 0.150312
21468 1 0.373519 0.0571495 0.151124
11199 1 0.419673 0.0390842 0.140717
11198 3 0.419161 0.0333959 0.135469
17290 1 0.419813 0.0412339 0.142806
17291 2 0.421958 0.0472305 0.14718
6760 1 0.520109 0.0502393 0.129467
6762 1 0.510812 0.0505842 0.143325
6761 2 0.51518 0.0513107 0.135977
16221 1 0.364242 0.0872551 0.149617
14060 3 0.454795 0.0668468 0.149722
14059 1 0.452105 0.0666288 0.143095
18322 1 0.476916 0.0885753 0.133207
18324 1 0.462877 0.0865978 0.140334
18323 2 0.469164 0.0871366 0.136196
17542 1 0.547712 0.0652025 0.136564
15203 3 0.563704 0.0830037 0.145815
15202 1 0.569137 0.0881557 0.147409
15204 1 0.55994 0.0774299 0.143924
17544 1 0.558459 0.0753411 0.142662
17543 3 0.553592 0.0697359 0.138794
8553 1 0.571675 0.0987166 0.14415
8552 3 0.575261 0.105451 0.140736
8551 1 0.577012 0.112037 0.136574
13630 1 0.0364171 0.129279 0.123266
20179 1 0.0381102 0.131318 0.125466
20180 2 0.0433568 0.135247 0.129292
20181 1 0.0487325 0.1401 0.131147
7462 1 0.051445 0.14167 0.13246
7463 2 0.0575274 0.147272 0.134604
7464 1 0.0630506 0.152046 0.136314
3016 1 0.0658675 0.152882 0.136899
21508 1 0.00943528 0.178235 0.147552
21509 3 0.00918078 0.182771 0.141268
3017 2 0.0738873 0.155351 0.137801
3018 1 0.0814333 0.15832 0.137444
20211 1 0.0841588 0.159698 0.137383
20210 3 0.0914292 0.162878 0.138652
20209 1 0.0990214 0.165025 0.139917
9970 1 0.273599 0.182923 0.147392
9972 1 0.277303 0.167774 0.147989
9971 2 0.2761 0.174959 0.147397
15081 1 0.488052 0.184587 0.148959
15079 1 0.504273 0.17856 0.150248
15080 3 0.496327 0.180945 0.148978
390 1 0.507011 0.177307 0.151158
19020 1 0.527412 0.17892 0.142208
1570 1 0.530604 0.180587 0.123386
19019 2 0.532206 0.18422 0.147552
21510 1 0.00935341 0.18736 0.133415
6877 1 0.0315271 0.199201 0.126559
14032 1 0.257171 0.215177 0.123859
14033 2 0.25685 0.222567 0.127487
5239 1 0.257626 0.233776 0.12852
14034 1 0.257055 0.23028 0.128917
5240 3 0.259933 0.240868 0.126469
5241 1 0.262956 0.247178 0.124053
1879 1 0.0136945 0.274436 0.135662
899 2 0.134992 0.279079 0.122623
82 1 0.305696 0.26219 0.132564
84 1 0.30962 0.249997 0.140478
83 2 0.308331 0.255399 0.136516
10995 1 0.331545 0.269238 0.136499
3121 1 0.322719 0.273751 0.151294
10993 1 0.347042 0.265884 0.139014
10994 3 0.339628 0.268451 0.138145
1881 1 0.0068832 0.288163 0.130197
1880 3 0.0096936 0.281563 0.133268
900 1 0.130398 0.279388 0.129815
18123 1 0.148382 0.283456 0.149605
8377 1 0.353535 0.301134 0.125068
8378 2 0.346978 0.305472 0.124505
19183 1 0.549725 0.298301 0.151172
3180 1 0.236659 0.00163634 0.163057
3179 2 0.23032 0.000485839 0.158929
7187 2 0.273348 0.00112519 0.169194
7188 1 0.281656 0.00303568 0.166062
2993 3 0.518249 0.00607947 0.15618
2994 1 0.519907 0.00721751 0.164312
19631 3 0.532315 0.00463623 0.173814
19632 1 0.533466 0.00183443 0.166964
2304 1 0.0652041 0.0420666 0.17623
2302 1 0.0773803 0.049911 0.170823
2303 2 0.0710139 0.0458248 0.172717
21467 2 0.381203 0.0565081 0.15196
17292 1 0.426776 0.0517273 0.152649
16894 1 0.301812 0.0654629 0.164867
16895 2 0.310084 0.0670609 0.165719
16896 1 0.31797 0.0670872 0.167598
16220 3 0.356823 0.0883641 0.152917
16219 1 0.349083 0.090744 0.155967
14061 1 0.457582 0.0667745 0.157404
17461 1 0.45834 0.0669149 0.160606
17463 1 0.466634 0.0685304 0.17421
17462 2 0.463044 0.06718 0.167011
14722 1 0.473648 0.121134 0.179961
20082 1 0.475123 0.119069 0.181306
13385 2 0.00788564 0.14826 0.178471
13386 1 0.00957962 0.143343 0.172246
16756 1 0.133676 0.15477 0.170864
2518 1 0.180113 0.152245 0.159112
7882 1 0.177524 0.152648 0.158454
7883 3 0.170006 0.15481 0.15723
2519 3 0.187598 0.151826 0.162974
2520 1 0.195345 0.151632 0.167231
598 1 0.247275 0.152632 0.165123
4399 1 0.447745 0.143069 0.166579
4401 1 0.434715 0.152424 0.165028
4400 2 0.441808 0.147703 0.165726
3417 1 0.449973 0.141029 0.167416
3416 3 0.45659 0.136124 0.16905
3415 1 0.462358 0.133054 0.17259
14724 1 0.464537 0.131249 0.173506
14723 2 0.469226 0.126568 0.176366
10014 1 0.0162921 0.166688 0.181712
10012 1 0.0323818 0.165923 0.181169
16757 2 0.136473 0.162953 0.168042
6317 2 0.134478 0.181528 0.165123
6318 1 0.135532 0.173577 0.167718
16758 1 0.135608 0.17012 0.167954
7884 1 0.162614 0.15657 0.154719
3645 1 0.179318 0.175824 0.166472
3541 1 0.179865 0.174109 0.169001
3644 2 0.176573 0.180678 0.159724
3643 1 0.174588 0.18547 0.154027
3543 1 0.182758 0.164073 0.180773
3542 3 0.181166 0.169351 0.175339
599 3 0.254929 0.155876 0.163632
600 1 0.262765 0.156619 0.162545
389 2 0.514113 0.175502 0.154018
388 1 0.521059 0.173008 0.155575
6316 1 0.13449 0.189699 0.161417
19018 1 0.537048 0.187507 0.153001
5635 1 0.330103 0.243427 0.16835
6106 1 0.378735 0.234566 0.15848
6108 1 0.367582 0.243442 0.151848
6107 2 0.373663 0.237753 0.153553
7092 1 0.378658 0.226382 0.180316
3775 1 0.379557 0.223681 0.18091
1690 1 0.370564 0.24339 0.17631
7090 1 0.371912 0.240683 0.177252
7091 2 0.375159 0.233366 0.179149
20268 1 0.26617 0.260083 0.179196
5636 2 0.327113 0.248339 0.161365
3122 3 0.322285 0.266346 0.156096
5637 1 0.323533 0.25559 0.159008
3123 1 0.322542 0.258804 0.158102
1692 1 0.363947 0.256286 0.168732
1691 2 0.367639 0.250528 0.173132
12992 2 0.425065 0.276313 0.176797
19918 1 0.426893 0.267798 0.170615
12991 1 0.425929 0.270206 0.172455
19919 2 0.430678 0.262498 0.167327
19920 1 0.43423 0.257851 0.161284
18121 1 0.133235 0.282483 0.155658
18122 3 0.140644 0.283227 0.152817
659 3 0.241099 0.304929 0.177206
660 1 0.24221 0.297344 0.175073
12993 1 0.426495 0.282446 0.18133
1093 1 0.491967 0.295604 0.163917
1094 2 0.498192 0.297056 0.16856
12792 1 0.504117 0.301756 0.177092
1095 1 0.502547 0.300488 0.174452
3361 1 0.560169 0.302393 0.165506
19185 1 0.558644 0.301529 0.163617
19184 2 0.553845 0.300214 0.157472
3363 1 0.567139 0.306504 0.180051
3362 2 0.563708 0.304521 0.173074
13552 1 0.0609093 0.00226898 0.20486
19269 1 0.128782 0.0271932 0.19543
19267 1 0.122553 0.0151715 0.204991
19268 3 0.125674 0.020807 0.200217
11282 2 0.305341 0.0082178 0.192886
11283 1 0.29936 0.0099132 0.196063
11281 1 0.313011 0.00616188 0.189466
8888 2 0.480997 0.024316 0.194167
8887 1 0.48365 0.0306231 0.188244
8889 1 0.477895 0.0162166 0.197082
19630 1 0.530864 0.00650987 0.18196
14710 1 0.13861 0.0500059 0.202758
14711 3 0.132541 0.0475357 0.19765
14712 1 0.127199 0.0448621 0.192154
17178 1 0.17842 0.0613808 0.184511
17177 3 0.182096 0.0585861 0.191312
4124 2 0.192633 0.0571167 0.206849
17176 1 0.186157 0.0572902 0.19767
4123 1 0.188018 0.0570598 0.200332
19627 1 0.493257 0.0551761 0.210773
8320 1 0.565301 0.0341941 0.208699
8321 3 0.561929 0.0405423 0.209773
20080 1 0.485205 0.111053 0.192844
20081 2 0.479858 0.11412 0.186828
13384 1 0.00507766 0.152265 0.18411
18634 1 0.183712 0.153295 0.193993
11015 2 0.500225 0.153429 0.188421
11014 1 0.496721 0.147941 0.184646
2083 1 0.494011 0.136495 0.206335
10013 3 0.0244135 0.166007 0.181904
10413 1 0.0131665 0.167338 0.181891
10412 2 0.00602571 0.169739 0.183131
18636 1 0.183183 0.16218 0.182742
18635 3 0.184597 0.156968 0.187815
11016 1 0.504112 0.15954 0.191738
2637 1 0.14015 0.210822 0.1925
2636 2 0.133077 0.212277 0.191397
2635 1 0.12666 0.21446 0.187505
5158 1 0.304031 0.19557 0.190792
5159 3 0.303989 0.203736 0.191431
5160 1 0.303908 0.211854 0.192786
3777 1 0.383491 0.208428 0.186097
3776 2 0.381461 0.21627 0.18323
15940 1 0.292859 0.230249 0.197253
15941 2 0.295192 0.23872 0.197028
15942 1 0.295622 0.247111 0.194233
19015 1 0.28288 0.246464 0.206066
18280 1 0.547795 0.234763 0.190088
18281 3 0.553472 0.23351 0.185611
18282 1 0.561631 0.232595 0.183029
1458 1 0.0426386 0.264515 0.181881
5530 1 0.05123 0.273949 0.195698
1457 3 0.0461147 0.269605 0.186969
1456 1 0.0498497 0.272689 0.193355
5531 2 0.0550679 0.277244 0.202446
20266 1 0.273828 0.255 0.192655
19017 1 0.275586 0.253871 0.19498
20267 3 0.269919 0.257424 0.185712
5840 2 0.295541 0.256783 0.189788
5841 1 0.295692 0.249943 0.192903
5839 1 0.295769 0.261805 0.183953
19016 3 0.277949 0.249246 0.200653
19648 1 0.341269 0.275376 0.204729
19649 2 0.342194 0.272259 0.211016
5532 1 0.0575454 0.282236 0.207744
7912 1 0.0583337 0.284198 0.209679
18453 1 0.0373065 0.295913 0.194585
18451 1 0.0431367 0.309966 0.200984
18452 3 0.0404558 0.302835 0.196935
12791 2 0.509046 0.306141 0.182794
14349 1 0.111267 0.00590932 0.233703
14348 3 0.112176 0.0116619 0.23946
16644 1 0.111068 0.00370163 0.231522
5128 1 0.236816 0.00784864 0.232177
13737 1 0.238036 0.0105118 0.232617
13736 2 0.242302 0.0173884 0.232666
5129 3 0.23231 0.000294944 0.231259
2375 2 0.270004 0.0210759 0.235719
13735 1 0.246807 0.0236373 0.232011
1639 1 0.247795 0.0265713 0.231835
2374 1 0.263417 0.0190066 0.233066
2376 1 0.277499 0.0214061 0.237772
15763 1 0.298881 0.0173087 0.238432
19410 1 0.430851 0.0201671 0.23504
19408 1 0.439861 0.00698657 0.233952
19409 3 0.435297 0.0136582 0.234688
19896 1 0.467939 0.0120525 0.227713
19895 3 0.465162 0.00433063 0.229553
1302 1 0.469488 0.0147155 0.227105
1301 2 0.474191 0.0216985 0.225552
1300 1 0.4776 0.028003 0.224275
19101 1 0.478748 0.0304953 0.223599
7320 1 0.507968 0.014932 0.241695
7469 3 0.534713 0.00743056 0.236458
7468 1 0.541847 0.0111895 0.238644
7470 1 0.526534 0.00555165 0.23562
5939 2 0.580661 0.0284388 0.242266
4125 1 0.197685 0.057243 0.212247
1640 2 0.250943 0.0352836 0.231386
10512 1 0.255257 0.0449295 0.22948
1641 1 0.254043 0.0420736 0.230223
10511 2 0.258081 0.0518133 0.227327
10510 1 0.262821 0.0587176 0.223801
8748 1 0.264511 0.0611743 0.222456
19544 3 0.317133 0.0346331 0.239559
19543 1 0.324681 0.0322936 0.239701
19545 1 0.308856 0.0376919 0.241585
19100 2 0.481801 0.0374491 0.219998
19099 1 0.48404 0.0429222 0.21641
19628 2 0.498177 0.0598116 0.216687
8322 1 0.557197 0.0462315 0.213053
8747 2 0.268331 0.0681211 0.22061
8746 1 0.269621 0.0764264 0.219812
19629 1 0.504317 0.0637525 0.221765
11547 1 0.12768 0.117219 0.238257
11546 3 0.126356 0.124345 0.242362
4162 1 0.225049 0.152919 0.223541
2084 2 0.495852 0.139334 0.212644
2085 1 0.49725 0.142197 0.221037
193 1 0.498613 0.143464 0.22368
194 2 0.501299 0.147317 0.229392
195 1 0.502132 0.15238 0.235478
1760 3 0.573935 0.152255 0.230229
1761 1 0.575532 0.144826 0.227508
4629 1 0.157867 0.181004 0.21596
4164 1 0.218683 0.166692 0.225779
4163 2 0.22111 0.159831 0.224011
1759 1 0.571368 0.158914 0.234408
12287 3 0.117804 0.208858 0.225551
12286 1 0.112115 0.210585 0.230107
12288 1 0.123323 0.205233 0.221262
4627 1 0.159054 0.19628 0.219769
4628 2 0.159592 0.18839 0.217438
3330 1 0.159856 0.214617 0.221314
3329 3 0.15837 0.207031 0.220098
3328 1 0.158702 0.199174 0.219526
15819 1 0.176637 0.209488 0.225875
15817 1 0.176697 0.22647 0.222404
15818 3 0.176391 0.21823 0.22376
7056 1 0.335749 0.235824 0.23905
7055 3 0.342587 0.23335 0.241281
1158 1 0.14236 0.261354 0.236646
885 1 0.342489 0.265898 0.221425
19650 1 0.342456 0.267571 0.219067
883 1 0.343638 0.255023 0.235208
884 2 0.343714 0.261502 0.228609
7913 3 0.062226 0.289753 0.214427
7914 1 0.0658051 0.294149 0.220328
10513 1 0.130941 0.292541 0.240959
2980 1 0.163447 0.294382 0.237665
2981 2 0.169127 0.289641 0.24151
16083 1 0.293672 0.307229 0.2287
17022 1 0.296135 0.306131 0.230133
17021 2 0.301592 0.303208 0.234218
16082 2 0.287849 0.309647 0.225408
17020 1 0.307604 0.299549 0.238598
17768 3 0.381354 0.30787 0.237855
5418 1 0.0329196 0.0114053 0.262827
5417 2 0.0343758 0.0154549 0.25624
5416 1 0.0337934 0.0207688 0.249028
14347 1 0.112624 0.0167804 0.246094
18228 1 0.140947 0.0244896 0.253021
18227 2 0.140522 0.0292768 0.259241
11404 1 0.235508 0.0156734 0.269425
15764 3 0.304109 0.016608 0.244199
13064 3 0.317371 0.0138653 0.256891
13065 1 0.32489 0.0132631 0.261459
13063 1 0.312313 0.0144122 0.251612
15765 1 0.309741 0.0149302 0.249853
7318 1 0.516709 0.0256861 0.247865
4092 1 0.494063 0.00685685 0.244139
4091 3 0.491097 0.000110865 0.247183
7319 3 0.512796 0.019274 0.246323
9995 2 0.580379 0.017392 0.257899
9996 1 0.580316 0.0146815 0.265802
5940 1 0.580023 0.0237491 0.247484
9994 1 0.580141 0.0217432 0.250175
13963 1 0.143619 0.0343322 0.268047
18226 1 0.142695 0.0330243 0.265797
4173 1 0.51616 0.0324219 0.266809
8387 2 0.581767 0.0499839 0.261814
8386 1 0.581588 0.0423673 0.264514
8388 1 0.581022 0.0576513 0.259018
13221 1 0.0255276 0.0850566 0.267558
5533 1 0.0264801 0.0878778 0.267233
13220 2 0.0226564 0.0778228 0.268918
13219 1 0.0208524 0.0707302 0.272389
6151 1 0.421809 0.0862195 0.261769
6152 3 0.426658 0.088188 0.254941
6153 1 0.432294 0.0898529 0.249309
5534 3 0.0288803 0.0949602 0.266909
5535 1 0.0319771 0.102109 0.265707
4806 1 0.202311 0.123682 0.244563
4804 1 0.19189 0.114382 0.250828
4805 3 0.197724 0.118785 0.246518
3793 1 0.248892 0.109492 0.262089
3795 1 0.248968 0.093147 0.262548
3794 2 0.249433 0.101283 0.263223
11545 1 0.125244 0.131316 0.24737
19575 1 0.370137 0.137377 0.268307
16916 3 0.505416 0.151957 0.255614
16915 1 0.504138 0.148654 0.249066
3908 3 0.536048 0.143983 0.249222
3907 1 0.533839 0.14242 0.255875
3909 1 0.538327 0.146415 0.243307
16770 1 0.248006 0.170156 0.268408
16769 3 0.248811 0.178553 0.269247
16917 1 0.502263 0.155458 0.26202
15421 1 0.245682 0.204909 0.271683
15423 1 0.250902 0.189594 0.26998
15422 3 0.249439 0.19761 0.27112
16768 1 0.250905 0.186762 0.269713
9483 1 0.463324 0.207983 0.24415
9482 3 0.465429 0.214141 0.248102
15682 1 0.0265271 0.228584 0.25339
15684 1 0.0376579 0.24065 0.25049
15683 2 0.0322765 0.234626 0.251941
7054 1 0.350562 0.231826 0.243479
9481 1 0.468136 0.220923 0.251518
4340 2 0.471975 0.245337 0.259916
4339 1 0.473947 0.24162 0.254377
4341 1 0.471826 0.248064 0.267168
12818 3 0.113582 0.277122 0.25664
12817 1 0.107866 0.270391 0.259578
15972 1 0.106012 0.268318 0.260424
15970 1 0.0957439 0.257068 0.261817
15971 3 0.101278 0.262897 0.262152
1157 2 0.145407 0.261879 0.24413
1156 1 0.147654 0.263041 0.251625
5345 2 0.395115 0.269674 0.253913
5346 1 0.393306 0.261673 0.255797
5344 1 0.398234 0.277841 0.254339
12937 1 0.0883588 0.2943 0.245182
12938 2 0.0918918 0.301924 0.242748
10515 1 0.119259 0.285363 0.251594
12819 1 0.117425 0.283404 0.253086
10514 2 0.124232 0.289771 0.247738
19708 1 0.17816 0.282979 0.245809
2982 1 0.175746 0.284687 0.244583
19709 3 0.183467 0.280229 0.251259
19710 1 0.188157 0.279163 0.256368
17767 1 0.378473 0.303628 0.24346
5016 1 0.427625 0.296688 0.251944
16366 1 0.402268 0.295559 0.260223
16367 2 0.400769 0.288041 0.257412
16368 1 0.398735 0.280452 0.254842
5015 3 0.434759 0.299717 0.251637
5014 1 0.441693 0.303839 0.251464
674 3 0.0241582 0.0281532 0.297796
675 1 0.0253384 0.0219733 0.302523
3874 1 0.0600858 0.0150544 0.289992
3876 1 0.0646998 0.0268031 0.300101
3875 3 0.0623837 0.0209682 0.294578
10600 1 0.065403 0.0291924 0.301077
11406 1 0.23679 0.00806312 0.284155
20516 2 0.235113 0.00365945 0.294775
20517 1 0.236857 0.00661131 0.287139
11405 3 0.236189 0.0117482 0.276597
4114 1 0.333545 0.00794769 0.296353
6971 2 0.358909 0.0158959 0.291487
9741 1 0.367387 0.0201545 0.286344
6972 1 0.365223 0.0187065 0.288094
4116 1 0.3494 0.0105717 0.29384
6970 1 0.352024 0.011994 0.29351
4115 2 0.341395 0.00954719 0.295334
9740 3 0.373071 0.0224621 0.280889
9739 1 0.377697 0.0252855 0.274474
10728 1 0.459326 0.0186757 0.290924
10727 3 0.4649 0.0182735 0.297603
4171 1 0.513842 0.0256492 0.28101
4172 3 0.512738 0.029461 0.274217
9543 1 0.5499 0.0224414 0.292501
9541 1 0.544303 0.0124004 0.283003
9542 2 0.547645 0.0170195 0.287905
21483 1 0.566593 0.00400797 0.285357
17717 3 0.00182216 0.0571905 0.3003
6926 3 0.000445241 0.0582866 0.279478
673 1 0.0229386 0.0353262 0.294667
8299 1 0.0223602 0.0384351 0.293364
8300 3 0.0221006 0.0447822 0.288114
19135 1 0.022088 0.0544715 0.283692
8301 1 0.0218371 0.0523486 0.284511
19136 3 0.0216893 0.06168 0.279158
10601 3 0.0676068 0.0367381 0.302289
13964 2 0.146334 0.0384034 0.273754
13965 1 0.149488 0.0417628 0.27992
6875 3 0.235363 0.0477225 0.293009
6874 1 0.235463 0.0400012 0.287681
6876 1 0.235689 0.0542571 0.296375
2401 1 0.314393 0.0595389 0.285361
6927 1 0.00403126 0.0659488 0.280956
13958 3 0.000324482 0.076404 0.29654
17716 1 0.00266271 0.0640655 0.296674
19137 1 0.0205703 0.0681339 0.274102
17610 1 0.216314 0.0842194 0.284311
17609 3 0.222302 0.0894342 0.283793
2402 3 0.316347 0.0670375 0.284865
2403 1 0.318117 0.0751347 0.28467
12883 1 0.395134 0.0653039 0.277821
12884 2 0.397561 0.0740429 0.276741
231 1 0.400495 0.0844757 0.275848
12885 1 0.3996 0.0819808 0.276181
230 2 0.402695 0.0921143 0.275612
2412 1 0.572175 0.0835231 0.28372
2411 2 0.577309 0.0808451 0.288609
21014 3 0.56382 0.088475 0.277518
21013 1 0.569944 0.0850424 0.281839
21015 1 0.558394 0.0927099 0.273207
4819 1 0.000561089 0.0948019 0.299949
20733 1 0.00912137 0.108254 0.290274
11452 1 0.00641129 0.108003 0.289764
20732 3 0.0173829 0.109879 0.290759
20731 1 0.0255105 0.110157 0.289992
21565 1 0.0287336 0.110075 0.290153
3773 3 0.0539105 0.119083 0.289223
3772 1 0.0472918 0.115692 0.288999
21567 1 0.0442978 0.114227 0.289561
21566 3 0.037088 0.111314 0.291212