ITEM: TIMESTEP
20000000
ITEM: NUMBER OF ATOMS
855
ITEM: BOX BOUNDS pp pp pp
0.0000000000000000e+00 5.0000000000000000e+01
0.0000000000000000e+00 5.0000000000000000e+01
0.0000000000000000e+00 5.0000000000000000e+01
ITEM: ATOMS id type vx vy vz 
3081 1 -0.677272 5.8418 3.48995 
20851 1 -2.76606 5.2074 -1.93179 
3079 1 1.36743 1.67191 3.62297 
3080 2 -3.80835 -4.22408 1.58937 
4330 1 0.632001 -2.57485 1.13638 
20579 2 2.00311 2.9437 -0.545954 
20578 1 1.14125 0.866897 1.86789 
16524 1 2.96673 2.62254 2.38665 
7748 2 0.51832 -0.611072 1.89642 
16523 2 -1.62524 1.07307 -0.220481 
6214 1 5.72733 -0.72491 -3.61582 
7747 1 5.41453 -8.82332 2.52999 
6406 1 -7.2041 -0.255766 -1.64429 
6215 2 1.22709 -1.31191 1.13145 
6216 1 -4.63915 -5.71075 5.24063 
3666 1 -5.4439 -2.62478 2.9835 
9869 2 -7.02366 1.65446 -0.677646 
9870 1 -0.334765 -2.44746 3.56868 
18060 1 1.92035 3.51571 -3.98119 
18059 2 1.11021 -3.51803 3.26796 
18058 1 0.572383 -0.88041 -1.41614 
479 2 -0.789941 1.55545 0.851257 
478 1 1.58639 2.12939 6.91413 
480 1 11.9841 -4.00486 2.04511 
5626 1 -0.281239 -1.46056 5.1854 
1937 2 -0.304135 7.41383 2.65826 
6752 2 3.67631 -1.76255 2.78102 
6753 1 1.05586 -0.249879 -8.67826 
4564 1 3.39963 2.33825 -1.99972 
6751 1 -0.207179 -2.12887 -3.34886 
7749 1 2.32902 1.17667 -0.165462 
19362 1 4.03055 -0.734125 -3.54416 
1936 1 -5.19586 3.56679 -7.5918 
9868 1 -2.54191 -2.5187 -4.32136 
1336 1 1.40091 2.34239 1.38718 
1337 2 1.30868 -3.56259 -0.799434 
19360 1 -3.55158 5.77541 -0.184786 
1338 1 -5.68679 -4.45166 -2.99677 
6407 2 -3.06633 2.6918 -2.61771 
19361 2 -1.62422 2.95692 2.05004 
8803 1 3.32567 -11.2904 -2.17566 
4263 1 4.87764 7.84527 0.4147 
6408 1 2.11 3.82894 -0.906084 
4262 2 -0.116136 0.314212 -4.29779 
4261 1 -5.20444 1.29497 3.20843 
3665 2 0.235543 1.82124 0.0443652 
8805 1 -1.21083 8.69184 -2.2573 
5404 1 -0.380349 1.77986 -5.05825 
3664 1 -5.58335 1.55744 -1.91777 
8804 2 -4.38798 1.16986 -1.9895 
3836 3 4.44356 -2.83325 -1.72722 
3835 1 3.31769 0.990912 3.72751 
3837 1 1.74348 0.270558 2.54506 
9903 1 -0.651215 -4.96263 -1.54514 
9902 2 2.63455 1.47871 -0.855058 
9901 1 0.792069 0.67259 1.6349 
2539 1 -1.01644 -0.536661 3.89427 
7176 1 -5.71501 -8.94467 -1.91243 
8587 1 7.48775 5.11966 1.18009 
8588 2 -0.828288 3.94409 -4.22408 
8589 1 3.05365 4.06767 1.41605 
6684 1 3.96786 0.221339 4.48321 
13976 2 2.3531 -0.718059 -2.28967 
13975 1 -3.08645 0.686725 -1.5559 
14559 1 4.27233 -0.719376 5.26561 
14558 2 -0.913168 3.0105 5.97977 
14557 1 -1.17219 2.17781 -5.97254 
5627 2 -3.67051 1.61358 4.20016 
11762 2 -2.3094 -1.24268 -3.05546 
8554 1 5.13045 -2.11375 -7.93044 
3991 1 -2.65491 -0.360306 0.016258 
5628 1 4.03711 0.635987 -4.56693 
1344 1 8.01199 7.11488 6.48819 
11763 1 0.356703 -6.81239 -1.36629 
3992 2 -0.941427 2.50576 -1.15581 
4565 2 -2.3439 2.58145 4.55833 
1342 1 0.250118 -6.12334 -0.560748 
11933 2 2.07165 -1.38971 0.73161 
1343 2 -1.86623 -0.111176 -6.20591 
11934 1 6.60867 -1.29878 -1.2018 
7740 1 2.56259 4.38812 -4.78263 
4566 1 -0.361002 -1.10172 4.84706 
1938 1 3.00505 0.15918 4.70472 
7357 1 -2.86313 -2.09557 4.75722 
17232 1 0.924051 4.45436 0.0634236 
7739 2 -0.711722 -2.10694 -0.706905 
17230 1 -3.97582 1.08643 -4.61487 
7359 1 1.97279 -3.79607 -6.74257 
17231 2 2.92896 -2.59219 -5.12559 
7358 2 -2.17375 0.699779 1.50508 
20200 1 2.16835 -1.10427 9.59611 
20202 1 4.10174 2.97242 4.54133 
20201 2 -7.4422 -4.16098 1.26586 
12600 1 -2.27598 -3.9906 0.820323 
12599 2 1.74167 1.228 0.653867 
7738 1 -2.68761 -2.19875 -9.0658 
3273 1 0.43853 -5.67068 -0.194127 
13977 1 -4.4493 5.66423 2.94564 
7029 1 -0.53515 5.23313 -1.85325 
7028 2 2.50141 0.713866 3.15971 
17890 1 -1.0035 -0.258864 1.76835 
7027 1 -3.6145 -8.25878 -3.09831 
17891 2 -2.20416 0.0505829 -0.0481435 
12785 2 1.02689 -2.30676 -1.43011 
5405 2 -2.12056 -3.12536 3.00744 
17526 1 -0.766116 -1.57528 -4.8785 
4656 1 0.92795 -0.862857 1.98803 
4655 2 1.133 -0.543796 1.46977 
6156 1 7.35325 -7.04129 2.49166 
17866 1 3.84023 1.40696 2.7774 
4654 1 -0.552648 -2.24685 -0.750997 
17867 2 0.622819 -1.9158 -4.42131 
18675 1 -1.33518 -2.26993 0.40184 
18674 3 1.88376 0.79691 0.936451 
17868 1 1.85828 1.98029 7.28355 
18673 1 -3.95998 2.32358 -0.376019 
5838 1 1.86286 -3.92969 2.45162 
15511 1 -5.27209 1.41095 -5.9823 
15512 2 -1.17048 1.39447 5.58486 
15513 1 4.77431 -1.37572 6.10515 
11532 1 2.04013 -4.67816 3.55836 
11464 1 -3.62236 -6.61868 -0.248248 
11531 2 -1.32409 -3.08718 3.91004 
11530 1 0.747095 5.91113 -1.90975 
15378 1 -3.76477 0.0641105 -0.398276 
17524 1 3.29631 -6.08618 4.10459 
17525 2 -0.121644 1.32799 -0.454783 
14317 1 -1.45286 -6.56052 1.22172 
14319 1 2.49934 -1.56708 13.7121 
14318 2 -4.01782 3.16933 -1.16497 
2541 1 -6.20885 0.810698 -5.21127 
15990 1 1.25781 0.83119 -1.59418 
15989 2 0.708877 4.1296 -3.69058 
2540 2 -0.216302 -1.67512 3.02579 
15988 1 6.99008 0.728571 -0.0924949 
7175 2 1.23645 -0.499489 3.83403 
7174 1 5.32846 1.26071 -4.19164 
6683 2 2.32161 2.68261 -0.189268 
6682 1 2.87252 2.38266 10.4737 
14010 1 1.75344 -2.21831 -5.27909 
14009 2 0.694675 -1.61672 2.62123 
13962 1 -4.19156 -0.862625 1.81499 
14008 1 0.0481129 5.03298 -1.46807 
5836 1 -5.37028 -3.30952 2.23367 
13961 2 -2.34052 -2.93668 1.15913 
12504 1 -5.02649 -6.90899 -6.66783 
12503 2 -1.3714 3.72799 0.302357 
5837 2 -3.74339 2.41096 2.64061 
8202 1 0.614684 2.00475 4.10208 
1219 1 -2.80143 1.14334 -1.05524 
12502 1 -2.00135 -1.44499 2.53813 
11728 1 -0.130079 5.2737 0.796998 
1220 2 -0.998117 0.780453 0.897099 
1221 1 -1.66219 -0.391085 3.36726 
11729 2 2.09339 2.83651 1.79557 
8201 2 -1.15446 -1.14021 2.31002 
8200 1 -5.25414 -2.97927 0.480837 
3895 1 -0.932306 7.72072 3.4501 
21010 1 3.43622 0.416338 1.63411 
3788 2 -0.101889 -1.89172 -2.11064 
11465 2 -0.157684 -1.89972 0.529001 
11466 1 -0.78301 7.20919 -2.69195 
4971 1 -7.53405 7.32272 5.49724 
21012 1 -2.21987 1.43024 1.99236 
21011 2 -1.17614 0.450731 1.82352 
4970 2 -3.00791 2.71266 -3.14833 
3787 1 -3.50779 -1.70924 1.44829 
8555 2 -0.396675 0.0175673 4.44047 
15377 2 0.73993 4.6843 -2.49195 
15376 1 1.14373 -2.15261 1.71792 
12916 1 5.38785 -6.42649 -0.61194 
3553 1 -3.113 0.132148 5.72251 
3555 1 -0.843127 -0.748728 -2.39221 
3554 2 2.77891 -3.82486 -0.638237 
6843 1 -1.95227 2.27145 -0.676605 
20039 2 2.39988 -2.17735 4.57655 
20040 1 1.49541 -0.567708 -4.55288 
7291 1 5.86945 0.71876 -2.97101 
8556 1 0.144004 1.99387 -6.07127 
20038 1 -0.597035 4.41721 0.135992 
16438 1 1.25963 -9.72595 -1.14294 
12917 2 -0.164818 -1.19041 2.52278 
11932 1 -3.31756 -1.79814 -4.42658 
15643 1 0.452168 2.9122 -3.35188 
15644 2 -1.40295 5.48236 3.2484 
11059 1 -3.22608 2.45038 -0.431621 
15645 1 0.644651 3.35716 4.91464 
11060 2 0.244511 -0.392143 -2.1841 
21171 1 0.484356 3.63833 -4.3462 
433 1 -1.83898 -0.161767 2.51733 
21170 2 -3.06158 -2.09014 -0.27583 
21169 1 2.76197 4.03668 4.92057 
434 2 -2.37955 -2.23456 -2.15105 
435 1 -0.32932 -2.19349 3.89424 
12598 1 -6.37491 5.7204 -1.54457 
21058 1 0.378914 0.0193476 1.12093 
12784 1 4.13882 -0.32219 -0.618308 
21059 2 -2.07959 -2.26088 -3.17935 
3289 1 1.85959 -1.52193 3.80203 
3290 2 3.17477 1.95655 1.96 
3291 1 -0.910145 -5.01121 1.4464 
21060 1 2.16207 0.872853 -0.545851 
5209 1 2.4255 -5.0349 -3.91924 
5210 2 2.21802 -3.75705 1.14312 
1588 1 -5.85987 0.452776 -4.03465 
3739 1 -1.43381 1.98443 4.64626 
1590 1 -3.75345 0.569117 6.21575 
1589 2 -1.4756 -3.68944 1.11515 
13960 1 0.789411 2.18037 2.17893 
14208 1 2.2389 -1.02223 -5.35725 
14207 3 -4.80811 -0.52486 -2.57576 
14206 1 -6.00837 -1.18999 4.82798 
20685 1 -2.15149 0.78515 0.328611 
5086 1 -0.0555201 -0.21894 -6.36604 
13041 1 -5.89497 -1.17424 1.63825 
13040 3 -1.74311 -1.45801 -1.1629 
13039 1 -0.0981571 0.321181 -1.39121 
3897 1 -5.62084 -0.775174 -4.45869 
19057 1 1.0716 0.412222 -1.29409 
19058 2 -1.04821 -1.97944 -2.74904 
19059 1 -0.21341 -1.50575 4.49053 
13587 1 6.50395 4.77099 7.24922 
9880 1 -4.02448 -1.6347 3.93019 
18813 1 0.857146 2.83005 1.20652 
3085 1 -0.708709 2.04033 0.486446 
18812 2 -0.798256 -2.95631 2.66113 
7293 1 -6.28371 3.3348 -8.56438 
18811 1 6.23539 -2.35044 3.24411 
9882 1 3.70732 -4.21347 -3.0796 
9881 2 1.14669 2.77128 -2.14014 
6155 2 -0.0272637 2.35231 -0.695477 
6154 1 -5.40005 -0.851957 -0.746111 
13348 1 -1.71975 -2.71264 1.09737 
13349 2 -3.12257 1.06659 1.77705 
13350 1 0.902861 -7.25683 0.101318 
661 1 -4.60532 2.46652 -5.35926 
662 2 -0.759682 2.08087 -3.31244 
663 1 -2.75743 3.53322 -0.42917 
4762 1 -0.567798 1.22542 2.71572 
4764 1 6.34588 4.04739 0.364837 
3741 1 -7.77687 1.6908 -0.377377 
4763 2 -0.475204 2.68296 1.14954 
1432 1 -1.46027 -10.0902 1.37829 
3740 2 -2.60885 1.27044 0.283638 
5322 1 -2.9446 2.56095 -2.11181 
6556 1 -5.79201 0.147367 -3.24475 
703 1 -0.408767 -1.72762 1.99124 
6557 2 -1.26435 1.48486 0.263979 
6558 1 -0.144441 4.19257 -1.03026 
704 2 -1.4466 -2.75152 1.2213 
705 1 0.875368 -2.83862 1.93922 
11730 1 -0.400748 1.61035 0.476016 
5052 1 0.99311 5.23608 -0.600189 
5051 2 -4.26 1.38392 1.29754 
5050 1 4.72545 1.09252 0.879417 
3896 3 0.228878 3.06549 0.915026 
15416 2 5.56513 0.875222 -4.0252 
4969 1 3.85634 -0.425258 -0.512966 
10590 1 -0.0139286 -2.82181 0.27594 
10588 1 -0.391045 -0.304604 -3.11885 
10589 2 0.582953 2.94635 2.27746 
15417 1 -2.3541 -5.41209 5.01915 
2574 1 4.80211 0.573373 -4.95999 
2573 2 0.783169 -0.382241 -1.3678 
12070 1 1.01207 -3.76918 -4.19915 
2572 1 -0.416319 0.729273 -0.965374 
17823 1 0.304058 -0.0839439 -1.10324 
17821 1 -8.02615 1.43952 3.21857 
17822 2 -0.931539 -0.826112 -1.78763 
9272 2 -0.618457 -1.7388 3.44956 
16439 2 1.05678 -0.470903 -1.50605 
7292 2 -0.893018 2.15927 3.94196 
16440 1 -0.105456 3.5873 4.85733 
9271 1 -1.55137 -2.16098 0.177283 
10866 1 1.41767 1.86113 6.99319 
6990 1 0.0174655 -2.41736 -3.20301 
16608 1 0.0391672 -2.36302 3.58356 
1433 2 -4.34724 -1.19547 -0.0189686 
11969 2 -2.35703 0.034201 -1.09521 
5321 2 -3.64624 -3.10904 -4.66163 
5320 1 3.24324 -2.05621 0.665347 
10865 2 -0.452188 -0.496813 0.156289 
10864 1 -0.195989 -4.6015 2.89593 
15744 1 1.38015 2.10805 -0.228778 
11970 1 -3.66525 -3.6684 2.45816 
15743 2 -3.53132 -4.91186 -1.58924 
18531 1 1.91293 1.16072 1.6761 
5257 1 -4.76677 0.394535 0.0832023 
15742 1 2.74917 -2.10854 -1.78482 
5258 2 2.00357 -2.63961 -2.28242 
6633 1 1.79499 -1.27572 -8.03836 
5259 1 7.30744 2.1626 -4.06497 
6743 3 0.893788 -0.126991 -3.22006 
6744 1 -3.16965 -1.49463 -1.32241 
5211 1 1.2423 2.9808 3.37297 
6632 2 -4.73 3.78075 1.4401 
6631 1 -1.11368 0.8661 0.383818 
6742 1 -2.78513 4.56623 -4.60481 
5088 1 1.73843 -0.675221 4.53302 
5087 3 1.80378 -1.79942 3.72336 
20684 3 8.24546 0.616417 -2.23918 
13585 1 4.38745 4.61787 -3.90334 
13586 2 0.636244 -2.35954 0.0772803 
3086 2 0.651518 0.580356 -0.229684 
3087 1 -1.8783 -0.440242 -2.56364 
20683 1 1.64364 -0.454702 -3.01077 
6831 1 2.02774 -0.916085 1.99561 
6829 1 1.58913 0.163065 2.13133 
7644 1 -0.470633 -0.0481487 3.04369 
6830 2 0.242127 -0.98647 -3.34389 
7642 1 3.18457 -2.00058 -3.7775 
7643 2 3.0743 -3.01069 0.376361 
3301 1 -5.02969 -7.37219 1.61227 
6989 2 -3.36401 2.09753 -2.23904 
15519 1 0.402716 2.63247 -6.52489 
15517 1 -0.770537 -3.45697 4.09624 
15518 2 -0.995798 -0.174038 -2.48715 
6988 1 -2.08174 -6.04802 -4.65326 
12072 1 2.3107 -7.16993 -4.50874 
3303 1 -3.25814 -2.60314 -0.0870139 
3302 2 2.19453 -2.30908 -5.49439 
12071 2 -1.04554 2.15742 -1.76115 
18949 1 -1.52369 0.438797 5.70595 
1434 1 1.19791 4.87627 -0.528975 
11010 1 4.06452 -3.18686 6.98933 
17922 1 1.32876 4.66626 -1.57646 
17921 2 5.451 2.86521 -1.76454 
17920 1 1.55681 -2.59451 -1.73032 
331 1 -3.36988 -0.384145 -4.53053 
332 2 1.24909 3.73639 0.829245 
333 1 0.479939 -1.39835 -0.754588 
11008 1 2.26182 0.350571 4.27461 
11009 2 1.65807 3.65755 3.73879 
12929 3 -4.71478 0.223534 0.485925 
12928 1 3.32036 -0.902723 -3.58434 
12930 1 2.85079 -1.85863 1.25857 
3342 1 1.51686 -1.64366 0.428519 
7235 2 -2.90674 -1.19355 1.22276 
7236 1 0.206291 0.470819 4.20162 
7234 1 3.68469 5.20635 -0.475853 
20853 1 0.244539 2.67791 -4.83242 
20852 2 1.93279 2.4165 -0.127194 
4102 1 -2.52359 -5.37951 -1.06627 
4332 1 3.14443 0.84424 -3.74733 
4331 2 -1.91554 0.184034 2.59475 
15458 2 -3.35322 -1.89509 -0.772417 
15459 1 -0.990598 -5.27334 2.15174 
15457 1 -0.670991 -5.10104 6.77631 
16792 1 0.505627 2.73707 0.953099 
16793 2 -2.18506 -0.838521 2.57941 
15485 2 -3.30794 0.427501 7.19024 
15484 1 -5.45337 -2.92634 1.43424 
3340 1 1.14656 -0.486605 -2.83507 
3341 2 1.8742 -2.89213 4.14128 
16522 1 5.50177 -2.21109 0.526273 
5563 1 4.18017 0.154127 1.01025 
17379 1 0.400811 6.24481 0.566596 
4103 2 2.80119 0.7541 -4.88681 
4104 1 -3.42501 -2.6401 2.43622 
18788 2 0.441859 0.573707 -2.08325 
18787 1 -3.07259 -3.40153 4.22185 
9121 1 -0.831622 2.41798 -2.7009 
18789 1 -3.21498 3.53623 -6.4914 
12903 1 2.97968 -3.00104 -4.31376 
12902 2 -2.27207 5.17378 -0.280442 
12901 1 -1.31197 -0.79087 4.47162 
6543 1 -1.76114 -3.50459 4.74075 
9429 1 -1.6659 1.08053 -2.50362 
9428 3 3.18708 1.14211 3.26506 
9427 1 -0.978306 2.30302 -5.3417 
18892 1 -3.68518 -2.87 -6.0124 
9007 1 2.29333 -0.52086 6.29853 
9008 2 -2.68818 -0.460898 -0.684407 
9009 1 1.35598 -0.97781 -0.693105 
12295 1 -2.08554 -1.23186 -6.69868 
12296 2 -0.684375 2.80362 -0.84529 
8185 1 2.38826 3.15864 -6.60821 
449 2 -0.884105 0.33705 2.54032 
450 1 -2.3955 -1.68462 -1.30669 
18894 1 3.74008 -1.74639 -2.27775 
5565 1 8.87344 -2.22877 -0.985517 
18893 2 2.6405 1.31421 5.17462 
5564 2 1.47172 -3.66627 -0.833849 
21360 1 -0.662506 4.45677 0.247682 
9122 2 0.367109 -4.52654 4.73472 
9123 1 3.24372 1.5674 -6.96626 
16879 1 2.59314 -0.389849 -0.934909 
326 2 -0.412517 -0.137003 2.34143 
327 1 -6.78274 0.922501 -0.0144001 
448 1 0.467667 2.65929 2.90322 
7641 1 1.5193 4.23387 1.81049 
2628 1 1.40024 -0.693997 3.54565 
19378 1 -1.88656 2.95504 -1.76162 
2627 2 0.0979291 3.04341 -3.24794 
19379 2 3.68077 0.568756 -2.43979 
11595 1 5.01078 -0.682504 -3.00049 
2626 1 -2.12991 0.791247 1.63401 
339 1 1.62004 3.43242 0.591392 
16794 1 -1.14327 -4.33594 -2.26832 
338 2 -2.07644 -2.56255 -2.62341 
337 1 -9.54272 4.9467 -3.85328 
14301 1 -3.16181 -3.19141 -2.09234 
17628 1 6.50297 0.0248463 -1.47646 
2295 1 1.2177 5.53553 -0.0828713 
21099 1 0.832038 0.775709 -5.08985 
15486 1 4.44611 6.40184 -2.99487 
20580 1 -6.45581 3.52927 0.956708 
20253 1 0.204317 1.5165 -6.29922 
20252 2 1.3545 -0.07291 -1.6211 
2119 1 0.272605 -1.38496 1.90347 
2120 2 -2.70645 -0.0453399 -1.76324 
20251 1 3.20528 -6.29242 -4.98 
2121 1 2.12153 -2.43438 1.62524 
21098 2 -1.52999 -0.391988 -2.29566 
19618 1 1.4334 -0.377992 -6.43768 
13089 1 4.38888 -4.52511 -2.13021 
17378 2 1.87768 -2.68902 1.32933 
799 1 1.66759 -5.59863 0.985569 
800 2 0.888506 -0.72287 0.438214 
10834 1 0.460946 0.718874 -2.35365 
17377 1 -3.10724 -0.142653 2.43217 
4249 1 -5.2139 3.84424 -3.97037 
4251 1 -1.09212 0.824641 0.206103 
17886 1 -8.19744 1.80689 1.23263 
4250 2 -3.10318 -0.0277911 -0.335055 
801 1 -2.53353 1.40553 -5.41991 
6541 1 1.10189 5.45217 5.40602 
6542 2 2.14365 3.01932 -3.37378 
10835 2 -2.42066 4.45163 1.83585 
19030 1 -4.34093 6.72017 -0.318531 
15408 1 -1.98224 4.56695 -0.359967 
10836 1 -0.891075 -1.16484 -1.8131 
5383 1 -0.578807 3.20753 6.38055 
17892 1 2.04969 -1.39637 -0.938662 
19031 2 2.9321 -0.0578592 0.228333 
19032 1 -2.97143 -0.0807717 -1.75171 
11724 1 -5.4558 3.98253 -2.05665 
11723 2 -1.98306 -2.30035 2.48677 
11722 1 -0.535628 -8.18601 -3.57984 
814 1 5.70207 2.56411 5.72148 
815 2 -0.318983 1.3984 -0.715023 
19380 1 4.73408 1.81585 2.1985 
2294 2 0.385914 -1.36687 0.60522 
8186 2 2.17082 3.53124 -2.2939 
2293 1 0.751648 -0.418801 3.17768 
8187 1 2.19143 3.18933 -1.47061 
13431 1 3.43987 1.35796 2.56644 
12297 1 1.65458 -0.309154 2.60161 
3231 1 0.401437 1.55984 -5.57783 
3230 2 2.68279 -1.79385 4.81906 
13430 2 -3.07476 -1.17454 2.9761 
3229 1 0.0709942 -7.22002 -3.12966 
11391 1 -3.84534 1.13177 -3.82334 
19620 1 4.55282 3.68263 -1.99231 
19619 2 3.90132 0.216812 -2.55596 
18728 2 -0.338858 -1.21225 0.395272 
18727 1 -5.88948 -1.2751 -1.88738 
11390 2 -2.37074 5.95134 2.4857 
21359 2 3.93339 -0.167262 -3.21421 
9078 1 -0.80104 -2.42189 1.83907 
11585 2 -1.53826 -0.776808 -2.23083 
511 1 2.18575 -0.405571 2.3717 
9077 2 0.790252 0.522298 0.819189 
11586 1 2.83429 4.64365 1.48874 
15406 1 -2.33391 -4.49828 0.537779 
15407 2 -0.173762 1.92182 -2.63701 
11584 1 0.502925 -2.26312 -7.39366 
16881 1 -0.520952 -3.95718 -5.84213 
512 2 -3.06213 -0.553337 -1.22698 
16880 2 0.870201 4.86697 2.23644 
513 1 -0.0746668 1.83669 -4.70852 
325 1 2.71527 4.31943 -2.11474 
7640 2 2.51145 1.38512 2.0944 
17539 1 -1.43271 3.57452 3.70355 
17540 2 -2.11215 2.79962 -4.92174 
14259 1 -1.17368 0.262534 -5.51502 
17541 1 -0.28576 -0.871526 -2.39809 
7639 1 -0.437885 -0.34908 -1.77015 
17392 1 1.71758 -1.39158 2.91542 
17393 2 -2.77332 -0.710186 2.14602 
17394 1 1.55607 3.45406 3.04837 
18087 1 -4.46695 8.15449 1.90319 
18086 2 -1.3291 0.145753 0.791951 
10375 1 1.91592 2.24606 0.973417 
10377 1 -3.948 -6.52176 -1.56351 
10376 2 4.61492 2.6787 -3.53742 
21358 1 0.628307 -0.338061 5.48929 
1051 1 2.15867 3.08997 4.99797 
20533 1 -0.263488 2.25678 -5.89718 
1052 2 -1.15451 -1.99544 -0.283555 
1053 1 -3.69923 -2.72236 4.32632 
17565 1 2.28017 -1.21527 2.70341 
17564 2 -3.82346 -0.160296 -2.5183 
17563 1 -1.813 -3.26876 2.0002 
11761 1 -3.85471 6.11259 3.14389 
11594 2 -0.736627 -5.46498 -1.79574 
6128 2 1.8549 3.84967 -0.4626 
6129 1 7.90285 -6.68849 -0.890216 
11593 1 -6.39137 1.61296 4.88458 
9335 2 -0.439011 0.218687 -0.159084 
9334 1 -0.666465 3.80487 -0.633217 
8473 1 -1.83581 -3.69114 -5.1168 
6127 1 -0.628833 1.95551 2.82041 
17627 2 -1.13329 2.61004 1.88444 
8474 2 -0.213462 -1.40122 2.19914 
8238 1 2.16826 2.41561 -0.766707 
8237 2 -0.664793 -1.68821 -0.449773 
8236 1 0.164049 1.34241 1.43455 
7699 1 3.03254 0.505166 1.50207 
17626 1 -0.18611 0.132966 -0.88689 
8475 1 1.15016 -4.96928 0.749249 
14300 2 0.958904 2.57631 -0.538772 
14299 1 2.22203 -6.0969 -8.88512 
3993 1 1.36428 -5.36408 -1.99822 
17796 1 -8.6761 8.85446 -1.59154 
21097 1 -1.05888 1.56291 -3.85682 
6022 1 -0.112341 -1.75513 0.641379 
13088 2 4.51086 3.3774 3.02846 
13087 1 0.23947 -0.882986 2.25899 
6023 2 1.03844 2.67093 -1.05756 
5814 1 3.39546 2.5359 0.885936 
6024 1 2.17211 0.386701 5.073 
6075 1 -1.27603 -3.66203 -5.83388 
5813 2 -3.72281 -2.3314 -0.15854 
6074 2 -2.12053 1.36328 -0.625074 
6073 1 3.92571 -7.18971 0.545454 
5812 1 1.33008 4.46388 0.891875 
17795 2 -5.19376 1.66264 2.44268 
17794 1 0.593232 1.03784 -0.818623 
3271 1 0.229664 -1.57804 2.82082 
17884 1 -4.27277 2.46844 -1.96173 
11640 1 -0.653985 2.77557 -4.11272 
11639 2 0.637512 0.0680588 1.12574 
489 1 -3.17106 0.484547 6.72247 
11638 1 -2.5897 1.53711 -2.12095 
17885 2 -3.5784 -3.57018 4.83279 
3272 2 -1.30265 2.52224 2.66187 
5406 1 -2.25652 -3.70053 -0.555066 
2603 2 4.94016 -0.555831 -2.11272 
5384 2 2.06431 3.98452 -1.81708 
5385 1 2.73082 -8.87728 2.17226 
11943 1 3.28963 0.0314234 0.677169 
11942 2 5.83778 3.67411 -0.326437 
2602 1 -0.400534 3.72656 0.0579949 
2604 1 1.75792 3.77875 2.61756 
816 1 1.80937 2.76649 -4.94733 
19609 1 -2.74896 -3.46457 -2.31769 
19610 2 -1.55194 1.5256 1.58524 
19611 1 -2.15005 4.45951 -0.873815 
9336 1 5.25145 1.07124 -3.64645 
8496 1 4.29282 0.732017 0.684057 
2718 1 -4.63484 1.89378 -4.37877 
8495 2 1.32878 -0.367589 -1.48695 
13979 2 -1.02574 -2.34012 -0.134506 
13566 1 -2.00371 -0.0523947 -0.288861 
13980 1 -1.28407 1.98202 4.10102 
13978 1 3.8155 -2.34461 -6.12516 
13429 1 0.54456 -1.60344 4.92576 
6576 1 -1.69328 -1.0274 3.00593 
6575 2 2.29699 -2.58718 0.971882 
6574 1 -4.79663 6.04453 3.05653 
15199 1 1.35534 0.362442 3.50099 
2357 2 0.963456 -0.600143 -0.0323804 
2356 1 0.820204 -0.229728 -0.3221 
1618 1 0.644522 -0.366491 -3.44844 
21047 2 -0.604484 -3.68599 0.100923 
11389 1 -2.41035 7.4031 4.16693 
21046 1 6.76066 0.957543 1.83336 
8462 2 -0.128952 4.0117 -0.133293 
8461 1 -0.113277 3.8772 -3.77995 
5689 1 3.04583 4.98654 -3.85294 
18729 1 -1.78855 -6.13566 -1.46579 
8463 1 -3.64502 7.79988 -5.90245 
21048 1 4.12302 -0.830562 -4.63365 
5690 2 -2.48726 4.74984 2.21596 
15447 1 -5.79948 2.84691 0.247355 
6586 1 6.17617 0.113337 4.43681 
9076 1 -1.05451 -1.98999 2.59567 
6587 2 0.621965 -1.59301 -2.95173 
6588 1 -1.4028 -2.21319 -0.185359 
1388 2 -1.19652 4.6753 -2.00278 
1387 1 -2.80597 -2.81219 1.34933 
1389 1 0.916812 -0.519997 -4.21394 
11751 1 -3.86995 2.52547 5.70144 
11750 2 2.26447 1.65974 -1.51531 
18026 2 -0.552822 2.1474 -2.07551 
19677 1 3.33437 2.37316 5.11237 
11941 1 -1.08895 -0.684415 -4.47854 
14838 1 2.66957 -6.77355 4.96645 
18027 1 2.60312 -0.416887 0.439249 
10347 1 6.16071 -0.136083 -2.94825 
10346 2 -2.75879 -0.0121652 6.24952 
10345 1 -4.19239 -0.572314 2.43343 
11794 1 8.07004 8.78081 3.27077 
11795 2 -0.145829 2.11326 -0.651478 
2717 2 -1.47988 -2.08949 1.47783 
21391 1 -1.4291 -3.41234 3.6575 
2716 1 -3.47061 1.64835 -0.649715 
20576 2 -0.539399 2.50312 2.30883 
14258 2 -1.70549 2.75654 -3.3017 
14257 1 -4.1066 2.17712 2.72603 
20577 1 -2.20282 0.515691 -3.70225 
18085 1 -3.83259 4.08896 -0.702297 
1619 2 1.78468 2.39107 0.96943 
16905 1 0.443738 -1.7368 -2.73971 
16904 2 1.84059 2.37523 2.00228 
16903 1 4.55785 -0.561389 -1.98557 
1620 1 -3.59835 0.529351 -2.78203 
6186 1 -0.188123 7.14363 -0.650035 
6185 2 3.70654 1.57922 -3.88528 
20534 2 -1.73435 0.12934 -1.14607 
3344 2 3.84393 2.45579 3.57433 
3343 1 0.962449 -4.72135 4.87985 
20535 1 -2.97697 -0.61425 2.11162 
577 1 3.05528 1.3365 -0.234289 
578 2 1.06779 -1.29807 1.05505 
579 1 4.1812 -5.40755 0.3715 
3345 1 0.339049 -2.75493 -4.99355 
21339 1 -2.82068 0.771091 1.40188 
14837 2 -0.401275 -1.57935 -5.6988 
14836 1 1.01281 2.75577 0.783939 
21338 2 2.10336 -2.64928 -4.19193 
20830 1 -0.127037 -3.10214 1.73461 
5221 1 -2.69661 -7.5775 -2.41425 
20831 2 2.63681 2.42898 -3.01072 
5222 2 0.52254 2.43081 -0.729362 
13564 1 -5.90138 -4.68924 0.820434 
17815 1 -2.22247 3.74659 -4.98646 
17816 2 0.776131 2.27061 -2.16669 
20832 1 1.60557 4.65579 -1.05135 
6842 2 0.867601 2.2872 1.30295 
12918 1 -1.84745 -2.85137 -3.3431 
7700 2 3.62606 -6.54389 -0.211887 
17817 1 -0.492389 -0.361678 3.62833 
6841 1 2.87194 2.89414 2.97973 
16606 1 4.55822 -0.893756 1.13185 
15550 1 0.432857 -9.79377 -5.18309 
7701 1 -2.69464 -1.50451 1.37742 
15552 1 3.59286 0.571053 -0.907482 
15551 2 3.09061 1.95632 -3.19333 
13125 1 -1.73072 11.8854 -3.13839 
21145 1 -4.73803 0.362215 -0.901213 
21146 2 1.83114 -0.841694 2.1964 
11061 1 -1.01597 -4.76925 0.758934 
15445 1 -2.15767 0.995228 -6.29382 
9760 1 4.17244 2.26619 -4.34938 
16007 2 -4.26062 0.856075 -0.941855 
16008 1 1.12605 2.72998 -1.84091 
9761 2 -1.00919 1.93178 1.03765 
11218 1 3.75422 -0.768453 -1.95049 
16006 1 0.860926 1.8817 -0.740029 
11219 2 -0.961452 1.24514 0.566096 
15446 2 1.3995 -4.12894 -0.682008 
9762 1 -4.93542 1.71156 -2.63558 
11355 1 -3.16049 -1.47267 8.25003 
11968 1 3.28793 0.714254 -1.8242 
4375 1 -2.50879 2.93799 1.08244 
4728 1 -1.89532 -2.49132 -2.62977 
13194 1 1.97546 -0.0971703 2.98193 
4726 1 -0.363933 -6.01156 -2.3306 
4727 2 1.68475 -1.10151 -0.956157 
4376 2 2.4848 -1.77217 -0.370038 
4377 1 1.2242 4.04621 2.71633 
15106 1 -4.82894 -5.29466 -2.96002 
15107 2 4.2011 2.98553 0.875004 
488 2 1.73095 6.43645 -0.919279 
487 1 1.78528 -2.5797 2.6337 
15108 1 -0.236612 3.76647 1.04164 
17840 2 0.732595 3.80927 2.92674 
4788 1 -2.32277 6.60299 1.96004 
17839 1 -1.46777 -1.79356 -1.46333 
12786 1 5.04555 2.23979 -5.97891 
17841 1 3.47634 -0.81856 -0.894269 
10416 1 1.19619 4.9338 1.13566 
13565 2 -3.64682 -2.75011 -1.11422 
2791 1 -3.79872 -0.762413 -3.05677 
10414 1 -1.34772 2.77542 -6.44045 
19848 1 -0.302143 -4.53414 -5.63849 
19847 2 0.139102 1.80769 0.534934 
10415 2 2.03281 3.83513 1.65781 
2793 1 -3.20011 2.36822 -2.24559 
2792 2 0.013513 1.6515 -0.398307 
3064 1 -0.498138 0.522823 4.85115 
21147 1 3.00315 3.83172 1.36915 
8494 1 0.831288 -0.906679 -0.768583 
15553 1 -8.93095 -1.0212 -4.72072 
15554 2 -1.57894 0.24608 -0.97164 
15555 1 -3.03179 4.82371 0.641999 
13426 1 4.75488 -5.30462 7.23764 
15200 2 0.775479 -2.18372 0.565625 
15201 1 2.30605 0.504132 -2.34973 
1184 2 2.55436 -1.44237 -2.52916 
5124 1 -1.80876 -1.86578 0.924309 
1185 1 -3.85553 -4.09249 7.9782 
2368 1 -1.83 -1.11381 2.75628 
2358 1 -0.351931 -4.37778 -0.00820641 
15544 1 2.25153 -5.34664 -6.53878 
4809 1 -0.464357 -4.81853 -2.7602 
5691 1 1.15774 -3.55965 0.714051 
15545 2 -0.216135 1.36396 -1.26814 
15546 1 0.159148 -4.91765 5.30094 
4808 2 -2.2733 -2.34593 -0.228231 
4576 1 -0.402625 3.30424 2.01349 
4807 1 4.76931 -2.54176 -2.5421 
4577 2 0.971047 -0.478175 -1.59764 
8946 1 0.10359 -1.16944 2.1558 
4314 1 2.92947 11.4324 4.34548 
4313 2 1.22128 -2.68656 5.61517 
2369 2 5.06886 -1.79105 -0.790581 
4786 1 -2.88473 4.49535 3.47276 
19676 2 -6.1541 -2.42527 -0.945084 
11749 1 -1.00452 -0.125137 -0.266794 
8944 1 -1.85149 0.0188665 0.485599 
19675 1 2.21764 -3.28319 4.12963 
555 1 0.0578098 6.69721 3.7335 
18025 1 -0.219305 5.42242 -1.32702 
3466 1 0.930747 -4.38703 -5.09417 
3468 1 -2.79589 -1.89484 3.39279 
3467 2 0.904422 1.82067 2.1769 
8945 2 6.47319 -1.84639 4.29834 
554 2 -3.77036 -0.193039 -4.34489 
4787 2 -0.918149 4.32427 -2.57582 
11796 1 -1.67922 -2.48489 -0.281276 
16609 1 -3.15979 0.998611 -1.35191 
16610 2 -2.73978 2.54247 -2.06144 
21271 1 -2.01743 2.44842 -1.70592 
21392 2 6.12559 2.83531 1.14241 
21393 1 -6.83569 2.79466 -5.92887 
5122 1 0.000522866 0.985556 -2.88536 
20575 1 -3.63567 2.57434 -2.24156 
5123 2 -1.83898 -4.75507 -0.250321 
6184 1 0.317759 2.13977 0.949859 
6862 1 3.46952 -2.03305 -2.02987 
6863 2 0.222264 1.66435 0.8859 
943 1 -5.59685 -4.42332 -3.56467 
944 2 -2.57099 -3.36571 -0.457034 
945 1 2.05608 -3.04468 -2.8688 
21337 1 0.782051 3.60294 3.45944 
16611 1 -1.8949 -2.29483 -2.07412 
6864 1 -0.236405 0.709681 0.246726 
18180 1 -0.11063 1.98545 -0.339578 
2529 1 -1.30836 2.69795 -0.431733 
5223 1 4.17172 -1.40152 -1.88745 
2528 2 2.20883 -2.57693 0.855782 
9273 1 -2.14602 -0.399626 -0.494009 
7764 1 -2.17047 -3.88191 0.815091 
14361 1 3.93116 -0.406954 3.10818 
14359 1 -3.2555 5.72079 3.36072 
2527 1 1.77153 -1.96984 -0.903533 
16607 2 -2.37509 -3.08882 -0.567407 
13124 2 -2.87716 1.25235 -2.60661 
14360 2 -1.40597 -2.50965 -1.6215 
13123 1 -4.0675 7.52234 -2.99584 
1719 1 -1.29755 -0.26459 -4.35311 
1718 2 0.704499 -1.18128 3.41632 
1717 1 3.7601 3.553 0.368541 
7222 1 0.401031 1.84183 3.04166 
6601 1 -1.33138 -3.46963 -3.22802 
5590 1 1.87273 -3.23625 -3.6359 
2426 2 2.36225 6.04013 3.20163 
11220 1 2.85175 -3.15034 2.5546 
18529 1 3.76706 0.8748 2.70758 
5591 2 0.55028 -0.247429 1.24274 
11353 1 0.250012 -6.05868 6.06009 
5592 1 -0.184157 4.31478 -0.880274 
11354 2 0.516424 1.08084 0.0416637 
2370 1 0.946127 2.96715 0.0371948 
9685 1 8.61183 1.71691 -3.82943 
9686 2 -0.158526 2.02946 1.58771 
18530 2 -1.39466 -5.65071 2.57407 
19350 1 2.47545 -1.36691 -4.5589 
11423 2 3.75229 -3.95642 -1.58495 
13193 2 -1.5631 -0.0221509 0.0605489 
13192 1 -4.08718 -0.0843218 -1.66005 
19348 1 -2.89966 -1.88502 -1.14749 
9687 1 1.02173 1.23086 3.19957 
11422 1 -6.81007 4.83941 3.30732 
19349 2 2.57962 -2.70456 -1.74235 
16603 1 2.97275 -4.28335 -4.04713 
16604 2 1.66424 3.03822 2.28392 
16605 1 6.09027 2.67619 -1.55453 
5704 1 5.34059 -0.701986 2.1584 
19846 1 0.0255595 -0.517435 -0.210038 
13427 2 0.335737 4.60443 1.91289 
1183 1 0.643516 5.762 -0.323214 
13428 1 -4.33635 -2.85037 2.41498 
3207 1 4.90894 -8.29094 -0.9749 
6603 1 -4.38843 -3.69801 -1.34653 
6602 2 1.59376 1.50634 1.2916 
3206 2 1.93836 -0.821006 -0.319342 
3205 1 -1.04395 5.37573 -4.46191 
12705 1 3.34888 -0.835973 4.48565 
12704 2 1.63045 0.761511 -4.37972 
5706 1 5.17558 -5.38052 -1.59732 
5705 2 -3.56521 0.783936 0.975805 
4312 1 -1.43683 -2.87044 -7.03421 
2425 1 5.10442 1.7411 -1.98467 
5232 1 -2.3766 -1.16252 1.69276 
4578 1 2.74531 -8.40481 2.17531 
5230 1 2.84046 -2.74341 0.336015 
5231 2 3.07675 -1.23578 2.62243 
553 1 0.572954 -0.997902 3.48442 
13780 1 -1.86285 3.90181 2.02325 
13781 2 -2.00182 7.21989 -3.72179 
13782 1 -3.68989 -5.24151 -3.26682 
21272 2 -8.13121 -1.18649 2.44473 
21273 1 0.937409 4.50424 4.33717 
7224 1 -4.30327 3.52746 0.466589 
18179 2 1.71306 1.42908 -1.54752 
18178 1 0.105886 -6.4748 -2.41716 
7223 2 3.16023 0.690155 -1.58661 
7763 2 -0.257923 -0.440288 -0.803551 
7762 1 6.12119 3.76994 -1.07504 
16847 2 -3.07492 -3.08234 0.829094 
2427 1 -0.219616 8.09089 2.88388 
16846 1 2.28094 0.976885 0.763999 
13640 2 -1.50502 2.5134 -1.37928 
16848 1 2.90706 4.53774 -4.79154 
18951 1 0.581568 -2.01848 -3.4115 
18950 2 4.65898 -5.6647 -2.52207 
17248 1 2.87006 -6.1578 4.60943 
11424 1 1.42519 -4.29913 -6.25793 
17249 2 0.963834 0.103994 -1.23752 
17250 1 -1.03853 7.64916 -4.34853 
3892 1 -3.28703 2.28744 5.02262 
12703 1 -0.633972 -0.319286 3.47466 
13639 1 0.511021 -4.90557 -3.4907 
3894 1 -1.81079 -2.61944 4.74571 
3893 2 1.40237 4.258 -1.61336 
6917 2 1.63976 -2.38021 -3.39296 
6916 1 -3.3561 -5.03698 1.83325 
6918 1 4.15171 1.11348 5.32703 
13641 1 -1.27081 -4.67863 1.59102 
9864 1 1.85956 1.05705 0.640499 
9862 1 1.50487 -3.22337 -0.300066 
9863 2 -3.90342 -1.48715 -1.76504 
2235 1 0.496886 -2.61187 2.70487 
2234 2 -2.10799 -1.62226 -0.0748624 
2233 1 1.1755 -2.10162 -0.561055 
18312 1 -1.64266 2.90114 -0.965845 
8907 1 0.630119 -2.74206 6.97675 
3789 1 -1.47589 2.13815 5.1959 
18311 2 1.13404 1.25163 4.59716 
18310 1 -4.71675 4.77909 -4.82019 
3066 1 -1.30424 -1.48159 2.6957 
3065 2 -2.01993 -2.23623 -1.32873 
8906 2 1.47947 0.214603 4.35027 
8905 1 -2.71282 -2.23597 2.13562 
4256 2 -1.02702 1.46458 -3.5778 
4255 1 -1.18144 -1.23113 -0.624516 
5359 1 -0.755574 -2.04401 -2.28688 
4257 1 0.778754 -1.59528 -1.79141 
5360 2 2.78536 1.91956 0.187733 
5361 1 2.97679 0.435136 8.63006 
15415 1 -3.5548 1.49827 -4.53871 
