ITEM: TIMESTEP
20000000
ITEM: NUMBER OF ATOMS
1029
ITEM: BOX BOUNDS pp pp pp
0.0000000000000000e+00 5.0000000000000000e+01
0.0000000000000000e+00 5.0000000000000000e+01
0.0000000000000000e+00 5.0000000000000000e+01
ITEM: ATOMS id type vx vy vz 
4770 1 1.89989 5.8995 -1.455 
4769 2 2.10649 4.53862 0.544239 
4768 1 -0.383688 -0.288338 1.56505 
14022 1 -3.54392 -2.132 -2.1763 
10977 1 -0.197452 -0.0144994 -3.20475 
10976 3 3.64043 2.51354 -4.25644 
10975 1 0.934608 -1.06237 -2.75299 
1792 1 -2.18999 -4.16769 -0.847539 
14960 3 1.0964 2.92724 -4.2029 
1794 1 3.33369 -5.01683 -3.71988 
14959 1 0.943722 1.27868 0.778329 
1793 3 -0.155555 -2.67044 -1.43084 
14961 1 -2.07534 -1.89997 -3.61328 
3430 1 -0.818589 0.747507 2.30229 
14021 3 -0.652099 0.807382 -2.5377 
14020 1 6.9827 3.8992 -0.0149546 
4219 1 2.74888 0.923109 7.38129 
4220 2 3.56398 -1.56615 -1.66141 
11366 2 -1.81351 -2.6847 1.18763 
11365 1 7.45478 -2.64703 2.77275 
11367 1 -7.84044 -5.29291 -0.0764768 
18897 1 0.51602 -1.11307 -3.06598 
19103 3 -2.15228 5.97264 1.05244 
19102 1 1.24221 3.34715 1.07902 
13984 1 0.417908 0.366785 0.315914 
19104 1 0.88388 -3.80642 -4.1103 
17686 1 -4.21805 -4.35434 1.46956 
17688 1 2.79286 0.536057 2.38097 
17687 3 -0.239562 2.09784 0.939765 
18709 1 -0.647807 -4.13245 -1.21962 
11569 1 8.28774 1.31445 -3.32787 
12999 1 -7.59312 -0.281665 -0.553113 
12998 3 0.153993 -1.10436 -0.399947 
18960 1 -5.32112 -3.75634 4.89616 
18958 1 -6.84865 -1.79952 0.48757 
18959 2 1.87266 0.936598 0.52569 
3658 1 6.84562 1.77935 -2.88618 
3659 3 0.0961986 0.0569927 -4.27344 
11097 1 4.54703 0.307221 -1.77196 
11096 3 -2.42117 1.35765 -0.233727 
11095 1 -0.799605 3.06722 0.194303 
3660 1 2.03026 -2.69096 -0.194913 
4221 1 -2.32196 1.31468 0.460239 
13333 1 1.61315 -1.22767 4.22611 
13334 3 -2.57811 -0.220561 -0.664503 
13335 1 1.24373 2.28713 3.2921 
9930 1 1.17766 4.53186 2.80986 
9929 3 -2.33207 -2.23826 -3.37608 
8343 1 4.41145 1.39591 3.98084 
2253 1 0.369165 0.0933418 0.0168933 
2252 3 -2.13796 -2.57129 0.549272 
2251 1 -6.11316 -3.42816 -0.479166 
13830 1 -3.53365 -0.244446 3.30532 
19737 1 2.70119 1.89465 5.65606 
18896 3 4.1937 -3.98304 0.557287 
9635 3 1.09509 -2.52602 1.5262 
9634 1 -0.0638203 -4.22179 0.350531 
19735 1 -0.887923 -3.09426 1.76896 
19736 3 -4.35926 -1.53027 -3.66107 
15898 1 -0.71503 -3.5101 -0.990432 
18895 1 3.08481 1.5935 -1.75298 
10912 1 1.18719 -0.364262 -0.950569 
10914 1 0.0211708 -0.641928 2.20848 
17127 1 -1.44806 7.63716 -5.40161 
10913 3 2.04388 1.75483 -0.648712 
16194 1 -2.85683 -1.62157 -0.654822 
9636 1 -4.27952 1.08283 6.80037 
13425 1 -0.990294 4.78398 -1.22681 
13424 3 -1.5187 0.601602 3.76149 
16193 3 1.48513 0.606601 2.10158 
8476 1 0.298122 -4.18834 0.396027 
8477 3 2.35357 -2.78516 4.28437 
2672 3 -0.357188 -1.44957 -5.2648 
16192 1 1.69641 -2.10778 -0.474401 
2671 1 -0.222631 -1.51717 8.59135 
18182 3 1.02684 0.478596 0.758815 
6241 1 6.42091 -2.63665 3.69682 
13985 3 -1.30678 -1.16815 -0.443857 
14575 1 4.09404 -2.45021 3.12612 
6242 3 -1.68601 -0.701883 2.19282 
18181 1 0.878899 1.03721 2.92287 
13986 1 4.47179 -3.80918 1.00458 
2200 1 -3.78102 -5.09329 -3.02901 
2201 3 2.70035 2.82464 4.04367 
2202 1 5.98067 0.702289 -3.24738 
14905 1 -1.3128 -0.218173 -1.81841 
6243 1 -1.94525 1.32448 -2.66012 
18183 1 1.48138 2.02154 -0.515688 
13829 3 -4.90964 0.181964 -3.30445 
6139 1 3.05971 -3.41931 -1.62646 
13828 1 -0.922228 6.81791 -2.1267 
6140 3 1.4594 0.401725 1.95067 
6141 1 -1.52363 0.201607 -1.73899 
18711 1 -2.04226 0.248634 -5.21037 
11602 1 -1.86873 2.50369 2.94383 
18710 3 -5.6828 0.0141482 1.09035 
11603 3 -1.87681 0.697589 -0.95051 
11604 1 3.06616 -6.21855 -0.531459 
13461 1 -3.62423 1.28244 -2.65125 
4782 1 1.52841 2.33815 0.069044 
4780 1 0.317023 0.333822 -4.92527 
4781 3 -3.97603 1.60979 0.303592 
2196 1 2.86609 3.90162 1.38366 
8959 1 -1.5248 1.71345 2.97206 
7482 1 -0.37076 5.04795 3.73818 
11120 3 2.74518 0.869046 2.17154 
11121 1 1.89595 0.951336 -1.54049 
8960 3 -0.624367 -0.00502097 3.33387 
11119 1 1.12031 -2.66799 -0.232496 
19540 1 2.96649 -0.513645 0.675329 
19854 1 -1.51251 4.02946 -3.28945 
12997 1 -4.68227 1.39803 -1.24132 
14577 1 -3.28476 2.73823 -1.08156 
2195 3 2.42886 -0.632817 0.326882 
2194 1 0.0199411 2.04094 3.02276 
4388 3 -3.97193 0.218791 -2.69936 
6144 1 -3.15404 5.7621 1.03673 
14576 3 -1.13784 -2.45084 1.21945 
6143 3 -1.52893 0.114126 -0.461578 
4387 1 -4.76704 -2.29104 -0.928128 
5647 1 0.952747 -6.50376 2.87669 
5648 3 -0.951668 -1.93201 -0.98565 
5649 1 0.112599 3.34554 5.54052 
14185 1 3.18644 0.596751 -1.33807 
838 1 1.05903 5.42906 4.16043 
14906 3 0.170131 -2.85763 3.07173 
14186 3 -1.88617 -3.03996 -0.434304 
14907 1 -0.121083 -6.48581 -2.86022 
5669 2 -0.465407 -1.55098 -0.0897663 
5670 1 -1.32852 -1.82863 5.8447 
1421 3 -2.23882 1.55795 2.88936 
17587 1 0.605853 -6.56974 -0.658888 
6640 1 -0.31375 3.54273 1.22821 
17589 1 -0.383422 -1.6091 0.732195 
17588 3 7.48556 0.129613 1.32169 
9928 1 -6.24418 -3.61317 -3.26466 
6613 1 2.97555 5.27583 -1.18955 
17004 1 -0.482331 -1.90737 0.420886 
17002 1 0.278244 -6.49237 2.38717 
17003 3 -5.1535 -3.82535 0.542809 
1420 1 -2.02405 -4.13278 2.65926 
19341 1 -2.57242 4.94105 1.87215 
13423 1 -1.72119 -1.40792 0.127931 
9793 1 -0.535967 -3.16386 1.02655 
19340 3 0.120702 -0.949228 -0.694383 
19339 1 -6.05267 -0.194094 -4.90373 
9794 3 4.09057 -7.40878 -1.25535 
6641 2 1.38178 -1.04576 -0.271794 
9795 1 -1.37294 0.604604 -1.3241 
5959 1 4.3076 3.57742 1.50291 
5960 3 0.137013 2.03182 -1.66993 
8342 3 -0.12363 4.96156 -2.74731 
8341 1 2.50642 1.98478 -1.98057 
11555 3 2.58613 1.08956 0.962043 
11554 1 -0.444476 -2.13201 -1.02274 
17125 1 2.89594 4.55253 1.64772 
12345 1 3.95964 3.55149 1.05206 
11556 1 1.33682 2.25257 -4.6234 
15899 3 2.91486 4.68843 0.775463 
17126 3 -0.667573 1.14319 0.84967 
15900 1 -0.98732 1.93358 -4.95427 
4002 1 -0.940891 0.50279 -6.79594 
4001 3 0.643911 0.00694868 4.48888 
4000 1 -1.24154 -3.5041 2.19406 
11609 3 -2.28329 -1.15144 2.35051 
20881 1 -2.75378 3.94715 0.679439 
11610 1 -2.6497 5.12255 1.25938 
8478 1 0.105244 1.16041 0.90624 
13531 1 -2.02917 1.62944 0.996832 
13532 3 -0.628358 -1.68452 4.3619 
13660 1 1.06464 4.86239 2.26116 
2673 1 -2.7548 0.613876 -3.18763 
13533 1 7.60216 -3.01869 2.27634 
8146 1 -2.46834 -1.19653 -4.2854 
8147 3 -3.94207 0.732875 1.59051 
11959 1 -0.534858 -7.53668 -1.7955 
13661 3 -0.243404 -0.0769244 -2.0702 
13662 1 5.85474 4.82015 7.62565 
12862 1 -5.3985 0.571977 -2.38116 
13543 1 1.47577 -0.466481 -0.53201 
3828 1 -2.95499 2.32128 5.98222 
3826 1 -5.27931 3.16283 -2.70936 
7302 1 -0.159581 7.12507 2.69399 
3827 3 -3.58632 0.76838 -1.082 
8539 1 0.855103 -7.66918 3.91462 
8540 2 2.08273 1.58951 2.89682 
8541 1 2.46332 0.134437 4.29485 
19176 1 -3.00713 6.20597 -2.98882 
19175 3 -2.18076 2.46786 3.4426 
8968 1 -1.38616 1.90764 -7.77805 
8970 1 7.00193 -3.21493 -3.78724 
8969 3 0.0720585 1.3086 3.83344 
3112 1 -1.08351 -0.809319 -3.71408 
3113 3 0.0923265 -0.867275 2.17844 
12217 1 1.49222 1.93333 -3.09708 
3114 1 0.980523 -5.58602 3.30478 
2958 1 -0.994075 -0.377938 -1.5398 
13459 1 -3.00755 -6.9106 0.520047 
13460 3 -2.44937 -2.08608 1.61657 
7178 3 5.23797 -4.38529 4.12516 
20883 1 9.87634 -5.20024 -2.24281 
7177 1 1.03227 0.8134 -3.49514 
20882 3 1.90774 -2.95327 -0.934713 
1149 1 3.59078 0.269033 -2.04357 
1148 3 1.28343 1.40164 -3.46657 
1147 1 2.32984 5.58521 3.94865 
9381 1 4.33337 -0.366454 -2.37073 
9380 3 -0.660579 -3.22252 -1.53234 
7480 1 0.333247 -2.53791 0.420361 
9379 1 2.39663 -1.49194 7.33038 
19541 3 -0.720881 1.40183 1.17218 
7179 1 3.3757 2.85669 7.46795 
19542 1 -2.39498 -0.197798 -3.04493 
11960 3 2.37425 -1.96358 -2.0383 
11961 1 3.43472 -2.39635 0.760991 
6142 1 -0.658185 2.6152 1.98472 
7481 3 -0.540806 2.02062 1.7036 
19775 3 1.11181 2.18304 -2.12895 
19776 1 -0.103178 -5.48433 4.46339 
3420 1 -2.16656 2.06644 -1.40558 
19774 1 4.47645 4.00503 1.84644 
4389 1 -2.0713 -6.24243 -6.59814 
3185 3 0.784001 0.456711 -1.00997 
8830 1 -1.01574 -1.06465 6.25181 
1729 1 3.15875 0.291125 -0.129883 
14187 1 -1.81276 3.03253 1.73371 
8832 1 3.66184 6.50052 2.45551 
8831 3 1.65892 0.21542 2.16782 
206 3 1.99037 -0.912291 -1.23489 
3184 1 5.00112 3.14607 5.08706 
207 1 -3.70444 -1.87882 1.04299 
205 1 0.106009 -3.31032 -1.10075 
14392 1 1.41516 0.290881 1.00591 
16038 1 1.54564 -4.96557 -0.669541 
16950 1 -0.980663 -1.62116 1.70616 
16949 3 -0.102217 -2.19965 -0.797811 
6121 1 -3.0975 -0.882998 0.00613608 
6122 3 -0.885394 1.70565 -1.79958 
19174 1 1.22232 -1.57851 4.20162 
11154 1 -0.759381 0.063359 -3.57552 
6123 1 -5.38869 0.741526 -4.30259 
14401 1 -0.280285 10.9011 -1.60441 
11153 3 -1.27289 -3.01237 2.56449 
14402 3 -1.07773 -0.33356 -1.63407 
11152 1 -2.59033 1.797 3.53199 
12218 3 4.2916 -0.112766 3.49515 
12219 1 -2.654 4.93779 3.34739 
14403 1 1.51421 0.540953 1.22959 
6225 1 -1.6868 1.5871 -2.66117 
6224 2 2.46715 -2.22937 -3.69906 
6223 1 -0.276223 -3.87895 1.44392 
1422 1 -3.3712 -1.28681 -0.599226 
18063 1 0.938028 0.728938 6.16766 
18062 3 -5.40451 -1.1818 3.38962 
18061 1 6.7508 -5.95242 0.404791 
5668 1 1.71963 0.68594 2.43596 
6614 3 -0.550895 -0.072271 0.4306 
6615 1 3.20941 5.84284 -0.333699 
19634 3 -0.942431 2.37362 1.28362 
12840 1 -1.45994 -1.73228 -3.52418 
19633 1 2.38287 -0.846225 7.06904 
19635 1 -5.1936 -3.4361 -0.842207 
13062 1 4.07362 3.56823 -0.376795 
13061 3 -3.03169 -2.5316 -2.76019 
6642 1 4.91846 2.68623 0.74145 
13060 1 3.84046 -0.882623 4.27761 
2206 1 2.07075 1.23691 -1.8975 
20041 1 -0.252104 -0.318504 1.37167 
5961 1 -5.85142 4.4945 -0.927883 
11044 1 -4.79355 0.0828161 1.61031 
11045 3 4.01105 -1.00824 -4.16187 
11046 1 6.28495 2.65286 2.96488 
1236 1 -3.97606 2.64959 2.3397 
1235 3 -3.37092 1.42641 1.63847 
1234 1 -0.128006 1.0111 -2.72289 
1635 1 -5.76387 -0.662119 -1.06626 
12344 3 -3.00038 2.78526 2.35095 
12343 1 -4.2573 -8.76081 2.35908 
15751 1 9.30363 -3.37615 3.31221 
16653 1 3.4567 -0.0236171 0.700166 
11608 1 2.72922 1.66589 -3.52959 
12839 3 2.81847 -0.603565 1.11065 
12838 1 6.47681 -8.27694 2.17642 
16652 3 0.277608 0.139197 4.39743 
15753 1 -6.68822 2.11298 -1.16715 
16651 1 1.41293 -2.97802 2.63934 
15525 1 1.80231 -2.14728 3.40918 
15752 3 2.57592 1.53325 -2.49574 
15524 3 1.02363 1.80025 2.45706 
13103 3 1.27063 1.92658 0.88948 
13104 1 1.12896 1.36437 -2.9142 
3748 1 5.44757 -1.40156 -1.20689 
1600 1 1.99181 4.64379 -3.47316 
2208 1 2.63811 -9.28029 2.99233 
8148 1 0.00816867 0.719363 5.12575 
2207 3 2.10419 -0.373855 1.51587 
13544 3 -1.18353 -0.890349 -2.60142 
14738 3 4.9822 0.0220264 -0.0721821 
13545 1 -1.39646 -1.55137 -5.95344 
14739 1 -1.42304 -3.11596 1.73929 
14737 1 -3.12313 -3.07923 -3.99068 
12863 3 1.77591 -1.67135 3.17737 
7301 3 2.92467 -0.557648 2.87756 
12864 1 -0.914054 -3.71317 1.67369 
10335 1 5.32358 0.62561 2.54798 
10334 3 -3.96005 0.381992 -3.93851 
10333 1 -0.922507 -2.12811 -0.80257 
10279 1 1.67297 -6.1949 1.90609 
10280 3 -0.60144 -1.70021 1.63965 
7300 1 5.26754 3.74796 1.18129 
19151 3 -1.00951 2.2698 0.628188 
10281 1 3.36701 -2.06487 2.52054 
2709 1 -1.85557 -1.34636 3.75363 
17128 1 2.55557 -1.00249 6.48968 
19152 1 -4.99062 0.807219 3.33992 
7344 1 -1.65894 -1.64989 -6.94499 
17129 3 -1.24811 0.644466 0.587947 
18697 1 3.39788 1.9119 1.5679 
1633 1 -3.42673 -3.97825 -9.90273 
1634 3 -1.70471 1.09925 -0.43911 
7801 1 -4.08966 3.19931 0.234787 
7802 3 -1.02145 0.273193 1.61025 
7803 1 -0.0545928 -2.36169 2.80152 
21451 1 1.14714 3.09714 1.69729 
21452 3 -0.929733 -0.966183 -0.923057 
21453 1 0.429473 -1.67451 0.228717 
5572 1 -4.32505 -0.845403 -6.76961 
16731 1 -6.43993 1.61645 -4.16792 
16730 3 3.8146 2.80913 2.04493 
5574 1 2.22041 2.57392 5.21221 
16729 1 -2.49273 -1.80914 1.19717 
18037 1 3.42536 -1.63102 0.6106 
18038 3 -0.961492 -0.927384 2.7001 
18039 1 -1.71647 5.1143 1.20158 
17304 1 0.952688 5.06018 0.320375 
5573 3 -2.78423 0.365033 -1.67495 
8601 1 1.64397 -0.0147318 2.44013 
3750 1 2.20621 9.09441 -2.16126 
3749 3 -1.43761 0.614895 -2.63642 
6600 1 -4.81451 -0.288044 5.49754 
15229 1 -3.69205 -2.26688 -0.83585 
15230 3 7.50997 -2.77987 0.601876 
15231 1 -0.9516 0.607462 -2.73151 
1186 1 4.11403 -7.63389 4.58168 
2797 1 2.59319 -0.784452 -0.144072 
1601 3 1.55654 0.061561 -1.46167 
1602 1 -4.3913 -4.30894 2.80451 
2799 1 1.29799 0.247057 3.08003 
2798 3 3.59409 -3.28616 -1.39965 
8903 3 -0.140344 0.157466 2.624 
6856 1 5.05777 3.22503 1.85721 
8904 1 1.83223 -0.538883 -2.12792 
3418 1 -1.41041 -1.28969 -2.30566 
15709 1 1.02156 0.333082 1.29206 
3419 3 -0.347546 -3.22824 4.0142 
15710 3 4.09428 -0.215464 2.95548 
15711 1 -5.9621 1.91964 -0.834232 
13231 1 4.5831 5.77645 2.05207 
6857 3 0.15083 -2.48861 2.58421 
5392 1 4.71883 5.80508 -0.00778034 
1731 1 3.4881 -2.54671 -1.11966 
1730 3 -0.353358 -0.509971 -0.783369 
19150 1 0.17638 0.713769 7.30272 
14393 3 0.311771 -0.895618 1.55621 
16037 3 -2.1262 2.44952 -0.34231 
4180 1 3.01572 -3.50418 1.90632 
4181 3 -3.04494 0.359137 -2.50775 
16036 1 -5.32348 -0.133182 1.60235 
4182 1 2.24709 0.706862 -3.18764 
19419 1 0.84504 -5.64203 -2.878 
14394 1 1.17486 -1.50533 7.87213 
17130 1 1.33704 1.65518 -2.66684 
17571 1 -2.50179 -4.93035 3.92726 
7248 1 -0.94199 0.221274 2.68016 
3440 3 0.0605602 3.31058 -0.643498 
11758 1 -1.58115 3.83087 0.120791 
17569 1 2.63535 -1.5329 -2.3355 
17570 3 2.8056 -0.182472 -2.80582 
3441 1 0.0861421 1.85713 -2.14387 
6582 1 -0.229858 2.65661 -4.42296 
11759 3 -1.56387 -3.8454 -2.05566 
7543 1 -3.02609 -2.10116 -0.38051 
11760 1 1.14095 0.236639 0.948647 
6581 3 -3.78002 -3.46558 -3.16987 
6580 1 -5.05326 2.22242 1.99454 
2957 3 1.23379 -1.69008 4.87644 
2956 1 -1.22978 3.95936 -4.85099 
7545 1 -0.263095 -2.79696 2.06407 
7544 3 -1.12728 1.14525 0.833913 
4414 1 3.3956 -0.893446 -3.4234 
4415 3 4.5729 0.797535 0.399853 
4416 1 -1.32 4.32067 -0.287406 
11894 3 1.85588 1.96828 -0.239623 
11893 1 3.5668 3.30064 4.03701 
11895 1 -0.811949 -0.843025 4.21274 
15535 1 -1.47415 -1.32161 2.3041 
15536 3 3.21274 0.477752 -0.199893 
10007 3 -0.728383 2.82592 -2.39682 
10008 1 -1.16674 -1.28037 3.30001 
12439 1 1.03161 -2.50011 4.25214 
12440 3 1.76901 -0.886371 2.29095 
20042 3 -1.99103 -1.22809 -2.79805 
20043 1 -2.63656 -0.8059 -3.82558 
6028 1 -1.72219 -3.30025 1.87612 
6029 3 6.68982 -1.81424 -6.81548 
6030 1 -2.91365 3.49017 4.30167 
3972 1 3.10685 0.0254352 0.700311 
2842 1 0.366204 4.69156 4.91347 
15537 1 -4.52624 2.82106 2.47849 
5036 3 -1.47784 -0.895577 -1.14805 
5037 1 1.3761 3.23278 -5.16653 
19390 1 0.591366 3.17392 -5.715 
19391 3 -1.92615 4.55416 -0.882352 
2708 3 1.63242 2.46749 3.16223 
20032 1 -0.308881 -1.22645 3.01983 
2707 1 1.87489 6.11508 0.580798 
20033 3 -1.13742 -2.92085 0.39697 
20034 1 0.424139 -6.07644 -0.88919 
17303 3 0.721889 -1.92968 2.69107 
18461 3 0.550917 0.419445 -0.948461 
18460 1 -0.952512 -4.05129 3.46317 
17302 1 -2.9326 9.16102 -6.05673 
18462 1 -1.84653 6.07525 4.69599 
13102 1 -5.23132 -4.78742 7.4986 
15523 1 -2.11797 3.52577 1.53753 
9801 1 -5.90712 -1.58982 2.34732 
12441 1 9.25872 -4.33981 -0.978974 
9799 1 -4.74892 -3.29289 3.49181 
9800 3 -1.71405 -0.424208 -1.70408 
3990 1 -0.523246 4.07457 0.132596 
2335 1 0.971264 -4.83126 0.570444 
2336 3 4.09359 1.00752 2.43549 
9226 1 -5.86834 8.10518 -2.98279 
9227 3 4.56646 -0.632576 -0.111628 
3989 3 1.88684 0.449832 -4.68531 
2337 1 -2.60119 1.48969 4.88293 
7039 1 0.0653504 -9.59918 -1.83635 
10487 3 -0.372834 -2.17001 2.51512 
13464 1 -4.02177 -1.88945 1.39064 
13463 3 -1.67212 -2.14994 0.17824 
10486 1 -6.74613 1.21271 -5.81689 
13462 1 -4.08876 -2.52368 0.209905 
15320 3 0.996881 2.05707 0.514908 
15319 1 -1.12582 6.88765 3.22479 
2844 1 4.5681 -0.531684 4.38404 
2843 3 -2.67455 -2.82855 3.32955 
6784 1 1.44129 -2.78686 -4.51921 
18699 1 -0.785001 -0.574049 -1.5459 
18698 3 0.0722371 3.06995 1.50206 
7343 3 -0.21746 3.87208 3.30935 
6785 3 2.77331 -4.04038 0.191013 
6063 1 4.81895 -0.586397 3.03103 
7342 1 6.24299 -5.62001 -1.48673 
6061 1 -1.35034 -3.94611 5.73102 
6062 3 0.733606 -0.513656 0.227121 
11526 1 -2.5675 -2.34046 -8.11389 
6786 1 4.55623 -0.349469 5.93074 
8600 3 -1.174 0.722286 1.20768 
8599 1 1.17264 1.7338 -3.78467 
21414 1 -3.98117 3.20243 1.04665 
21413 3 1.73548 -4.00135 -2.78951 
21412 1 4.6462 -4.69029 2.56706 
16267 1 2.10861 -0.947866 2.19434 
16268 3 0.265778 2.60683 0.743315 
20980 1 6.13803 -3.70176 2.49372 
16269 1 1.38851 3.68464 1.07421 
3539 3 -5.23524 1.68955 4.53591 
18258 1 2.57948 2.053 1.81805 
3540 1 -1.60132 2.58547 -2.46974 
18257 3 -1.63589 -2.58195 0.759674 
3538 1 0.617062 9.216 -5.0233 
9280 1 1.60767 -3.44268 -4.56815 
9281 3 3.768 -0.587298 0.531302 
1187 3 2.10596 -3.32099 -2.468 
9282 1 -4.74229 4.47649 0.972088 
1188 1 1.47419 6.35048 -5.24729 
11462 3 0.682682 -3.64952 1.53884 
11461 1 -3.1765 1.08976 -3.37436 
11463 1 0.627213 -4.93083 -4.36324 
20557 1 0.787967 0.238127 -3.98894 
14544 1 -3.18816 2.72835 6.05583 
15321 1 4.25851 -2.24262 -3.67383 
13233 1 -0.0153563 4.12126 -2.00443 
13232 3 5.59996 -0.400887 -2.97627 
3215 3 1.12977 2.34712 -2.27644 
3214 1 6.21083 -2.08803 8.97525 
6858 1 1.28916 1.64785 -1.42032 
3216 1 2.28543 2.93639 0.778363 
14146 1 -1.19422 1.99814 -1.49086 
14543 3 -2.53103 -4.01212 -2.35199 
14542 1 -0.0339325 4.93445 -1.42179 
3598 1 3.91446 6.08167 -0.555606 
3599 3 1.0681 1.27768 0.489615 
1233 1 -0.822546 -2.48423 1.87159 
17512 1 3.25151 4.01034 -6.18152 
13993 1 -1.41355 2.83548 1.07578 
19418 3 -2.92108 -2.84237 1.48281 
13994 3 0.22259 2.22046 0.182738 
19417 1 -1.9036 -4.56589 -0.429528 
13995 1 -4.52228 0.990484 -2.07273 
17513 3 -1.40825 -3.54523 -4.34659 
14622 1 -0.716557 1.38505 -2.02657 
14621 3 2.68309 -2.06218 1.53614 
14620 1 -0.554861 1.55536 3.12643 
7247 3 -3.0324 1.97772 0.115106 
7246 1 0.382008 -1.30884 -0.834847 
17514 1 8.08567 3.9064 -4.34474 
20379 1 8.147 -0.0257304 -5.13875 
20378 3 5.63849 -0.177727 2.48035 
20377 1 -1.09099 2.74471 7.88198 
10006 1 2.18052 2.65003 -0.802525 
9437 3 0.244812 -0.94785 0.212371 
3971 3 -2.14903 0.389626 2.46559 
17455 1 1.19807 3.36095 -3.12384 
3970 1 0.870554 3.19891 -4.14545 
17457 1 -3.62001 -5.47149 1.27726 
17456 3 -0.812227 -1.14795 -2.54201 
16056 1 1.87103 -3.52122 -1.03207 
16055 3 3.9349 -0.374875 -1.86805 
16054 1 1.42277 2.06115 -0.529956 
10488 1 3.26021 -1.27163 -1.69296 
5035 1 -0.752727 -2.27523 3.22476 
10023 1 1.33419 1.38845 -5.07005 
10022 3 -1.31285 -1.93963 2.38048 
19392 1 -0.328068 2.49133 -2.89988 
10021 1 2.17068 0.577527 -4.85453 
2808 1 0.341021 -2.21345 1.42091 
2807 3 -2.75876 2.59777 3.22671 
16020 1 1.38636 2.69485 -2.03371 
731 3 3.00993 -0.198004 -0.305607 
730 1 4.02495 -0.443116 1.87065 
20982 1 3.16247 -3.54216 1.77345 
3988 1 8.1732 9.44087 3.28792 
9228 1 3.85931 1.02858 -0.247984 
7040 3 5.38892 0.351491 0.188314 
9438 1 4.71879 -0.251728 1.7724 
7088 3 -5.68361 1.72191 2.27118 
9019 1 -1.21583 -0.857105 2.70318 
7089 1 -0.894544 -2.90999 -1.57698 
7041 1 4.44852 0.900393 -3.26076 
9020 3 2.94452 -1.96766 -4.48948 
9021 1 1.61553 -0.332691 -2.62661 
6797 3 3.58294 1.56411 -0.850893 
6796 1 -0.986447 0.642149 -4.24316 
7087 1 -0.991714 5.16239 3.72431 
16236 1 5.35399 5.15436 2.42799 
16235 3 -1.64672 -0.315147 -1.95922 
16234 1 3.2146 -5.09164 -8.50191 
10971 1 2.6945 4.12047 2.74597 
10970 3 3.11603 -0.510215 -2.25456 
10969 1 3.77932 2.72627 -3.44466 
12103 1 -5.43418 4.25948 2.71214 
12104 3 3.69714 1.08409 1.96172 
12105 1 -0.891089 -4.55109 -6.16985 
16154 3 -1.41025 0.0129186 -2.24074 
16153 1 -5.71728 -1.27485 -3.5562 
11524 1 -3.24187 0.0834214 -2.88161 
11525 3 0.0556383 -1.78133 -0.224851 
118 1 -2.44256 0.605122 3.08965 
16155 1 -4.63566 4.87067 -2.67647 
732 1 -0.101765 -1.34985 -5.17558 
119 3 -0.585678 0.821004 -0.599553 
20981 3 0.0410684 -1.85631 5.27963 
12905 3 -1.49659 1.35164 -2.18464 
12904 1 0.031488 1.1976 -1.69286 
5269 1 1.46353 -0.714525 -2.17983 
5270 3 0.564296 -2.56193 1.89287 
5271 1 -0.959257 0.398525 -0.797511 
17192 3 1.95898 2.86242 4.34869 
8535 1 4.99069 3.3066 -3.2993 
8533 1 5.32598 4.04851 -6.00086 
6136 1 -0.0362325 1.36724 -0.433603 
8534 3 1.38456 -2.7351 0.407381 
6137 3 -1.82917 0.288342 -1.76765 
6798 1 2.10325 0.659046 -0.14799 
14148 1 0.54517 -3.83813 5.19033 
14147 3 -3.27884 0.666549 -2.36278 
3382 1 0.812955 5.35146 6.20581 
3383 3 -0.17856 2.22105 3.60778 
3384 1 -1.03615 0.206529 2.45219 
9131 3 -1.45252 0.712344 -3.1421 
3600 1 -5.64122 -4.17966 3.73712 
20559 1 -2.33289 -3.54966 2.40726 
9132 1 -1.84198 -2.31791 -2.60499 
20558 3 3.18281 0.789825 -3.10595 
802 1 -1.59734 5.45366 -3.09451 
803 3 -0.105173 0.871012 -1.47524 
3375 1 4.04092 1.9336 -4.57776 
9248 3 -0.875152 1.20651 1.12206 
3373 1 4.05096 0.517277 5.05349 
9249 1 0.132244 -0.912019 4.21039 
3374 3 -1.80081 -2.44382 -1.08794 
9247 1 -4.39504 -0.348097 -2.81866 
8994 1 -1.78104 -1.36057 6.24782 
2101 1 -3.63725 6.0387 -5.87471 
6805 1 -2.02144 4.46414 -3.10848 
2102 3 -0.0138937 -0.010491 -1.60394 
2103 1 -3.1425 0.598209 2.39842 
5582 2 -4.047 2.16592 2.4858 
5581 1 1.56838 -2.10634 4.83139 
19971 1 0.64397 0.785511 -5.27525 
19970 2 0.961236 -0.148555 0.862573 
9436 1 2.75233 3.35967 -4.60738 
5583 1 -1.36969 -0.106731 -0.606231 
17310 1 -4.53831 -0.331555 0.764518 
17308 1 -3.72266 3.32211 2.73315 
17309 3 0.0177811 -2.48154 -0.0357346 
700 1 -0.939967 -3.38892 -1.38013 
16018 1 -3.65684 -4.47809 6.0579 
16019 3 -0.11702 -0.514835 0.118821 
21079 1 1.6884 2.42719 0.130821 
21080 3 1.04806 3.02601 1.15118 
21081 1 -8.99792 -5.41995 3.91406 
20675 3 2.07325 0.682376 0.963186 
20676 1 0.994511 2.14731 -0.403205 
702 1 1.99386 3.78923 -0.130833 
14188 1 1.55322 6.19605 3.73035 
14189 3 0.265316 -6.20055 1.64404 
14190 1 -2.24212 -1.25406 3.68898 
701 3 1.33864 -0.211449 -2.03584 
2806 1 0.301689 3.24394 0.6225 
19992 1 -5.03002 1.8287 -0.306762 
19991 3 0.51946 1.07912 0.0206858 
19990 1 1.68227 -4.99869 1.89135 
8993 3 1.57398 0.752208 0.938909 
8992 1 3.77383 -0.668056 0.703412 
120 1 0.754829 -2.14226 1.71299 
463 1 0.288925 6.40679 -0.202648 
464 3 -1.31113 -0.182071 -0.00512367 
19839 1 -1.1206 -0.462839 -2.51728 
19838 3 0.665593 3.03103 -3.19859 
19837 1 -1.28077 -4.11164 1.86168 
17193 1 5.26622 3.46655 -0.415862 
17342 3 0.843557 0.369033 0.814462 
17341 1 0.306391 1.28203 1.50046 
6138 1 -2.08656 -5.50786 -2.60042 
17343 1 1.54826 0.254337 0.249052 
6494 3 -2.8957 -3.09214 0.642664 
20674 1 -4.56751 1.49059 0.571951 
11788 1 -3.27778 -1.68314 -4.75246 
804 1 4.79842 -1.96105 0.106096 
11789 3 3.56338 0.162168 0.698714 
11790 1 4.44812 1.0917 5.21028 
9130 1 5.23439 2.44025 -0.0381497 
6493 1 2.09549 1.43322 2.25143 
3274 1 0.477773 3.91765 -2.09629 
465 1 -0.432292 -0.857122 3.53531 
6807 1 -4.87313 -2.91337 -1.61305 
6806 3 2.25588 1.95882 0.944665 
19969 1 -7.23855 4.1112 2.17864 
11571 1 -5.64407 -2.62441 -1.39265 
11570 3 -4.74447 2.51456 0.435389 
19852 1 0.159068 3.73338 -3.08998 
19853 3 -3.09215 -3.36319 -2.89011 
21235 1 -0.982915 -0.102527 -1.26499 
21236 3 -1.74309 0.1371 -0.553198 
21237 1 4.34851 3.51277 3.63629 
12567 1 0.871812 1.81162 -4.58275 
12566 3 0.211698 -3.2207 -3.67084 
21405 1 0.616051 -4.48091 1.82478 
840 1 -1.44811 -5.32546 5.12356 
21403 1 -3.61165 -4.40336 -1.73679 
21404 3 -0.0452401 2.62724 0.412778 
10504 1 3.93119 -2.13613 1.41522 
10506 1 -5.72196 -0.340663 8.18303 
10505 3 -1.16423 3.26536 -0.734796 
14484 1 1.97032 0.278177 3.07126 
17702 3 -1.47726 1.93662 0.939302 
17703 1 -4.52739 7.27916 -0.493669 
17701 1 2.94764 3.86588 4.00429 
3939 1 -2.63957 -0.0223231 -0.785046 
8961 1 2.3215 8.02208 -0.423302 
14357 3 -1.11535 -3.28827 -4.47192 
14356 1 5.65993 -5.67942 -2.70935 
18496 1 1.25692 -1.85483 -5.17459 
14358 1 0.838205 4.335 0.572188 
18497 3 -1.04072 -2.27649 -0.543441 
8881 1 -4.02359 -2.25443 6.39826 
8883 1 5.22133 -2.39075 -4.63872 
8882 3 -1.97592 1.95746 -2.56419 
12565 1 -3.25837 -0.445016 1.80245 
11065 1 1.5392 5.07268 -1.99601 
11066 3 0.0439624 3.72393 -1.77763 
11067 1 -2.58408 -4.00866 -1.40929 
177 1 3.86406 -6.35703 -6.12232 
176 3 -6.44037 1.07785 -2.30246 
2678 3 -2.3869 4.8579 -3.3874 
2677 1 3.4308 -3.02588 3.21353 
3186 1 1.55666 -2.65176 -2.56672 
2679 1 1.28973 2.37114 -3.57396 
839 3 1.06394 0.695222 2.83995 
9314 3 1.41208 -0.797927 1.20232 
14482 1 5.40441 1.16845 2.05384 
9313 1 0.260419 -1.23613 2.75447 
9315 1 3.12253 -5.12479 -1.22544 
20140 1 -1.91698 8.3058 -0.217837 
13214 3 1.16161 1.18804 0.688644 
13215 1 -0.782038 -3.31104 -3.10419 
13213 1 4.3355 3.61205 6.98518 
14465 3 -4.11688 -0.422607 2.24598 
14466 1 -3.99509 2.79993 1.02115 
14464 1 -1.22165 -5.86773 -2.44477 
14532 1 -3.35118 4.37694 -2.30105 
4149 1 4.03709 1.21919 -7.08952 
4148 3 3.8029 -0.211732 0.630164 
199 1 -3.79973 -6.24779 -3.24246 
4147 1 -2.81166 -2.49579 -0.676526 
10399 1 -0.689638 0.262526 1.8664 
10400 2 -2.03375 0.778356 3.1099 
200 3 3.33631 1.95465 4.18729 
17557 1 2.67697 1.44919 -0.329032 
17559 1 -3.20118 -5.18029 2.48831 
17558 3 1.88535 -1.34475 0.717459 
14877 1 -0.187992 -1.18837 -1.54628 
11512 1 2.88094 3.12188 0.53559 
14483 3 -0.0425527 0.0306357 -3.95368 
1163 2 -1.48344 -1.59199 2.87933 
10651 1 -2.65242 7.4993 0.423365 
1164 1 -5.43487 -0.394214 2.35823 
1162 1 -2.24408 2.7921 -5.6817 
5599 1 1.4192 -5.13123 -0.883612 
5600 3 3.09725 -0.772786 -1.61234 
7383 1 2.29775 5.69043 4.0317 
8373 1 1.55613 -2.75573 -3.4146 
8371 1 -2.47199 -0.742457 1.11192 
8372 3 3.42238 -0.807496 -1.78449 
5601 1 1.70378 -0.386097 -3.59155 
14531 3 1.84876 -1.9565 0.294621 
14530 1 4.67734 1.15063 6.15084 
3938 3 -0.226778 -0.734295 1.73968 
3937 1 0.0572115 -0.673945 -2.85615 
7693 1 5.10355 -0.0506065 1.16134 
5805 1 1.51684 8.32489 -3.14797 
15288 1 3.00913 -1.03121 2.8115 
5804 3 0.957623 -0.792283 -3.29439 
5803 1 2.8835 -4.00877 -6.34511 
6598 1 -2.45734 3.51068 4.23618 
13675 1 0.247633 -1.07972 -5.9897 
18498 1 0.258823 3.82063 -1.27696 
13676 3 -3.60619 1.10437 -0.779639 
7675 1 -0.713509 -0.656166 -4.13297 
9126 1 -3.15108 -4.43071 2.9107 
2740 1 1.33881 -3.03552 -4.74843 
13021 1 3.14632 -2.84626 -1.10974 
13677 1 -4.67186 4.76713 0.762728 
7676 3 -1.19916 3.97057 -3.30294 
2741 3 1.30199 -2.70525 -0.325428 
175 1 -6.60561 -1.6776 -4.11235 
2742 1 3.03579 4.47884 1.81228 
17104 1 4.46656 2.1196 -0.830883 
13022 3 -1.97781 0.542811 -1.34857 
14876 3 1.34955 2.42932 0.447644 
16998 1 -0.185296 -4.5751 -3.21302 
16997 3 1.59454 1.6148 2.34122 
16996 1 6.67104 2.04223 -6.7771 
14857 1 4.03503 3.4103 -1.9052 
10298 3 4.40876 3.72668 0.400574 
10299 1 0.29638 6.4351 0.45252 
12629 3 -0.13908 -0.0683156 -1.35214 
10297 1 0.487296 -0.142961 0.000592097 
14875 1 3.73136 0.974249 -0.393173 
16948 1 -2.52217 2.17994 -1.26843 
8911 1 3.59353 -1.99261 1.47742 
20141 3 -0.978097 -2.28469 -2.02857 
7368 1 -1.8058 1.4804 -5.18274 
7367 3 -2.54488 -2.52866 2.83606 
8913 1 1.08667 -1.35125 0.454858 
8912 3 1.43143 -0.112197 1.36507 
12628 1 4.05239 -2.07119 -2.01657 
20142 1 1.55299 -4.35285 1.76765 
7366 1 4.81382 6.05976 -1.12136 
10653 1 -3.23792 1.60224 0.284204 
4446 1 -0.0344944 -10.7429 -3.15152 
3439 1 3.09996 0.744654 0.459355 
10200 1 5.16648 -0.0506159 -0.866307 
10198 1 1.47364 0.134772 -1.55689 
10199 3 -0.375324 3.12526 -2.2598 
7694 3 -0.0175733 4.45243 -6.36543 
10401 1 4.41297 -3.47662 1.34744 
7695 1 7.16997 -5.46248 -2.47081 
7677 1 -1.42006 -4.47334 1.13905 
201 1 2.85752 -3.76472 3.78416 
809 3 -2.10332 0.736363 -3.54679 
808 1 -0.47576 7.69571 -4.94019 
810 1 -0.196167 0.557296 -2.91906 
16538 3 -3.30875 -1.60682 6.63689 
16539 1 0.368433 2.11954 -0.486351 
11514 1 5.47138 -12.9915 4.09881 
16537 1 2.01325 1.56321 1.06509 
11513 3 -0.797644 -1.36255 0.438346 
10652 3 0.562482 0.177182 0.895379 
1934 3 0.153778 -1.77834 0.0706574 
18437 3 0.111171 -1.28811 0.147815 
18436 1 -1.93033 -5.48558 -2.07321 
18438 1 1.28911 -0.0357002 5.2777 
4444 1 4.37964 2.88187 -2.59255 
1933 1 1.77189 -6.43598 -3.70879 
4445 3 -2.87658 0.95328 -0.359594 
21432 1 5.25774 -5.27852 3.38415 
9558 1 -2.45012 6.32412 1.2587 
21366 1 2.481 4.54967 0.497506 
3742 1 -2.82095 -3.41105 -2.29576 
21365 3 -0.980962 -0.192531 0.180145 
21364 1 0.243987 0.473573 -4.32984 
9556 1 -2.4031 2.95641 -0.867462 
9557 3 -2.24997 -6.28729 -2.50127 
5936 3 0.305358 -2.93812 -1.01541 
5935 1 -1.2326 -1.73289 7.81967 
1935 1 -5.77403 0.374362 -0.937595 
3743 3 5.13472 2.8413 -0.623574 
3744 1 -1.36089 3.04156 -2.56542 
7382 3 0.0842127 -0.804738 -0.145778 
14770 1 1.5936 0.818863 9.51335 
7381 1 3.72285 -1.21688 3.05491 
14771 3 3.80094 6.06264 -1.01896 
14772 1 -4.66124 -0.893817 7.72126 
15287 3 -3.8025 -4.18595 3.50376 
5299 1 -3.10476 0.152776 -1.65515 
21548 3 1.96194 0.630191 -4.59754 
15286 1 -4.47466 -1.07635 2.88208 
21547 1 -5.34299 0.524839 -8.70352 
6037 1 -2.95139 -5.48926 1.98958 
21549 1 2.67695 1.08537 5.82193 
9105 1 -0.995177 -2.87598 -2.82167 
6599 3 -0.187703 -6.25144 -0.0952819 
9125 3 0.235227 1.75254 1.99533 
15126 1 -2.08623 0.38066 -4.29663 
15125 3 1.56457 0.056456 1.99545 
9124 1 -0.16206 4.65876 2.02069 
15124 1 2.15691 1.41035 -2.89683 
2950 1 -2.87975 4.90906 -1.30359 
17105 3 -1.44533 -0.375448 2.78294 
13023 1 1.64447 3.45161 -5.71764 
5393 3 -1.75559 -2.88443 -4.50559 
5394 1 0.329735 1.69016 2.23736 
17106 1 -2.29166 -0.421045 -1.53949 
8902 1 0.94547 3.58522 4.79358 
1231 1 3.23642 -3.34768 3.38116 
12630 1 -1.24052 -0.0921007 5.0947 
14858 3 3.10081 0.0807275 4.61513 
141 1 2.30731 -0.0150188 0.582502 
7339 1 0.455805 0.675911 1.29992 
7340 3 -3.06724 1.59422 -1.8886 
14859 1 0.243994 1.02784 4.61427 
14449 1 -1.45666 5.94095 1.06854 
14450 3 -1.33935 -1.39417 -5.05788 
13314 1 2.53071 -1.26583 4.07286 
13767 1 -1.45056 1.00104 -3.89897 
7341 1 -2.43297 -2.32115 -6.24986 
13313 3 -2.71475 -4.48952 -0.295383 
13312 1 -2.49723 1.13494 3.34766 
14451 1 3.72434 1.59651 2.55039 
8311 1 -3.56819 -1.62681 -7.12465 
8312 3 1.51586 -4.27774 1.11293 
8313 1 5.51419 1.40646 0.553415 
21129 1 0.40983 3.81108 -1.93848 
1809 1 0.949947 1.44724 -4.60894 
5300 3 -0.442453 2.00001 1.8581 
5301 1 3.00599 -11.2679 1.26172 
21425 3 -0.474315 0.150747 -0.960221 
21426 1 3.97534 0.82317 -1.81481 
21579 1 0.911196 5.78566 -7.82403 