ITEM: TIMESTEP
0
ITEM: NUMBER OF ATOMS
63
ITEM: BOX BOUNDS pp pp pp
0.0000000000000000e+00 5.0000000000000000e+01
0.0000000000000000e+00 5.0000000000000000e+01
0.0000000000000000e+00 5.0000000000000000e+01
ITEM: ATOMS id type 
127 1 
128 3 
129 1 
2044 1 
2045 3 
2046 1 
3142 1 
3143 3 
3144 1 
4156 1 
4157 3 
4158 1 
2728 1 
2729 2 
2730 1 
6511 1 
6512 3 
6513 1 
7351 1 
7352 3 
7353 1 
8812 1 
8813 3 
8814 1 
10909 1 
10910 3 
10911 1 
20530 1 
20531 3 
20532 1 
20584 1 
20585 3 
20586 1 
15697 1 
15698 3 
15699 1 
17500 1 
17501 3 
17502 1 
18775 1 
18776 3 
18777 1 
15256 1 
15257 3 
15258 1 
20473 1 
20474 3 
20475 1 
21316 1 
21317 3 
21318 1 
21463 1 
21464 2 
21465 1 
11818 1 
11819 3 
11820 1 
13678 1 
13679 3 
13680 1 
21472 1 
21473 3 
21474 1 
