ITEM: TIMESTEP
20000000
ITEM: NUMBER OF ENTRIES
1157
ITEM: BOX BOUNDS pp pp pp
0 50
0 50
0 50
ITEM: ENTRIES c_binfo[1] c_binfo[2] c_binfo[3] 
2 12184 12185 
2 12185 12186 
2 19789 19790 
2 19790 19791 
2 13508 13509 
1 13509 19789 
2 13507 13508 
2 15211 15212 
2 15212 15213 
2 3157 3158 
1 3157 17859 
2 3158 3159 
2 21407 21408 
2 13528 13529 
2 13529 13530 
2 11698 11699 
2 11699 11700 
1 2454 16779 
2 2453 2454 
1 13530 18633 
2 18863 18864 
2 11860 11861 
1 11860 18862 
2 18862 18863 
2 17857 17858 
2 17858 17859 
2 2006 2007 
2 2005 2006 
1 2005 3159 
2 6931 6932 
2 6932 6933 
2 5570 5571 
2 5569 5570 
1 5569 6933 
1 5118 5571 
2 5117 5118 
2 2452 2453 
1 2452 5116 
2 5116 5117 
2 10802 10803 
2 626 627 
2 625 626 
1 625 13189 
2 13189 13190 
2 6685 6686 
2 952 953 
1 952 15453 
2 953 954 
1 954 13191 
2 13190 13191 
2 15838 15839 
2 15839 15840 
2 15325 15326 
1 15325 15838 
2 10187 10188 
2 10186 10187 
1 10186 13201 
2 1010 1011 
1 6849 16647 
3 6847 6848 
2 5278 5279 
3 6848 6849 
2 1631 1632 
2 11564 11565 
2 10780 10781 
1 567 16645 
2 16645 16646 
3 13202 13203 
2 16646 16647 
3 13201 13202 
1 5778 11667 
2 11665 11666 
1 11665 13203 
2 11666 11667 
2 2428 2429 
2 2122 2123 
2 2123 2124 
2 13175 13176 
2 13174 13175 
1 13174 15846 
2 15845 15846 
2 8060 8061 
2 7414 7415 
2 3635 3636 
1 2430 3636 
2 2429 2430 
2 3634 3635 
2 7415 7416 
2 4198 4199 
2 18563 18564 
2 11506 11507 
1 4200 18562 
2 18562 18563 
2 4199 4200 
1 9993 18564 
2 8059 8060 
2 8231 8232 
2 4937 4938 
2 10925 10926 
2 10924 10925 
2 8230 8231 
1 8230 10924 
2 13903 13904 
2 13904 13905 
1 5151 13905 
2 11507 11508 
1 2124 11508 
2 5150 5151 
2 5149 5150 
1 5149 12190 
2 12190 12191 
2 19513 19514 
2 6416 6417 
3 17923 17924 
3 9127 9128 
1 9127 17923 
3 3503 3504 
3 3502 3503 
3 17447 17448 
3 13598 13599 
3 13597 13598 
1 13597 17448 
3 9128 9129 
2 15844 15845 
2 12028 12029 
2 12029 12030 
1 12030 21151 
2 21151 21152 
2 21152 21153 
2 4909 4910 
2 4910 4911 
1 4911 19791 
2 15703 15704 
2 15704 15705 
1 8061 15703 
2 7658 7659 
1 14199 15705 
2 14198 14199 
3 12200 12201 
3 12199 12200 
1 12201 14197 
2 14197 14198 
2 2948 2949 
2 2947 2948 
2 20059 20060 
2 4936 4937 
2 20060 20061 
2 6802 6803 
1 6802 7659 
2 6803 6804 
2 9992 9993 
2 9991 9992 
1 9991 13155 
2 13154 13155 
2 13153 13154 
2 8180 8181 
2 4555 4556 
1 4555 8181 
2 11372 11373 
2 12191 12192 
2 8335 8336 
1 8335 15651 
2 8336 8337 
1 8337 10710 
1 4557 20229 
2 4556 4557 
2 2557 2558 
2 2558 2559 
1 486 2559 
2 21346 21347 
2 21347 21348 
1 9966 21348 
2 9964 9965 
2 19514 19515 
2 11371 11372 
2 6415 6416 
1 6415 11371 
2 9965 9966 
2 18398 18399 
1 10950 18399 
2 15650 15651 
1 3504 5337 
2 20228 20229 
2 18397 18398 
2 1966 1967 
1 1966 18397 
2 20227 20228 
2 5335 5336 
1 5335 20227 
2 5336 5337 
2 21355 21356 
2 21356 21357 
2 9526 9527 
1 9526 21355 
3 17924 17925 
2 16787 16788 
2 16786 16787 
1 16786 17925 
3 3401 3402 
2 1967 1968 
3 15077 15078 
3 15076 15077 
2 21406 21407 
1 18267 21406 
1 16350 18265 
2 18266 18267 
2 18265 18266 
2 4478 4479 
2 18632 18633 
2 18631 18632 
2 4477 4478 
1 4477 18631 
2 2611 2612 
2 16688 16689 
2 2612 2613 
2 16777 16778 
2 20011 20012 
2 20012 20013 
1 12396 20767 
2 1138 1139 
1 1138 20013 
2 1139 1140 
2 16778 16779 
2 1771 1772 
1 1771 5505 
2 7657 7658 
1 3102 7657 
2 16348 16349 
2 16349 16350 
2 938 939 
2 937 938 
1 937 11023 
1 1773 16348 
2 1772 1773 
2 11023 11024 
2 3100 3101 
1 3100 4479 
2 3101 3102 
2 14344 14345 
1 2613 20410 
2 14345 14346 
2 20410 20411 
1 12963 14344 
2 8179 8180 
1 8179 20412 
2 20411 20412 
2 12962 12963 
2 12961 12962 
2 19235 19236 
2 4267 4268 
2 4268 4269 
2 2272 2273 
1 2272 4267 
2 2273 2274 
2 20767 20768 
2 20768 20769 
2 4892 4893 
1 4893 10708 
2 4891 4892 
1 4891 20769 
3 5504 5505 
3 5503 5504 
2 11024 11025 
2 5164 5165 
1 5164 11025 
2 5165 5166 
2 4912 4913 
2 5722 5723 
1 5722 12961 
2 5723 5724 
2 9269 9270 
1 5724 9270 
2 9268 9269 
1 9268 10948 
2 17074 17075 
2 8269 8270 
1 8269 19236 
2 10948 10949 
2 17075 17076 
2 10708 10709 
2 8585 8586 
2 10709 10710 
1 8271 20148 
2 20147 20148 
2 8270 8271 
2 8584 8585 
1 264 8584 
2 263 264 
2 485 486 
2 484 485 
2 4913 4914 
1 4422 4914 
2 10949 10950 
2 3295 3296 
1 3295 5166 
1 3297 14172 
2 3296 3297 
2 14171 14172 
1 4497 17076 
2 4496 4497 
2 9527 9528 
2 20146 20147 
1 9528 20146 
2 4246 4247 
1 4246 7549 
2 7550 7551 
2 19685 19686 
2 4495 4496 
1 4495 19684 
2 19684 19685 
2 7549 7550 
2 4247 4248 
2 2332 2333 
2 2333 2334 
2 14170 14171 
1 10137 14170 
2 71 72 
1 72 10135 
2 10135 10136 
2 10136 10137 
3 3400 3401 
2 2522 2523 
2 2521 2522 
1 2521 3400 
1 2523 19686 
2 70 71 
2 10447 10448 
1 10447 15078 
2 10448 10449 
2 5815 5816 
1 5815 10449 
2 5816 5817 
2 6584 6585 
2 17881 17882 
2 6583 6584 
1 6583 17547 
2 17546 17547 
2 13321 13322 
1 13321 16812 
2 16811 16812 
2 9464 9465 
2 10801 10802 
2 16687 16688 
1 16687 17545 
2 17545 17546 
2 2236 2237 
2 1322 1323 
1 1323 2238 
2 2237 2238 
2 4109 4110 
1 4110 10801 
2 1630 1631 
1 1630 2236 
2 4108 4109 
1 4108 12394 
2 12394 12395 
2 6686 6687 
2 12395 12396 
2 8390 8391 
2 8389 8390 
1 8389 13407 
2 5776 5777 
1 5776 8391 
2 11108 11109 
2 5777 5778 
2 11107 11108 
1 11107 11971 
2 3676 3677 
2 3677 3678 
1 3678 8838 
2 8837 8838 
1 939 17883 
2 17882 17883 
2 13322 13323 
2 9463 9464 
1 9463 16638 
1 13323 16980 
2 16636 16637 
1 16636 18718 
2 18718 18719 
2 16637 16638 
2 18719 18720 
2 19234 19235 
1 7125 19234 
2 7124 7125 
2 16979 16980 
2 16978 16979 
1 16978 18361 
2 1321 1322 
1 1321 7123 
2 18361 18362 
2 7123 7124 
2 11468 11469 
2 11467 11468 
2 10894 10895 
1 10894 11467 
2 10895 10896 
2 13406 13407 
1 11109 12897 
2 16564 16565 
2 16565 16566 
2 12895 12896 
1 12895 16564 
2 12896 12897 
2 21130 21131 
1 8586 16566 
3 1705 1706 
3 1706 1707 
1 1707 16035 
2 16034 16035 
2 16033 16034 
1 16033 18933 
2 12164 12165 
2 12163 12164 
1 11148 12163 
2 10388 10389 
1 10389 18720 
2 10387 10388 
1 10387 15760 
2 15760 15761 
1 11979 17074 
2 11978 11979 
2 18362 18363 
2 11977 11978 
1 11977 18363 
2 4517 4518 
1 4518 17226 
2 17225 17226 
2 17224 17225 
1 17224 19212 
1 3234 21070 
2 21371 21372 
2 3232 3233 
1 3232 21130 
2 640 641 
1 640 11469 
2 21370 21371 
2 641 642 
1 642 21370 
2 3233 3234 
2 18905 18906 
2 18932 18933 
2 2927 2928 
2 2926 2927 
2 886 887 
1 886 2926 
2 4421 4422 
2 11146 11147 
1 4206 11146 
2 4205 4206 
2 11147 11148 
2 4204 4205 
2 887 888 
2 4135 4136 
1 4135 4204 
2 4420 4421 
1 4386 4420 
2 20563 20564 
1 17001 20563 
2 17000 17001 
2 15761 15762 
2 4516 4517 
1 4516 7093 
2 15427 15428 
1 15427 17620 
1 15762 16999 
2 17620 17621 
2 16999 17000 
1 13389 17622 
2 17621 17622 
2 7093 7094 
1 7551 21372 
2 13273 13274 
1 13273 18906 
2 13274 13275 
2 7094 7095 
2 19591 19592 
1 7095 19591 
2 19592 19593 
2 21380 21381 
1 639 13275 
2 4385 4386 
2 4384 4385 
2 20564 20565 
2 3641 3642 
2 3640 3641 
1 3640 4137 
1 14355 20565 
2 13388 13389 
2 4136 4137 
2 16684 16685 
2 16685 16686 
2 9385 9386 
1 9385 16686 
2 17362 17363 
2 14354 14355 
2 14353 14354 
2 12368 12369 
1 12369 14353 
2 16207 16208 
1 16207 19593 
2 16208 16209 
2 13387 13388 
2 5428 5429 
1 5428 13387 
2 5429 5430 
1 5430 17364 
2 17363 17364 
2 9386 9387 
2 12367 12368 
1 10722 18327 
2 10720 10721 
2 10721 10722 
1 9900 17362 
2 6647 6648 
2 6646 6647 
2 931 932 
2 11563 11564 
1 6648 11563 
2 1871 1872 
2 16810 16811 
2 1870 1871 
1 1870 4117 
1 5280 21394 
2 21394 21395 
2 4117 4118 
2 5279 5280 
2 566 567 
2 21395 21396 
1 15 14274 
2 565 566 
1 565 11973 
2 11972 11973 
1 2445 21396 
2 2444 2445 
2 11971 11972 
2 14273 14274 
2 12908 12909 
2 12907 12908 
1 9231 12907 
2 9230 9231 
2 9229 9230 
1 9229 17097 
2 17096 17097 
3 15604 15605 
1 5817 9040 
2 9040 9041 
2 9041 9042 
1 9042 15606 
3 15605 15606 
2 932 933 
2 8836 8837 
1 6717 8836 
2 15259 15260 
1 15259 19786 
2 19786 19787 
1 933 8434 
2 8434 8435 
2 10055 10056 
2 8435 8436 
2 4118 4119 
2 15260 15261 
1 4119 10056 
1 8436 15489 
2 15614 15615 
2 10054 10055 
1 10054 19210 
2 19210 19211 
2 15613 15614 
2 2443 2444 
1 2443 10896 
2 4618 4619 
1 4618 13261 
2 4619 4620 
1 4620 15613 
2 13261 13262 
2 19211 19212 
2 13262 13263 
1 2847 17095 
2 8041 8042 
1 8041 12855 
2 21131 21132 
2 14272 14273 
2 5752 5753 
1 5752 14272 
2 5753 5754 
2 15112 15113 
2 15113 15114 
1 5754 21132 
2 8042 8043 
2 17095 17096 
2 7933 7934 
1 7933 15112 
2 6716 6717 
2 6715 6716 
2 4715 4716 
1 4716 15487 
2 15488 15489 
2 15487 15488 
2 16850 16851 
2 11485 11486 
1 11485 15261 
2 4714 4715 
1 4714 15429 
2 11486 11487 
1 11487 18681 
2 18680 18681 
2 18679 18680 
2 16849 16850 
1 16849 17898 
2 18904 18905 
2 6076 6077 
1 6076 18904 
1 6078 13263 
2 6077 6078 
2 15164 15165 
1 8043 15165 
2 17897 17898 
2 17896 17897 
1 1650 17896 
2 18931 18932 
2 2342 2343 
2 18101 18102 
2 608 609 
2 2341 2342 
2 20512 20513 
2 20513 20514 
2 3182 3183 
2 9812 9813 
2 3181 3182 
2 607 608 
1 607 3181 
1 3168 9811 
2 9811 9812 
2 11843 11844 
2 15428 15429 
2 3166 3167 
1 3166 11844 
2 3167 3168 
2 12859 12860 
1 12859 18679 
2 1649 1650 
2 2600 2601 
2 18658 18659 
2 2599 2600 
1 2599 10966 
2 1222 1223 
1 1222 12861 
2 1223 1224 
2 21379 21380 
1 1224 21379 
2 7609 7610 
2 1648 1649 
1 1648 18658 
1 2601 7609 
2 12860 12861 
2 18100 18101 
2 17276 17277 
2 17275 17276 
1 17275 18100 
2 11842 11843 
2 4235 4236 
2 15949 15950 
1 2343 4236 
2 15950 15951 
2 4234 4235 
1 4234 15949 
1 2841 15951 
1 7827 11842 
2 7825 7826 
1 7825 19291 
2 19291 19292 
2 7826 7827 
2 19292 19293 
2 18325 18326 
2 18326 18327 
2 2840 2841 
2 2839 2840 
2 15326 15327 
1 4128 5953 
3 5953 5954 
3 5954 5955 
1 5955 9537 
2 15802 15803 
1 10782 15802 
2 10781 10782 
2 1009 1010 
2 15803 15804 
2 2314 2315 
2 9536 9537 
2 9535 9536 
1 9535 15811 
2 9803 9804 
2 15811 15812 
2 15812 15813 
2 14 15 
2 9802 9803 
1 9802 20076 
2 4196 4197 
1 8718 16680 
2 16679 16680 
2 20075 20076 
2 4195 4196 
1 15615 15813 
2 13 14 
1 13 4195 
2 8717 8718 
2 8716 8717 
1 8716 16602 
2 16601 16602 
3 1510 1511 
2 8465 8466 
3 1511 1512 
1 1512 8466 
2 10178 10179 
1 3843 8464 
2 8464 8465 
2 19787 19788 
2 5578 5579 
1 5578 20650 
2 5579 5580 
2 20650 20651 
2 6227 6228 
1 2316 19788 
2 2315 2316 
2 20074 20075 
2 20651 20652 
1 3108 20074 
2 3107 3108 
2 1240 1241 
1 1240 20652 
2 20057 20058 
2 1241 1242 
2 3106 3107 
1 3106 12853 
2 12853 12854 
2 5818 5819 
1 5818 16711 
2 16600 16601 
1 525 20058 
1 16713 21031 
2 21031 21032 
2 21032 21033 
2 16712 16713 
2 16711 16712 
1 15114 16600 
2 12854 12855 
2 6226 6227 
2 2833 2834 
1 2833 6226 
2 2834 2835 
2 3869 3870 
1 3870 13557 
2 14498 14499 
2 3842 3843 
2 14497 14498 
2 3841 3842 
1 3841 14497 
1 2835 17338 
2 17338 17339 
2 17339 17340 
1 1242 16851 
2 3628 3629 
1 3628 17340 
2 524 525 
2 523 524 
1 523 20134 
2 20134 20135 
2 20135 20136 
1 20136 20569 
2 20569 20570 
1 18102 19177 
2 13556 13557 
2 13555 13556 
1 18855 19179 
2 19178 19179 
2 19177 19178 
3 18854 18855 
2 3629 3630 
1 3630 7611 
2 10243 10244 
2 10244 10245 
2 7610 7611 
2 11888 11889 
1 6183 11889 
2 6182 6183 
2 6181 6182 
2 4126 4127 
2 21499 21500 
2 4127 4128 
2 15800 15801 
2 21500 21501 
2 16678 16679 
1 16678 19960 
2 19960 19961 
2 19961 19962 
2 2897 2898 
1 9804 20506 
2 20506 20507 
1 20508 21501 
2 20507 20508 
1 6087 19249 
2 19249 19250 
2 19250 19251 
2 6086 6087 
2 6085 6086 
1 6085 18516 
2 8956 8957 
2 8957 8958 
1 17208 19251 
2 17207 17208 
2 17206 17207 
2 3904 3905 
1 3904 17206 
2 14128 14129 
2 17696 17697 
1 13311 17697 
2 13309 13310 
2 13310 13311 
2 10177 10178 
3 9256 9257 
1 9256 10177 
3 9257 9258 
2 15059 15060 
2 15058 15059 
1 15058 18721 
2 18721 18722 
2 18722 18723 
2 20056 20057 
3 7903 7904 
1 7903 18723 
3 7904 7905 
2 3905 3906 
1 7905 20056 
2 14488 14489 
2 14489 14490 
1 3906 21033 
2 3868 3869 
1 3868 21265 
2 21266 21267 
2 21265 21266 
3 18853 18854 
3 14312 14313 
2 11887 11888 
1 11887 14311 
3 14311 14312 
3 20681 20682 
3 20680 20681 
2 12466 12467 
1 12466 20680 
2 15799 15800 
2 2896 2897 
1 624 12810 
1 12468 18514 
2 12467 12468 
3 18514 18515 
3 18515 18516 
2 12808 12809 
1 12808 14130 
2 14129 14130 
2 12809 12810 
2 623 624 
2 622 623 
2 7706 7707 
2 7705 7706 
2 17459 17460 
2 9530 9531 
1 5391 9531 
3 5390 5391 
3 5389 5390 
2 17458 17459 
2 9529 9530 
2 6356 6357 
2 20710 20711 
1 12192 20710 
2 20711 20712 
2 21049 21050 
2 21050 21051 
3 17446 17447 
1 17446 21049 
2 9143 9144 
1 4968 9142 
2 9142 9143 
3 2513 2514 
3 2512 2513 
1 2512 9144 
2 4967 4968 
1 1530 19878 
2 1529 1530 
2 4297 4298 
1 4297 17460 
2 19876 19877 
2 19877 19878 
2 4966 4967 
2 4298 4299 
2 11861 11862 
1 10695 11862 
3 10694 10695 
3 10693 10694 
1 4929 10693 
2 6355 6356 
2 4927 4928 
2 4928 4929 
2 15097 15098 
2 15098 15099 
3 20965 20966 
3 20966 20967 
1 2280 15099 
2 2278 2279 
2 2279 2280 
2 8144 8145 
2 8143 8144 
2 15649 15650 
1 15649 21051 
1 3402 16614 
3 16613 16614 
3 16612 16613 
2 1532 1533 
2 13777 13778 
2 1531 1532 
2 13778 13779 
2 5380 5381 
2 5381 5382 
2 11306 11307 
2 1528 1529 
1 1528 16924 
2 16924 16925 
2 16925 16926 
1 1140 15502 
3 7834 7835 
1 7834 16926 
2 11305 11306 
1 11305 18937 
2 15502 15503 
2 15503 15504 
2 18937 18938 
2 18938 18939 
3 7835 7836 
2 5242 5243 
1 5242 13405 
2 5243 5244 
2 19276 19277 
1 5244 19278 
2 19277 19278 
1 9069 15504 
1 16833 17334 
2 17333 17334 
2 13405 13406 
3 9068 9069 
3 9067 9068 
2 16400 16401 
2 8360 8361 
2 15392 15393 
2 8359 8360 
1 8359 15391 
2 15391 15392 
2 13853 13854 
2 17332 17333 
2 262 263 
1 5763 13854 
3 5762 5763 
3 5761 5762 
2 1373 1374 
2 1372 1373 
1 1372 11925 
2 11924 11925 
2 11923 11924 
2 19084 19085 
2 19085 19086 
2 19850 19851 
1 19851 20686 
3 20686 20687 
3 20687 20688 
2 1103 1104 
2 15452 15453 
2 20479 20480 
2 20480 20481 
2 15451 15452 
3 14605 14606 
1 14605 18939 
3 14606 14607 
1 7836 9285 
3 9284 9285 
3 9283 9284 
1 9283 13992 
1 14607 16831 
2 3458 3459 
2 16831 16832 
2 2845 2846 
1 2845 3457 
2 16832 16833 
2 3457 3458 
2 16504 16505 
2 2846 2847 
2 13991 13992 
2 16399 16400 
2 16505 16506 
2 21070 21071 
1 3459 15393 
1 1374 21072 
2 29 30 
2 5134 5135 
1 30 5134 
2 17029 17030 
2 5135 5136 
1 5136 13852 
2 17030 17031 
2 13852 13853 
1 4851 17029 
2 21071 21072 
3 14639 14640 
1 14640 15345 
2 19849 19850 
1 19849 21282 
2 637 638 
2 4850 4851 
2 638 639 
2 4849 4850 
1 4849 21280 
2 21280 21281 
2 21281 21282 
2 18643 18644 
2 3758 3759 
1 3759 14638 
3 14638 14639 
2 3757 3758 
2 18644 18645 
3 14681 14682 
3 14680 14681 
1 5994 21381 
1 12684 16209 
2 12683 12684 
3 12821 12822 
2 5992 5993 
1 5992 12822 
2 5993 5994 
2 12682 12683 
3 12820 12821 
2 1102 1103 
1 1102 12682 
2 9898 9899 
2 9899 9900 
2 28 29 
1 28 7935 
1 5019 20718 
2 5018 5019 
2 7934 7935 
1 5820 20824 
2 5905 5906 
2 20717 20718 
2 20716 20717 
2 13990 13991 
1 13990 20716 
2 20570 20571 
2 15163 15164 
1 15163 17031 
2 11575 11576 
1 11575 20826 
2 20825 20826 
2 20824 20825 
2 11576 11577 
2 8413 8414 
1 8413 20571 
2 8414 8415 
1 8415 15343 
2 15343 15344 
2 15344 15345 
2 19009 19010 
2 19010 19011 
1 18660 19009 
2 18659 18660 
1 19011 21331 
2 10966 10967 
3 21331 21332 
3 21332 21333 
2 4544 4545 
2 4543 4544 
1 4543 16224 
1 14682 16222 
3 16222 16223 
3 16223 16224 
2 5200 5201 
1 5200 14454 
2 10967 10968 
2 15956 15957 
2 5728 5729 
1 5728 15955 
2 15955 15956 
2 5729 5730 
2 5201 5202 
3 2422 2423 
2 6232 6233 
2 6233 6234 
2 21020 21021 
1 5907 21021 
2 21019 21020 
3 2423 2424 
1 6234 14490 
2 5906 5907 
2 5819 5820 
2 5017 5018 
2 14833 14834 
2 5339 5340 
2 5338 5339 
2 16802 16803 
2 14834 14835 
2 2218 2219 
1 2218 4545 
2 2219 2220 
2 14452 14453 
2 14453 14454 
1 2424 17695 
2 17695 17696 
2 16801 16802 
3 2173 2174 
3 740 741 
1 741 13593 
3 739 740 
1 276 739 
3 275 276 
3 274 275 
3 2174 2175 
1 2175 10624 
2 10624 10625 
2 10625 10626 
2 7198 7199 
1 7198 10626 
2 1169 1170 
1 1170 17595 
2 1168 1169 
3 17593 17594 
3 15823 15824 
1 15823 17593 
3 17594 17595 
3 15824 15825 
2 7199 7200 
3 13591 13592 
3 13592 13593 
2 11326 11327 
1 12318 17829 
2 3922 3923 
2 3923 3924 
1 3924 8086 
2 8086 8087 
2 17828 17829 
2 17827 17828 
2 8087 8088 
3 19 20 
1 19 8088 
3 20 21 
1 21 11328 
2 11327 11328 
3 17347 17348 
3 12317 12318 
3 12316 12317 
1 12316 17349 
3 17348 17349 
