ITEM: TIMESTEP
0
ITEM: NUMBER OF ATOMS
663
ITEM: BOX BOUNDS pp pp pp
0.0000000000000000e+00 5.0000000000000000e+01
0.0000000000000000e+00 5.0000000000000000e+01
0.0000000000000000e+00 5.0000000000000000e+01
ITEM: ATOMS id type 
64 1 
65 3 
66 1 
304 1 
305 3 
306 1 
427 1 
428 3 
429 1 
1210 1 
1211 3 
1212 1 
1270 1 
1271 3 
1272 1 
1327 1 
1328 3 
1329 1 
1501 1 
1502 3 
1503 1 
2224 1 
2225 3 
2226 1 
2524 1 
2525 3 
2526 1 
3424 1 
3425 3 
3426 1 
3487 1 
3488 3 
3489 1 
5710 1 
5711 3 
5712 1 
6001 1 
6002 3 
6003 1 
7870 1 
7871 3 
7872 1 
9064 1 
9065 3 
9066 1 
10141 1 
10142 3 
10143 1 
10150 1 
10151 3 
10152 1 
2419 1 
2420 3 
2421 1 
4333 1 
4334 3 
4335 1 
4639 1 
4640 2 
4641 1 
5596 1 
5597 3 
5598 1 
5653 1 
5654 2 
5655 1 
7036 1 
7037 3 
7038 1 
8056 1 
8057 3 
8058 1 
9016 1 
9017 3 
9018 1 
10093 1 
10094 3 
10095 1 
10339 1 
10340 3 
10341 1 
268 1 
269 2 
270 1 
1534 1 
1535 3 
1536 1 
2245 1 
2246 3 
2247 1 
4471 1 
4472 3 
4473 1 
4525 1 
4526 3 
4527 1 
4834 1 
4835 3 
4836 1 
5794 1 
5795 3 
5796 1 
6814 1 
6815 3 
6816 1 
6985 1 
6986 3 
6987 1 
10051 1 
10052 3 
10053 1 
10174 1 
10175 3 
10176 1 
10288 1 
10289 3 
10290 1 
346 1 
347 3 
348 1 
406 1 
407 3 
408 1 
1426 1 
1427 3 
1428 1 
2440 1 
2441 3 
2442 1 
4897 1 
4898 3 
4899 1 
5557 1 
5558 3 
5559 1 
9223 1 
9224 3 
9225 1 
9286 1 
9287 2 
9288 1 
10180 1 
10181 3 
10182 1 
10240 1 
10241 3 
10242 1 
3238 1 
3239 3 
3240 1 
4735 1 
4736 3 
4737 1 
4798 1 
4799 3 
4800 1 
8038 1 
8039 3 
8040 1 
8278 1 
8279 3 
8280 1 
9115 1 
9116 2 
9117 1 
10555 1 
10556 3 
10557 1 
964 1 
965 3 
966 1 
1021 1 
1022 2 
1023 1 
2050 1 
2051 3 
2052 1 
4270 1 
4271 3 
4272 1 
6370 1 
6371 3 
6372 1 
6607 1 
6608 3 
6609 1 
7627 1 
7628 3 
7629 1 
7681 1 
7682 3 
7683 1 
7684 1 
7685 3 
7686 1 
7687 1 
7688 3 
7689 1 
10630 1 
10631 3 
10632 1 
862 1 
863 3 
864 1 
1696 1 
1697 3 
1698 1 
1702 1 
1703 3 
1704 1 
1822 1 
1823 3 
1824 1 
1873 1 
1874 3 
1875 1 
2656 1 
2657 3 
2658 1 
3022 1 
3023 3 
3024 1 
3916 1 
3917 2 
3918 1 
5002 1 
5003 3 
5004 1 
6196 1 
6197 3 
6198 1 
6313 1 
6314 2 
6315 1 
6499 1 
6500 3 
6501 1 
8782 1 
8783 3 
8784 1 
8833 1 
8834 3 
8835 1 
9493 1 
9494 3 
9495 1 
9859 1 
9860 3 
9861 1 
10573 1 
10574 2 
10575 1 
10633 1 
10634 3 
10635 1 
10699 1 
10700 3 
10701 1 
4045 1 
4046 3 
4047 1 
5251 1 
5252 3 
5253 1 
6088 1 
6089 3 
6090 1 
6388 1 
6389 2 
6390 1 
6565 1 
6566 3 
6567 1 
8845 1 
8846 3 
8847 1 
9925 1 
9926 3 
9927 1 
1057 1 
1058 3 
1059 1 
1906 1 
1907 3 
1908 1 
2683 1 
2684 3 
2685 1 
3820 1 
3821 3 
3822 1 
5137 1 
5138 3 
5139 1 
6400 1 
6401 3 
6402 1 
6577 1 
6578 3 
6579 1 
7660 1 
7661 3 
7662 1 
7726 1 
7727 2 
7728 1 
9523 1 
9524 3 
9525 1 
2089 1 
2090 3 
2091 1 
2152 1 
2153 3 
2154 1 
2692 1 
2693 3 
2694 1 
3175 1 
3176 3 
3177 1 
4075 1 
4076 3 
4077 1 
8452 1 
8453 2 
8454 1 
8635 1 
8636 3 
8637 1 
8695 1 
8696 3 
8697 1 
10798 1 
10799 2 
10800 1 
12067 1 
12068 3 
12069 1 
12610 1 
12611 3 
12612 1 
18487 1 
18488 3 
18489 1 
18841 1 
18842 3 
18843 1 
19507 1 
19508 3 
19509 1 
19861 1 
19862 3 
19863 1 
20521 1 
20522 3 
20523 1 
20644 1 
20645 3 
20646 1 
12073 1 
12074 3 
12075 1 
12253 1 
12254 3 
12255 1 
12262 1 
12263 3 
12264 1 
12373 1 
12374 3 
12375 1 
12493 1 
12494 3 
12495 1 
12622 1 
12623 3 
12624 1 
13156 1 
13157 3 
13158 1 
14293 1 
14294 3 
14295 1 
14536 1 
14537 3 
14538 1 
19516 1 
19517 3 
19518 1 
21022 1 
21023 3 
21024 1 
11431 1 
11432 2 
11433 1 
13225 1 
13226 3 
13227 1 
13465 1 
13466 3 
13467 1 
15508 1 
15509 3 
15510 1 
15754 1 
15755 3 
15756 1 
17725 1 
17726 3 
17727 1 
20908 1 
20909 3 
20910 1 
14446 1 
14447 3 
14448 1 
15577 1 
15578 3 
15579 1 
17326 1 
17327 3 
17328 1 
12175 1 
12176 3 
12177 1 
13252 1 
13253 3 
13254 1 
15418 1 
15419 3 
15420 1 
15652 1 
15653 3 
15654 1 
16549 1 
16550 3 
16551 1 
17335 1 
17336 2 
17337 1 
17578 1 
17579 3 
17580 1 
17632 1 
17633 3 
17634 1 
17818 1 
17819 3 
17820 1 
19678 1 
19679 3 
19680 1 
20992 1 
20993 3 
20994 1 
11764 1 
11765 2 
11766 1 
11827 1 
11828 3 
11829 1 
12007 1 
12008 2 
12009 1 
13741 1 
13742 3 
13743 1 
13987 1 
13988 3 
13989 1 
14701 1 
14702 2 
14703 1 
15130 1 
15131 3 
15132 1 
15784 1 
15785 2 
15786 1 
15964 1 
15965 3 
15966 1 
16027 1 
16028 3 
16029 1 
16804 1 
16805 2 
16806 1 
16981 1 
16982 3 
16983 1 
19924 1 
19925 2 
19926 1 
20284 1 
20285 3 
20286 1 
20464 1 
20465 3 
20466 1 
12802 1 
12803 3 
12804 1 
12856 1 
12857 2 
12858 1 
13033 1 
13034 3 
13035 1 
13693 1 
13694 3 
13695 1 
14956 1 
14957 3 
14958 1 
17053 1 
17054 3 
17055 1 
18139 1 
18140 3 
18141 1 
19219 1 
19220 3 
19221 1 
21433 1 
21434 3 
21435 1 
21556 1 
21557 3 
21558 1 
21562 1 
21563 2 
21564 1 
14794 1 
14795 3 
14796 1 
15994 1 
15995 3 
15996 1 
16105 1 
16106 2 
16107 1 
16288 1 
16289 3 
16290 1 
17065 1 
17066 3 
17067 1 
17974 1 
17975 3 
17976 1 
18088 1 
18089 2 
18090 1 
19405 1 
19406 3 
19407 1 
20248 1 
20249 3 
20250 1 
21205 1 
21206 3 
21207 1 
21208 1 
21209 3 
21210 1 
11623 1 
11624 2 
11625 1 
11746 1 
11747 3 
11748 1 
12037 1 
12038 3 
12039 1 
13900 1 
13901 3 
13902 1 
15043 1 
15044 3 
15045 1 
15157 1 
15158 3 
15159 1 
15160 1 
15161 3 
15162 1 
15223 1 
15224 3 
15225 1 
15877 1 
15878 3 
15879 1 
15943 1 
15944 3 
15945 1 
15997 1 
15998 3 
15999 1 
16120 1 
16121 3 
16122 1 
16180 1 
16181 3 
16182 1 
16186 1 
16187 3 
16188 1 
16837 1 
16838 3 
16839 1 
17023 1 
17024 3 
17025 1 
18223 1 
18224 3 
18225 1 
19117 1 
19118 3 
19119 1 
19300 1 
19301 3 
19302 1 
20380 1 
20381 2 
20382 1 
20446 1 
20447 3 
20448 1 
11929 1 
11930 3 
11931 1 
12835 1 
12836 3 
12837 1 
16129 1 
16130 3 
16131 1 
16258 1 
16259 3 
16260 1 
17938 1 
17939 3 
17940 1 
18112 1 
18113 3 
18114 1 
18235 1 
18236 3 
18237 1 
18238 1 
18239 3 
18240 1 
18289 1 
18290 3 
18291 1 
19429 1 
19430 3 
19431 1 
21529 1 
21530 3 
21531 1 
