ITEM: TIMESTEP
0
ITEM: NUMBER OF ATOMS
1269
ITEM: BOX BOUNDS pp pp pp
0.0000000000000000e+00 5.0000000000000000e+01
0.0000000000000000e+00 5.0000000000000000e+01
0.0000000000000000e+00 5.0000000000000000e+01
ITEM: ATOMS id type 
70 1 
71 2 
72 1 
484 1 
485 2 
486 1 
1321 1 
1322 2 
1323 1 
1510 1 
1511 3 
1512 1 
1630 1 
1631 2 
1632 1 
2341 1 
2342 2 
2343 1 
2521 1 
2522 2 
2523 1 
3181 1 
3182 2 
3183 1 
4384 1 
4385 2 
4386 1 
5761 1 
5762 3 
5763 1 
6847 1 
6848 3 
6849 1 
8041 1 
8042 2 
8043 1 
8230 1 
8231 2 
8232 1 
9067 1 
9068 3 
9069 1 
9127 1 
9128 3 
9129 1 
9964 1 
9965 2 
9966 1 
10387 1 
10388 2 
10389 1 
10447 1 
10448 2 
10449 1 
13 1 
14 2 
15 1 
19 1 
20 3 
21 1 
262 1 
263 2 
264 1 
1222 1 
1223 2 
1224 1 
2236 1 
2237 2 
2238 1 
2422 1 
2423 3 
2424 1 
2599 1 
2600 2 
2601 1 
3502 1 
3503 3 
3504 1 
3676 1 
3677 2 
3678 1 
4516 1 
4517 2 
4518 1 
5722 1 
5723 2 
5724 1 
5776 1 
5777 2 
5778 1 
5953 1 
5954 3 
5955 1 
6802 1 
6803 2 
6804 1 
7093 1 
7094 2 
7095 1 
7933 1 
7934 2 
7935 1 
8059 1 
8060 2 
8061 1 
8179 1 
8180 2 
8181 1 
8956 1 
8957 2 
8958 1 
9142 1 
9143 2 
9144 1 
9256 1 
9257 3 
9258 1 
28 1 
29 2 
30 1 
274 1 
275 3 
276 1 
1168 1 
1169 2 
1170 1 
1528 1 
1529 2 
1530 1 
1531 1 
1532 2 
1533 1 
1648 1 
1649 2 
1650 1 
2314 1 
2315 2 
2316 1 
2428 1 
2429 2 
2430 1 
2611 1 
2612 2 
2613 1 
3628 1 
3629 2 
3630 1 
3634 1 
3635 2 
3636 1 
4714 1 
4715 2 
4716 1 
4891 1 
4892 2 
4893 1 
5728 1 
5729 2 
5730 1 
5905 1 
5906 2 
5907 1 
6685 1 
6686 2 
6687 1 
6931 1 
6932 2 
6933 1 
7825 1 
7826 2 
7827 1 
7834 1 
7835 3 
7836 1 
9268 1 
9269 2 
9270 1 
9991 1 
9992 2 
9993 1 
10054 1 
10055 2 
10056 1 
523 1 
524 2 
525 1 
1240 1 
1241 2 
1242 1 
2443 1 
2444 2 
2445 1 
2557 1 
2558 2 
2559 1 
3400 1 
3401 3 
3402 1 
3457 1 
3458 2 
3459 1 
3640 1 
3641 2 
3642 1 
3757 1 
3758 2 
3759 1 
4420 1 
4421 2 
4422 1 
4477 1 
4478 2 
4479 1 
4543 1 
4544 2 
4545 1 
5503 1 
5504 3 
5505 1 
7123 1 
7124 2 
7125 1 
7903 1 
7904 3 
7905 1 
8086 1 
8087 2 
8088 1 
8143 1 
8144 2 
8145 1 
9040 1 
9041 2 
9042 1 
9283 1 
9284 3 
9285 1 
10177 1 
10178 2 
10179 1 
10186 1 
10187 2 
10188 1 
10243 1 
10244 2 
10245 1 
1372 1 
1373 2 
1374 1 
2272 1 
2273 2 
2274 1 
2278 1 
2279 2 
2280 1 
2332 1 
2333 2 
2334 1 
2452 1 
2453 2 
2454 1 
2512 1 
2513 3 
2514 1 
3232 1 
3233 2 
3234 1 
3295 1 
3296 2 
3297 1 
4495 1 
4496 2 
4497 1 
4555 1 
4556 2 
4557 1 
4618 1 
4619 2 
4620 1 
4849 1 
4850 2 
4851 1 
4909 1 
4910 2 
4911 1 
4912 1 
4913 2 
4914 1 
5569 1 
5570 2 
5571 1 
5578 1 
5579 2 
5580 1 
5752 1 
5753 2 
5754 1 
5815 1 
5816 2 
5817 1 
5818 1 
5819 2 
5820 1 
5992 1 
5993 2 
5994 1 
6715 1 
6716 2 
6717 1 
7198 1 
7199 2 
7200 1 
8269 1 
8270 2 
8271 1 
8335 1 
8336 2 
8337 1 
9229 1 
9230 2 
9231 1 
10135 1 
10136 2 
10137 1 
607 1 
608 2 
609 1 
1870 1 
1871 2 
1872 1 
2947 1 
2948 2 
2949 1 
3841 1 
3842 2 
3843 1 
3904 1 
3905 2 
3906 1 
4204 1 
4205 2 
4206 1 
4267 1 
4268 2 
4269 1 
4927 1 
4928 2 
4929 1 
5164 1 
5165 2 
5166 1 
6181 1 
6182 2 
6183 1 
8464 1 
8465 2 
8466 1 
8584 1 
8585 2 
8586 1 
10624 1 
10625 2 
10626 1 
10801 1 
10802 2 
10803 1 
10924 1 
10925 2 
10926 1 
622 1 
623 2 
624 1 
739 1 
740 3 
741 1 
1102 1 
1103 2 
1104 1 
2122 1 
2123 2 
2124 1 
2173 1 
2174 3 
2175 1 
2833 1 
2834 2 
2835 1 
2839 1 
2840 2 
2841 1 
2896 1 
2897 2 
2898 1 
3922 1 
3923 2 
3924 1 
4936 1 
4937 2 
4938 1 
5116 1 
5117 2 
5118 1 
5242 1 
5243 2 
5244 1 
6076 1 
6077 2 
6078 1 
8359 1 
8360 2 
8361 1 
8413 1 
8414 2 
8415 1 
8716 1 
8717 2 
8718 1 
8836 1 
8837 2 
8838 1 
9802 1 
9803 2 
9804 1 
10693 1 
10694 3 
10695 1 
565 1 
566 2 
567 1 
625 1 
626 2 
627 1 
931 1 
932 2 
933 1 
1705 1 
1706 3 
1707 1 
1771 1 
1772 2 
1773 1 
2005 1 
2006 2 
2007 1 
2845 1 
2846 2 
2847 1 
3868 1 
3869 2 
3870 1 
4108 1 
4109 2 
4110 1 
4234 1 
4235 2 
4236 1 
5134 1 
5135 2 
5136 1 
5428 1 
5429 2 
5430 1 
6085 1 
6086 2 
6087 1 
7414 1 
7415 2 
7416 1 
7705 1 
7706 2 
7707 1 
8434 1 
8435 2 
8436 1 
9385 1 
9386 2 
9387 1 
9811 1 
9812 2 
9813 1 
10708 1 
10709 2 
10710 1 
10894 1 
10895 2 
10896 1 
10948 1 
10949 2 
10950 1 
637 1 
638 2 
639 1 
640 1 
641 2 
642 1 
886 1 
887 2 
888 1 
937 1 
938 2 
939 1 
1966 1 
1967 2 
1968 1 
2926 1 
2927 2 
2928 1 
3100 1 
3101 2 
3102 1 
3106 1 
3107 2 
3108 1 
3157 1 
3158 2 
3159 1 
3166 1 
3167 2 
3168 1 
4117 1 
4118 2 
4119 1 
4126 1 
4127 2 
4128 1 
4246 1 
4247 2 
4248 1 
4297 1 
4298 2 
4299 1 
4966 1 
4967 2 
4968 1 
5017 1 
5018 2 
5019 1 
5200 1 
5201 2 
5202 1 
5380 1 
5381 2 
5382 1 
6226 1 
6227 2 
6228 1 
6583 1 
6584 2 
6585 1 
6646 1 
6647 2 
6648 1 
7657 1 
7658 2 
7659 1 
9463 1 
9464 2 
9465 1 
9526 1 
9527 2 
9528 1 
10720 1 
10721 2 
10722 1 
10780 1 
10781 2 
10782 1 
10966 1 
10967 2 
10968 1 
11023 1 
11024 2 
11025 1 
952 1 
953 2 
954 1 
1009 1 
1010 2 
1011 1 
1138 1 
1139 2 
1140 1 
2218 1 
2219 2 
2220 1 
4135 1 
4136 2 
4137 1 
4195 1 
4196 2 
4197 1 
4198 1 
4199 2 
4200 1 
5149 1 
5150 2 
5151 1 
5278 1 
5279 2 
5280 1 
5335 1 
5336 2 
5337 1 
5338 1 
5339 2 
5340 1 
5389 1 
5390 3 
5391 1 
6232 1 
6233 2 
6234 1 
6355 1 
6356 2 
6357 1 
6415 1 
6416 2 
6417 1 
7549 1 
7550 2 
7551 1 
7609 1 
7610 2 
7611 1 
8389 1 
8390 2 
8391 1 
9529 1 
9530 2 
9531 1 
9535 1 
9536 2 
9537 1 
9898 1 
9899 2 
9900 1 
11107 1 
11108 2 
11109 1 
11467 1 
11468 2 
11469 1 
12184 1 
12185 2 
12186 1 
12190 1 
12191 2 
12192 1 
12367 1 
12368 2 
12369 1 
13201 1 
13202 3 
13203 1 
13261 1 
13262 2 
13263 1 
13321 1 
13322 2 
13323 1 
13387 1 
13388 2 
13389 1 
13507 1 
13508 2 
13509 1 
14344 1 
14345 2 
14346 1 
15427 1 
15428 2 
15429 1 
15487 1 
15488 2 
15489 1 
15604 1 
15605 3 
15606 1 
16504 1 
16505 2 
16506 1 
16564 1 
16565 2 
16566 1 
16684 1 
16685 2 
16686 1 
16687 1 
16688 2 
16689 1 
17347 1 
17348 3 
17349 1 
18361 1 
18362 2 
18363 1 
18721 1 
18722 2 
18723 1 
19684 1 
19685 2 
19686 1 
20650 1 
20651 2 
20652 1 
20710 1 
20711 2 
20712 1 
20767 1 
20768 2 
20769 1 
20824 1 
20825 2 
20826 1 
12199 1 
12200 3 
12201 1 
12316 1 
12317 3 
12318 1 
13153 1 
13154 2 
13155 1 
13273 1 
13274 2 
13275 1 
14353 1 
14354 2 
14355 1 
15502 1 
15503 2 
15504 1 
15613 1 
15614 2 
15615 1 
16399 1 
16400 2 
16401 1 
16636 1 
16637 2 
16638 1 
17362 1 
17363 2 
17364 1 
17593 1 
17594 3 
17595 1 
18562 1 
18563 2 
18564 1 
18679 1 
18680 2 
18681 1 
18853 1 
18854 3 
18855 1 
18862 1 
18863 2 
18864 1 
19513 1 
19514 2 
19515 1 
19876 1 
19877 2 
19878 1 
20716 1 
20717 2 
20718 1 
21019 1 
21020 2 
21021 1 
11305 1 
11306 2 
11307 1 
11371 1 
11372 2 
11373 1 
11485 1 
11486 2 
11487 1 
12394 1 
12395 2 
12396 1 
13174 1 
13175 2 
13176 1 
13405 1 
13406 2 
13407 1 
13528 1 
13529 2 
13530 1 
13591 1 
13592 3 
13593 1 
14311 1 
14312 3 
14313 1 
14488 1 
14489 2 
14490 1 
14605 1 
14606 3 
14607 1 
15325 1 
15326 2 
15327 1 
15391 1 
15392 2 
15393 1 
15451 1 
15452 2 
15453 1 
16348 1 
16349 2 
16350 1 
16645 1 
16646 2 
16647 1 
16711 1 
16712 2 
16713 1 
17545 1 
17546 2 
17547 1 
18514 1 
18515 3 
18516 1 
18631 1 
18632 2 
18633 1 
19591 1 
19592 2 
19593 1 
20965 1 
20966 3 
20967 1 
21031 1 
21032 2 
21033 1 
11146 1 
11147 2 
11148 1 
11326 1 
11327 2 
11328 1 
11506 1 
11507 2 
11508 1 
12163 1 
12164 2 
12165 1 
12466 1 
12467 2 
12468 1 
13597 1 
13598 3 
13599 1 
14497 1 
14498 2 
14499 1 
14680 1 
14681 3 
14682 1 
15343 1 
15344 2 
15345 1 
15703 1 
15704 2 
15705 1 
15760 1 
15761 2 
15762 1 
16600 1 
16601 2 
16602 1 
17446 1 
17447 3 
17448 1 
17620 1 
17621 2 
17622 1 
18397 1 
18398 2 
18399 1 
18643 1 
18644 2 
18645 1 
19786 1 
19787 2 
19788 1 
20563 1 
20564 2 
20565 1 
20680 1 
20681 3 
20682 1 
20686 1 
20687 3 
20688 1 
13189 1 
13190 2 
13191 1 
13309 1 
13310 2 
13311 1 
13555 1 
13556 2 
13557 1 
14272 1 
14273 2 
14274 1 
14452 1 
14453 2 
14454 1 
14638 1 
14639 3 
14640 1 
15649 1 
15650 2 
15651 1 
16612 1 
16613 3 
16614 1 
16678 1 
16679 2 
16680 1 
17332 1 
17333 2 
17334 1 
17338 1 
17339 2 
17340 1 
17458 1 
17459 2 
17460 1 
17695 1 
17696 2 
17697 1 
18658 1 
18659 2 
18660 1 
18718 1 
18719 2 
18720 1 
19789 1 
19790 2 
19791 1 
19849 1 
19850 2 
19851 1 
20569 1 
20570 2 
20571 1 
21049 1 
21050 2 
21051 1 
11887 1 
11888 2 
11889 1 
12907 1 
12908 2 
12909 1 
12961 1 
12962 2 
12963 1 
13990 1 
13991 2 
13992 1 
14170 1 
14171 2 
14172 1 
15844 1 
15845 2 
15846 1 
16207 1 
16208 2 
16209 1 
16801 1 
16802 2 
16803 1 
16810 1 
16811 2 
16812 1 
16924 1 
16925 2 
16926 1 
17224 1 
17225 2 
17226 1 
17827 1 
17828 2 
17829 1 
17881 1 
17882 2 
17883 1 
18904 1 
18905 2 
18906 1 
19084 1 
19085 2 
19086 1 
19210 1 
19211 2 
19212 1 
20227 1 
20228 2 
20229 1 
20410 1 
20411 2 
20412 1 
21070 1 
21071 2 
21072 1 
21130 1 
21131 2 
21132 1 
21370 1 
21371 2 
21372 1 
11842 1 
11843 2 
11844 1 
12682 1 
12683 2 
12684 1 
12853 1 
12854 2 
12855 1 
12859 1 
12860 2 
12861 1 
14833 1 
14834 2 
14835 1 
15076 1 
15077 3 
15078 1 
15259 1 
15260 2 
15261 1 
15799 1 
15800 2 
15801 1 
15802 1 
15803 2 
15804 1 
16033 1 
16034 2 
16035 1 
16222 1 
16223 3 
16224 1 
16999 1 
17000 2 
17001 1 
17896 1 
17897 2 
17898 1 
19276 1 
19277 2 
19278 1 
20056 1 
20057 2 
20058 1 
20059 1 
20060 2 
20061 1 
20479 1 
20480 2 
20481 1 
21379 1 
21380 2 
21381 1 
21499 1 
21500 2 
21501 1 
11665 1 
11666 2 
11667 1 
11971 1 
11972 2 
11973 1 
12028 1 
12029 2 
12030 1 
12808 1 
12809 2 
12810 1 
14128 1 
14129 2 
14130 1 
15211 1 
15212 2 
15213 1 
15811 1 
15812 2 
15813 1 
16831 1 
16832 2 
16833 1 
17074 1 
17075 2 
17076 1 
18265 1 
18266 2 
18267 1 
18325 1 
18326 2 
18327 1 
18931 1 
18932 2 
18933 1 
19234 1 
19235 2 
19236 1 
19291 1 
19292 2 
19293 1 
20011 1 
20012 2 
20013 1 
20074 1 
20075 2 
20076 1 
20134 1 
20135 2 
20136 1 
21151 1 
21152 2 
21153 1 
21265 1 
21266 2 
21267 1 
21331 1 
21332 3 
21333 1 
21394 1 
21395 2 
21396 1 
11563 1 
11564 2 
11565 1 
11860 1 
11861 2 
11862 1 
11923 1 
11924 2 
11925 1 
11977 1 
11978 2 
11979 1 
12820 1 
12821 3 
12822 1 
13777 1 
13778 2 
13779 1 
13903 1 
13904 2 
13905 1 
14197 1 
14198 2 
14199 1 
15097 1 
15098 2 
15099 1 
15163 1 
15164 2 
15165 1 
15823 1 
15824 3 
15825 1 
16777 1 
16778 2 
16779 1 
16786 1 
16787 2 
16788 1 
17206 1 
17207 2 
17208 1 
17857 1 
17858 2 
17859 1 
17923 1 
17924 3 
17925 1 
18100 1 
18101 2 
18102 1 
18937 1 
18938 2 
18939 1 
19177 1 
19178 2 
19179 1 
19960 1 
19961 2 
19962 1 
20146 1 
20147 2 
20148 1 
20506 1 
20507 2 
20508 1 
21280 1 
21281 2 
21282 1 
21346 1 
21347 2 
21348 1 
21406 1 
21407 2 
21408 1 
11575 1 
11576 2 
11577 1 
11698 1 
11699 2 
11700 1 
12895 1 
12896 2 
12897 1 
13852 1 
13853 2 
13854 1 
15058 1 
15059 2 
15060 1 
15112 1 
15113 2 
15114 1 
15838 1 
15839 2 
15840 1 
15949 1 
15950 2 
15951 1 
15955 1 
15956 2 
15957 1 
16849 1 
16850 2 
16851 1 
16978 1 
16979 2 
16980 1 
17029 1 
17030 2 
17031 1 
17095 1 
17096 2 
17097 1 
17275 1 
17276 2 
17277 1 
19009 1 
19010 2 
19011 1 
19249 1 
19250 2 
19251 1 
20512 1 
20513 2 
20514 1 
21355 1 
21356 2 
21357 1 
