ITEM: TIMESTEP
20000000
ITEM: NUMBER OF ATOMS
222
ITEM: BOX BOUNDS pp pp pp
0.0000000000000000e+00 5.0000000000000000e+01
0.0000000000000000e+00 5.0000000000000000e+01
0.0000000000000000e+00 5.0000000000000000e+01
ITEM: ATOMS id type xs ys zs
8214 1 0.630379 0.0127353 0.554283
8213 2 0.634911 0.0145551 0.560476
12147 1 0.630506 0.0308304 0.590739
8212 1 0.637522 0.0177243 0.568039
15193 1 0.638311 0.0189745 0.570473
15194 2 0.641919 0.0220841 0.576974
15195 1 0.643075 0.0221394 0.584417
2047 1 0.643182 0.0220746 0.587705
19171 1 0.652762 0.0266229 0.587644
13234 1 0.686272 0.0282855 0.586588
12146 2 0.623529 0.0328838 0.594152
19172 2 0.657477 0.0329576 0.584384
19173 1 0.66108 0.0391847 0.581062
14376 1 0.646889 0.0425898 0.594097
13235 2 0.687614 0.0359469 0.587412
3251 2 0.667744 0.0472971 0.579324
3250 1 0.673618 0.0534919 0.57797
14268 1 0.675876 0.0554512 0.577012
14267 2 0.681556 0.0604875 0.575507
3252 1 0.66266 0.0416429 0.579974
13236 1 0.689413 0.0435099 0.58971
19098 1 0.667344 0.0485896 0.594291
6430 1 0.690225 0.0468402 0.591037
6431 2 0.691371 0.0544085 0.594658
5189 2 0.705524 0.0504916 0.575055
5190 1 0.710322 0.0489411 0.568434
5188 1 0.702375 0.0538572 0.580629
19492 1 0.670604 0.0732273 0.593824
14266 1 0.688038 0.065077 0.574947
7594 1 0.690516 0.0666308 0.574848
7595 2 0.696713 0.070054 0.575527
7596 1 0.703417 0.0746792 0.577204
3708 1 0.706606 0.076337 0.57812
3707 2 0.714599 0.0792128 0.581068
3706 1 0.721148 0.0819364 0.584051
15636 1 0.723622 0.0830118 0.585715
14618 2 0.669871 0.12376 0.592569
14617 1 0.665607 0.128707 0.587358
2048 2 0.643502 0.0215902 0.595328
9319 1 0.644565 0.0218232 0.606639
2049 1 0.644004 0.0220607 0.603736
9320 2 0.646027 0.021188 0.614167
9321 1 0.648755 0.0201087 0.62115
4449 1 0.64991 0.0194811 0.624034
5618 2 0.669702 0.0205256 0.618146
5619 1 0.670071 0.0217123 0.626416
5617 1 0.669159 0.0192167 0.610199
15275 2 0.698387 0.0286493 0.614811
6892 1 0.718387 0.00919335 0.617074
6893 2 0.71233 0.0137514 0.616391
6894 1 0.706163 0.0198616 0.616157
15274 1 0.704305 0.0220458 0.61577
14826 1 0.588782 0.0602945 0.599657
14825 3 0.59487 0.0560685 0.598168
18617 3 0.608787 0.043976 0.595124
18616 1 0.615436 0.0389691 0.595212
12145 1 0.617994 0.0372188 0.595247
9521 2 0.627162 0.0534512 0.607471
9522 1 0.622866 0.057908 0.611947
14824 1 0.601256 0.0500149 0.597685
18618 1 0.603271 0.0483822 0.597077
14375 2 0.641515 0.047284 0.596525
9072 1 0.638546 0.035976 0.62191
14374 1 0.63447 0.0505094 0.600576
9520 1 0.632236 0.0511579 0.602447
9071 2 0.641725 0.0377615 0.628907
17037 1 0.654487 0.043763 0.609263
17036 2 0.650126 0.0487955 0.614342
17035 1 0.647428 0.0534663 0.620367
6854 2 0.643399 0.0605944 0.628709
6855 1 0.646347 0.055322 0.62264
19097 2 0.668204 0.0535488 0.599527
3575 2 0.684039 0.0390896 0.60935
6432 1 0.692681 0.0599252 0.599551
19096 1 0.66717 0.0563619 0.607012
3576 1 0.676633 0.0418346 0.608213
3574 1 0.690212 0.0360843 0.610867
15276 1 0.692598 0.0342683 0.611567
1775 2 0.665944 0.0450832 0.628888
1776 1 0.662828 0.0497306 0.623812
2768 2 0.683708 0.0577297 0.622361
6538 1 0.694468 0.0537043 0.618382
2769 1 0.691642 0.0542703 0.619929
2767 1 0.676781 0.0603986 0.621328
12166 1 0.6742 0.0612353 0.620854
10229 2 0.712936 0.0457082 0.596493
10230 1 0.715303 0.038308 0.595292
10228 1 0.711669 0.0526665 0.59723
18834 1 0.711297 0.0560404 0.597627
6540 1 0.705465 0.0495962 0.607892
6539 2 0.701354 0.0515564 0.613564
19738 1 0.724215 0.0347978 0.628275
904 1 0.626075 0.0865855 0.610681
905 2 0.628694 0.0858473 0.617434
9596 2 0.643225 0.0901918 0.600601
9597 1 0.64288 0.0826573 0.602176
7804 1 0.642415 0.0798513 0.602697
10902 1 0.633475 0.085823 0.627743
906 1 0.632169 0.085682 0.624671
9730 1 0.659369 0.0897611 0.619576
7805 2 0.641072 0.0722895 0.602787
7806 1 0.638108 0.0656605 0.604576
12168 1 0.657744 0.0675693 0.619409
16815 1 0.69288 0.0621914 0.601039
16814 2 0.692067 0.0689231 0.606124
19493 2 0.667555 0.0769308 0.600211
16813 1 0.691232 0.0755983 0.610804
11227 1 0.691248 0.0776492 0.612867
11228 2 0.69082 0.0827412 0.618912
7612 1 0.686624 0.0887171 0.626592
11229 1 0.688063 0.0878641 0.624231
19494 1 0.662757 0.0790565 0.606427
12167 2 0.666634 0.0645263 0.619665
20217 1 0.708644 0.0734021 0.599826
18832 1 0.709254 0.0708949 0.599537
18833 2 0.71097 0.0634271 0.598751
20216 2 0.705827 0.0817381 0.600039
940 1 0.700566 0.0916461 0.599409
20215 1 0.701711 0.0890857 0.599476
14387 2 0.715091 0.0699932 0.622293
14388 1 0.71187 0.0754049 0.627408
14386 1 0.717195 0.0652115 0.617337
9595 1 0.642119 0.0971267 0.59787
9731 2 0.65111 0.0930439 0.621564
9732 1 0.645004 0.0976148 0.624652
941 2 0.694918 0.0970384 0.599988
9702 1 0.686768 0.105184 0.599716
942 1 0.689134 0.102995 0.599329
9701 2 0.681398 0.111098 0.599394
9700 1 0.675393 0.116316 0.596909
14619 1 0.673606 0.118449 0.595915
7515 1 0.688556 0.109643 0.623547
4448 2 0.653008 0.0195355 0.631571
8445 1 0.652967 0.0169952 0.642148
4447 1 0.653456 0.0175603 0.639101
8444 2 0.651315 0.0164303 0.649572
8443 1 0.649519 0.0169424 0.656975
6053 2 0.684932 0.0206777 0.632521
6054 1 0.688184 0.0283844 0.635621
19671 1 0.672474 0.0298181 0.647379
2934 1 0.673673 0.0282919 0.649914
2933 2 0.678584 0.0241225 0.655877
6052 1 0.682839 0.0136978 0.6305
2932 1 0.682799 0.019128 0.660364
13458 1 0.646691 0.0408304 0.637535
9070 1 0.645536 0.0401289 0.635562
13457 2 0.650907 0.0430544 0.643499
13456 1 0.655224 0.0462787 0.64913
4983 1 0.65667 0.0475843 0.65121
4982 2 0.66077 0.0506222 0.656866
19670 2 0.670461 0.0333427 0.641044
1774 1 0.666948 0.0397748 0.634158
9560 2 0.672258 0.0595163 0.641733
9561 1 0.678234 0.0550916 0.641545
15087 1 0.680652 0.0533198 0.64141
19669 1 0.667764 0.0382346 0.636044
15086 2 0.686649 0.0494787 0.640049
15085 1 0.693396 0.0473735 0.638028
7315 1 0.696041 0.0463817 0.637503
4981 1 0.665477 0.05386 0.662446
18161 2 0.728499 0.0588532 0.636269
19739 2 0.724321 0.0427655 0.629598
19740 1 0.726027 0.0488054 0.632754
7316 2 0.70222 0.0429979 0.637831
7317 1 0.709477 0.0397393 0.637021
18162 1 0.726881 0.0519768 0.633318
14222 2 0.62029 0.0745572 0.661166
14223 1 0.627349 0.0735109 0.659649
6853 1 0.640798 0.0654407 0.634737
7876 1 0.630168 0.0730909 0.658731
10901 2 0.635623 0.0870233 0.635094
10918 1 0.648942 0.0701632 0.650516
7877 2 0.63818 0.0717416 0.656261
7878 1 0.64581 0.070731 0.65155
10919 2 0.655773 0.0683883 0.647603
10900 1 0.638578 0.0886396 0.641955
20311 1 0.64019 0.0888663 0.643642
20312 2 0.645015 0.0907289 0.650094
20313 1 0.651156 0.0908457 0.655282
17160 1 0.660289 0.0922084 0.65171
7613 2 0.681117 0.0897047 0.633781
9559 1 0.665548 0.0644514 0.643237
10920 1 0.662963 0.0659112 0.644066
14491 1 0.685557 0.0741779 0.641315
7614 1 0.675627 0.0895094 0.639244
17158 1 0.673449 0.0897324 0.641439
14492 2 0.692423 0.0708106 0.643732
17159 2 0.667392 0.0912507 0.646479
8967 1 0.710381 0.0775456 0.629295
15708 1 0.70067 0.0664169 0.647743
14493 1 0.698427 0.0675494 0.646477
18160 1 0.7297 0.0655194 0.640634
8966 2 0.70796 0.0829299 0.633671
5205 1 0.702194 0.0902511 0.639699
8965 1 0.704416 0.0881047 0.638012
19108 1 0.714717 0.0630954 0.658748
15707 2 0.70672 0.0645234 0.651595
15706 1 0.711833 0.0632858 0.656794
19255 1 0.714079 0.0900854 0.660509
7514 2 0.682933 0.110485 0.629016
7513 1 0.676868 0.112369 0.633708
4663 1 0.694229 0.105488 0.648679
4664 2 0.692072 0.110958 0.652988
5203 1 0.695112 0.103151 0.647715
4665 1 0.691183 0.11627 0.658642
19257 1 0.722845 0.0960203 0.647601
19256 2 0.718755 0.0930287 0.653609
5204 2 0.698739 0.096232 0.643591
18603 1 0.68893 0.0432498 0.682551
18601 1 0.683158 0.033699 0.67246
18602 3 0.684989 0.0389285 0.677367
14221 1 0.613378 0.0784408 0.663674
19110 1 0.725383 0.0620992 0.671657
19109 2 0.719957 0.0625774 0.665236
6563 3 0.700003 0.078513 0.683194
1287 1 0.712048 0.0890358 0.663052
1286 2 0.706926 0.0862708 0.668963
6564 1 0.701976 0.0821171 0.676474
1285 1 0.703053 0.083323 0.67436
6562 1 0.699084 0.0725883 0.687847
15634 1 0.735388 0.0905981 0.594961
15635 2 0.730581 0.0863952 0.590302
