ITEM: TIMESTEP
20000000
ITEM: NUMBER OF ATOMS
477
ITEM: BOX BOUNDS pp pp pp
0.0000000000000000e+00 5.0000000000000000e+01
0.0000000000000000e+00 5.0000000000000000e+01
0.0000000000000000e+00 5.0000000000000000e+01
ITEM: ATOMS id type vx vy vz 
3126 1 -2.5701 2.93391 -5.66343 
19457 3 0.392312 -3.90577 -3.6313 
19456 1 1.5564 -0.560059 3.7126 
16927 1 3.20296 1.61671 2.87195 
14821 1 -2.34943 5.99119 0.210262 
3125 3 -0.0381566 -3.20439 -1.45255 
19458 1 -3.20493 0.238042 4.11531 
10366 1 -0.0364784 0.962731 -1.30203 
13257 1 -0.21656 1.27032 2.85035 
10368 1 -2.10121 7.73509 4.43792 
10367 3 1.17966 -1.11915 1.87936 
14822 3 1.95178 0.807909 -2.92898 
14823 1 -2.5209 -4.22835 -3.16419 
6126 1 -3.45138 0.428393 0.110985 
12435 1 -4.48077 1.53961 0.278623 
6253 1 -0.431286 2.03053 3.36496 
13773 1 -3.99938 1.11222 -2.23458 
10606 1 2.2154 -7.09655 5.20243 
6711 1 -3.13881 -0.334993 -1.87934 
6709 1 2.61463 -6.75452 -5.27889 
6710 3 -0.73578 -1.79284 2.7884 
563 3 3.35052 3.46022 0.149046 
564 1 -0.0295687 -2.93318 -5.78216 
5631 1 -1.16566 -2.9154 5.04993 
3438 1 1.5388 2.95222 -1.20166 
3437 2 2.69912 -0.822777 0.68894 
10608 1 3.41949 0.314669 -1.51683 
5630 3 3.34719 1.72777 -1.22872 
5629 1 -3.21196 0.269559 4.83665 
18019 1 2.41826 5.16508 1.33292 
18020 3 1.53576 2.93622 0.69464 
18021 1 4.27826 5.02288 2.5686 
12793 1 7.38573 2.69213 0.612209 
12795 1 -1.22341 -8.12504 -1.22598 
12794 3 -0.00460875 -1.36055 -1.96568 
16928 3 5.58238 -0.788112 0.783695 
10607 3 -2.59213 -0.190757 2.24239 
3124 1 -0.957227 -3.36788 -1.63846 
16929 1 2.05507 2.33143 -7.44502 
13418 3 0.00863481 -0.404768 -1.49843 
13419 1 -0.752432 -5.24267 -2.07312 
13417 1 -4.68123 4.99521 -0.361268 
18372 1 2.52802 -3.80951 -1.54364 
18371 3 2.58003 -1.9684 2.0622 
3219 1 -1.27645 -0.611224 -1.39129 
9406 1 2.31852 -0.459598 2.99908 
9407 3 -3.06551 -1.5289 0.0196263 
9408 1 2.56174 -3.04495 -4.69725 
13256 3 -1.43932 -4.5611 1.42227 
1744 1 4.44502 -0.20444 -2.77361 
3218 3 2.13638 5.87828 -1.28933 
3217 1 0.946751 4.78741 -1.32828 
13255 1 -2.77056 4.13705 -3.17611 
562 1 -1.32594 -2.50291 2.4795 
17612 3 0.637143 -0.953198 -0.214012 
17611 1 -0.468853 6.72707 -2.32937 
14740 1 -0.368811 2.48821 -7.88883 
14741 3 3.32905 -4.89494 -0.774346 
17518 1 3.44526 -5.23537 -0.585218 
14742 1 4.42606 3.38423 -4.73647 
6124 1 4.4683 0.904576 2.19616 
6125 3 2.19009 -2.31484 -1.36714 
15851 3 4.26256 -0.346603 1.34528 
15852 1 -4.79299 3.64351 0.847886 
7936 1 -0.00116807 -2.89847 -3.36306 
7938 1 1.58603 1.5485 2.54291 
7937 3 1.10877 -2.34981 -0.787719 
1745 3 -6.58128 2.31269 -1.47136 
12433 1 5.88354 -2.42633 -3.67288 
1746 1 -5.01924 1.47197 -0.45992 
12434 3 0.369987 -0.91845 -1.10598 
15173 3 2.36855 -5.72081 -0.150858 
15174 1 -6.5419 4.59102 3.65904 
6912 1 -0.12227 -3.56356 2.32879 
15172 1 -3.19116 -2.5162 2.46436 
7861 1 -5.54558 2.93259 -0.901888 
4429 1 3.4357 -3.48372 -1.75812 
2232 1 -4.50448 0.120418 -3.94234 
6255 1 -2.62718 2.33188 -1.83598 
4431 1 0.375973 4.62492 -2.78332 
6254 3 -2.45374 0.526868 -1.9253 
4430 3 0.248058 -1.11635 -0.886652 
10852 1 -0.96308 0.818367 0.52234 
7862 3 1.43221 0.841056 1.48444 
7863 1 -4.7167 0.46708 1.39653 
3096 1 -4.51418 -1.06708 2.04736 
3094 1 -0.295795 2.99703 2.44661 
3095 3 0.404535 1.58497 3.59126 
2867 3 3.30572 -1.86264 -1.52555 
2866 1 -1.42956 0.234554 8.70432 
2868 1 8.43968 0.31074 2.57594 
20452 1 5.61136 -1.67001 -4.53016 
20453 3 3.356 4.43072 2.87062 
17299 1 4.19309 -3.30107 0.158079 
17300 2 0.680471 -5.24968 -2.107 
13772 2 0.434622 -1.7914 1.19268 
13771 1 -3.13865 -2.71823 2.91095 
19366 1 -1.69809 -1.40246 5.83848 
19367 2 1.71894 1.42401 -3.422 
19368 1 2.35079 3.60734 2.5529 
14508 1 -2.36989 -2.39178 -5.47281 
14507 3 -4.80373 0.250166 -2.3914 
17301 1 -3.2715 0.0724475 3.75747 
8530 1 2.0218 -1.93657 -1.40263 
8531 3 4.47181 -0.457882 0.284772 
8532 1 1.04168 4.76605 7.45365 
10637 3 0.420532 2.12272 -3.46473 
10636 1 1.4373 3.27885 -1.02983 
10638 1 3.52483 -1.35535 0.274219 
14378 3 -1.04939 -0.216565 1.97244 
14377 1 1.93262 -1.27497 -1.66825 
19668 1 -0.327388 -2.87078 0.906356 
1842 1 1.34732 2.41391 -2.80397 
1840 1 -1.69497 -1.2205 5.16065 
1841 3 2.31335 -1.73414 -0.907348 
15689 3 3.293 2.2317 3.51113 
15688 1 0.640671 -1.8967 2.11953 
17520 1 0.663067 0.723775 -0.344583 
14050 1 5.06773 4.66821 2.01161 
4372 1 -2.25874 1.07862 -3.2665 
3436 1 1.85559 0.927383 -0.894783 
4373 3 1.06375 2.25317 -0.604075 
4374 1 1.20489 -3.03667 1.98499 
2362 1 -5.06358 -1.73246 1.86477 
2363 3 -0.406348 2.6451 0.816541 
17722 1 0.724041 2.38248 3.82056 
14107 1 6.02087 -1.40435 1.48438 
14108 3 2.73326 -2.82137 -1.83394 
14874 1 0.460009 -1.36688 0.494479 
14109 1 -3.09508 -0.338634 -1.6517 
18344 3 -1.31649 2.55247 0.103464 
18343 1 -3.09438 4.12242 -1.08388 
18345 1 1.59875 -2.06427 4.55805 
13546 1 -1.27916 -0.809984 3.33272 
7105 1 -9.3887 2.19284 7.04662 
17724 1 3.89879 -3.47599 0.198464 
17723 3 0.0402433 -3.33402 -1.8735 
7106 3 -2.68042 -2.65977 -0.817399 
9744 1 2.44483 -4.61515 -1.26528 
18370 1 3.21649 -0.720239 4.73972 
606 1 3.95866 0.130715 -2.1691 
605 3 -1.43147 -0.95953 -2.16984 
604 1 -2.85554 5.9307 2.66122 
14379 1 1.09066 2.66813 4.08609 
17613 1 -5.79043 -0.829253 -1.65134 
20536 1 -1.32468 -3.29525 5.42435 
20537 3 0.859037 -2.5995 -1.33636 
19667 3 -4.20275 1.81087 3.97706 
20538 1 1.2733 4.18968 -0.955755 
8853 1 0.780314 -3.689 -0.479856 
19666 1 1.5919 -1.62832 0.674185 
8852 3 1.76613 1.15874 1.25785 
19194 1 3.35945 1.70038 0.535562 
8851 1 -1.69694 -6.0352 0.370435 
19193 3 1.58191 -1.52767 3.69508 
17519 3 3.32544 -1.32865 -3.23378 
10672 1 2.39457 2.27527 2.88691 
15289 1 -4.33139 1.11327 2.71868 
15290 3 2.40867 1.31044 -2.73771 
10673 3 0.484872 0.291673 -0.593082 
10674 1 3.20799 -1.03838 -2.48101 
21390 1 -2.53017 -1.95009 -0.97703 
9742 1 -0.231371 -0.0951707 -2.46152 
9743 3 0.876556 -6.3948 -0.372742 
18033 1 -6.20282 1.88987 -3.44575 
2164 1 5.677 -1.40867 -0.71541 
13548 1 0.0523307 -4.64715 3.58021 
15850 1 2.93989 2.27165 -5.94882 
13547 3 -1.99666 -1.5662 -1.06853 
12421 1 -1.85216 1.18855 1.25436 
12422 3 -1.08781 -0.743558 4.84899 
1296 1 0.299453 2.27958 -0.444608 
1295 3 -4.26709 -0.41729 -0.49985 
1294 1 -5.8049 4.12717 3.51372 
6910 1 1.66108 1.00808 -5.26814 
441 1 1.46279 -5.33749 4.07669 
10854 1 -1.26071 -1.883 1.17609 
6911 3 2.57536 -1.89855 -5.30325 
2230 1 -1.75042 1.56622 -4.696 
163 1 9.60292 2.1549 3.49902 
164 3 -1.29267 -0.186232 1.9361 
10849 1 3.82733 -5.12266 2.19743 
165 1 -0.196494 -0.246981 -2.4614 
10850 3 -1.84433 -2.09446 -2.79555 
2231 3 1.38601 1.43056 -1.99952 
6552 1 -2.09662 -3.01899 1.74346 
10853 3 -0.415423 -1.58448 1.532 
15262 1 -0.890722 8.33587 -1.23676 
15263 3 -1.52103 1.60965 3.09595 
15264 1 1.63071 0.518465 2.88802 
6924 1 6.06752 -6.15927 -4.6903 
6550 1 1.69582 -0.625451 3.36145 
6551 3 -2.42139 -1.18062 0.209119 
13578 1 1.75116 -4.33753 1.9406 
13577 2 -1.99508 4.62622 -2.53489 
16206 1 -2.64739 3.373 -4.41306 
13576 1 -3.80972 5.38043 -1.62536 
21389 3 0.615654 0.0227938 3.06595 
21388 1 -2.55477 -0.00721858 2.23664 
18032 3 -2.07823 2.24884 -0.83678 
10321 1 -2.60137 4.63927 1.08115 
10322 3 -3.13318 5.43412 -0.675589 
18031 1 -5.58184 -8.34393 -1.9059 
3713 3 -6.457 -1.14873 0.497538 
3712 1 0.131245 2.67174 3.69414 
15715 1 2.01946 0.164532 -5.28841 
18015 1 3.7562 -1.40385 -2.73206 
15717 1 2.17862 1.80316 -0.932059 
15716 3 2.56076 -0.183809 0.0369462 
1008 1 -3.51689 -2.70645 0.144801 
11866 1 -3.10779 -2.37969 -2.71168 
6447 1 -0.825034 -10.2053 5.42274 
6445 1 -1.55949 3.0671 -3.61981 
8 3 -0.105736 1.3609 -2.46086 
7 1 -3.60247 -4.8192 -0.747227 
6923 3 -0.282683 -0.371702 0.714268 
6922 1 -3.10861 -2.05056 -2.69473 
11868 1 -1.80565 3.67022 -6.81186 
9 1 -3.52064 -3.64778 -2.36566 
1007 3 5.50534 3.46088 -4.77634 
1006 1 -7.20342 -5.13834 0.0444075 
439 1 1.1819 1.36605 2.86721 
440 3 2.71794 -1.66249 1.29049 
11867 3 2.77194 2.5639 -1.61509 
6446 3 -4.69035 2.69985 0.0866409 
10962 1 3.46615 4.25849 1.6124 
16818 1 2.55029 -2.14524 0.457488 
20454 1 -4.24869 5.42777 3.1358 
16817 3 -1.54882 2.46986 0.00831255 
16816 1 -1.21283 2.9759 1.2213 
16861 1 -2.69798 7.16562 6.29272 
16862 3 5.15102 3.4899 -1.2097 
10961 3 0.522512 -0.826224 -3.59607 
10960 1 4.00784 -2.88867 -2.75296 
3714 1 -3.32155 0.0556791 -2.37604 
14873 3 0.442204 0.970446 2.6828 
14872 1 7.80116 4.03828 1.77747 
2722 1 -4.53781 2.65259 1.26145 
18682 1 -1.91452 -3.50066 -4.97757 
18684 1 0.276918 1.60693 -6.88693 
18683 3 0.62843 -0.0198635 -0.649812 
10351 1 -5.95058 -5.3385 -1.58203 
11989 1 -1.02299 0.519902 0.631185 
1732 1 9.40381 -0.477345 4.47406 
1733 3 2.31622 0.477192 -1.41305 
1734 1 2.86001 -5.25503 -3.30816 
11990 3 -0.934959 -3.4148 -3.93111 
11991 1 0.436045 -4.13105 -1.29212 
13074 1 0.315472 -2.83763 0.511094 
13073 2 -3.87338 -0.987885 -0.779218 
15690 1 -10.655 -2.13755 -4.99253 
13072 1 1.89663 -5.90017 1.03326 
14506 1 5.02615 -2.57313 -1.4859 
16009 1 -3.36561 2.3877 -1.47392 
16010 3 -5.83081 -2.63837 1.40294 
16011 1 -3.27999 -0.830148 -2.25098 
14073 1 -4.94451 -4.43397 3.57377 
2364 1 0.167188 -1.05413 -1.61972 
14072 3 1.48901 1.70609 0.486996 
16488 1 -1.63167 -6.4507 -1.71037 
16487 3 -3.75292 1.02853 0.88445 
7107 1 -6.93435 -3.45689 -3.09833 
13982 3 -4.65245 -2.79231 2.07874 
16871 3 -3.98717 0.0943836 -1.01398 
16870 1 1.74828 3.06793 -1.86248 
13981 1 0.903339 1.58612 1.5773 
16872 1 3.56697 0.32174 -0.452455 
20055 1 -4.9019 -3.02391 -0.676695 
13983 1 1.25138 0.670494 0.426095 
8121 1 0.583003 -3.45621 0.93087 
12423 1 4.06709 4.60699 -3.485 
8120 3 -4.05666 1.23707 0.133055 
10352 3 1.20794 2.6921 1.0142 
10353 1 4.33434 -2.85421 -3.43539 
8119 1 -1.51161 1.48215 -0.0354282 
16025 3 -1.60741 1.95669 0.0980211 
7864 1 1.60578 -2.8667 -6.76997 
16024 1 -1.1799 -3.25968 -6.77172 
16026 1 2.62297 -2.08195 -2.74209 
7119 1 3.64936 1.76136 -1.07443 
19192 1 -7.1786 3.9308 7.48646 
11583 1 1.02159 0.168189 -1.91224 
7118 3 1.8812 3.7775 -3.55863 
13105 1 7.01496 -0.0760652 4.27667 
2695 1 -1.09277 0.0136694 -3.65633 
13107 1 -4.28764 2.12462 5.07608 
7117 1 0.535255 1.00555 1.35961 
13106 3 1.76855 -2.54311 3.3826 
11582 3 0.431004 -3.5117 -0.321687 
10168 1 -1.62716 -0.712576 1.62698 
10169 2 4.29463 -0.0456217 -0.319511 
14051 2 -1.81496 -2.34465 0.173964 
14052 1 1.87322 -1.54165 2.19736 
10170 1 -1.80641 5.80013 -0.767848 
10585 1 0.934664 4.31291 4.58695 
10586 3 -0.134184 -1.96107 0.745691 
10587 1 1.8271 -4.40766 4.27002 
15621 1 7.71684 -1.89256 0.0657824 
15291 1 -5.95194 -0.376676 2.93407 
16486 1 -1.38323 1.28508 -4.47533 
20031 1 -0.271281 0.978114 5.48418 
20030 3 -0.0919364 2.05134 -0.830367 
20054 3 -3.56225 3.55144 -3.076 
9202 1 2.6089 -5.77502 1.39534 
9204 1 3.31364 3.21276 1.54414 
1948 1 -4.65736 -7.49079 0.209274 
9203 3 2.60534 4.59355 -2.38325 
20053 1 -5.84888 -0.144044 5.86971 
18077 3 -2.19868 0.170307 -0.0565241 
18076 1 3.52562 -1.22119 -0.443388 
7081 1 0.412569 0.472776 0.217431 
2165 3 -2.35642 2.67175 -4.34933 
18014 3 -3.41264 -2.14545 3.18381 
17142 1 2.08961 -1.46099 -1.91432 
2166 1 -7.22256 8.97604 2.60679 
17140 1 0.465415 6.96362 -6.06285 
17141 3 -3.14612 -3.73035 -0.95849 
21138 1 0.204107 -2.3889 0.952048 
21137 3 4.6809 -1.70669 -1.25699 
18013 1 -0.897555 -3.04458 1.22179 
21136 1 -11.8055 3.06331 0.462339 
21124 1 -1.87966 -4.60607 0.945309 
21125 3 -1.20347 -1.08515 -2.96679 
21126 1 -4.63008 -1.19948 -4.27275 
10851 1 0.405785 -1.03192 -2.54619 
13315 1 -3.23444 4.38431 -3.22294 
4793 3 0.34108 -0.0698922 -2.53145 
4792 1 -0.481594 6.19325 -1.52746 
4794 1 -0.443927 -1.14377 0.419193 
9885 1 5.57481 -0.00270467 -5.0951 
13316 3 0.997571 5.00876 -1.90063 
16205 3 -0.0914038 5.85242 -3.44793 
2696 3 0.847885 1.27285 1.11685 
2697 1 0.311732 -0.316928 5.84583 
13317 1 6.12502 1.75489 4.83594 
4515 1 2.28859 3.27911 -2.93935 
16204 1 -2.89144 0.517747 1.55806 
4513 1 1.27147 5.15131 -3.89641 
4514 3 1.71995 -3.25309 -1.17777 
16408 1 -1.00434 1.31251 -5.88114 
16409 3 2.49064 -0.973994 -0.500537 
16410 1 4.32927 3.77359 -1.8261 
15620 3 1.98283 -0.173079 3.61131 
15619 1 -2.74361 -0.0162076 2.08472 
12585 1 2.11042 0.284587 3.17089 
12584 3 -0.747723 -2.78588 1.27494 
12583 1 2.42422 1.85106 -0.871749 
4978 1 -4.94585 -5.81756 -1.68515 
1950 1 -1.20153 -0.561428 1.75736 
4979 3 -1.40475 -2.19832 -2.24079 
10323 1 1.11001 -1.75157 0.202466 
7084 1 1.23426 0.953311 -4.99207 
18078 1 3.60646 0.0393693 8.86887 
7085 3 -0.698392 -1.48819 0.774189 
1949 3 -1.45262 1.58361 -0.78699 
7086 1 -4.90051 1.8655 0.00817028 
1770 1 2.10201 -1.71291 -2.18394 
8132 3 -0.156945 3.35282 -3.3838 
15024 1 2.93728 -2.42922 -6.25608 
15023 3 0.716201 -3.39745 -0.248115 
14697 1 -3.70061 -2.21033 -3.1937 
15022 1 2.9112 -2.8707 -3.00513 
8131 1 9.6166 -0.647305 -2.53731 
2040 1 6.92962 -0.818162 1.66423 
2039 3 -1.74606 0.223543 0.7061 
16460 3 3.38806 -1.56966 -0.695281 
16459 1 3.69928 3.25879 1.28993 
2038 1 1.97727 -2.7858 -0.381598 
16461 1 2.13672 -3.04591 0.614941 
16863 1 1.22651 6.20838 -4.87756 
4291 1 -2.09924 1.40569 1.30549 
4292 3 -2.51906 0.444393 -1.53185 
10554 1 7.15629 -0.0107471 -0.506276 
4293 1 0.253572 -4.41569 2.99862 
21160 1 2.97794 0.467094 6.08172 
10553 2 2.78033 4.83347 0.0938292 
10552 1 6.52192 -7.61201 3.73699 
4980 1 0.141628 -4.30809 1.94654 
1769 2 1.17149 1.29991 5.46519 
1768 1 0.165761 2.59188 0.0166642 
15918 1 -6.31893 -0.790995 3.36733 
15917 3 -3.51548 -1.36357 6.22756 
15916 1 1.12587 6.57815 -1.14013 
8133 1 3.61697 1.15411 -3.71374 
2724 1 1.92913 -3.83114 -3.53839 
2723 3 1.93063 1.60035 -0.562186 
14071 1 -1.38058 -2.5899 1.29488 
20842 1 -5.28213 0.518696 1.82731 
7866 1 7.99546 -6.70607 3.83785 
20351 3 0.765151 3.1697 -2.83882 
20352 1 0.748267 0.751369 -2.23634 
20350 1 -0.419686 11.066 1.53513 
14410 1 -0.959889 0.276003 -4.69786 
14411 3 0.46415 -4.04062 -0.467502 
11845 1 7.61867 2.49371 3.12083 
14412 1 4.6616 0.019659 5.70047 
1708 1 0.590908 3.15248 -2.70046 
7865 3 -0.864474 3.04021 -0.0137433 
20346 1 2.19017 3.53027 0.110261 
1710 1 1.72871 -5.38826 1.21657 
20345 3 -2.11789 0.319559 1.61184 
20344 1 -1.17318 -1.94605 -0.311321 
17799 1 4.02319 1.47621 2.40885 
1709 3 0.110699 0.552109 3.04128 
11581 1 -4.42572 2.86635 -0.80618 
17797 1 -4.56166 0.580317 -4.47086 
17798 3 -1.22699 2.29283 -0.934705 
7885 1 1.0713 4.93258 -3.59017 
7886 3 -0.878235 1.23325 1.07611 
7887 1 2.4736 -3.62754 -2.70473 
15660 1 -3.60186 -5.72503 5.53443 
920 3 -0.522488 3.46823 -0.345643 
10812 1 -3.68919 -1.62451 1.4701 
921 1 3.33784 -2.14452 3.04732 
919 1 0.0874057 0.939282 3.56979 
20029 1 5.77622 3.38292 -2.63858 
9978 1 1.39519 2.22732 -5.23512 
20843 3 -1.09745 -2.78406 2.25156 
9977 3 1.21715 -0.308312 -4.5953 
20604 1 -6.78821 2.13127 5.44303 
11846 3 0.164163 -1.67272 -2.47526 
20844 1 3.48967 -1.03359 0.444691 
6118 1 -6.41122 -7.82174 1.24553 
9976 1 -2.63189 0.632533 1.01241 
6119 3 -0.80507 -0.371404 -1.03179 
7082 3 -0.0202586 -1.12467 1.47094 
7083 1 -0.954016 3.4106 -0.529486 
11847 1 -7.58313 -0.56543 -2.25357 
20365 1 0.733416 0.819495 -4.00494 
20367 1 2.44967 -2.88549 3.74033 
20366 3 -4.60924 1.94826 3.89631 
20603 3 2.13534 0.796778 1.80652 
20602 1 5.48485 1.03316 5.44543 
7954 1 -0.729535 0.359155 4.51002 
9883 1 0.00235378 -4.24209 3.28772 
11334 1 1.86906 1.80712 0.343989 
7956 1 -6.63233 -0.0440242 -3.12391 
7955 3 -4.58772 -1.62233 0.857937 
3940 1 0.703885 3.09675 3.17329 
9884 3 -3.38017 1.75957 2.05871 
3941 3 -0.63447 -2.39692 -1.20474 
15659 2 2.73272 -1.8399 1.70065 
3942 1 -0.855743 -7.84369 2.21747 
10811 3 1.14999 2.43721 0.69975 
10810 1 -2.82388 -9.10927 2.95558 
2703 1 -2.9747 0.847521 -1.07842 
2702 3 0.25101 2.16588 -1.66933 
14968 1 -3.74162 -0.48278 -0.0921164 
14969 3 -2.87645 0.711796 -2.90986 
5466 1 8.77522 -1.16771 3.42431 
2701 1 7.2155 -3.21465 1.56578 
5465 3 1.36777 0.540752 -3.65679 
10212 1 -1.17334 1.46285 -2.59935 
10211 3 -0.758994 0.368287 -1.33729 
10210 1 -1.37649 -2.01202 3.54342 
14696 3 -0.0861779 1.10238 -0.0495148 
21162 1 -1.69653 -4.96698 2.57876 
14695 1 3.778 -3.52527 -0.852058 
21161 3 -2.68331 0.722131 -3.11403 
14970 1 -4.48356 0.393004 -2.48406 
6120 1 2.42856 -3.50701 -7.26238 
12033 1 -1.44934 -0.504788 2.3236 
11333 3 -2.32201 -1.23916 -2.32087 
15658 1 2.62982 -9.92525 1.21056 
9477 1 -1.0676 3.00141 -0.357076 
9475 1 -0.529696 1.37295 -4.09056 
9476 3 -1.50701 -0.316582 -0.326074 
2855 3 1.09118 1.67788 7.29236 
5464 1 0.00840308 1.24387 0.083494 
2854 1 -5.25087 6.07626 0.614257 
2856 1 1.6231 0.943671 -3.18782 
12032 3 -2.45051 -1.49047 0.775548 
12031 1 2.14421 -0.628819 -1.8919 
1564 1 -2.57708 3.35112 -4.48648 
1566 1 0.0296321 -0.258173 -0.796933 
1565 2 0.877094 -2.78671 -1.62935 
11332 1 -1.33832 -4.47324 0.526465 
