LAMMPS data file via write_data, version 7 Aug 2019, timestep = 20000000

63 atoms
3 atom types
57 bonds
3 bond types
51 angles
3 angle types

0.0000000000000000e+00 5.0000000000000000e+01 xlo xhi
0.0000000000000000e+00 5.0000000000000000e+01 ylo yhi
0.0000000000000000e+00 5.0000000000000000e+01 zlo zhi

Masses

1 0.25
2 0.5
3 0.5

Bond Coeffs # harmonic

1 6000 0.15
2 2000 0.4
3 2000 0.4

Angle Coeffs # harmonic

1 100 180
2 50 180
3 50 180

Atoms # angle

21463 1 1 3.0497021722545288e+00 4.0061780698610754e+01 2.9125575522664207e+01
21464 2 2 3.3615607361822937e+00 4.0322224797549822e+01 2.9186530066156720e+01
21465 1 1 3.6828851892939305e+00 4.0478024746121307e+01 2.9289138318159978e+01
2730 1 1 3.8207869666545311e+00 4.0549078030560260e+01 2.9334065759591823e+01
3144 1 1 5.7832395934744971e+00 4.0506617993650678e+01 2.8715011725851472e+01
3143 3 3 5.7825116929014202e+00 4.0620700713210610e+01 2.9067705780658589e+01
20532 1 1 5.3376825086120823e+00 3.9911677184217872e+01 3.1049734171033137e+01
20531 3 3 5.7261220812130267e+00 3.9843729015424977e+01 3.1044315137410845e+01
2729 2 2 4.1841051745302718e+00 4.0599726925690163e+01 2.9469079682961564e+01
2728 1 1 4.5118977927936781e+00 4.0727132965921228e+01 2.9691794779851094e+01
15698 3 3 4.4836895169417144e+00 4.1670944594691996e+01 3.0914017349849637e+01
3142 1 1 5.7600333494541482e+00 4.0746158825564152e+01 2.9488673993255265e+01
129 1 1 4.6473886325621132e+00 4.0779582326378602e+01 2.9801961310114525e+01
13678 1 1 5.7997575689655969e+00 4.0808368342493360e+01 2.9623851497929117e+01
13679 3 3 6.0086124873780253e+00 4.0963683417232190e+01 2.9954131549515399e+01
128 3 3 4.9292459857512707e+00 4.0898136884083648e+01 3.0039045703011968e+01
127 1 1 5.1486407298043639e+00 4.0948681878176330e+01 3.0359316309001706e+01
21474 1 1 5.2477077896002795e+00 4.0996405798267425e+01 3.0512079473661576e+01
21473 3 3 5.4223270024981094e+00 4.0996587683509318e+01 3.0916308465958803e+01
13680 1 1 6.2210757570787321e+00 4.0995336184437690e+01 3.0319634265556822e+01
8812 1 1 6.3117366891988311e+00 4.1023527679318917e+01 3.0460082288258178e+01
8813 3 3 6.5032354620820039e+00 4.1083990317018213e+01 3.0763360612341717e+01
8814 1 1 6.6410670368855769e+00 4.1312354790656507e+01 3.1052803788059180e+01
15699 1 1 4.5970223826079284e+00 4.1937524125101604e+01 3.0660240709493483e+01
10909 1 1 4.5450249159061613e+00 4.0216516663981480e+01 3.1650074237333548e+01
10911 1 1 5.1801214470321622e+00 3.9965121668681093e+01 3.1092782774138676e+01
10910 3 3 4.8062289603531729e+00 4.0088127231439380e+01 3.1285789684656642e+01
20530 1 1 6.1539470007378476e+00 3.9785337869022726e+01 3.1070257405049819e+01
7353 1 1 5.8319618654044092e+00 3.9972730846854489e+01 3.1822385650906106e+01
17500 1 1 4.9430035010234192e+00 4.0156416142417406e+01 3.2396944280238721e+01
20585 3 3 6.7370801900213992e+00 3.9733960006278281e+01 3.1131980432682560e+01
20586 1 1 6.2951273713414695e+00 3.9791670538258003e+01 3.1097521001102645e+01
20584 1 1 7.1494207054268628e+00 3.9610706523123881e+01 3.1199459615338572e+01
7352 3 3 6.2078450994842616e+00 4.0228996033072143e+01 3.1909891748021739e+01
11818 1 1 4.4489400675607529e+00 4.0275351958802069e+01 3.1748289647179245e+01
15697 1 1 4.3973244346217957e+00 4.1457678907966574e+01 3.1235366635395732e+01
15258 1 1 4.0834208155843541e+00 4.0878890613840412e+01 3.2417370313419134e+01
11820 1 1 4.1321053303926565e+00 4.0773076112076772e+01 3.2308429362905244e+01
11819 3 3 4.2495319556508209e+00 4.0516373373784958e+01 3.2016117409287588e+01
21472 1 1 5.5195175782529606e+00 4.1039030439949471e+01 3.1260924712497413e+01
6511 1 1 5.5315127044495771e+00 4.1069384983868147e+01 3.1427304683752268e+01
6512 3 3 5.5641920514350627e+00 4.1056307539240755e+01 3.1804170860813024e+01
17501 3 3 5.2879092674492760e+00 4.0293031947520852e+01 3.2640925667285380e+01
6513 1 1 5.6039324968565829e+00 4.0972106379812509e+01 3.2192887758696429e+01
18775 1 1 6.6939686147411717e+00 4.1383770859653936e+01 3.1159404398224478e+01
18776 3 3 6.8234131366265380e+00 4.1647868370090173e+01 3.1416819302158345e+01
4158 1 1 6.6294253101696690e+00 4.0533874813573213e+01 3.2034089164924957e+01
4157 3 3 6.9589616163324512e+00 4.0750263976041730e+01 3.2126027087143328e+01
7351 1 1 6.5200727500500006e+00 4.0467042243665446e+01 3.2000352602084696e+01
4156 1 1 7.3164022718118007e+00 4.0941522227735383e+01 3.2112972161788605e+01
21318 1 1 7.4553713032617024e+00 4.1029171907106672e+01 3.2112372543495155e+01
21316 1 1 8.0299145778714074e+00 4.1513831040345977e+01 3.2118707783018010e+01
21317 3 3 7.7971100443560308e+00 4.1241675790295190e+01 3.2052648617914244e+01
18777 1 1 6.9793349510852067e+00 4.1949546046473500e+01 3.1618404111205116e+01
20475 1 1 7.0336828831511173e+00 4.2042149496787438e+01 3.1726091372963445e+01
20474 3 3 7.1728385838127293e+00 4.2244530323367194e+01 3.1993722670730509e+01
20473 1 1 7.3388551342140200e+00 4.2371477366317691e+01 3.2304151801989413e+01
15257 3 3 3.9831737230907187e+00 4.1120109563962323e+01 3.2706926939382157e+01
2046 1 1 3.6830747315443815e+00 4.1425005377719941e+01 3.3019933677909805e+01
15256 1 1 3.7646727921539647e+00 4.1358913036373124e+01 3.2926335298439938e+01
2044 1 1 3.1026353035557523e+00 4.1793943732678791e+01 3.3501629998719849e+01
2045 3 3 3.4036865133231426e+00 4.1600521684705726e+01 3.3294916204192866e+01
17502 1 1 5.5864741974307988e+00 4.0525946309244489e+01 3.2828887527386122e+01

Velocities

21463 -6.5643640580312246e-01 -1.1809814242121943e+00 2.4577237203878357e+00
21464 3.4680862907943615e+00 -1.2022786990419065e-01 2.6198160097064371e-01
21465 -9.9722648740243480e-01 1.5136020144651199e+00 -1.3924510109485744e+00
2730 -9.6896261075987922e-01 4.0243115787757411e+00 -2.3986587451960952e+00
3144 2.4018558327463175e+00 8.6502357365958849e-02 -2.5779438132707124e+00
3143 1.9544842398330193e+00 -9.5436590414124967e-01 -1.2475404826050980e+00
20532 6.6351205751936981e-01 -2.7475684055245742e+00 3.5506373402750397e+00
20531 1.5167285058577731e+00 1.4797883138742901e-01 -7.6366405885552824e-01
2729 9.7548626209761041e-02 -2.7738158677000171e+00 -2.2685381598515573e+00
2728 -2.4521266004779054e+00 -4.6181724579756729e+00 1.2477846950869214e+00
15698 -3.2214549486846605e-01 9.7391597480617420e-01 -7.6432110446713386e-02
3142 -1.9412885929765384e+00 -2.1095902508695135e+00 -1.6938992383203400e+00
129 -2.7321504211690160e+00 -3.0418337451386175e+00 -2.1071509138497011e+00
13678 4.7662684820388157e-02 -2.7721455933710830e+00 6.7708035332910743e+00
13679 -2.0985735308902251e+00 -2.2213499587163965e+00 -2.2349727980327390e+00
128 6.4800295093832083e-01 -2.3653705059397501e+00 2.2312367336369858e+00
127 1.9912333454786812e+00 1.8471195805586560e-01 3.0477726374223795e+00
21474 -5.7952808437915326e+00 7.6154432507508152e-01 3.1421478230879889e+00
21473 9.8869069786461072e-01 -2.3513255781925007e+00 -1.3191778782481800e+00
13680 2.9999349149387617e+00 1.8353437873500325e+00 4.6123144593298084e+00
8812 -5.2475778198133503e+00 -2.7811128407064674e+00 2.2946025499062102e+00
8813 -6.5812458659592421e-01 2.2877041212858718e+00 6.0595183110504280e-01
8814 5.5389398254067662e-02 1.7731004894619975e+00 -2.3670681923210273e+00
15699 -3.3000937286391006e+00 3.3064034578855690e+00 4.2239493022452104e+00
10909 -2.4879643911224445e+00 2.6838785840659458e+00 -3.6449905081515919e+00
10911 7.6814777160017789e-01 -7.5632462229016606e-01 2.3863289003672601e+00
10910 1.8299699538186309e-01 -2.3391174737281331e+00 4.2752733982217528e+00
20530 -4.5146573111114643e+00 1.2370771931118483e+00 1.2543160410767529e+00
7353 -2.8361854338501638e+00 -4.8893840436390725e+00 1.7111479934540301e+00
17500 2.8683591964803207e-01 -1.7884486101778356e+00 -1.0178699718566284e+01
20585 1.7022286699749731e+00 1.0575463890829788e+00 7.3868771159912561e-01
20586 -1.8254196599365904e+00 3.9378591627158754e-01 8.7266473829280340e+00
20584 -8.6603794697071756e-01 -4.8422433382106975e+00 -1.6697983959852855e-01
7352 -3.1887873153325312e+00 1.0956989392967162e+00 -3.7465608357875539e+00
11818 3.1542313173559986e+00 1.5114422795087123e+00 6.6075726475617849e+00
15697 -3.4929246317233864e+00 -2.7484819071647606e+00 -2.7401970876555142e+00
15258 -3.3940497286522926e+00 3.6067320232551623e+00 -4.3468864401291283e+00
11820 -1.5181936630735817e+00 4.5488155044402989e-01 4.4841707400044317e+00
11819 -6.7285668363291673e-01 2.9301409611536684e+00 -5.8587008731428378e+00
21472 -5.9107930704577711e+00 2.4689890932104821e+00 -4.9604282852669010e+00
6511 -5.6843271574530085e-01 5.9905276703046741e+00 -5.1459867019102044e+00
6512 3.0525599708503868e+00 -3.4714371591545279e-01 2.1772456125118658e+00
17501 1.4892807300717930e+00 -2.0364229916902454e+00 -2.8849149352642725e+00
6513 4.7168244413539826e+00 -4.3900412607281867e+00 -2.5484306650711499e+00
18775 7.0645376582070298e-03 4.4957849724408350e+00 -1.7936938892648284e+00
18776 -4.4960518800930382e-01 -3.1366743368475491e+00 2.9263190441738933e+00
4158 -4.6841691597130725e-01 -2.1339403235141408e+00 3.2348249120406667e+00
4157 -8.8343243656828419e-01 1.5095790476347424e+00 3.3190935094733005e+00
7351 1.2905854731284516e+00 -3.7715004962001517e+00 -3.7796718895186161e+00
4156 2.0345544327767793e+00 7.1725814186915073e+00 -2.7718082644927087e+00
21318 -2.3497345930448810e-01 -3.1647237234633598e+00 -3.5455889280329531e+00
21316 -1.6686219378493881e+00 -4.3113326979841231e+00 -2.1796929016788393e+00
21317 3.6541409959215915e-01 -4.5553354149759526e+00 -1.2916172505097240e-01
18777 2.2518936620376757e+00 2.6867839111203096e+00 -4.8518059168733565e+00
20475 2.2197845399132525e+00 6.7135367298255932e-01 -1.1023480151116889e+00
20474 -1.6247692849891193e+00 3.3080970620829286e-01 3.0931892333787814e+00
20473 8.8995575787505188e-01 3.9978885628704268e+00 -3.6364626078416133e+00
15257 -2.0352502002832855e+00 2.3308405990636718e+00 3.1022402305178043e-01
2046 -5.9307798864922043e+00 -1.3650529440438024e+00 -3.6810882112653518e+00
15256 -1.5529526475843414e+00 2.3033178736870825e+00 3.6886472960226722e+00
2044 5.9945815407743455e+00 4.0026935347504153e+00 -1.5733656274248411e+00
2045 -1.6721544645928956e+00 1.5107416658297264e+00 -1.8990701160027972e+00
17502 3.7914479001400379e+00 2.7778301108443317e+00 3.4431528352287759e+00

Bonds

11633 2 21463 21464
11643 2 21464 21465
11644 1 2730 21465
11645 3 3143 3144
11809 3 20531 20532
11812 2 2729 2730
11813 2 2728 2729
11814 3 15698 15699
11815 3 3142 3143
11816 1 3142 13678
11817 1 129 2728
11818 3 13678 13679
11819 3 13679 13680
11820 3 128 129
11821 3 127 128
11822 1 127 21474
11823 3 21473 21474
11824 3 8812 8813
11825 1 8812 13680
11826 3 8813 8814
11827 1 8814 18775
11980 3 10909 10910
11981 1 10909 11818
11982 1 10911 20532
11983 3 10910 10911
11984 3 20530 20531
11985 1 20530 20586
11986 3 17500 17501
11987 3 20585 20586
11988 3 20584 20585
11989 3 7352 7353
12005 3 11818 11819
12006 3 15697 15698
12007 1 11820 15258
12008 3 11819 11820
12009 3 21472 21473
12010 3 6511 6512
12011 1 6511 21472
12012 3 6512 6513
12013 3 17501 17502
12016 3 18775 18776
12017 3 18776 18777
12018 1 4158 7351
12019 3 4157 4158
12020 3 7351 7352
12021 3 4156 4157
12022 1 4156 21318
12023 3 21316 21317
12024 3 21317 21318
12040 1 18777 20475
12041 3 20474 20475
12042 3 20473 20474
12174 3 15257 15258
12175 1 2046 15256
12176 3 15256 15257
12177 3 2044 2045
12178 3 2045 2046

Angles

8900 2 21463 21464 21465
8901 1 21464 21465 2730
8902 1 2729 2730 21465
8903 3 3142 3143 3144
9039 1 20531 20532 10911
9040 3 20530 20531 20532
9042 2 2728 2729 2730
9043 1 2729 2728 129
9044 3 15697 15698 15699
9045 1 3143 3142 13678
9046 1 128 129 2728
9047 1 13679 13678 3142
9048 3 13678 13679 13680
9049 3 127 128 129
9050 1 128 127 21474
9051 1 21473 21474 127
9052 3 21472 21473 21474
9053 1 13679 13680 8812
9054 1 8813 8812 13680
9055 3 8812 8813 8814
9056 1 8813 8814 18775
9184 1 10910 10909 11818
9185 1 10910 10911 20532
9186 3 10909 10910 10911
9187 1 20531 20530 20586
9188 3 20584 20585 20586
9189 1 20585 20586 20530
9190 3 7351 7352 7353
9202 1 11819 11818 10909
9203 1 15257 15258 11820
9204 1 11819 11820 15258
9205 3 11818 11819 11820
9206 1 21473 21472 6511
9207 1 6512 6511 21472
9208 3 6511 6512 6513
9209 3 17500 17501 17502
9212 1 18776 18775 8814
9213 3 18775 18776 18777
9214 1 4157 4158 7351
9215 3 4156 4157 4158
9216 1 7352 7351 4158
9217 1 4157 4156 21318
9218 1 21317 21318 4156
9219 3 21316 21317 21318
9234 1 18776 18777 20475
9235 1 20474 20475 18777
9236 3 20473 20474 20475
9339 3 15256 15257 15258
9340 1 2045 2046 15256
9341 1 15257 15256 2046
9342 3 2044 2045 2046
