ITEM: TIMESTEP
20000000
ITEM: NUMBER OF ATOMS
663
ITEM: BOX BOUNDS pp pp pp
0.0000000000000000e+00 5.0000000000000000e+01
0.0000000000000000e+00 5.0000000000000000e+01
0.0000000000000000e+00 5.0000000000000000e+01
ITEM: ATOMS id type vx vy vz 
15966 1 -3.25855 2.9606 -5.26319 
7036 1 2.70086 4.81613 -2.92778 
9860 3 0.836093 2.27505 3.24982 
10290 1 2.05185 -1.00154 -4.52995 
10289 3 0.959265 -0.868642 -0.445296 
10288 1 0.241122 3.94145 3.29786 
7661 3 -3.88484 -0.182741 4.75061 
9225 1 0.374325 0.554841 -3.17504 
9224 3 4.0883 -2.63933 3.42718 
9223 1 -3.29368 2.31745 -0.431664 
4473 1 -3.65674 2.49477 -0.552797 
4472 3 0.262994 3.39364 -3.59336 
21530 3 1.29137 0.132878 3.48473 
15965 3 -1.27877 0.955939 -3.65469 
15964 1 5.60919 2.42498 -3.01168 
4471 1 -9.91134 -2.76751 -0.50621 
7662 1 -0.0378484 5.07552 5.45991 
4047 1 0.885658 -1.50588 -6.93041 
966 1 2.9679 4.81172 0.0199708 
965 3 -2.68624 -5.56711 1.38389 
964 1 5.96284 -2.8468 4.55577 
4640 2 0.586505 -2.56396 0.206142 
4641 1 -1.78267 3.02053 3.66063 
64 1 -2.73444 -5.03745 -2.74266 
7037 3 -1.7075 2.02814 0.429803 
65 3 1.18355 1.90163 -1.63013 
9861 1 -1.41192 1.11417 0.664448 
19516 1 3.81096 -1.80771 1.4947 
19517 3 -0.773292 -2.04128 -2.70433 
66 1 -0.384099 4.48554 0.637751 
7038 1 -3.34695 -2.00381 -1.5867 
19518 1 2.53522 1.98572 -2.12945 
12253 1 2.04009 3.02161 -3.26742 
13467 1 3.3999 -0.818737 -5.41871 
6313 1 -5.14343 7.08437 1.61216 
6314 2 0.628834 -1.67728 0.904675 
12007 1 1.50646 -0.15397 -0.229707 
12009 1 -4.569 -8.14464 1.92075 
12008 2 1.82483 3.91179 1.10757 
17820 1 3.57837 1.75454 2.50515 
7660 1 3.21643 -2.26757 -4.15259 
17819 3 -2.15161 -4.23429 0.443181 
14703 1 5.35752 -2.07675 -1.81117 
14702 2 0.32289 0.0547592 -0.926232 
21529 1 -0.593574 3.47762 4.6729 
4046 3 3.93347 1.332 -0.16789 
864 1 1.77997 -1.26216 -3.62058 
4045 1 0.285835 -3.16082 -0.459851 
14701 1 3.34567 -1.56128 0.00565489 
863 3 -0.392209 -1.0295 0.825139 
4639 1 6.70665 4.03883 -1.66936 
2440 1 1.25482 -4.5702 -0.969763 
2441 3 4.032 -0.404056 -1.24166 
6197 3 3.28901 2.17519 1.82211 
2442 1 -3.80074 -3.95375 4.52125 
6198 1 -0.794459 4.73008 -0.609924 
10632 1 -2.7021 -3.66144 0.602719 
6499 1 -0.401529 4.49681 7.34577 
13465 1 -4.22516 1.44826 -5.11405 
6501 1 -3.71142 -1.9022 -3.34305 
6500 3 -2.03324 -0.0120446 -0.311719 
13466 3 -0.156957 -3.59809 1.71744 
6196 1 -4.40266 -0.319162 2.65354 
2052 1 -3.33595 -0.300107 -1.68713 
2050 1 -3.99449 -3.06525 0.407747 
2051 3 -0.166521 2.8075 -2.83262 
17579 3 3.8887 2.38512 -2.65914 
2089 1 0.147295 0.476027 -3.53038 
10699 1 1.07562 2.51653 -1.03526 
10700 3 -2.1763 -0.586011 1.2612 
17578 1 -3.57158 -2.95072 -0.43056 
10701 1 4.10532 4.01097 -6.05484 
18089 2 -4.72289 1.44407 2.34381 
17580 1 -1.61474 -5.52502 1.36915 
18088 1 2.60464 0.323351 -2.42579 
17634 1 12.3042 -0.177782 1.75755 
17633 3 -4.01717 0.270567 -2.71366 
15878 3 -2.6746 -4.36513 -5.37224 
16550 3 -1.11157 -2.09406 3.99107 
15879 1 -0.338878 -2.54561 -3.45688 
17632 1 -1.52676 3.5178 -1.41892 
1535 3 -0.849427 -0.33866 0.659168 
1534 1 6.54422 -7.58004 -5.38325 
1536 1 -0.609729 -1.64891 8.07599 
20248 1 1.45751 -0.0175471 -0.326859 
15157 1 -5.75 0.189648 1.35078 
15159 1 1.08024 -6.09545 1.56735 
15158 3 1.98157 -1.04644 1.30166 
2420 3 -3.62579 -0.0411883 -0.467114 
14294 3 0.700029 -3.00485 -4.1451 
14295 1 -2.93464 -0.574138 -2.75215 
14293 1 0.616765 -2.76348 3.79421 
16549 1 4.97186 -4.3359 -3.51365 
2419 1 -1.53865 2.1567 -4.86454 
8452 1 0.910735 4.66706 0.817823 
1702 1 -3.70251 3.87218 3.0074 
2421 1 5.87673 -4.43307 -2.26456 
1704 1 2.54891 -6.43101 3.28512 
1703 3 -1.41404 1.14423 -0.710052 
346 1 -4.57811 1.23609 -8.62954 
8454 1 -3.71936 1.91276 -3.16447 
347 3 0.958666 0.23107 3.74052 
8453 2 0.89695 0.44577 0.428168 
12804 1 2.29999 -2.53101 -2.99693 
8279 3 -0.983187 -2.87873 3.14828 
8280 1 2.39658 -4.95328 0.029226 
18141 1 -5.00244 -0.158019 -2.65818 
18139 1 2.61239 8.17132 5.32712 
5002 1 -1.5421 3.72335 -2.26141 
18140 3 0.0438103 -1.76292 -0.354307 
1426 1 -1.31068 3.25899 -2.5568 
5003 3 -2.48898 -1.06238 -0.130624 
348 1 5.9248 -0.929211 1.27939 
10631 3 2.78657 -0.764747 -3.44152 
10630 1 -4.89377 -1.68723 -1.96301 
8278 1 1.06835 -2.22621 -1.6187 
5004 1 -6.16827 -6.44747 -4.45045 
5598 1 -4.34666 3.90851 0.160051 
4075 1 1.53305 4.39425 -1.17837 
9495 1 2.18867 -1.08441 -5.6103 
1212 1 1.39383 -3.38209 -0.736171 
1211 3 3.94141 -3.50107 0.64675 
9524 3 2.78025 0.799386 -1.36942 
9525 1 -0.485591 -5.43663 -1.92199 
9523 1 1.9941 -0.458495 -6.09639 
4076 3 2.85104 1.76293 1.98587 
4077 1 1.57489 0.0735196 4.81643 
9494 3 1.56459 5.3854 2.67697 
3024 1 0.435239 -0.417597 -0.683367 
15877 1 -0.841808 5.77377 6.84067 
21022 1 -5.9946 0.470892 6.4616 
19429 1 -1.01863 0.542338 2.39739 
8636 3 2.28735 -0.276646 0.268157 
11625 1 -5.02141 1.22156 6.10385 
8637 1 1.42492 -4.77848 -4.34318 
19430 3 1.85998 1.31123 0.449015 
19431 1 1.49665 0.179338 -3.75054 
3023 3 -2.48453 0.734116 -1.13505 
20644 1 1.61444 -0.418169 9.73551 
20645 3 3.80591 -2.32145 -1.79914 
20646 1 9.85241 3.46537 1.07921 
18841 1 -3.41956 -1.19133 -1.42406 
15943 1 -3.43725 -0.0282153 -3.02776 
15944 3 -5.31175 0.68148 -2.75101 
18842 3 1.61636 0.879807 0.4505 
15945 1 -1.51144 2.30966 2.69954 
15756 1 4.29105 -4.26319 2.39761 
6390 1 2.58166 3.46271 -3.37418 
6389 2 0.191656 -0.950366 -0.660238 
20250 1 -2.63226 0.722075 1.84776 
6388 1 -4.70021 1.34017 1.45897 
15132 1 -4.44405 -0.630592 -0.875042 
3022 1 2.22447 2.52361 7.86458 
15131 3 -1.00984 0.0753632 -3.20658 
15130 1 3.822 4.48882 3.97728 
6814 1 -2.93397 4.778 -4.17243 
16551 1 0.747348 0.880475 -0.153045 
20249 3 4.07617 -0.299004 -1.45945 
21023 3 -2.9516 -1.50365 0.629536 
21024 1 -1.19895 -0.3226 3.97532 
12039 1 3.78468 -1.60067 -2.34158 
12038 3 -0.378553 -1.96369 -3.99763 
12037 1 2.60913 -2.63622 -1.32489 
18843 1 0.959292 -2.24195 4.39767 
12067 1 -1.32737 -3.28346 -5.02333 
13034 3 -4.56371 1.22934 -0.893124 
13035 1 -1.58863 -3.91785 -2.21123 
4526 3 -0.650125 2.0978 2.92666 
4527 1 5.23168 1.79353 3.81512 
4525 1 -1.12362 -0.983456 1.13543 
12495 1 0.305784 2.5396 -0.00200577 
12494 3 -1.23202 -2.65949 1.61683 
13033 1 -2.21823 0.785663 7.13164 
8834 3 -0.113867 -5.07103 0.90242 
8833 1 3.41628 -5.38417 2.82175 
12493 1 -0.176951 1.86001 -1.73509 
1696 1 9.25968 -7.8993 -1.27626 
1697 3 -0.0421487 -3.12185 0.989675 
8697 1 -1.47709 -0.559371 0.376516 
8696 3 1.49458 -1.52831 3.76343 
8695 1 5.43867 2.47233 -1.4817 
1272 1 -3.46824 -3.60276 2.44998 
10093 1 -6.50831 -4.4158 -2.94435 
17976 1 1.49725 4.43704 1.66362 
1270 1 4.33713 5.26271 5.22666 
1271 3 0.648974 -2.98977 2.067 
10095 1 -2.99054 3.67306 0.0984553 
10094 3 -3.27686 -0.33679 -2.87835 
3916 1 -1.85073 -2.64345 -5.45434 
3176 3 -1.17134 -0.493184 2.60152 
20466 1 -4.27546 2.17075 -1.05105 
3175 1 0.432125 1.30055 0.423564 
3177 1 0.0346029 -2.2845 -0.349717 
14956 1 -0.766715 -1.13076 2.52133 
3917 2 2.45501 1.81758 -0.814389 
8635 1 6.04261 -0.985476 -4.35346 
20286 1 -6.81947 2.03764 -1.27852 
11623 1 0.166741 4.31093 -3.18466 
5138 3 2.46762 -1.96331 1.13411 
3424 1 -2.80191 -1.03862 0.633786 
5137 1 4.46392 3.71846 1.15734 
5139 1 -1.78452 3.94182 -2.77372 
20285 3 3.36402 0.314891 -0.384456 
11624 2 -2.16311 1.87291 -1.81199 
6987 1 2.76967 -2.13731 0.438846 
12857 2 -0.0366308 2.2259 -0.457003 
12856 1 -1.77275 -7.92579 0.706192 
20992 1 -0.206513 -2.00795 2.75025 
10575 1 -2.64317 1.48904 2.48385 
10574 2 -3.95776 -1.89706 -0.972696 
10573 1 -0.0834834 -2.38464 2.32452 
12858 1 -8.75366 -0.471588 -3.54702 
8039 3 1.4336 -1.84103 0.481858 
19219 1 0.0841278 -1.6254 1.59442 
19220 3 1.41262 -0.600004 0.462411 
19221 1 10.8753 1.55302 -0.22471 
8038 1 3.9595 0.292394 -6.80351 
14957 3 -2.85189 -3.10672 3.01382 
14958 1 -2.6663 -2.99061 1.57097 
3918 1 -3.77414 -3.02906 0.320891 
8040 1 -2.46697 4.16048 -1.11221 
9859 1 6.22565 3.82687 1.46471 
2225 3 -0.145569 0.574862 -1.21717 
2226 1 4.75935 -3.97155 -2.3339 
13158 1 -3.43042 1.28413 -0.549442 
20284 1 2.89696 8.90418 1.41694 
14794 1 -7.50922 3.01377 1.34796 
2224 1 -3.10231 -2.52498 -0.702447 
14795 3 -0.524339 0.0197515 0.982753 
8847 1 -4.9446 -0.271067 -1.8042 
8846 3 2.45647 3.1205 2.13329 
8845 1 -0.117216 1.82449 -1.6409 
7872 1 0.677624 1.21063 0.611145 
7871 3 -1.99688 0.434937 -1.87619 
10557 1 0.448932 -5.04353 -0.214593 
15755 3 -1.68515 -0.264724 -5.0934 
15754 1 1.18823 0.110161 -3.22977 
8783 3 4.32491 5.49456 -1.67647 
8782 1 -1.33687 -0.925571 -0.101211 
6371 3 1.79444 -1.6821 -1.1099 
6370 1 0.298726 -5.27388 -1.84905 
8784 1 -6.00334 -0.31577 3.85985 
2525 3 -0.254469 0.33181 -3.7498 
6816 1 -1.99273 3.80854 -1.35531 
6815 3 -0.64455 0.519977 -0.462089 
11930 3 -0.918002 1.59995 -1.5029 
11931 1 -7.52078 1.38373 -0.469464 
11929 1 2.4499 -0.774662 -9.09382 
17055 1 0.200429 -0.161686 -8.59445 
2526 1 -0.102129 5.29393 0.871207 
17326 1 1.17149 -0.174557 3.42924 
17327 3 1.07957 3.50604 0.306535 
10051 1 5.22076 2.09764 -2.5208 
17328 1 5.60629 -4.00861 -0.870976 
12068 3 1.33639 -0.446711 0.362321 
13157 3 -6.53561 2.52094 0.996848 
13156 1 0.0730599 -1.83081 3.91099 
12069 1 -3.88434 0.235968 2.28995 
10052 3 0.511384 -4.0358 4.96432 
10053 1 -6.62103 -2.57083 3.8295 
2524 1 -0.384808 -1.2118 5.54416 
21434 3 0.728998 3.83834 3.47053 
16186 1 -1.35368 3.88938 -2.06859 
16187 3 3.45093 2.1811 -5.52 
21435 1 -3.75716 0.57621 5.20217 
16188 1 3.86248 -2.19707 2.71626 
21433 1 1.88272 3.53212 -0.0595966 
304 1 -2.36274 -2.72969 -3.78132 
8835 1 -1.56347 -3.37954 -0.668479 
305 3 2.32297 0.953111 1.065 
306 1 3.4724 -1.08655 0.348407 
4335 1 2.20686 -0.459676 -3.07934 
15508 1 -0.776138 -3.282 4.2634 
429 1 -4.39732 0.854816 -1.70435 
3822 1 2.56903 0.834162 8.46671 
4334 3 -2.80927 -1.85784 1.84517 
2693 3 -4.62356 -2.39379 -0.866325 
18487 1 -6.47782 1.65398 5.89303 
4333 1 1.47473 -0.0599269 -0.552854 
18489 1 3.87603 -0.912924 1.38853 
2692 1 1.26467 3.68702 -1.39313 
18488 3 -1.58869 -1.93231 2.11679 
3821 3 -1.97004 0.132285 2.68741 
1698 1 -2.10296 2.09618 1.7427 
3238 1 2.149 -2.60244 1.58541 
15509 3 3.55316 0.439181 -3.20066 
11748 1 4.82052 -1.58171 -3.61337 
21531 1 2.52607 1.02131 2.99074 
11747 3 -3.47411 2.83588 -2.7514 
11746 1 -0.577369 1.4319 4.23897 
13693 1 -5.49923 1.16268 4.93669 
427 1 1.37801 -1.57158 -0.212787 
428 3 -2.37627 1.00235 -0.407391 
17975 3 2.62506 -3.91408 1.91301 
17974 1 -3.21349 3.19165 1.45444 
13694 3 -5.04246 4.62478 -1.21718 
10633 1 1.18566 -1.05393 3.33718 
10634 3 -1.79704 -1.2841 0.152267 
6608 3 0.697452 0.5612 -2.21039 
13695 1 2.50819 1.84884 0.412125 
6609 1 2.80377 3.2257 3.20498 
3820 1 0.419905 1.37955 -3.33837 
10152 1 3.75202 4.81905 -1.85276 
3239 3 -0.949191 -6.04807 2.56327 
3240 1 -0.172652 -0.954525 -4.63489 
17725 1 -1.21387 -4.50671 -0.727539 
17726 3 3.15309 -3.60965 4.38762 
10151 3 -0.107409 0.0150123 1.50346 
9288 1 2.91958 -3.35855 -0.0338259 
10150 1 1.90224 0.311619 -0.516412 
17727 1 5.39932 -2.21943 -1.32336 
11829 1 2.34594 3.7086 6.30587 
20465 3 -1.27133 -1.0701 -2.61248 
12624 1 10.6739 -0.866802 -2.68034 
20464 1 2.07669 -7.67274 -0.995057 
16983 1 7.81643 3.93794 -7.92581 
13254 1 8.71898 0.632132 -6.28026 
12622 1 -4.0841 5.06246 8.96689 
12623 3 -2.09679 0.40228 -0.412931 
1327 1 -5.27285 0.21291 1.36479 
13253 3 -2.43445 -1.77815 0.702573 
3425 3 1.44479 0.769342 -3.40264 
13252 1 2.06404 -2.8568 -0.993252 
3426 1 -4.93582 -0.359461 2.95985 
6986 3 -1.14904 1.30613 0.863205 
6985 1 -1.52501 3.62841 0.594745 
15160 1 -2.49485 -1.23781 -0.632103 
15161 3 -1.02077 -1.05436 -3.0112 
15162 1 2.67199 -1.28625 -1.01462 
10635 1 4.89949 -3.64925 1.27423 
20448 1 -0.303185 1.83367 -3.55404 
1501 1 -0.42352 -0.841951 1.63891 
20447 3 -1.63707 -1.03109 -3.57799 
9287 2 -1.80451 0.500397 -1.87406 
17939 3 0.874748 1.1822 1.1905 
20993 3 0.835972 1.61669 -5.77707 
20994 1 -0.730852 -4.47603 5.03565 
17938 1 1.44693 4.39199 -1.17849 
9286 1 4.4905 1.37542 -2.7383 
2152 1 0.645704 -6.11516 -2.23305 
7681 1 -2.08017 -0.365159 2.75075 
10240 1 -2.08726 12.1831 9.03945 
7682 3 3.34843 3.3865 -3.81659 
2153 3 0.688304 1.96692 -0.456276 
2154 1 0.0102822 -3.155 -1.49518 
5557 1 1.51115 0.297541 -1.30282 
12255 1 -0.349135 2.03661 1.69994 
6002 3 2.09355 0.409153 -4.09826 
6001 1 5.30247 -3.03632 -2.90004 
5559 1 -2.3951 -3.38651 7.04902 
5558 3 0.19657 -4.5406 1.00921 
6003 1 -0.171906 1.07499 2.93731 
1057 1 -0.0304706 -1.32519 -5.44919 
15418 1 -2.92503 -9.02372 6.3886 
16122 1 -2.2726 -9.12233 -2.6155 
16121 3 -0.07345 2.81355 2.62471 
16120 1 -3.56685 6.70906 -3.95146 
15045 1 -6.23998 5.66949 -0.0531009 
15044 3 -1.24761 4.68194 -0.800964 
1428 1 2.1007 -2.60366 0.658249 
12254 3 -1.7151 2.66784 -2.36605 
14796 1 7.6145 1.9803 0.891976 
15420 1 3.22839 -3.30624 3.78076 
2657 3 -1.46199 -3.11279 2.47653 
15419 3 -3.40296 0.634352 4.18193 
10556 3 -0.949717 3.61186 1.0941 
10555 1 -0.0468851 1.41191 -3.08583 
18238 1 3.24903 -1.7752 5.57457 
18239 3 0.00565044 -0.422142 -3.98081 
18240 1 -5.29357 4.07043 4.04827 
2658 1 -1.57807 -0.294296 -1.29927 
15043 1 0.170785 1.88352 0.0947301 
7870 1 -2.87853 -0.979214 -1.06175 
19118 3 -3.85957 -4.02023 4.71659 
4835 3 -1.85243 4.1457 -2.52305 
4836 1 -6.83459 3.16815 4.05462 
17940 1 2.54383 4.50023 -1.02221 
15579 1 2.63837 1.91544 0.216883 
14448 1 -1.90103 1.13214 -4.05741 
4834 1 7.67189 -0.347072 -3.64576 
14447 3 0.0135321 5.39402 -1.10255 
14446 1 -2.69066 -1.49051 -2.95603 
19117 1 -0.806311 -1.36648 4.25512 
17053 1 -1.85087 -7.40181 -0.45473 
17054 3 0.48975 -0.163606 -3.12026 
16288 1 0.349681 2.99163 -2.41603 
16289 3 1.82418 -2.17832 -0.701725 
4737 1 -5.86056 2.15702 0.0463957 
4736 3 -0.473131 2.99966 4.10375 
16290 1 -0.00947145 4.08557 6.34261 
15652 1 0.0276803 -4.84635 -4.31555 
12803 3 2.24765 -0.352277 2.35153 
12802 1 3.00403 -3.64943 0.556612 
4735 1 5.20578 -3.37747 -1.57846 
16131 1 3.69506 -3.48025 0.409577 
16130 3 -1.62178 1.50649 0.513591 
15654 1 0.0461738 6.9106 0.0554639 
16129 1 -1.809 -2.33069 -1.01032 
12611 3 2.43725 -3.48994 0.317151 
12612 1 2.7983 0.859109 -2.74785 
5796 1 -2.69159 1.39035 1.97279 
5795 3 4.96001 3.09898 3.04253 
15653 3 -0.452562 1.95289 0.5049 
5794 1 -1.70556 -0.806121 2.53835 
7684 1 1.31139 -0.660483 3.87179 
7685 3 1.21822 -2.51383 -4.74966 
6372 1 -4.63956 -0.357449 2.50863 
12610 1 -9.78718 -5.46316 -4.08966 
14536 1 2.89503 -4.70613 3.88773 
14537 3 2.66507 -1.23449 1.57532 
14538 1 -2.5029 -1.6287 2.91279 
6315 1 0.914809 -6.18687 1.04515 
9925 1 2.30599 5.98314 1.81094 
9927 1 4.30844 1.69647 3.23319 
9926 3 -1.18754 -1.94534 -4.00012 
2694 1 -2.2267 0.360908 -0.750237 
17818 1 -1.13536 -0.798061 0.973137 
15510 1 3.1397 0.376288 -4.25445 
12836 3 2.08683 0.133133 -1.31472 
10181 3 2.56651 4.21597 -0.854848 
15223 1 4.26429 6.0628 -1.35398 
10180 1 3.63842 4.57964 2.65543 
15224 3 -1.07536 -3.05635 -3.62637 
15225 1 -1.72947 0.252766 -3.97765 
12835 1 -1.33335 4.07421 -3.29585 
12837 1 1.9976 1.16867 -1.73813 
10182 1 8.94339 -3.1573 1.50505 
20908 1 1.24597 -0.224345 -5.13242 
6607 1 -0.212536 -5.29931 0.167471 
20909 3 -1.07083 -1.98894 -1.23884 
7688 3 5.03637 0.944555 2.39271 
7687 1 3.85966 5.66232 -1.89745 
11828 3 -0.810754 1.8464 -2.75539 
4271 3 2.8018 -0.983436 -1.52969 
4272 1 2.16198 -1.76153 -0.58605 
406 1 -10.8508 4.39534 -4.92752 
4270 1 0.396135 -1.58148 0.609241 
1329 1 6.65183 -1.10618 -1.24007 
16982 3 -0.925866 1.52956 -0.0118974 
16029 1 0.780822 -0.514085 1.67821 
16839 1 1.37638 -2.98787 2.40217 
16981 1 2.33606 -1.11474 3.71478 
16837 1 -4.21439 -1.64578 -1.06181 
16838 3 1.50725 -3.42671 -5.10623 
862 1 0.493776 -2.45045 -2.79793 
2091 1 -1.96179 -2.32244 1.60598 
1328 3 -1.55918 -1.92169 -0.198242 
16260 1 7.72476 -4.96887 -5.47497 
18113 3 1.26045 -3.67558 -1.15934 
7689 1 1.10171 1.24911 8.1023 
1503 1 -3.45084 -3.73196 3.53696 
1908 1 1.51997 -2.91547 3.02137 
1907 3 -1.96977 1.81729 2.75491 
1502 3 0.727735 -1.59811 0.863686 
1906 1 2.08069 -1.41771 -1.55828 
21556 1 7.93958 2.78505 3.01087 
19302 1 0.173768 -2.16488 -4.54074 
18112 1 -0.301531 -0.363985 -4.94059 
20446 1 1.92733 -1.39137 -1.29489 
19301 3 -4.92655 -2.30828 -0.64814 
10176 1 3.24356 2.51249 10.1611 
11827 1 9.75123 -0.638847 -4.62857 
10241 3 -2.29509 1.29821 -1.3759 
10242 1 -1.84988 -6.12154 -5.77394 
7683 1 -3.15383 -4.93808 -0.449145 
21558 1 -0.437746 4.13209 1.37781 
21557 3 -1.41462 3.69648 -1.58744 
10141 1 -7.52739 3.38599 -7.73414 
10143 1 2.54018 0.245536 -2.85592 
10142 3 1.28916 -1.78869 -1.54104 
4800 1 -4.4177 -0.417478 -1.67188 
1058 3 -0.842676 -0.216911 2.15517 
16259 3 -0.495324 -3.19516 0.801767 
16258 1 1.69519 0.854687 -2.52477 
1059 1 6.14194 -0.474801 1.99753 
1823 3 -0.882983 0.185114 -3.70287 
1824 1 0.121723 1.67303 -1.18491 
6400 1 0.0900201 -1.21337 -3.01724 
1822 1 -6.44431 -3.47696 2.50938 
10174 1 -0.891432 1.22027 -0.406743 
12264 1 6.23176 0.377686 -2.81524 
6401 3 0.0511557 4.3589 -0.680016 
1427 3 -1.88273 4.28945 -0.17594 
6402 1 -9.11174 -2.7579 3.55492 
12263 3 -1.41236 0.501312 -1.93728 
15578 3 -0.956572 -0.683539 4.67237 
10175 3 -1.79231 1.35774 -2.85334 
2656 1 -4.75982 0.167732 0.396957 
15577 1 -0.0367822 8.58282 3.24454 
21207 1 -0.0702369 4.77211 3.72317 
19679 3 -2.6634 3.73444 -0.364661 
19680 1 -8.42529 -2.20935 -3.14035 
18225 1 6.15683 -4.50216 -0.19808 
19119 1 1.68248 5.82042 -2.57763 
19678 1 -0.0559103 1.7445 -2.27958 
21206 3 -1.26443 -2.91213 -5.94571 
21205 1 3.69228 -1.78104 -2.03702 
16182 1 4.03583 2.85027 7.41793 
16181 3 -3.30379 -0.800921 0.721711 
18224 3 2.57327 -3.64272 1.16266 
19407 1 4.05297 0.347983 -8.70728 
19406 3 5.50703 -0.997501 3.1887 
4899 1 0.698122 4.13941 -0.0532762 
4897 1 -5.0037 -1.12373 -0.096273 
17067 1 3.31536 2.62557 1.36817 
4898 3 -3.90513 2.85622 -1.36171 
17066 3 -0.651215 0.957539 2.43485 
6567 1 5.95862 -2.83213 -2.4573 
17065 1 -2.43331 -1.09946 1.36001 
17023 1 5.29895 1.44035 2.76714 
6566 3 -0.736277 0.4359 3.10225 
5596 1 1.51679 -0.570393 -6.75109 
1874 3 0.098595 -2.37219 6.39923 
1873 1 1.7565 0.13503 -3.2971 
7686 1 2.64944 -0.169308 2.19501 
1875 1 2.00333 -1.01218 3.24532 
16180 1 1.60537 -0.715188 -5.60275 
6090 1 1.841 -0.443744 5.22319 
19509 1 -2.22714 -2.32835 3.9783 
15994 1 -2.25663 -4.7211 2.07231 
15995 3 3.59352 -2.30276 -0.410282 
15996 1 1.94542 -2.7813 -1.17563 
19507 1 -4.61702 2.23367 -8.3919 
19508 3 1.93969 0.31765 0.418117 
19405 1 -1.09143 -4.79416 -1.96607 
17024 3 -1.01758 1.09918 2.09176 
18235 1 -0.351777 -0.657828 -7.78759 
18236 3 -2.11673 1.26557 -0.510457 
18237 1 -3.28241 -1.00391 -6.22363 
7726 1 1.14013 0.334907 5.61023 
7727 2 2.52029 5.69781 2.71339 
11765 2 -2.03489 -0.439624 -0.143345 
11764 1 4.04424 -4.65706 3.6386 
7728 1 -3.19586 3.30283 2.39635 
5655 1 0.000417621 4.89272 0.970133 
270 1 3.86041 -2.5846 -0.892216 
269 2 3.76185 -5.43493 -1.72008 
5654 2 1.91163 0.41572 0.104201 
5653 1 3.32882 6.33901 0.753179 
17337 1 -0.379447 -7.30055 -2.43488 
17336 2 0.241403 -3.60801 -4.71766 
17335 1 0.845132 -1.35222 2.78577 
408 1 -0.716697 -2.07233 2.50073 
268 1 -2.294 5.70219 -8.75725 
3489 1 -0.192505 -4.17818 5.24973 
20910 1 -2.74779 -0.177284 -12.1973 
3488 3 3.67079 4.62386 -5.45327 
3487 1 0.718158 1.49468 4.45654 
2245 1 2.47459 1.54907 -9.06533 
5252 3 -1.90873 -0.904667 2.25838 
2246 3 1.43084 -2.36668 -0.79107 
2247 1 -2.08994 -0.746394 -4.83882 
5251 1 1.63528 -5.27599 -2.03571 
5712 1 -0.957802 1.78545 -3.64438 
5253 1 -2.77224 3.86687 -0.0887357 
12177 1 -6.92028 -2.99621 0.761745 
407 3 -1.06591 -0.56208 1.48947 
10799 2 4.70579 -3.04242 0.769877 
10800 1 3.27486 3.09924 3.41784 
10798 1 6.48685 0.773498 -1.25662 
1021 1 0.864461 -1.00664 -0.102046 
2090 3 0.216496 -4.08857 -1.14542 
19925 2 1.798 -5.76882 0.159268 
19926 1 -0.413865 -0.180198 -0.161759 
18290 3 4.78805 -1.56212 -3.64402 
18291 1 1.72265 1.59815 0.201706 
16028 3 0.290281 -0.170542 1.99936 
19924 1 -1.3311 1.55955 1.507 
16027 1 1.35606 -2.58086 3.69693 
18289 1 -0.946275 2.93826 -2.75412 
12074 3 2.49736 -0.866267 -0.387943 
12075 1 -0.86102 3.84355 2.46407 
18114 1 -3.13712 -2.5491 1.65384 
19300 1 -1.28116 -1.28278 -2.11737 
13900 1 0.293667 -5.98842 0.705965 
13902 1 2.4243 -2.79798 -5.19492 
13901 3 -1.34606 -2.65305 -2.01191 
7629 1 -0.0201298 4.08828 0.153077 
13743 1 -1.49907 -0.498213 1.32838 
13742 3 1.15089 -1.84089 1.69978 
13741 1 5.76654 -2.37666 -1.20272 
4798 1 -1.93035 0.610967 5.66577 
12176 3 -5.15837 -1.80039 0.692874 
7628 3 1.71349 1.1217 2.87623 
9065 3 2.57546 -4.10168 0.111176 
9064 1 0.0569944 8.73556 -2.35752 
12175 1 3.80375 -2.62531 0.660694 
9066 1 0.838819 -0.277522 -5.75419 
12373 1 1.28903 -3.41456 1.34365 
11433 1 -7.27901 -2.46531 2.66712 
21208 1 4.06735 0.69101 -2.21156 
11432 2 4.67571 -1.49254 0.990483 
11431 1 -0.330071 -2.34882 -1.98357 
21209 3 0.646594 2.18441 -5.03167 
8058 1 0.948584 -3.9049 0.235284 
8057 3 -1.6525 -3.54128 -1.82232 
4799 3 2.84951 -1.23856 0.142276 
8056 1 -1.15047 -0.720208 -3.16516 
1210 1 -1.83533 -5.3026 -4.72097 
6578 3 -1.25576 -0.134789 1.83398 
6579 1 -4.512 1.47471 -5.82535 
10339 1 -2.86887 5.23638 1.58003 
10340 3 3.8446 -5.88894 2.18013 
10341 1 3.11956 1.95283 -1.84895 
12262 1 -1.85572 -2.18366 -2.79993 
12073 1 1.77798 -4.85241 3.08248 
18223 1 1.89572 -3.24467 2.34663 
13227 1 1.97274 -1.53112 3.67253 
13226 3 -0.712069 0.589176 -0.9835 
13225 1 3.29579 0.0486546 -2.68712 
13989 1 6.32637 -3.85797 4.3429 
12374 3 -1.14199 2.34608 -0.528819 
12375 1 4.42327 0.522692 -0.323529 
13988 3 -2.19419 -0.842264 5.01071 
13987 1 -8.23442 4.92217 4.01483 
6565 1 -3.94762 -1.82901 1.00046 
15997 1 -2.11192 0.0167109 -1.55915 
15999 1 2.94762 1.53736 0.903001 
15998 3 -0.105223 -1.45267 0.966072 
6089 3 0.571595 1.42742 2.04243 
6088 1 7.08077 2.31346 2.3966 
5597 3 -3.17627 0.297983 4.26878 
9018 1 1.12143 3.55173 -3.02451 
19861 1 1.17847 0.310092 2.82495 
17025 1 1.23065 -1.14269 -0.0686617 
2684 3 -2.34161 -2.24337 4.76088 
2685 1 1.22925 1.90811 5.58218 
9017 3 -1.06385 1.85353 -4.00195 
19863 1 -1.79002 -4.33356 0.479844 
19862 3 -3.19546 -1.00268 0.890866 
2683 1 1.48814 -1.69331 0.363305 
11766 1 2.12577 6.02663 -4.62672 
16106 2 -2.93608 -0.859853 -0.375849 
16107 1 6.41391 1.326 2.57569 
9116 2 3.16483 0.889473 1.33876 
9115 1 1.09544 4.02852 -0.205719 
9117 1 2.18398 1.87713 1.72735 
20381 2 1.01309 0.822532 0.977218 
20382 1 4.4267 -2.04382 1.51041 
21562 1 -3.78482 -9.25826 2.203 
21563 2 3.67746 2.07678 1.5501 
21564 1 3.77918 1.01283 -1.22225 
16105 1 -2.44014 0.345493 -1.47427 
15786 1 -0.82771 0.426535 1.19348 
15785 2 2.73216 -1.88973 0.626405 
15784 1 -5.31179 -2.36995 3.57841 
1023 1 0.595869 -1.3793 0.813283 
5710 1 3.78784 2.94016 5.69348 
5711 3 -2.67932 -1.14573 1.38928 
1022 2 -2.20876 2.94308 -3.79754 
20522 3 4.93992 -5.9658 -1.1172 
20523 1 7.60716 -1.35383 3.45866 
7627 1 -3.28543 -1.14446 -4.07106 
20521 1 2.98216 -3.13057 3.21702 
21210 1 -4.11178 2.49381 -1.3271 
6577 1 -1.73199 -1.04834 -4.85219 
18090 1 2.1279 1.41519 -0.736652 
9493 1 -3.94951 -3.9254 -0.376361 
9016 1 -4.74956 3.31209 5.02055 
16806 1 1.7731 -1.29519 6.90309 
20380 1 5.024 -5.17541 10.1968 
16804 1 -3.738 -0.720174 -1.61185 
16805 2 0.291978 5.61352 3.37379 
