ITEM: TIMESTEP
0
ITEM: NUMBER OF ATOMS
477
ITEM: BOX BOUNDS pp pp pp
0.0000000000000000e+00 5.0000000000000000e+01
0.0000000000000000e+00 5.0000000000000000e+01
0.0000000000000000e+00 5.0000000000000000e+01
ITEM: ATOMS id type 
7 1 
8 3 
9 1 
1564 1 
1565 2 
1566 1 
2230 1 
2231 3 
2232 1 
5464 1 
5465 3 
5466 1 
6910 1 
6911 3 
6912 1 
7081 1 
7082 3 
7083 1 
7084 1 
7085 3 
7086 1 
7861 1 
7862 3 
7863 1 
7864 1 
7865 3 
7866 1 
10210 1 
10211 3 
10212 1 
10321 1 
10322 3 
10323 1 
439 1 
440 3 
441 1 
2362 1 
2363 3 
2364 1 
3436 1 
3437 2 
3438 1 
4513 1 
4514 3 
4515 1 
6922 1 
6923 3 
6924 1 
7936 1 
7937 3 
7938 1 
8119 1 
8120 3 
8121 1 
9202 1 
9203 3 
9204 1 
9976 1 
9977 3 
9978 1 
1294 1 
1295 3 
1296 1 
7105 1 
7106 3 
7107 1 
7885 1 
7886 3 
7887 1 
7954 1 
7955 3 
7956 1 
8131 1 
8132 3 
8133 1 
10168 1 
10169 2 
10170 1 
10351 1 
10352 3 
10353 1 
163 1 
164 3 
165 1 
3217 1 
3218 3 
3219 1 
7117 1 
7118 3 
7119 1 
10366 1 
10367 3 
10368 1 
3712 1 
3713 3 
3714 1 
4372 1 
4373 3 
4374 1 
4429 1 
4430 3 
4431 1 
4792 1 
4793 3 
4794 1 
5629 1 
5630 3 
5631 1 
6709 1 
6710 3 
6711 1 
10552 1 
10553 2 
10554 1 
604 1 
605 3 
606 1 
1744 1 
1745 3 
1746 1 
2164 1 
2165 3 
2166 1 
2701 1 
2702 3 
2703 1 
3124 1 
3125 3 
3126 1 
6124 1 
6125 3 
6126 1 
6550 1 
6551 3 
6552 1 
8530 1 
8531 3 
8532 1 
10810 1 
10811 3 
10812 1 
562 1 
563 3 
564 1 
919 1 
920 3 
921 1 
2722 1 
2723 3 
2724 1 
6253 1 
6254 3 
6255 1 
9742 1 
9743 3 
9744 1 
10636 1 
10637 3 
10638 1 
1708 1 
1709 3 
1710 1 
1768 1 
1769 2 
1770 1 
1948 1 
1949 3 
1950 1 
2854 1 
2855 3 
2856 1 
3094 1 
3095 3 
3096 1 
4291 1 
4292 3 
4293 1 
6445 1 
6446 3 
6447 1 
8851 1 
8852 3 
8853 1 
10585 1 
10586 3 
10587 1 
1006 1 
1007 3 
1008 1 
1840 1 
1841 3 
1842 1 
2866 1 
2867 3 
2868 1 
3940 1 
3941 3 
3942 1 
9406 1 
9407 3 
9408 1 
9883 1 
9884 3 
9885 1 
10606 1 
10607 3 
10608 1 
10960 1 
10961 3 
10962 1 
1732 1 
1733 3 
1734 1 
2038 1 
2039 3 
2040 1 
2695 1 
2696 3 
2697 1 
4978 1 
4979 3 
4980 1 
6118 1 
6119 3 
6120 1 
9475 1 
9476 3 
9477 1 
10672 1 
10673 3 
10674 1 
10849 1 
10850 3 
10851 1 
10852 1 
10853 3 
10854 1 
12421 1 
12422 3 
12423 1 
14410 1 
14411 3 
14412 1 
18370 1 
18371 3 
18372 1 
12433 1 
12434 3 
12435 1 
13576 1 
13577 2 
13578 1 
15619 1 
15620 3 
15621 1 
16459 1 
16460 3 
16461 1 
17299 1 
17300 2 
17301 1 
17722 1 
17723 3 
17724 1 
18682 1 
18683 3 
18684 1 
19456 1 
19457 3 
19458 1 
20536 1 
20537 3 
20538 1 
20602 1 
20603 3 
20604 1 
20842 1 
20843 3 
20844 1 
15688 1 
15689 3 
15690 1 
16408 1 
16409 3 
16410 1 
17611 1 
17612 3 
17613 1 
12583 1 
12584 3 
12585 1 
13417 1 
13418 3 
13419 1 
13546 1 
13547 3 
13548 1 
14377 1 
14378 3 
14379 1 
14506 1 
14507 3 
14508 1 
16486 1 
16487 3 
16488 1 
17797 1 
17798 3 
17799 1 
19666 1 
19667 3 
19668 1 
11332 1 
11333 3 
11334 1 
13255 1 
13256 3 
13257 1 
13315 1 
13316 3 
13317 1 
14695 1 
14696 3 
14697 1 
15658 1 
15659 2 
15660 1 
15715 1 
15716 3 
15717 1 
17518 1 
17519 3 
17520 1 
11581 1 
11582 3 
11583 1 
13981 1 
13982 3 
13983 1 
14050 1 
14051 2 
14052 1 
14107 1 
14108 3 
14109 1 
14821 1 
14822 3 
14823 1 
15850 1 
15851 3 
15852 1 
16024 1 
16025 3 
16026 1 
16204 1 
16205 3 
16206 1 
16861 1 
16862 3 
16863 1 
16870 1 
16871 3 
16872 1 
16927 1 
16928 3 
16929 1 
20344 1 
20345 3 
20346 1 
20350 1 
20351 3 
20352 1 
21124 1 
21125 3 
21126 1 
12793 1 
12794 3 
12795 1 
15022 1 
15023 3 
15024 1 
15262 1 
15263 3 
15264 1 
15916 1 
15917 3 
15918 1 
16816 1 
16817 3 
16818 1 
18013 1 
18014 3 
18015 1 
18019 1 
18020 3 
18021 1 
18076 1 
18077 3 
18078 1 
20053 1 
20054 3 
20055 1 
21136 1 
21137 3 
21138 1 
11845 1 
11846 3 
11847 1 
12031 1 
12032 3 
12033 1 
13105 1 
13106 3 
13107 1 
13771 1 
13772 2 
13773 1 
14071 1 
14072 3 
14073 1 
14968 1 
14969 3 
14970 1 
18031 1 
18032 3 
18033 1 
20365 1 
20366 3 
20367 1 
21388 1 
21389 3 
21390 1 
11866 1 
11867 3 
11868 1 
14740 1 
14741 3 
14742 1 
17140 1 
17141 3 
17142 1 
18343 1 
18344 3 
18345 1 
19366 1 
19367 2 
19368 1 
21160 1 
21161 3 
21162 1 
11989 1 
11990 3 
11991 1 
13072 1 
13073 2 
13074 1 
14872 1 
14873 3 
14874 1 
15172 1 
15173 3 
15174 1 
15289 1 
15290 3 
15291 1 
16009 1 
16010 3 
16011 1 
19192 1 
19193 3 
19194 1 
20029 1 
20030 3 
20031 1 
20452 1 
20453 3 
20454 1 
