ITEM: TIMESTEP
20000000
ITEM: NUMBER OF ENTRIES
308
ITEM: BOX BOUNDS pp pp pp
0 50
0 50
0 50
ITEM: ENTRIES c_binfo[1] c_binfo[2] c_binfo[3] 
3 10063 10064 
3 20890 20891 
2 14839 14840 
3 19975 19976 
3 19976 19977 
3 19331 19332 
3 19330 19331 
1 19330 21199 
3 21199 21200 
3 21200 21201 
1 3462 15538 
3 15539 15540 
3 15538 15539 
3 10996 10997 
1 10996 15663 
2 15662 15663 
3 3461 3462 
3 3460 3461 
1 3460 6838 
3 6838 6839 
3 6839 6840 
1 6840 7035 
3 12455 12456 
3 12454 12455 
1 10998 12454 
3 10997 10998 
1 10065 10134 
3 3325 3326 
1 3325 10132 
3 10132 10133 
3 10133 10134 
3 10064 10065 
3 7034 7035 
3 7033 7034 
3 5227 5228 
1 5227 16650 
3 16649 16650 
3 5228 5229 
3 16648 16649 
1 16648 19332 
3 3326 3327 
3 7148 7149 
3 7147 7148 
3 8785 8786 
3 14230 14231 
3 14231 14232 
2 5372 5373 
2 5371 5372 
1 5371 15661 
2 15661 15662 
3 466 467 
1 14232 17913 
3 17912 17913 
3 17911 17912 
3 1954 1955 
1 1954 7008 
3 1955 1956 
3 8126 8127 
3 8125 8126 
1 468 8127 
1 18054 20892 
3 18053 18054 
3 20891 20892 
3 467 468 
2 8980 8981 
3 8542 8543 
1 8542 8982 
2 8981 8982 
1 5229 7006 
3 7007 7008 
3 11375 11376 
3 7006 7007 
3 11321 11322 
3 18622 18623 
3 11320 11321 
1 11320 18622 
3 18623 18624 
1 8787 11376 
3 8786 8787 
3 15065 15066 
1 15066 18007 
3 18007 18008 
3 18992 18993 
3 18991 18992 
1 10485 18993 
3 15064 15065 
3 18008 18009 
3 670 671 
1 10437 18009 
3 671 672 
3 11377 11378 
3 3956 3957 
1 3957 10192 
3 10192 10193 
3 10193 10194 
1 1956 3955 
3 3955 3956 
3 7259 7260 
3 7258 7259 
1 7258 10483 
3 10483 10484 
3 10484 10485 
3 11378 11379 
3 12560 12561 
3 18052 18053 
3 12559 12560 
1 7260 18052 
3 5920 5921 
1 5920 12559 
3 10436 10437 
3 5921 5922 
1 2331 5922 
3 8543 8544 
1 8544 17145 
3 17144 17145 
3 19307 19308 
3 19306 19307 
3 17690 17691 
3 17689 17690 
3 9805 9806 
1 9805 17689 
3 9806 9807 
1 7347 9807 
1 11322 14239 
3 14239 14240 
3 11374 11375 
1 11374 19312 
3 19312 19313 
3 14240 14241 
3 19313 19314 
1 15960 19314 
3 1124 1125 
1 1125 7600 
3 7600 7601 
3 15959 15960 
3 2330 2331 
3 7601 7602 
3 2329 2330 
1 2329 7602 
3 11363 11364 
3 11362 11363 
3 1798 1799 
1 1798 11362 
2 14819 14820 
3 12700 12701 
1 12700 14818 
3 12701 12702 
3 1123 1124 
1 1123 20995 
3 20995 20996 
2 14818 14819 
2 14840 14841 
3 10744 10745 
3 10745 10746 
3 15529 15530 
3 145 146 
1 145 15529 
3 146 147 
3 15530 15531 
3 17426 17427 
3 17425 17426 
3 3523 3524 
1 3523 17425 
3 3524 3525 
3 4984 4985 
3 4985 4986 
1 672 12811 
3 12811 12812 
1 4986 6993 
3 6992 6993 
2 8363 8364 
2 8362 8363 
3 2894 2895 
3 2893 2894 
1 2893 14434 
3 14434 14435 
3 2537 2538 
3 4426 4427 
1 10194 15531 
1 2538 14436 
3 14435 14436 
3 4427 4428 
3 4054 4055 
1 4054 12513 
1 12813 19975 
3 2536 2537 
3 12812 12813 
3 10435 10436 
1 10435 14145 
1 1101 3525 
3 14144 14145 
3 14143 14144 
3 1100 1101 
3 1099 1100 
1 1099 16659 
3 16658 16659 
3 17143 17144 
3 10019 10020 
1 10020 19209 
3 19208 19209 
3 10018 10019 
3 15958 15959 
1 15958 19207 
3 19207 19208 
3 13895 13896 
3 4055 4056 
3 13894 13895 
1 4056 13894 
3 1799 1800 
3 16657 16658 
1 6057 11076 
3 7346 7347 
3 7345 7346 
1 7345 8325 
3 8324 8325 
3 8777 8778 
3 8323 8324 
3 20996 20997 
1 882 20997 
3 881 882 
3 880 881 
1 880 21174 
3 15128 15129 
3 14431 14432 
3 14432 14433 
3 6056 6057 
3 6055 6056 
1 6055 14433 
3 21173 21174 
1 10746 10983 
3 7456 7457 
1 7456 8964 
1 147 8962 
3 8962 8963 
3 8963 8964 
3 11813 11814 
1 11127 20113 
3 20113 20114 
3 16246 16247 
3 16247 16248 
3 11126 11127 
3 6991 6992 
3 20114 20115 
3 6427 6428 
1 6427 20115 
3 10982 10983 
3 10981 10982 
3 11812 11813 
3 12511 12512 
3 12512 12513 
3 3209 3210 
3 3208 3209 
1 3208 4428 
3 2188 2189 
3 2189 2190 
1 2190 11812 
3 12157 12158 
3 6428 6429 
3 10363 10364 
3 10364 10365 
3 9430 9431 
1 9430 10363 
3 9431 9432 
3 12788 12789 
3 12787 12788 
3 4630 4631 
1 4630 7696 
3 7696 7697 
3 2665 2666 
3 2666 2667 
3 5249 5250 
1 2667 4632 
3 4631 4632 
3 11236 11237 
1 5250 11236 
3 5248 5249 
1 5248 15127 
3 12158 12159 
3 11075 11076 
3 11237 11238 
1 9432 11238 
3 11074 11075 
3 7697 7698 
1 7698 8776 
3 8776 8777 
3 15127 15128 
3 16216 16217 
3 16217 16218 
2 8215 8216 
1 8215 16218 
1 8217 14500 
2 8216 8217 
3 21172 21173 
1 16248 18972 
3 18971 18972 
2 16531 16532 
2 16532 16533 
3 20860 20861 
1 5436 20860 
3 20861 20862 
3 5435 5436 
3 5434 5435 
1 10365 18970 
3 18970 18971 
2 14501 14502 
2 14500 14501 
3 11125 11126 
3 7457 7458 
