ITEM: TIMESTEP
40000000
ITEM: NUMBER OF ENTRIES
1523
ITEM: BOX BOUNDS pp pp pp
0 50
0 50
0 50
ITEM: ENTRIES c_binfo[1] c_binfo[2] c_binfo[3] 
2 2971 2972 
2 2972 2973 
2 17855 17856 
3 1417 1418 
1 1417 2971 
3 1418 1419 
1 1419 17854 
2 17854 17855 
2 10219 10220 
1 2445 3795 
2 2443 2444 
1 2443 10219 
2 2444 2445 
3 14866 14867 
3 14867 14868 
1 14868 19335 
2 3205 3206 
2 3794 3795 
2 3793 3794 
1 3793 17856 
2 9421 9422 
2 2281 2282 
1 2281 9421 
2 6490 6491 
2 6491 6492 
3 4795 4796 
3 3019 3020 
1 3019 4795 
2 14971 14972 
2 16331 16332 
2 3677 3678 
2 2282 2283 
3 3020 3021 
2 3464 3465 
2 3463 3464 
1 3463 6543 
2 6020 6021 
2 14972 14973 
2 6019 6020 
1 6019 17853 
2 17852 17853 
2 17851 17852 
1 14973 17851 
2 5461 5462 
1 5461 11112 
2 11111 11112 
2 19877 19878 
2 1685 1686 
2 19876 19877 
2 11110 11111 
1 11110 21397 
2 4999 5000 
2 5000 5001 
2 3676 3677 
2 1684 1685 
1 1684 2670 
1 5001 20841 
2 20840 20841 
2 20839 20840 
1 13773 20839 
1 1686 13716 
2 2669 2670 
2 2668 2669 
1 2668 2973 
2 6671 6672 
2 4391 4392 
2 4390 4391 
1 4390 6672 
1 4392 6982 
2 6670 6671 
1 6670 14419 
2 14419 14420 
1 156 14010 
2 1022 1023 
2 14420 14421 
1 14421 17857 
2 17857 17858 
2 8041 8042 
1 8041 17859 
2 17858 17859 
2 21347 21348 
2 21346 21347 
1 6804 21346 
2 21397 21398 
2 21398 21399 
2 9589 9590 
2 4816 4817 
1 4816 21399 
2 13772 13773 
2 9424 9425 
2 6982 6983 
2 9425 9426 
2 10220 10221 
2 155 156 
2 14008 14009 
1 1023 14008 
2 14009 14010 
2 703 704 
1 703 1021 
2 1021 1022 
2 704 705 
3 32 33 
3 31 32 
1 31 4737 
2 19334 19335 
2 19333 19334 
2 607 608 
1 607 19333 
2 608 609 
2 3206 3207 
2 10378 10379 
1 3207 10378 
1 609 8730 
2 10379 10380 
2 8729 8730 
2 6983 6984 
1 10380 11029 
2 11029 11030 
2 11030 11031 
2 11071 11072 
2 11072 11073 
2 5191 5192 
3 3371 3372 
3 3370 3371 
1 3370 5191 
1 3372 20991 
2 5192 5193 
1 5193 12528 
2 12526 12527 
2 12527 12528 
2 7556 7557 
2 1288 1289 
1 1288 7557 
2 1289 1290 
2 565 566 
1 565 12876 
2 566 567 
2 9422 9423 
1 9423 18630 
3 15514 15515 
2 18629 18630 
2 14276 14277 
3 15515 15516 
2 18628 18629 
1 18628 18880 
2 18880 18881 
2 2870 2871 
3 4796 4797 
2 2869 2870 
2 11234 11235 
2 17212 17213 
2 12875 12876 
2 16330 16331 
2 469 470 
1 469 16330 
2 470 471 
1 471 12874 
2 12874 12875 
2 1118 1119 
1 1119 11245 
2 11245 11246 
2 11246 11247 
1 9921 15516 
2 9920 9921 
2 9919 9920 
1 9919 13714 
2 13714 13715 
2 16993 16994 
2 16994 16995 
2 1348 1349 
1 1348 6108 
2 1349 1350 
1 14277 16566 
2 16565 16566 
2 16381 16382 
2 9250 9251 
1 9250 16381 
2 9251 9252 
2 19585 19586 
2 19586 19587 
2 10846 10847 
1 10846 19585 
2 10847 10848 
2 14314 14315 
1 14314 16383 
2 14315 14316 
2 4534 4535 
1 4534 14316 
2 2770 2771 
1 2770 8286 
2 8285 8286 
2 4535 4536 
1 2772 4797 
2 2771 2772 
2 2464 2465 
1 2464 3741 
1 2145 2466 
2 2465 2466 
3 2144 2145 
3 2143 2144 
2 6542 6543 
2 7915 7916 
2 6541 6542 
1 6541 7915 
2 7916 7917 
2 5462 5463 
2 11233 11234 
1 5463 11233 
2 5846 5847 
1 5847 6877 
2 6877 6878 
2 5845 5846 
1 5845 11235 
2 4927 4928 
1 948 1117 
2 1117 1118 
2 947 948 
2 946 947 
1 946 12210 
2 12209 12210 
2 17213 17214 
1 5364 17214 
2 13715 13716 
2 16564 16565 
2 18449 18450 
2 18448 18449 
2 15347 15348 
2 6107 6108 
2 16382 16383 
2 6106 6107 
1 2637 6106 
2 2636 2637 
2 4093 4094 
1 4093 19611 
2 4094 4095 
2 8284 8285 
1 8284 21312 
2 2635 2636 
1 2635 13665 
2 13664 13665 
2 13663 13664 
2 21311 21312 
2 8042 8043 
2 21310 21311 
2 6878 6879 
1 4929 9591 
2 4928 4929 
2 9230 9231 
2 9229 9230 
2 9590 9591 
2 17150 17151 
2 12208 12209 
1 12208 17151 
2 4817 4818 
1 4818 11668 
2 11668 11669 
2 8972 8973 
2 8971 8972 
2 7432 7433 
1 7432 8973 
1 8274 11670 
2 13771 13772 
2 2065 2066 
1 2065 13771 
2 11669 11670 
2 2066 2067 
1 2067 4095 
2 3514 3515 
2 3515 3516 
2 154 155 
1 154 3514 
2 19609 19610 
2 1448 1449 
2 15554 15555 
1 15651 19609 
2 15650 15651 
2 1447 1448 
1 1447 14584 
2 14584 14585 
2 14585 14586 
1 705 4498 
2 4498 4499 
2 15649 15650 
1 3492 15649 
2 12950 12951 
2 12949 12950 
2 4499 4500 
1 4500 12949 
3 4735 4736 
1 4735 8043 
3 4736 4737 
2 20989 20990 
2 6031 6032 
1 6031 20989 
2 6803 6804 
2 6802 6803 
1 6033 6802 
2 6032 6033 
2 1157 1158 
2 1156 1157 
1 261 1156 
2 260 261 
2 259 260 
1 259 5776 
1 1158 14901 
2 5777 5778 
2 19675 19676 
1 5778 19675 
2 7433 7434 
2 8728 8729 
1 8728 12987 
2 12986 12987 
2 19676 19677 
2 5776 5777 
2 7234 7235 
1 7234 11031 
2 6619 6620 
1 3516 6619 
2 6620 6621 
2 15553 15554 
1 8496 15553 
2 12985 12986 
1 7236 12985 
2 7235 7236 
2 8495 8496 
2 3859 3860 
1 3859 15555 
2 3490 3491 
1 3490 19998 
2 19997 19998 
2 19996 19997 
2 3491 3492 
2 20990 20991 
2 1151 1152 
1 1152 9501 
1 195 9214 
2 9214 9215 
2 14102 14103 
2 3250 3251 
1 3250 14101 
2 14101 14102 
2 3251 3252 
2 3860 3861 
1 2448 3861 
2 2447 2448 
2 2446 2447 
1 2446 19677 
2 9215 9216 
1 7152 9216 
2 8417 8418 
2 9077 9078 
3 17254 17255 
2 9076 9077 
1 9076 17254 
2 5383 5384 
2 5384 5385 
2 12407 12408 
2 18376 18377 
2 18377 18378 
2 12406 12407 
1 12406 18378 
3 17255 17256 
3 14878 14879 
1 14878 17256 
3 14879 14880 
2 7555 7556 
1 7555 7926 
2 7925 7926 
2 7924 7925 
1 7924 13686 
2 8462 8463 
2 1691 1692 
2 1690 1691 
2 43 44 
1 43 1692 
2 44 45 
2 19616 19617 
2 8461 8462 
1 8461 19812 
2 19811 19812 
2 19810 19811 
1 19617 19810 
2 11833 11834 
1 11833 14275 
2 14275 14276 
1 5055 11835 
2 5054 5055 
2 11834 11835 
1 9180 21466 
2 21466 21467 
2 18881 18882 
2 3928 3929 
1 3928 18882 
2 3929 3930 
2 15032 15033 
2 15031 15032 
2 9292 9293 
1 3279 11295 
2 3278 3279 
2 3277 3278 
1 3277 17668 
2 8878 8879 
1 8878 12117 
2 8879 8880 
1 8880 17212 
2 16252 16253 
2 18865 18866 
2 12115 12116 
1 12115 16252 
2 12116 12117 
1 45 9273 
2 18866 18867 
2 9272 9273 
2 767 768 
2 766 767 
1 766 18867 
2 17468 17469 
2 17467 17468 
2 14725 14726 
1 14725 17467 
2 9271 9272 
1 11247 17275 
2 17275 17276 
2 17276 17277 
2 13615 13616 
1 13615 16744 
2 9178 9179 
1 9178 17277 
2 9179 9180 
2 16744 16745 
2 13616 13617 
2 9211 9212 
1 9211 9271 
2 9212 9213 
2 29 30 
2 10303 10304 
1 9252 10305 
2 10304 10305 
2 11230 11231 
1 7023 11230 
2 28 29 
1 28 10303 
2 8900 8901 
2 8899 8900 
1 30 3930 
2 3739 3740 
2 3346 3347 
1 3346 4536 
2 3347 3348 
1 3348 16627 
2 16627 16628 
2 3740 3741 
2 9293 9294 
2 8734 8735 
1 8734 13641 
2 8735 8736 
2 17669 17670 
2 17668 17669 
1 8736 11293 
2 11294 11295 
2 11293 11294 
1 2238 3297 
2 2237 2238 
2 5267 5268 
2 5266 5267 
2 20180 20181 
2 20179 20180 
2 370 371 
1 370 20179 
2 371 372 
1 372 8718 
1 10671 17469 
2 14726 14727 
2 8717 8718 
2 8273 8274 
1 14727 15742 
2 8272 8273 
2 5362 5363 
1 5362 8272 
2 5363 5364 
2 4937 4938 
2 4936 4937 
1 4936 12879 
2 10669 10670 
1 10669 16995 
2 16745 16746 
2 10670 10671 
2 11087 11088 
2 11086 11087 
1 11086 16746 
1 11088 15346 
2 15346 15347 
2 12878 12879 
2 7021 7022 
1 7021 12877 
2 12877 12878 
2 7022 7023 
2 8518 8519 
1 8518 15909 
2 8519 8520 
2 898 899 
1 898 8520 
2 899 900 
2 15908 15909 
1 603 13663 
1 4113 12951 
2 4112 4113 
1 771 3739 
2 770 771 
2 602 603 
2 9665 9666 
2 769 770 
1 769 900 
2 4111 4112 
2 9664 9665 
2 3731 3732 
2 3730 3731 
1 3730 9666 
2 1322 1323 
2 1321 1322 
1 1321 9846 
2 7879 7880 
2 3296 3297 
2 2236 2237 
1 2236 12619 
2 3295 3296 
1 3295 6879 
2 13300 13301 
1 13300 21357 
2 21355 21356 
1 9000 21355 
2 21356 21357 
2 8999 9000 
2 17149 17150 
2 8716 8717 
1 8716 17149 
2 3710 3711 
2 5081 5082 
1 5082 8971 
2 5080 5081 
2 3709 3710 
1 3709 5080 
2 181 182 
2 182 183 
1 183 2532 
2 9275 9276 
1 9276 14058 
1 3711 15012 
2 12467 12468 
1 12468 15348 
2 12466 12467 
2 3628 3629 
1 3628 12466 
2 3629 3630 
2 19610 19611 
2 19399 19400 
2 19400 19401 
1 19401 20194 
2 20194 20195 
2 7517 7518 
1 7518 12321 
2 7516 7517 
1 7516 16980 
2 16979 16980 
2 20195 20196 
2 601 602 
1 601 19399 
2 12320 12321 
2 12319 12320 
2 6751 6752 
1 6751 12319 
2 6752 6753 
2 13612 13613 
1 6753 13612 
2 13613 13614 
2 7880 7881 
2 15401 15402 
2 15400 15401 
1 9189 15402 
2 13301 13302 
1 13302 15400 
2 16463 16464 
2 7402 7403 
1 7402 14899 
2 14899 14900 
2 14900 14901 
2 16462 16463 
1 13014 16462 
2 13013 13014 
2 13012 13013 
1 13012 13800 
2 7403 7404 
2 2530 2531 
1 2530 21423 
2 14 15 
2 14557 14558 
1 15 14557 
2 2531 2532 
2 13 14 
1 13 17536 
1 7404 9685 
1 6621 14559 
2 14558 14559 
2 16978 16979 
2 8494 8495 
2 7199 7200 
2 21422 21423 
1 3630 8494 
2 7100 7101 
2 21421 21422 
1 7200 21421 
1 7101 9916 
2 9916 9917 
1 14397 19996 
2 14396 14397 
2 14395 14396 
2 7513 7514 
1 7513 14395 
1 7515 21034 
2 16880 16881 
2 21034 21035 
2 16879 16880 
2 9403 9404 
1 9403 16879 
2 9404 9405 
2 2266 2267 
1 2266 9405 
2 2267 2268 
1 2268 12850 
2 12850 12851 
3 20468 20469 
2 16553 16554 
2 16552 16553 
2 12851 12852 
2 9188 9189 
2 1150 1151 
1 1150 9187 
2 17075 17076 
2 9187 9188 
1 16464 17076 
2 11969 11970 
1 11970 17074 
2 17074 17075 
2 193 194 
1 193 9499 
2 194 195 
2 9500 9501 
2 9499 9500 
2 17536 17537 
2 17537 17538 
2 5564 5565 
2 5563 5564 
1 8418 16978 
2 7099 7100 
1 7099 19590 
2 5816 5817 
2 8416 8417 
1 5817 8416 
2 19589 19590 
2 19588 19589 
2 17998 17999 
1 17998 19588 
2 17999 18000 
2 5815 5816 
1 5815 18025 
2 18025 18026 
2 7514 7515 
2 11968 11969 
1 11968 13507 
2 13507 13508 
2 13508 13509 
2 7151 7152 
2 7150 7151 
1 7150 9078 
3 16697 16698 
1 1575 16698 
2 1574 1575 
2 12124 12125 
1 12124 18000 
2 12125 12126 
3 16696 16697 
2 13685 13686 
2 13684 13685 
1 5049 13684 
2 5048 5049 
2 1075 1076 
1 1075 5883 
2 1076 1077 
2 19615 19616 
2 12919 12920 
1 12919 14533 
2 14533 14534 
2 12920 12921 
1 12921 19615 
2 4162 4163 
1 4162 5047 
2 5047 5048 
1 7335 7587 
2 1693 1694 
1 1693 7333 
2 7333 7334 
2 1694 1695 
2 7334 7335 
1 1695 13530 
2 21467 21468 
2 5053 5054 
1 5053 17803 
2 17803 17804 
2 17804 17805 
2 5881 5882 
1 5881 17805 
2 5882 5883 
2 8036 8037 
1 8037 14104 
2 14104 14105 
2 14105 14106 
2 2864 2865 
2 2863 2864 
1 2863 15624 
3 15623 15624 
1 2865 8035 
2 8035 8036 
3 15622 15623 
1 8385 15630 
2 16253 16254 
2 3949 3950 
1 3949 18243 
2 15629 15630 
2 14534 14535 
2 6271 6272 
1 6271 8817 
2 6272 6273 
1 6273 14535 
2 5120 5121 
2 18242 18243 
2 18241 18242 
1 18241 20074 
2 20074 20075 
2 4235 4236 
1 4164 9213 
2 4163 4164 
2 12500 12501 
2 12499 12500 
1 12499 21468 
2 5983 5984 
1 5121 5983 
2 5984 5985 
1 5985 13617 
2 3106 3107 
1 3106 12501 
2 13529 13530 
2 13528 13529 
1 8901 13528 
2 11231 11232 
1 6342 11232 
1 12081 16620 
2 16619 16620 
2 13219 13220 
1 14091 16618 
2 16618 16619 
2 13220 13221 
2 16628 16629 
2 6341 6342 
2 12080 12081 
2 12079 12080 
2 6340 6341 
1 6340 14106 
2 4556 4557 
1 4557 6277 
2 4555 4556 
1 4555 12079 
2 8335 8336 
1 8335 16629 
2 9844 9845 
2 13640 13641 
3 688 689 
1 688 14179 
3 689 690 
1 690 20478 
2 8383 8384 
1 8383 17670 
2 8384 8385 
2 20477 20478 
2 20476 20477 
2 307 308 
1 307 20476 
2 13639 13640 
2 3950 3951 
2 308 309 
1 309 8682 
2 19591 19592 
2 15743 15744 
2 15742 15743 
2 9274 9275 
1 9274 15744 
2 8816 8817 
2 8815 8816 
1 7806 8815 
2 7805 7806 
2 4234 4235 
1 4234 7939 
2 7804 7805 
2 2644 2645 
1 2644 7804 
2 1108 1109 
2 12244 12245 
2 12245 12246 
1 13221 13264 
2 13264 13265 
2 13265 13266 
2 6064 6065 
1 4236 6064 
2 6065 6066 
2 15907 15908 
2 11662 11663 
1 11662 15907 
2 16910 16911 
2 16909 16910 
2 11663 11664 
1 2652 11664 
2 2651 2652 
2 8336 8337 
2 10531 10532 
1 8337 10531 
2 10532 10533 
2 2650 2651 
1 2650 13960 
2 13960 13961 
1 10533 11794 
1 6279 14370 
2 14369 14370 
2 9845 9846 
1 2982 14368 
2 14368 14369 
2 9137 9138 
1 9138 19336 
2 19336 19337 
2 19337 19338 
2 9136 9137 
1 9136 13639 
2 12620 12621 
2 8425 8426 
1 8425 12621 
2 12619 12620 
2 8426 8427 
2 8998 8999 
2 13799 13800 
2 8681 8682 
2 8680 8681 
1 8680 8998 
2 9245 9246 
2 4883 4884 
1 4884 9246 
2 9244 9245 
2 4882 4883 
2 14056 14057 
2 13798 13799 
1 13798 14056 
2 14057 14058 
2 5669 5670 
2 5668 5669 
1 5668 20440 
2 20440 20441 
2 20441 20442 
1 5670 19591 
1 18774 20442 
2 15011 15012 
2 17441 17442 
2 17440 17441 
1 17440 18409 
2 18409 18410 
2 1109 1110 
1 13266 15010 
2 15010 15011 
1 1110 9286 
2 9286 9287 
2 18410 18411 
2 9287 9288 
1 6717 20196 
2 6320 6321 
1 6321 13125 
2 6319 6320 
2 1753 1754 
1 1753 6319 
1 1755 5869 
2 1754 1755 
2 13961 13962 
1 3183 13962 
2 3182 3183 
2 3181 3182 
2 1531 1532 
1 1531 3181 
2 1532 1533 
1 1533 20469 
2 2980 2981 
1 2980 13614 
2 2981 2982 
2 8588 8589 
1 8589 15204 
3 15203 15204 
1 4203 7881 
2 4202 4203 
3 19457 19458 
2 4201 4202 
1 4201 13332 
2 13331 13332 
3 19456 19457 
1 3030 19456 
2 3029 3030 
2 3028 3029 
1 3028 5566 
2 5566 5567 
2 5567 5568 
2 9685 9686 
1 9687 17482 
2 17482 17483 
2 17483 17484 
2 9686 9687 
2 18773 18774 
2 18772 18773 
1 9918 18772 
2 10376 10377 
2 7198 7199 
1 7198 18411 
2 9917 9918 
2 6716 6717 
1 10377 17091 
2 6715 6716 
1 6715 17089 
2 17089 17090 
2 17090 17091 
2 13123 13124 
2 13124 13125 
2 11468 11469 
2 11467 11468 
1 11467 16881 
2 8825 8826 
2 4259 4260 
2 4258 4259 
3 20467 20468 
3 15202 15203 
1 2043 18441 
2 6404 6405 
2 8174 8175 
2 18440 18441 
2 18439 18440 
2 6403 6404 
1 6403 18439 
1 6405 17538 
2 10375 10376 
2 2074 2075 
1 2074 10375 
2 10943 10944 
2 10942 10943 
1 10942 18130 
2 2075 2076 
2 18026 18027 
2 20791 20792 
2 4034 4035 
1 4035 20791 
1 21036 21271 
2 4033 4034 
1 4033 18027 
2 21271 21272 
2 21272 21273 
2 21035 21036 
2 20764 20765 
1 20764 21273 
2 20792 20793 
2 17522 17523 
2 17521 17522 
1 12279 17521 
2 12278 12279 
2 7759 7760 
1 7759 8752 
2 8752 8753 
1 7761 8365 
2 7760 7761 
2 8365 8366 
2 8366 8367 
1 8367 10650 
2 12277 12278 
3 10649 10650 
3 10648 10649 
2 8173 8174 
2 18131 18132 
1 6246 18132 
3 6245 6246 
2 18130 18131 
2 1573 1574 
1 1573 9186 
2 8159 8160 
1 8160 12126 
2 18284 18285 
1 123 8158 
2 121 122 
1 121 18135 
2 8158 8159 
2 122 123 
2 9184 9185 
1 9184 18283 
2 18283 18284 
2 9185 9186 
3 6244 6245 
1 6244 21049 
2 21049 21050 
2 21050 21051 
3 12730 12731 
1 12730 21051 
3 9689 9690 
2 4844 4845 
2 4843 4844 
3 9688 9689 
2 7585 7586 
1 7585 10588 
2 10589 10590 
1 3624 6655 
2 10588 10589 
2 3623 3624 
2 7586 7587 
2 8396 8397 
2 10139 10140 
2 21361 21362 
1 10140 21361 
2 10138 10139 
1 9690 10138 
2 21362 21363 
2 15628 15629 
1 15628 18159 
2 18157 18158 
1 18157 20779 
3 20779 20780 
2 18158 18159 
3 20780 20781 
2 5119 5120 
2 20075 20076 
2 6655 6656 
2 8395 8396 
2 6656 6657 
1 6657 8395 
2 3107 3108 
2 1618 1619 
1 1618 3108 
2 1619 1620 
2 1504 1505 
1 1504 1620 
1 8397 15913 
2 15913 15914 
2 15914 15915 
2 4637 4638 
2 4636 4637 
1 4636 15915 
2 11434 11435 
1 11434 21363 
2 6277 6278 
2 11435 11436 
1 11436 15201 
2 15200 15201 
3 14179 14180 
3 14180 14181 
2 19592 19593 
2 15785 15786 
2 19532 19533 
2 19531 19532 
1 19531 19593 
1 19533 20283 
2 2939 2940 
2 2938 2939 
1 2938 15784 
2 15784 15785 
2 7940 7941 
2 7939 7940 
1 7941 15786 
2 2297 2298 
2 2645 2646 
2 6533 6534 
2 2296 2297 
1 2296 6534 
2 1505 1506 
1 1506 2211 
1 2646 13182 
1 6066 14089 
2 14090 14091 
2 14089 14090 
2 2210 2211 
2 2209 2210 
1 2209 4776 
2 2098 2099 
1 2098 4638 
2 13511 13512 
2 2099 2100 
1 2100 13510 
2 13510 13511 
2 3656 3657 
1 13512 17442 
2 6278 6279 
2 17663 17664 
2 11794 11795 
2 11795 11796 
1 11796 17662 
2 17662 17663 
2 15199 15200 
1 4848 15393 
2 4847 4848 
2 4846 4847 
1 4846 14307 
2 14306 14307 
2 13199 13200 
2 13198 13199 
2 13555 13556 
1 2952 9244 
3 20281 20282 
3 2950 2951 
3 2951 2952 
3 20282 20283 
2 13180 13181 
1 9924 13180 
2 9923 9924 
2 13181 13182 
2 9922 9923 
1 9922 14829 
2 13861 13862 
2 3655 3656 
1 3655 13861 
1 9054 9288 
2 4775 4776 
2 4774 4775 
1 4774 7114 
2 7114 7115 
2 7115 7116 
1 2790 3657 
2 2789 2790 
2 2788 2789 
1 2788 8298 
2 8297 8298 
2 5869 5870 
2 15106 15107 
1 15106 20046 
2 14027 14028 
2 14026 14027 
2 8296 8297 
2 1174 1175 
1 1174 17664 
2 4120 4121 
1 4120 8296 
2 4121 4122 
2 3832 3833 
1 3832 4122 
2 11506 11507 
2 15391 15392 
2 8587 8588 
1 8587 15391 
2 15392 15393 
2 3833 3834 
1 3834 6448 
3 6448 6449 
3 6449 6450 
1 6450 14122 
2 15476 15477 
2 15475 15476 
2 13330 13331 
1 11304 13330 
2 11302 11303 
2 11303 11304 
2 16049 16050 
2 2041 2042 
2 16048 16049 
1 4161 16048 
2 4160 4161 
2 4159 4160 
1 4159 17484 
2 8573 8574 
2 8572 8573 
1 138 8572 
2 14828 14829 
2 12916 12917 
2 137 138 
2 9053 9054 
2 14827 14828 
1 14827 21102 
2 20044 20045 
2 20045 20046 
2 5870 5871 
1 5871 9052 
2 9052 9053 
2 21101 21102 
2 21100 21101 
1 9597 21100 
2 8824 8825 
2 17450 17451 
2 17449 17450 
2 5260 5261 
1 5260 6706 
2 6706 6707 
2 6707 6708 
2 5261 5262 
1 4260 18817 
1 17451 18331 
2 18331 18332 
2 18332 18333 
2 4300 4301 
1 4300 18819 
2 18818 18819 
2 18817 18818 
2 14122 14123 
2 4301 4302 
2 14123 14124 
2 2042 2043 
2 5626 5627 
2 12917 12918 
1 7050 12918 
1 2076 7048 
2 7049 7050 
2 7048 7049 
1 4023 7419 
2 7418 7419 
2 9596 9597 
2 20765 20766 
1 5262 20793 
1 6708 9595 
2 9595 9596 
2 4021 4022 
1 4021 20766 
2 4022 4023 
2 8939 8940 
2 8006 8007 
2 8005 8006 
1 1071 8005 
1 8007 8754 
2 8753 8754 
1 4302 13413 
2 13412 13413 
2 5627 5628 
2 7427 7428 
2 16765 16766 
1 16765 18285 
3 8135 8136 
3 8134 8135 
1 8134 18133 
2 18133 18134 
2 18134 18135 
2 16766 16767 
3 1070 1071 
3 1069 1070 
3 12731 12732 
2 7426 7427 
1 7426 12732 
1 15096 16968 
3 15095 15096 
3 15094 15095 
2 3622 3623 
1 3622 15094 
2 16967 16968 
2 16966 16967 
3 14326 14327 
1 14328 16966 
2 9193 9194 
1 1131 14326 
2 9194 9195 
1 9195 20482 
2 20482 20483 
3 14327 14328 
3 1130 1131 
2 7003 7004 
1 7003 20781 
2 3014 3015 
2 3013 3014 
1 3013 11917 
2 11918 11919 
2 11917 11918 
2 11156 11157 
2 5386 5387 
1 5386 21046 
2 21046 21047 
2 21047 21048 
2 20483 20484 
2 19322 19323 
1 5046 11157 
3 1129 1130 
1 1129 17443 
2 5387 5388 
2 17444 17445 
2 17443 17444 
1 9027 17445 
3 5585 5586 
3 15827 15828 
2 7004 7005 
3 5584 5585 
1 5584 7005 
1 5586 15828 
2 7679 7680 
1 7680 21097 
2 6532 6533 
1 6532 21099 
2 21098 21099 
2 21097 21098 
2 17545 17546 
1 17545 19581 
2 17546 17547 
2 14938 14939 
2 14939 14940 
1 14940 20484 
1 13863 14938 
2 7678 7679 
1 7678 11881 
2 19580 19581 
2 19579 19580 
2 8506 8507 
1 8506 11155 
2 11155 11156 
1 8508 19579 
2 8507 8508 
2 20513 20514 
2 20512 20513 
2 19321 19322 
1 19321 20512 
1 1701 4656 
2 1699 1700 
1 1699 2614 
2 4655 4656 
2 15661 15662 
1 15661 20514 
2 15662 15663 
2 12361 12362 
1 12361 15663 
2 18779 18780 
2 9026 9027 
2 9025 9026 
1 9025 13887 
2 12362 12363 
2 4654 4655 
1 4654 5848 
2 5848 5849 
2 5849 5850 
2 13886 13887 
2 14305 14306 
2 13885 13886 
1 243 13885 
2 242 243 
2 241 242 
1 241 13408 
2 13408 13409 
2 13409 13410 
3 14975 14976 
3 14974 14975 
1 14974 20281 
1 13557 14976 
2 13556 13557 
3 15826 15827 
1 6942 15826 
3 5656 5657 
1 5656 16050 
3 5657 5658 
2 8804 8805 
1 4455 8803 
2 8803 8804 
1 8574 10137 
2 4108 4109 
1 4108 10135 
2 10135 10136 
2 10136 10137 
2 4109 4110 
2 4454 4455 
2 4453 4454 
1 4453 6940 
2 13862 13863 
2 2614 2615 
1 2616 4941 
2 15487 15488 
1 1461 15487 
2 2615 2616 
2 1459 1460 
1 1459 4110 
2 1460 1461 
1 5706 7116 
2 5705 5706 
2 15107 15108 
1 2379 15108 
2 1700 1701 
2 2378 2379 
2 2377 2378 
1 2377 8644 
1 14028 18780 
2 11507 11508 
1 1176 11508 
2 460 461 
1 460 1366 
2 1175 1176 
2 18778 18779 
1 462 18778 
2 461 462 
1 1005 19110 
2 19109 19110 
2 19108 19109 
2 19240 19241 
1 912 19240 
2 19241 19242 
1 7512 21150 
2 5704 5705 
1 5704 19242 
2 7511 7512 
2 136 137 
1 136 21156 
2 21154 21155 
2 7510 7511 
1 7510 21154 
2 21155 21156 
3 8645 8646 
3 8644 8645 
2 2545 2546 
2 2546 2547 
2 14452 14453 
2 14453 14454 
2 4580 4581 
2 4579 4580 
1 4579 20608 
2 20608 20609 
2 20609 20610 
2 15241 15242 
1 3291 20610 
1 17994 18874 
2 8938 8939 
2 17993 17994 
2 17992 17993 
2 7417 7418 
1 7417 17992 
3 18874 18875 
2 13411 13412 
1 8136 15243 
2 15242 15243 
2 15484 15485 
1 7854 15486 
2 15485 15486 
1 2280 15484 
2 2279 2280 
3 7853 7854 
3 7852 7853 
1 7852 15378 
2 10306 10307 
2 10307 10308 
2 8020 8021 
2 4939 4940 
1 4939 8020 
2 8021 8022 
1 8490 10306 
2 5044 5045 
1 5044 10308 
2 4940 4941 
2 5045 5046 
2 15377 15378 
2 15376 15377 
1 15376 21505 
2 21505 21506 
2 21506 21507 
2 9940 9941 
1 9940 21507 
2 8489 8490 
2 21149 21150 
2 8488 8489 
1 8488 21148 
2 21148 21149 
2 9941 9942 
2 1366 1367 
3 1003 1004 
1 1003 13410 
3 1004 1005 
3 7478 7479 
3 7477 7478 
1 7477 8646 
3 20855 20856 
2 19865 19866 
1 19866 20856 
2 19864 19865 
2 1367 1368 
1 1368 19864 
3 20854 20855 
3 649 650 
1 649 8022 
3 650 651 
2 16396 16397 
2 7711 7712 
1 7711 17547 
1 7713 16396 
2 7712 7713 
2 2278 2279 
1 2278 11883 
2 11882 11883 
2 11881 11882 
2 6941 6942 
2 6940 6941 
2 15488 15489 
2 18485 18486 
2 18484 18485 
1 12264 18484 
2 910 911 
1 910 17578 
3 17578 17579 
2 911 912 
2 3619 3620 
1 3619 12282 
2 3620 3621 
1 3621 8805 
2 12281 12282 
2 12280 12281 
1 12280 14460 
3 17579 17580 
2 3290 3291 
2 3289 3290 
2 20717 20718 
2 20716 20717 
1 18876 20718 
3 18875 18876 
2 16397 16398 
3 14902 14903 
1 14902 16398 
3 14903 14904 
2 14360 14361 
2 14359 14360 
3 12263 12264 
3 12262 12263 
1 12262 14361 
2 14458 14459 
2 14459 14460 
