ITEM: TIMESTEP
0
ITEM: NUMBER OF ATOMS
7173
ITEM: BOX BOUNDS pp pp pp
0.0000000000000000e+00 5.0000000000000000e+01
0.0000000000000000e+00 5.0000000000000000e+01
0.0000000000000000e+00 5.0000000000000000e+01
ITEM: ATOMS id type 
1 1 
2 3 
3 1 
10 1 
11 2 
12 1 
16 1 
17 2 
18 1 
22 1 
23 3 
24 1 
64 1 
65 3 
66 1 
67 1 
68 2 
69 1 
73 1 
74 3 
75 1 
79 1 
80 3 
81 1 
124 1 
125 2 
126 1 
127 1 
128 3 
129 1 
130 1 
131 2 
132 1 
196 1 
197 2 
198 1 
202 1 
203 3 
204 1 
244 1 
245 2 
246 1 
250 1 
251 3 
252 1 
256 1 
257 2 
258 1 
262 1 
263 2 
264 1 
301 1 
302 3 
303 1 
328 1 
329 3 
330 1 
364 1 
365 3 
366 1 
373 1 
374 3 
375 1 
376 1 
377 2 
378 1 
379 1 
380 2 
381 1 
388 1 
389 2 
390 1 
421 1 
422 3 
423 1 
436 1 
437 3 
438 1 
448 1 
449 2 
450 1 
490 1 
491 2 
492 1 
505 1 
506 3 
507 1 
1141 1 
1142 2 
1143 1 
1147 1 
1148 3 
1149 1 
1153 1 
1154 3 
1155 1 
1159 1 
1160 3 
1161 1 
1168 1 
1169 2 
1170 1 
1207 1 
1208 2 
1209 1 
1210 1 
1211 3 
1212 1 
1219 1 
1220 2 
1221 1 
1327 1 
1328 3 
1329 1 
1330 1 
1331 2 
1332 1 
1333 1 
1334 3 
1335 1 
1339 1 
1340 2 
1341 1 
1342 1 
1343 2 
1344 1 
1345 1 
1346 3 
1347 1 
1381 1 
1382 2 
1383 1 
1402 1 
1403 3 
1404 1 
1456 1 
1457 3 
1458 1 
1462 1 
1463 2 
1464 1 
1468 1 
1469 2 
1470 1 
1567 1 
1568 2 
1569 1 
1570 1 
1571 2 
1572 1 
1588 1 
1589 2 
1590 1 
1639 1 
1640 2 
1641 1 
1648 1 
1649 2 
1650 1 
2221 1 
2222 3 
2223 1 
2224 1 
2225 3 
2226 1 
2230 1 
2231 3 
2232 1 
2242 1 
2243 3 
2244 1 
2284 1 
2285 2 
2286 1 
2287 1 
2288 2 
2289 1 
2290 1 
2291 3 
2292 1 
2293 1 
2294 2 
2295 1 
2305 1 
2306 3 
2307 1 
2308 1 
2309 2 
2310 1 
2350 1 
2351 2 
2352 1 
2359 1 
2360 3 
2361 1 
2362 1 
2363 3 
2364 1 
2410 1 
2411 2 
2412 1 
2422 1 
2423 3 
2424 1 
2428 1 
2429 2 
2430 1 
2467 1 
2468 3 
2469 1 
2470 1 
2471 3 
2472 1 
2473 1 
2474 2 
2475 1 
2527 1 
2528 2 
2529 1 
2536 1 
2537 3 
2538 1 
2539 1 
2540 2 
2541 1 
2548 1 
2549 2 
2550 1 
2608 1 
2609 2 
2610 1 
3313 1 
3314 2 
3315 1 
3319 1 
3320 2 
3321 1 
3322 1 
3323 3 
3324 1 
3325 1 
3326 3 
3327 1 
3373 1 
3374 3 
3375 1 
3385 1 
3386 2 
3387 1 
3388 1 
3389 3 
3390 1 
3421 1 
3422 2 
3423 1 
3430 1 
3431 3 
3432 1 
3433 1 
3434 3 
3435 1 
3439 1 
3440 3 
3441 1 
3481 1 
3482 2 
3483 1 
3487 1 
3488 3 
3489 1 
3493 1 
3494 3 
3495 1 
3550 1 
3551 2 
3552 1 
3553 1 
3554 2 
3555 1 
3556 1 
3557 3 
3558 1 
3562 1 
3563 3 
3564 1 
3568 1 
3569 2 
3570 1 
3604 1 
3605 2 
3606 1 
3607 1 
3608 3 
3609 1 
3613 1 
3614 2 
3615 1 
3616 1 
3617 2 
3618 1 
3625 1 
3626 3 
3627 1 
3661 1 
3662 3 
3663 1 
3664 1 
3665 2 
3666 1 
3670 1 
3671 3 
3672 1 
3679 1 
3680 2 
3681 1 
3688 1 
3689 3 
3690 1 
3727 1 
3728 2 
3729 1 
4324 1 
4325 3 
4326 1 
4327 1 
4328 2 
4329 1 
4330 1 
4331 2 
4332 1 
4333 1 
4334 3 
4335 1 
4336 1 
4337 2 
4338 1 
4339 1 
4340 2 
4341 1 
4345 1 
4346 2 
4347 1 
4381 1 
4382 3 
4383 1 
4384 1 
4385 2 
4386 1 
4393 1 
4394 3 
4395 1 
4402 1 
4403 2 
4404 1 
4405 1 
4406 2 
4407 1 
4450 1 
4451 3 
4452 1 
4456 1 
4457 2 
4458 1 
4459 1 
4460 3 
4461 1 
4462 1 
4463 2 
4464 1 
4465 1 
4466 3 
4467 1 
4501 1 
4502 3 
4503 1 
4507 1 
4508 3 
4509 1 
4519 1 
4520 3 
4521 1 
4567 1 
4568 2 
4569 1 
4573 1 
4574 2 
4575 1 
4576 1 
4577 2 
4578 1 
4588 1 
4589 2 
4590 1 
4624 1 
4625 2 
4626 1 
4627 1 
4628 2 
4629 1 
4648 1 
4649 2 
4650 1 
4687 1 
4688 2 
4689 1 
4690 1 
4691 2 
4692 1 
4699 1 
4700 3 
4701 1 
4702 1 
4703 2 
4704 1 
4756 1 
4757 2 
4758 1 
4762 1 
4763 2 
4764 1 
4765 1 
4766 3 
4767 1 
4768 1 
4769 2 
4770 1 
4801 1 
4802 2 
4803 1 
4807 1 
4808 2 
4809 1 
4813 1 
4814 3 
4815 1 
4819 1 
4820 3 
4821 1 
4825 1 
4826 3 
4827 1 
4861 1 
4862 3 
4863 1 
4864 1 
4865 2 
4866 1 
4870 1 
4871 2 
4872 1 
4885 1 
4886 3 
4887 1 
5467 1 
5468 2 
5469 1 
5473 1 
5474 2 
5475 1 
5476 1 
5477 2 
5478 1 
5488 1 
5489 2 
5490 1 
5521 1 
5522 2 
5523 1 
5527 1 
5528 2 
5529 1 
5533 1 
5534 3 
5535 1 
5536 1 
5537 2 
5538 1 
5542 1 
5543 3 
5544 1 
5602 1 
5603 3 
5604 1 
5644 1 
5645 3 
5646 1 
5647 1 
5648 3 
5649 1 
5650 1 
5651 3 
5652 1 
5665 1 
5666 3 
5667 1 
5701 1 
5702 2 
5703 1 
5710 1 
5711 3 
5712 1 
5713 1 
5714 3 
5715 1 
5716 1 
5717 2 
5718 1 
5761 1 
5762 3 
5763 1 
5764 1 
5765 2 
5766 1 
5770 1 
5771 2 
5772 1 
5830 1 
5831 3 
5832 1 
5833 1 
5834 2 
5835 1 
5839 1 
5840 2 
5841 1 
5893 1 
5894 2 
5895 1 
5896 1 
5897 2 
5898 1 
5899 1 
5900 3 
5901 1 
5902 1 
5903 3 
5904 1 
5905 1 
5906 2 
5907 1 
5908 1 
5909 2 
5910 1 
5950 1 
5951 3 
5952 1 
5953 1 
5954 3 
5955 1 
5962 1 
5963 2 
5964 1 
5968 1 
5969 3 
5970 1 
6007 1 
6008 3 
6009 1 
6010 1 
6011 3 
6012 1 
6013 1 
6014 2 
6015 1 
6016 1 
6017 3 
6018 1 
6028 1 
6029 3 
6030 1 
6661 1 
6662 2 
6663 1 
6679 1 
6680 2 
6681 1 
6688 1 
6689 3 
6690 1 
6733 1 
6734 2 
6735 1 
6745 1 
6746 2 
6747 1 
6748 1 
6749 2 
6750 1 
6784 1 
6785 3 
6786 1 
6787 1 
6788 2 
6789 1 
6793 1 
6794 2 
6795 1 
6808 1 
6809 3 
6810 1 
6844 1 
6845 3 
6846 1 
6850 1 
6851 3 
6852 1 
6868 1 
6869 2 
6870 1 
6907 1 
6908 2 
6909 1 
6913 1 
6914 2 
6915 1 
6916 1 
6917 2 
6918 1 
6964 1 
6965 3 
6966 1 
6973 1 
6974 2 
6975 1 
6985 1 
6986 3 
6987 1 
6988 1 
6989 2 
6990 1 
7030 1 
7031 2 
7032 1 
7039 1 
7040 3 
7041 1 
7042 1 
7043 3 
7044 1 
7045 1 
7046 3 
7047 1 
7081 1 
7082 3 
7083 1 
7090 1 
7091 2 
7092 1 
7093 1 
7094 2 
7095 1 
7108 1 
7109 3 
7110 1 
7147 1 
7148 3 
7149 1 
7153 1 
7154 3 
7155 1 
7156 1 
7157 2 
7158 1 
7159 1 
7160 3 
7161 1 
7162 1 
7163 3 
7164 1 
7165 1 
7166 3 
7167 1 
7210 1 
7211 3 
7212 1 
7216 1 
7217 2 
7218 1 
7222 1 
7223 2 
7224 1 
7744 1 
7745 2 
7746 1 
7750 1 
7751 2 
7752 1 
7753 1 
7754 3 
7755 1 
7807 1 
7808 3 
7809 1 
7813 1 
7814 3 
7815 1 
7861 1 
7862 3 
7863 1 
7870 1 
7871 3 
7872 1 
7873 1 
7874 2 
7875 1 
7876 1 
7877 2 
7878 1 
7921 1 
7922 2 
7923 1 
7942 1 
7943 2 
7944 1 
7948 1 
7949 3 
7950 1 
7987 1 
7988 3 
7989 1 
7990 1 
7991 3 
7992 1 
8002 1 
8003 2 
8004 1 
8056 1 
8057 3 
8058 1 
8059 1 
8060 2 
8061 1 
8068 1 
8069 3 
8070 1 
8101 1 
8102 3 
8103 1 
8104 1 
8105 3 
8106 1 
8113 1 
8114 2 
8115 1 
8167 1 
8168 2 
8169 1 
8182 1 
8183 2 
8184 1 
8188 1 
8189 3 
8190 1 
8227 1 
8228 3 
8229 1 
8236 1 
8237 2 
8238 1 
8281 1 
8282 3 
8283 1 
8287 1 
8288 2 
8289 1 
8299 1 
8300 3 
8301 1 
8302 1 
8303 2 
8304 1 
8884 1 
8885 3 
8886 1 
8896 1 
8897 2 
8898 1 
8941 1 
8942 3 
8943 1 
8956 1 
8957 2 
8958 1 
8962 1 
8963 3 
8964 1 
8965 1 
8966 2 
8967 1 
8968 1 
8969 3 
8970 1 
9001 1 
9002 3 
9003 1 
9004 1 
9005 2 
9006 1 
9007 1 
9008 2 
9009 1 
9013 1 
9014 3 
9015 1 
9019 1 
9020 3 
9021 1 
9022 1 
9023 2 
9024 1 
9028 1 
9029 3 
9030 1 
9067 1 
9068 3 
9069 1 
9070 1 
9071 2 
9072 1 
9073 1 
9074 2 
9075 1 
9079 1 
9080 3 
9081 1 
9082 1 
9083 2 
9084 1 
9121 1 
9122 2 
9123 1 
9124 1 
9125 3 
9126 1 
9133 1 
9134 3 
9135 1 
9142 1 
9143 2 
9144 1 
9145 1 
9146 3 
9147 1 
9181 1 
9182 2 
9183 1 
9190 1 
9191 3 
9192 1 
9196 1 
9197 2 
9198 1 
9208 1 
9209 3 
9210 1 
9241 1 
9242 2 
9243 1 
9256 1 
9257 3 
9258 1 
9259 1 
9260 3 
9261 1 
9262 1 
9263 3 
9264 1 
9265 1 
9266 3 
9267 1 
9301 1 
9302 3 
9303 1 
9310 1 
9311 2 
9312 1 
9322 1 
9323 2 
9324 1 
9970 1 
9971 2 
9972 1 
9973 1 
9974 3 
9975 1 
9985 1 
9986 3 
9987 1 
10024 1 
10025 3 
10026 1 
10027 1 
10028 3 
10029 1 
10030 1 
10031 3 
10032 1 
10042 1 
10043 3 
10044 1 
10081 1 
10082 3 
10083 1 
10090 1 
10091 3 
10092 1 
10093 1 
10094 3 
10095 1 
10099 1 
10100 2 
10101 1 
10102 1 
10103 3 
10104 1 
10144 1 
10145 2 
10146 1 
10153 1 
10154 2 
10155 1 
10156 1 
10157 3 
10158 1 
10168 1 
10169 2 
10170 1 
10204 1 
10205 2 
10206 1 
10225 1 
10226 3 
10227 1 
10228 1 
10229 2 
10230 1 
10264 1 
10265 2 
10266 1 
10267 1 
10268 2 
10269 1 
10288 1 
10289 3 
10290 1 
10327 1 
10328 3 
10329 1 
10330 1 
10331 2 
10332 1 
10339 1 
10340 3 
10341 1 
10348 1 
10349 3 
10350 1 
10390 1 
10391 3 
10392 1 
10393 1 
10394 3 
10395 1 
10399 1 
10400 2 
10401 1 
10441 1 
10442 2 
10443 1 
10510 1 
10511 2 
10512 1 
10513 1 
10514 2 
10515 1 
11116 1 
11117 3 
11118 1 
11161 1 
11162 3 
11163 1 
11170 1 
11171 3 
11172 1 
11224 1 
11225 2 
11226 1 
11236 1 
11237 3 
11238 1 
11248 1 
11249 2 
11250 1 
11281 1 
11282 2 
11283 1 
11290 1 
11291 2 
11292 1 
11299 1 
11300 3 
11301 1 
11344 1 
11345 2 
11346 1 
11356 1 
11357 3 
11358 1 
11359 1 
11360 3 
11361 1 
11401 1 
11402 2 
11403 1 
11404 1 
11405 3 
11406 1 
11419 1 
11420 3 
11421 1 
11422 1 
11423 2 
11424 1 
11470 1 
11471 3 
11472 1 
11473 1 
11474 3 
11475 1 
11482 1 
11483 3 
11484 1 
11485 1 
11486 2 
11487 1 
12070 1 
12071 2 
12072 1 
12073 1 
12074 3 
12075 1 
12076 1 
12077 3 
12078 1 
12082 1 
12083 2 
12084 1 
12085 1 
12086 2 
12087 1 
12088 1 
12089 2 
12090 1 
12133 1 
12134 3 
12135 1 
12139 1 
12140 2 
12141 1 
12142 1 
12143 3 
12144 1 
12148 1 
12149 2 
12150 1 
12184 1 
12185 2 
12186 1 
12187 1 
12188 2 
12189 1 
12190 1 
12191 2 
12192 1 
12193 1 
12194 3 
12195 1 
12196 1 
12197 3 
12198 1 
12205 1 
12206 3 
12207 1 
12247 1 
12248 3 
12249 1 
12253 1 
12254 3 
12255 1 
12259 1 
12260 3 
12261 1 
12268 1 
12269 3 
12270 1 
12301 1 
12302 2 
12303 1 
12304 1 
12305 3 
12306 1 
12310 1 
12311 2 
12312 1 
12367 1 
12368 2 
12369 1 
12370 1 
12371 3 
12372 1 
12373 1 
12374 3 
12375 1 
12382 1 
12383 3 
12384 1 
12421 1 
12422 3 
12423 1 
12424 1 
12425 3 
12426 1 
12427 1 
12428 3 
12429 1 
12430 1 
12431 3 
12432 1 
12436 1 
12437 2 
12438 1 
12442 1 
12443 2 
12444 1 
12448 1 
12449 3 
12450 1 
12484 1 
12485 2 
12486 1 
12493 1 
12494 3 
12495 1 
12505 1 
12506 2 
12507 1 
12556 1 
12557 3 
12558 1 
12559 1 
12560 3 
12561 1 
12568 1 
12569 2 
12570 1 
12604 1 
12605 3 
12606 1 
12607 1 
12608 3 
12609 1 
12625 1 
12626 3 
12627 1 
13153 1 
13154 2 
13155 1 
13156 1 
13157 3 
13158 1 
13201 1 
13202 3 
13203 1 
13213 1 
13214 3 
13215 1 
13270 1 
13271 2 
13272 1 
13321 1 
13322 2 
13323 1 
13336 1 
13337 2 
13338 1 
13345 1 
13346 2 
13347 1 
13393 1 
13394 3 
13395 1 
13399 1 
13400 3 
13401 1 
13402 1 
13403 3 
13404 1 
13405 1 
13406 2 
13407 1 
13462 1 
13463 3 
13464 1 
13468 1 
13469 2 
13470 1 
13513 1 
13514 3 
13515 1 
13570 1 
13571 3 
13572 1 
13576 1 
13577 2 
13578 1 
13579 1 
13580 2 
13581 1 
13588 1 
13589 3 
13590 1 
14224 1 
14225 3 
14226 1 
14227 1 
14228 3 
14229 1 
14236 1 
14237 2 
14238 1 
14239 1 
14240 3 
14241 1 
14245 1 
14246 2 
14247 1 
14293 1 
14294 3 
14295 1 
14341 1 
14342 2 
14343 1 
14350 1 
14351 3 
14352 1 
14401 1 
14402 3 
14403 1 
14416 1 
14417 2 
14418 1 
14422 1 
14423 2 
14424 1 
14464 1 
14465 3 
14466 1 
14470 1 
14471 3 
14472 1 
14485 1 
14486 2 
14487 1 
14488 1 
14489 2 
14490 1 
14530 1 
14531 3 
14532 1 
14587 1 
14588 2 
14589 1 
14641 1 
14642 3 
14643 1 
14644 1 
14645 2 
14646 1 
14653 1 
14654 3 
14655 1 
14659 1 
14660 2 
14661 1 
15316 1 
15317 2 
15318 1 
15379 1 
15380 2 
15381 1 
15424 1 
15425 2 
15426 1 
15427 1 
15428 2 
15429 1 
15439 1 
15440 3 
15441 1 
15442 1 
15443 2 
15444 1 
15445 1 
15446 2 
15447 1 
15499 1 
15500 2 
15501 1 
15505 1 
15506 2 
15507 1 
15541 1 
15542 2 
15543 1 
15556 1 
15557 3 
15558 1 
15565 1 
15566 3 
15567 1 
15664 1 
15665 2 
15666 1 
15679 1 
15680 3 
15681 1 
15688 1 
15689 3 
15690 1 
15733 1 
15734 3 
15735 1 
15736 1 
15737 3 
15738 1 
16333 1 
16334 3 
16335 1 
16342 1 
16343 2 
16344 1 
16387 1 
16388 2 
16389 1 
16399 1 
16400 2 
16401 1 
16444 1 
16445 2 
16446 1 
16447 1 
16448 2 
16449 1 
16507 1 
16508 2 
16509 1 
16516 1 
16517 3 
16518 1 
16522 1 
16523 2 
16524 1 
16570 1 
16571 2 
16572 1 
16582 1 
16583 2 
16584 1 
16621 1 
16622 3 
16623 1 
16630 1 
16631 3 
16632 1 
16633 1 
16634 3 
16635 1 
16642 1 
16643 3 
16644 1 
16648 1 
16649 3 
16650 1 
16681 1 
16682 3 
16683 1 
16687 1 
16688 2 
16689 1 
16690 1 
16691 2 
16692 1 
16705 1 
16706 3 
16707 1 
17287 1 
17288 3 
17289 1 
17290 1 
17291 2 
17292 1 
17305 1 
17306 2 
17307 1 
17341 1 
17342 3 
17343 1 
17347 1 
17348 3 
17349 1 
17353 1 
17354 3 
17355 1 
17368 1 
17369 2 
17370 1 
17410 1 
17411 2 
17412 1 
17425 1 
17426 3 
17427 1 
17473 1 
17474 2 
17475 1 
17476 1 
17477 3 
17478 1 
17479 1 
17480 2 
17481 1 
17485 1 
17486 3 
17487 1 
17488 1 
17489 2 
17490 1 
17530 1 
17531 2 
17532 1 
17539 1 
17540 2 
17541 1 
17584 1 
17585 3 
17586 1 
17590 1 
17591 3 
17592 1 
17599 1 
17600 2 
17601 1 
17602 1 
17603 2 
17604 1 
17605 1 
17606 3 
17607 1 
17608 1 
17609 3 
17610 1 
17641 1 
17642 2 
17643 1 
17644 1 
17645 3 
17646 1 
17653 1 
17654 3 
17655 1 
17659 1 
17660 2 
17661 1 
17707 1 
17708 2 
17709 1 
17710 1 
17711 3 
17712 1 
17713 1 
17714 3 
17715 1 
17719 1 
17720 2 
17721 1 
17728 1 
17729 2 
17730 1 
17773 1 
17774 3 
17775 1 
17776 1 
17777 3 
17778 1 
17779 1 
17780 3 
17781 1 
17785 1 
17786 3 
17787 1 
18364 1 
18365 3 
18366 1 
18379 1 
18380 2 
18381 1 
18388 1 
18389 2 
18390 1 
18430 1 
18431 3 
18432 1 
18442 1 
18443 3 
18444 1 
18445 1 
18446 2 
18447 1 
18493 1 
18494 3 
18495 1 
18508 1 
18509 3 
18510 1 
18541 1 
18542 2 
18543 1 
18544 1 
18545 3 
18546 1 
18547 1 
18548 2 
18549 1 
18550 1 
18551 2 
18552 1 
18553 1 
18554 3 
18555 1 
18556 1 
18557 2 
18558 1 
18565 1 
18566 2 
18567 1 
18568 1 
18569 3 
18570 1 
18613 1 
18614 3 
18615 1 
18616 1 
18617 3 
18618 1 
18625 1 
18626 2 
18627 1 
18667 1 
18668 3 
18669 1 
18670 1 
18671 3 
18672 1 
18685 1 
18686 3 
18687 1 
18733 1 
18734 3 
18735 1 
18739 1 
18740 3 
18741 1 
18796 1 
18797 2 
18798 1 
18799 1 
18800 3 
18801 1 
18805 1 
18806 3 
18807 1 
18808 1 
18809 2 
18810 1 
18853 1 
18854 3 
18855 1 
18859 1 
18860 2 
18861 1 
19444 1 
19445 3 
19446 1 
19453 1 
19454 3 
19455 1 
19459 1 
19460 3 
19461 1 
19504 1 
19505 3 
19506 1 
19507 1 
19508 3 
19509 1 
19513 1 
19514 2 
19515 1 
19525 1 
19526 2 
19527 1 
19570 1 
19571 2 
19572 1 
19573 1 
19574 2 
19575 1 
19624 1 
19625 2 
19626 1 
19633 1 
19634 3 
19635 1 
19648 1 
19649 2 
19650 1 
19681 1 
19682 3 
19683 1 
19687 1 
19688 3 
19689 1 
19747 1 
19748 3 
19749 1 
19750 1 
19751 3 
19752 1 
19756 1 
19757 2 
19758 1 
19765 1 
19766 3 
19767 1 
19801 1 
19802 2 
19803 1 
19813 1 
19814 2 
19815 1 
19822 1 
19823 2 
19824 1 
19867 1 
19868 3 
19869 1 
19873 1 
19874 2 
19875 1 
19882 1 
19883 2 
19884 1 
19885 1 
19886 3 
19887 1 
20524 1 
20525 3 
20526 1 
20533 1 
20534 2 
20535 1 
20542 1 
20543 2 
20544 1 
20545 1 
20546 3 
20547 1 
20581 1 
20582 3 
20583 1 
20584 1 
20585 3 
20586 1 
20587 1 
20588 3 
20589 1 
20602 1 
20603 3 
20604 1 
20641 1 
20642 2 
20643 1 
20650 1 
20651 2 
20652 1 
20662 1 
20663 3 
20664 1 
20665 1 
20666 2 
20667 1 
20668 1 
20669 2 
20670 1 
20710 1 
20711 2 
20712 1 
20713 1 
20714 3 
20715 1 
20719 1 
20720 3 
20721 1 
20767 1 
20768 2 
20769 1 
20770 1 
20771 3 
20772 1 
20788 1 
20789 2 
20790 1 
20821 1 
20822 2 
20823 1 
20824 1 
20825 2 
20826 1 
20830 1 
20831 2 
20832 1 
20833 1 
20834 2 
20835 1 
20848 1 
20849 3 
20850 1 
20887 1 
20888 2 
20889 1 
20899 1 
20900 3 
20901 1 
20902 1 
20903 3 
20904 1 
20908 1 
20909 3 
20910 1 
20941 1 
20942 2 
20943 1 
20950 1 
20951 3 
20952 1 
20956 1 
20957 2 
20958 1 
21013 1 
21014 3 
21015 1 
21016 1 
21017 3 
21018 1 
21019 1 
21020 2 
21021 1 
34 1 
35 3 
36 1 
37 1 
38 2 
39 1 
46 1 
47 2 
48 1 
49 1 
50 3 
51 1 
55 1 
56 2 
57 1 
97 1 
98 3 
99 1 
100 1 
101 2 
102 1 
109 1 
110 3 
111 1 
151 1 
152 2 
153 1 
166 1 
167 2 
168 1 
175 1 
176 3 
177 1 
178 1 
179 2 
180 1 
220 1 
221 2 
222 1 
223 1 
224 2 
225 1 
226 1 
227 2 
228 1 
229 1 
230 2 
231 1 
232 1 
233 2 
234 1 
274 1 
275 3 
276 1 
292 1 
293 3 
294 1 
295 1 
296 2 
297 1 
334 1 
335 2 
336 1 
343 1 
344 3 
345 1 
352 1 
353 3 
354 1 
355 1 
356 2 
357 1 
394 1 
395 3 
396 1 
397 1 
398 3 
399 1 
400 1 
401 2 
402 1 
406 1 
407 3 
408 1 
409 1 
410 2 
411 1 
457 1 
458 2 
459 1 
463 1 
464 3 
465 1 
475 1 
476 3 
477 1 
478 1 
479 2 
480 1 
511 1 
512 2 
513 1 
514 1 
515 3 
516 1 
523 1 
524 2 
525 1 
529 1 
530 3 
531 1 
538 1 
539 3 
540 1 
1171 1 
1172 3 
1173 1 
1186 1 
1187 3 
1188 1 
1189 1 
1190 3 
1191 1 
1192 1 
1193 3 
1194 1 
1231 1 
1232 3 
1233 1 
1234 1 
1235 3 
1236 1 
1237 1 
1238 2 
1239 1 
1243 1 
1244 2 
1245 1 
1249 1 
1250 2 
1251 1 
1252 1 
1253 2 
1254 1 
1258 1 
1259 2 
1260 1 
1300 1 
1301 2 
1302 1 
1315 1 
1316 2 
1317 1 
1318 1 
1319 3 
1320 1 
1351 1 
1352 3 
1353 1 
1354 1 
1355 2 
1356 1 
1375 1 
1376 2 
1377 1 
1378 1 
1379 3 
1380 1 
1414 1 
1415 3 
1416 1 
1423 1 
1424 2 
1425 1 
1429 1 
1430 3 
1431 1 
1432 1 
1433 2 
1434 1 
1435 1 
1436 3 
1437 1 
1438 1 
1439 2 
1440 1 
1471 1 
1472 3 
1473 1 
1474 1 
1475 3 
1476 1 
1480 1 
1481 3 
1482 1 
1483 1 
1484 3 
1485 1 
1486 1 
1487 2 
1488 1 
1498 1 
1499 3 
1500 1 
1540 1 
1541 2 
1542 1 
1558 1 
1559 3 
1560 1 
1591 1 
1592 2 
1593 1 
1597 1 
1598 3 
1599 1 
1600 1 
1601 3 
1602 1 
1654 1 
1655 3 
1656 1 
1660 1 
1661 2 
1662 1 
1669 1 
1670 2 
1671 1 
2311 1 
2312 3 
2313 1 
2317 1 
2318 3 
2319 1 
2320 1 
2321 3 
2322 1 
2329 1 
2330 3 
2331 1 
2332 1 
2333 2 
2334 1 
2335 1 
2336 3 
2337 1 
2380 1 
2381 2 
2382 1 
2389 1 
2390 2 
2391 1 
2392 1 
2393 3 
2394 1 
2398 1 
2399 2 
2400 1 
2437 1 
2438 2 
2439 1 
2440 1 
2441 3 
2442 1 
2452 1 
2453 2 
2454 1 
2458 1 
2459 2 
2460 1 
2506 1 
2507 3 
2508 1 
2518 1 
2519 3 
2520 1 
2551 1 
2552 3 
2553 1 
2563 1 
2564 2 
2565 1 
2569 1 
2570 3 
2571 1 
2575 1 
2576 2 
2577 1 
2611 1 
2612 2 
2613 1 
2620 1 
2621 2 
2622 1 
2623 1 
2624 3 
2625 1 
3214 1 
3215 3 
3216 1 
3235 1 
3236 3 
3237 1 
3238 1 
3239 3 
3240 1 
3271 1 
3272 2 
3273 1 
3274 1 
3275 3 
3276 1 
3331 1 
3332 3 
3333 1 
3394 1 
3395 3 
3396 1 
3454 1 
3455 2 
3456 1 
3460 1 
3461 3 
3462 1 
3466 1 
3467 2 
3468 1 
3469 1 
3470 3 
3471 1 
3535 1 
3536 3 
3537 1 
3538 1 
3539 3 
3540 1 
3571 1 
3572 3 
3573 1 
3577 1 
3578 3 
3579 1 
3580 1 
3581 2 
3582 1 
3583 1 
3584 3 
3585 1 
3589 1 
3590 2 
3591 1 
3592 1 
3593 2 
3594 1 
3697 1 
3698 2 
3699 1 
3700 1 
3701 3 
3702 1 
3703 1 
3704 3 
3705 1 
3706 1 
3707 2 
3708 1 
3718 1 
3719 2 
3720 1 
3763 1 
3764 2 
3765 1 
3772 1 
3773 3 
3774 1 
3775 1 
3776 2 
3777 1 
4357 1 
4358 3 
4359 1 
4366 1 
4367 3 
4368 1 
4372 1 
4373 3 
4374 1 
4411 1 
4412 3 
4413 1 
4426 1 
4427 3 
4428 1 
4432 1 
4433 2 
4434 1 
4477 1 
4478 2 
4479 1 
4480 1 
4481 2 
4482 1 
4531 1 
4532 3 
4533 1 
4543 1 
4544 2 
4545 1 
4558 1 
4559 3 
4560 1 
4591 1 
4592 3 
4593 1 
4597 1 
4598 2 
4599 1 
4603 1 
4604 2 
4605 1 
4612 1 
4613 3 
4614 1 
4618 1 
4619 2 
4620 1 
4672 1 
4673 2 
4674 1 
4675 1 
4676 2 
4677 1 
4678 1 
4679 3 
4680 1 
4723 1 
4724 2 
4725 1 
4732 1 
4733 3 
4734 1 
4777 1 
4778 2 
4779 1 
4780 1 
4781 3 
4782 1 
4783 1 
4784 3 
4785 1 
4831 1 
4832 3 
4833 1 
4849 1 
4850 2 
4851 1 
4858 1 
4859 3 
4860 1 
4906 1 
4907 3 
4908 1 
4918 1 
4919 3 
4920 1 
5515 1 
5516 2 
5517 1 
5551 1 
5552 2 
5553 1 
5611 1 
5612 3 
5613 1 
5617 1 
5618 2 
5619 1 
5635 1 
5636 2 
5637 1 
5638 1 
5639 2 
5640 1 
5683 1 
5684 3 
5685 1 
5731 1 
5732 2 
5733 1 
5734 1 
5735 3 
5736 1 
5740 1 
5741 2 
5742 1 
5749 1 
5750 3 
5751 1 
5794 1 
5795 3 
5796 1 
5797 1 
5798 2 
5799 1 
5812 1 
5813 2 
5814 1 
5818 1 
5819 2 
5820 1 
5866 1 
5867 3 
5868 1 
5875 1 
5876 2 
5877 1 
5878 1 
5879 3 
5880 1 
5920 1 
5921 3 
5922 1 
5923 1 
5924 3 
5925 1 
5929 1 
5930 2 
5931 1 
5971 1 
5972 3 
5973 1 
5980 1 
5981 3 
5982 1 
5986 1 
5987 3 
5988 1 
5998 1 
5999 3 
6000 1 
6037 1 
6038 3 
6039 1 
6040 1 
6041 3 
6042 1 
6043 1 
6044 3 
6045 1 
6058 1 
6059 2 
6060 1 
6691 1 
6692 2 
6693 1 
6694 1 
6695 3 
6696 1 
6697 1 
6698 2 
6699 1 
6703 1 
6704 3 
6705 1 
6709 1 
6710 3 
6711 1 
6718 1 
6719 3 
6720 1 
6766 1 
6767 3 
6768 1 
6772 1 
6773 2 
6774 1 
6826 1 
6827 3 
6828 1 
6835 1 
6836 2 
6837 1 
6886 1 
6887 2 
6888 1 
6892 1 
6893 2 
6894 1 
6937 1 
6938 2 
6939 1 
6943 1 
6944 3 
6945 1 
7006 1 
7007 3 
7008 1 
7015 1 
7016 2 
7017 1 
7057 1 
7058 2 
7059 1 
7072 1 
7073 2 
7074 1 
7117 1 
7118 3 
7119 1 
7126 1 
7127 3 
7128 1 
7138 1 
7139 3 
7140 1 
7180 1 
7181 2 
7182 1 
7183 1 
7184 3 
7185 1 
7192 1 
7193 2 
7194 1 
7195 1 
7196 3 
7197 1 
7246 1 
7247 3 
7248 1 
7255 1 
7256 2 
7257 1 
7258 1 
7259 3 
7260 1 
7774 1 
7775 2 
7776 1 
7783 1 
7784 2 
7785 1 
7792 1 
7793 2 
7794 1 
7795 1 
7796 2 
7797 1 
7834 1 
7835 3 
7836 1 
7846 1 
7847 2 
7848 1 
7849 1 
7850 2 
7851 1 
7894 1 
7895 3 
7896 1 
7897 1 
7898 3 
7899 1 
7903 1 
7904 3 
7905 1 
7912 1 
7913 3 
7914 1 
7918 1 
7919 3 
7920 1 
7954 1 
7955 3 
7956 1 
7963 1 
7964 3 
7965 1 
8026 1 
8027 3 
8028 1 
8071 1 
8072 2 
8073 1 
8131 1 
8132 3 
8133 1 
8146 1 
8147 3 
8148 1 
8149 1 
8150 3 
8151 1 
8155 1 
8156 3 
8157 1 
8197 1 
8198 2 
8199 1 
8203 1 
8204 3 
8205 1 
8209 1 
8210 2 
8211 1 
8212 1 
8213 2 
8214 1 
8257 1 
8258 3 
8259 1 
8263 1 
8264 2 
8265 1 
8266 1 
8267 3 
8268 1 
8314 1 
8315 2 
8316 1 
8317 1 
8318 2 
8319 1 
8329 1 
8330 2 
8331 1 
8338 1 
8339 3 
8340 1 
8911 1 
8912 3 
8913 1 
8920 1 
8921 3 
8922 1 
8986 1 
8987 3 
8988 1 
8989 1 
8990 3 
8991 1 
9031 1 
9032 2 
9033 1 
9034 1 
9035 3 
9036 1 
9040 1 
9041 2 
9042 1 
9043 1 
9044 2 
9045 1 
9046 1 
9047 3 
9048 1 
9049 1 
9050 2 
9051 1 
9055 1 
9056 2 
9057 1 
9094 1 
9095 2 
9096 1 
9154 1 
9155 3 
9156 1 
9160 1 
9161 2 
9162 1 
9166 1 
9167 2 
9168 1 
9226 1 
9227 3 
9228 1 
9235 1 
9236 2 
9237 1 
9277 1 
9278 2 
9279 1 
9289 1 
9290 2 
9291 1 
9295 1 
9296 2 
9297 1 
9298 1 
9299 2 
9300 1 
9337 1 
9338 3 
9339 1 
9340 1 
9341 3 
9342 1 
9346 1 
9347 3 
9348 1 
9355 1 
9356 2 
9357 1 
9358 1 
9359 3 
9360 1 
10003 1 
10004 3 
10005 1 
10057 1 
10058 2 
10059 1 
10063 1 
10064 3 
10065 1 
10066 1 
10067 3 
10068 1 
10072 1 
10073 2 
10074 1 
10078 1 
10079 2 
10080 1 
10117 1 
10118 2 
10119 1 
10120 1 
10121 3 
10122 1 
10129 1 
10130 2 
10131 1 
10132 1 
10133 3 
10134 1 
10177 1 
10178 2 
10179 1 
10183 1 
10184 2 
10185 1 
10186 1 
10187 2 
10188 1 
10189 1 
10190 2 
10191 1 
10192 1 
10193 3 
10194 1 
10195 1 
10196 3 
10197 1 
10198 1 
10199 3 
10200 1 
10231 1 
10232 2 
10233 1 
10234 1 
10235 3 
10236 1 
10243 1 
10244 2 
10245 1 
10258 1 
10259 3 
10260 1 
10294 1 
10295 3 
10296 1 
10297 1 
10298 3 
10299 1 
10300 1 
10301 3 
10302 1 
10363 1 
10364 3 
10365 1 
10372 1 
10373 2 
10374 1 
10411 1 
10412 2 
10413 1 
10417 1 
10418 2 
10419 1 
10420 1 
10421 2 
10422 1 
10432 1 
10433 2 
10434 1 
10474 1 
10475 3 
10476 1 
10483 1 
10484 3 
10485 1 
10486 1 
10487 3 
10488 1 
10498 1 
10499 3 
10500 1 
10537 1 
10538 2 
10539 1 
10546 1 
10547 2 
10548 1 
10549 1 
10550 3 
10551 1 
10552 1 
10553 2 
10554 1 
11134 1 
11135 2 
11136 1 
11137 1 
11138 3 
11139 1 
11140 1 
11141 2 
11142 1 
11146 1 
11147 2 
11148 1 
11158 1 
11159 3 
11160 1 
11191 1 
11192 3 
11193 1 
11200 1 
11201 3 
11202 1 
11257 1 
11258 3 
11259 1 
11266 1 
11267 2 
11268 1 
11278 1 
11279 2 
11280 1 
11317 1 
11318 2 
11319 1 
11335 1 
11336 3 
11337 1 
11371 1 
11372 2 
11373 1 
11377 1 
11378 3 
11379 1 
11386 1 
11387 3 
11388 1 
11395 1 
11396 2 
11397 1 
11437 1 
11438 3 
11439 1 
11440 1 
11441 3 
11442 1 
11443 1 
11444 2 
11445 1 
11452 1 
11453 3 
11454 1 
11455 1 
11456 2 
11457 1 
11500 1 
11501 2 
11502 1 
11503 1 
11504 3 
11505 1 
12097 1 
12098 2 
12099 1 
12100 1 
12101 3 
12102 1 
12103 1 
12104 3 
12105 1 
12106 1 
12107 2 
12108 1 
12109 1 
12110 3 
12111 1 
12112 1 
12113 3 
12114 1 
12157 1 
12158 3 
12159 1 
12166 1 
12167 2 
12168 1 
12169 1 
12170 3 
12171 1 
12175 1 
12176 3 
12177 1 
12211 1 
12212 2 
12213 1 
12214 1 
12215 2 
12216 1 
12226 1 
12227 2 
12228 1 
12238 1 
12239 3 
12240 1 
12274 1 
12275 3 
12276 1 
12340 1 
12341 2 
12342 1 
12346 1 
12347 3 
12348 1 
12349 1 
12350 2 
12351 1 
12355 1 
12356 2 
12357 1 
12454 1 
12455 3 
12456 1 
12463 1 
12464 3 
12465 1 
12478 1 
12479 3 
12480 1 
12517 1 
12518 2 
12519 1 
12523 1 
12524 3 
12525 1 
12529 1 
12530 3 
12531 1 
12535 1 
12536 3 
12537 1 
12538 1 
12539 2 
12540 1 
12574 1 
12575 2 
12576 1 
12583 1 
12584 3 
12585 1 
12589 1 
12590 3 
12591 1 
12595 1 
12596 2 
12597 1 
12634 1 
12635 3 
12636 1 
12637 1 
12638 2 
12639 1 
12640 1 
12641 3 
12642 1 
12655 1 
12656 3 
12657 1 
12658 1 
12659 2 
12660 1 
13171 1 
13172 3 
13173 1 
13195 1 
13196 2 
13197 1 
13231 1 
13232 3 
13233 1 
13240 1 
13241 2 
13242 1 
13243 1 
13244 2 
13245 1 
13246 1 
13247 3 
13248 1 
13255 1 
13256 3 
13257 1 
13297 1 
13298 2 
13299 1 
13315 1 
13316 3 
13317 1 
13354 1 
13355 2 
13356 1 
13375 1 
13376 3 
13377 1 
13414 1 
13415 3 
13416 1 
13420 1 
13421 2 
13422 1 
13426 1 
13427 2 
13428 1 
13480 1 
13481 3 
13482 1 
13492 1 
13493 3 
13494 1 
13495 1 
13496 3 
13497 1 
13546 1 
13547 3 
13548 1 
13552 1 
13553 2 
13554 1 
13558 1 
13559 3 
13560 1 
13597 1 
13598 3 
13599 1 
13600 1 
13601 3 
13602 1 
13603 1 
13604 3 
13605 1 
14251 1 
14252 3 
14253 1 
14254 1 
14255 3 
14256 1 
14260 1 
14261 3 
14262 1 
14263 1 
14264 3 
14265 1 
14317 1 
14318 2 
14319 1 
14332 1 
14333 3 
14334 1 
14371 1 
14372 3 
14373 1 
14374 1 
14375 2 
14376 1 
14386 1 
14387 2 
14388 1 
14392 1 
14393 3 
14394 1 
14431 1 
14432 3 
14433 1 
14440 1 
14441 2 
14442 1 
14497 1 
14498 2 
14499 1 
14509 1 
14510 3 
14511 1 
14512 1 
14513 2 
14514 1 
14560 1 
14561 3 
14562 1 
14572 1 
14573 2 
14574 1 
14575 1 
14576 3 
14577 1 
14617 1 
14618 2 
14619 1 
14632 1 
14633 3 
14634 1 
14671 1 
14672 2 
14673 1 
14674 1 
14675 3 
14676 1 
14686 1 
14687 3 
14688 1 
14692 1 
14693 3 
14694 1 
14698 1 
14699 3 
14700 1 
15334 1 
15335 2 
15336 1 
15358 1 
15359 2 
15360 1 
15406 1 
15407 2 
15408 1 
15412 1 
15413 3 
15414 1 
15457 1 
15458 2 
15459 1 
15466 1 
15467 2 
15468 1 
15469 1 
15470 3 
15471 1 
15472 1 
15473 2 
15474 1 
15517 1 
15518 2 
15519 1 
15523 1 
15524 3 
15525 1 
15577 1 
15578 3 
15579 1 
15580 1 
15581 3 
15582 1 
15583 1 
15584 3 
15585 1 
15586 1 
15587 3 
15588 1 
15643 1 
15644 2 
15645 1 
15646 1 
15647 3 
15648 1 
15655 1 
15656 2 
15657 1 
15658 1 
15659 2 
15660 1 
15691 1 
15692 3 
15693 1 
15697 1 
15698 3 
15699 1 
15709 1 
15710 3 
15711 1 
15715 1 
15716 3 
15717 1 
15754 1 
15755 3 
15756 1 
15757 1 
15758 3 
15759 1 
16354 1 
16355 2 
16356 1 
16363 1 
16364 2 
16365 1 
16414 1 
16415 3 
16416 1 
16417 1 
16418 3 
16419 1 
16423 1 
16424 2 
16425 1 
16426 1 
16427 2 
16428 1 
16429 1 
16430 3 
16431 1 
16432 1 
16433 3 
16434 1 
16435 1 
16436 3 
16437 1 
16438 1 
16439 2 
16440 1 
16477 1 
16478 2 
16479 1 
16486 1 
16487 3 
16488 1 
16498 1 
16499 2 
16500 1 
16537 1 
16538 3 
16539 1 
16651 1 
16652 3 
16653 1 
16654 1 
16655 2 
16656 1 
16672 1 
16673 2 
16674 1 
16675 1 
16676 3 
16677 1 
16711 1 
16712 2 
16713 1 
16726 1 
16727 2 
16728 1 
16738 1 
16739 3 
16740 1 
17314 1 
17315 2 
17316 1 
17317 1 
17318 2 
17319 1 
17320 1 
17321 3 
17322 1 
17335 1 
17336 2 
17337 1 
17377 1 
17378 2 
17379 1 
17395 1 
17396 3 
17397 1 
17398 1 
17399 2 
17400 1 
17434 1 
17435 2 
17436 1 
17458 1 
17459 2 
17460 1 
17497 1 
17498 3 
17499 1 
17506 1 
17507 3 
17508 1 
17512 1 
17513 3 
17514 1 
17515 1 
17516 3 
17517 1 
17557 1 
17558 3 
17559 1 
17563 1 
17564 2 
17565 1 
17569 1 
17570 3 
17571 1 
17572 1 
17573 2 
17574 1 
17575 1 
17576 3 
17577 1 
17617 1 
17618 3 
17619 1 
17638 1 
17639 2 
17640 1 
17680 1 
17681 2 
17682 1 
17749 1 
17750 3 
17751 1 
17755 1 
17756 3 
17757 1 
17758 1 
17759 3 
17760 1 
17791 1 
17792 2 
17793 1 
17794 1 
17795 2 
17796 1 
17800 1 
17801 2 
17802 1 
17818 1 
17819 3 
17820 1 
18391 1 
18392 3 
18393 1 
18394 1 
18395 3 
18396 1 
18397 1 
18398 2 
18399 1 
18400 1 
18401 3 
18402 1 
18403 1 
18404 2 
18405 1 
18454 1 
18455 3 
18456 1 
18460 1 
18461 3 
18462 1 
18478 1 
18479 2 
18480 1 
18511 1 
18512 2 
18513 1 
18514 1 
18515 3 
18516 1 
18517 1 
18518 3 
18519 1 
18532 1 
18533 2 
18534 1 
18538 1 
18539 3 
18540 1 
18577 1 
18578 2 
18579 1 
18589 1 
18590 2 
18591 1 
18643 1 
18644 2 
18645 1 
18649 1 
18650 3 
18651 1 
18652 1 
18653 3 
18654 1 
18700 1 
18701 2 
18702 1 
18712 1 
18713 3 
18714 1 
18715 1 
18716 2 
18717 1 
18757 1 
18758 3 
18759 1 
18766 1 
18767 2 
18768 1 
18769 1 
18770 2 
18771 1 
18832 1 
18833 2 
18834 1 
18835 1 
18836 2 
18837 1 
18871 1 
18872 3 
18873 1 
18877 1 
18878 3 
18879 1 
18892 1 
18893 2 
18894 1 
18898 1 
18899 3 
18900 1 
19474 1 
19475 3 
19476 1 
19480 1 
19481 3 
19482 1 
19489 1 
19490 3 
19491 1 
19498 1 
19499 3 
19500 1 
19546 1 
19547 3 
19548 1 
19558 1 
19559 3 
19560 1 
19594 1 
19595 3 
19596 1 
19597 1 
19598 3 
19599 1 
19600 1 
19601 2 
19602 1 
19603 1 
19604 2 
19605 1 
19618 1 
19619 2 
19620 1 
19654 1 
19655 2 
19656 1 
19657 1 
19658 2 
19659 1 
19726 1 
19727 2 
19728 1 
19771 1 
19772 2 
19773 1 
19774 1 
19775 3 
19776 1 
19798 1 
19799 3 
19800 1 
19831 1 
19832 3 
19833 1 
19834 1 
19835 2 
19836 1 
19840 1 
19841 3 
19842 1 
19843 1 
19844 3 
19845 1 
19846 1 
19847 2 
19848 1 
19849 1 
19850 2 
19851 1 
19900 1 
19901 2 
19902 1 
19909 1 
19910 2 
19911 1 
20551 1 
20552 3 
20553 1 
20560 1 
20561 2 
20562 1 
20563 1 
20564 2 
20565 1 
20566 1 
20567 2 
20568 1 
20614 1 
20615 3 
20616 1 
20620 1 
20621 3 
20622 1 
20626 1 
20627 3 
20628 1 
20629 1 
20630 2 
20631 1 
20635 1 
20636 2 
20637 1 
20671 1 
20672 3 
20673 1 
20683 1 
20684 3 
20685 1 
20692 1 
20693 3 
20694 1 
20731 1 
20732 3 
20733 1 
20740 1 
20741 3 
20742 1 
20758 1 
20759 2 
20760 1 
20794 1 
20795 3 
20796 1 
20800 1 
20801 3 
20802 1 
20803 1 
20804 3 
20805 1 
20812 1 
20813 2 
20814 1 
20815 1 
20816 3 
20817 1 
20818 1 
20819 3 
20820 1 
20851 1 
20852 2 
20853 1 
20857 1 
20858 3 
20859 1 
20860 1 
20861 3 
20862 1 
20914 1 
20915 2 
20916 1 
20920 1 
20921 2 
20922 1 
20932 1 
20933 3 
20934 1 
20935 1 
20936 3 
20937 1 
20977 1 
20978 3 
20979 1 
20980 1 
20981 3 
20982 1 
20986 1 
20987 2 
20988 1 
20992 1 
20993 3 
20994 1 
21037 1 
21038 2 
21039 1 
21040 1 
21041 3 
21042 1 
21052 1 
21053 2 
21054 1 
550 1 
551 2 
552 1 
559 1 
560 3 
561 1 
604 1 
605 3 
606 1 
613 1 
614 2 
615 1 
616 1 
617 3 
618 1 
619 1 
620 3 
621 1 
664 1 
665 3 
666 1 
667 1 
668 3 
669 1 
679 1 
680 3 
681 1 
682 1 
683 2 
684 1 
724 1 
725 2 