ITEM: TIMESTEP
0
ITEM: NUMBER OF ATOMS
4701
ITEM: BOX BOUNDS pp pp pp
0.0000000000000000e+00 5.0000000000000000e+01
0.0000000000000000e+00 5.0000000000000000e+01
0.0000000000000000e+00 5.0000000000000000e+01
ITEM: ATOMS id type 
4 1 
5 3 
6 1 
7 1 
8 3 
9 1 
19 1 
20 3 
21 1 
25 1 
26 2 
27 1 
61 1 
62 3 
63 1 
76 1 
77 3 
78 1 
85 1 
86 2 
87 1 
88 1 
89 3 
90 1 
139 1 
140 3 
141 1 
148 1 
149 3 
150 1 
184 1 
185 3 
186 1 
187 1 
188 2 
189 1 
190 1 
191 2 
192 1 
199 1 
200 3 
201 1 
205 1 
206 3 
207 1 
304 1 
305 3 
306 1 
361 1 
362 3 
363 1 
385 1 
386 3 
387 1 
424 1 
425 3 
426 1 
433 1 
434 2 
435 1 
439 1 
440 3 
441 1 
442 1 
443 3 
444 1 
445 1 
446 3 
447 1 
481 1 
482 3 
483 1 
487 1 
488 2 
489 1 
496 1 
497 2 
498 1 
1144 1 
1145 3 
1146 1 
1162 1 
1163 2 
1164 1 
1204 1 
1205 3 
1206 1 
1225 1 
1226 3 
1227 1 
1228 1 
1229 3 
1230 1 
1261 1 
1262 3 
1263 1 
1267 1 
1268 2 
1269 1 
1270 1 
1271 3 
1272 1 
1273 1 
1274 3 
1275 1 
1384 1 
1385 3 
1386 1 
1387 1 
1388 2 
1389 1 
1399 1 
1400 3 
1401 1 
1450 1 
1451 3 
1452 1 
1501 1 
1502 3 
1503 1 
1507 1 
1508 3 
1509 1 
1564 1 
1565 2 
1566 1 
1576 1 
1577 3 
1578 1 
1585 1 
1586 3 
1587 1 
1627 1 
1628 3 
1629 1 
1633 1 
1634 3 
1635 1 
1645 1 
1646 2 
1647 1 
2239 1 
2240 3 
2241 1 
2299 1 
2300 3 
2301 1 
2341 1 
2342 2 
2343 1 
2344 1 
2345 2 
2346 1 
2347 1 
2348 3 
2349 1 
2353 1 
2354 2 
2355 1 
2401 1 
2402 3 
2403 1 
2407 1 
2408 3 
2409 1 
2461 1 
2462 3 
2463 1 
2524 1 
2525 3 
2526 1 
2587 1 
2588 3 
2589 1 
3184 1 
3185 3 
3186 1 
3193 1 
3194 2 
3195 1 
3199 1 
3200 3 
3201 1 
3208 1 
3209 3 
3210 1 
3259 1 
3260 2 
3261 1 
3304 1 
3305 3 
3306 1 
3307 1 
3308 2 
3309 1 
3364 1 
3365 3 
3366 1 
3367 1 
3368 3 
3369 1 
3376 1 
3377 3 
3378 1 
3379 1 
3380 3 
3381 1 
3382 1 
3383 3 
3384 1 
3424 1 
3425 3 
3426 1 
3499 1 
3500 3 
3501 1 
3502 1 
3503 3 
3504 1 
3505 1 
3506 3 
3507 1 
3508 1 
3509 3 
3510 1 
3667 1 
3668 3 
3669 1 
3682 1 
3683 3 
3684 1 
3733 1 
3734 3 
3735 1 
3745 1 
3746 3 
3747 1 
4321 1 
4322 3 
4323 1 
4342 1 
4343 3 
4344 1 
4348 1 
4349 3 
4350 1 
4387 1 
4388 3 
4389 1 
4441 1 
4442 3 
4443 1 
4447 1 
4448 2 
4449 1 
4468 1 
4469 2 
4470 1 
4516 1 
4517 2 
4518 1 
4522 1 
4523 3 
4524 1 
4525 1 
4526 3 
4527 1 
4630 1 
4631 3 
4632 1 
4642 1 
4643 2 
4644 1 
4693 1 
4694 3 
4695 1 
4696 1 
4697 3 
4698 1 
4744 1 
4745 3 
4746 1 
4750 1 
4751 3 
4752 1 
4804 1 
4805 3 
4806 1 
4810 1 
4811 3 
4812 1 
4873 1 
4874 3 
4875 1 
4876 1 
4877 2 
4878 1 
4879 1 
4880 3 
4881 1 
5464 1 
5465 3 
5466 1 
5524 1 
5525 3 
5526 1 
5539 1 
5540 3 
5541 1 
5545 1 
5546 3 
5547 1 
5593 1 
5594 3 
5595 1 
5641 1 
5642 2 
5643 1 
5659 1 
5660 2 
5661 1 
5662 1 
5663 3 
5664 1 
5719 1 
5720 3 
5721 1 
5728 1 
5729 2 
5730 1 
5785 1 
5786 3 
5787 1 
5821 1 
5822 3 
5823 1 
5842 1 
5843 3 
5844 1 
5884 1 
5885 2 
5886 1 
5887 1 
5888 3 
5889 1 
5941 1 
5942 3 
5943 1 
5944 1 
5945 3 
5946 1 
5947 1 
5948 2 
5949 1 
5956 1 
5957 3 
5958 1 
5959 1 
5960 3 
5961 1 
6685 1 
6686 2 
6687 1 
6730 1 
6731 3 
6732 1 
6790 1 
6791 3 
6792 1 
6799 1 
6800 3 
6801 1 
6805 1 
6806 3 
6807 1 
6841 1 
6842 2 
6843 1 
6910 1 
6911 3 
6912 1 
6919 1 
6920 3 
6921 1 
6967 1 
6968 3 
6969 1 
7033 1 
7034 3 
7035 1 
7036 1 
7037 3 
7038 1 
7084 1 
7085 3 
7086 1 
7087 1 
7088 3 
7089 1 
7105 1 
7106 3 
7107 1 
7141 1 
7142 3 
7143 1 
7207 1 
7208 3 
7209 1 
7213 1 
7214 3 
7215 1 
7219 1 
7220 3 
7221 1 
7768 1 
7769 2 
7770 1 
7810 1 
7811 3 
7812 1 
7822 1 
7823 3 
7824 1 
7882 1 
7883 3 
7884 1 
7885 1 
7886 3 
7887 1 
7933 1 
7934 2 
7935 1 
7936 1 
7937 3 
7938 1 
7981 1 
7982 3 
7983 1 
7996 1 
7997 3 
7998 1 
7999 1 
8000 3 
8001 1 
8044 1 
8045 2 
8046 1 
8047 1 
8048 3 
8049 1 
8050 1 
8051 3 
8052 1 
8170 1 
8171 2 
8172 1 
8221 1 
8222 3 
8223 1 
8230 1 
8231 2 
8232 1 
8248 1 
8249 3 
8250 1 
8290 1 
8291 3 
8292 1 
8881 1 
8882 3 
8883 1 
8887 1 
8888 2 
8889 1 
8890 1 
8891 2 
8892 1 
8902 1 
8903 3 
8904 1 
8908 1 
8909 3 
8910 1 
8950 1 
8951 3 
8952 1 
9016 1 
9017 3 
9018 1 
9061 1 
9062 3 
9063 1 
9085 1 
9086 3 
9087 1 
9127 1 
9128 3 
9129 1 
9148 1 
9149 3 
9150 1 
9202 1 
9203 3 
9204 1 
9247 1 
9248 3 
9249 1 
9307 1 
9308 3 
9309 1 
9961 1 
9962 3 
9963 1 
9964 1 
9965 2 
9966 1 
9979 1 
9980 2 
9981 1 
9988 1 
9989 2 
9990 1 
10033 1 
10034 3 
10035 1 
10087 1 
10088 3 
10089 1 
10147 1 
10148 3 
10149 1 
10150 1 
10151 3 
10152 1 
10162 1 
10163 3 
10164 1 
10210 1 
10211 3 
10212 1 
10222 1 
10223 3 
10224 1 
10270 1 
10271 2 
10272 1 
10285 1 
10286 3 
10287 1 
10333 1 
10334 3 
10335 1 
10384 1 
10385 3 
10386 1 
10387 1 
10388 2 
10389 1 
10396 1 
10397 3 
10398 1 
10405 1 
10406 3 
10407 1 
10444 1 
10445 3 
10446 1 
10453 1 
10454 3 
10455 1 
10459 1 
10460 3 
10461 1 
11119 1 
11120 3 
11121 1 
11122 1 
11123 3 
11124 1 
11125 1 
11126 3 
11127 1 
11164 1 
11165 3 
11166 1 
11167 1 
11168 3 
11169 1 
11179 1 
11180 3 
11181 1 
11182 1 
11183 3 
11184 1 
11188 1 
11189 3 
11190 1 
11239 1 
11240 3 
11241 1 
11242 1 
11243 3 
11244 1 
11284 1 
11285 3 
11286 1 
11362 1 
11363 3 
11364 1 
11407 1 
11408 3 
11409 1 
11413 1 
11414 3 
11415 1 
11416 1 
11417 3 
11418 1 
11425 1 
11426 3 
11427 1 
11428 1 
11429 3 
11430 1 
11476 1 
11477 3 
11478 1 
11479 1 
11480 3 
11481 1 
12061 1 
12062 2 
12063 1 
12145 1 
12146 2 
12147 1 
12199 1 
12200 3 
12201 1 
12202 1 
12203 3 
12204 1 
12250 1 
12251 3 
12252 1 
12316 1 
12317 3 
12318 1 
12328 1 
12329 3 
12330 1 
12364 1 
12365 3 
12366 1 
12433 1 
12434 3 
12435 1 
12439 1 
12440 3 
12441 1 
12487 1 
12488 3 
12489 1 
12490 1 
12491 3 
12492 1 
12541 1 
12542 3 
12543 1 
12622 1 
12623 3 
12624 1 
12628 1 
12629 3 
12630 1 
13150 1 
13151 3 
13152 1 
13159 1 
13160 3 
13161 1 
13204 1 
13205 3 
13206 1 
13207 1 
13208 3 
13209 1 
13216 1 
13217 3 
13218 1 
13267 1 
13268 3 
13269 1 
13282 1 
13283 2 
13284 1 
13285 1 
13286 2 
13287 1 
13324 1 
13325 2 
13326 1 
13339 1 
13340 3 
13341 1 
13387 1 
13388 2 
13389 1 
13396 1 
13397 2 
13398 1 
13441 1 
13442 3 
13443 1 
13444 1 
13445 3 
13446 1 
13450 1 
13451 2 
13452 1 
13459 1 
13460 3 
13461 1 
13516 1 
13517 3 
13518 1 
13564 1 
13565 2 
13566 1 
14230 1 
14231 3 
14232 1 
14290 1 
14291 3 
14292 1 
14347 1 
14348 3 
14349 1 
14410 1 
14411 3 
14412 1 
14425 1 
14426 3 
14427 1 
14473 1 
14474 3 
14475 1 
14476 1 
14477 3 
14478 1 
14527 1 
14528 3 
14529 1 
14536 1 
14537 3 
14538 1 
14542 1 
14543 3 
14544 1 
14548 1 
14549 3 
14550 1 
14593 1 
14594 3 
14595 1 
14602 1 
14603 3 
14604 1 
14605 1 
14606 3 
14607 1 
14647 1 
14648 2 
14649 1 
14665 1 
14666 3 
14667 1 
15304 1 
15305 3 
15306 1 
15307 1 
15308 3 
15309 1 
15313 1 
15314 3 
15315 1 
15319 1 
15320 3 
15321 1 
15364 1 
15365 3 
15366 1 
15382 1 
15383 3 
15384 1 
15430 1 
15431 3 
15432 1 
15433 1 
15434 3 
15435 1 
15490 1 
15491 3 
15492 1 
15502 1 
15503 2 
15504 1 
15547 1 
15548 3 
15549 1 
15550 1 
15551 2 
15552 1 
15559 1 
15560 3 
15561 1 
15568 1 
15569 3 
15570 1 
15601 1 
15602 3 
15603 1 
15604 1 
15605 3 
15606 1 
15610 1 
15611 2 
15612 1 
15613 1 
15614 2 
15615 1 
15625 1 
15626 2 
15627 1 
15667 1 
15668 3 
15669 1 
15724 1 
15725 3 
15726 1 
15730 1 
15731 2 
15732 1 
15739 1 
15740 3 
15741 1 
16327 1 
16328 2 
16329 1 
16345 1 
16346 3 
16347 1 
16390 1 
16391 3 
16392 1 
16405 1 
16406 2 
16407 1 
16408 1 
16409 3 
16410 1 
16441 1 
16442 2 
16443 1 
16453 1 
16454 3 
16455 1 
16459 1 
16460 3 
16461 1 
16468 1 
16469 3 
16470 1 
16528 1 
16529 3 
16530 1 
16567 1 
16568 2 
16569 1 
16573 1 
16574 3 
16575 1 
16588 1 
16589 3 
16590 1 
16699 1 
16700 2 
16701 1 
16702 1 
16703 3 
16704 1 
17356 1 
17357 3 
17358 1 
17359 1 
17360 3 
17361 1 
17428 1 
17429 3 
17430 1 
17461 1 
17462 2 
17463 1 
17470 1 
17471 3 
17472 1 
17533 1 
17534 2 
17535 1 
17542 1 
17543 3 
17544 1 
17587 1 
17588 3 
17589 1 
17593 1 
17594 3 
17595 1 
17665 1 
17666 3 
17667 1 
17701 1 
17702 3 
17703 1 
17716 1 
17717 3 
17718 1 
17725 1 
17726 3 
17727 1 
17761 1 
17762 3 
17763 1 
17767 1 
17768 3 
17769 1 
17782 1 
17783 3 
17784 1 
18370 1 
18371 3 
18372 1 
18373 1 
18374 3 
18375 1 
18421 1 
18422 2 
18423 1 
18427 1 
18428 3 
18429 1 
18436 1 
18437 3 
18438 1 
18490 1 
18491 3 
18492 1 
18496 1 
18497 3 
18498 1 
18502 1 
18503 3 
18504 1 
18601 1 
18602 3 
18603 1 
18610 1 
18611 2 
18612 1 
18622 1 
18623 3 
18624 1 
18673 1 
18674 3 
18675 1 
18688 1 
18689 3 
18690 1 
18745 1 
18746 2 
18747 1 
18802 1 
18803 3 
18804 1 
18841 1 
18842 3 
18843 1 
18862 1 
18863 2 
18864 1 
19465 1 
19466 2 
19467 1 
19510 1 
19511 3 
19512 1 
19519 1 
19520 3 
19521 1 
19561 1 
19562 3 
19563 1 
19630 1 
19631 3 
19632 1 
19636 1 
19637 3 
19638 1 
19642 1 
19643 3 
19644 1 
19684 1 
19685 2 
19686 1 
19693 1 
19694 3 
19695 1 
19696 1 
19697 3 
19698 1 
19708 1 
19709 3 
19710 1 
19762 1 
19763 3 
19764 1 
19768 1 
19769 3 
19770 1 
19804 1 
19805 3 
19806 1 
19816 1 
19817 3 
19818 1 
19825 1 
19826 3 
19827 1 
19828 1 
19829 3 
19830 1 
19879 1 
19880 2 
19881 1 
19888 1 
19889 3 
19890 1 
20521 1 
20522 3 
20523 1 
20527 1 
20528 2 
20529 1 
20530 1 
20531 3 
20532 1 
20536 1 
20537 3 
20538 1 
20590 1 
20591 3 
20592 1 
20593 1 
20594 2 
20595 1 
20596 1 
20597 3 
20598 1 
20599 1 
20600 3 
20601 1 
20605 1 
20606 2 
20607 1 
20644 1 
20645 3 
20646 1 
20656 1 
20657 3 
20658 1 
20704 1 
20705 3 
20706 1 
20707 1 
20708 3 
20709 1 
20728 1 
20729 3 
20730 1 
20836 1 
20837 3 
20838 1 
20842 1 
20843 3 
20844 1 
20845 1 
20846 3 
20847 1 
20953 1 
20954 3 
20955 1 
20959 1 
20960 3 
20961 1 
20962 1 
20963 2 
20964 1 
21004 1 
21005 3 
21006 1 
21010 1 
21011 2 
21012 1 
21022 1 
21023 3 
21024 1 
21028 1 
21029 3 
21030 1 
52 1 
53 2 
54 1 
58 1 
59 3 
60 1 
91 1 
92 2 
93 1 
94 1 
95 3 
96 1 
103 1 
104 3 
105 1 
106 1 
107 2 
108 1 
112 1 
113 3 
114 1 
118 1 
119 3 
120 1 
160 1 
161 3 
162 1 
169 1 
170 3 
171 1 
172 1 
173 3 
174 1 
214 1 
215 3 
216 1 
217 1 
218 3 
219 1 
235 1 
236 2 
237 1 
238 1 
239 3 
240 1 
271 1 
272 2 
273 1 
277 1 
278 3 
279 1 
298 1 
299 3 
300 1 
391 1 
392 3 
393 1 
412 1 
413 2 
414 1 
415 1 
416 3 
417 1 
451 1 
452 3 
453 1 
472 1 
473 3 
474 1 
517 1 
518 3 
519 1 
1180 1 
1181 2 
1182 1 
1195 1 
1196 3 
1197 1 
1291 1 
1292 3 
1293 1 
1294 1 
1295 3 
1296 1 
1303 1 
1304 3 
1305 1 
1309 1 
1310 3 
1311 1 
1369 1 
1370 3 
1371 1 
1420 1 
1421 3 
1422 1 
1477 1 
1478 3 
1479 1 
1546 1 
1547 3 
1548 1 
1555 1 
1556 3 
1557 1 
1606 1 
1607 3 
1608 1 
1612 1 
1613 3 
1614 1 
1657 1 
1658 3 
1659 1 
1663 1 
1664 2 
1665 1 
1666 1 
1667 3 
1668 1 
2251 1 
2252 3 
2253 1 
2254 1 
2255 3 
2256 1 
2263 1 
2264 3 
2265 1 
2323 1 
2324 3 
2325 1 
2326 1 
2327 3 
2328 1 
2374 1 
2375 2 
2376 1 
2386 1 
2387 3 
2388 1 
2395 1 
2396 2 
2397 1 
2455 1 
2456 3 
2457 1 
2494 1 
2495 3 
2496 1 
2497 1 
2498 3 
2499 1 
2509 1 
2510 3 
2511 1 
2512 1 
2513 3 
2514 1 
2554 1 
2555 3 
2556 1 
2578 1 
2579 3 
2580 1 
2617 1 
2618 3 
2619 1 
2632 1 
2633 3 
2634 1 
3217 1 
3218 3 
3219 1 
3226 1 
3227 3 
3228 1 
3280 1 
3281 2 
3282 1 
3298 1 
3299 3 
3300 1 
3337 1 
3338 3 
3339 1 
3397 1 
3398 3 
3399 1 
3406 1 
3407 3 
3408 1 
3415 1 
3416 3 
3417 1 
3451 1 
3452 3 
3453 1 
3475 1 
3476 2 
3477 1 
3517 1 
3518 3 
3519 1 
3526 1 
3527 3 
3528 1 
3595 1 
3596 3 
3597 1 
3598 1 
3599 3 
3600 1 
3634 1 
3635 2 
3636 1 
3643 1 
3644 2 
3645 1 
3649 1 
3650 2 
3651 1 
3658 1 
3659 3 
3660 1 
3691 1 
3692 3 
3693 1 
3694 1 
3695 2 
3696 1 
3757 1 
3758 2 
3759 1 
3760 1 
3761 3 
3762 1 
4360 1 
4361 3 
4362 1 
4363 1 
4364 2 
4365 1 
4375 1 
4376 2 
4377 1 
4414 1 
4415 3 
4416 1 
4423 1 
4424 3 
4425 1 
4435 1 
4436 3 
4437 1 
4537 1 
4538 2 
4539 1 
4552 1 
4553 3 
4554 1 
4615 1 
4616 3 
4617 1 
4663 1 
4664 2 
4665 1 
4717 1 
4718 3 
4719 1 
4729 1 
4730 2 
4731 1 
4786 1 
4787 2 
4788 1 
4798 1 
4799 3 
4800 1 
4840 1 
4841 3 
4842 1 
4852 1 
4853 2 
4854 1 
4855 1 
4856 3 
4857 1 
4897 1 
4898 3 
4899 1 
5509 1 
5510 3 
5511 1 
5512 1 
5513 3 
5514 1 
5518 1 
5519 3 
5520 1 
5554 1 
5555 3 
5556 1 
5560 1 
5561 3 
5562 1 
5572 1 
5573 3 
5574 1 
5578 1 
5579 2 
5580 1 
5632 1 
5633 3 
5634 1 
5671 1 
5672 3 
5673 1 
5680 1 
5681 3 
5682 1 
5686 1 
5687 3 
5688 1 
5692 1 
5693 2 
5694 1 
5698 1 
5699 3 
5700 1 
5737 1 
5738 3 
5739 1 
5758 1 
5759 3 
5760 1 
5911 1 
5912 3 
5913 1 
5917 1 
5918 2 
5919 1 
5932 1 
5933 3 
5934 1 
5974 1 
5975 3 
5976 1 
5977 1 
5978 3 
5979 1 
5992 1 
5993 2 
5994 1 
6046 1 
6047 3 
6048 1 
6055 1 
6056 3 
6057 1 
6769 1 
6770 3 
6771 1 
6823 1 
6824 3 
6825 1 
6832 1 
6833 3 
6834 1 
6874 1 
6875 3 
6876 1 
6880 1 
6881 3 
6882 1 
6883 1 
6884 3 
6885 1 
6889 1 
6890 3 
6891 1 
6895 1 
6896 3 
6897 1 
6898 1 
6899 3 
6900 1 
6946 1 
6947 3 
6948 1 
6955 1 
6956 3 
6957 1 
6958 1 
6959 2 
6960 1 
6991 1 
6992 3 
6993 1 
7000 1 
7001 2 
7002 1 
7009 1 
7010 3 
7011 1 
7018 1 
7019 2 
7020 1 
7060 1 
7061 3 
7062 1 
7066 1 
7067 3 
7068 1 
7069 1 
7070 3 
7071 1 
7075 1 
7076 3 
7077 1 
7132 1 
7133 3 
7134 1 
7177 1 
7178 3 
7179 1 
7777 1 
7778 3 
7779 1 
7786 1 
7787 2 
7788 1 
7798 1 
7799 2 
7800 1 
7843 1 
7844 3 
7845 1 
7858 1 
7859 3 
7860 1 
7891 1 
7892 2 
7893 1 
7906 1 
7907 3 
7908 1 
7909 1 
7910 3 
7911 1 
7960 1 
7961 3 
7962 1 
8011 1 
8012 3 
8013 1 
8014 1 
8015 3 
8016 1 
8029 1 
8030 3 
8031 1 
8032 1 
8033 3 
8034 1 
8038 1 
8039 3 
8040 1 
8074 1 
8075 3 
8076 1 
8098 1 
8099 3 
8100 1 
8194 1 
8195 3 
8196 1 
8206 1 
8207 3 
8208 1 
8218 1 
8219 3 
8220 1 
8251 1 
8252 3 
8253 1 
8260 1 
8261 3 
8262 1 
8275 1 
8276 3 
8277 1 
8278 1 
8279 3 
8280 1 
8311 1 
8312 3 
8313 1 
8320 1 
8321 3 
8322 1 
8323 1 
8324 3 
8325 1 
8332 1 
8333 2 
8334 1 
8914 1 
8915 3 
8916 1 
8932 1 
8933 3 
8934 1 
8974 1 
8975 3 
8976 1 
8977 1 
8978 3 
8979 1 
8980 1 
8981 2 
8982 1 
8992 1 
8993 3 
8994 1 
9037 1 
9038 3 
9039 1 
9106 1 
9107 2 
9108 1 
9109 1 
9110 3 
9111 1 
9112 1 
9113 3 
9114 1 
9115 1 
9116 2 
9117 1 
9151 1 
9152 3 
9153 1 
9163 1 
9164 3 
9165 1 
9220 1 
9221 3 
9222 1 
9232 1 
9233 3 
9234 1 
9280 1 
9281 3 
9282 1 
9352 1 
9353 3 
9354 1 
10000 1 
10001 3 
10002 1 
10006 1 
10007 3 
10008 1 
10009 1 
10010 2 
10011 1 
10012 1 
10013 3 
10014 1 
10015 1 
10016 3 
10017 1 
10018 1 
10019 3 
10020 1 
10051 1 
10052 3 
10053 1 
10075 1 
10076 3 
10077 1 
10114 1 
10115 3 
10116 1 
10126 1 
10127 3 
10128 1 
10171 1 
10172 3 
10173 1 
10174 1 
10175 3 
10176 1 
10180 1 
10181 3 
10182 1 
10240 1 
10241 3 
10242 1 
10252 1 
10253 3 
10254 1 
10255 1 
10256 3 
10257 1 
10351 1 
10352 3 
10353 1 
10435 1 
10436 3 
10437 1 
10489 1 
10490 3 
10491 1 
10534 1 
10535 3 
10536 1 
10540 1 
10541 3 
10542 1 
10555 1 
10556 3 
10557 1 
11197 1 
11198 3 
11199 1 
11206 1 
11207 3 
11208 1 
11209 1 
11210 3 
11211 1 
11215 1 
11216 3 
11217 1 
11260 1 
11261 3 
11262 1 
11269 1 
11270 3 
11271 1 
11272 1 
11273 3 
11274 1 
11275 1 
11276 3 
11277 1 
11311 1 
11312 3 
11313 1 
11314 1 
11315 3 
11316 1 
11323 1 
11324 2 
11325 1 
11329 1 
11330 3 
11331 1 
11338 1 
11339 3 
11340 1 
11383 1 
11384 3 
11385 1 
11392 1 
11393 3 
11394 1 
11449 1 
11450 3 
11451 1 
11458 1 
11459 3 
11460 1 
11494 1 
11495 2 
11496 1 
11509 1 
11510 2 
11511 1 
11512 1 
11513 3 
11514 1 
12094 1 
12095 2 
12096 1 
12154 1 
12155 3 
12156 1 
12223 1 
12224 3 
12225 1 
12283 1 
12284 3 
12285 1 
12286 1 
12287 3 
12288 1 
12292 1 
12293 3 
12294 1 
12331 1 
12332 3 
12333 1 
12391 1 
12392 3 
12393 1 
12394 1 
12395 2 
12396 1 
12403 1 
12404 3 
12405 1 
12475 1 
12476 3 
12477 1 
12511 1 
12512 3 
12513 1 
12514 1 
12515 3 
12516 1 
12577 1 
12578 3 
12579 1 
12592 1 
12593 3 
12594 1 
13174 1 
13175 2 
13176 1 
13177 1 
13178 3 
13179 1 
13186 1 
13187 3 
13188 1 
13237 1 
13238 2 
13239 1 
13258 1 
13259 3 
13260 1 
13306 1 
13307 3 
13308 1 
13357 1 
13358 3 
13359 1 
13378 1 
13379 3 
13380 1 
13483 1 
13484 3 
13485 1 
13534 1 
13535 3 
13536 1 
13549 1 
13550 3 
13551 1 
13609 1 
13610 3 
13611 1 
13618 1 
13619 3 
13620 1 
14257 1 
14258 2 
14259 1 
14335 1 
14336 3 
14337 1 
14380 1 
14381 3 
14382 1 
14398 1 
14399 3 
14400 1 
14443 1 
14444 3 
14445 1 
14449 1 
14450 3 
14451 1 
14503 1 
14504 3 
14505 1 
14551 1 
14552 2 
14553 1 
14578 1 
14579 3 
14580 1 
14611 1 
14612 3 
14613 1 
14629 1 
14630 2 
14631 1 
14677 1 
14678 3 
14679 1 
14683 1 
14684 2 
14685 1 
14695 1 
14696 3 
14697 1 
15337 1 
15338 3 
15339 1 
15343 1 
15344 2 
15345 1 
15352 1 
15353 3 
15354 1 
15355 1 
15356 3 
15357 1 
15394 1 
15395 3 
15396 1 
15403 1 
15404 3 
15405 1 
15409 1 
15410 2 
15411 1 
15415 1 
15416 2 
15417 1 
15418 1 
15419 3 
15420 1 
15451 1 
15452 2 
15453 1 
15460 1 
15461 3 
15462 1 
15520 1 
15521 3 
15522 1 
15526 1 
15527 3 
15528 1 
15529 1 
15530 3 
15531 1 
15574 1 
15575 3 
15576 1 
15592 1 
15593 3 
15594 1 
15598 1 
15599 3 
15600 1 
15634 1 
15635 2 
15636 1 
15694 1 
15695 2 
15696 1 
15706 1 
15707 2 
15708 1 
15712 1 
15713 2 
15714 1 
15718 1 
15719 2 
15720 1 
15763 1 
15764 3 
15765 1 
15766 1 
15767 3 
15768 1 
15769 1 
15770 3 
15771 1 
15775 1 
15776 3 
15777 1 
15778 1 
15779 3 
15780 1 
16372 1 
16373 3 
16374 1 
16378 1 
16379 2 
16380 1 
16543 1 
16544 3 
16545 1 
16597 1 
16598 3 
16599 1 
16615 1 
16616 3 
16617 1 
16660 1 
16661 3 
16662 1 
16666 1 
16667 3 
16668 1 
16669 1 
16670 3 
16671 1 
16723 1 
16724 3 
16725 1 
17323 1 
17324 3 
17325 1 
17371 1 
17372 3 
17373 1 
17389 1 
17390 3 
17391 1 
17455 1 
17456 3 
17457 1 
17500 1 
17501 3 
17502 1 
17509 1 
17510 3 
17511 1 
17518 1 
17519 3 
17520 1 
17551 1 
17552 3 
17553 1 
17560 1 
17561 3 
17562 1 
17566 1 
17567 3 
17568 1 
17611 1 
17612 3 
17613 1 
17632 1 
17633 3 
17634 1 
17674 1 
17675 3 
17676 1 
17698 1 
17699 3 
17700 1 
17740 1 
17741 3 
17742 1 
17752 1 
17753 3 
17754 1 
17797 1 
17798 3 
17799 1 
17806 1 
17807 3 
17808 1 
17809 1 
17810 3 
17811 1 
17815 1 
17816 2 
17817 1 
18418 1 
18419 2 
18420 1 
18466 1 
18467 2 
18468 1 
18472 1 
18473 3 
18474 1 
18520 1 
18521 3 
18522 1 
18571 1 
18572 3 
18573 1 
18580 1 
18581 3 
18582 1 
18583 1 
18584 3 
18585 1 
18595 1 
18596 3 
18597 1 
18598 1 
18599 3 
18600 1 
18646 1 
18647 3 
18648 1 
18691 1 
18692 3 
18693 1 
18694 1 
18695 2 
18696 1 
18709 1 
18710 3 
18711 1 
18751 1 
18752 3 
18753 1 
18760 1 
18761 3 
18762 1 
18826 1 
18827 3 
18828 1 
18829 1 
18830 3 
18831 1 
18838 1 
18839 3 
18840 1 
18883 1 
18884 3 
18885 1 
18886 1 
18887 3 
18888 1 
19486 1 
19487 3 
19488 1 
19492 1 
19493 2 
19494 1 
19534 1 
19535 3 
19536 1 
19537 1 
19538 3 
19539 1 
19540 1 
19541 3 
19542 1 
19543 1 
19544 3 
19545 1 
19552 1 
19553 2 
19554 1 
19606 1 
19607 3 
19608 1 
19612 1 
19613 3 
19614 1 
19672 1 
19673 3 
19674 1 
19678 1 
19679 3 
19680 1 
19729 1 
19730 3 
19731 1 
19732 1 
19733 2 
19734 1 
19735 1 
19736 3 
19737 1 
19780 1 
19781 3 
19782 1 
19783 1 
19784 2 
19785 1 
19786 1 
19787 2 
19788 1 
19837 1 
19838 3 
19839 1 
19855 1 
19856 3 
19857 1 
19894 1 
19895 3 
19896 1 
19897 1 
19898 2 
19899 1 
20557 1 
20558 3 
20559 1 
20632 1 
20633 3 
20634 1 
20638 1 
20639 3 
20640 1 
20686 1 
20687 3 
20688 1 
20734 1 
20735 3 
20736 1 
20746 1 
20747 2 
20748 1 
20749 1 
20750 3 
20751 1 
20752 1 
20753 3 
20754 1 
20797 1 
20798 2 
20799 1 
20911 1 
20912 3 
20913 1 
20923 1 
20924 3 
20925 1 
20995 1 
20996 3 
20997 1 
21058 1 
21059 2 
21060 1 
562 1 
563 3 
564 1 
628 1 
629 3 
630 1 
673 1 
674 3 
675 1 
676 1 
677 2 
678 1 
742 1 
743 3 
744 1 
787 1 
788 3 
789 1 
796 1 
797 3 
798 1 
808 1 
809 3 
810 1 
856 1 
857 2 
858 1 
862 1 
863 3 
864 1 
865 1 
866 2 
867 1 
919 1 
920 3 
921 1 
925 1 
926 3 
927 1 
961 1 
962 3 
963 1 
964 1 
965 3 
966 1 
982 1 
983 3 
984 1 
1030 1 
1031 3 
1032 1 
1036 1 
1037 2 
1038 1 
1042 1 
1043 3 
1044 1 
1084 1 
1085 3 
1086 1 
1087 1 
1088 3 
1089 1 
1681 1 
1682 3 
1683 1 
1705 1 
1706 3 
1707 1 
1744 1 
1745 3 
1746 1 
1765 1 
1766 3 
1767 1 
1801 1 
1802 2 
1803 1 
1816 1 
1817 3 
1818 1 
1822 1 
1823 3 
1824 1 
1879 1 
1880 3 
1881 1 
1921 1 
1922 3 
1923 1 
1930 1 
1931 3 
1932 1 
1942 1 
1943 2 
1944 1 
1987 1 
1988 2 
1989 1 
1993 1 
1994 3 
1995 1 
2044 1 
2045 3 
2046 1 
2050 1 
2051 3 
2052 1 
2053 1 
2054 3 
2055 1 
2056 1 
2057 3 
2058 1 
2101 1 
2102 3 
2103 1 
2128 1 
2129 3 
2130 1 
2161 1 
2162 3 
2163 1 
2164 1 
2165 3 
2166 1 
2170 1 
2171 3 
2172 1 
2176 1 
2177 3 
2178 1 
2179 1 
2180 3 
2181 1 
2641 1 
2642 3 
2643 1 
2656 1 
2657 3 
2658 1 
2662 1 
2663 3 
2664 1 
2665 1 
2666 3 
2667 1 
2722 1 
2723 3 
2724 1 
2725 1 
2726 3 
2727 1 
2764 1 
2765 3 
2766 1 
2767 1 
2768 2 
2769 1 
2836 1 
2837 3 
2838 1 
2881 1 
2882 3 
2883 1 
2959 1 
2960 3 
2961 1 
2965 1 
2966 3 
2967 1 
3025 1 
3026 3 
3027 1 
3070 1 
3071 3 
3072 1 
3073 1 
3074 3 
3075 1 
3082 1 
3083 3 
3084 1 
3088 1 
3089 3 
3090 1 
3124 1 
3125 3 
3126 1 
3130 1 
3131 3 
3132 1 
3148 1 
3149 2 
3150 1 
3850 1 
3851 3 
3852 1 
3862 1 
3863 3 
3864 1 
3901 1 
3902 3 
3903 1 
3904 1 
3905 2 
3906 1 
3913 1 
3914 3 
3915 1 
3961 1 
3962 3 
3963 1 
3988 1 
3989 3 
3990 1 
4042 1 
4043 3 
4044 1 
4087 1 
4088 3 
4089 1 
4090 1 
4091 3 
4092 1 
4099 1 
4100 3 
4101 1 
4105 1 
4106 3 
4107 1 
4147 1 
4148 3 
4149 1 
4150 1 
4151 3 
4152 1 
4153 1 
4154 3 
4155 1 
4216 1 
4217 3 
4218 1 
4276 1 
4277 3 
4278 1 
4282 1 
4283 3 
4284 1 
4942 1 
4943 2 
4944 1 
4945 1 
4946 3 
4947 1 
4984 1 
4985 3 
4986 1 
4987 1 
4988 2 
4989 1 
4990 1 
4991 3 
4992 1 
4993 1 
4994 3 
4995 1 
5002 1 
5003 3 
5004 1 
5041 1 
5042 3 
5043 1 
5050 1 
5051 2 
5052 1 
5059 1 
5060 3 
5061 1 
5104 1 
5105 3 
5106 1 
5110 1 
5111 3 
5112 1 
5161 1 
5162 2 
5163 1 
5179 1 
5180 2 
5181 1 
5185 1 
5186 3 
5187 1 
5227 1 
5228 3 
5229 1 
5239 1 
5240 3 
5241 1 
5248 1 
5249 3 
5250 1 
5284 1 
5285 3 
5286 1 
5293 1 
5294 3 
5295 1 
5305 1 
5306 2 
5307 1 
5344 1 
5345 2 
5346 1 
5365 1 
5366 3 
5367 1 
5410 1 
5411 2 
5412 1 
5425 1 
5426 3 
5427 1 
6070 1 
6071 3 
6072 1 
6073 1 
6074 2 
6075 1 
6124 1 
6125 3 
6126 1 
6133 1 
6134 3 
6135 1 
6142 1 
6143 3 
6144 1 
6148 1 
6149 3 
6150 1 
6196 1 
6197 3 
6198 1 
6241 1 
6242 3 
6243 1 
6247 1 
6248 3 
6249 1 
6265 1 
6266 3 
6267 1 
6307 1 
6308 3 
6309 1 
6310 1 
6311 3 
6312 1 
6328 1 
6329 3 
6330 1 
6367 1 
6368 3 
6369 1 
6370 1 
6371 3 
6372 1 
6547 1 
6548 3 
6549 1 
6559 1 
6560 3 
6561 1 
6562 1 
6563 3 
6564 1 
6601 1 
6602 2 
6603 1 
6610 1 
6611 3 
6612 1 
6622 1 
6623 3 
6624 1 
7264 1 
7265 3 
7266 1 
7267 1 
7268 2 
7269 1 
7321 1 
7322 3 
7323 1 
7339 1 
7340 3 
7341 1 
7345 1 
7346 3 
7347 1 
7396 1 
7397 2 
7398 1 
7441 1 
7442 3 
7443 1 
7447 1 
7448 3 
7449 1 
7453 1 
7454 3 
7455 1 
7456 1 
7457 3 
7458 1 
7459 1 
7460 3 
7461 1 
7465 1 
7466 3 
7467 1 
7468 1 
7469 3 
7470 1 
7501 1 
7502 3 
7503 1 
7519 1 
7520 3 
7521 1 
7525 1 
7526 3 
7527 1 
7684 1 
7685 3 
7686 1 
7693 1 
7694 3 
7695 1 
8344 1 
8345 3 
8346 1 
8350 1 
8351 3 
8352 1 
8353 1 
8354 3 
8355 1 
8428 1 
8429 3 
8430 1 
8476 1 
8477 3 
8478 1 
8479 1 
8480 3 
8481 1 
8482 1 
8483 3 
8484 1 
8485 1 
8486 3 
8487 1 
8521 1 
8522 3 
8523 1 
8536 1 
8537 3 
8538 1 
8542 1 
8543 3 
8544 1 
8650 1 
8651 3 
8652 1 
8659 1 
8660 3 
8661 1 
8662 1 
8663 3 
8664 1 
8701 1 
8702 3 
8703 1 
8707 1 
8708 3 
8709 1 
8713 1 
8714 2 
8715 1 
8722 1 
8723 3 
8724 1 
8788 1 
8789 3 
8790 1 
8821 1 
8822 3 
8823 1 
8836 1 
8837 2 
8838 1 
8839 1 
8840 3 
8841 1 
8845 1 
8846 3 
8847 1 
9361 1 
9362 3 
9363 1 
9370 1 
9371 3 
9372 1 
9376 1 
9377 3 
9378 1 
9433 1 
9434 2 
9435 1 
9436 1 
9437 3 
9438 1 
9481 1 
9482 3 
9483 1 
9487 1 
9488 3 
9489 1 
9493 1 
9494 3 
9495 1 
9544 1 
9545 2 
9546 1 
9550 1 
9551 3 
9552 1 
9604 1 
9605 2 
9606 1 
9661 1 
9662 2 
9663 1 
9682 1 
9683 3 
9684 1 
9724 1 
9725 3 
9726 1 
9736 1 
9737 3 
9738 1 
9742 1 
9743 3 
9744 1 
9808 1 
9809 3 
9810 1 
9841 1 
9842 3 
9843 1 
9847 1 
9848 2 
9849 1 
9850 1 
9851 3 
9852 1 
9859 1 
9860 3 
9861 1 
9865 1 
9866 3 
9867 1 
9904 1 
9905 2 
9906 1 
9907 1 
9908 3 
9909 1 
9928 1 
9929 3 
9930 1 
10576 1 
10577 3 
10578 1 
10582 1 
10583 3 
10584 1 
10585 1 
10586 3 
10587 1 
10624 1 
10625 2 
10626 1 
10627 1 
10628 3 
10629 1 
10636 1 
10637 3 
10638 1 
10687 1 
10688 3 
10689 1 
10693 1 
10694 3 
10695 1 
10696 1 
10697 3 
10698 1 
10744 1 
10745 3 
10746 1 
10750 1 
10751 3 
10752 1 
10819 1 
10820 3 
10821 1 
10825 1 
10826 3 
10827 1 
10867 1 
10868 3 
10869 1 
10882 1 
10883 2 
10884 1 
10885 1 
10886 3 
10887 1 
10888 1 
10889 3 
10890 1 
10930 1 
10931 2 
10932 1 
10996 1 
10997 3 
10998 1 
10999 1 
11000 3 
11001 1 
11041 1 
11042 2 
11043 1 
11044 1 
11045 3 
11046 1 
11056 1 
11057 3 
11058 1 
11062 1 
11063 3 
11064 1 
11068 1 
11069 3 
11070 1 
11524 1 
11525 3 
11526 1 
11533 1 
11534 3 
11535 1 
11548 1 
11549 3 
11550 1 
11581 1 
11582 3 
11583 1 
11584 1 
11585 2 
11586 1 
11596 1 
11597 3 
11598 1 
11602 1 
11603 3 
11604 1 
11605 1 
11606 2 
11607 1 
11608 1 
11609 3 
11610 1 
11656 1 
11657 3 
11658 1 
11665 1 
11666 2 
11667 1 
11704 1 
11705 3 
11706 1 
11725 1 
11726 3 
11727 1 
11788 1 
11789 3 
11790 1 
11827 1 
11828 3 
11829 1 
11830 1 
11831 3 
11832 1 
11836 1 
11837 3 
11838 1 
11845 1 
11846 3 
11847 1 
11953 1 
11954 3 
11955 1 
11956 1 
11957 3 
11958 1 
12001 1 
12002 2 
12003 1 
12016 1 
12017 3 
12018 1 
12022 1 
12023 3 
12024 1 
12025 1 
12026 3 
12027 1 
12661 1 
12662 2 
12663 1 
12787 1 
12788 3 
12789 1 
12790 1 
12791 2 
12792 1 
12841 1 
12842 2 
12843 1 
12910 1 
12911 2 
12912 1 
12925 1 
12926 3 
12927 1 
12928 1 
12929 3 
12930 1 
12967 1 
12968 3 
12969 1 
13021 1 
13022 3 
13023 1 
13033 1 
13034 3 
13035 1 
13039 1 
13040 3 
13041 1 
13042 1 
13043 3 
13044 1 
13081 1 
13082 2 
13083 1 
13108 1 
13109 2 
13110 1 
13630 1 
13631 3 
13632 1 
13642 1 
13643 3 
13644 1 
13687 1 
13688 3 
13689 1 
13693 1 
13694 3 
13695 1 
13696 1 
13697 3 
13698 1 
13708 1 
13709 3 
13710 1 
13747 1 
13748 3 
13749 1 
13759 1 
13760 3 
13761 1 
13762 1 
13763 3 
13764 1 
13801 1 
13802 3 
13803 1 
13816 1 
13817 3 
13818 1 
13828 1 
13829 3 
13830 1 
13864 1 
13865 3 
13866 1 
13936 1 
13937 3 
13938 1 
13945 1 
13946 3 
13947 1 
13981 1 
13982 3 
13983 1 
13987 1 
13988 3 
13989 1 
14044 1 
14045 3 
14046 1 
14107 1 
14108 3 
14109 1 
14188 1 
14189 3 
14190 1 
14704 1 
14705 3 
14706 1 
14710 1 
14711 3 
14712 1 
14716 1 
14717 3 
14718 1 
14761 1 
14762 3 
14763 1 
14785 1 
14786 3 
14787 1 
14830 1 
14831 3 
14832 1 
14842 1 
14843 3 
14844 1 
14845 1 
14846 3 
14847 1 
14848 1 
14849 3 
14850 1 
14905 1 
14906 3 
14907 1 
14944 1 
14945 3 
14946 1 
14956 1 
14957 3 
14958 1 
14962 1 
14963 3 
14964 1 
14968 1 
14969 3 
14970 1 
15007 1 
15008 3 
15009 1 
15016 1 
15017 3 
15018 1 
15061 1 
15062 2 
15063 1 
15070 1 
15071 3 
15072 1 
15121 1 
15122 3 
15123 1 
15127 1 
15128 3 
15129 1 
15130 1 
15131 3 
15132 1 
15136 1 
15137 2 
15138 1 
15145 1 
15146 3 
15147 1 
15187 1 
15188 3 
15189 1 
15244 1 
15245 2 
15246 1 
15256 1 
15257 3 
15258 1 
15841 1 
15842 3 
15843 1 
15844 1 
15845 2 
15846 1 
15862 1 
15863 3 
15864 1 
15901 1 
15902 3 
15903 1 
15910 1 
15911 3 
15912 1 
15922 1 
15923 3 
15924 1 
15967 1 
15968 3 
15969 1 
15970 1 
15971 3 
15972 1 
15973 1 
15974 3 
15975 1 
16021 1 
16022 3 
16023 1 
16024 1 
16025 3 
16026 1 
16036 1 
16037 3 
16038 1 
16042 1 
16043 3 
16044 1 
16096 1 
16097 3 
16098 1 
16099 1 
16100 2 
16101 1 
16147 1 
16148 3 
16149 1 
16159 1 
16160 3 
16161 1 
16213 1 
16214 3 
16215 1 
16222 1 
16223 3 
16224 1 
16282 1 
16283 3 
16284 1 
16288 1 
16289 3 
16290 1 
16741 1 
16742 3 
16743 1 
16750 1 
16751 2 
16752 1 
16762 1 
16763 3 
16764 1 
16807 1 
16808 3 
16809 1 
16810 1 
16811 2 
16812 1 
16816 1 
16817 3 
16818 1 
16861 1 
16862 3 
16863 1 
16888 1 
16889 3 
16890 1 
16927 1 
16928 3 
16929 1 
17002 1 
17003 3 
17004 1 
17053 1 
17054 3 
17055 1 
17065 1 
17066 3 
17067 1 
17173 1 
17174 3 
17175 1 
17176 1 
17177 3 
17178 1 
17233 1 
17234 2 
17235 1 
17245 1 
17246 3 
17247 1 
17836 1 
17837 3 
17838 1 
17845 1 
17846 3 
17847 1 
17848 1 
17849 3 
17850 1 
17887 1 
17888 3 
17889 1 
17899 1 
17900 3 
17901 1 
17905 1 
17906 2 
17907 1 
18004 1 
18005 3 
18006 1 
18007 1 
18008 3 
18009 1 
18013 1 
18014 3 
18015 1 
18019 1 
18020 3 
18021 1 
18070 1 
18071 3 
18072 1 
18085 1 
18086 2 
18087 1 
18121 1 
18122 3 
18123 1 
18139 1 
18140 3 
18141 1 
18148 1 
18149 3 
18150 1 
18196 1 
18197 2 
18198 1 
18205 1 
18206 2 
18207 1 
18208 1 
18209 3 
18210 1 
18244 1 
18245 2 
18246 1 
18262 1 
18263 3 
18264 1 
18304 1 
18305 3 
18306 1 
18910 1 
18911 3 
18912 1 
18919 1 
18920 2 
18921 1 
18964 1 
18965 3 
18966 1 
18973 1 
18974 2 
18975 1 
18976 1 
18977 3 
18978 1 
18979 1 
18980 3 
18981 1 
19033 1 
19034 3 
19035 1 
19042 1 
19043 3 
19044 1 
19048 1 
19049 3 
19050 1 
19156 1 
19157 3 
19158 1 
19165 1 
19166 3 
19167 1 
19207 1 
19208 3 
19209 1 
19216 1 
19217 2 
19218 1 
19276 1 
19277 2 
19278 1 
19327 1 
19328 3 
19329 1 
19408 1 
19409 3 
19410 1 
19930 1 
19931 2 
19932 1 
19939 1 
19940 3 
19941 1 
19942 1 
19943 2 
19944 1 
19981 1 
19982 2 
19983 1 
19999 1 
20000 3 
20001 1 
20062 1 
20063 2 
20064 1 
20068 1 
20069 3 
20070 1 
20101 1 
20102 3 
20103 1 
20119 1 
20120 3 
20121 1 
20125 1 
20126 3 
20127 1 
20164 1 
20165 3 
20166 1 
20167 1 
20168 3 
20169 1 
20221 1 
20222 2 
20223 1 
20227 1 
20228 2 
20229 1 
20233 1 
20234 3 
20235 1 
20242 1 
20243 3 
20244 1 
20248 1 
20249 3 
20250 1 
20287 1 
20288 3 
20289 1 
20290 1 
20291 2 
20292 1 
20299 1 
20300 3 
20301 1 
20305 1 
20306 3 
20307 1 
20341 1 
20342 3 
20343 1 
20362 1 
20363 3 
20364 1 
20368 1 
20369 3 
20370 1 
20425 1 
20426 3 
20427 1 
21064 1 
21065 3 
21066 1 
21076 1 
21077 3 
21078 1 
21085 1 
21086 3 
21087 1 
21088 1 
21089 3 
21090 1 
21124 1 
21125 3 
21126 1 
21133 1 
21134 3 
21135 1 
21187 1 
21188 2 
21189 1 
21208 1 
21209 3 
21210 1 
21304 1 
21305 3 
21306 1 
21319 1 
21320 2 
21321 1 
21367 1 
21368 2 
21369 1 
21427 1 
21428 3 
21429 1 
21436 1 
21437 3 
21438 1 
21487 1 
21488 3 
21489 1 
21541 1 
21542 3 
21543 1 
21544 1 
21545 3 
21546 1 
21547 1 
21548 3 
21549 1 