ITEM: TIMESTEP
40000000
ITEM: NUMBER OF ENTRIES
4473
ITEM: BOX BOUNDS pp pp pp
0 50
0 50
0 50
ITEM: ENTRIES c_binfo[1] c_binfo[2] c_binfo[3] 
1 435 15696 
2 434 435 
2 433 434 
1 433 9531 
2 9530 9531 
1 7179 15606 
3 7178 7179 
3 7886 7887 
3 15605 15606 
3 7885 7886 
1 7885 8481 
3 7177 7178 
1 7177 18015 
3 13937 13938 
3 13936 13937 
3 18014 18015 
3 7459 7460 
3 574 575 
1 574 7459 
3 7460 7461 
3 575 576 
3 21305 21306 
3 21304 21305 
3 9460 9461 
1 9460 16056 
1 11385 21304 
3 7484 7485 
3 9461 9462 
1 576 9462 
3 16054 16055 
3 16055 16056 
3 7483 7484 
1 7483 7908 
3 7907 7908 
3 9643 9644 
3 4343 4344 
3 4342 4343 
1 4342 9643 
3 8 9 
1 9 12039 
3 19327 19328 
2 13324 13325 
3 7 8 
1 7 19329 
3 19328 19329 
1 13326 14907 
3 14906 14907 
1 8910 13324 
2 13325 13326 
3 15167 15168 
3 15166 15167 
1 15166 20598 
3 20597 20598 
2 187 188 
1 187 15168 
2 188 189 
2 5440 5441 
3 15568 15569 
3 15569 15570 
3 16025 16026 
1 162 13938 
3 21160 21161 
3 5593 5594 
1 5593 21160 
3 16024 16025 
1 16024 21162 
3 160 161 
1 160 1008 
3 161 162 
1 984 5595 
3 5594 5595 
3 21545 21546 
3 983 984 
3 11383 11384 
3 11384 11385 
3 982 983 
1 982 21543 
3 7264 7265 
1 7264 11383 
3 21542 21543 
3 7906 7907 
3 5110 5111 
1 5110 7906 
3 6874 6875 
1 6874 17065 
3 17065 17066 
3 17066 17067 
3 6875 6876 
1 6876 7501 
3 7501 7502 
3 16615 16616 
1 16615 21541 
3 21541 21542 
3 5111 5112 
3 1195 1196 
1 1195 11076 
3 11075 11076 
1 1197 4344 
3 1196 1197 
3 8321 8322 
3 839 840 
3 18092 18093 
3 13793 13794 
3 13792 13793 
1 13792 18093 
3 172 173 
1 172 838 
3 838 839 
1 174 5391 
3 18091 18092 
3 173 174 
2 18863 18864 
2 18862 18863 
1 18862 19311 
1 11583 18864 
3 11582 11583 
1 19167 19312 
3 19312 19313 
3 19166 19167 
3 19165 19166 
3 19313 19314 
3 5977 5978 
1 5977 17907 
3 8750 8751 
3 2455 2456 
1 2455 8751 
2 235 236 
1 235 5023 
3 5023 5024 
2 236 237 
3 14399 14400 
3 14398 14399 
3 199 200 
1 199 14398 
3 18098 18099 
3 21161 21162 
3 13864 13865 
3 13865 13866 
3 10582 10583 
1 10582 13864 
3 10583 10584 
3 17848 17849 
1 10584 11656 
3 18097 18098 
1 16026 17848 
3 13460 13461 
1 13866 14679 
3 9362 9363 
1 6549 9361 
3 9361 9362 
1 9363 21225 
3 14678 14679 
3 14677 14678 
3 6548 6549 
3 18005 18006 
3 6518 6519 
3 6517 6518 
1 6517 18006 
3 19894 19895 
1 7695 11074 
3 7694 7695 
1 12996 18004 
3 18004 18005 
3 11074 11075 
3 13760 13761 
3 15305 15306 
3 13759 13760 
1 13759 15306 
3 8320 8321 
1 8320 13761 
3 15314 15315 
3 12995 12996 
1 11754 20340 
3 20339 20340 
3 20338 20339 
3 2578 2579 
1 2578 20338 
1 15315 18091 
1 9165 19309 
3 19310 19311 
1 14538 18009 
3 18008 18009 
3 19309 19310 
3 14537 14538 
3 11759 11760 
3 6158 6159 
1 6159 11760 
3 18262 18263 
3 10147 10148 
1 10147 18262 
3 10148 10149 
3 1042 1043 
1 1042 11758 
3 11758 11759 
1 18264 19314 
3 18263 18264 
3 15418 15419 
1 3831 15418 
3 3830 3831 
2 17906 17907 
2 17905 17906 
1 15420 17905 
3 15419 15420 
3 8749 8750 
3 8458 8459 
1 8458 8749 
3 2456 2457 
3 7375 7376 
2 2027 2028 
2 2026 2027 
1 2026 7375 
3 17740 17741 
2 15937 15938 
1 15937 17740 
2 15938 15939 
3 17741 17742 
3 16072 16073 
1 16072 17742 
3 16073 16074 
3 15127 15128 
3 10600 10601 
3 5024 5025 
3 15128 15129 
3 6563 6564 
1 6564 8994 
3 8993 8994 
1 12960 15129 
3 8074 8075 
3 11657 11658 
3 11656 11657 
3 8075 8076 
3 6562 6563 
1 6562 18966 
1 936 8074 
3 935 936 
3 934 935 
1 934 15574 
3 15574 15575 
3 15575 15576 
1 15576 18690 
3 3760 3761 
1 3760 18099 
1 3762 7086 
3 8344 8345 
3 3761 3762 
3 9887 9888 
3 9886 9887 
3 19672 19673 
1 5106 19672 
3 19673 19674 
3 5105 5106 
3 11738 11739 
3 15304 15305 
1 15304 19674 
1 9483 20836 
1 9888 13630 
3 9482 9483 
3 13630 13631 
3 13631 13632 
1 3600 13632 
3 17263 17264 
3 9481 9482 
1 9481 17263 
3 20836 20837 
3 17264 17265 
1 2580 6474 
3 2579 2580 
3 6307 6308 
1 6307 17265 
3 3599 3600 
3 6095 6096 
3 18007 18008 
1 18007 18474 
3 15530 15531 
3 15529 15530 
1 15529 20028 
1 5295 15531 
3 6911 6912 
3 6094 6095 
3 6910 6911 
1 6910 19614 
3 18122 18123 
1 6912 18123 
3 20027 20028 
3 18473 18474 
1 9249 10149 
3 6881 6882 
3 6880 6881 
1 6880 9247 
3 9247 9248 
3 9248 9249 
3 12434 12435 
3 12433 12434 
1 6330 12433 
3 6329 6330 
3 6328 6329 
1 6328 7377 
1 10446 15403 
3 15403 15404 
3 15404 15405 
1 8979 12435 
3 7597 7598 
1 7597 8671 
3 7376 7377 
3 10445 10446 
1 7599 15549 
3 7598 7599 
3 15547 15548 
3 15548 15549 
3 15121 15122 
3 8992 8993 
1 8992 15123 
3 15122 15123 
3 13078 13079 
1 13078 15121 
3 12959 12960 
3 12958 12959 
3 19129 19130 
1 1953 19129 
3 1952 1953 
1 6582 8076 
3 6581 6582 
3 14738 14739 
3 6580 6581 
1 6580 19978 
1 6243 14739 
3 1951 1952 
1 1951 7812 
3 473 474 
3 12365 12366 
1 12366 14737 
3 12364 12365 
1 12364 21024 
3 14737 14738 
3 7084 7085 
1 474 4218 
3 7085 7086 
3 9397 9398 
1 9397 10405 
3 21023 21024 
3 472 473 
1 472 20640 
3 20639 20640 
3 20638 20639 
1 10407 21022 
3 21022 21023 
3 13216 13217 
1 10965 13216 
3 10964 10965 
3 10406 10407 
1 1371 20638 
3 10405 10406 
3 2170 2171 
1 2170 11739 
1 2172 3963 
3 3962 3963 
3 2171 2172 
3 10453 10454 
3 10454 10455 
3 451 452 
1 451 10455 
3 452 453 
3 18139 18140 
3 3526 3527 
1 3526 10453 
3 3527 3528 
1 3528 18141 
3 3598 3599 
1 3598 9220 
3 9220 9221 
3 9221 9222 
1 9222 20457 
3 20456 20457 
3 10001 10002 
1 3378 10000 
3 3377 3378 
3 10000 10001 
3 16573 16574 
3 205 206 
1 205 16573 
3 965 966 
3 16574 16575 
3 3376 3377 
3 964 965 
1 964 10018 
3 10018 10019 
3 206 207 
1 6882 10020 
3 8978 8979 
3 10019 10020 
1 3903 16215 
3 3902 3903 
3 3901 3902 
1 3901 8977 
3 8977 8978 
3 961 962 
1 963 11413 
3 962 963 
3 19060 19061 
3 12439 12440 
1 12439 19060 
3 12440 12441 
3 16214 16215 
3 19061 19062 
3 5086 5087 
1 5086 20751 
3 5087 5088 
3 20750 20751 
3 20749 20750 
3 6523 6524 
1 6523 16528 
3 16528 16529 
3 16243 16244 
1 16243 20749 
3 6524 6525 
3 16529 16530 
2 15707 15708 
3 9308 9309 
1 9309 15708 
3 9016 9017 
1 9016 9307 
3 9307 9308 
3 9017 9018 
3 3089 3090 
1 3090 5016 
3 5015 5016 
3 5014 5015 
1 5014 20599 
3 20599 20600 
3 20600 20601 
3 8521 8522 
1 8521 20601 
3 8522 8523 
3 5671 5672 
1 5671 11169 
3 1058 1059 
3 7810 7811 
1 7810 14611 
3 14611 14612 
1 1059 14613 
3 14612 14613 
1 8523 16018 
3 16018 16019 
3 7811 7812 
3 5672 5673 
1 4632 13218 
1 810 16861 
3 808 809 
1 808 4630 
3 4631 4632 
3 4630 4631 
3 809 810 
3 16861 16862 
3 11525 11526 
3 13217 13218 
3 710 711 
3 709 710 
3 11524 11525 
1 11524 20656 
3 15971 15972 
1 7341 20913 
3 7340 7341 
3 4946 4947 
1 4947 11991 
3 3961 3962 
1 3961 20911 
3 20911 20912 
3 15970 15971 
3 20912 20913 
1 9480 9717 
1 9738 15970 
3 10627 10628 
1 96 10627 
3 9479 9480 
3 9736 9737 
1 9736 15996 
3 9737 9738 
3 9715 9716 
3 9716 9717 
3 20455 20456 
1 11409 20455 
3 11408 11409 
3 11407 11408 
3 10351 10352 
1 10351 11407 
1 5187 11260 
3 11260 11261 
3 5186 5187 
3 13708 13709 
3 11261 11262 
1 207 11262 
1 10890 19308 
3 10889 10890 
3 10888 10889 
3 10252 10253 
1 10252 10888 
3 19307 19308 
3 10253 10254 
3 7468 7469 
1 7468 10035 
3 7469 7470 
1 7470 15943 
3 15944 15945 
3 15943 15944 
3 14858 14859 
3 10034 10035 
3 3914 3915 
1 3915 6525 
3 5956 5957 
1 5956 13042 
1 15945 19764 
3 19763 19764 
3 19762 19763 
3 6919 6920 
1 6919 19762 
3 6920 6921 
3 16213 16214 
1 13044 16213 
3 13043 13044 
3 13042 13043 
3 16454 16455 
1 6921 14380 
3 14426 14427 
1 14382 14425 
3 14425 14426 
3 14381 14382 
3 14380 14381 
2 19276 19277 
2 19277 19278 
1 10272 17037 
2 10270 10271 
1 10270 19278 
2 10271 10272 
2 2078 2079 
1 2079 16020 
2 2077 2078 
3 16019 16020 
3 11744 11745 
3 4945 4946 
1 6162 15103 
3 6161 6162 
3 6160 6161 
1 6160 7033 
3 7033 7034 
3 7034 7035 
1 15972 20658 
3 20657 20658 
3 20656 20657 
3 17428 17429 
3 17429 17430 
1 17430 21133 
3 21133 21134 
3 21134 21135 
3 95 96 
3 94 95 
1 94 14964 
3 14963 14964 
3 10751 10752 
3 14962 14963 
1 1842 21135 
3 1841 1842 
3 517 518 
1 517 14962 
3 3425 3426 
3 15050 15051 
3 10750 10751 
1 10750 11806 
3 11806 11807 
3 11807 11808 
1 10353 11808 
3 8845 8846 
1 8845 17676 
3 17675 17676 
3 3424 3425 
3 15049 15050 
1 8640 13710 
3 8639 8640 
3 8638 8639 
3 13709 13710 
3 4283 4284 
3 3683 3684 
3 3682 3683 
1 3682 14857 
3 14857 14858 
1 3684 11829 
3 11828 11829 
3 11827 11828 
2 3643 3644 
1 3643 4282 
2 3644 3645 
3 4282 4283 
3 18427 18428 
3 5957 5958 
1 5958 13306 
3 13306 13307 
3 5228 5229 
3 13307 13308 
3 18428 18429 
1 13308 18427 
3 2959 2960 
1 2959 5229 
3 2960 2961 
3 8350 8351 
1 8350 18429 
2 17036 17037 
2 12058 12059 
1 12058 14604 
3 5821 5822 
1 5821 10752 
1 5823 14602 
3 5822 5823 
3 14603 14604 
3 14602 14603 
3 20249 20250 
3 1612 1613 
1 1612 20248 
3 20248 20249 
3 8846 8847 
1 2643 8847 
3 2642 2643 
2 16750 16751 
2 16751 16752 
1 3645 16750 
2 12791 12792 
2 12790 12791 
3 8932 8933 
1 8934 12792 
3 8933 8934 
2 15695 15696 
2 15694 15695 
3 8479 8480 
1 8479 15694 
3 9713 9714 
3 9712 9713 
3 3184 3185 
1 3184 9712 
3 8480 8481 
3 3895 3896 
3 3896 3897 
3 18013 18014 
1 3186 21306 
3 3185 3186 
3 7937 7938 
3 17194 17195 
1 7938 15337 
3 17195 17196 
1 3132 17196 
3 3131 3132 
3 15337 15338 
1 6057 6769 
3 416 417 
3 415 416 
1 415 6771 
3 6770 6771 
3 6769 6770 
1 3384 15162 
3 15161 15162 
3 8909 8910 
3 3383 3384 
3 3382 3383 
1 3382 8908 
3 8908 8909 
3 1309 1310 
3 796 797 
1 796 1309 
1 798 20596 
3 797 798 
3 20596 20597 
3 12032 12033 
3 12623 12624 
3 21544 21545 
3 7936 7937 
1 17247 21544 
1 12033 12622 
3 12622 12623 
1 12624 15219 
3 6883 6884 
1 6883 17067 
3 3130 3131 
1 3130 7618 
3 17246 17247 
3 17245 17246 
3 1294 1295 
1 1294 17245 
3 8429 8430 
3 1295 1296 
3 7618 7619 
1 1296 17809 
3 8428 8429 
3 7619 7620 
3 12038 12039 
3 12037 12038 
1 7521 12037 
3 7520 7521 
3 7519 7520 
1 7519 20299 
3 20299 20300 
1 7620 16096 
3 1310 1311 
3 5390 5391 
3 5389 5390 
1 5389 20079 
3 20078 20079 
3 20077 20078 
3 16889 16890 
3 16888 16889 
2 13564 13565 
1 13564 16888 
2 13565 13566 
1 921 13566 
3 10333 10334 
3 10334 10335 
1 10335 11581 
3 11581 11582 
3 5933 5934 
3 5932 5933 
1 5932 11706 
3 11705 11706 
3 5978 5979 
1 5979 11704 
3 11704 11705 
3 11179 11180 
1 11179 15277 
3 12031 12032 
1 12031 17566 
3 17566 17567 
2 15277 15278 
3 15218 15219 
3 21224 21225 
3 21404 21405 
3 21223 21224 
1 21223 21403 
3 21403 21404 
3 15217 15218 
1 15217 21219 
3 12293 12294 
3 12292 12293 
3 6884 6885 
3 19 20 
1 19 7693 
1 21 5248 
3 5248 5249 
3 20 21 
3 7693 7694 
3 20753 20754 
3 20300 20301 
1 4107 20301 
3 4106 4107 
3 4105 4106 
3 11753 11754 
3 15313 15314 
1 7143 15313 
3 7142 7143 
1 11811 20077 
3 7141 7142 
3 3112 3113 
1 3112 7141 
3 5560 5561 
3 11752 11753 
3 58 59 
3 5561 5562 
1 5562 15876 
3 919 920 
1 919 11752 
3 14536 14537 
1 14536 20523 
3 20522 20523 
3 920 921 
3 14843 14844 
3 16183 16184 
1 14844 16183 
3 20521 20522 
1 5271 20521 
3 5270 5271 
3 14842 14843 
3 6157 6158 
1 6157 18072 
3 5269 5270 
1 5269 5934 
3 18071 18072 
3 18070 18071 
3 184 185 
1 184 18070 
3 185 186 
1 7593 15732 
2 15731 15732 
3 7592 7593 
3 4874 4875 
3 4873 4874 
1 4875 15730 
2 15730 15731 
1 11181 18964 
3 18964 18965 
3 11180 11181 
3 18965 18966 
3 19535 19536 
3 5572 5573 
1 5572 19536 
3 5573 5574 
3 19534 19535 
3 19895 19896 
1 19542 21405 
1 5574 11244 
3 11242 11243 
1 11242 19896 
3 11243 11244 
3 8345 8346 
3 5249 5250 
3 3083 3084 
3 3082 3083 
1 3082 5250 
3 2057 2058 
3 1369 1370 
1 1369 2058 
3 2056 2057 
1 2056 2082 
3 2080 2081 
1 2080 4105 
3 2081 2082 
3 19736 19737 
3 19735 19736 
3 6457 6458 
1 6457 17262 
3 6458 6459 
1 60 6096 
3 6308 6309 
1 6309 19735 
3 3113 3114 
3 59 60 
1 3114 13066 
3 13066 13067 
3 13067 13068 
3 13483 13484 
3 13484 13485 
3 9703 9704 
1 9703 13483 
1 7089 13068 
1 7107 14842 
3 7106 7107 
3 7105 7106 
1 7105 13485 
3 19612 19613 
1 10698 19612 
3 10697 10698 
3 10696 10697 
1 444 10696 
3 5195 5196 
3 19613 19614 
3 5194 5195 
1 2301 5194 
3 2300 2301 
3 2299 2300 
1 2299 11415 
3 11414 11415 
3 11413 11414 
3 1262 1263 
3 7591 7592 
1 7591 15559 
3 15559 15560 
3 15560 15561 
1 1509 15561 
1 1263 13188 
3 20531 20532 
1 186 16965 
3 1261 1262 
3 21428 21429 
3 18286 18287 
3 2129 2130 
3 2128 2129 
1 2128 10444 
3 10444 10445 
1 2130 10542 
3 10541 10542 
3 18287 18288 
3 10540 10541 
1 10540 11121 
3 21427 21428 
3 1420 1421 
1 1420 21427 
3 1421 1422 
3 19130 19131 
3 3124 3125 
1 3124 16234 
3 16234 16235 
3 16235 16236 
3 6242 6243 
1 19131 19534 
3 6241 6242 
3 4216 4217 
1 4216 16236 
3 4217 4218 
1 10437 11830 
3 11831 11832 
3 11830 11831 
3 10436 10437 
2 13237 13238 
3 2101 2102 
1 2101 3084 
3 2102 2103 
1 2103 11832 
3 1370 1371 
3 17260 17261 
3 17023 17024 
1 17023 17260 
3 17024 17025 
3 17261 17262 
3 10963 10964 
1 453 19737 
1 2499 10398 
3 2498 2499 
3 2497 2498 
3 9704 9705 
3 1291 1292 
1 1291 9705 
3 1292 1293 
1 1293 20211 
3 3337 3338 
1 3337 19543 
3 19543 19544 
3 7088 7089 
3 7087 7088 
3 20026 20027 
3 10996 10997 
1 10996 18580 
1 10998 20026 
3 10997 10998 
3 18580 18581 
3 18581 18582 
3 3338 3339 
3 482 483 
3 481 482 
3 5449 5450 
1 5449 16575 
3 5450 5451 
1 5451 14944 
3 14944 14945 
3 14945 14946 
3 13187 13188 
3 11602 11603 
1 11602 14875 
3 14875 14876 
3 11603 11604 
3 1507 1508 
3 1508 1509 
3 20530 20531 
3 13186 13187 
3 12787 12788 
1 12787 20530 
3 11183 11184 
3 11182 11183 
1 11182 14877 
3 14876 14877 
1 5088 19708 
3 19708 19709 
1 19710 20532 
3 19709 19710 
1 9018 9682 
3 9682 9683 
3 20591 20592 
3 11743 11744 
3 10435 10436 
1 10435 20590 
3 20590 20591 
3 9709 9710 
1 9709 13237 
3 9710 9711 
3 2254 2255 
1 2254 9711 
3 2255 2256 
1 2256 11526 
3 15974 15975 
3 1681 1682 
1 1681 17025 
3 1682 1683 
1 1683 13339 
3 13339 13340 
3 13340 13341 
3 7339 7340 
1 3507 7339 
3 15973 15974 
1 10008 10963 
3 10007 10008 
3 10006 10007 
3 2386 2387 
1 2386 10006 
3 10628 10629 
3 8219 8220 
3 3506 3507 
3 3505 3506 
3 12199 12200 
3 8218 8219 
1 8218 12199 
3 20209 20210 
1 8220 20209 
3 20210 20211 
3 10352 10353 
3 19544 19545 
3 4307 4308 
3 17561 17562 
3 17560 17561 
1 483 17560 
1 4308 19545 
3 4306 4307 
1 4306 15009 
1 20235 21078 
3 20234 20235 
3 20233 20234 
3 10033 10034 
3 15959 15960 
3 15958 15959 
1 15958 20233 
3 13517 13518 
1 11604 15825 
3 13516 13517 
3 3913 3914 
1 3913 11184 
1 8262 16453 
3 16453 16454 
3 8260 8261 
1 8260 13518 
3 8261 8262 
3 9929 9930 
3 3518 3519 
3 3517 3518 
1 3517 19804 
3 19804 19805 
1 16455 19806 
3 19805 19806 
3 9683 9684 
3 2746 2747 
1 2746 9684 
3 2747 2748 
1 2748 19276 
3 1930 1931 
1 1930 13341 
3 1931 1932 
1 1932 5161 
2 5161 5162 
1 3033 3505 
3 3032 3033 
3 3031 3032 
1 3031 21090 
3 21089 21090 
3 1840 1841 
1 1840 10585 
3 15016 15017 
1 15016 21088 
3 21088 21089 
3 15017 15018 
3 18709 18710 
3 16009 16010 
1 16009 18709 
1 15018 15147 
3 16010 16011 
3 15008 15009 
3 13987 13988 
3 17674 17675 
3 15007 15008 
1 15007 17674 
1 10254 13989 
3 13988 13989 
3 1607 1608 
1 5760 15960 
3 5759 5760 
3 1606 1607 
1 1606 12835 
3 12835 12836 
3 5227 5228 
1 5227 20847 
3 5758 5759 
1 5758 20845 
3 20845 20846 
3 20846 20847 
3 8311 8312 
3 8312 8313 
3 11788 11789 
3 11789 11790 
2 12059 12060 
2 5162 5163 
3 10586 10587 
3 10585 10586 
1 10587 15145 
3 15145 15146 
3 15146 15147 
3 6055 6056 
3 15338 15339 
3 8291 8292 
1 8292 15339 
3 8290 8291 
3 3451 3452 
1 3451 8290 
3 6056 6057 
3 3452 3453 
2 7001 7002 
2 7000 7001 
1 1311 7002 
3 12022 12023 
1 12022 15384 
3 12023 12024 
3 15383 15384 
3 15382 15383 
3 12542 12543 
3 12541 12542 
1 12541 17811 
3 17809 17810 
3 17810 17811 
3 15160 15161 
3 9550 9551 
1 9550 15160 
3 16096 16097 
3 16097 16098 
1 12543 13002 
3 9551 9552 
3 11725 11726 
1 9552 18108 
2 18107 18108 
3 9476 9477 
1 9477 9859 
3 9859 9860 
3 9860 9861 
2 18106 18107 
1 9861 16890 
3 17219 17220 
2 15278 15279 
3 17567 17568 
1 15279 17568 
3 17218 17219 
3 7474 7475 
3 7475 7476 
3 21218 21219 
3 21217 21218 
1 6453 21217 
3 6452 6453 
3 6451 6452 
1 6451 21552 
3 21551 21552 
1 7476 11725 
3 20752 20753 
1 2514 20752 
3 2513 2514 
3 2512 2513 
1 2512 19818 
3 4805 4806 
3 19817 19818 
3 4804 4805 
3 21550 21551 
3 19816 19817 
3 11810 11811 
3 11809 11810 
1 11809 13152 
3 13150 13151 
3 13151 13152 
2 3259 3260 
1 3259 13150 
3 16184 16185 
3 862 863 
1 862 9489 
3 863 864 
3 9488 9489 
3 9487 9488 
2 7768 7769 
1 7768 9487 
1 864 5196 
3 17929 17930 
1 17929 20119 
3 20119 20120 
3 20120 20121 
3 17930 17931 
3 19408 19409 
1 216 19408 
3 215 216 
3 19409 19410 
2 20437 20438 
2 20438 20439 
1 3126 20439 
3 3125 3126 
3 19541 19542 
3 19540 19541 
2 2354 2355 
1 2355 19540 
2 2353 2354 
3 1304 1305 
3 1303 1304 
1 1303 6459 
3 10396 10397 
1 4806 4879 
3 4880 4881 
1 4881 10396 
3 4879 4880 
3 7822 7823 
1 7822 10693 
3 10693 10694 
1 10695 10887 
3 10694 10695 
3 15875 15876 
3 20315 20316 
3 20314 20315 
2 3260 3261 
3 443 444 
3 442 443 
1 442 15874 
3 15874 15875 
1 8013 18973 
2 18973 18974 
3 8012 8013 
3 17173 17174 
3 17174 17175 
3 2264 2265 
3 1799 1800 
1 2265 20121 
3 2263 2264 
1 2263 19296 
3 1798 1799 
1 1798 17173 
3 16964 16965 
3 16963 16964 
3 11119 11120 
1 11119 16963 
1 777 17769 
3 214 215 
1 214 775 
3 775 776 
3 776 777 
3 11120 11121 
1 1269 4642 
2 4642 4643 
2 13238 13239 
2 4643 4644 
1 4644 15726 
3 15725 15726 
3 15724 15725 
1 15724 19488 
3 19538 19539 
3 19487 19488 
3 10397 10398 
3 7823 7824 
3 18503 18504 
3 18502 18503 
1 18502 19539 
1 7824 18504 
3 5912 5913 
1 5913 20316 
3 13609 13610 
1 4425 13609 
3 6512 6513 
3 13610 13611 
3 6511 6512 
1 6511 13611 
3 4424 4425 
3 4423 4424 
3 8011 8012 
1 8011 18582 
1 3339 5394 
3 5393 5394 
3 5392 5393 
3 12926 12927 
3 12925 12926 
1 12925 20961 
3 19295 19296 
3 13660 13661 
3 13661 13662 
1 7845 13660 
3 7844 7845 
3 19294 19295 
1 8325 19294 
3 8324 8325 
3 8323 8324 
1 8323 13161 
3 12788 12789 
1 12789 14544 
3 13160 13161 
3 14543 14544 
3 2756 2757 
1 8208 13159 
3 13159 13160 
3 8207 8208 
3 8206 8207 
3 2755 2756 
1 2755 8206 
3 7456 7457 
1 7456 17502 
3 7457 7458 
3 2387 2388 
3 11165 11166 
3 11164 11165 
3 12200 12201 
1 12201 13840 
3 13840 13841 
3 13841 13842 
3 5555 5556 
3 5554 5555 
1 5554 21076 
3 21076 21077 
3 21077 21078 
3 15823 15824 
1 13662 15823 
3 15824 15825 
3 19139 19140 
3 4750 4751 
1 4750 19140 
3 4751 4752 
3 9928 9929 
3 19138 19139 
3 14542 14543 
1 14542 19138 
3 6134 6135 
3 6133 6134 
1 6135 16543 
3 16543 16544 
1 2757 3519 
3 18710 18711 
3 12836 12837 
1 4752 12837 
3 62 63 
1 63 8313 
3 61 62 
1 61 15343 
2 15343 15344 
3 11558 11559 
2 15344 15345 
3 11557 11558 
3 13001 13002 
3 13000 13001 
3 11726 11727 
3 9475 9476 
2 5729 5730 
3 10885 10886 
2 5728 5729 
1 5728 10885 
3 10886 10887 
2 7769 7770 
2 1988 1989 
2 1987 1988 
1 1987 4173 
3 4171 4172 
1 4171 17931 
3 4172 4173 
2 17866 17867 
2 17867 17868 
2 6520 6521 
1 6520 17868 
2 6521 6522 
2 18974 18975 
2 5021 5022 
2 5020 5021 
1 5020 18975 
2 1268 1269 
2 1267 1268 
3 19537 19538 
1 5661 8892 
2 8891 8892 
3 19486 19487 
2 8890 8891 
1 8890 19486 
3 5911 5912 
1 3477 5911 
2 3476 3477 
2 3475 3476 
1 3475 15411 
3 20960 20961 
3 20959 20960 
3 7843 7844 
1 7843 17767 
3 17767 17768 
3 17768 17769 
3 17500 17501 
1 15942 17500 
3 17501 17502 
2 15410 15411 
2 15409 15410 
2 17815 17816 
2 17816 17817 
2 15940 15941 
3 16544 16545 
1 16545 21060 
2 21059 21060 
2 15941 15942 
2 21058 21059 
2 5659 5660 
2 5660 5661 
1 4974 11362 
3 11362 11363 
2 4973 4974 
3 11363 11364 
2 4972 4973 
2 25 26 
2 26 27 
1 27 2641 
3 2641 2642 
1 54 2346 
2 52 53 
1 52 12223 
3 12224 12225 
3 12223 12224 
2 53 54 
2 11977 11978 
2 9587 9588 
2 7396 7397 
1 7396 9586 
2 9586 9587 
2 11978 11979 
2 4247 4248 
2 11605 11606 
2 4246 4247 
1 4246 11605 
1 1995 11607 
2 11606 11607 
2 1564 1565 
1 1564 12661 
2 1565 1566 
2 7397 7398 
2 2768 2769 
2 2767 2768 
1 2767 6154 
2 6154 6155 
1 2769 7398 
2 2345 2346 
1 18423 20595 
2 18422 18423 
2 18421 18422 
2 2344 2345 
1 2344 18421 
2 86 87 
2 85 86 
1 87 7542 
2 6155 6156 
2 12935 12936 
1 12912 12936 
2 11041 11042 
2 11042 11043 
2 5179 5180 
1 5179 11043 
2 5180 5181 
2 4468 4469 
2 7540 7541 
1 4470 7540 
2 4469 4470 
2 7541 7542 
2 9965 9966 
2 9964 9965 
2 12934 12935 
1 12934 20962 
2 20962 20963 
2 20963 20964 
2 18118 18119 
1 18118 20964 
1 8046 18120 
2 18119 18120 
2 1957 1958 
1 1957 4468 
2 1958 1959 
2 21010 21011 
2 5411 5412 
2 21011 21012 
2 9652 9653 
1 5511 9652 
2 9653 9654 
2 18947 18948 
2 3905 3906 
2 3904 3905 
1 2343 3904 
2 18946 18947 
3 6806 6807 
3 6805 6806 
3 5663 5664 
1 5664 6807 
3 5662 5663 
3 6790 6791 
1 6790 20091 
3 20090 20091 
3 6791 6792 
1 1389 18948 
2 1388 1389 
2 1387 1388 
2 886 887 
2 887 888 
1 888 4788 
1 9588 20748 
2 20747 20748 
2 20746 20747 
1 2397 20746 
2 2396 2397 
2 16406 16407 
2 4787 4788 
2 8980 8981 
2 8981 8982 
1 5328 16405 
2 16405 16406 
2 5327 5328 
2 5326 5327 
1 5326 11979 
3 13268 13269 
3 20089 20090 
1 12663 20089 
3 15364 15365 
2 3871 3872 
1 3871 15364 
3 15365 15366 
3 1993 1994 
1 1993 15366 
2 12661 12662 
2 12662 12663 
2 6529 6530 
1 6529 15138 
2 15137 15138 
1 4518 19881 
2 4517 4518 
2 6530 6531 
1 6531 14191 
2 14191 14192 
2 14192 14193 
1 14193 20593 
1 8982 20290 
2 20290 20291 
2 20291 20292 
2 20593 20594 
2 20594 20595 
2 19930 19931 
1 4449 19930 
2 4448 4449 
2 19931 19932 
1 19554 20292 
2 19553 19554 
2 4447 4448 
1 4447 5052 
2 5051 5052 
2 5050 5051 
3 13267 13268 
2 20606 20607 
2 20605 20606 
3 1994 1995 
2 13174 13175 
2 11509 11510 
1 11509 13174 
2 11510 11511 
2 12910 12911 
1 12910 15136 
2 15136 15137 
2 12911 12912 
2 8333 8334 
1 8334 11511 
2 4516 4517 
1 4516 19684 
2 19684 19685 
2 19685 19686 
2 772 773 
1 772 19686 
2 19217 19218 
2 18695 18696 
1 18696 19218 
2 21368 21369 
2 21367 21368 
2 19216 19217 
1 19216 21369 
2 13450 13451 
1 13450 21367 
2 773 774 
1 774 4060 
2 4060 4061 
2 9107 9108 
1 5181 15844 
2 9106 9107 
1 9106 19552 
2 15845 15846 
2 15844 15845 
2 15712 15713 
1 8874 15846 
1 9108 15712 
2 18206 18207 
2 8873 8874 
2 19552 19553 
2 12095 12096 
1 3168 12096 
2 3167 3168 
2 3166 3167 
1 3166 18207 
2 8615 8616 
2 12094 12095 
2 7787 7788 
2 7786 7787 
1 7786 9966 
1 5694 7788 
2 5693 5694 
2 10882 10883 
2 10883 10884 
2 8332 8333 
2 106 107 
1 106 8332 
2 107 108 
2 13451 13452 
1 108 13122 
2 13121 13122 
2 13120 13121 
1 13120 20527 
2 20527 20528 
2 20528 20529 
2 18244 18245 
1 4062 15163 
2 16699 16700 
1 16699 20529 
1 13452 15714 
2 15713 15714 
2 8045 8046 
2 4538 4539 
2 4537 4538 
1 4537 15165 
2 8044 8045 
2 15163 15164 
2 15164 15165 
2 9955 9956 
1 4539 9955 
2 6685 6686 
1 6685 8044 
1 1959 9957 
2 9956 9957 
2 5692 5693 
1 5692 21393 
2 8614 8615 
2 21392 21393 
2 4987 4988 
2 412 413 
2 413 414 
2 1663 1664 
1 1663 19734 
2 1664 1665 
2 5410 5411 
1 5410 9459 
2 18245 18246 
2 9458 9459 
1 414 18246 
2 9457 9458 
1 9457 21012 
2 6686 6687 
1 6687 21187 
2 21187 21188 
2 16700 16701 
2 21188 21189 
1 1665 9837 
2 9836 9837 
2 9835 9836 
2 7267 7268 
1 7267 9835 
3 6899 6900 
3 6898 6899 
1 6898 13444 
3 17633 17634 
3 7558 7559 
1 7558 17634 
3 7559 7560 
3 13445 13446 
1 13446 21412 
3 13444 13445 
2 3193 3194 
3 7207 7208 
1 7207 9822 
3 7208 7209 
2 3194 3195 
1 1227 2856 
3 1226 1227 
3 2855 2856 
3 16288 16289 
3 5510 5511 
3 1225 1226 
1 1225 7560 
3 5509 5510 
1 5509 11847 
3 11845 11846 
1 11845 21576 
3 11846 11847 
3 5272 5273 
1 5272 8034 
3 8033 8034 
3 8032 8033 
1 8032 9810 
3 2050 2051 
3 9809 9810 
3 9808 9809 
3 9821 9822 
3 9820 9821 
1 9820 11340 
3 11534 11535 
3 11533 11534 
1 11533 14749 
1 10668 14667 
2 10666 10667 
2 10667 10668 
2 2342 2343 
2 10388 10389 
2 2341 2342 
2 9980 9981 
2 15061 15062 
2 11494 11495 
1 11494 15063 
2 15062 15063 
2 11495 11496 
2 5579 5580 
1 5580 9850 
3 9850 9851 
3 9851 9852 
3 11209 11210 
1 11209 19494 
2 19493 19494 
3 16289 16290 
3 15739 15740 
1 15741 16290 
3 15740 15741 
1 2511 8221 
3 2510 2511 
3 8482 8483 
3 2051 2052 
1 2052 2509 
3 2509 2510 
3 15863 15864 
3 15862 15863 
1 1746 19377 
3 19376 19377 
3 1745 1746 
3 14474 14475 
3 14473 14474 
1 14473 15862 
3 14750 14751 
1 13551 14751 
3 13549 13550 
1 13549 13693 
3 13693 13694 
3 11338 11339 
3 1744 1745 
1 1744 11338 
3 277 278 
1 277 12318 
3 14749 14750 
1 10224 11535 
3 10223 10224 
1 11955 20925 
1 279 19899 
3 278 279 
3 20924 20925 
3 11954 11955 
3 10222 10223 
1 2376 10222 
2 2375 2376 
2 2374 2375 
3 6889 6890 
2 15613 15614 
1 6891 15613 
3 6890 6891 
2 15614 15615 
2 9979 9980 
1 9979 15615 
2 2395 2396 
1 2395 15417 
2 5306 5307 
2 5305 5306 
1 5305 16407 
1 5307 9952 
2 15416 15417 
2 9952 9953 
2 9953 9954 
2 15415 15416 
2 7891 7892 
1 7891 15415 
2 7892 7893 
1 7893 13081 
2 13081 13082 
2 13082 13083 
2 8807 8808 
2 8806 8807 
1 8806 19492 
2 19492 19493 
3 11311 11312 
3 11312 11313 
1 11313 16149 
1 9519 12288 
3 9518 9519 
3 12287 12288 
3 12286 12287 
3 17003 17004 
3 8221 8222 
3 8483 8484 
3 17002 17003 
3 112 113 
1 112 12756 
3 12755 12756 
1 114 17002 
3 113 114 
3 12754 12755 
3 14785 14786 
3 14786 14787 
1 14787 19897 
1 6825 12754 
2 19897 19898 
2 19898 19899 
3 6824 6825 
3 13694 13695 
3 20923 20924 
2 20228 20229 
2 20227 20228 
1 20227 20923 
3 11285 11286 
2 19879 19880 
2 17233 17234 
1 17233 19879 
2 19880 19881 
1 7293 20229 
2 8375 8376 
2 8374 8375 
1 8374 19932 
2 17234 17235 
2 4786 4787 
1 4786 8376 
1 4731 17235 
2 4730 4731 
2 12062 12063 
2 12061 12062 
1 12061 16327 
2 16327 16328 
2 16328 16329 
2 6601 6602 
1 6601 13083 
2 6602 6603 
1 6603 13074 
2 13073 13074 
3 11315 11316 
1 387 675 
3 386 387 
3 8476 8477 
1 8476 20607 
3 8477 8478 
3 4276 4277 
1 4276 7714 
2 13175 13176 
2 3872 3873 
1 3873 7716 
3 7714 7715 
3 7715 7716 
2 7292 7293 
2 7291 7292 
3 8275 8276 
2 857 858 
2 856 857 
1 856 8275 
2 8713 8714 
2 8714 8715 
2 19465 19466 
1 8715 19465 
2 19466 19467 
1 858 14553 
2 18694 18695 
1 4377 18694 
2 4376 4377 
2 4375 4376 
2 865 866 
1 865 4375 
2 3308 3309 
2 3307 3308 
1 3307 5643 
1 3309 12063 
2 866 867 
1 15246 18205 
2 18205 18206 
2 15245 15246 
1 4944 15244 
2 15244 15245 
2 8872 8873 
1 8872 18418 
2 18418 18419 
2 18419 18420 
2 9904 9905 
1 9904 18420 
2 4943 4944 
2 272 273 
2 13072 13073 
1 498 13072 
2 497 498 
2 496 497 
1 496 8616 
1 273 4365 
3 674 675 
3 673 674 
1 673 14629 
2 14629 14630 
2 14630 14631 
2 13396 13397 
2 13397 13398 
1 19467 19783 
2 19783 19784 
2 11584 11585 
1 9117 11584 
2 11585 11586 
1 11586 21438 
2 4061 4062 
2 19784 19785 
2 7309 7310 
1 7309 19785 
2 7310 7311 
2 5642 5643 
1 7311 8580 
2 5641 5642 
1 5641 13389 
2 13387 13388 
1 13387 20797 
2 20797 20798 
2 8579 8580 
2 8578 8579 
1 8578 16099 
2 16099 16100 
2 16100 16101 
2 9905 9906 
1 7020 16101 
2 21391 21392 
2 7018 7019 
1 7018 21391 
2 7019 7020 
2 16783 16784 
2 9544 9545 
1 9544 14631 
2 9545 9546 
1 9546 19999 
3 19999 20000 
1 15522 20001 
3 15521 15522 
3 742 743 
3 15520 15521 
3 217 218 
1 217 15520 
3 743 744 
3 218 219 
1 4989 19732 
2 19732 19733 
2 19733 19734 
2 4988 4989 
3 21437 21438 
1 7269 10974 
2 10973 10974 
2 20798 20799 
2 10972 10973 
1 10972 20799 
2 7933 7934 
2 7934 7935 
2 17533 17534 
2 17534 17535 
2 10009 10010 
1 10009 17533 
2 10010 10011 
1 10011 16701 
2 10624 10625 
1 10624 21189 
2 10625 10626 
1 10626 20062 
2 20062 20063 
2 20063 20064 
2 7268 7269 
3 4090 4091 
3 4091 4092 
1 4092 19302 
3 19301 19302 
2 17461 17462 
1 17461 21211 
2 5947 5948 
2 5948 5949 
2 17462 17463 
1 15552 18196 
2 18196 18197 
2 18197 18198 
2 15551 15552 
1 6960 10255 
3 10255 10256 
1 10257 18934 
3 10256 10257 
2 6959 6960 
1 678 11623 
2 11623 11624 
2 11624 11625 
1 4152 19300 
3 19300 19301 
3 4151 4152 
3 4150 4151 
1 4150 5344 
2 5344 5345 
2 5345 5346 
1 5346 19944 
1 5949 9849 
2 9848 9849 
2 9847 9848 
1 9847 14830 
3 14830 14831 
3 14831 14832 
1 10152 16231 
3 16231 16232 
3 16232 16233 
3 14605 14606 
1 14605 14832 
3 12329 12330 
1 12330 15550 
2 15550 15551 
3 12328 12329 
1 12328 16233 
1 11325 11478 
2 11324 11325 
2 11323 11324 
1 11323 14647 
2 14647 14648 
2 14648 14649 
2 15718 15719 
1 14649 18936 
3 18934 18935 
3 18935 18936 
2 19943 19944 
2 19942 19943 
3 2881 2882 
1 2881 19942 
3 2882 2883 
1 2883 5974 
3 5974 5975 
3 5975 5976 
3 14606 14607 
1 6 14607 
3 5 6 
3 4 5 
3 21412 21413 
3 21413 21414 
3 18598 18599 
1 18598 20268 
3 20267 20268 
1 1587 20266 
3 20266 20267 
3 15778 15779 
1 15778 17632 
3 17632 17633 
3 15779 15780 
1 15720 15780 
2 15719 15720 
3 11608 11609 
1 11608 14716 
3 14716 14717 
3 11609 11610 
3 5945 5946 
3 2866 2867 
1 2866 3195 
3 2867 2868 
1 2868 15667 
3 15667 15668 
3 15668 15669 
1 15669 16042 
3 16042 16043 
3 7486 7487 
3 7487 7488 
1 7488 8016 
3 1834 1835 
2 8498 8499 
2 9989 9990 
2 19981 19982 
2 19982 19983 
2 5578 5579 
1 5578 19983 
2 9988 9989 
1 9988 15453 
2 15452 15453 
2 15451 15452 
1 15451 19981 
3 13844 13845 
2 5993 5994 
2 5992 5993 
1 5992 13843 
3 13843 13844 
3 13259 13260 
3 17665 17666 
1 13260 17665 
3 20102 20103 
3 2854 2855 
1 2854 17667 
3 17666 17667 
3 18052 18053 
1 18052 20425 
3 12511 12512 
1 12511 18054 
3 18053 18054 
3 20425 20426 
3 12512 12513 
3 21575 21576 
3 21574 21575 
3 19429 19430 
3 19430 19431 
3 1585 1586 
1 1585 19429 
3 1586 1587 
3 1502 1503 
3 5273 5274 
3 14717 14718 
3 1501 1502 
1 1501 5274 
3 17612 17613 
3 17611 17612 
1 16044 17613 
3 8015 8016 
3 16043 16044 
3 18371 18372 
3 18370 18371 
3 11339 11340 
3 8014 8015 
1 8014 20844 
1 5265 18370 
3 14665 14666 
1 14665 19695 
3 19694 19695 
3 19693 19694 
1 16023 19693 
3 5264 5265 
3 14666 14667 
3 15764 15765 
3 15763 15764 
2 8497 8498 
1 8497 15763 
3 3406 3407 
1 3406 15765 
3 3407 3408 
2 10387 10388 
2 12842 12843 
2 12841 12842 
1 6594 12841 
3 6593 6594 
2 5257 5258 
1 5257 12843 
1 5259 11496 
2 5258 5259 
2 17920 17921 
3 15188 15189 
1 11550 13359 
3 11548 11549 
1 11548 15187 
3 15187 15188 
3 11549 11550 
3 11210 11211 
3 13358 13359 
3 13258 13259 
1 13258 13357 
3 13357 13358 
1 633 11211 
3 632 633 
3 20426 20427 
3 631 632 
1 631 17257 
3 17257 17258 
1 14139 16704 
3 6238 6239 
1 6238 20427 
3 6239 6240 