ITEM: TIMESTEP
40000000
ITEM: NUMBER OF ENTRIES
2222
ITEM: BOX BOUNDS pp pp pp
0 50
0 50
0 50
ITEM: ENTRIES c_binfo[1] c_binfo[2] c_binfo[3] 
3 20416 20417 
1 249 20416 
3 20417 20418 
2 248 249 
2 19106 19107 
2 19105 19106 
2 247 248 
1 247 19105 
2 15808 15809 
1 15808 20703 
3 20702 20703 
3 20701 20702 
1 18111 20701 
3 17959 17960 
1 17959 19107 
3 17960 17961 
3 8737 8738 
2 15809 15810 
3 13918 13919 
1 13918 15810 
3 13919 13920 
3 1948 1949 
1 1948 13920 
3 1949 1950 
1 1950 3559 
2 7709 7710 
2 7708 7709 
1 4824 7708 
2 4823 4824 
2 4822 4823 
1 3270 4822 
3 8851 8852 
3 2698 2699 
1 2698 8851 
3 2699 2700 
1 2700 18823 
3 18823 18824 
3 8852 8853 
1 8349 8853 
3 8348 8349 
3 8347 8348 
2 4912 4913 
1 4912 14325 
2 4913 4914 
3 14638 14639 
3 14639 14640 
1 14640 19906 
3 19906 19907 
3 19907 19908 
3 13498 13499 
1 13498 19908 
3 21452 21453 
2 8689 8690 
2 8690 8691 
1 8691 21481 
3 21481 21482 
2 14819 14820 
3 1510 1511 
3 1511 1512 
1 1512 17028 
3 4165 4166 
3 5056 5057 
1 5056 15564 
3 15563 15564 
3 15562 15563 
1 15562 18144 
3 1643 1644 
3 18143 18144 
3 18142 18143 
1 18142 21336 
3 9206 9207 
3 9205 9206 
1 9205 12643 
3 12643 12644 
3 13364 13365 
3 12644 12645 
1 12645 13363 
3 13363 13364 
1 315 13365 
3 13520 13521 
1 13521 14689 
3 313 314 
1 313 2107 
3 2107 2108 
3 2108 2109 
3 314 315 
1 2109 2365 
3 2365 2366 
3 2366 2367 
3 1637 1638 
1 1638 2367 
3 19201 19202 
3 20047 20048 
1 546 9105 
3 9104 9105 
3 1642 1643 
3 545 546 
3 544 545 
1 544 12981 
1 2586 12979 
3 12979 12980 
3 12980 12981 
3 16136 16137 
3 2585 2586 
3 2584 2585 
3 13519 13520 
1 13519 18109 
3 18109 18110 
3 18110 18111 
3 20413 20414 
3 20414 20415 
3 9977 9978 
1 16137 20413 
3 17911 17912 
1 4713 17911 
3 4712 4713 
3 4711 4712 
1 4711 10723 
3 10723 10724 
3 10724 10725 
3 17912 17913 
1 9564 17961 
3 9563 9564 
3 9562 9563 
1 2271 9562 
3 11735 11736 
3 9103 9104 
1 9103 13488 
1 11736 13486 
3 13487 13488 
3 13486 13487 
3 18523 18524 
3 8738 8739 
1 8739 19893 
3 19892 19893 
3 18824 18825 
3 18524 18525 
1 18525 18825 
3 1265 1266 
3 1264 1265 
1 1264 2008 
3 19891 19892 
3 2008 2009 
3 9976 9977 
3 2009 2010 
3 6283 6284 
1 6283 20415 
1 2010 9976 
3 6284 6285 
1 6285 15753 
3 15751 15752 
3 15752 15753 
3 3559 3560 
3 3560 3561 
1 3561 19725 
3 19724 19725 
3 19723 19724 
2 3269 3270 
2 3268 3269 
3 2156 2157 
1 2157 14074 
3 2155 2156 
1 2155 3268 
3 14074 14075 
3 15254 15255 
3 2069 2070 
3 21106 21107 
3 15253 15254 
1 15253 21108 
1 15255 16384 
3 16384 16385 
1 2070 11194 
3 11194 11195 
3 11195 11196 
1 10425 13491 
3 10424 10425 
3 10423 10424 
3 13490 13491 
3 14770 14771 
1 10716 14770 
3 14771 14772 
3 10715 10716 
3 4208 4209 
3 6673 6674 
3 4207 4208 
1 4207 6673 
3 2683 2684 
1 2683 11412 
3 2684 2685 
3 10714 10715 
1 10714 20460 
3 4046 4047 
3 6674 6675 
3 10124 10125 
3 10123 10124 
3 10105 10106 
1 10105 10123 
3 16513 16514 
1 843 16513 
3 16514 16515 
3 842 843 
2 17384 17385 
3 557 558 
3 16385 16386 
3 556 557 
1 556 16386 
1 11196 13369 
3 13369 13370 
3 13370 13371 
3 1048 1049 
1 1048 13371 
3 1049 1050 
2 7790 7791 
2 7789 7790 
3 11411 11412 
3 11410 11411 
3 13499 13500 
3 2200 2201 
1 2200 13500 
3 20459 20460 
3 20458 20459 
3 7682 7683 
3 2201 2202 
3 7681 7682 
1 7681 16734 
3 8842 8843 
1 8842 14323 
2 14323 14324 
3 8089 8090 
3 8090 8091 
1 2202 8091 
2 14324 14325 
3 9553 9554 
1 6651 9553 
1 1050 9555 
3 9554 9555 
3 9064 9065 
1 9064 10854 
3 10853 10854 
2 1999 2000 
1 1999 7626 
3 10852 10853 
3 7624 7625 
1 7624 10852 
3 7625 7626 
2 2000 2001 
3 8843 8844 
3 21451 21452 
1 8844 21451 
3 10457 10458 
3 10456 10457 
1 7125 10456 
2 6650 6651 
2 6649 6650 
1 6649 10458 
2 7124 7125 
2 7123 7124 
3 209 210 
3 208 209 
3 1079 1080 
3 1078 1079 
1 210 1078 
2 10529 10530 
2 10528 10529 
2 7243 7244 
1 7243 10528 
2 7244 7245 
3 13054 13055 
1 7245 13054 
2 14818 14819 
3 1708 1709 
1 1708 14818 
3 21335 21336 
3 21482 21483 
1 20400 21483 
3 20399 20400 
3 20398 20399 
1 18777 20398 
3 18776 18777 
3 2593 2594 
1 2593 12015 
3 5935 5936 
3 5936 5937 
3 17026 17027 
3 17027 17028 
1 2595 8937 
3 2594 2595 
3 18775 18776 
1 12522 18775 
3 8936 8937 
3 12521 12522 
3 8935 8936 
1 8935 9729 
1 5937 15075 
3 4166 4167 
1 4167 14131 
3 14131 14132 
3 14132 14133 
2 14837 14838 
3 19819 19820 
2 14836 14837 
1 14836 19819 
2 4666 4667 
2 19195 19196 
2 19196 19197 
3 1709 1710 
3 2405 2406 
3 2404 2405 
3 5057 5058 
1 5058 20676 
3 3889 3890 
3 21334 21335 
1 8832 21334 
3 3890 3891 
3 2014 2015 
1 2014 2404 
3 2015 2016 
3 19270 19271 
3 19271 19272 
3 8368 8369 
1 8368 19272 
3 8831 8832 
3 8369 8370 
3 8830 8831 
1 8830 21237 
3 21236 21237 
3 21235 21236 
1 14691 21235 
3 14690 14691 
3 14689 14690 
3 18334 18335 
3 18335 18336 
3 1636 1637 
1 1636 7855 
3 7855 7856 
3 15074 15075 
3 15073 15074 
1 15073 18334 
3 7856 7857 
3 880 881 
1 880 7857 
3 881 882 
3 19202 19203 
3 12691 12692 
3 8686 8687 
1 8686 12691 
3 8687 8688 
3 12692 12693 
2 8953 8954 
2 8954 8955 
2 20132 20133 
2 20131 20132 
1 17955 20131 
2 19715 19716 
1 19716 20674 
2 17954 17955 
3 14743 14744 
3 20048 20049 
3 20674 20675 
3 14744 14745 
3 20675 20676 
3 211 212 
1 211 13633 
3 13633 13634 
3 13634 13635 
1 13635 20049 
3 212 213 
3 13423 13424 
1 13423 14745 
3 2246 2247 
1 9207 9583 
3 9583 9584 
3 9584 9585 
3 16135 16136 
1 2247 16135 
3 7507 7508 
1 7507 9585 
1 2016 2245 
3 2245 2246 
3 14582 14583 
3 6400 6401 
1 6400 14581 
3 14581 14582 
3 1394 1395 
3 4183 4184 
1 4183 18336 
3 4184 4185 
1 4185 10734 
3 10733 10734 
3 7382 7383 
1 17913 20182 
3 20182 20183 
3 20183 20184 
3 19777 19778 
1 19777 20184 
3 19778 19779 
3 10732 10733 
3 4867 4868 
1 4867 10732 
3 3061 3062 
3 3062 3063 
3 2182 2183 
1 2182 2269 
3 2183 2184 
3 2269 2270 
1 2184 7615 
3 7615 7616 
3 2270 2271 
1 12693 17724 
3 17723 17724 
3 17722 17723 
3 8783 8784 
3 8782 8783 
3 3328 3329 
1 3328 8782 
3 3329 3330 
1 3330 6952 
3 6952 6953 
2 17953 17954 
1 12783 17953 
3 12781 12782 
3 11734 11735 
1 11734 12781 
3 12782 12783 
3 2068 2069 
1 2068 11992 
3 11992 11993 
3 11993 11994 
1 11994 13425 
3 13424 13425 
3 8224 8225 
1 8224 21106 
3 12838 12839 
3 3529 3530 
1 3531 8226 
3 3530 3531 
3 8225 8226 
3 11035 11036 
1 11035 14772 
1 3885 7383 
3 11036 11037 
3 7381 7382 
1 7381 11037 
3 5068 5069 
1 5068 18972 
3 5069 5070 
3 18971 18972 
3 18970 18971 
1 9396 10725 
1 7722 19723 
3 10106 10107 
3 9395 9396 
3 9394 9395 
1 9394 10107 
3 18385 18386 
3 18386 18387 
3 14075 14076 
3 4271 4272 
3 4270 4271 
1 4270 14076 
3 7721 7722 
3 7720 7721 
3 841 842 
1 841 7720 
1 4272 10440 
1 6954 17745 
3 6953 6954 
3 17744 17745 
3 17743 17744 
2 17383 17384 
1 17383 17743 
2 21296 21297 
2 21295 21296 
3 17692 17693 
3 12839 12840 
1 14622 19356 
3 19355 19356 
3 19354 19355 
3 3442 3443 
1 3442 19354 
3 12551 12552 
3 12550 12551 
3 1919 1920 
3 1918 1919 
1 1918 16066 
1 10143 12550 
3 21107 21108 
3 4045 4046 
1 1920 9549 
3 9548 9549 
3 9547 9548 
1 9547 11617 
1 612 10563 
3 13489 13490 
3 611 612 
1 2685 12420 
1 5793 13489 
3 5792 5793 
3 5791 5792 
1 5791 13821 
3 5965 5966 
1 5965 19792 
3 19792 19793 
3 19793 19794 
3 5966 5967 
1 7605 19794 
3 15374 15375 
3 3800 3801 
3 13435 13436 
3 13436 13437 
3 3799 3800 
1 3799 5073 
3 2188 2189 
1 2188 16515 
3 12469 12470 
1 12469 19863 
1 4491 9469 
3 12470 12471 
3 19862 19863 
3 4490 4491 
3 1808 1809 
3 1807 1808 
1 1807 14379 
1 1809 7171 
2 7171 7172 
2 7172 7173 
2 5092 5093 
1 5092 7173 
3 16066 16067 
3 16067 16068 
1 351 16068 
3 350 351 
3 349 350 
1 349 17094 
3 821 822 
3 820 821 
1 820 9060 
1 7791 10561 
3 10561 10562 
3 10562 10563 
3 4895 4896 
3 9058 9059 
3 4894 4895 
1 4894 9058 
1 4896 16732 
3 16732 16733 
3 9059 9060 
3 7648 7649 
1 7648 11410 
3 16733 16734 
3 7604 7605 
3 7603 7604 
3 6859 6860 
1 6859 7603 
3 6860 6861 
3 7649 7650 
1 2421 7650 
2 11941 11942 
2 3631 3632 
1 3631 11941 
3 5072 5073 
3 2420 2421 
3 2419 2420 
1 2419 14662 
2 3632 3633 
3 2189 2190 
1 2190 3633 
2 16471 16472 
2 2315 2316 
1 2316 12267 
2 12266 12267 
2 5093 5094 
3 9674 9675 
3 17686 17687 
3 9673 9674 
1 9673 17686 
3 17687 17688 
1 7830 9675 
2 7829 7830 
3 9065 9066 
1 9066 17688 
3 5596 5597 
3 6838 6839 
1 6838 7978 
1 6840 11892 
3 6839 6840 
3 11890 11891 
3 11891 11892 
2 11942 11943 
1 3078 11890 
2 3076 3077 
1 3076 11943 
2 3077 3078 
2 11873 11874 
2 15215 15216 
2 15214 15215 
1 15214 16471 
2 2314 2315 
1 2314 15216 
2 7828 7829 
2 1405 1406 
2 1406 1407 
1 1407 3156 
3 3155 3156 
3 715 716 
1 715 3154 
3 3154 3155 
3 716 717 
3 17210 17211 
2 6113 6114 
2 6112 6113 
1 6112 19957 
3 19957 19958 
1 4668 8125 
3 8125 8126 
3 8126 8127 
1 8127 17209 
3 17209 17210 
3 13055 13056 
1 13056 13092 
2 17621 17622 
1 12360 17620 
2 17620 17621 
3 12359 12360 
3 12358 12359 
1 12358 17388 
3 12013 12014 
1 7929 12013 
3 7928 7929 
3 7927 7928 
1 7927 19405 
3 8164 8165 
1 8164 16987 
3 16987 16988 
3 12014 12015 
3 13091 13092 
3 13090 13091 
1 8166 13090 
3 8165 8166 
3 16988 16989 
1 16989 19959 
3 10651 10652 
1 10651 19383 
3 19958 19959 
3 12520 12521 
1 12520 19381 
3 19381 19382 
3 19382 19383 
3 10652 10653 
1 3753 14133 
3 9727 9728 
1 9727 15621 
3 9728 9729 
3 15620 15621 
3 15619 15620 
3 3752 3753 
3 11332 11333 
1 11332 15619 
3 21377 21378 
3 20681 20682 
3 11333 11334 
1 8949 11334 
3 20680 20681 
3 4633 4634 
1 4633 20680 
2 4667 4668 
1 19197 19555 
3 19555 19556 
3 19556 19557 
1 6303 19557 
1 2406 20491 
3 17387 17388 
3 20491 20492 
3 20492 20493 
3 17386 17387 
3 6302 6303 
3 3964 3965 
3 3965 3966 
3 14285 14286 
3 3985 3986 
1 3985 14284 
3 14284 14285 
3 8531 8532 
1 7509 14286 
1 8370 21231 
3 21230 21231 
3 21229 21230 
3 20434 20435 
1 882 1395 
3 3751 3752 
1 3751 5599 
3 5599 5600 
3 5600 5601 
1 5601 8235 
3 1861 1862 
3 11893 11894 
1 11893 17310 
3 11894 11895 
3 8234 8235 
1 11895 19779 
3 4634 4635 
1 7233 19821 
1 4635 21378 
3 7232 7233 
3 7231 7232 
1 7231 16108 
3 16108 16109 
3 19820 19821 
3 20689 20690 
3 4600 4601 
1 4600 9450 
3 4601 4602 
2 1889 1890 
1 1890 20133 
2 1888 1889 
2 19714 19715 
1 6129 19714 
2 6128 6129 
2 15572 15573 
2 6127 6128 
1 6127 15571 
2 15571 15572 
3 3754 3755 
1 3754 15573 
3 16130 16131 
1 16131 18507 
3 13334 13335 
1 13335 20493 
3 11342 11343 
3 13333 13334 
1 13333 16129 
3 16129 16130 
1 213 18607 
3 11341 11342 
1 3966 11611 
3 7508 7509 
3 6401 6402 
3 18607 18608 
3 18608 18609 
3 1390 1391 
1 1390 18609 
1 6402 11871 
3 11870 11871 
3 11869 11870 
1 11869 12337 
3 12337 12338 
3 12338 12339 
3 18634 18635 
3 1393 1394 
1 1393 18634 
3 18635 18636 
3 20435 20436 
3 3883 3884 
3 3127 3128 
1 3127 3883 
3 3128 3129 
1 3129 12352 
3 12352 12353 
3 8233 8234 
1 8233 12354 
3 12353 12354 
3 7616 7617 
1 7617 11490 
3 11489 11490 
3 8512 8513 
1 8512 17722 
3 8513 8514 
3 16109 16110 
3 7634 7635 
3 11488 11489 
1 11655 16110 
3 9449 9450 
3 9448 9449 
1 9448 20155 
3 20155 20156 
3 20156 20157 
1 5805 20157 
3 3443 3444 
1 3444 18697 
3 18697 18698 
3 18698 18699 
3 21239 21240 
3 10142 10143 
3 15329 15330 
3 15328 15329 
1 15330 18699 
3 10141 10142 
1 10141 11937 
3 11935 11936 
1 11343 11935 
3 4684 4685 
1 4684 15328 
3 4685 4686 
3 11936 11937 
3 11617 11618 
3 3254 3255 
1 3255 4686 
3 11618 11619 
3 2848 2849 
1 2848 11619 
3 2849 2850 
3 4793 4794 
3 3253 3254 
1 3253 21301 
3 21301 21302 
3 12419 12420 
3 3884 3885 
1 2850 18970 
3 12758 12759 
3 12418 12419 
1 12418 12759 
3 12757 12758 
1 12757 13894 
3 13894 13895 
3 15373 15374 
1 15373 18385 
3 4868 4869 
1 4869 15226 
3 15226 15227 
3 15227 15228 
3 13102 13103 
1 13102 15228 
1 9447 18387 
3 9446 9447 
3 9445 9446 
1 9445 13608 
3 10439 10440 
3 4489 4490 
1 4489 10438 
3 10438 10439 
3 2150 2151 
3 2149 2150 
1 2149 14377 
1 2151 7633 
3 7633 7634 
3 5803 5804 
3 14377 14378 
3 14378 14379 
3 5804 5805 
3 17693 17694 
3 17635 17636 
1 17635 17694 
3 17636 17637 
3 14620 14621 
3 6220 6221 
1 6220 14620 
3 6221 6222 
3 14621 14622 
3 21248 21249 
3 14555 14556 
3 21247 21248 
3 9443 9444 
3 9442 9443 
1 9442 21249 
3 2830 2831 
1 2830 9444 
3 2831 2832 
3 7688 7689 
3 14287 14288 
3 7687 7688 
1 7687 14287 
3 610 611 
1 2832 8797 
3 8797 8798 
1 10731 14526 
3 10730 10731 
3 10729 10730 
1 10729 18406 
3 13820 13821 
3 13819 13820 
1 13819 15904 
3 14524 14525 
3 5557 5558 
1 5557 14524 
3 14525 14526 
3 15904 15905 
3 5558 5559 
1 5559 14413 
3 5071 5072 
1 5071 7056 
3 14413 14414 
1 14415 17446 
3 14414 14415 
3 17446 17447 
3 17447 17448 
3 7055 7056 
3 16501 16502 
1 16501 20895 
3 16502 16503 
3 9470 9471 
3 9469 9470 
3 19861 19862 
3 15110 15111 
1 14448 19861 
3 15109 15110 
3 4570 4571 
1 4570 15109 
3 7054 7055 
1 7054 15111 
3 14447 14448 
3 14446 14447 
1 14446 15609 
3 13766 13767 
1 20019 21297 
2 20018 20019 
3 21163 21164 
2 20017 20018 
1 20017 21163 
3 21164 21165 
3 2543 2544 
3 17093 17094 
3 2542 2543 
1 2542 13986 
3 13985 13986 
3 13984 13985 
1 822 13984 
3 16321 16322 
1 16321 19036 
3 19036 19037 
1 16323 18408 
3 16322 16323 
3 18406 18407 
3 18407 18408 
3 15196 15197 
1 12798 15196 
3 15905 15906 
3 12797 12798 
3 12796 12797 
1 6861 15652 
3 15652 15653 
1 15906 16059 
3 16058 16059 
1 7980 12796 
3 15653 15654 
3 14662 14663 
3 16057 16058 
1 6528 14664 
3 6527 6528 
3 14663 14664 
2 16472 16473 
3 11878 11879 
1 11878 21364 
3 21364 21365 
3 11879 11880 
1 11880 16473 
3 21365 21366 
2 12265 12266 
1 13767 21366 
1 12387 21165 
3 12385 12386 
3 12386 12387 
3 847 848 
3 17092 17093 
1 17092 20968 
3 20968 20969 
3 20969 20970 
3 848 849 
1 849 8202 
3 7979 7980 
3 5597 5598 
3 17296 17297 
1 17296 20970 
3 12725 12726 
3 12724 12725 
1 12724 16164 
3 4514 4515 
1 4515 12726 
3 7978 7979 
3 6499 6500 
1 6499 13344 
3 6500 6501 
1 10992 15654 
2 2590 2591 
1 2590 6501 
2 2591 2592 
2 14494 14495 
1 2592 14494 
3 10990 10991 
1 10990 11872 
2 11872 11873 
3 10991 10992 
3 6217 6218 
1 6217 12265 
3 6218 6219 
2 14495 14496 
2 12587 12588 
2 12586 12587 
1 12586 20722 
2 20722 20723 
3 3532 3533 
2 2572 2573 
2 19040 19041 
1 12327 19041 
3 19405 19406 
3 3533 3534 
3 5368 5369 
1 3534 5368 
3 19406 19407 
3 10681 10682 
1 10681 19407 
3 10682 10683 
3 8776 8777 
1 8776 17683 
3 17683 17684 
3 6025 6026 
1 6025 10653 
3 6026 6027 
3 163 164 
1 163 6027 
3 17684 17685 
3 164 165 
3 10159 10160 
3 532 533 
1 532 10159 
3 10160 10161 
3 8947 8948 
1 8947 10161 
3 8948 8949 
3 20279 20280 
3 20278 20279 
3 10906 10907 
1 10906 20280 
2 19039 19040 
1 288 19039 
3 287 288 
3 6301 6302 
3 286 287 
1 286 20881 
3 20881 20882 
3 20882 20883 
1 1965 20883 
3 13654 13655 
1 5289 13654 
3 3986 3987 
3 8530 8531 
1 10683 10777 
3 10777 10778 
1 3648 3987 
3 3647 3648 
3 3646 3647 
3 895 896 
1 895 3646 
3 10778 10779 
3 2809 2810 
1 2811 12339 
1 14001 17685 
3 2810 2811 
3 14000 14001 
3 13999 14000 
1 7314 13999 
3 533 534 
3 17309 17310 
1 534 1863 
3 1862 1863 
3 21376 21377 
1 20472 21597 
3 7312 7313 
1 1617 7312 
3 17308 17309 
3 1615 1616 
1 1615 17308 
3 1616 1617 
3 18941 18942 
3 18940 18941 
3 20470 20471 
1 20470 21376 
3 20471 20472 
3 20690 20691 
1 18942 20691 
3 10873 10874 
1 10873 11493 
3 10874 10875 
3 17765 17766 
3 17764 17765 
3 12886 12887 
1 12886 17764 
1 1242 17766 
2 1241 1242 
2 1240 1241 
3 15814 15815 
1 5352 15814 
3 3755 3756 
1 3756 11613 
3 19501 19502 
1 7014 19501 
3 7013 7014 
3 7012 7013 
3 11611 11612 
3 13655 13656 
3 11612 11613 
3 19502 19503 
1 7839 13656 
3 7838 7839 
3 7837 7838 
1 7837 11368 
3 18506 18507 
3 11368 11369 
3 1391 1392 
3 20696 20697 
1 11322 20697 
3 20695 20696 
3 9511 9512 
1 9511 20695 
1 20436 20976 
3 11321 11322 
3 20975 20976 
3 20974 20975 
3 15310 15311 
1 15310 20974 
3 15311 15312 
1 13896 15312 
3 11320 11321 
3 16730 16731 
3 16729 16730 
3 16480 16481 
1 16480 16729 
3 10366 10367 
1 10366 21525 
3 10367 10368 
1 3798 11488 
3 11654 11655 
3 11653 11654 
1 10368 11653 
1 6288 10875 
3 6287 6288 
3 6286 6287 
1 6286 7635 
3 11800 11801 
3 11801 11802 
2 11053 11054 
2 11054 11055 
3 15815 15816 
3 15478 15479 
1 15478 17637 
3 15479 15480 
1 15480 15816 
1 6222 8775 
3 10783 10784 
1 10783 21238 
3 21238 21239 
3 10784 10785 
3 18505 18506 
1 3546 18505 
3 3545 3546 
3 11369 11370 
3 10858 10859 
3 10859 10860 
1 10860 17061 
3 17060 17061 
3 3544 3545 
1 3544 18112 
3 18112 18113 
3 8798 8799 
3 21302 21303 
1 6090 21303 
1 4794 8799 
3 17059 17060 
3 6089 6090 
3 6088 6089 
1 6088 13929 
3 17690 17691 
3 13895 13896 
3 4792 4793 
1 4792 10504 
3 10504 10505 
3 10505 10506 
1 10506 17691 
1 5967 13104 
3 13103 13104 
3 16481 16482 
3 13606 13607 
1 13606 16482 
3 13607 13608 
3 3797 3798 
3 3796 3797 
1 3796 14364 
3 15607 15608 
3 14362 14363 
1 14362 15607 
3 14363 14364 
3 15608 15609 
3 2432 2433 
3 2431 2432 
1 2433 7144 
2 7144 7145 
2 7145 7146 
2 2947 2948 
2 2948 2949 
3 15080 15081 
3 2999 3000 
1 3000 15081 
3 2998 2999 
1 2998 21247 
3 20761 20762 
1 16587 20761 
3 16586 16587 
3 14288 14289 
3 20762 20763 
3 1360 1361 
1 1362 2712 
3 1361 1362 
3 19258 19259 
3 14713 14714 
1 14713 19258 
3 19259 19260 
3 14714 14715 
3 14987 14988 
3 7253 7254 
1 12120 14988 
3 14986 14987 
1 2193 17448 
1 6093 7252 
3 7252 7253 
3 6092 6093 
3 6091 6092 
1 6091 18750 
3 4571 4572 
1 4572 19339 
3 19339 19340 
3 14248 14249 
1 14248 15438 
3 14249 14250 
3 2192 2193 
3 2191 2192 
1 2191 6502 
3 6502 6503 
3 6503 6504 
3 16267 16268 
3 16358 16359 
3 142 143 
1 142 16357 
3 16357 16358 
3 143 144 
3 13765 13766 
1 144 13765 
3 12893 12894 
3 12892 12893 
3 15023 15024 
1 2949 15022 
3 15022 15023 
1 15024 18414 
3 18413 18414 
3 18412 18413 
1 18412 18684 
1 19038 20763 
3 19037 19038 
3 5075 5076 
3 5074 5075 
3 12182 12183 
3 15197 15198 
3 14404 14405 
1 14404 16614 
1 14406 15198 
3 14405 14406 
3 20389 20390 
1 8985 20389 
1 5076 17298 
3 8983 8984 
3 8984 8985 
3 12118 12119 
3 20390 20391 
3 13342 13343 
3 12119 12120 
1 11205 18621 
3 11203 11204 
1 11203 13342 
3 13343 13344 
3 18749 18750 
3 11204 11205 
3 20894 20895 
3 13225 13226 
1 13225 18895 
3 13226 13227 
1 13227 20212 
3 20212 20213 
3 20213 20214 
3 20893 20894 
1 9939 20893 
3 9938 9939 
3 9937 9938 
1 9937 11098 
3 11098 11099 
3 11099 11100 
1 11100 16267 
3 15034 15035 
3 15035 15036 
3 2702 2703 
3 2701 2702 
1 2701 15034 
3 12181 12182 
2 8201 8202 
2 8200 8201 
3 17297 17298 
3 21244 21245 
3 21245 21246 
3 4513 4514 
1 4513 4623 
3 4622 4623 
3 4621 4622 
1 4621 21555 
3 21554 21555 
3 2029 2030 
3 21553 21554 
3 6526 6527 
1 6526 18897 
3 18895 18896 
3 18896 18897 
3 3779 3780 
2 16162 16163 
2 16163 16164 
1 20724 20931 
2 20723 20724 
3 20930 20931 
3 20929 20930 
1 13419 20929 
3 4748 4749 
3 4747 4748 
1 4747 15372 
1 4749 21201 
3 13418 13419 
3 4438 4439 
3 4439 4440 
3 3400 3401 
1 3400 4440 
3 3401 3402 
3 15595 15596 
3 10702 10703 
1 10702 15595 
3 10703 10704 
3 13417 13418 
3 12160 12161 
1 12160 13417 
3 12161 12162 
3 3418 3419 
1 3418 12162 
3 3419 3420 
3 21199 21200 
3 21200 21201 
1 2574 3784 
2 2573 2574 
3 3784 3785 
3 3785 3786 
3 12326 12327 
3 12325 12326 
1 2133 12325 
3 2132 2133 
3 2131 2132 
1 2131 20785 
3 6962 6963 
3 1964 1965 
3 3142 3143 
1 3142 6565 
3 6565 6566 
3 6566 6567 
3 3143 3144 
3 20231 20232 
3 20230 20231 
3 3748 3749 
1 3748 20230 
1 5370 6567 
3 5369 5370 
1 8778 9807 
3 3749 3750 
3 9806 9807 
3 9805 9806 
1 3750 15597 
3 8777 8778 
1 3402 6669 
3 6668 6669 
3 6667 6668 
1 165 11988 
3 9722 9723 
3 4213 4214 
3 4214 4215 
1 4215 18586 
3 18586 18587 
3 18587 18588 
1 7524 18588 
3 7523 7524 
3 11987 11988 
1 3786 13314 
3 10907 10908 
3 13312 13313 
3 13313 13314 
3 20785 20786 
3 2957 2958 
3 589 590 
1 589 2958 
3 2956 2957 
1 2956 20787 
3 6961 6962 
3 5287 5288 
3 5288 5289 
3 1963 1964 
1 1963 11223 
3 896 897 
3 11222 11223 
3 11221 11222 
1 11221 20032 
3 20032 20033 
3 20033 20034 
1 3054 10779 
3 3053 3054 
3 14312 14313 
3 14311 14312 
1 14311 15774 
3 9721 9722 
1 6978 9721 
3 6977 6978 
3 6976 6977 
3 3052 3053 
1 3052 4980 
1 4446 20034 
3 4979 4980 
3 7313 7314 
3 7522 7523 
1 7522 17268 
1 19518 21292 
3 19517 19518 
3 21292 21293 
3 11986 11987 
1 11986 19516 
3 19516 19517 
3 21596 21597 
3 21595 21596 
3 3712 3713 
1 3712 21595 
3 3713 3714 
3 17267 17268 
3 11491 11492 
3 17266 17267 
3 6814 6815 
1 6814 11491 
3 6815 6816 
1 6816 17266 
3 11492 11493 
1 3714 8997 
3 12887 12888 
3 12121 12122 
1 12121 12888 
3 12122 12123 
3 5677 5678 
1 5677 12123 
3 5678 5679 
2 4753 4754 
2 4754 4755 
3 5350 5351 
3 5351 5352 
1 591 19503 
3 590 591 
3 8341 8342 
1 147 8341 
3 19528 19529 
3 19529 19530 
3 8342 8343 
3 3067 3068 
1 3067 8343 
3 11849 11850 
3 11848 11849 
1 9513 11848 
3 3121 3122 
1 3121 11850 
1 6765 13626 
3 3122 3123 
3 9512 9513 
3 15773 15774 
3 6479 6480 
3 15772 15773 
3 6478 6479 
1 6478 15772 
3 6764 6765 
3 7660 7661 
1 7660 11320 
3 7661 7662 
3 4978 4979 
1 4978 18081 
3 5482 5483 
1 5482 15481 
3 5483 5484 
1 1536 5484 
3 9283 9284 
1 9283 16731 
3 21293 21294 
3 4708 4709 
1 4708 21294 
3 19447 19448 
1 9285 19447 
3 9284 9285 
3 19448 19449 
3 4709 4710 
1 4710 16665 
3 2894 2895 
3 2893 2894 
1 2893 19852 
3 3095 3096 
3 8996 8997 
3 8995 8996 
1 3096 8995 
1 2895 9225 
3 10070 10071 
3 10069 10070 
1 10069 19707 
3 9224 9225 
1 7629 10071 
3 1984 1985 
3 1985 1986 
3 16511 16512 
3 16510 16511 
1 16512 19705 
3 19705 19706 
3 3094 3095 
3 19706 19707 
1 1986 3094 
3 1757 1758 
1 1758 3909 
3 1756 1757 
1 1756 10356 
1 4755 16510 
3 10969 10970 
3 10970 10971 
3 14554 14555 
1 8457 14554 
3 8774 8775 
3 8773 8774 
3 8456 8457 
3 146 147 
3 145 146 
1 145 8455 
3 8455 8456 
3 18113 18114 
1 11982 18114 
3 11981 11982 
3 11980 11981 
3 2711 2712 
3 14626 14627 
3 2710 2711 
1 2710 14626 
1 6480 13927 
3 10468 10469 
1 10468 11980 
1 10041 17059 
3 13927 13928 
3 6763 6764 
1 6763 10039 
3 10039 10040 
3 10040 10041 
3 10469 10470 
3 10262 10263 
1 10263 10470 
3 13928 13929 
3 10261 10262 
1 15483 17689 
3 17689 17690 
3 14627 14628 
3 9532 9533 
1 9532 14628 
3 9533 9534 
1 9534 12496 
3 12496 12497 
3 15482 15483 
3 15481 15482 
3 3601 3602 
1 3601 7254 
1 2742 10261 
3 12497 12498 
1 11715 12498 
3 21524 21525 
3 3602 3603 
3 11714 11715 
3 11713 11714 
1 11713 21061 
3 21061 21062 
3 3403 3404 
1 3403 3603 
3 21523 21524 
1 3405 21523 
3 3404 3405 
3 16664 16665 
3 21062 21063 
3 19340 19341 
1 6504 14635 
3 9223 9224 
1 6615 9223 
3 6614 6615 
3 6613 6614 
1 6613 19341 
3 14635 14636 
3 14636 14637 
3 3907 3908 
1 3907 14637 
3 16871 16872 
3 3908 3909 
3 4429 4430 
1 4429 16870 
3 16870 16871 
3 15079 15080 
3 13768 13769 
1 13768 15079 
3 17285 17286 
3 6701 6702 
1 6702 17286 
3 2779 2780 
1 12345 21228 
3 21227 21228 
3 16585 16586 
1 16585 19134 
3 17284 17285 
3 18682 18683 
1 18682 21226 
3 21226 21227 
3 13531 13532 
1 13531 17284 
3 19133 19134 
3 697 698 
1 697 19260 
3 698 699 
1 699 20107 
3 3223 3224 
3 4888 4889 
1 4888 14986 
3 13543 13544 
3 4889 4890 
1 4353 4890 
1 7902 13543 
3 7901 7902 
1 13545 21570 
3 13544 13545 
3 15437 15438 
3 15436 15437 
1 11733 15436 
3 11732 11733 
3 1748 1749 
1 1749 11731 
3 11731 11732 
3 11150 11151 
3 12091 12092 
3 11149 11150 
1 11149 12091 
3 16268 16269 
3 3809 3810 
3 6922 6923 
3 6923 6924 
1 12231 16269 
3 12229 12230 
1 12229 13105 
3 12230 12231 
3 18683 18684 
3 1981 1982 
1 1981 6723 
3 1982 1983 
1 1983 13533 
3 13532 13533 
3 16613 16614 
3 6722 6723 
3 16612 16613 
3 6721 6722 
1 6721 16612 
3 14813 14814 
1 3303 16218 
3 16216 16217 
3 16217 16218 
3 3224 3225 
3 12889 12890 
3 14023 14024 
1 12891 14023 
3 12890 12891 
3 18620 18621 
3 18619 18620 
3 18604 18605 
3 14024 14025 
1 14025 21553 
3 18605 18606 
3 18748 18749 
1 12093 18748 
3 12092 12093 
3 1843 1844 
1 1843 8517 
3 1844 1845 
1 1845 18604 
1 13107 16375 
3 8516 8517 
2 16375 16376 
2 16376 16377 
3 13105 13106 
3 13106 13107 
3 16549 16550 
3 16550 16551 
1 2031 16551 
3 2030 2031 
2 1763 1764 
2 8018 8019 
2 1762 1763 
1 1762 8019 
2 8017 8018 
3 3778 3779 
1 3778 8515 
3 8515 8516 
3 3008 3009 
3 3007 3008 
2 15370 15371 
2 15371 15372 
3 3742 3743 
3 908 909 
2 19670 19671 
1 909 19671 
3 6551 6552 
1 6552 19645 
3 19645 19646 
3 6550 6551 
3 4142 4143 
3 6758 6759 
1 5550 6759 
3 4141 4142 
1 4141 6757 
3 6757 6758 
3 5549 5550 
3 9856 9857 
1 9856 17956 
3 19646 19647 
2 10403 10404 
1 3744 10404 
2 10402 10403 
3 3743 3744 
1 3420 11814 
3 17956 17957 
1 11265 17958 
2 11264 11265 
3 15596 15597 
3 907 908 
1 907 12813 
3 12812 12813 
3 12811 12812 
3 4075 4076 
1 4075 12811 
3 4076 4077 
1 3867 9805 
3 3866 3867 
3 3865 3866 
1 3865 4417 
3 5548 5549 
1 9723 18424 
3 18424 18425 
3 9857 9858 
3 15934 15935 
1 9858 15934 
3 18425 18426 
3 15935 15936 
3 11813 11814 
3 11812 11813 
1 11349 11812 
3 11347 11348 
1 11347 18030 
3 11348 11349 
2 11263 11264 
3 13742 13743 
3 13741 13742 
3 20786 20787 
3 1696 1697 
1 1696 20232 
3 1697 1698 
3 11027 11028 
3 16121 16122 
1 11028 16122 
3 13049 13050 
3 13048 13049 
3 11026 11027 
1 11026 14313 
1 3876 4419 
1 4077 17424 
3 17423 17424 
3 17422 17423 
1 10362 17422 
3 4445 4446 
3 4417 4418 
3 4418 4419 
3 10612 10613 
1 10612 18426 
3 4444 4445 
1 3813 4444 
3 3812 3813 
3 3811 3812 
1 3811 14545 
3 5480 5481 
3 5479 5480 
1 5479 6268 
3 6268 6269 
1 5481 19449 
3 14545 14546 
3 6269 6270 
3 14546 14547 
3 20891 20892 
3 20890 20891 
3 1136 1137 
1 5679 10354 
3 10354 10355 
3 1135 1136 
1 1135 15787 
2 15787 15788 
3 3068 3069 
1 3123 13048 
1 3069 19753 
3 19753 19754 
3 19754 19755 
3 13625 13626 
3 1535 1536 
3 2596 2597 
3 542 543 
1 543 13624 
3 13624 13625 
3 541 542 
1 541 2596 
3 10361 10362 
3 10360 10361 
1 10360 12313 
3 12313 12314 
3 12314 12315 
3 1534 1535 
1 1534 12336 
3 4192 4193 
1 4192 10639 
3 10639 10640 
3 18080 18081 
3 18079 18080 
1 10641 18079 
3 10640 10641 
3 15670 15671 
3 6736 6737 
1 6736 15670 
3 15671 15672 
3 19852 19853 
1 15672 19854 
3 19853 19854 
3 7628 7629 
3 7627 7628 
1 7627 16075 
3 11629 11630 
1 11629 12618 
3 12616 12617 
1 1137 12616 
3 11630 11631 
3 12617 12618 
2 15788 15789 
3 10355 10356 
3 9314 9315 
3 13769 13770 
1 13770 18487 
3 18487 18488 
3 18488 18489 
3 17986 17987 
3 11641 11642 
1 11641 17986 
3 11642 11643 
1 11643 19132 
3 19132 19133 
3 7900 7901 
1 3336 12315 
3 17987 17988 
3 12334 12335 
1 12334 17988 
3 20107 20108 
3 12335 12336 
3 20108 20109 
3 3335 3336 
3 3334 3335 
1 3334 20109 
3 4352 4353 
3 6737 6738 
3 2741 2742 
3 2740 2741 
1 2740 6738 
3 4351 4352 
1 4351 13075 
3 13075 13076 
3 13076 13077 
1 13077 17269 
1 19809 20946 
3 19808 19809 
3 19807 19808 
3 16663 16664 
1 16663 18453 
3 18452 18453 
3 18451 18452 
1 18451 19807 
3 3808 3809 
1 3808 13374 
3 16075 16076 
1 11631 16497 
3 16495 16496 
1 16495 21063 
3 16496 16497 
3 13372 13373 
1 13372 16077 
3 13373 13374 
3 16076 16077 
3 4738 4739 
1 4738 16359 
3 4739 4740 
3 7865 7866 
3 7864 7865 
1 7866 14029 
1 4431 7864 
3 4430 4431 
2 10579 10580 
3 6700 6701 
1 6700 10579 
2 10580 10581 
3 12344 12345 
3 2780 2781 
1 2781 16972 
3 16972 16973 
3 16973 16974 
1 8010 12220 
3 12220 12221 
3 12221 12222 
3 8009 8010 
3 12343 12344 
1 12343 15631 
3 15631 15632 
3 14812 14813 
3 15632 15633 
1 15633 21568 
3 21568 21569 
3 21569 21570 
1 11574 14872 
3 14872 14873 
3 11573 11574 
3 11572 11573 
1 11151 20944 
3 20944 20945 
3 1747 1748 
1 1747 11572 
3 20945 20946 
3 20140 20141 
1 18969 20140 
3 20141 20142 
3 3523 3524 
1 3525 6924 
3 3524 3525 
3 18967 18968 
3 18968 18969 
3 8008 8009 
2 3302 3303 
3 4952 4953 
3 4951 4952 
2 3301 3302 
1 3301 4951 
2 2248 2249 
1 2248 16377 
2 2249 2250 
2 19669 19670 
3 5995 5996 
3 2533 2534 
1 2533 5995 
3 5027 5028 
1 3288 19647 
3 3287 3288 
3 3286 3287 
1 3286 15852 
3 17957 17958 
3 15851 15852 
3 15850 15851 
1 15850 20008 
3 20008 20009 
2 722 723 
2 721 722 
3 12614 12615 
1 12615 17736 
1 723 20379 
3 12613 12614 
1 12613 16120 
3 19174 19175 
3 17735 17736 
3 7718 7719 
3 5996 5997 
3 17734 17735 
3 7717 7718 
1 7717 17734 
3 1726 1727 
1 7719 15936 
3 1727 1728 
1 1728 4585 
3 4585 4586 
3 2534 2535 
1 2535 6754 
3 6754 6755 
1 6756 17328 
3 5455 5456 
1 5455 18736 
3 17327 17328 
3 17326 17327 
1 4506 17326 
3 6755 6756 
3 18736 18737 
3 18029 18030 
3 4505 4506 
3 18028 18029 
3 4504 4505 
1 4504 18028 
3 16393 16394 
3 8111 8112 
3 20378 20379 
3 20377 20378 
1 8112 20377 
3 16120 16121 
3 8110 8111 
1 8110 17295 
3 17294 17295 
3 346 347 
3 19175 19176 
1 348 19176 
3 347 348 
3 2597 2598 
3 3875 3876 
1 2598 3874 
3 3874 3875 
3 4586 4587 
1 4587 7446 
3 7445 7446 
3 13475 13476 
3 10613 10614 
3 5456 5457 
3 4193 4194 
3 4835 4836 
1 8079 10614 
1 4194 4834 
3 4834 4835 
1 4836 5457 
3 8078 8079 
3 12127 12128 
1 12127 18270 
3 20756 20757 
1 7953 20755 
3 20755 20756 
3 18268 18269 
3 18269 18270 
3 7951 7952 
1 7951 20892 
3 7952 7953 
1 5037 13476 
3 5036 5037 
3 5035 5036 
1 5035 15172 
3 15172 15173 
3 15173 15174 
3 7444 7445 
1 7444 12669 
3 8077 8078 
1 7365 8077 
3 6002 6003 
3 7364 7365 
3 12668 12669 
1 6003 17271 
3 7363 7364 
3 17270 17271 
3 3586 3587 
1 3586 14547 
3 3587 3588 
1 3588 18469 
3 18469 18470 
3 11084 11085 
3 9313 9314 
3 731 732 
3 730 731 
1 730 19666 
3 19666 19667 
3 19667 19668 
2 12733 12734 
1 12733 19668 
3 15893 15894 
1 11616 15174 
3 11615 11616 
3 11614 11615 
1 11614 11677 
3 11677 11678 
3 15892 15893 
3 11678 11679 
3 21008 21009 
3 13276 13277 
3 17269 17270 
3 13277 13278 
3 21007 21008 
3 18470 18471 
3 9766 9767 
3 9767 9768 
3 19247 19248 
3 19246 19247 
3 17374 17375 
3 17375 17376 
3 16084 16085 
1 16084 17376 
3 14539 14540 
3 14540 14541 
2 14029 14030 
2 14030 14031 
2 2503 2504 
1 2503 12222 
2 2504 2505 
2 16594 16595 
1 2505 16594 
2 16595 16596 
3 14873 14874 
3 12823 12824 
1 12823 14874 
3 12824 12825 
3 358 359 
3 359 360 
1 360 687 
2 7372 7373 
1 7372 12825 
3 11903 11904 
3 11902 11903 
1 11902 20142 
3 5026 5027 
3 14825 14826 
3 10922 10923 
1 10923 14826 
3 10921 10922 
3 3542 3543 
3 3541 3542 
1 3541 19063 
3 18737 18738 
3 20009 20010 
1 16395 20010 
3 16394 16395 
2 2521 2522 
1 2521 13591 
3 13591 13592 