ITEM: TIMESTEP
40000000
ITEM: NUMBER OF ATOMS
1608
ITEM: BOX BOUNDS pp pp pp
0.0000000000000000e+00 5.0000000000000000e+01
0.0000000000000000e+00 5.0000000000000000e+01
0.0000000000000000e+00 5.0000000000000000e+01
ITEM: ATOMS id type vx vy vz 
2971 1 4.04815 2.94534 -4.52943 
2972 2 -2.11125 0.906836 5.27537 
17855 2 -1.24225 -1.59086 -0.775031 
1417 1 1.88894 1.49154 -1.86219 
1418 3 -2.5149 -0.613011 0.730062 
1419 1 -1.23086 -3.38567 0.664739 
17854 1 -1.51469 -2.49835 -1.85866 
17856 1 -3.60786 -0.0441177 -0.504161 
10219 1 -1.92513 -0.469175 -4.76491 
2445 1 -4.55924 2.43619 6.12875 
2443 1 5.6511 -0.302604 -3.38436 
2444 2 -0.541151 -4.87656 -0.646657 
14866 1 -3.62604 -1.17751 -0.236238 
14867 3 -2.20066 -3.17958 0.410744 
14868 1 3.46522 -1.39412 0.602807 
3205 1 -1.5748 6.1197 7.01043 
3794 2 3.37151 -1.52024 -1.24846 
3793 1 3.43714 1.25876 3.0166 
3795 1 -3.38253 -3.75025 -2.61086 
9421 1 -0.631548 2.02224 -0.169812 
2281 1 -0.612516 2.36485 -7.45395 
6490 1 -0.824281 -0.63721 -0.446078 
6492 1 -2.22048 2.34554 5.77291 
6491 2 2.96002 -0.268244 4.87832 
4795 1 4.50402 -2.23462 -2.42045 
3019 1 6.01055 -2.43077 -1.50779 
14971 1 4.45637 1.82794 9.10745 
16332 1 0.0653274 4.69644 1.08426 
16331 2 -1.61089 2.54696 3.42 
3678 1 0.321282 2.80702 -6.07314 
3677 2 -0.459034 0.811609 0.343304 
2283 1 1.05907 -5.5863 2.15251 
2282 2 1.647 0.255989 1.18279 
1350 1 0.800087 1.06414 -2.54224 
3020 3 -4.54711 -1.17309 -1.63289 
3021 1 -0.634492 -2.69077 -0.176469 
3465 1 2.64612 -2.01246 -4.444 
3464 2 -4.84989 2.61288 4.91806 
3463 1 1.83206 -1.56105 -0.78082 
6543 1 -1.06784 1.21036 0.295202 
6020 2 -1.89046 4.06201 6.71132 
14972 2 -1.78149 2.57384 1.15828 
6019 1 -1.8654 1.72175 4.61097 
17853 1 1.99316 -4.90385 -0.392102 
17852 2 0.927077 3.19193 1.22965 
17851 1 -3.67752 4.4966 -0.527547 
14973 1 7.64536 4.6827 -1.41601 
5461 1 -2.87745 -3.20323 -5.3655 
11111 2 -3.1152 -1.18407 -2.08813 
11112 1 1.41936 -3.88771 -4.98105 
19878 1 0.102384 2.68836 1.28752 
19877 2 1.08524 -1.60027 3.15434 
1685 2 1.81393 1.44408 -2.28597 
19876 1 1.62261 -3.98221 1.29313 
11110 1 -3.30108 -4.92024 2.22512 
4999 1 3.31184 3.73373 -7.93259 
5000 2 -0.365006 -0.0680789 4.44563 
3676 1 -7.37354 1.28737 -1.24081 
2973 1 -0.659651 1.58497 -3.91866 
1684 1 0.662438 -0.324703 -1.4425 
2670 1 -0.322532 0.935978 -2.27404 
5001 1 3.4912 4.04819 3.43907 
20841 1 1.63457 2.45592 0.315683 
20840 2 -2.15719 -0.637778 0.068451 
20839 1 -2.91484 0.163627 -0.27195 
13773 1 -1.44423 -3.38915 -0.872991 
13716 1 -2.74346 1.08804 1.27565 
1686 1 -4.87315 1.38415 -3.56952 
2669 2 0.887271 -6.13694 -0.436799 
2668 1 -3.28128 1.9792 1.92453 
6672 1 1.10587 0.826383 8.74097 
6671 2 1.26448 0.379771 -3.02094 
4391 2 3.59332 -0.174219 -0.946694 
4390 1 -1.63494 8.01303 -2.29347 
4392 1 -3.10435 -1.25518 0.652613 
6670 1 -1.95435 2.83989 -2.31819 
14419 1 3.93756 1.41369 -1.88187 
156 1 1.90467 0.940477 -2.77235 
1022 2 1.92505 2.30715 -2.06597 
14010 1 1.68065 -1.50242 0.811997 
14420 2 -2.56361 2.73777 0.663249 
14421 1 -1.51602 7.20011 1.26104 
17857 1 -1.30518 1.95129 7.04742 
17859 1 -1.1613 2.52209 1.84491 
8041 1 0.717205 2.46164 0.536612 
17858 2 3.90093 -4.87709 3.07451 
6021 1 5.35377 2.35425 -0.668481 
21348 1 -1.75021 2.31358 -7.5053 
21347 2 -3.73092 -2.51564 -3.81121 
21346 1 1.53833 2.73387 -1.84152 
6804 1 -1.42382 2.08863 -9.4596 
21397 1 2.47733 -0.444885 1.31314 
21398 2 -2.92959 2.25193 0.184108 
21399 1 1.408 -0.347098 -5.08241 
10221 1 -4.00786 -0.206506 -0.257096 
9589 1 -0.531712 -1.37659 0.177914 
4816 1 -5.20363 0.283158 0.274353 
13772 2 -1.9938 -2.25702 -1.5806 
9424 1 1.17061 -2.21832 6.90209 
6982 1 -2.25736 4.29505 -1.07309 
9425 2 -0.436909 -1.45968 -1.94864 
9426 1 -2.99474 -6.6839 0.154544 
10220 2 -0.868127 5.06079 -7.92267 
155 2 -0.137452 1.15525 4.36088 
14008 1 2.04573 -3.60301 5.79953 
1023 1 0.387879 6.23336 0.734835 
14009 2 0.783116 -1.63259 3.56581 
703 1 -1.07204 9.73994 -5.59327 
1021 1 -4.6082 -7.03402 -1.74298 
704 2 4.99751 2.54514 0.90674 
32 3 0.659747 -0.0875046 -0.184176 
31 1 2.13313 -2.37737 0.209663 
4737 1 -1.39464 8.11752 -1.34946 
19335 1 -2.80437 -1.90132 -9.08423 
19334 2 3.98885 2.37462 1.16139 
19333 1 0.212302 3.83775 6.85673 
607 1 1.78784 3.82066 -0.38979 
608 2 -0.940331 1.02143 2.75597 
3206 2 -2.92387 1.0227 2.78209 
10378 1 8.14347 -4.13857 1.63309 
3207 1 -0.572774 -0.0585903 -0.521011 
609 1 -4.6191 -1.6318 -1.53744 
8730 1 2.34284 -1.7093 -1.16224 
10379 2 -1.77156 2.2941 -1.27396 
8729 2 0.384487 -4.18403 1.77295 
6983 2 0.433823 0.684113 -0.512696 
6984 1 -0.500221 7.52671 -1.96034 
10380 1 1.71063 0.892836 2.29757 
11029 1 -3.01153 -5.31957 2.8762 
11030 2 -0.850081 -0.296682 -0.185845 
11031 1 -2.0745 -1.93236 -1.32031 
11071 1 2.45697 1.51592 -1.88184 
11072 2 1.76868 -1.0172 1.10371 
14586 1 -2.62427 -0.894446 1.22854 
11073 1 5.90045 -0.252079 -4.07326 
33 1 -1.67306 0.626261 4.70823 
5191 1 -2.35319 1.18479 -0.49413 
3371 3 1.34521 -2.02909 0.833461 
3370 1 -5.66086 1.97574 -3.94994 
3372 1 6.26146 -0.219085 -2.96932 
20991 1 0.948831 2.33006 -2.43714 
5192 2 -0.588046 -0.253121 1.88176 
5193 1 -1.5916 -6.1297 -1.14723 
12528 1 2.317 3.30414 -1.22968 
12526 1 -2.49231 -2.13884 -3.53104 
12527 2 0.829175 0.103122 1.58067 
7556 2 2.17513 -0.603347 -3.17047 
7557 1 -6.16444 2.26369 -8.30216 
1288 1 -0.813751 0.127996 3.91461 
1290 1 -1.31781 -5.01847 0.493839 
1289 2 0.662265 1.87005 0.896012 
565 1 -1.19488 3.55832 1.28888 
12876 1 -3.39753 9.29399 2.26516 
566 2 -2.25077 -3.2332 3.45297 
9422 2 1.74608 2.85865 -3.41949 
9423 1 1.20758 -6.60844 0.36412 
15514 1 1.59901 2.95514 1.39184 
18630 1 5.28345 2.747 -1.38297 
18629 2 -6.11909 1.58201 4.82338 
14276 2 -2.91124 -3.72897 0.563691 
15515 3 0.333712 -2.68347 0.05604 
19587 1 1.66544 1.39434 1.83899 
18628 1 7.14246 0.382684 -4.25785 
18880 1 -0.138747 1.80269 0.030751 
2870 2 1.04004 -1.51614 -3.5391 
4796 3 -3.93685 -3.94016 -3.38283 
2869 1 -0.639357 -0.872316 -2.37069 
11234 2 2.32547 1.6999 -2.6122 
17212 1 -1.55016 3.06512 2.43337 
12875 2 1.54608 5.79766 3.18535 
16330 1 1.4458 0.718873 0.473 
469 1 -0.996857 -1.40675 -3.89009 
470 2 2.34943 3.67042 -3.08914 
471 1 5.23305 0.601413 -0.443341 
12874 1 10.4568 3.12444 6.29491 
1118 2 -2.23188 2.96895 5.23609 
1119 1 1.91435 -1.16023 -4.04025 
11245 1 -5.68808 1.20341 -4.01108 
11246 2 1.17501 2.19696 -1.05845 
768 1 3.39246 -1.26404 -0.0571788 
15516 1 -2.71993 2.00854 0.0604985 
9921 1 3.61941 0.284687 6.48004 
9920 2 -0.954266 0.3922 -0.71955 
9919 1 0.593036 -2.59498 0.277065 
13714 1 1.28694 1.48092 0.0856665 
16993 1 2.4708 -6.30332 3.25105 
16994 2 0.601084 -1.37101 -3.36936 
1348 1 -1.29957 0.390807 0.85257 
1349 2 -2.47595 -0.722646 0.945136 
10848 1 0.000749707 -0.196039 -8.57747 
14277 1 0.795716 1.12171 -0.800686 
16566 1 1.80842 0.249182 -2.43884 
16565 2 -2.81181 -2.51252 -1.06751 
16381 1 -1.99604 1.32761 -5.67855 
9250 1 -3.28385 1.0284 -2.0489 
9251 2 3.64236 0.760233 -0.760003 
19585 1 -2.0325 -0.951122 1.62411 
19586 2 -0.218901 -1.82667 -0.781852 
10846 1 -0.764705 -1.50879 3.43653 
10847 2 -3.13729 1.83329 2.98804 
14314 1 -2.22585 5.5895 -0.154733 
16383 1 0.534133 3.47543 -2.86664 
14315 2 2.59391 0.745365 0.787622 
14316 1 -2.71407 -2.60807 0.695013 
4534 1 0.887392 6.2914 5.01732 
8286 1 -3.2603 -2.99638 2.87407 
2770 1 -2.17745 2.11475 -1.11978 
8285 2 2.35767 -0.84003 -2.69206 
4535 2 2.28401 -0.725322 -1.21233 
2772 1 -2.09568 -0.64304 2.78511 
4797 1 0.229172 -0.801145 -1.60757 
2771 2 -2.38234 1.84547 -0.876038 
2464 1 5.66271 1.97925 1.35121 
2466 1 -0.624704 -2.4444 -1.87806 
2145 1 7.5338 -5.02461 -3.43302 
2465 2 -0.841133 0.289842 1.72077 
2144 3 -2.66869 0.134031 -1.11608 
2143 1 2.18837 -1.36589 -0.736124 
6542 2 -0.648574 2.27979 1.21619 
7915 1 -1.22428 3.17799 -3.36402 
7917 1 1.86243 7.31202 6.90677 
6541 1 -4.89861 3.09417 -1.19829 
7916 2 -0.665428 -0.205245 -2.04708 
5462 2 -2.70474 2.74206 -1.24663 
11233 1 -0.947731 -2.70401 3.73712 
5463 1 -6.88913 -4.13038 -1.91368 
5846 2 -1.82804 0.265159 0.952182 
5847 1 -4.46684 -6.99727 -2.67894 
6877 1 1.9185 1.4651 3.18746 
11235 1 -2.09809 -1.16551 -6.33661 
5845 1 0.368871 2.70814 1.96891 
4927 1 -3.65572 3.09179 6.38626 
948 1 4.43377 0.99001 -2.91658 
1117 1 1.8192 -1.65936 0.0473667 
947 2 0.862867 0.342419 2.89081 
12210 1 -3.04312 4.66598 0.0980844 
946 1 2.14816 0.403251 7.23403 
12209 2 -1.82803 2.26295 0.301889 
17213 2 4.70169 3.08932 -6.44353 
17214 1 2.00332 2.70587 -1.2734 
5364 1 -4.82238 8.87328 -1.53106 
13715 2 2.5115 2.92489 0.288088 
16564 1 -2.62584 0.500816 1.62144 
18450 1 2.40355 -0.453751 -0.10113 
18449 2 -1.66553 -4.07699 0.314508 
18448 1 -2.4918 -1.24733 3.08504 
15347 2 1.04749 -2.40626 0.876024 
6108 1 8.58476 6.37618 -3.90503 
6107 2 0.562067 -4.43103 -1.104 
16382 2 4.12238 -2.26378 -2.34037 
6106 1 5.29543 -2.25113 -3.39692 
2637 1 1.45903 2.01923 -0.642938 
2636 2 2.73138 -3.12185 -1.66456 
19611 1 1.1789 -1.33933 -5.17953 
4093 1 -2.73904 1.12999 -1.0819 
4094 2 0.368972 1.00356 3.49629 
4095 1 -1.33825 -3.6587 -1.70153 
8284 1 -4.54027 0.666765 1.90086 
2635 1 0.466595 -3.63718 -3.96101 
13665 1 1.46083 3.62395 4.7377 
13664 2 -0.629599 3.41359 0.337994 
13663 1 1.10584 -0.316932 5.59298 
21312 1 0.42216 -0.0441085 -5.35989 
21311 2 -1.33849 -0.0876191 1.74375 
8042 2 -5.37069 2.84499 -2.61368 
21310 1 4.5038 1.86751 0.0308742 
6878 2 0.624445 5.98451 -2.35708 
4929 1 -4.43762 3.13 0.580966 
9591 1 -3.88072 -1.97118 -2.45898 
4928 2 -1.90441 2.00433 2.00686 
9231 1 3.55166 -1.55763 -4.37917 
9230 2 1.77295 -2.87418 -3.6924 
9229 1 -1.07665 7.24547 -1.93417 
9590 2 0.904387 -1.07014 -2.00419 
17150 2 5.29904 0.519293 -3.41075 
12208 1 0.428457 -6.86525 -0.92099 
17151 1 -1.75287 -0.012438 -0.793171 
4817 2 0.00572128 -2.30666 2.88418 
4818 1 0.935941 -2.63595 2.86915 
11668 1 -4.46519 8.19525 -2.9655 
11670 1 -1.88142 -1.97157 0.212048 
8972 2 -1.63328 -0.406543 -1.76552 
8971 1 3.90437 3.15025 -2.58831 
8973 1 3.68734 1.91291 -7.06356 
7432 1 -0.544725 -8.74586 0.423036 
8274 1 -2.78342 -5.16265 -2.39706 
13771 1 -2.7121 5.34309 -2.71544 
2065 1 1.88698 -1.39955 4.69128 
11669 2 5.14876 -0.702468 -5.17983 
2066 2 -1.34322 3.95563 4.98277 
2067 1 4.1734 0.597281 3.89641 
3514 1 4.40162 -2.1797 2.7637 
3515 2 0.198284 -3.87085 1.09742 
154 1 -3.64858 -1.85506 -2.54981 
19609 1 0.791823 0.109918 4.28616 
1449 1 -5.05674 -3.23929 4.28577 
1448 2 -0.68595 1.22313 -0.746749 
15554 2 -4.42487 2.58269 -1.47502 
15651 1 0.684665 2.03929 -4.5306 
15650 2 1.74891 1.49042 -3.65682 
1447 1 -3.60792 6.85819 0.172712 
14584 1 3.47109 3.15542 -4.67096 
14585 2 -1.88423 -1.83368 4.24762 
15555 1 1.01768 -1.65533 -5.51508 
705 1 -3.06829 3.87882 -3.04768 
4498 1 4.75665 -2.36613 -3.3217 
12951 1 8.80428 -0.258625 -1.43728 
15649 1 -5.24728 -4.19071 -1.94455 
3492 1 -1.11987 5.36721 -4.09201 
12950 2 -2.54114 -3.71546 0.348683 
12949 1 4.42314 5.31629 -10.75 
4499 2 2.20876 1.86828 -0.0346502 
4500 1 2.82915 0.246756 3.15747 
8043 1 -1.23243 4.88465 1.34617 
4735 1 2.15859 1.36923 -2.20868 
4736 3 1.4317 -2.30829 -0.47434 
20989 1 -2.10872 0.422743 3.51243 
6031 1 6.45297 -0.00707578 -2.89431 
6803 2 -3.48971 2.28662 -0.830085 
6802 1 2.59401 2.42843 -0.765512 
6033 1 3.48931 -0.329416 -2.64285 
6032 2 -2.60351 2.21806 -3.19162 
1157 2 -2.64843 2.70775 -0.186843 
7434 1 -0.906606 2.03818 3.68713 
1156 1 -2.49856 1.34053 0.134787 
261 1 9.65665 -0.0186749 3.34265 
260 2 2.26194 -3.00759 0.411835 
259 1 2.58955 -0.356291 -4.31187 
1158 1 2.93456 1.43328 -4.89111 
14901 1 0.28167 6.25415 1.84361 
5777 2 -2.43628 4.83259 2.61332 
19675 1 -2.43317 -3.59789 1.94057 
5778 1 -1.75577 -3.62338 -8.63753 
7433 2 -0.812005 1.22344 1.11474 
8728 1 -1.63162 -3.32784 2.85051 
12987 1 5.08357 -1.74346 -6.4255 
12986 2 -0.415081 -1.5522 3.03677 
19676 2 -0.585966 1.7055 4.27762 
5776 1 -1.05582 -3.15546 0.478844 
7234 1 -2.72901 5.62375 6.4081 
6619 1 0.182848 1.34612 -0.730681 
3516 1 1.73302 -0.482945 -0.306984 
6620 2 3.70335 -2.91411 1.53936 
15553 1 0.451552 6.24657 4.95045 
8496 1 -3.55604 3.10781 4.40772 
12985 1 1.0708 7.35048 0.525167 
7236 1 4.1154 -1.5204 -0.868774 
7235 2 -0.944664 0.357402 1.19076 
8495 2 0.634304 -1.92239 -0.312587 
3859 1 -1.04158 -7.66377 -1.85964 
3490 1 3.48426 2.90847 -4.74868 
19998 1 2.94019 0.669261 -2.28908 
19997 2 0.275658 -1.98045 -3.48962 
19996 1 -5.02922 -3.3313 -3.40099 
3491 2 5.5121 6.12326 0.998008 
20990 2 1.68204 1.32193 2.98826 
1151 2 2.80494 7.02233 0.212916 
1152 1 -2.76125 2.73176 -1.6556 
195 1 0.234279 5.42272 -3.78313 
9214 1 2.78696 4.38142 -1.99537 
14102 2 0.600811 6.45431 -0.300417 
3250 1 -5.28606 -0.804369 -1.58912 
14101 1 -7.16978 -0.206187 5.85188 
3251 2 -0.0472541 0.816001 1.18476 
19677 1 1.18381 -1.18326 -5.53474 
3860 2 2.67794 -0.193681 -0.481891 
3861 1 -3.00813 -1.58139 0.641147 
2448 1 7.57776 -5.15293 -3.84492 
2447 2 -2.4144 -4.47221 0.58669 
2446 1 6.2093 -2.84693 -0.0414949 
12408 1 -6.21356 3.62217 3.15772 
9215 2 4.4891 2.00404 0.44568 
9216 1 -0.374862 -4.04811 3.41257 
7152 1 6.00272 3.80362 1.26107 
8417 2 0.999282 1.39868 3.81331 
9077 2 -1.32849 -0.852343 -2.22282 
17254 1 0.33691 -0.816632 0.447997 
9076 1 -0.599657 6.56409 0.92327 
5383 1 1.17365 -2.67801 3.08191 
5384 2 0.572297 -0.398863 4.56702 
5385 1 2.94813 4.17099 3.28764 
12407 2 9.62273 -1.9339 -0.142629 
14103 1 1.61081 1.02835 -3.03844 
18376 1 -5.70982 -1.64111 -3.12142 
18378 1 3.75425 8.2606 4.2338 
18377 2 4.09675 -0.0215815 -4.22883 
12406 1 1.25378 -1.66453 2.48529 
17255 3 0.943397 0.735392 -2.5867 
17256 1 2.66211 -1.95389 4.30042 
14878 1 7.47419 -8.79432 4.85933 
14879 3 -1.01645 0.80285 -3.46144 
14880 1 -3.64408 -1.36309 4.91395 
8463 1 -4.29686 0.589024 -5.04611 
7555 1 1.11255 -1.20402 4.92569 
7926 1 -2.50444 0.650197 -0.902973 
7925 2 -2.46687 -3.10407 -0.391325 
13686 1 -1.52773 5.22263 0.788453 
7924 1 -0.71441 -4.7587 1.18323 
8462 2 0.306463 -0.377793 0.752376 
1691 2 0.365909 -3.92755 4.0512 
1690 1 -0.207776 -3.6859 6.9639 
567 1 -3.27401 2.86162 2.07935 
43 1 -2.43753 3.20249 -2.66486 
1692 1 1.66502 0.321387 3.21712 
44 2 2.93741 1.90826 3.74707 
19616 2 -3.01342 2.39299 4.20068 
8461 1 3.96916 -3.37275 3.19381 
19812 1 -1.31158 0.89258 1.40589 
19811 2 0.878213 -2.21386 3.54004 
19810 1 -1.31658 -0.466764 2.13067 
19617 1 0.368293 -2.18838 2.87702 
11833 1 -5.30004 3.52077 -5.44115 
14275 1 -0.731178 -1.48095 -1.10496 
5055 1 -0.969289 0.637063 -1.83391 
11835 1 2.9612 -4.73706 1.22413 
5054 2 -0.726805 0.0947177 3.46623 
11834 2 1.23501 3.5669 -0.0314953 
9180 1 1.74376 4.5113 3.5633 
21466 1 4.78558 -2.02482 1.8727 
18881 2 -1.66541 -3.30824 3.07689 
18882 1 -0.0466664 -2.16497 0.922969 
2871 1 0.109653 -0.896123 -0.382666 
3928 1 -3.07451 -4.71863 1.83042 
3929 2 3.26186 -0.263692 -4.66457 
3930 1 -4.08016 -1.46281 -3.94798 
9294 1 -8.71928 3.39027 8.29809 
15033 1 5.81321 2.8802 2.54577 
15032 2 4.75132 2.66716 2.42202 
15031 1 4.19129 2.75315 -8.07136 
9292 1 3.03719 -1.33525 3.33085 
3279 1 -0.106008 -0.829731 -2.03257 
3278 2 -0.0616097 -3.07346 5.02652 
3277 1 -0.575214 1.76304 -9.23735 
8878 1 -0.333806 -1.98472 1.17732 
8879 2 1.31668 1.82368 -1.45718 
12117 1 1.07185 -5.76967 -3.55219 
8880 1 -1.4505 -1.60347 1.5239 
16252 1 -4.37751 -0.0969581 9.02566 
18865 1 0.973533 -0.456749 -0.665207 
12115 1 1.89529 2.81587 -0.751151 
12116 2 0.288019 -3.79403 2.6691 
45 1 -5.29933 -3.12042 2.29408 
9273 1 -8.56177 -3.55176 1.06906 
18866 2 -1.56543 -5.14456 2.38022 
9272 2 1.99708 2.00674 -1.42902 
18867 1 1.09232 -3.39382 2.35125 
767 2 0.456527 3.35205 -3.11552 
766 1 -3.42123 -2.65997 -3.61426 
17468 2 1.248 3.11615 -0.577325 
17467 1 -2.686 2.34171 1.81504 
14725 1 -3.24178 -7.40389 3.00414 
9271 1 -3.82778 -5.14138 3.37642 
11247 1 5.24424 1.33441 -6.1777 
17275 1 -4.12944 2.33609 1.80917 
17276 2 -0.389983 -1.50762 3.06444 
13615 1 1.53977 -0.78149 0.572409 
17277 1 3.2715 2.21544 2.30502 
9178 1 0.823367 -2.52949 -2.28465 
9179 2 1.22262 -0.968792 -1.19931 
16744 1 -3.58872 8.4045 -5.2318 
13616 2 0.724259 2.27952 0.592334 
9211 1 3.77289 -2.27464 -1.78817 
9212 2 -2.14618 2.48624 -2.38947 
29 2 4.75497 -3.08495 -1.28197 
10303 1 0.509308 -5.47455 -3.27036 
10305 1 3.10235 -4.09107 -3.33417 
9252 1 -4.46116 0.370423 4.75393 
10304 2 -1.04117 -0.654791 -1.63905 
11230 1 0.372621 -0.0976826 -0.843104 
7023 1 0.374686 -1.17494 3.76441 
28 1 -2.37091 -5.40949 -3.13232 
8900 2 0.769872 0.479886 -2.12958 
8899 1 5.51423 2.37603 3.49033 
30 1 -5.58565 -3.02323 2.1646 
3739 1 0.570523 1.61632 7.16656 
4536 1 -1.11158 3.65312 0.0171395 
3346 1 2.4131 -3.20379 0.588766 
3347 2 -1.51979 -2.66242 1.99805 
3348 1 2.86057 3.00388 0.864101 
16627 1 0.652331 -4.61171 0.204369 
3740 2 -0.454296 0.278723 -2.79054 
3741 1 3.71512 -0.869665 2.39184 
9293 2 3.32886 0.366015 3.49121 
8734 1 -0.910764 -5.3128 -0.934626 
13641 1 10.9348 0.699427 0.390091 
8735 2 1.96592 -0.198949 1.65199 
17669 2 2.49344 1.08421 0.190713 
17668 1 -1.98182 4.96036 1.06146 
11295 1 -2.32251 -0.149917 -0.393276 
8736 1 -3.34393 5.71664 1.09243 
11294 2 4.05127 1.89004 -2.59809 
11293 1 -0.636073 1.10822 1.48733 
3297 1 2.51324 -3.86776 2.48406 
2238 1 1.68663 -0.949413 7.65687 
2237 2 -0.420752 -1.2418 -5.80672 
5267 2 -0.0726939 -0.607329 -2.45775 
5266 1 -5.18626 1.63 7.94662 
20181 1 6.48598 -3.2099 -0.20554 
20180 2 -2.14663 -4.00854 1.74377 
20179 1 1.822 -0.370035 3.22711 
370 1 3.27822 -2.65569 0.0253865 
371 2 -8.55093 2.61538 -0.987136 
372 1 3.74411 -0.657086 -0.0701523 
8718 1 -0.832205 1.34721 1.4057 
17469 1 -0.444031 0.207056 0.713363 
10671 1 1.35444 3.73647 -3.95953 
14726 2 -1.00023 -0.0644329 -1.09585 
8717 2 -2.01736 -1.79985 -4.22961 
8273 2 4.09994 2.48539 0.0995564 
14727 1 0.915582 -6.51909 1.86127 
8272 1 -2.30663 4.44653 -1.78742 
5362 1 0.252508 0.141925 4.52158 
5363 2 0.223909 1.8533 2.65826 
4937 2 0.217397 -4.29589 -0.58939 
4936 1 -7.37645 3.79212 0.177224 
4938 1 -1.20974 -0.2941 -7.51194 
16995 1 -2.64033 4.38127 -8.53445 
10669 1 -3.43608 -0.723386 2.39825 
16745 2 -2.92708 -2.35159 -1.8264 
10670 2 -2.71487 0.888741 -0.508203 
12879 1 6.01004 -3.08591 -1.12566 
11087 2 -1.46377 1.9593 -4.40948 
11086 1 -5.92519 0.204589 -3.66583 
16746 1 1.30387 5.77896 -8.79667 
11088 1 0.159633 2.36665 -1.98787 
15346 1 -5.5177 -2.73431 0.77083 
12878 2 7.36394 2.90301 4.93421 
7021 1 -2.62904 6.03845 -1.04201 
12877 1 0.652143 -2.61284 1.71866 
7022 2 -2.85429 0.027628 0.749341 
15909 1 0.722839 1.94916 0.0896978 
8518 1 -0.0948892 -1.48707 2.07904 
8519 2 -4.50213 -1.08852 -0.261321 
8520 1 -0.153114 -3.34599 2.22854 
898 1 -0.622616 1.62052 -0.723369 
899 2 -0.3285 -2.41601 1.00024 
15908 2 -4.58446 -0.295473 -3.29036 
603 1 -4.15159 0.0071515 -5.32838 
4113 1 -1.4481 -5.0219 -2.33697 
4112 2 -4.36972 3.91547 -1.95725 
771 1 1.9418 -4.59924 -3.72774 
770 2 -3.16963 1.22083 2.41747 
602 2 -4.41495 1.8169 -4.05385 
1323 1 2.77303 -0.108485 -0.956606 
9666 1 2.55383 -0.766369 -1.86335 
9665 2 0.528708 1.7275 -2.27158 
900 1 -3.76807 -2.73275 2.23787 
769 1 1.3193 2.89377 -6.07282 
4111 1 -0.273842 -1.91413 -5.30369 
9664 1 -0.825019 -0.81118 3.23216 
3731 2 -0.566684 -0.222147 0.538369 
3730 1 -0.0939633 0.170022 0.487663 
1322 2 0.940585 -2.00458 2.70406 
1321 1 -1.79349 -0.142059 -2.3476 
7879 1 4.32117 5.67618 -2.37448 
3296 2 -1.54273 0.817692 -1.73707 
2236 1 -0.109074 -3.72262 0.425339 
6879 1 0.516056 -0.491469 1.6075 
3295 1 -1.20781 7.98569 0.272129 
21357 1 0.789591 1.28966 6.53231 
13300 1 -2.71724 -1.70641 -3.01773 
21355 1 1.1788 0.769155 5.59235 
9000 1 -3.91293 -3.01971 -3.01411 
21356 2 5.39313 -0.995468 -3.73993 
8999 2 0.653462 4.05186 -4.1987 
13800 1 7.62002 2.38471 0.137993 
17149 1 4.87612 -6.36962 -2.017 
8716 1 2.2258 0.282883 -4.72195 
3710 2 5.74011 -1.29537 4.70525 
5081 2 -4.13338 -3.57017 -1.26674 
5082 1 -2.70331 1.72164 -4.89389 
5080 1 -6.26999 -3.62843 -0.0175852 
3709 1 0.791046 1.43122 -3.66684 
181 1 -2.6203 3.39825 2.09806 
182 2 -0.0723837 -1.27132 0.606032 
183 1 -1.40669 1.11242 1.83152 
9275 2 -0.287009 1.0118 1.20206 
14058 1 0.973885 -6.6808 1.48713 
9276 1 -0.6507 -1.06052 4.17137 
3711 1 -4.94567 6.41616 6.47685 
15348 1 -2.45732 1.84252 -0.757173 
12467 2 -1.70648 3.51807 -2.19142 
12468 1 5.62947 -4.43357 -3.0089 
12466 1 -4.6972 0.309079 -1.47783 
3628 1 8.10454 -6.3976 -4.57369 
3629 2 0.0723028 1.5627 -3.08339 
15012 1 2.43791 0.357058 1.02995 
19610 2 0.376163 2.47041 0.134273 
19399 1 -4.82952 -2.27823 -7.70512 
19400 2 -0.247338 0.590177 2.10017 
19401 1 -2.45128 -2.18763 -5.26595 
20194 1 -3.90184 1.62052 -0.703917 
7517 2 -2.36608 0.077641 -3.21236 
7518 1 0.670794 1.85851 -0.686222 
7516 1 -0.740268 -3.43135 -4.22096 
16980 1 -0.81994 5.52358 1.11883 
12321 1 5.15278 2.39004 0.422757 
16979 2 1.21296 4.72192 -2.95217 
20195 2 -3.56668 -4.30522 1.31843 
601 1 -4.30902 -2.05768 -0.0166797 
12320 2 -3.0143 -4.6725 -0.969523 
12319 1 -1.62456 -2.63968 0.755647 
6751 1 3.41913 1.00614 -2.48241 
6752 2 4.72284 4.08647 1.46302 
13612 1 4.89136 2.91192 -2.47027 
6753 1 5.77626 -0.0591661 1.87373 
13613 2 -1.25434 6.94448 -0.324421 
7880 2 1.00215 2.26016 2.79949 
7881 1 3.75316 -3.92413 0.712928 
15401 2 -1.84307 0.0788001 -0.981473 
15400 1 -0.404017 -1.80473 0.49676 
15402 1 -0.140423 0.893864 11.7608 
9189 1 -0.174856 1.55057 1.55453 
13301 2 2.13584 4.8195 -0.243949 
13302 1 -5.69734 -4.39039 -4.24177 
16463 2 1.44683 2.81515 0.521999 
7402 1 2.53376 -0.313998 2.40418 
14899 1 1.2401 -1.0734 -3.19403 
14900 2 2.58851 -1.15748 -2.78533 
16462 1 -2.20206 -1.778 -1.31436 
13014 1 1.26369 -0.724618 -2.84267 
13013 2 3.08721 1.41131 -5.79275 
13012 1 -0.127739 2.05639 -2.71029 
7403 2 1.7911 1.86867 0.390442 
21423 1 0.222828 -0.955723 -3.14852 
2530 1 -2.08003 -3.09566 -1.65064 
14 2 -0.358467 -8.08695 -0.51474 
14557 1 -0.574099 -0.371779 -6.77558 
15 1 3.3353 2.46574 -1.02082 
2531 2 2.97971 -2.00533 -1.44521 
2532 1 1.6874 -0.809049 0.699347 
13 1 1.28466 5.55429 -4.44646 
7404 1 5.15598 0.311088 -2.81173 
14559 1 -3.8101 7.55752 -0.764547 
6621 1 -5.71042 6.33679 -4.16343 
14558 2 -4.54276 -1.52346 0.856778 
16978 1 0.813454 0.686379 -5.71616 
8494 1 0.833898 -2.41134 -7.10567 
7199 2 -1.72494 -4.02195 -0.416488 
21422 2 -1.04391 -0.288624 -0.609173 
3630 1 4.09389 -0.370921 -1.12224 
7100 2 -0.045376 4.03054 -3.35911 
21421 1 0.201803 -5.52254 3.57124 
7200 1 -3.28976 -0.501621 -6.67912 
7101 1 -3.58869 2.8793 -1.60562 
9916 1 4.75223 2.84104 0.568741 
14397 1 -2.58056 3.71062 0.624291 
14396 2 -0.647398 -1.74706 1.36821 
14395 1 -6.27426 -1.7718 1.2757 
7513 1 3.09258 -1.87355 -8.53884 
7515 1 -1.64299 3.36407 -3.83003 
16880 2 0.334592 -4.77438 0.888314 
21034 1 -1.47633 6.47899 -4.30515 
16879 1 2.08268 3.05078 1.17475 
9403 1 -0.00425464 1.6985 -2.20363 
9404 2 -3.58883 -1.17385 5.56037 
9405 1 -0.886231 -5.6028 -0.67502 
2266 1 7.61733 -0.339499 -3.16107 
2267 2 -1.28716 -3.32815 1.69291 
2268 1 -0.723718 -3.32635 -2.44416 
12850 1 0.153193 5.56419 4.67199 
20468 3 -1.37627 -1.5922 0.648137 
16554 1 3.05226 2.53612 0.421725 
16553 2 -0.428621 0.654253 -2.15397 
16552 1 -6.00674 -1.30397 2.91414 
12851 2 2.99132 -0.609913 -6.87128 
9188 2 0.192597 1.9779 3.5572 
9501 1 11.4733 -1.27051 0.30257 
1150 1 -2.33188 0.0851558 -4.15068 
17076 1 3.50316 0.865627 7.99072 
17075 2 -3.78857 -0.824238 -0.505357 
9187 1 8.02382 -2.41169 -0.860302 
16464 1 -6.27967 1.22606 -2.40592 
11969 2 1.11956 -0.448339 0.647289 
11970 1 -1.25049 3.36999 2.76239 
17074 1 -0.904656 3.30294 -3.99478 
193 1 3.78491 -2.83279 7.39668 
194 2 3.23119 -1.89908 -0.489274 
9500 2 2.75276 -2.36927 -1.15177 
9499 1 0.841678 6.96637 2.09755 
17536 1 3.75839 1.17236 -2.36369 
17537 2 -3.63376 -4.02928 -1.27368 
5565 1 5.08078 1.70004 -1.93097 
3252 1 -1.90482 -0.227811 0.767677 
5564 2 -3.03608 -0.661381 1.21793 
5563 1 -2.99491 -1.99061 1.7282 
8418 1 2.74577 -3.58711 -2.26349 
7099 1 2.23989 1.734 -0.639628 
5816 2 -4.91417 -0.558521 -1.28584 
8416 1 3.49326 1.61379 7.14323 
5817 1 -2.7338 -2.53418 2.14432 
19589 2 1.86857 -1.76248 2.3939 
19590 1 7.2596 1.66817 0.91116 
19588 1 6.0176 -0.664133 0.798247 
17998 1 -2.16454 0.125948 6.431 
17999 2 2.47824 -4.53229 -2.09597 
5815 1 -1.29285 4.62808 6.81084 
18025 1 3.23184 4.01569 1.80944 
7514 2 1.9898 -1.88916 4.46025 
12852 1 -5.9769 -6.13689 -7.62271 
11968 1 2.07351 -7.75357 -0.638347 
13507 1 -6.66542 1.07946 5.99968 
13508 2 -1.96728 4.08085 3.41527 
13509 1 -0.524319 -1.18896 3.05462 
7151 2 0.873115 -1.70127 -1.21007 
7150 1 -4.22892 -0.322083 0.458303 
9078 1 -1.08294 -5.60503 -0.928748 
18000 1 5.90228 5.08766 -1.5684 
16698 1 1.23841 -1.8048 -3.64508 
16697 3 0.1192 -2.21479 0.136662 
1575 1 -0.610352 3.64028 4.16146 
1574 2 -4.82471 0.837205 -1.97186 
12124 1 4.14734 -2.47917 5.60871 
12125 2 -0.794704 0.0649017 1.01257 
12126 1 5.47276 -1.16883 -3.95973 
16696 1 -0.786131 1.60584 1.32804 
13685 2 -0.875816 3.0919 2.36998 
13684 1 -6.3205 -9.57804 0.753475 
5049 1 -0.0272217 2.36549 6.05182 
5048 2 -0.280944 -0.207585 -2.77836 
1075 1 -0.663508 2.6306 -0.0498402 
1076 2 -3.14105 -1.91096 -5.51409 
1077 1 4.23761 -3.28306 -0.939552 
19615 1 -2.76975 2.04868 1.75611 
12919 1 1.56481 -0.506526 -2.50258 
14533 1 -7.16404 5.63391 -1.49895 
12920 2 -0.310024 -0.467548 0.0836987 
12921 1 -1.99117 -0.706098 0.150673 
4162 1 -3.13195 2.97384 0.116864 
5047 1 2.89525 -0.443449 -5.12653 
10590 1 1.21417 -2.48815 -3.41635 
7335 1 -4.01097 1.22841 1.79934 
1693 1 -2.30995 6.56564 5.71445 
7333 1 1.17554 -2.49161 3.09654 
1694 2 0.281978 1.44805 -0.865109 
7334 2 -2.20411 2.36392 1.60957 
1695 1 -6.48347 -0.374691 2.33224 
13530 1 0.369619 1.76958 -3.29864 
21467 2 3.21369 -0.383043 -0.0531151 
21468 1 -2.90553 5.44552 -4.9531 
5053 1 -3.92309 3.3057 -7.19677 
17803 1 -2.8066 4.35577 2.63773 
17804 2 1.84923 4.06296 -3.07575 
17805 1 -0.656253 3.90617 1.64467 
5881 1 2.34089 -0.682546 0.670065 
5882 2 -3.66302 1.57543 3.7201 
8036 2 -0.801653 0.346223 -0.926629 
5883 1 -0.998323 1.253 4.0625 
8037 1 1.40367 1.07055 -0.802305 
14104 1 -3.13068 -1.99774 1.45765 
14105 2 -1.7485 -1.67026 1.3038 
2864 2 1.27753 0.234336 0.341143 
15624 1 -1.22377 -1.75055 1.42863 
2863 1 -7.51369 -2.13896 -2.05861 
15623 3 2.68431 -0.697903 2.51017 
2865 1 -2.84053 -2.95329 1.32146 
8035 1 3.76629 0.357496 -0.0843229 
15622 1 0.281202 6.49136 -0.364726 
8385 1 -1.32881 -1.23239 -0.0863195 
16254 1 -2.2277 -4.60828 -6.87405 
16253 2 0.0369767 3.08225 -1.02786 
5268 1 3.32546 1.71767 -1.93917 
15630 1 7.01958 -3.21619 -4.15928 
3949 1 6.42443 0.272797 -1.24424 
18243 1 -2.99235 -5.76261 4.4426 
15629 2 1.4873 5.3103 -2.32193 
14534 2 1.95437 0.00223129 -1.90342 
8817 1 3.15499 0.750146 -4.86686 
6271 1 2.79525 3.6358 -0.856117 
6272 2 2.71356 0.419075 -2.98961 
6273 1 0.123224 1.3776 0.689132 
14535 1 3.47156 -0.484079 -1.53914 
5120 2 -1.34496 2.52557 2.3432 
18242 2 -2.24553 -1.87438 2.70529 
18241 1 -7.5197 -0.241249 -1.6535 
20074 1 -1.53752 3.43244 0.916584 
4235 2 -0.450944 0.0812536 0.716987 
9213 1 -1.77286 1.3147 -8.76401 
4164 1 1.5583 -1.0327 -3.2544 
4163 2 2.35462 1.39933 -2.47564 
12500 2 1.18495 4.12971 -2.354 
12499 1 -0.787788 7.07135 -4.6428 
13617 1 1.98606 -1.33346 1.69056 
5983 1 -5.00148 -2.10442 -3.12406 
5121 1 1.00489 4.88832 -7.26039 
5984 2 -2.34123 -1.40829 -2.07342 
5985 1 -0.577642 -7.03963 -0.216629 
12501 1 -1.48742 -3.1506 -1.22069 
3106 1 -0.618665 6.08498 3.26192 
13529 2 0.150373 -4.34373 3.51461 
13528 1 -0.490964 5.01981 1.3725 
8901 1 6.27161 -2.90423 5.23622 
11231 2 0.365483 -3.35693 -1.3827 
6342 1 0.838944 -0.692511 7.65657 
11232 1 4.11139 -3.05185 4.65584 
16620 1 -4.26762 -5.31737 -1.3749 
12081 1 -0.894766 2.5534 2.76969 
16619 2 -0.697782 0.891079 -1.36611 
13219 1 6.58548 -3.8645 -1.49123 
14091 1 -6.17036 1.66488 -4.91894 
16618 1 -1.54633 -5.38065 -6.70197 
13220 2 1.37365 3.428 1.93758 
16628 2 -0.876613 -0.794097 -0.967973 
16629 1 -3.26546 -2.60797 0.958115 
6341 2 -0.264653 2.9814 2.98539 
12080 2 -1.11684 2.06976 -1.3041 
12079 1 2.13953 0.0913447 -3.14884 
6340 1 -1.79818 2.65701 0.235448 
14106 1 -0.735228 0.371805 -0.251695 
4556 2 -3.45273 -1.47489 -0.229407 
4557 1 2.8099 6.54188 -0.863431 
4555 1 1.07624 2.59007 3.75988 
8335 1 1.23136 3.9845 4.64339 
9844 1 -3.84065 -2.75046 -0.0367891 
13640 2 6.0034 -6.35653 -0.446645 
688 1 3.19592 -7.32972 -3.07424 
689 3 0.153482 5.40389 5.29469 
690 1 3.41167 2.41334 -2.52423 
17670 1 -2.7554 -7.3128 -7.16445 
8383 1 -3.14134 0.465257 0.974794 
8384 2 3.37772 -1.63 2.42596 
20478 1 3.21401 5.82261 5.03676 
20477 2 -2.47202 -0.10844 0.693646 
20476 1 7.06151 0.501135 2.7365 
307 1 -3.83546 -0.545503 0.894691 
13639 1 2.07926 -0.508714 6.44524 
3950 2 0.227448 3.33824 1.38869 
3951 1 -0.366783 8.49909 -1.94354 
308 2 -2.60661 2.67986 3.58969 
309 1 -5.72423 4.22229 -0.454849 
19591 1 -0.134791 0.525962 1.25513 
15743 2 2.69697 5.07052 -0.899895 
15742 1 4.74331 -2.99248 -1.57076 
15744 1 -5.17362 -3.70042 6.17473 
9274 1 0.0821604 -0.508342 1.6773 
8816 2 0.258968 1.44608 -1.77285 
8815 1 -3.50297 3.71186 -6.48945 
7806 1 7.41143 1.64133 1.10644 
7805 2 -1.68771 -0.860868 -5.51309 
4234 1 7.49535 -0.188905 -3.58273 
7804 1 -3.18571 -0.368021 1.57063 
2644 1 0.162087 -3.61663 -1.53548 
1108 1 -5.01577 -4.59424 -2.24029 
12244 1 2.49375 -4.64846 -5.96024 
12246 1 0.171893 1.15913 -4.88863 
12245 2 0.440956 -2.12839 -3.42766 
13221 1 -8.14962 -0.589848 -0.620395 
13264 1 -1.40178 -3.66286 0.499827 
13265 2 0.697016 3.32418 1.62489 
6064 1 2.71919 1.42777 1.84779 
4236 1 -0.666561 -1.58215 0.555024 
6065 2 -2.85931 1.43628 -1.35646 
15907 1 -2.90005 3.86339 5.66495 
11662 1 -3.71609 -5.77311 2.28555 
16910 2 0.759678 6.60084 -3.01131 
16911 1 0.632211 -4.90643 -2.97593 
16909 1 4.5447 6.23764 0.745197 
11663 2 0.75647 0.232731 0.473786 
11664 1 -5.89007 -1.94225 0.0550968 
2652 1 -0.239423 -2.83593 1.47819 
2651 2 -2.19448 -2.22177 5.06584 
3732 1 -2.3004 -0.144245 -4.71027 
8336 2 1.38359 0.436122 -5.41912 
10531 1 2.44924 1.68567 0.51606 
8337 1 -3.47735 3.35747 -2.334 