ITEM: TIMESTEP
40000000
ITEM: NUMBER OF ATOMS
4701
ITEM: BOX BOUNDS pp pp pp
0.0000000000000000e+00 5.0000000000000000e+01
0.0000000000000000e+00 5.0000000000000000e+01
0.0000000000000000e+00 5.0000000000000000e+01
ITEM: ATOMS id type xs ys zs
435 1 0.665047 0.202329 0.0261717
15696 1 0.664663 0.203555 0.0289935
434 2 0.665549 0.20066 0.0176163
433 1 0.668978 0.206357 0.0124758
9531 1 0.66942 0.208102 0.0102627
9530 2 0.669459 0.212854 0.00352112
7179 1 0.634291 0.245892 0.0111924
7178 3 0.62959 0.24856 0.0184706
15606 1 0.636184 0.24541 0.00849645
7887 1 0.657668 0.247912 0.0227617
7886 3 0.663599 0.242527 0.0228547
15605 3 0.641132 0.245913 0.00195729
8481 1 0.663148 0.232809 0.0279951
7885 1 0.663657 0.235425 0.0260725
7998 1 0.725052 0.251194 0.00520812
7177 1 0.627564 0.254583 0.0234319
13937 3 0.619622 0.281524 0.0203711
13936 1 0.621052 0.275048 0.0252943
18015 1 0.62636 0.257253 0.0255366
18014 3 0.624081 0.263378 0.0310669
7459 1 0.62536 0.267624 0.00267853
574 1 0.628055 0.267607 0.00334177
7460 3 0.617654 0.269061 0.000703155
575 3 0.636505 0.267287 0.00712116
21306 1 0.646188 0.269541 0.0308812
21305 3 0.642695 0.275639 0.027549
21304 1 0.644709 0.28034 0.02187
9460 1 0.664435 0.267207 0.00968868
11385 1 0.644909 0.281964 0.0192377
7485 1 0.663048 0.272992 0.0246875
7484 3 0.665726 0.280969 0.0243637
9461 3 0.655989 0.266022 0.00872431
576 1 0.644944 0.266755 0.00847932
9462 1 0.647806 0.266323 0.00897594
16054 1 0.679596 0.271766 0.0172891
16055 3 0.675374 0.268549 0.0106171
16056 1 0.667455 0.267877 0.0100634
7483 1 0.67343 0.283042 0.022561
7908 1 0.676544 0.283573 0.0219519
7907 3 0.683468 0.284739 0.0201726
9643 1 0.712599 0.274939 0.00214803
4343 3 0.716402 0.2839 0.00757896
4342 1 0.714019 0.277334 0.00388501
8 3 0.726996 0.276739 0.0247697
9 1 0.723595 0.281494 0.0299172
19327 1 0.735148 0.269748 0.00215961
13324 1 0.740733 0.259527 0.0267705
19329 1 0.731838 0.275338 0.015136
7 1 0.730406 0.275885 0.0179124
19328 3 0.73517 0.27476 0.00796225
13326 1 0.746435 0.258764 0.0146557
14907 1 0.748452 0.258925 0.0121569
14906 3 0.753208 0.259258 0.00510353
8910 1 0.740341 0.260302 0.02934
13325 2 0.741115 0.258325 0.0197675
13794 1 0.738514 0.284522 0.0140418
15167 3 0.760209 0.280236 0.00964531
15166 1 0.75928 0.279954 0.0176285
20598 1 0.758942 0.279754 0.0207633
20597 3 0.758579 0.280117 0.0289799
15168 1 0.766229 0.276904 0.00722627
187 1 0.768796 0.275827 0.00653717
188 2 0.775579 0.272849 0.00412787
189 1 0.78242 0.271637 0.00793263
5440 1 0.810789 0.277156 0.00614328
15568 1 0.603297 0.306461 0.0218524
15569 3 0.601444 0.311072 0.0279972
16025 3 0.60258 0.31565 0.00691098
13938 1 0.620443 0.288278 0.0165783
162 1 0.621522 0.291184 0.0153489
21160 1 0.628025 0.316197 0.0175279
5593 1 0.630541 0.315528 0.0182739
16024 1 0.610117 0.316547 0.00972586
160 1 0.627183 0.301263 0.00565975
161 3 0.623891 0.297827 0.0117872
1008 1 0.628825 0.302526 0.00340201
984 1 0.645572 0.310471 0.0146813
5595 1 0.643591 0.310832 0.0164918
5594 3 0.637122 0.312429 0.0208013
21546 1 0.648836 0.309089 0.0271092
21545 3 0.656113 0.306588 0.0283673
983 3 0.650921 0.308641 0.00864177
11383 1 0.648974 0.289553 0.0047048
11384 3 0.648006 0.286813 0.0135998
21543 1 0.659721 0.302711 0.00842516
982 1 0.657381 0.304307 0.00829338
7264 1 0.649589 0.290466 0.00172119
21542 3 0.66654 0.298629 0.0091261
7906 1 0.689823 0.290141 0.0225752
5110 1 0.691753 0.291346 0.023458
6874 1 0.682495 0.309667 0.0146148
17065 1 0.680761 0.31041 0.0172102
17066 3 0.677442 0.312711 0.024951
6875 3 0.686552 0.307178 0.00825357
6876 1 0.691946 0.300981 0.00477422
7501 1 0.693934 0.299187 0.00380461
16615 1 0.67344 0.292399 0.0032269
21541 1 0.671528 0.294165 0.00475654
5111 3 0.697884 0.293559 0.0263598
5112 1 0.702627 0.2953 0.0317479
4344 1 0.714753 0.291207 0.0103613
1195 1 0.7107 0.30618 0.0197976
11076 1 0.709177 0.308276 0.0215292
11075 3 0.70556 0.313202 0.0263373
1197 1 0.714295 0.29393 0.0121769
1196 3 0.71392 0.301383 0.01393
8321 3 0.726644 0.31569 0.00553995
839 3 0.750238 0.311868 0.00398027
18092 3 0.733331 0.308564 0.0259604
18093 1 0.735084 0.301009 0.0230869
13793 3 0.739715 0.291684 0.0181658
13792 1 0.736035 0.298471 0.0217549
172 1 0.755587 0.310637 0.0140928
838 1 0.753951 0.311011 0.0104184
174 1 0.753581 0.308636 0.0282866
5391 1 0.7522 0.307657 0.0310977
18091 1 0.730904 0.315051 0.0278644
173 3 0.757926 0.309944 0.0215373
18863 2 0.781491 0.312564 0.0160141
18864 1 0.787521 0.311947 0.0214361
18862 1 0.776355 0.316564 0.0132025
11583 1 0.789944 0.311808 0.0235618
11582 3 0.796708 0.310408 0.0292583
19167 1 0.811996 0.309528 0.0110886
19312 1 0.814143 0.309394 0.0135662
19166 3 0.805958 0.311 0.0055018
19165 1 0.799977 0.310695 0.000123109
19313 3 0.818951 0.310217 0.020633
19314 1 0.821451 0.317037 0.018117
17907 1 0.841966 0.316035 0.027004
5977 1 0.840594 0.314092 0.0284536
8750 3 0.836245 0.314471 0.0040788
2455 1 0.848075 0.315755 0.00266938
8751 1 0.84499 0.31547 0.0029916
235 1 0.565818 0.348406 0.0128086
5023 1 0.567571 0.3485 0.0100563
236 2 0.561749 0.347265 0.0199267
15570 1 0.602246 0.318586 0.0297432
14400 1 0.594268 0.343791 0.022713
14399 3 0.595407 0.345766 0.0142523
14398 1 0.598593 0.346867 0.00641423
199 1 0.599739 0.346949 0.00362561
18098 3 0.634856 0.347593 4.88407e-05
21161 3 0.620576 0.31905 0.0153369
21162 1 0.612947 0.317777 0.0111879
13864 1 0.628796 0.337325 0.0183736
13865 3 0.63601 0.335476 0.0222407
10582 1 0.625753 0.338101 0.0171387
10583 3 0.617743 0.340167 0.0150482
17848 1 0.609823 0.322497 0.000967062
10584 1 0.619388 0.348477 0.0141431
18097 1 0.635481 0.346415 0.00895085
16026 1 0.608291 0.320457 0.00251152
13460 3 0.64302 0.32851 0.00419742
13866 1 0.643468 0.338819 0.019998
14679 1 0.646122 0.340758 0.0190629
9362 3 0.656154 0.326553 0.0206039
6549 1 0.660455 0.328788 0.0110306
9361 1 0.6593 0.328727 0.0137028
9363 1 0.653248 0.327611 0.0282176
21225 1 0.652067 0.327747 0.0310522
13461 1 0.640503 0.334402 0.00890308
14678 3 0.650762 0.345941 0.0162972
14677 1 0.657554 0.348063 0.0164007
6548 3 0.663947 0.328312 0.00436164
18005 3 0.69237 0.330657 0.00669262
18006 1 0.684622 0.331802 0.0114563
6518 3 0.676538 0.336236 0.0177207
6517 1 0.682074 0.33282 0.0130117
19894 1 0.669478 0.346268 0.0280867
6519 1 0.668858 0.33968 0.0194816
7695 1 0.696616 0.320869 0.0289763
7694 3 0.692274 0.326435 0.0312065
12996 1 0.699436 0.323341 0.00499028
18004 1 0.69762 0.32493 0.00571526
11074 1 0.698708 0.318772 0.0279506
13760 3 0.717688 0.331211 0.0123015
15305 3 0.706371 0.343367 0.0196205
13759 1 0.714236 0.33508 0.015694
15306 1 0.712284 0.337194 0.0165148
13761 1 0.722845 0.324787 0.00918271
8320 1 0.724131 0.322082 0.00845835
15314 3 0.725398 0.325233 0.0293972
12995 3 0.705627 0.317862 0.00312265
11754 1 0.748541 0.331947 0.0312878
20340 1 0.747653 0.333569 0.0285546
20339 3 0.746207 0.338545 0.0223822
20338 1 0.745593 0.344042 0.0173706
2578 1 0.745619 0.346463 0.0152014
15315 1 0.729329 0.317697 0.0282979
9165 1 0.764043 0.331771 0.00321206
19311 1 0.774501 0.318759 0.0121747
19310 3 0.770428 0.325247 0.00926697
14538 1 0.768346 0.342992 0.0255387
18009 1 0.767682 0.344651 0.0231226
18008 3 0.767203 0.348004 0.0168109
19309 1 0.765713 0.330085 0.00492339
14537 3 0.771729 0.339069 0.0302045
11759 3 0.795907 0.332593 0.00967271
11760 1 0.797089 0.331349 0.0173705
6158 3 0.79975 0.331747 0.0278098
6159 1 0.798004 0.33141 0.0206149
18262 1 0.818177 0.334191 0.0157071
10147 1 0.816551 0.336664 0.0154003
10148 3 0.813925 0.343883 0.0136037
1042 1 0.788811 0.333692 0.00136989
11758 1 0.790938 0.332967 0.00372252
18264 1 0.822069 0.319887 0.0178643
18263 3 0.822873 0.327757 0.0173257
15418 1 0.838914 0.340031 0.00577041
3831 1 0.836851 0.342467 0.0048317
3830 3 0.830572 0.348088 0.00287712
17906 2 0.845872 0.320931 0.0231744
17905 1 0.843903 0.325764 0.0158272
15420 1 0.843144 0.32756 0.0130655
15419 3 0.843873 0.334469 0.00658384
8749 1 0.828997 0.318553 0.00142072
8458 1 0.826839 0.320579 0.0001616
2456 3 0.855577 0.317632 0.0011063
7375 1 0.859879 0.342902 0.0223289
2027 2 0.865433 0.333156 0.0168964
2028 1 0.868999 0.326721 0.0205127
2026 1 0.861137 0.340542 0.0211095
17740 1 0.891249 0.340579 0.0195345
15937 1 0.889091 0.341804 0.0211784
15938 2 0.883461 0.345909 0.0261888
17741 3 0.8979 0.337462 0.0147442
16072 1 0.906949 0.332897 0.0116991
17742 1 0.904484 0.333936 0.0122685
16073 3 0.914377 0.330456 0.0108929
16074 1 0.918683 0.328523 0.00446309
237 1 0.559179 0.350953 0.0260707
15127 1 0.571493 0.357466 0.0183978
10600 1 0.55985 0.358474 0.00111901
10602 1 0.546364 0.363589 0.00250071
5024 3 0.571687 0.350028 0.00343472
15128 3 0.57589 0.364445 0.0195
6563 3 0.605373 0.362623 0.0203173
6564 1 0.602776 0.368269 0.0150246
8994 1 0.60154 0.371105 0.0127352
8993 3 0.598706 0.37649 0.00843246
15129 1 0.578755 0.371519 0.0213276
12960 1 0.579964 0.374495 0.0217771
8074 1 0.634987 0.375946 0.020349
11657 3 0.622127 0.359966 0.0100022
11658 1 0.614437 0.357136 0.0101155
11656 1 0.620857 0.351847 0.0132692
8075 3 0.627843 0.37997 0.0187231
18966 1 0.609528 0.358026 0.028614
6562 1 0.608335 0.358883 0.0264707
7086 1 0.642583 0.375791 0.00411711
18099 1 0.637144 0.355858 0.000782018
936 1 0.637839 0.374082 0.0213358
935 3 0.644811 0.370015 0.0213568
934 1 0.651536 0.368239 0.0189925
15574 1 0.654398 0.367961 0.0176344
15575 3 0.661801 0.368178 0.0143437
15576 1 0.664314 0.363923 0.00805995
3760 1 0.638373 0.358255 0.0012304
3762 1 0.642328 0.373586 0.00361501
8344 1 0.65804 0.366827 0.0296688
18690 1 0.664698 0.362277 0.0052623
3761 3 0.640982 0.365398 0.00165741
9887 3 0.695773 0.379811 0.0165281
9886 1 0.689435 0.378091 0.0228254
19672 1 0.689359 0.35765 0.0145347
5106 1 0.688374 0.357494 0.0112714
19673 3 0.692771 0.357886 0.0217693
5105 3 0.686102 0.357147 0.00454709
11738 3 0.71391 0.375588 0.000356592
15304 1 0.701253 0.351585 0.0201847
9483 1 0.713747 0.354935 0.00447627
19674 1 0.698617 0.353773 0.0208328
9888 1 0.702395 0.376303 0.0174312
9482 3 0.720387 0.353932 0.00862303
13630 1 0.704874 0.375016 0.0180049
13631 3 0.711595 0.370542 0.020458
13632 1 0.718321 0.373254 0.0186288
3600 1 0.720765 0.374031 0.0180202
17263 1 0.725602 0.353106 0.0181329
9481 1 0.724313 0.353175 0.0155915
20836 1 0.711379 0.354742 0.00267827
17264 3 0.727507 0.353981 0.0261117
17265 1 0.730198 0.360786 0.0290471
2580 1 0.744915 0.359964 0.00454511
2579 3 0.745136 0.3533 0.00978366
6307 1 0.731438 0.363657 0.0302742
3599 3 0.728562 0.376481 0.0157433
6095 3 0.754313 0.367037 0.0255787
6096 1 0.751867 0.360649 0.0308852
6474 1 0.744692 0.362283 0.00238027
18007 1 0.766804 0.352669 0.010865
15530 3 0.770433 0.370206 0.0127956
15531 1 0.773444 0.375034 0.00530564
15529 1 0.772777 0.372746 0.0201323
20028 1 0.773461 0.373904 0.0226424
5295 1 0.774332 0.376781 0.00360468
6911 3 0.785615 0.353725 0.0209609
6094 1 0.75981 0.371954 0.0260385
6910 1 0.786658 0.357348 0.0275361
18123 1 0.784293 0.359032 0.0103538
18122 3 0.786164 0.360631 0.00254582
6912 1 0.78426 0.357927 0.0132925
20027 3 0.776239 0.377124 0.0299593
18474 1 0.766527 0.353969 0.00800363
19614 1 0.787384 0.35868 0.0297411
18473 3 0.764629 0.35621 0.000913577
9249 1 0.811215 0.353731 0.0150514
6881 3 0.796305 0.373965 0.0182546
6880 1 0.800975 0.369579 0.0157286
9247 1 0.803285 0.367639 0.0149738
9248 3 0.808217 0.360806 0.0133626
10149 1 0.812197 0.351096 0.0150532
12434 3 0.826916 0.369866 0.0139955
12433 1 0.834003 0.36494 0.0139495
6330 1 0.836804 0.363518 0.0147283
6329 3 0.842812 0.358274 0.0171883
6328 1 0.848207 0.354178 0.0211821
10446 1 0.847954 0.3779 0.0194261
15403 1 0.84728 0.377602 0.0162853
15404 3 0.846424 0.377682 0.00839967
12435 1 0.823153 0.376138 0.0103894
8979 1 0.821368 0.378599 0.0093617
7597 1 0.859779 0.360626 0.00121586
7377 1 0.850832 0.35283 0.0232445
15549 1 0.877038 0.365416 0.011124
7376 3 0.856293 0.349575 0.0271791
10445 3 0.849652 0.378504 0.0272809
15405 1 0.850825 0.378975 0.00132562
7599 1 0.874105 0.364135 0.0100341
7598 3 0.866632 0.361246 0.00730565
1422 1 0.903068 0.376057 0.0316192
15547 1 0.886369 0.372864 0.0212327
15548 3 0.882167 0.371162 0.01471
15121 1 0.596269 0.400742 0.00310246
15123 1 0.597995 0.387224 0.0073573
8992 1 0.598813 0.384029 0.00748642
15122 3 0.596576 0.394657 0.00554572
13078 1 0.596471 0.403385 0.00192914
12959 3 0.582396 0.382472 0.0238439
12958 1 0.57965 0.390185 0.0236906
19129 1 0.602185 0.391288 0.029493
1953 1 0.601789 0.393924 0.0282814
1952 3 0.602434 0.399902 0.0247297
8076 1 0.621495 0.383989 0.0147394
6582 1 0.619559 0.385004 0.0126629
6581 3 0.615208 0.387536 0.00768602
14738 3 0.633737 0.402127 0.0219396
6580 1 0.614456 0.392526 0.0015387
6243 1 0.626268 0.400656 0.0304732
14739 1 0.628297 0.401444 0.0280109
1951 1 0.607293 0.405376 0.0205639
7812 1 0.608596 0.407569 0.0195867
473 3 0.660963 0.390637 0.0278894
12365 3 0.64863 0.401901 0.0121177
12366 1 0.641673 0.402349 0.0161928
12364 1 0.656348 0.40336 0.0112328
21024 1 0.658807 0.403508 0.0113522
14737 1 0.639684 0.402434 0.0172445
7084 1 0.637596 0.389341 0.00365523
474 1 0.652959 0.388073 0.0300942
4218 1 0.649862 0.387594 0.0311148
5673 1 0.640321 0.412207 0.00094528
7085 3 0.642122 0.383126 0.00317804
9397 1 0.693453 0.392948 0.00255416
21023 3 0.666793 0.402359 0.0119592
20640 1 0.670194 0.3857 0.0236897
472 1 0.667396 0.387019 0.0249598
20639 3 0.676041 0.381611 0.021752
20638 1 0.680298 0.382982 0.028109
10407 1 0.678371 0.397894 0.0101476
21022 1 0.675266 0.398792 0.0107633
13216 1 0.682079 0.41047 0.0308493
10965 1 0.685461 0.409401 0.0306569
10964 3 0.693846 0.406983 0.0312074
10406 3 0.685559 0.395397 0.00836796
1371 1 0.681839 0.383723 0.0307874
10405 1 0.691269 0.393676 0.00482681
11739 1 0.714763 0.382429 0.00459893
2170 1 0.71532 0.385569 0.00638098
2172 1 0.712634 0.398143 0.00926529
3962 3 0.706411 0.407283 0.0102621
3963 1 0.711026 0.40049 0.00951916
2171 3 0.715957 0.391761 0.00979657
10453 1 0.726867 0.4104 0.0188777
10454 3 0.720662 0.410055 0.0246129
10455 1 0.717451 0.402775 0.025293
451 1 0.716731 0.400261 0.0261468
452 3 0.715279 0.394678 0.0310338
18139 1 0.736831 0.387585 0.00273548
18141 1 0.734384 0.402062 0.00358104
3526 1 0.728963 0.410328 0.0165754
3527 3 0.733267 0.409619 0.0102928
3528 1 0.733679 0.404468 0.0055681
3598 1 0.73262 0.38224 0.0186064
9220 1 0.73403 0.384828 0.0193069
9221 3 0.73826 0.391368 0.0217239
9222 1 0.743254 0.396198 0.0238294
20457 1 0.745406 0.398698 0.0239483
20456 3 0.749758 0.406047 0.0246467
10001 3 0.75812 0.392859 0.00320613
3378 1 0.759698 0.389372 0.0116457
3377 3 0.759733 0.388339 0.0177142
10000 1 0.75903 0.390001 0.00883577
16573 1 0.77939 0.401346 0.0287459
205 1 0.776686 0.403129 0.028026
965 3 0.777976 0.402041 0.00592453
16574 3 0.785165 0.397453 0.0302373
3376 1 0.762811 0.391126 0.0236005
964 1 0.784447 0.398674 0.00944584
10018 1 0.786798 0.397108 0.0102483
206 3 0.770362 0.408082 0.0259676
6882 1 0.795213 0.382227 0.0167086
8978 3 0.816447 0.383302 0.00599061
10020 1 0.794934 0.384755 0.0155813
10019 3 0.793305 0.392049 0.0112763
3903 1 0.814084 0.405489 0.0103072
3902 3 0.809968 0.400927 0.00470363
3901 1 0.813545 0.393614 0.00438751
8977 1 0.81432 0.390914 0.0050168
961 1 0.812274 0.397088 0.0286943
16215 1 0.81537 0.406806 0.0116435
963 1 0.808595 0.382815 0.030676
962 3 0.808985 0.389585 0.0272826
19060 1 0.835409 0.397399 0.0077529
12439 1 0.835097 0.396001 0.0103251
12440 3 0.835883 0.392755 0.0181812
12441 1 0.839068 0.388114 0.0242547
16214 3 0.821007 0.411048 0.0165312
19061 3 0.836969 0.401099 0.000227222
5086 1 0.861539 0.392857 0.0221678
5087 3 0.859859 0.39661 0.028702
20751 1 0.862715 0.391279 0.0191266
20750 3 0.866126 0.387497 0.0128875
20749 1 0.871201 0.388248 0.00669615
6523 1 0.857137 0.408619 0.0079175
16528 1 0.859803 0.408011 0.00589769
16243 1 0.872943 0.388322 0.00419606
6524 3 0.851476 0.410098 0.0127253
16529 3 0.866732 0.406877 0.000335229
15707 2 0.898706 0.384005 0.00395764
15708 1 0.894937 0.386799 0.0109734
9308 3 0.889201 0.39089 0.0190293
9309 1 0.893676 0.387626 0.0133043
9016 1 0.884564 0.398014 0.0246338
9307 1 0.885493 0.3964 0.0229773
9017 3 0.882212 0.403645 0.0301002
3089 3 0.566561 0.426098 0.00161787
3090 1 0.567712 0.423627 0.00971915
5016 1 0.568266 0.422519 0.012628
5015 3 0.570351 0.419761 0.0188477
5014 1 0.578185 0.416804 0.0201871
20599 1 0.580766 0.416179 0.0205264
20600 3 0.589573 0.416029 0.019067
20601 1 0.596096 0.422 0.0191431
8521 1 0.597925 0.424609 0.018958
8522 3 0.602685 0.431268 0.0174606
5671 1 0.62871 0.418879 0.00162229
1058 3 0.629987 0.443421 0.00208986
7810 1 0.61832 0.420279 0.0159199
14611 1 0.620225 0.423064 0.0157171
14613 1 0.626722 0.43651 0.0109537
1059 1 0.627772 0.438369 0.00878942
14612 3 0.623211 0.430468 0.0159697
8523 1 0.606544 0.43922 0.0162745
16018 1 0.60728 0.441995 0.0156581
7811 3 0.613375 0.413912 0.0164129
5672 3 0.633632 0.415007 0.00447827
11169 1 0.626266 0.421152 0.000149138
4632 1 0.6627 0.414908 0.0264362
810 1 0.648702 0.435378 0.00751357
808 1 0.650767 0.425251 0.0161166
4631 3 0.656387 0.418001 0.0225133
4630 1 0.652794 0.423075 0.0184546
809 3 0.646438 0.430486 0.0131387
16861 1 0.649595 0.436839 0.00492653
13218 1 0.665394 0.414119 0.0279533
11525 3 0.661538 0.441286 0.0297536
13217 3 0.673609 0.412389 0.0307296
711 1 0.683718 0.415606 0.0114039
710 3 0.678334 0.421616 0.0116805
709 1 0.677972 0.427373 0.0147733
11524 1 0.668338 0.443888 0.0281323
15971 3 0.692456 0.442307 0.014395
7341 1 0.695568 0.427379 0.0255182
7340 3 0.689862 0.429602 0.03027
4946 3 0.670964 0.44244 0.00571079
4947 1 0.676235 0.43906 0.00130099
3961 1 0.704956 0.414126 0.0136262
20911 1 0.704218 0.416396 0.0151317
15970 1 0.697579 0.439668 0.00885201
20913 1 0.697575 0.425725 0.0234744
20912 3 0.702906 0.421646 0.0190583
9480 1 0.72656 0.437222 0.00543261
9738 1 0.700146 0.438377 0.00642375
10627 1 0.714836 0.43821 0.0300474
96 1 0.714649 0.441008 0.0284067
9479 3 0.725184 0.443441 0.0014924
15996 1 0.711155 0.427904 0.000999282
9736 1 0.709014 0.430042 0.000737885
9737 3 0.705125 0.436084 0.000975964
9717 1 0.727458 0.434789 0.0074711
9715 1 0.734588 0.425138 0.0173883
9716 3 0.73041 0.430349 0.012478
20455 1 0.74661 0.413691 0.0258366
11409 1 0.745554 0.417136 0.026656
11408 3 0.743888 0.425545 0.0273553
11407 1 0.743167 0.432956 0.0299622
10351 1 0.74305 0.43625 0.0312106
5187 1 0.75268 0.420522 0.00513392
15051 1 0.752396 0.437342 0.0217051
11260 1 0.754499 0.419461 0.00736301
5186 3 0.748431 0.42436 0.000165988
13708 1 0.77283 0.441378 0.0100137
11261 3 0.760997 0.416733 0.0123639
11262 1 0.7649 0.414968 0.018431
207 1 0.766559 0.413451 0.0207526
10890 1 0.780892 0.426362 0.0139734
19308 1 0.782382 0.424793 0.0117535
10889 3 0.777874 0.429581 0.0192222
10888 1 0.779353 0.434258 0.0266185
10252 1 0.779969 0.435573 0.0281524
19307 3 0.786174 0.421632 0.00520786
10253 3 0.783177 0.441698 0.0317072
14859 1 0.796506 0.436734 0.00792476
7468 1 0.799896 0.419434 0.021205
7469 3 0.804262 0.422711 0.0157407
7470 1 0.80891 0.427559 0.0100819
15944 3 0.814523 0.431715 0.00195964
15943 1 0.810279 0.429217 0.00738436
10035 1 0.79841 0.418102 0.0242914
14858 3 0.794628 0.44215 0.013776
10034 3 0.795148 0.416835 0.0310808
3914 3 0.84539 0.417989 0.0292467
3915 1 0.848327 0.41467 0.0215937
5956 1 0.824389 0.439282 0.0226423
15945 1 0.821581 0.428278 0.00100678
19764 1 0.824281 0.426598 0.0011723
19763 3 0.831798 0.42193 0.00128692
19762 1 0.838171 0.426012 0.00450749
6919 1 0.840257 0.427401 0.00573869
6920 3 0.84567 0.430182 0.0103905
16213 1 0.823695 0.417571 0.0192228
13044 1 0.82421 0.420482 0.0199667
13043 3 0.826223 0.428204 0.0207777
13042 1 0.824901 0.435728 0.0222129
16454 3 0.844049 0.440896 0.0313869
6525 1 0.849007 0.41356 0.0188337
6921 1 0.851962 0.431703 0.0141866
14426 3 0.877805 0.429748 0.0242033
14382 1 0.867745 0.431926 0.0203668
14425 1 0.869935 0.431563 0.0215356
14381 3 0.861125 0.433478 0.0178312
14380 1 0.854286 0.432513 0.0153491
14427 1 0.882831 0.428328 0.0303346
19276 1 0.902513 0.426383 0.030566
19277 2 0.907969 0.427895 0.0252515
10272 1 0.915441 0.438671 0.00734252
17037 1 0.915972 0.440859 0.00571036
10270 1 0.913565 0.431478 0.0174052
19278 1 0.912189 0.430581 0.019476
10271 2 0.9154 0.433133 0.0115805
2078 2 0.602263 0.46572 0.00867141
2079 1 0.605367 0.458279 0.0108099
2077 1 0.600202 0.470275 0.00207196
16020 1 0.606866 0.455457 0.0116477
16019 3 0.610388 0.449223 0.0135883
11745 1 0.628202 0.450043 0.0256977
11744 3 0.633751 0.444994 0.0303325
4945 1 0.664756 0.446927 0.00740939
6162 1 0.658324 0.460683 0.00249707
6161 3 0.659562 0.459791 0.0105733
6160 1 0.660614 0.461584 0.0190893
7033 1 0.661162 0.462378 0.0225172
7034 3 0.663658 0.463569 0.0312309
15972 1 0.685893 0.444298 0.0180536
20658 1 0.683466 0.445066 0.0194138
20657 3 0.677086 0.447753 0.0250706
20656 1 0.671047 0.444955 0.0273843
17428 1 0.677414 0.464806 0.00596216
17429 3 0.683037 0.46256 0.0114673
17430 1 0.688247 0.463593 0.0180909
21133 1 0.689948 0.463531 0.0206319
21134 3 0.694424 0.464438 0.0260427
14964 1 0.710422 0.454603 0.0158339
95 3 0.714083 0.448647 0.0244752
94 1 0.711985 0.453142 0.0180167
14963 3 0.70668 0.457959 0.00890637
10752 1 0.720844 0.475005 0.0130242
10751 3 0.726905 0.470215 0.0131576
14962 1 0.700412 0.459309 0.00311904
1842 1 0.704299 0.468246 0.028752
21135 1 0.701302 0.467475 0.0278693
1841 3 0.711779 0.46911 0.0316686
517 1 0.69859 0.459195 0.000386829
3425 3 0.749313 0.457216 0.00519761
15050 3 0.75676 0.444129 0.0189602
10750 1 0.730849 0.465377 0.0182359
11806 1 0.731908 0.463187 0.019723
11807 3 0.735791 0.45733 0.0231157
10353 1 0.738575 0.44964 0.0312354
11808 1 0.737623 0.451694 0.0294246
17676 1 0.755211 0.471361 0.0256921
8845 1 0.755242 0.474471 0.024109
17675 3 0.756132 0.463897 0.0290307
3424 1 0.753237 0.45977 0.0120089
15049 1 0.763657 0.445815 0.0204382
13710 1 0.772084 0.456478 0.00968192
8640 1 0.771301 0.459636 0.00966521
8639 3 0.768639 0.466821 0.00925532
8638 1 0.770314 0.474188 0.0127052
13709 3 0.773175 0.449181 0.0092538
4283 3 0.791307 0.461603 0.000244989
3683 3 0.801523 0.454812 0.0262438
3682 1 0.798381 0.449888 0.0208244
14857 1 0.797314 0.447815 0.0189259
3684 1 0.805447 0.459962 0.0232002
11829 1 0.806841 0.461666 0.0210765
11828 3 0.81117 0.466067 0.0155302
11827 1 0.814342 0.471095 0.00950312
3643 1 0.79208 0.468818 0.00754966
3644 2 0.791275 0.473878 0.0136339
4282 1 0.792007 0.467112 0.00531409
18427 1 0.838469 0.456268 0.0031385
5957 3 0.82384 0.447105 0.0225135
5958 1 0.825383 0.448873 0.0145494
13306 1 0.825839 0.448987 0.0117349
5228 3 0.843223 0.460592 0.0283895
18429 1 0.848229 0.467189 0.000912566
13307 3 0.828341 0.449923 0.00381784
18428 3 0.845045 0.460234 0.00178583
13308 1 0.835847 0.454295 0.00364071
5229 1 0.84945 0.458113 0.0239323
2959 1 0.851433 0.456931 0.0218524
2960 3 0.856356 0.453713 0.0163285
2961 1 0.863977 0.449973 0.0157264
8350 1 0.849146 0.469492 0.000699172
17036 2 0.917764 0.44748 0.00205617
12058 1 0.694271 0.492582 0.0288763
14604 1 0.69541 0.490954 0.0277945
5821 1 0.718637 0.47707 0.012551
5823 1 0.706778 0.484573 0.015239
5822 3 0.712054 0.482295 0.010449
14603 3 0.698715 0.487253 0.0221709
14602 1 0.704704 0.485287 0.0171392
20250 1 0.729947 0.485399 0.0198886
20249 3 0.732762 0.489843 0.0147244
1612 1 0.738321 0.489037 0.00542991
20248 1 0.736725 0.489204 0.00819349
8846 3 0.757455 0.481853 0.0218267
6612 1 0.769482 0.480429 0.00113358
8847 1 0.757755 0.490148 0.0209574
2643 1 0.757933 0.493602 0.0207526
2642 3 0.758812 0.501072 0.0202249
16750 1 0.787866 0.478443 0.0227569
16751 2 0.78477 0.481457 0.030455
3645 1 0.788281 0.47738 0.0200331
12791 2 0.843041 0.483255 0.0205172
12790 1 0.835669 0.484051 0.021199
8932 1 0.862734 0.490628 0.0119736
12792 1 0.850072 0.48458 0.0191803
8934 1 0.853657 0.484892 0.0187371
8933 3 0.861441 0.485227 0.0178171
15695 2 0.664224 0.207947 0.0359694
15694 1 0.662929 0.215528 0.0347222
8479 1 0.662538 0.21876 0.0341828
9713 3 0.649653 0.243377 0.0441174
9712 1 0.651966 0.25057 0.0399095
3184 1 0.652565 0.253254 0.0375991
9714 1 0.647093 0.236575 0.0479286
8480 3 0.662317 0.226483 0.0326336
3895 1 0.666876 0.23836 0.0428464
3896 3 0.671127 0.245506 0.0462374
3897 1 0.673668 0.252523 0.0464558
417 1 0.71085 0.251606 0.0322415
18013 1 0.619775 0.270576 0.0319865
3186 1 0.647927 0.266451 0.0322453
3185 3 0.652798 0.259122 0.0327371
7937 3 0.664037 0.281039 0.0493055
17194 1 0.674972 0.264891 0.0450251
7938 1 0.667706 0.283279 0.0569486
17195 3 0.67829 0.268759 0.0394101
17196 1 0.680642 0.275484 0.0430537
3132 1 0.681384 0.277872 0.0444334
3131 3 0.685145 0.285003 0.048752
15337 1 0.66948 0.283758 0.0595496
6057 1 0.696113 0.271124 0.0602852
416 3 0.704047 0.255216 0.0364519
6771 1 0.700869 0.262043 0.0443942
415 1 0.701908 0.260004 0.041745
6770 3 0.698521 0.266249 0.0508006
6769 1 0.697027 0.269808 0.0577067
3384 1 0.726446 0.275706 0.0542831
15162 1 0.725642 0.277809 0.055684
15161 3 0.722988 0.283105 0.0600487
12039 1 0.722064 0.283151 0.031918
8909 3 0.740711 0.26301 0.0381143
3383 3 0.729621 0.269297 0.0507783
3382 1 0.734296 0.26702 0.0448781
8908 1 0.735991 0.266355 0.042701
1309 1 0.747177 0.283891 0.0532514
796 1 0.746707 0.283975 0.0502276
798 1 0.750726 0.282875 0.0372634
797 3 0.745815 0.284956 0.042333
20596 1 0.753058 0.281746 0.0350349
12032 3 0.632333 0.315411 0.0475653
12623 3 0.650308 0.31016 0.04964
21544 1 0.663039 0.304097 0.0324692
7936 1 0.658207 0.286187 0.046057
17247 1 0.665488 0.301851 0.0340991
12033 1 0.639396 0.313166 0.046939
12622 1 0.642653 0.312205 0.0475296
12624 1 0.653274 0.312509 0.0558511
15219 1 0.654468 0.314186 0.0582471
17067 1 0.677078 0.316189 0.0322344
6883 1 0.676609 0.317074 0.0346564
3130 1 0.691192 0.288621 0.0529536
17246 3 0.671259 0.297286 0.0379139
17245 1 0.673118 0.299052 0.0461426
1294 1 0.673532 0.29966 0.049352
8429 3 0.694651 0.308257 0.0447106
8430 1 0.687894 0.310199 0.0455826
1295 3 0.674737 0.302477 0.0564404
20754 1 0.694625 0.315745 0.0549608
7618 1 0.693469 0.289487 0.0543934
1296 1 0.678787 0.303712 0.0632916
8428 1 0.699355 0.312075 0.0387244
7619 3 0.699562 0.291821 0.0584313
12038 3 0.718206 0.289279 0.036314
12037 1 0.716564 0.295899 0.041879
7521 1 0.716357 0.298233 0.0443034
7520 3 0.71807 0.304898 0.0499622
7519 1 0.718623 0.312158 0.0518393
20299 1 0.718611 0.315006 0.052198
7620 1 0.703899 0.296187 0.0630934
1310 3 0.750033 0.285489 0.0610298
5390 3 0.750556 0.304486 0.0391496
5389 1 0.747506 0.307161 0.045686
20079 1 0.746335 0.308436 0.0481089
20078 3 0.743624 0.311412 0.054439
20077 1 0.740113 0.31674 0.058943
16889 3 0.767586 0.303631 0.0593589
16888 1 0.769717 0.303652 0.0517824
13564 1 0.770994 0.303517 0.0487581
13565 2 0.775195 0.303311 0.0423576
13566 1 0.771608 0.309646 0.0416707
921 1 0.770115 0.312232 0.0415836
10333 1 0.80724 0.288641 0.0362885
10334 3 0.804688 0.294996 0.0368153
10335 1 0.800004 0.301372 0.0338765
11581 1 0.798822 0.303692 0.0323475
5933 3 0.80376 0.316027 0.0514343
11706 1 0.812302 0.313405 0.0468872
5932 1 0.809448 0.314329 0.0482455
11705 3 0.820495 0.312513 0.0439619
5978 3 0.835811 0.310468 0.0338567
5979 1 0.829233 0.311616 0.0384134
11704 1 0.82632 0.312253 0.0401302
11179 1 0.624754 0.345616 0.0573843
12031 1 0.629977 0.318257 0.0537725
17566 1 0.62939 0.318947 0.0559958
15277 1 0.624503 0.344088 0.0600573
15218 3 0.658264 0.317854 0.0635074
21224 3 0.649123 0.329169 0.0387611
21404 3 0.645785 0.340626 0.0536673
21223 1 0.647763 0.333934 0.0450383
21403 1 0.647129 0.335589 0.047193
15217 1 0.665672 0.32203 0.0630872
21405 1 0.642648 0.346786 0.0582186
12294 1 0.664899 0.338885 0.0497651
12293 3 0.66612 0.342873 0.0565177
21219 1 0.668495 0.322845 0.0634434
12292 1 0.671202 0.345213 0.0633975
6885 1 0.675251 0.327485 0.0449763
6884 3 0.674814 0.319451 0.0417992
19 1 0.687656 0.333581 0.0382982
21 1 0.685928 0.345687 0.0491371
5248 1 0.686616 0.348128 0.0512736
20 3 0.685986 0.338313 0.0450624
7693 1 0.688643 0.332153 0.0364089
20753 3 0.697536 0.32087 0.060652
20301 1 0.714062 0.329199 0.0484871
20300 3 0.716842 0.322381 0.0536779
4107 1 0.713148 0.331717 0.0468691
4106 3 0.712176 0.338439 0.0428359
4105 1 0.710419 0.34718 0.0421048
11753 3 0.750935 0.327897 0.0365686
15313 1 0.728918 0.330393 0.035007
7143 1 0.730242 0.331865 0.0367201
7142 3 0.732551 0.336622 0.0413888
11811 1 0.739203 0.318869 0.0606407
7141 1 0.731106 0.343938 0.0458269
3112 1 0.730775 0.34705 0.0469479
5560 1 0.739185 0.337725 0.0598542
11752 1 0.756408 0.323646 0.0383462
58 1 0.750112 0.346371 0.0439694
5561 3 0.745425 0.342846 0.0555773
5562 1 0.749773 0.348191 0.0604778
919 1 0.758586 0.322128 0.0396112
14536 1 0.777217 0.337813 0.0345057
20523 1 0.779134 0.337387 0.0357573
20522 3 0.784261 0.33659 0.040992
920 3 0.764601 0.318816 0.0425487
14843 3 0.768527 0.340114 0.053677
16183 1 0.766329 0.332428 0.0605003
14844 1 0.767187 0.33463 0.0587377
20521 1 0.784987 0.330344 0.0455297
5271 1 0.785481 0.32829 0.0471726
5270 3 0.786992 0.321928 0.0517476
14842 1 0.769852 0.346647 0.0501037
6157 1 0.802696 0.334483 0.0345419
18072 1 0.803618 0.336285 0.0373986
5934 1 0.796429 0.317862 0.0511489
5269 1 0.793389 0.319669 0.0512938
18071 3 0.806311 0.341135 0.0426376
18070 1 0.810683 0.344039 0.0490171
184 1 0.812319 0.34522 0.0510894
185 3 0.816765 0.348485 0.0574096
7593 1 0.842526 0.341099 0.0407721
15732 1 0.843887 0.338524 0.0410496
15731 2 0.847589 0.331775 0.0411463
7592 3 0.838545 0.348401 0.0415341
4874 3 0.857828 0.329877 0.0558763
4873 1 0.864201 0.327557 0.0599767
4875 1 0.85349 0.331095 0.0501403
15730 1 0.851726 0.331252 0.047768
15939 1 0.883453 0.345703 0.0341976
11181 1 0.620995 0.352317 0.0437594
18964 1 0.619144 0.353211 0.0413509
11180 3 0.624983 0.34969 0.04968
18965 3 0.614401 0.355186 0.0342043
19535 3 0.620814 0.376347 0.0369494
19536 1 0.628207 0.374168 0.0389618
5572 1 0.630448 0.372606 0.0397318
5573 3 0.636203 0.36809 0.0413088
19534 1 0.613827 0.379547 0.0345188
19895 3 0.663995 0.349898 0.0344063
19896 1 0.656108 0.351246 0.0359658
19542 1 0.641719 0.348991 0.0595547
5574 1 0.639726 0.361007 0.039756
11244 1 0.64142 0.358479 0.0393129