ITEM: TIMESTEP
40000000
ITEM: NUMBER OF ATOMS
1248
ITEM: BOX BOUNDS pp pp pp
0.0000000000000000e+00 5.0000000000000000e+01
0.0000000000000000e+00 5.0000000000000000e+01
0.0000000000000000e+00 5.0000000000000000e+01
ITEM: ATOMS id type xs ys zs
16206 1 0.121126 0.727421 0.0134275
16205 3 0.126333 0.731659 0.00914518
16204 1 0.129144 0.736898 0.00343252
18187 1 0.131039 0.73901 0.00158671
8925 1 0.0798883 0.754979 0.000922093
21169 1 0.0816112 0.756294 0.00302932
21170 2 0.0870786 0.761264 0.00735778
21171 1 0.0938597 0.761122 0.0111624
1256 2 0.103059 0.763692 0.0152379
1255 1 0.0964307 0.761695 0.0125254
1257 1 0.11007 0.763831 0.0173926
12804 1 0.112734 0.76393 0.0181705
12803 3 0.119541 0.765527 0.0206442
12802 1 0.127744 0.762423 0.0186026
18891 1 0.129984 0.761285 0.017734
2371 1 0.144319 0.76217 0.00685499
18890 3 0.137692 0.760072 0.0145998
18889 1 0.142513 0.761558 0.00954773
12533 2 0.0736877 0.78846 0.00788189
12534 1 0.0768607 0.79084 0.0160856
6507 1 0.0907127 0.811035 0.00389424
12532 1 0.0784962 0.78628 0.00289731
1630 1 0.0808572 0.784904 0.00106068
6506 2 0.0834266 0.809193 0.00196125
6514 1 0.0935227 0.81211 0.00416771
6516 1 0.106565 0.812334 0.00614192
5653 1 0.133567 0.800602 0.00675764
1177 1 0.993472 0.814401 0.0190032
5079 1 0.992819 0.814056 0.0217539
5078 3 0.990909 0.814122 0.0304343
11128 1 0.00322287 0.815369 0.00362682
1179 1 0.00107118 0.815567 0.00560063
19074 1 0.0012349 0.834659 0.0117887
7336 1 0.00190435 0.834799 0.0145508
7337 3 0.00332708 0.835345 0.0213281
7338 1 0.00257769 0.836789 0.0286509
13222 1 0.00248789 0.837839 0.0317653
19073 3 0.00105226 0.835228 0.00348054
14175 1 0.119561 0.82594 0.00793051
5591 2 0.118444 0.832838 0.0160557
5592 1 0.119288 0.827546 0.00991878
14174 2 0.120421 0.821259 0.000515332
6515 2 0.0996478 0.815666 0.00454547
11773 1 0.120856 0.829195 0.0261532
5590 1 0.120168 0.830578 0.0234476
1178 3 0.995669 0.815867 0.0115833
13440 1 0.00595864 0.81047 0.0519571
13439 3 0.999249 0.813127 0.0475077
13438 1 0.997209 0.813598 0.0405536
5077 1 0.995822 0.813707 0.0377137
13223 2 0.00259222 0.840268 0.0392126
11774 3 0.123388 0.826262 0.0334248
11775 1 0.126314 0.825198 0.0410143
13224 1 0.99701 0.844495 0.0427217
5415 1 0.995272 0.846025 0.0440865
5413 1 0.986525 0.850063 0.0540135
5414 3 0.989982 0.850867 0.0482963
19233 1 0.0758542 0.804431 0.78237
17095 1 0.0739295 0.798753 0.79948
17096 2 0.0727908 0.798163 0.808195
19231 1 0.0746751 0.798804 0.796029
19232 2 0.075677 0.7989 0.787508
17097 1 0.0774584 0.79317 0.814426
9749 2 0.0752603 0.692907 0.845922
14790 1 0.0314196 0.701714 0.817902
14789 3 0.0358796 0.708093 0.820566
14788 1 0.0419592 0.712863 0.821548
5034 1 0.0439501 0.71417 0.821627
5033 3 0.0514621 0.716868 0.821824
5032 1 0.0545175 0.72009 0.828393
2187 1 0.0555295 0.721018 0.831359
2186 2 0.0579175 0.723196 0.83848
1246 1 0.0804054 0.714867 0.837952
1248 1 0.0934277 0.716728 0.836316
1247 2 0.0867578 0.71237 0.8371
2185 1 0.0641806 0.726204 0.843045
9750 1 0.0761115 0.700629 0.84355
9332 2 0.106053 0.718719 0.841817
9331 1 0.107973 0.721918 0.833973
5235 1 0.0450396 0.7529 0.825256
5233 1 0.0592585 0.749729 0.826216
10239 1 0.0619155 0.749783 0.827115
5234 3 0.0518649 0.748285 0.824763
14799 1 0.0926712 0.740386 0.830486
3213 1 0.0914965 0.742958 0.83008
3212 2 0.0881781 0.75076 0.830057
20392 1 0.0666373 0.728157 0.844033
20393 2 0.0739684 0.734297 0.844901
3211 1 0.0801458 0.751806 0.829666
10237 1 0.0772886 0.752149 0.82951
10238 2 0.0697395 0.750787 0.829674
14500 1 0.116627 0.729001 0.829732
15464 2 0.117896 0.753999 0.819305
14798 2 0.0966044 0.734948 0.831606
14797 1 0.102338 0.731195 0.836265
14501 2 0.118176 0.737027 0.826141
14502 1 0.118449 0.743631 0.82207
4251 1 0.109893 0.748251 0.846113
4250 2 0.113986 0.75363 0.841098
15465 1 0.11842 0.746319 0.821165
1018 1 0.00298813 0.769768 0.835803
1019 2 0.00753522 0.775601 0.837079
1020 1 0.0107641 0.78065 0.841672
13095 1 0.012192 0.782204 0.843574
19450 1 0.0411787 0.762006 0.843923
4722 1 0.0598443 0.787289 0.844222
10560 1 0.0743903 0.772051 0.842777
10559 2 0.0758214 0.778109 0.83714
10558 1 0.0789432 0.781617 0.831101
20784 1 0.08011 0.783214 0.828443
20783 2 0.0818408 0.785822 0.820943
15982 1 0.0742473 0.769663 0.845022
4312 1 0.0962482 0.764914 0.834269
4249 1 0.120104 0.758251 0.839207
7867 1 0.123072 0.759572 0.838495
4313 2 0.100711 0.770141 0.829651
4314 1 0.103681 0.776796 0.828091
15463 1 0.118797 0.761915 0.819643
3318 1 0.119099 0.764811 0.819972
3317 2 0.119405 0.773373 0.821528
3316 1 0.120071 0.781327 0.819717
18310 1 0.120297 0.784072 0.819294
7868 2 0.130871 0.762781 0.836583
7869 1 0.134911 0.76292 0.844297
6510 1 0.163344 0.78604 0.846295
2814 1 0.0501567 0.79918 0.829166
20773 1 0.0519336 0.797458 0.831183
2813 3 0.0458555 0.802983 0.824679
2812 1 0.0397825 0.807225 0.827042
20774 2 0.0572533 0.794546 0.835906
20775 1 0.0590023 0.789662 0.841687
20782 1 0.0789284 0.791225 0.816116
4118 2 0.086688 0.81519 0.844329
18311 2 0.1204 0.791603 0.818362
18312 1 0.121178 0.79669 0.82326
13132 1 0.121388 0.799337 0.82537
13133 2 0.121961 0.80646 0.830464
13134 1 0.118771 0.81263 0.834082
18763 1 0.117554 0.814775 0.835646
12601 1 0.112752 0.798733 0.841687
18764 2 0.113941 0.820978 0.839322
18765 1 0.112831 0.823833 0.846058
11114 2 0.128013 0.837145 0.846022
11115 1 0.132766 0.843142 0.844302
1276 1 0.134499 0.846013 0.84386
1277 2 0.139067 0.851225 0.84191
1278 1 0.144804 0.857486 0.842665
12631 1 0.146002 0.860872 0.842571
12632 2 0.150084 0.868273 0.842602
12633 1 0.15374 0.87474 0.845946
13143 1 0.0416635 0.683513 0.871378
13142 2 0.047805 0.687629 0.873501
8254 1 0.0875989 0.671252 0.848515
9748 1 0.0777162 0.685818 0.848168
17148 1 0.0688348 0.694396 0.86719
8255 2 0.082398 0.677412 0.8519
8256 1 0.0788009 0.683102 0.849216
17147 2 0.0737464 0.687493 0.870781
759 1 0.0592884 0.726595 0.870845
757 1 0.0605743 0.713583 0.86897
6871 1 0.0613529 0.710528 0.867955
758 2 0.0577289 0.719001 0.871351
6873 1 0.0672066 0.697604 0.866468
6872 2 0.0640992 0.703457 0.864753
9912 1 0.0800754 0.723797 0.867528
9911 2 0.0760552 0.722428 0.86195
9910 1 0.0802874 0.717049 0.860269
4606 1 0.0824114 0.71475 0.859939
4607 2 0.0856358 0.709988 0.85818
4608 1 0.090639 0.70571 0.854894
11781 1 0.0927549 0.704189 0.853739
18180 1 0.0813507 0.724282 0.870394
9333 1 0.101216 0.720081 0.848091
11780 2 0.0997746 0.701019 0.850986
11779 1 0.10776 0.702959 0.853293
4410 1 0.110574 0.703735 0.853753
4409 2 0.118848 0.7078 0.854685
4408 1 0.120309 0.713451 0.859938
5494 1 0.120994 0.715411 0.862061
14296 1 0.104123 0.716722 0.872683
10465 1 0.104271 0.718188 0.870296
5495 2 0.122641 0.721044 0.868093
10466 2 0.102929 0.723306 0.863981
5496 1 0.123982 0.722504 0.876926
10812 1 0.170505 0.716613 0.867103
10811 3 0.175121 0.715094 0.874521
16793 2 0.0623324 0.737101 0.870512
16792 1 0.0600948 0.729462 0.870809
19628 2 0.039616 0.746088 0.864293
19629 1 0.0421878 0.74304 0.870898
10663 1 0.042997 0.742197 0.873302
19452 1 0.0391875 0.750807 0.854512
19627 1 0.0392058 0.749295 0.856964
19451 3 0.0378292 0.755163 0.8473
16794 1 0.0631082 0.743655 0.865889
2631 1 0.0630998 0.746198 0.864433
2630 2 0.0631397 0.752472 0.859966
20394 1 0.0785846 0.738272 0.84973
12816 1 0.0801431 0.739778 0.85164
12815 2 0.084933 0.744171 0.85528
17525 2 0.0852481 0.754093 0.875798
17526 1 0.0930071 0.751993 0.875478
17524 1 0.0775006 0.75553 0.876047
12814 1 0.0890683 0.750203 0.854495
3486 1 0.0902331 0.752619 0.853964
12553 1 0.0747089 0.756108 0.87677
2436 1 0.108453 0.746107 0.847524
7326 1 0.0960535 0.75175 0.875755
10467 1 0.103068 0.728869 0.857699
2434 1 0.103466 0.731118 0.855819
2435 2 0.103977 0.739472 0.852219
7325 2 0.10413 0.750228 0.877066
940 1 0.114746 0.74735 0.876426
7324 1 0.111436 0.748577 0.877019
941 2 0.122467 0.74474 0.874447
942 1 0.130357 0.747231 0.872093
4096 1 0.13313 0.748064 0.871721
5862 1 0.147736 0.755296 0.877042
4097 2 0.140301 0.748711 0.870585
4098 1 0.14588 0.753614 0.875133
17556 1 0.00761234 0.767917 0.862141
1990 1 0.00501736 0.768421 0.860551
17554 1 0.0220931 0.769257 0.8666
3234 1 0.0255866 0.769772 0.867136
17555 2 0.014661 0.767765 0.865679
13094 3 0.017113 0.786546 0.848806
2983 1 0.0183442 0.786156 0.859794
13093 1 0.0180169 0.786283 0.856849
2984 2 0.0189716 0.786724 0.868092
2985 1 0.0156754 0.786615 0.874729
3232 1 0.0396578 0.769044 0.873698
3233 2 0.0341397 0.769171 0.869597
16174 1 0.0579277 0.772817 0.876647
16176 1 0.058301 0.779716 0.86168
4720 1 0.0590471 0.780707 0.858855
16175 2 0.0569896 0.775976 0.869577
4721 2 0.0606226 0.782513 0.850971
4210 1 0.0918073 0.786324 0.849928
4211 2 0.0934841 0.778661 0.850299
15983 2 0.0740422 0.763836 0.850763
2629 1 0.0672678 0.758098 0.855772
15984 1 0.0691791 0.759968 0.854343
8511 1 0.0790677 0.782435 0.867815
8510 2 0.0816903 0.775185 0.868422
11749 1 0.0783282 0.784567 0.867564
4212 1 0.0934193 0.770896 0.851315
3484 1 0.0935988 0.768026 0.851977
8509 1 0.0905605 0.773462 0.868795
20611 1 0.0936591 0.772849 0.868942
3485 2 0.094089 0.759494 0.852582
20612 2 0.101873 0.770101 0.869198
20613 1 0.108152 0.771451 0.874844
11985 1 0.110684 0.771235 0.876568
10357 1 0.135858 0.763497 0.847165
12573 1 0.139732 0.770789 0.863135
10359 1 0.139335 0.769344 0.860998
10358 2 0.138404 0.765249 0.854099
12572 2 0.140608 0.774552 0.869052
6509 3 0.155771 0.785419 0.848368
12571 1 0.136015 0.781287 0.871709
4837 1 0.134232 0.783638 0.872444
17009 2 0.17131 0.787517 0.864841
17010 1 0.174463 0.780153 0.866741
12742 1 0.0392704 0.799397 0.865845
14592 1 0.039567 0.796528 0.865445
14591 2 0.0407213 0.788931 0.863623
12743 2 0.039014 0.806786 0.867859
12744 1 0.0440959 0.812541 0.87029
14853 1 0.0452793 0.814953 0.871816
14590 1 0.0424949 0.789135 0.871248
19690 1 0.0435126 0.789379 0.874178
9651 1 0.0918705 0.789572 0.849708
9650 2 0.0905677 0.797638 0.848379
4119 1 0.0873398 0.817081 0.852473
11750 2 0.0760537 0.792527 0.866547
13327 1 0.0878752 0.817525 0.855078
11751 1 0.0779023 0.797011 0.87229
14887 1 0.0792213 0.79931 0.874247
4117 1 0.0881058 0.807976 0.847082
9649 1 0.0889134 0.805007 0.847548
11934 1 0.103827 0.789513 0.87149
15811 1 0.102792 0.789273 0.874504
11933 2 0.106792 0.788868 0.864127
11932 1 0.109797 0.790042 0.856724
12603 1 0.110585 0.790611 0.853808
12602 2 0.112128 0.791619 0.846488
6902 2 0.122297 0.80506 0.857678
6901 1 0.124776 0.813053 0.857907
6903 1 0.128063 0.800157 0.856005
282 1 0.131482 0.79831 0.855312
281 2 0.138427 0.794104 0.854107
8502 1 0.125898 0.815865 0.857939
6508 1 0.148985 0.790199 0.851092
280 1 0.145757 0.791474 0.851882
4838 2 0.128971 0.788931 0.874755
13970 2 0.139988 0.81052 0.874722
13969 1 0.144179 0.803806 0.876398
9557 3 0.166026 0.806556 0.866911
9558 1 0.168658 0.798556 0.865933
17008 1 0.169336 0.795676 0.865654
9556 1 0.169332 0.814326 0.867426
14852 2 0.0469538 0.821069 0.876839
13328 2 0.0877634 0.8191 0.862551
317 2 0.075397 0.844266 0.865796
2383 1 0.0812341 0.822713 0.870889
13329 1 0.0828143 0.82158 0.868082
316 1 0.0828082 0.843604 0.867453
318 1 0.0699328 0.840665 0.859556
15704 2 0.109673 0.826953 0.857284
15703 1 0.112002 0.824729 0.849152
15705 1 0.10583 0.82778 0.863693
6930 1 0.104448 0.828639 0.866472
6929 2 0.10043 0.830904 0.872951
8501 2 0.129946 0.822346 0.85837
11113 1 0.128214 0.831009 0.851491
8500 1 0.128105 0.828326 0.853247
10842 1 0.134363 0.842416 0.876839
14100 1 0.0441726 0.863492 0.866259
14098 1 0.0458109 0.850584 0.875917
14099 3 0.0444644 0.856956 0.870694
13141 1 0.0502388 0.689551 0.880821
1812 1 0.0552875 0.672323 0.907758
1811 2 0.0512651 0.678664 0.907165
3079 1 0.0512588 0.690405 0.883495
3080 2 0.0539917 0.692104 0.890322
21360 1 0.0682947 0.674568 0.887902
17146 1 0.0734145 0.685769 0.878988
21358 1 0.0733454 0.684227 0.881765
21359 2 0.0722827 0.680593 0.889067
14948 2 0.100049 0.689637 0.901675
14947 1 0.101118 0.693085 0.894385
11575 1 0.0453582 0.703236 0.888469
11577 1 0.0451183 0.717592 0.885052
11576 2 0.0434144 0.710842 0.888112
3081 1 0.0599941 0.698178 0.889485
6712 1 0.0620084 0.700064 0.888893
18178 1 0.0783891 0.726836 0.88415
18179 2 0.0851371 0.726557 0.877834
20104 1 0.0772584 0.704791 0.880987
20105 2 0.0854591 0.704828 0.88045
20106 1 0.0928913 0.707931 0.881066
9896 2 0.0633004 0.711349 0.904528
6713 2 0.0678159 0.705008 0.885602
6714 1 0.0739243 0.705237 0.881961
2060 2 0.0701405 0.724705 0.890529
2061 1 0.0760885 0.726477 0.885893
2059 1 0.0668622 0.719147 0.896564
9895 1 0.0658617 0.717133 0.898468
4547 2 0.0825591 0.699067 0.907649
14924 2 0.0882018 0.714454 0.898698
14925 1 0.0854338 0.707141 0.901114
4548 1 0.0844426 0.704695 0.902707
12564 1 0.12456 0.723146 0.879861
14298 1 0.0963351 0.709768 0.881124
18384 1 0.0984848 0.713665 0.900628
18383 2 0.106798 0.713556 0.901498
14297 2 0.103548 0.712941 0.879163
12563 2 0.122736 0.723985 0.888437
14923 1 0.0954185 0.714319 0.900268
16883 2 0.132944 0.712396 0.90402
16882 1 0.130387 0.705281 0.90173
3512 2 0.145267 0.726696 0.900342
16884 1 0.137952 0.718752 0.903549
3511 1 0.140223 0.72097 0.902773
10810 1 0.179098 0.715626 0.880101
2277 1 0.180865 0.716409 0.882936
2276 2 0.184803 0.717348 0.888737
2275 1 0.187267 0.722738 0.894733
8697 1 0.188314 0.724521 0.896586
10748 2 0.02991 0.749409 0.902446
13099 1 0.00346656 0.750572 0.902429
13101 1 0.00149943 0.742058 0.895748
13018 1 0.00405898 0.753899 0.902977
13100 3 0.00387391 0.742672 0.902793
10747 1 0.0315568 0.741867 0.903468
19293 1 0.0318521 0.739108 0.904082
10664 2 0.0446487 0.739712 0.880571
21119 2 0.0542225 0.738344 0.896171
10665 1 0.0483845 0.738151 0.886851
21118 1 0.0502136 0.737818 0.889315
21120 1 0.0590598 0.737571 0.902132
11350 1 0.0612136 0.737436 0.90449
10749 1 0.0320694 0.753862 0.896459
10473 1 0.0329103 0.75561 0.893683
19002 1 0.0838303 0.750581 0.898748
11010 1 0.0855298 0.748033 0.897704
11009 2 0.0884831 0.740827 0.895413
19001 2 0.0791619 0.755708 0.902147
11008 1 0.0925986 0.737011 0.901276
8571 1 0.0943262 0.736274 0.903094
12562 1 0.122 0.727287 0.894495
20161 1 0.121944 0.728521 0.896333
20162 2 0.121838 0.732711 0.902504
11921 2 0.105345 0.75266 0.904375
8570 2 0.0996596 0.733094 0.90725
3513 1 0.147847 0.734245 0.899116
17415 1 0.148349 0.737006 0.898977
17414 2 0.150037 0.744988 0.899615
17413 1 0.155455 0.750502 0.900014
21580 1 0.157953 0.752481 0.899961
21581 2 0.164612 0.755735 0.899277
7452 1 0.18437 0.750985 0.904437
8695 1 0.191685 0.738529 0.902546
8696 3 0.191227 0.730092 0.90128
7451 2 0.192061 0.748707 0.902891
7450 1 0.191514 0.741001 0.902595
20578 1 0.0032817 0.772274 0.901481
11544 1 0.0303604 0.785087 0.896674
20579 2 0.00232821 0.778964 0.899438
6231 1 0.00773061 0.782495 0.891599
6230 2 0.0116733 0.785329 0.884292
6229 1 0.0147907 0.786497 0.877361
20580 1 0.0061631 0.781817 0.893997
13020 1 0.00403865 0.769452 0.902054
13019 2 0.00596554 0.761536 0.902932
20575 1 0.0316223 0.781847 0.898009
6432 1 0.0599136 0.759382 0.888165
12555 1 0.0623807 0.75894 0.886043
10472 2 0.0361083 0.758756 0.886736
10471 1 0.0430872 0.760719 0.890462
6430 1 0.0458524 0.760923 0.891546
6431 2 0.0537182 0.760092 0.892962
20576 2 0.0343071 0.775581 0.900635
12554 2 0.0678895 0.75827 0.88019
7739 2 0.0652613 0.78614 0.884529
7888 1 0.0734759 0.779349 0.88764
7889 2 0.0787768 0.774337 0.890297
7738 1 0.0712516 0.780953 0.886725
7890 1 0.0860674 0.771332 0.891444
19000 1 0.0738488 0.761781 0.904625
2728 1 0.0722624 0.7646 0.905734
5169 1 0.0887369 0.769483 0.891751
5168 2 0.0957516 0.764447 0.892182
5167 1 0.0991824 0.759669 0.896665
11922 1 0.100925 0.75799 0.899069
11984 2 0.116926 0.770625 0.881697
11983 1 0.123349 0.77104 0.886613
13190 2 0.11095 0.774757 0.90738
13191 1 0.115602 0.780931 0.906026
15812 2 0.0992418 0.787546 0.88149
10755 1 0.117043 0.783301 0.905497
5861 2 0.152248 0.760073 0.881564
14731 1 0.125346 0.771221 0.888112
14732 2 0.131572 0.770024 0.894076
14733 1 0.132016 0.769926 0.902059
9752 2 0.150408 0.776946 0.905531
6933 1 0.131949 0.769447 0.904663
9751 1 0.14505 0.779608 0.900985
5860 1 0.15953 0.76415 0.881621
21582 1 0.1698 0.758081 0.905663
17973 1 0.17159 0.758682 0.907782
3245 2 0.0122204 0.79792 0.905512
4132 1 0.011634 0.808329 0.888399
14355 1 0.0089093 0.808001 0.886903
11542 1 0.0212548 0.794649 0.899731
3246 1 0.0188684 0.795356 0.901194
11543 2 0.0279591 0.792672 0.895956
4133 2 0.0192675 0.810342 0.892731
14354 2 0.00279127 0.807103 0.88348
4134 1 0.0262929 0.812256 0.895615
12684 1 0.0290274 0.812709 0.896605
19691 2 0.0454883 0.789204 0.882138
8931 1 0.0480186 0.789378 0.89338
19692 1 0.0467854 0.789394 0.890523
8930 2 0.0515448 0.788928 0.900708
12683 2 0.0371846 0.813052 0.899836
8929 1 0.0564655 0.794823 0.902242
12682 1 0.0444986 0.812083 0.903787
7122 1 0.0474713 0.811964 0.905197
13910 2 0.0644872 0.804758 0.885571
14888 2 0.0846359 0.803473 0.877875
7740 1 0.0659194 0.793924 0.885598
13911 1 0.0652308 0.796935 0.885506
13909 1 0.0689168 0.807732 0.89135
14889 1 0.0919777 0.807519 0.880481
20864 2 0.0900044 0.794169 0.895029
20863 1 0.0933129 0.79102 0.888612
20865 1 0.0841996 0.793617 0.899501
17623 1 0.0815639 0.792606 0.900772
1338 1 0.0708299 0.809033 0.893651
1337 2 0.0759473 0.810985 0.899751
1336 1 0.0814025 0.811 0.904839
18822 1 0.0834129 0.810682 0.906757
17624 2 0.0758829 0.790653 0.905314
15813 1 0.0949761 0.790166 0.886513
11719 1 0.0945581 0.808531 0.881242
11720 2 0.101504 0.81241 0.883896
10754 2 0.120301 0.791958 0.905146
11721 1 0.108121 0.806641 0.886075
625 1 0.10987 0.804461 0.885849
627 1 0.120738 0.79562 0.878342
626 2 0.115637 0.799989 0.882053
20429 2 0.121178 0.816862 0.898347
20430 1 0.114966 0.813906 0.902774
17875 1 0.112115 0.812393 0.904299
20428 1 0.123524 0.817549 0.891003
4839 1 0.121879 0.794367 0.877714
11928 1 0.124016 0.817799 0.888124
17876 2 0.106871 0.807417 0.90729
7757 2 0.14884 0.794985 0.881936
13971 1 0.133141 0.814896 0.877502
7758 1 0.145341 0.801094 0.877813
7756 1 0.147736 0.794736 0.889615
4562 2 0.145164 0.796927 0.900793
4561 1 0.146717 0.795107 0.893115
11926 1 0.130749 0.816071 0.878297
4563 1 0.148595 0.799555 0.907096
9701 2 0.0464234 0.84234 0.881961
9702 1 0.0462892 0.848244 0.877586
11950 1 0.0366124 0.834242 0.905218
11951 2 0.0367685 0.833886 0.896559
9700 1 0.0434474 0.83816 0.887819
11952 1 0.0420084 0.836551 0.890166
14851 1 0.0506257 0.824286 0.882628
21132 1 0.0522772 0.825119 0.884636
21131 2 0.0563188 0.827876 0.891541
11778 1 0.0612395 0.83918 0.907718
17657 2 0.0559311 0.84678 0.902862
17658 1 0.0596519 0.841145 0.906754
21130 1 0.0606272 0.833593 0.890008
3312 1 0.0622343 0.835558 0.889058
2384 2 0.0777206 0.825627 0.877867
2385 1 0.0816139 0.827625 0.88398
6361 1 0.0831629 0.828182 0.887083
6362 2 0.0877895 0.829112 0.89316
6363 1 0.0884678 0.829892 0.900618
10968 1 0.0886172 0.830534 0.903302
3311 2 0.0674826 0.841274 0.887315
3310 1 0.0755057 0.843727 0.88544
3349 1 0.0780986 0.844631 0.884949
3350 2 0.0853477 0.848131 0.884588
6928 1 0.104392 0.834113 0.880042
9382 1 0.10504 0.835353 0.882543
9383 2 0.107642 0.836385 0.890124
9384 1 0.109445 0.832881 0.89793
10381 1 0.109603 0.831658 0.900709
8137 1 0.120801 0.846263 0.903347
11927 2 0.123956 0.819133 0.880398
10840 1 0.123666 0.834304 0.879876
10841 2 0.131408 0.83782 0.880496
8138 2 0.126406 0.84043 0.904334
8139 1 0.131684 0.837941 0.906681
10336 1 0.158302 0.842083 0.903694
3994 1 0.159291 0.839545 0.902228
3996 1 0.168524 0.828543 0.900206
3995 3 0.162271 0.832689 0.898776
5190 1 0.0501603 0.85484 0.898211
17656 1 0.0517712 0.85268 0.899381
5188 1 0.042815 0.85849 0.885925
5189 2 0.0455528 0.85833 0.89379
3351 1 0.0903003 0.850487 0.889385
1222 1 0.0917725 0.85131 0.891935
1675 1 0.118787 0.849214 0.902424
1676 2 0.113198 0.854782 0.900276
1677 1 0.106606 0.854009 0.89982
1224 1 0.103693 0.853826 0.8992
1223 2 0.0967116 0.8527 0.897175
10337 2 0.156012 0.849528 0.90683
18475 1 0.134509 0.863655 0.907093
1810 1 0.0452438 0.683419 0.908649
18090 1 0.0426276 0.684748 0.909549
18089 2 0.037602 0.688395 0.913748
18088 1 0.0330791 0.694409 0.917428
15799 1 0.0317969 0.696734 0.918895
14050 1 0.0369912 0.68035 0.93489
2092 1 0.0397785 0.679404 0.933446
2093 2 0.0462055 0.677015 0.929191
2094 1 0.0528553 0.681212 0.928273
14916 1 0.0546334 0.682275 0.92766
16563 1 0.0448261 0.6926 0.93047
14915 2 0.0630943 0.684 0.926307
13118 2 0.0794762 0.684187 0.91852
13119 1 0.0722114 0.684462 0.922844
14914 1 0.0701072 0.684574 0.924247
13117 1 0.0795621 0.690419 0.914027
4546 1 0.0802937 0.692636 0.912454
14949 1 0.102874 0.692153 0.908254
15800 2 0.0295017 0.702542 0.923399
19291 1 0.0380944 0.727101 0.911987
15801 1 0.0319604 0.70704 0.928635
15673 1 0.0330178 0.70892 0.930379
15674 2 0.0366908 0.714142 0.936169
4911 1 0.0402054 0.725379 0.91369
4910 2 0.0453426 0.722012 0.918452
16562 2 0.0487959 0.698554 0.932107
16561 1 0.0525896 0.703642 0.937485
9897 1 0.0646227 0.707053 0.911521
19721 2 0.0664019 0.704008 0.921249
19722 1 0.0709913 0.700986 0.926576
19720 1 0.065139 0.705967 0.914188
15513 1 0.0726192 0.700259 0.928923
15512 2 0.0760612 0.698282 0.936994
18660 1 0.0921096 0.719308 0.931756
15090 1 0.0922594 0.719628 0.928298
11132 2 0.0696186 0.724623 0.936305
15089 2 0.092479 0.720538 0.920435
18382 1 0.110585 0.716335 0.909008
16885 1 0.111362 0.71713 0.911473
4594 1 0.117804 0.709968 0.937191
3438 1 0.120443 0.709807 0.936458
16886 2 0.114476 0.718665 0.91887
16887 1 0.11388 0.723172 0.924695
1797 1 0.114445 0.725846 0.926629
15088 1 0.0949198 0.726421 0.914992
3437 2 0.128249 0.707653 0.934148
3436 1 0.134803 0.710114 0.929516
13305 1 0.136601 0.711633 0.92736
13304 2 0.141764 0.715336 0.922898
13303 1 0.147243 0.720847 0.920871
20373 1 0.148817 0.723075 0.920501
14223 1 0.000238888 0.736233 0.93103
16532 2 0.02735 0.748068 0.92533
16533 1 0.0208295 0.752906 0.927204
19179 1 0.0193349 0.754309 0.928159
14222 2 0.00257627 0.73535 0.923476
14221 1 0.000671986 0.735985 0.916198
19292 2 0.032972 0.732299 0.908183
5854 1 0.0536813 0.746989 0.912194
5855 2 0.0493407 0.752418 0.91305
5487 1 0.0358977 0.752349 0.930621
16531 1 0.0332862 0.750921 0.929319
4909 1 0.0489629 0.728339 0.921826
1624 1 0.0505126 0.731004 0.923283
1625 2 0.0550344 0.7373 0.925646
1626 1 0.0600931 0.742148 0.927124
3943 1 0.0622358 0.74447 0.927903
5486 2 0.0435776 0.755073 0.93419
3944 2 0.0663101 0.750473 0.928511
11351 2 0.0665915 0.737294 0.909536
11352 1 0.0728096 0.739058 0.91218
8584 1 0.0756114 0.739901 0.913909
8585 2 0.0811627 0.741179 0.919686
8586 1 0.0861925 0.743554 0.925131
12903 1 0.0880343 0.744217 0.92728
3945 1 0.0721176 0.756694 0.926583
11920 1 0.109553 0.75254 0.911205
8569 1 0.0959499 0.728708 0.913006
12902 2 0.0943421 0.745684 0.932061
20136 1 0.111256 0.752526 0.913505
20135 2 0.114796 0.753856 0.919924
1796 2 0.113061 0.731284 0.931123
1795 1 0.114682 0.737113 0.936474
4224 1 0.115096 0.738809 0.938304
12901 1 0.0987752 0.751674 0.932366
20134 1 0.119018 0.756852 0.926297
9537 1 0.100503 0.754284 0.93288
20372 2 0.15421 0.730552 0.92009
20163 1 0.125443 0.735959 0.909232
17064 1 0.126975 0.736948 0.911855
20371 1 0.156186 0.7384 0.920606
17063 2 0.131313 0.738322 0.918051
13454 2 0.139341 0.746146 0.932504
17062 1 0.133996 0.741714 0.92495
13455 1 0.135651 0.742976 0.927493
13453 1 0.146026 0.750047 0.935581
6023 2 0.156029 0.75007 0.920661
1062 1 0.148143 0.751153 0.93738
6024 1 0.156625 0.741823 0.920795
17971 1 0.179715 0.753586 0.918072
6783 1 0.180337 0.750762 0.919169
6782 2 0.182703 0.743698 0.923808
975 1 0.186865 0.744829 0.933506
6781 1 0.185789 0.744384 0.929854
19178 2 0.013437 0.75842 0.930751
15059 2 0.0109562 0.776621 0.923848
15058 1 0.011638 0.782929 0.927739
877 1 0.013151 0.785603 0.929298
19177 1 0.0139786 0.766517 0.927858
15060 1 0.0136068 0.768899 0.926885
5856 1 0.0445128 0.758224 0.91436
20577 1 0.0358581 0.772665 0.908077
9733 1 0.0369035 0.770825 0.910481
9735 1 0.0425945 0.760499 0.915293
9734 2 0.0379828 0.766546 0.916257
7202 2 0.044103 0.781584 0.935536
7201 1 0.0495757 0.780125 0.930329
9838 1 0.0513903 0.779168 0.927603
9839 2 0.0548976 0.777618 0.919962
2730 1 0.0625867 0.774554 0.912831
9840 1 0.0608519 0.775447 0.914517
2729 2 0.0681245 0.770227 0.909311
2005 1 0.0887771 0.767831 0.917873
2006 2 0.0938721 0.769883 0.913097
1867 1 0.0738811 0.758612 0.926394
1869 1 0.0867259 0.767307 0.920666
1868 2 0.0802181 0.76462 0.924782
5691 1 0.0918683 0.783883 0.929494
9316 1 0.0904226 0.78621 0.92896
2007 1 0.101191 0.771867 0.911585
13189 1 0.103587 0.772701 0.910255
6762 1 0.120353 0.758013 0.928379
6761 2 0.123986 0.762617 0.933557
5689 1 0.099108 0.770699 0.934572
5690 2 0.0960255 0.777636 0.931992
9535 1 0.100203 0.767704 0.935209
9536 2 0.103253 0.760368 0.935338
16736 2 0.116611 0.780034 0.928277
16737 1 0.11315 0.786464 0.92651
16735 1 0.125044 0.779371 0.930917
6932 2 0.131085 0.77045 0.912573
6931 1 0.129029 0.777993 0.913916
6760 1 0.128149 0.76775 0.93851
1093 1 0.151649 0.773539 0.923543
1515 1 0.149548 0.77563 0.924127
1514 2 0.143653 0.781479 0.926442
1513 1 0.140153 0.787293 0.929308
9753 1 0.158414 0.778773 0.908017
8491 1 0.160778 0.779672 0.908699
8492 2 0.167737 0.784322 0.910612
8493 1 0.1757 0.786022 0.909627
1094 2 0.157478 0.768351 0.922146
1095 1 0.157634 0.760502 0.921707
6022 1 0.157681 0.757994 0.921217
17972 2 0.176771 0.760305 0.914528
3244 1 0.0125099 0.805196 0.909461
13184 2 0.0135974 0.81556 0.934647
13185 1 0.0206545 0.815007 0.931079
8905 1 0.0234372 0.8148 0.929879
16747 1 0.0122355 0.807528 0.910446
8906 2 0.029889 0.813517 0.925856
16748 2 0.012286 0.814926 0.912801
878 2 0.0171537 0.790881 0.932787
879 1 0.0235115 0.793929 0.937074
5916 1 0.0255171 0.794686 0.938026
8907 1 0.0351042 0.810357 0.920211
7121 2 0.0539409 0.811674 0.909023
7120 1 0.0534088 0.817152 0.914102
15332 2 0.0492813 0.805923 0.937341
18821 2 0.0893082 0.809272 0.911467
1013 2 0.0673366 0.799207 0.921081
17625 1 0.0719478 0.793641 0.91229
1012 1 0.0706437 0.794879 0.914784
1014 1 0.0685797 0.807052 0.921388
3018 1 0.0695746 0.810098 0.9213
9317 2 0.0857283 0.791307 0.927296
3017 2 0.0729346 0.817214 0.921619
9318 1 0.0833458 0.796827 0.931719
8217 1 0.0824399 0.799138 0.933258
8216 2 0.0800347 0.804932 0.93749
3202 1 0.111746 0.789024 0.92608
18820 1 0.0974925 0.808181 0.910315
17877 1 0.100012 0.808253 0.909427
3203 2 0.107591 0.795012 0.924767
1718 2 0.0992539 0.810376 0.92925
1717 1 0.102583 0.802766 0.928162
3204 1 0.103843 0.800255 0.927308
5676 1 0.124575 0.810456 0.918629
5675 2 0.119923 0.815533 0.922866
1372 1 0.138617 0.789582 0.930546
10753 1 0.126062 0.796759 0.910306
1373 2 0.136491 0.795745 0.934297
11254 1 0.149686 0.800058 0.909729
11255 2 0.153444 0.802013 0.917712
19069 1 0.127588 0.798541 0.911891
19071 1 0.126278 0.808647 0.917795
19070 2 0.131511 0.802585 0.915545
1374 1 0.130888 0.799129 0.938341
9199 1 0.173844 0.79673 0.933177
9200 2 0.169594 0.800516 0.92753
11256 1 0.160241 0.80188 0.921263
9201 1 0.162716 0.801696 0.923318
7932 1 0.0150189 0.825262 0.915151
7931 2 0.0163094 0.832762 0.918825
16749 1 0.0141234 0.822518 0.914388
7930 1 0.0131349 0.840199 0.918926
9579 1 0.0124059 0.842698 0.91855
4551 1 0.0361793 0.834609 0.908376
12242 2 0.0360264 0.835596 0.935543
12241 1 0.0364605 0.837097 0.927856
4549 1 0.0365045 0.837303 0.924596
4550 2 0.0363062 0.836401 0.916073
13804 1 0.0532617 0.819386 0.916596
13805 2 0.0516487 0.824581 0.921937
13806 1 0.0510475 0.832446 0.921582
21178 1 0.05114 0.835541 0.922306
21179 2 0.0527044 0.842886 0.92532
10967 2 0.087955 0.831916 0.910745
11777 2 0.0675173 0.834658 0.911621
11776 1 0.0700869 0.827258 0.91604
3016 1 0.0712884 0.824575 0.91792
10966 1 0.0860214 0.838666 0.91304
16527 1 0.084765 0.841601 0.91381
16525 1 0.0883985 0.848462 0.9216
20919 1 0.0900854 0.848056 0.924019
1719 1 0.0974353 0.818221 0.930798
20251 1 0.0965832 0.820812 0.930672
20918 2 0.095337 0.846092 0.929671
20917 1 0.0953586 0.83888 0.929929
20253 1 0.0951541 0.836048 0.929656
5674 1 0.118466 0.819954 0.928347
20252 2 0.0946799 0.828095 0.929646
10382 2 0.108295 0.829386 0.908219
10383 1 0.111688 0.833028 0.914277
5223 1 0.112786 0.83443 0.915942
5222 2 0.115141 0.839562 0.923108
5221 1 0.122172 0.841564 0.927205
13251 1 0.124648 0.841496 0.928889
4657 1 0.117869 0.821149 0.92986
4658 2 0.116441 0.825488 0.935382
20187 1 0.145199 0.836926 0.920342
20186 2 0.140548 0.837337 0.913712
20185 1 0.134351 0.837715 0.908062
13250 2 0.131844 0.841086 0.933157
13249 1 0.139676 0.83901 0.935062
9578 2 0.00927162 0.850144 0.917387
932 2 0.0240522 0.854472 0.93701
933 1 0.0294611 0.856962 0.932741
7405 1 0.0312494 0.858068 0.930388
9577 1 0.0081721 0.85741 0.917942
13966 1 0.00729913 0.860044 0.919285
13968 1 0.00586063 0.867962 0.931508
19086 1 0.00619694 0.868394 0.934015
13967 2 0.00499251 0.866655 0.924272
7406 2 0.0351257 0.862041 0.924272
7407 1 0.0411721 0.863534 0.919734
1610 2 0.051679 0.864587 0.916103
1609 1 0.0585579 0.867237 0.914482
1522 1 0.060951 0.868187 0.913145
1611 1 0.043722 0.863874 0.918698
21180 1 0.0576938 0.849313 0.925761
4497 1 0.0602629 0.851555 0.926458
1524 1 0.0731745 0.874968 0.909917
16526 2 0.0827114 0.849401 0.915272
1523 2 0.0672632 0.871009 0.908908
4496 2 0.0673306 0.855377 0.928537
4495 1 0.0728594 0.85043 0.933311
12856 1 0.0746896 0.848866 0.935325
2340 1 0.0885138 0.869295 0.934443
18476 2 0.141813 0.862699 0.910437
10338 1 0.149743 0.854891 0.908091
18477 1 0.147563 0.856661 0.908728
14052 1 0.0281792 0.689442 0.942183
13822 1 0.0269796 0.691656 0.943355
14051 2 0.0313218 0.682989 0.939113
20876 2 0.0471169 0.692293 0.952317
20875 1 0.0500557 0.684101 0.954055
15511 1 0.0721466 0.69405 0.942845
12600 1 0.0704532 0.692615 0.945208
14966 2 0.0837845 0.694621 0.962229
12598 1 0.0743468 0.690487 0.956003
14965 1 0.0765839 0.691726 0.957926
12599 2 0.0674349 0.688769 0.951157
10324 1 0.118065 0.677371 0.955946
10325 3 0.122956 0.683064 0.957046
10326 1 0.130155 0.68452 0.956492
16944 1 0.13288 0.685471 0.95564
16943 2 0.140833 0.688319 0.954691
16942 1 0.145927 0.695383 0.952217
9814 1 0.0184511 0.707573 0.944149
13823 3 0.0228348 0.697328 0.945987
13824 1 0.0196438 0.704705 0.944493
9815 3 0.0159718 0.714724 0.943153