ITEM: TIMESTEP
40000000
ITEM: NUMBER OF ATOMS
2415
ITEM: BOX BOUNDS pp pp pp
0.0000000000000000e+00 5.0000000000000000e+01
0.0000000000000000e+00 5.0000000000000000e+01
0.0000000000000000e+00 5.0000000000000000e+01
ITEM: ATOMS id type xs ys zs
819 1 0.413988 0.506763 0.377364
756 1 0.401384 0.484783 0.392298
755 2 0.410062 0.484475 0.393492
754 1 0.414498 0.489185 0.39853
6102 1 0.415887 0.490516 0.399864
6101 3 0.420204 0.495452 0.404388
6100 1 0.424192 0.50147 0.407946
5503 1 0.425721 0.50306 0.40966
7600 1 0.44392 0.43508 0.426222
10911 1 0.434743 0.43981 0.443826
7601 3 0.442237 0.441023 0.430446
15702 1 0.423935 0.471346 0.440691
2206 1 0.422024 0.472882 0.438286
12612 1 0.446752 0.448354 0.436792
7602 1 0.445726 0.445684 0.434933
12611 3 0.449702 0.45418 0.441095
15701 3 0.429563 0.46769 0.445115
13649 3 0.475728 0.464402 0.438757
13650 1 0.48366 0.464504 0.439209
13648 1 0.469086 0.468826 0.441619
11154 1 0.467026 0.470891 0.442285
11049 1 0.504479 0.458259 0.437824
19228 1 0.501667 0.459733 0.438607
11048 3 0.511979 0.454747 0.435859
19230 1 0.486873 0.464485 0.4395
19229 2 0.495113 0.463147 0.440183
11047 1 0.518776 0.452904 0.434866
2207 3 0.418613 0.475742 0.432381
2208 1 0.418622 0.483843 0.431606
4653 1 0.418686 0.486598 0.432666
4652 3 0.418651 0.494753 0.436682
4651 1 0.420955 0.501799 0.438233
16029 1 0.422058 0.504072 0.438708
6848 3 0.445722 0.487413 0.443602
6847 1 0.453156 0.483486 0.443256
11152 1 0.455118 0.481989 0.443328
16248 1 0.460837 0.501042 0.416927
5220 1 0.460805 0.498991 0.41929
5219 3 0.461668 0.494197 0.425318
5218 1 0.464547 0.49286 0.431478
11153 3 0.4613 0.4767 0.4426
10527 1 0.46653 0.505192 0.440783
13465 1 0.481668 0.498253 0.42606
20661 1 0.481077 0.495942 0.428318
13466 3 0.482476 0.503744 0.419719
20659 1 0.481805 0.48882 0.442171
20660 3 0.480336 0.490196 0.43401
17329 1 0.496024 0.494047 0.426388
17330 3 0.502512 0.496773 0.423851
17331 1 0.502642 0.502386 0.41809
14279 3 0.605871 0.498622 0.423453
14278 1 0.607701 0.492981 0.429714
14280 1 0.607168 0.506509 0.422748
10910 3 0.427999 0.443298 0.446065
3293 3 0.419337 0.45376 0.45832
10909 1 0.424161 0.448927 0.451111
3292 1 0.422578 0.450453 0.453128
5928 1 0.420023 0.46248 0.463558
5927 3 0.419334 0.468196 0.469725
5926 1 0.415743 0.473272 0.475619
3294 1 0.419988 0.460189 0.462095
1553 3 0.43948 0.468362 0.460945
1552 1 0.446525 0.468363 0.465055
1554 1 0.436389 0.466781 0.453488
15700 1 0.434614 0.466438 0.451065
12610 1 0.453451 0.458245 0.447308
10278 1 0.455015 0.459368 0.449451
10277 3 0.459452 0.460397 0.455389
20087 3 0.472407 0.453959 0.467498
20088 1 0.466849 0.456225 0.463271
10276 1 0.464653 0.457596 0.461017
9381 1 0.469679 0.474386 0.476024
20086 1 0.478541 0.448401 0.469652
4471 1 0.477307 0.472518 0.455157
4761 1 0.387433 0.485868 0.473391
8602 1 0.39018 0.485875 0.472902
4760 3 0.379539 0.484926 0.476662
8603 3 0.39831 0.486996 0.471688
8604 1 0.405733 0.489724 0.46977
6934 1 0.408387 0.491055 0.468839
6935 3 0.415984 0.494967 0.466348
6936 1 0.421286 0.491847 0.460519
2890 1 0.42321 0.490952 0.459093
11785 1 0.434529 0.506421 0.467493
2891 3 0.429765 0.488763 0.455435
6849 1 0.439105 0.488724 0.448037
2892 1 0.436 0.489057 0.450031
11786 3 0.442854 0.503143 0.467431
11787 1 0.448799 0.498345 0.465534
17904 1 0.451478 0.496547 0.465049
13993 1 0.480318 0.506952 0.467261
13921 1 0.480564 0.504161 0.468454
10526 3 0.46449 0.500365 0.44675
10525 1 0.46221 0.496523 0.452934
17903 3 0.458196 0.492051 0.462668
17902 1 0.461629 0.495487 0.455339
13923 1 0.47573 0.490589 0.47348
9380 3 0.471291 0.481652 0.474849
9379 1 0.47412 0.488628 0.473921
4472 3 0.481989 0.479187 0.455235
13922 3 0.480409 0.497032 0.472195
4473 1 0.487185 0.485014 0.454257
930 1 0.48954 0.487135 0.45421
929 3 0.494366 0.493814 0.453102
928 1 0.494685 0.502246 0.449304
2478 1 0.494235 0.504779 0.447895
6306 1 0.41503 0.475003 0.47781
1409 3 0.362785 0.485602 0.48626
1410 1 0.358546 0.491501 0.486326
3222 1 0.38967 0.503773 0.487477
7170 1 0.389651 0.505746 0.486204
1408 1 0.369454 0.485642 0.481008
3221 3 0.390469 0.497535 0.491885
4759 1 0.372051 0.485283 0.479606
14081 3 0.402452 0.483952 0.498126
14082 1 0.39768 0.490092 0.494988
14080 1 0.408344 0.481898 0.492617
6305 3 0.415337 0.480293 0.48413
6304 1 0.410658 0.481126 0.490157
3220 1 0.395778 0.492169 0.493811
16456 1 0.445352 0.498727 0.500471
19969 1 0.446873 0.496791 0.50158
16457 3 0.440996 0.503208 0.496338
19970 2 0.452566 0.491744 0.504412
12652 1 0.58883 0.496273 0.491056
12653 3 0.582244 0.499848 0.489913
10677 1 0.568192 0.561276 0.349266
9102 1 0.524563 0.594204 0.348674
20038 1 0.52191 0.59566 0.347985
20039 2 0.514896 0.599956 0.346186
2968 1 0.57236 0.659997 0.348846
18271 1 0.575239 0.660343 0.347677
18273 1 0.588039 0.656695 0.341538
18272 3 0.582387 0.661362 0.344548
7743 1 0.531516 0.692107 0.345779
19704 1 0.489839 0.565562 0.361794
19703 3 0.488677 0.567506 0.369818
17527 1 0.53578 0.555596 0.355414
17528 3 0.539008 0.562669 0.352986
16933 1 0.545204 0.566183 0.380786
10675 1 0.564881 0.557531 0.362812
10676 3 0.564759 0.561498 0.355571
13429 1 0.565217 0.556148 0.36547
13430 2 0.565438 0.552968 0.373281
13431 1 0.563837 0.557688 0.380584
19702 1 0.493438 0.572714 0.372451
10284 1 0.49626 0.574449 0.374122
5828 2 0.491405 0.595629 0.374013
10283 2 0.503709 0.574757 0.37628
5827 1 0.48956 0.590075 0.37889
4741 1 0.488453 0.587672 0.381126
15957 1 0.509925 0.582511 0.380541
10282 1 0.50855 0.580155 0.379004
20040 1 0.511788 0.599565 0.353889
19387 1 0.510559 0.599205 0.35666
19389 1 0.500484 0.598404 0.36826
5829 1 0.497654 0.598222 0.369899
19388 2 0.506653 0.598368 0.363936
9101 3 0.53181 0.591218 0.350408
9100 1 0.538318 0.594874 0.353396
17433 1 0.541239 0.595783 0.354433
17927 2 0.527254 0.577489 0.367947
17928 1 0.530312 0.584196 0.370222
5725 1 0.531108 0.587676 0.370564
17926 1 0.528095 0.570609 0.363335
17529 1 0.544118 0.569507 0.354323
5726 2 0.532144 0.595722 0.372094
17432 2 0.547501 0.597117 0.359501
15834 1 0.54589 0.571602 0.354855
15833 2 0.550854 0.577641 0.356323
8086 1 0.560905 0.58113 0.361452
15832 1 0.557698 0.580036 0.359495
8088 1 0.575585 0.5817 0.364417
8087 2 0.568418 0.583252 0.364143
3267 1 0.546544 0.569197 0.380146
3266 2 0.5497 0.576007 0.379515
16606 1 0.578255 0.581299 0.364283
13756 1 0.600735 0.574243 0.373616
13757 2 0.602457 0.577696 0.380589
16607 2 0.586123 0.579405 0.362787
16608 1 0.587208 0.576858 0.355238
14033 2 0.620635 0.598074 0.377121
14032 1 0.628151 0.594161 0.377898
16341 1 0.630696 0.593137 0.378893
16340 2 0.637644 0.591141 0.380995
19483 1 0.499977 0.615377 0.370146
14897 2 0.498269 0.617962 0.360267
14898 1 0.499911 0.616484 0.367125
14896 1 0.497506 0.617555 0.352696
19484 2 0.50234 0.613213 0.377793
18265 1 0.49851 0.629428 0.369604
5727 1 0.530267 0.603273 0.373661
2517 1 0.517818 0.625123 0.362233
14815 1 0.519093 0.622541 0.362373
3612 1 0.544253 0.622578 0.377192
10705 1 0.545326 0.62421 0.37526
14816 2 0.523541 0.615596 0.362044
14817 1 0.528981 0.617279 0.367252
11227 1 0.555894 0.601416 0.365957
17431 1 0.553539 0.600017 0.363723
11228 2 0.560791 0.604587 0.370745
11229 1 0.565312 0.609956 0.374267
20776 1 0.567401 0.611654 0.375645
20777 2 0.571523 0.617282 0.379422
10706 2 0.548447 0.629065 0.369583
20778 1 0.571267 0.626171 0.379246
15194 2 0.602846 0.605544 0.381258
19622 3 0.6255 0.615906 0.364527
19621 1 0.624344 0.618692 0.372304
19623 1 0.630079 0.619984 0.357743
15195 1 0.609634 0.601706 0.380054
14034 1 0.612627 0.600522 0.379387
10575 1 0.624505 0.619574 0.376001
2516 2 0.514452 0.632588 0.362806
2515 1 0.509098 0.63592 0.358825
3101 2 0.501304 0.654034 0.368627
3100 1 0.494442 0.658948 0.370486
20926 1 0.492251 0.660778 0.371501
20947 1 0.511265 0.654476 0.363976
3102 1 0.508313 0.654262 0.365236
6421 1 0.506363 0.638204 0.380106
18266 2 0.497496 0.634484 0.375082
18267 1 0.504309 0.637437 0.378774
20948 2 0.518943 0.655019 0.361517
6574 1 0.528005 0.651775 0.366603
20949 1 0.52522 0.6526 0.365054
6575 2 0.535141 0.651072 0.370458
6576 1 0.539732 0.650637 0.377228
9610 1 0.541718 0.650698 0.379692
10707 1 0.554309 0.634368 0.367581
18792 1 0.556914 0.636432 0.367012
18791 2 0.56156 0.642602 0.366238
18790 1 0.565673 0.649251 0.369112
20679 1 0.566593 0.651538 0.370405
20678 2 0.569478 0.657397 0.373501
2969 2 0.56586 0.659774 0.352707
20677 1 0.572011 0.659779 0.380445
19186 1 0.60291 0.65031 0.350756
19187 2 0.601143 0.644883 0.35772
19188 1 0.599687 0.645201 0.365512
18937 1 0.599611 0.645252 0.368782
18938 2 0.599995 0.646313 0.377055
6652 1 0.492107 0.677301 0.356983
6653 3 0.49962 0.68288 0.35866
20927 2 0.487382 0.666446 0.374725
6654 1 0.504842 0.687859 0.362438
19045 1 0.506876 0.689023 0.364006
8648 2 0.51488 0.666057 0.381491
7742 2 0.528179 0.688128 0.352353
7741 1 0.526933 0.681357 0.355615
19360 1 0.535209 0.68172 0.372759
12961 1 0.537339 0.683983 0.3722
19361 2 0.529405 0.676234 0.373718
8649 1 0.520645 0.668624 0.376317
19362 1 0.523356 0.670278 0.375068
12962 2 0.542597 0.689224 0.368741
4905 1 0.549289 0.667385 0.373449
13471 1 0.549233 0.666721 0.370483
4904 2 0.549488 0.669503 0.380382
13473 1 0.556976 0.662174 0.35898
2970 1 0.559541 0.661434 0.357393
13472 2 0.550521 0.666174 0.362661
339 1 0.572392 0.681467 0.376619
4566 1 0.574539 0.681798 0.374714
12963 1 0.54915 0.691499 0.365962
4564 1 0.584745 0.684618 0.364403
4565 2 0.580133 0.682624 0.36993
13627 1 0.448156 0.722702 0.366466
13628 3 0.455053 0.721285 0.368518
14480 3 0.470912 0.715726 0.375202
14479 1 0.476378 0.712683 0.379613
1183 1 0.478481 0.712143 0.381435
13629 1 0.462121 0.719957 0.371787
14481 1 0.46445 0.719194 0.372962
19046 2 0.512918 0.692821 0.368892
19047 1 0.517278 0.695727 0.372643
17109 1 0.519898 0.696573 0.37416
17108 2 0.526198 0.699295 0.378816
16556 2 0.539932 0.709759 0.359124
16557 1 0.539552 0.704407 0.36503
16555 1 0.538326 0.716428 0.362341
12865 1 0.556375 0.714313 0.372954
12866 2 0.556348 0.721621 0.368363
14658 1 0.551826 0.693003 0.365243
14656 1 0.56639 0.700322 0.363627
14657 2 0.559694 0.695532 0.363095
12867 1 0.554587 0.724733 0.361522
3354 1 0.37284 0.524556 0.41198
817 1 0.410538 0.513205 0.389582
7131 1 0.411555 0.51463 0.39178
7130 3 0.413807 0.519412 0.397906
7129 1 0.418236 0.523489 0.402638
15303 1 0.420075 0.524924 0.40464
15302 3 0.42419 0.528767 0.410521
818 2 0.408523 0.509744 0.382296
1946 3 0.436212 0.519233 0.393887
1945 1 0.438217 0.515095 0.400296
1947 1 0.434854 0.526588 0.390723
4291 1 0.434635 0.529885 0.389461
4292 3 0.435254 0.537851 0.386244
6999 1 0.451311 0.53787 0.40659
16246 1 0.463964 0.511265 0.404979
16247 3 0.461204 0.507485 0.411751
6997 1 0.46318 0.531181 0.411892
6998 3 0.458202 0.533556 0.406166
9884 3 0.494157 0.534234 0.41303
19442 2 0.488167 0.517942 0.410242
19443 1 0.48986 0.52497 0.411842
9883 1 0.490879 0.527964 0.412047
12234 1 0.541154 0.531765 0.410682
12233 2 0.532385 0.533385 0.412486
18248 3 0.423656 0.547898 0.396899
18249 1 0.421818 0.553026 0.402915
12481 1 0.421533 0.554755 0.4051
12482 3 0.421525 0.559492 0.412275
6744 1 0.438334 0.553863 0.396607
6743 3 0.438774 0.559488 0.39115
16521 1 0.451747 0.555841 0.388147
6742 1 0.440728 0.563961 0.384485
4293 1 0.43077 0.542598 0.391603
18247 1 0.428496 0.544269 0.393289
2501 3 0.442172 0.544054 0.407625
2500 1 0.443594 0.551652 0.408828
20256 1 0.444338 0.554442 0.409657
2502 1 0.448865 0.539542 0.406939
20255 3 0.447984 0.560516 0.412137
17464 1 0.470691 0.547441 0.41275
10408 1 0.472133 0.546736 0.410077
10409 3 0.475216 0.543937 0.40426
16520 3 0.45881 0.555333 0.393012
16519 1 0.46325 0.559448 0.399103
1714 1 0.46482 0.56105 0.401321
10410 1 0.481224 0.542835 0.399404
4398 1 0.483433 0.542725 0.397648
1715 3 0.4693 0.566131 0.40656
11900 2 0.506571 0.548806 0.394239
4397 3 0.488316 0.542553 0.39163
4396 1 0.49563 0.5446 0.393318
11899 1 0.498846 0.545918 0.394012
11901 1 0.510482 0.551518 0.400467
8557 1 0.511648 0.552037 0.402964
5118 1 0.539174 0.547519 0.401396
5117 2 0.533058 0.548577 0.396054
5116 1 0.534445 0.553463 0.390061
16935 1 0.536107 0.555465 0.387542
8558 2 0.515816 0.554228 0.410069
4728 1 0.541371 0.547506 0.403049
16934 2 0.540912 0.559854 0.38279
6867 1 0.524662 0.565662 0.407149
4727 2 0.547545 0.548468 0.408849
3637 1 0.562447 0.566448 0.396303
3638 2 0.561837 0.560848 0.390801
3639 1 0.563585 0.55859 0.383034
13596 1 0.563106 0.568698 0.398605
595 1 0.586778 0.545255 0.40787
16800 1 0.588081 0.551525 0.392349
16799 2 0.582168 0.554951 0.38743
16798 1 0.580701 0.56214 0.385353
5418 1 0.58065 0.565595 0.385322
5629 1 0.634574 0.568708 0.412026
10477 1 0.421735 0.59091 0.38277
427 1 0.422342 0.594277 0.410227
10478 2 0.425153 0.58549 0.387897
10479 1 0.42909 0.582389 0.394045
19582 1 0.431022 0.581651 0.396046
19583 3 0.436864 0.579536 0.400781
19584 1 0.444169 0.579072 0.399026
997 1 0.445794 0.5963 0.40833
17788 1 0.447294 0.579119 0.398392
17789 3 0.454597 0.580293 0.398228
17790 1 0.45765 0.586993 0.397075
1716 1 0.473953 0.572547 0.406319
17283 1 0.475479 0.574932 0.406776
17282 2 0.481059 0.58078 0.407292
4742 3 0.486075 0.582566 0.386835
4743 1 0.492255 0.577813 0.391801
8675 2 0.499321 0.572576 0.397866
8676 1 0.494537 0.576225 0.393663
8674 1 0.504948 0.577694 0.399684
20355 1 0.506636 0.580034 0.400678
15956 2 0.514791 0.587669 0.384141
20353 1 0.513932 0.586034 0.410342
13542 1 0.515042 0.585636 0.412801
20354 2 0.510334 0.586715 0.403367
6866 2 0.529911 0.572473 0.404094
15955 1 0.519164 0.593659 0.387724
6216 1 0.521453 0.595975 0.388817
20998 1 0.538807 0.598143 0.410912
6865 1 0.532151 0.580039 0.404281
12760 1 0.53324 0.582974 0.40454
12761 2 0.534622 0.590464 0.405673
12762 1 0.53829 0.596455 0.409433
14886 1 0.556043 0.596481 0.38978
3642 1 0.554719 0.598136 0.39104
13595 2 0.565143 0.574042 0.404256
3265 1 0.553214 0.581763 0.381791
14884 1 0.554768 0.583254 0.38274
13594 1 0.569383 0.580134 0.403355
2913 1 0.570593 0.5828 0.402304
2912 2 0.57441 0.589119 0.399309
14885 2 0.559234 0.590605 0.385535
18175 1 0.596997 0.570792 0.407749
18176 2 0.60456 0.569828 0.405337
5416 1 0.58223 0.581573 0.38182
5417 2 0.579722 0.574893 0.385869
1411 1 0.594464 0.571175 0.408478
1412 2 0.588034 0.571997 0.411999
2911 1 0.580576 0.594667 0.39599
7702 1 0.582799 0.59663 0.394738
13758 1 0.605693 0.583375 0.385997
20153 2 0.59564 0.591736 0.410933
20154 1 0.596194 0.592714 0.402608
18177 1 0.613375 0.569665 0.405879
20869 1 0.616388 0.569632 0.406284
20870 2 0.624962 0.569257 0.40585
5800 1 0.607196 0.585064 0.387989
5801 2 0.610238 0.589737 0.393166
5802 1 0.613438 0.596044 0.395969
20871 1 0.632263 0.569102 0.409954
14168 2 0.62529 0.59588 0.410227
16339 1 0.640599 0.594131 0.387046
2916 1 0.642347 0.595842 0.389278
2915 2 0.646586 0.59759 0.395487
2914 1 0.646837 0.598559 0.402842
5356 1 0.646744 0.598692 0.405874
16493 2 0.468367 0.623871 0.411929
5230 1 0.485366 0.603832 0.392614
19385 2 0.496514 0.624435 0.392382
19384 1 0.494756 0.62602 0.399848
4959 1 0.494045 0.627174 0.402883
19386 1 0.499243 0.619028 0.386902
19485 1 0.500056 0.617193 0.3844
5231 2 0.491433 0.604061 0.397607
21459 1 0.514613 0.626387 0.396222
18870 1 0.514106 0.628243 0.397689
5232 1 0.497855 0.604656 0.403755
6171 1 0.499842 0.605151 0.405696
6170 2 0.504034 0.607021 0.411555
4958 2 0.493152 0.629641 0.410598
3610 1 0.544857 0.611624 0.386494
3611 2 0.540867 0.61633 0.381951
6215 2 0.5257 0.602378 0.391894
6214 1 0.52278 0.609767 0.391707
21457 1 0.521336 0.61233 0.391685
21458 2 0.518159 0.620119 0.39202
7096 1 0.533912 0.625038 0.409504
19791 1 0.544499 0.628453 0.401531
7097 2 0.527206 0.622917 0.411889
3640 1 0.54618 0.60957 0.388156
3641 2 0.550122 0.604866 0.392951
10311 1 0.56755 0.620066 0.400789
10310 2 0.572165 0.613826 0.40251
20500 1 0.546701 0.626546 0.402356
20501 2 0.552365 0.62113 0.404139
20502 1 0.557514 0.620214 0.411366
10309 1 0.5773 0.612291 0.408127
4380 1 0.579552 0.611815 0.410384
7703 2 0.588163 0.599904 0.391347
12042 1 0.600571 0.618404 0.39797
15193 1 0.596628 0.602986 0.385267
7704 1 0.59409 0.602467 0.386798
13478 2 0.605333 0.614014 0.406965
13477 1 0.601867 0.617502 0.400362
12041 2 0.595943 0.621848 0.391134
12040 1 0.590618 0.62637 0.394322
14062 1 0.588207 0.628225 0.39494
10574 2 0.626329 0.620987 0.384392
10573 1 0.626821 0.617093 0.39129
5144 2 0.629164 0.610244 0.399913
14167 1 0.627902 0.600756 0.406415
5143 1 0.628643 0.603186 0.404373
5145 1 0.627044 0.61552 0.393844
8409 1 0.635876 0.627982 0.405451
6422 2 0.512578 0.641339 0.384052
18869 2 0.51207 0.635106 0.402361
6423 1 0.520986 0.642826 0.38411
19790 2 0.540206 0.63452 0.398617
18868 1 0.515311 0.638078 0.409904
8564 2 0.528187 0.648932 0.39585
8563 1 0.533476 0.643159 0.396978
19789 1 0.535328 0.641263 0.397546
8565 1 0.528489 0.656698 0.396807
8848 1 0.529302 0.659578 0.396209
8143 1 0.516654 0.639764 0.412707
1545 1 0.542022 0.651397 0.412217
5625 1 0.543401 0.65358 0.410553
9611 2 0.548355 0.648638 0.385764
9612 1 0.554193 0.643585 0.387144
7947 1 0.556458 0.641164 0.38764
7946 2 0.562755 0.636722 0.389005
7945 1 0.570335 0.635574 0.391822
14064 1 0.572987 0.635355 0.392762
5624 2 0.547372 0.657904 0.40654
826 1 0.573168 0.660525 0.38376
4064 2 0.572398 0.660118 0.408937
18939 1 0.598291 0.648893 0.384738
6394 1 0.597514 0.649709 0.387592
14063 2 0.58075 0.634366 0.395579
6395 2 0.596441 0.652606 0.39467
6396 1 0.595425 0.652517 0.401486
15399 1 0.595311 0.652319 0.404119
15398 2 0.594048 0.650959 0.411585
10085 2 0.618927 0.630605 0.411286
14871 1 0.613286 0.659346 0.407801
2304 1 0.614443 0.656407 0.407887
10086 1 0.617449 0.637851 0.408945
2302 1 0.616869 0.640878 0.40832
2303 2 0.615825 0.649387 0.407793
7482 1 0.633575 0.659599 0.394437
7481 3 0.634351 0.652155 0.3938
8408 2 0.637981 0.632895 0.398656
8407 1 0.637699 0.641349 0.395894
7480 1 0.637283 0.644102 0.395055
6605 2 0.478331 0.686041 0.403689
6606 1 0.481411 0.679667 0.399849
17340 1 0.481955 0.677124 0.39853
20928 1 0.484503 0.667352 0.382574
17338 1 0.48354 0.667814 0.385791
17339 2 0.483523 0.670303 0.394067
5570 2 0.504555 0.661529 0.396013
5569 1 0.504738 0.662774 0.402979
5614 1 0.505257 0.66313 0.406058
5615 2 0.507222 0.663786 0.413103
4068 1 0.511451 0.681275 0.402484
13275 1 0.508908 0.682021 0.403496
13274 2 0.501918 0.68435 0.405319
13273 1 0.497875 0.68566 0.411463
8647 1 0.510662 0.663594 0.387665
5571 1 0.509348 0.662894 0.390302
8849 2 0.530923 0.667518 0.395494
4067 2 0.515867 0.679783 0.397095
4066 1 0.522333 0.675029 0.396682
8850 1 0.524671 0.673045 0.396465
18794 2 0.536633 0.688421 0.389965
18795 1 0.537614 0.687248 0.396665
4128 1 0.538091 0.686547 0.399488
4127 2 0.538073 0.684708 0.408216
19915 1 0.560411 0.689367 0.384504
337 1 0.56192 0.687301 0.38389
338 2 0.567592 0.681464 0.382702
5623 1 0.550108 0.664664 0.402734
1492 1 0.550841 0.66674 0.401509
4903 1 0.550005 0.672288 0.387391
1493 2 0.551966 0.673966 0.39721
1494 1 0.550268 0.673304 0.390309
15297 1 0.568604 0.674723 0.409786
15296 2 0.568205 0.682631 0.408577
828 1 0.573138 0.661982 0.398595
4065 1 0.572732 0.661972 0.401594
827 2 0.574497 0.662573 0.390401
15295 1 0.571639 0.691044 0.408161
21503 2 0.599745 0.682369 0.393364
21504 1 0.602568 0.674756 0.389316
8359 1 0.595356 0.681276 0.403191
21502 1 0.59656 0.681895 0.400613
8360 2 0.592582 0.678471 0.410761
14218 1 0.632997 0.6629 0.394925
14869 1 0.609105 0.673294 0.406577
14870 2 0.611302 0.667562 0.407857
14219 2 0.631019 0.671098 0.39656
14220 1 0.626979 0.677799 0.400226
5583 1 0.625142 0.680089 0.401045
5582 2 0.619791 0.685286 0.403465
5581 1 0.615796 0.68758 0.409371
13719 1 0.613815 0.688648 0.411813
1184 2 0.484735 0.711746 0.385844
6604 1 0.47753 0.693201 0.406472
6252 1 0.476887 0.695995 0.407683
6251 2 0.474191 0.703657 0.410432
21127 1 0.458169 0.721836 0.409547
1185 1 0.492667 0.71353 0.386183
8326 1 0.49579 0.713718 0.386999
7826 2 0.498244 0.704109 0.409314
7827 1 0.500185 0.710693 0.411695
18990 1 0.500417 0.713156 0.412578
8327 2 0.503951 0.71328 0.389869
8328 1 0.510011 0.707233 0.391608
21003 1 0.51194 0.705337 0.393351
17107 1 0.529229 0.694244 0.383687
18793 1 0.531388 0.692533 0.385179
21002 2 0.518495 0.70236 0.398019
18416 2 0.530178 0.720378 0.387209
18415 1 0.53625 0.714647 0.386855
12915 1 0.537941 0.713005 0.386312
21001 1 0.526334 0.70258 0.399447
9676 1 0.528583 0.70293 0.400207
9677 2 0.535945 0.705047 0.402946
9678 1 0.540617 0.708141 0.40723
5773 1 0.542609 0.709071 0.409128
19916 2 0.557024 0.695222 0.386525
12914 2 0.545691 0.70788 0.383453
19917 1 0.551861 0.700257 0.385976
12913 1 0.550092 0.702471 0.385166
16062 1 0.573041 0.694187 0.408246
21522 1 0.593051 0.696176 0.385694
21520 1 0.577313 0.694762 0.384712
21521 2 0.584779 0.69625 0.387135
16061 2 0.577639 0.701552 0.408591
10322 3 0.610395 0.720489 0.413307
10323 1 0.616991 0.716065 0.412905
7300 1 0.61996 0.7146 0.412699
7301 3 0.626786 0.710435 0.412383
10414 1 0.48454 0.737539 0.407701
10415 2 0.480075 0.73221 0.403939
21128 3 0.46151 0.725575 0.403596
10416 1 0.47183 0.729144 0.404417
21129 1 0.469383 0.7283 0.404168
13621 1 0.514665 0.735272 0.40401
18417 1 0.524478 0.724535 0.392552
13623 1 0.522109 0.726409 0.394649
13622 2 0.516565 0.729692 0.398597
3353 3 0.380063 0.522859 0.415351
3352 1 0.388612 0.519353 0.415005
2907 1 0.379728 0.531696 0.44025
693 1 0.380893 0.529122 0.440342
692 3 0.382049 0.521253 0.440433
691 1 0.375909 0.517695 0.442706
14609 3 0.40073 0.519825 0.42741
2704 1 0.402166 0.514882 0.436405
14608 1 0.401838 0.516285 0.43402
2705 3 0.403298 0.511504 0.443789
14610 1 0.394774 0.525515 0.429087
13252 1 0.424167 0.53472 0.438344
13253 3 0.419684 0.532403 0.444218
16028 3 0.42649 0.510469 0.440329
16027 1 0.433642 0.510652 0.441343
5504 3 0.429284 0.50951 0.413805
5789 3 0.444495 0.509339 0.444555
18754 1 0.426075 0.535783 0.436188
15301 1 0.425924 0.534669 0.415838
3977 3 0.437916 0.521466 0.42577
10522 1 0.44452 0.527071 0.432191
3978 1 0.442512 0.525539 0.43074
3976 1 0.435608 0.516797 0.419579
5505 1 0.434061 0.514629 0.417844
10523 3 0.449718 0.531611 0.435688
10524 1 0.452592 0.537964 0.439188
5788 1 0.436941 0.510228 0.441969
18202 1 0.467182 0.507711 0.438956
18203 3 0.470304 0.513188 0.434024
11097 1 0.470964 0.52164 0.426105
11095 1 0.465141 0.53024 0.413709
11096 3 0.470699 0.527587 0.420009
18204 1 0.470629 0.519633 0.428364
10281 1 0.482258 0.532638 0.439444
10280 3 0.483732 0.526113 0.442081
4182 1 0.481382 0.534863 0.438133
19441 1 0.48652 0.511515 0.413714
13467 1 0.485559 0.50889 0.41532
7957 1 0.497517 0.517109 0.421819
7958 3 0.504342 0.51829 0.423619
7959 1 0.507853 0.519368 0.430545
16197 1 0.509302 0.536189 0.432426
6798 1 0.512168 0.535818 0.430945
16195 1 0.494177 0.535631 0.434032
2476 1 0.488359 0.517731 0.441588
10279 1 0.487285 0.519922 0.441804
16196 3 0.502776 0.536042 0.435861
2477 3 0.492534 0.510522 0.442581
6797 3 0.519041 0.535435 0.426438
6796 1 0.524898 0.534954 0.421182
12232 1 0.526859 0.534482 0.418608
9880 1 0.550629 0.535281 0.437224
9741 1 0.549399 0.533182 0.439342
9745 1 0.595669 0.534871 0.440805
1561 1 0.607228 0.509592 0.422257
1562 2 0.60814 0.516756 0.419669
15221 2 0.612449 0.534219 0.417821
1563 1 0.609503 0.524279 0.417852
15220 1 0.610324 0.527194 0.417485
4266 1 0.636244 0.523395 0.432952
4265 2 0.628732 0.526875 0.429785
4983 1 0.635395 0.535246 0.428284
4264 1 0.63389 0.532844 0.428747
19422 1 0.649204 0.518892 0.431128
19421 2 0.64619 0.52274 0.436891
19420 1 0.638268 0.523156 0.4341
2906 3 0.3779 0.539315 0.438649
2905 1 0.379808 0.54442 0.433813
3188 3 0.420772 0.565123 0.43809
1082 3 0.404372 0.556256 0.443547
1081 1 0.410756 0.560147 0.440015
3187 1 0.413157 0.561653 0.439207
18756 1 0.435631 0.540898 0.424683
18755 3 0.431038 0.539231 0.431154
12483 1 0.42526 0.565452 0.414976
3189 1 0.428742 0.564774 0.442522
11784 1 0.427071 0.567712 0.416394
20254 1 0.448942 0.568766 0.41492
5010 1 0.453486 0.540558 0.440451
403 1 0.431842 0.565565 0.443987
17465 3 0.466424 0.550362 0.41786
17466 1 0.459558 0.550278 0.423077
4181 3 0.478954 0.540971 0.434708
4180 1 0.473345 0.546698 0.432984
5008 1 0.460935 0.554481 0.444134
20173 1 0.462901 0.557551 0.444034
20174 3 0.46591 0.565051 0.441114
5009 3 0.455731 0.547777 0.44478
9885 1 0.494394 0.542263 0.415693
8917 1 0.494645 0.544982 0.416446
8918 3 0.496188 0.554317 0.416865
8919 1 0.497403 0.56182 0.419196
13434 1 0.497601 0.564817 0.420488
10596 1 0.533896 0.556165 0.433687
8559 1 0.52022 0.55547 0.417028
18786 1 0.522074 0.555634 0.419514
18785 2 0.525502 0.555877 0.42648
18784 1 0.531513 0.555813 0.43202
10595 2 0.540733 0.557081 0.437879
4726 1 0.549445 0.553439 0.414592
6819 1 0.550814 0.555271 0.416881
9881 2 0.553686 0.540176 0.431642
9882 1 0.561685 0.540735 0.430351
15642 1 0.56459 0.540334 0.429658
15641 2 0.572098 0.539637 0.426576
6818 2 0.555292 0.559565 0.422807
6817 1 0.555321 0.566035 0.427532
9789 1 0.555631 0.568457 0.428965
15053 2 0.57226 0.558471 0.433707
2167 1 0.54924 0.556971 0.44507
10594 1 0.546336 0.557237 0.44331
15054 1 0.566279 0.558083 0.439256
15640 1 0.577238 0.540648 0.422391
597 1 0.579489 0.54115 0.420597
596 2 0.584153 0.542986 0.415539
15052 1 0.579936 0.55757 0.431204
7630 1 0.58245 0.557114 0.431081
7631 2 0.589993 0.557074 0.430438
7632 1 0.596876 0.561155 0.429915
9345 1 0.599027 0.56305 0.429728
9344 2 0.605564 0.568107 0.429367
15222 1 0.616329 0.540257 0.421643
9877 1 0.617388 0.542323 0.423361
9878 2 0.618757 0.547768 0.428455
9879 1 0.624775 0.552143 0.433434
21535 1 0.626549 0.553872 0.434771
21536 2 0.631885 0.55983 0.438589
5630 3 0.640041 0.566309 0.418217
4982 2 0.638838 0.541848 0.426839
5631 1 0.645871 0.563325 0.425059
9640 1 0.647464 0.56216 0.427474
9641 2 0.651895 0.559851 0.433397
9642 1 0.655858 0.562768 0.439577
16404 1 0.656777 0.56413 0.442441
4981 1 0.644998 0.547296 0.426338
1703 3 0.417983 0.588304 0.437242
429 1 0.419113 0.590271 0.425902
1704 1 0.418818 0.589322 0.428933
1702 1 0.422745 0.586706 0.444138
428 3 0.420909 0.593215 0.418021
998 3 0.440906 0.597063 0.415169
999 1 0.433815 0.595341 0.419508
11783 3 0.430588 0.573579 0.42103
11782 1 0.432543 0.580154 0.427238
15231 1 0.433899 0.582351 0.429298
15230 3 0.437853 0.587251 0.434296
15229 1 0.439899 0.5937 0.438198
15423 1 0.449544 0.571389 0.415855
15422 3 0.45269 0.578251 0.41795
1056 1 0.441282 0.596175 0.439461
15421 1 0.456697 0.582491 0.422927
7819 1 0.458118 0.584599 0.424111
17281 1 0.483698 0.585895 0.413492
1743 1 0.484518 0.588098 0.415516
7820 2 0.46261 0.590492 0.428222
7821 1 0.466363 0.597118 0.426772
20175 1 0.464205 0.572699 0.439669
13432 1 0.495915 0.575927 0.431097
13433 2 0.497417 0.571782 0.42456
1742 2 0.487126 0.592488 0.420194
1741 1 0.490118 0.595641 0.426726
9270 1 0.491452 0.596988 0.428909
3892 1 0.529594 0.59218 0.435877
13541 2 0.517676 0.584059 0.420179
13540 1 0.52442 0.581002 0.422951
13294 1 0.527201 0.579626 0.424282
13295 2 0.533212 0.576174 0.426969
3893 2 0.523625 0.598264 0.435051
13296 1 0.53776 0.581931 0.430109
20809 1 0.539424 0.584407 0.432058
20810 2 0.543638 0.590112 0.437228
9788 2 0.556241 0.576567 0.432815
9787 1 0.558877 0.576473 0.440389
13449 1 0.560273 0.576802 0.442701
10448 2 0.55893 0.599433 0.432351
20811 1 0.550668 0.594705 0.435184
10449 1 0.552828 0.595789 0.434112
1413 1 0.582469 0.574001 0.418232
2931 1 0.581006 0.574822 0.42061
2930 2 0.578233 0.576924 0.426847
2929 1 0.581506 0.575443 0.434125
3923 2 0.586734 0.573479 0.442948
3922 1 0.582954 0.575178 0.436497
20152 1 0.596536 0.593947 0.41872
9388 1 0.597307 0.594349 0.422086
9390 1 0.599912 0.593653 0.43876
9389 2 0.599099 0.594049 0.430218
7237 1 0.599959 0.593833 0.441912
14169 1 0.620936 0.590111 0.413981
9343 1 0.609527 0.57395 0.425512
6855 1 0.610836 0.576204 0.423884
6854 2 0.614316 0.581727 0.419023
6853 1 0.619044 0.58816 0.41518
18499 1 0.627277 0.587107 0.441747
21442 1 0.6258 0.586661 0.443661
18500 2 0.630855 0.589376 0.435754
5357 2 0.647568 0.599134 0.413914
18531 1 0.659213 0.583897 0.423078
18529 1 0.660286 0.571297 0.425201
18501 1 0.638904 0.58816 0.436046
7567 1 0.642276 0.587655 0.43641
7568 2 0.649999 0.586762 0.438751
2719 1 0.65785 0.589676 0.444469
7569 1 0.65531 0.588481 0.443161
18530 2 0.663518 0.577778 0.421925
1055 2 0.446225 0.602559 0.442902
5278 1 0.469967 0.614886 0.419122
16492 1 0.469167 0.617532 0.417313
5280 1 0.467911 0.599963 0.42562
5279 2 0.472288 0.607925 0.422461
15148 1 0.487969 0.624731 0.433981
4957 1 0.492283 0.625977 0.417724
6169 1 0.507643 0.611029 0.417151
3363 1 0.509335 0.612899 0.419136
9268 1 0.501692 0.604681 0.438374
10939 1 0.503498 0.606185 0.43936
9269 2 0.497008 0.599754 0.435119
3362 2 0.513931 0.61765 0.422443
15149 2 0.49099 0.621309 0.427144
15150 1 0.492039 0.625018 0.420031
7104 1 0.487111 0.626246 0.436536
7103 2 0.485357 0.629234 0.443379
10940 2 0.508495 0.61145 0.44252
20999 2 0.540092 0.60463 0.414365
21000 1 0.542828 0.608996 0.420161
3894 1 0.527778 0.604533 0.433337
14518 1 0.529188 0.606889 0.432687
14519 2 0.533848 0.613091 0.431408
14520 1 0.539559 0.616632 0.434596
3361 1 0.519337 0.62062 0.418533
7098 1 0.521598 0.621482 0.416836
20907 1 0.542251 0.617994 0.435423
10941 1 0.51583 0.611966 0.44512
10447 1 0.565937 0.600412 0.433514
16714 1 0.569492 0.600629 0.434632
20906 2 0.547468 0.623539 0.438279
20905 1 0.55084 0.62737 0.444151
643 1 0.558428 0.619902 0.413507
644 2 0.561866 0.61815 0.42045
645 1 0.566812 0.620156 0.426318
19059 1 0.568648 0.620577 0.429081
19058 2 0.572241 0.621331 0.436937
19057 1 0.575501 0.623077 0.443961
4379 2 0.584073 0.610542 0.4171
4378 1 0.580986 0.610631 0.423793
16715 2 0.578139 0.602277 0.436175
16716 1 0.584886 0.606032 0.434634
115 1 0.586947 0.607718 0.434913
116 2 0.593163 0.613304 0.436339
117 1 0.594395 0.621186 0.439395
871 1 0.594662 0.623928 0.440292
13479 1 0.607788 0.612077 0.413785
5938 1 0.608725 0.611561 0.416257
10084 1 0.624007 0.628154 0.416232
5939 2 0.610862 0.610187 0.423573
5940 1 0.614336 0.609088 0.431351
11143 1 0.615469 0.608454 0.434104
11144 2 0.617559 0.605006 0.440905
11145 1 0.62638 0.604818 0.44205
12297 1 0.634019 0.630076 0.431501
12296 2 0.630599 0.626343 0.424739