ITEM: TIMESTEP
40000000
ITEM: NUMBER OF ATOMS
4701
ITEM: BOX BOUNDS pp pp pp
0.0000000000000000e+00 5.0000000000000000e+01
0.0000000000000000e+00 5.0000000000000000e+01
0.0000000000000000e+00 5.0000000000000000e+01
ITEM: ATOMS id type vx vy vz 
435 1 -0.225677 -0.552314 0.702453 
15696 1 1.07445 -2.82722 -0.0453147 
434 2 -1.61177 0.027345 -2.51785 
433 1 -3.99986 -6.6326 0.250733 
9531 1 -4.5105 2.27505 0.122452 
9530 2 -0.681293 1.14233 2.38168 
7179 1 -2.30294 2.2306 0.705734 
7178 3 1.68141 -1.4305 2.22098 
15606 1 -8.2087 -1.75757 6.42786 
7887 1 2.01799 -5.18398 0.902571 
7886 3 2.32308 -3.97645 2.08884 
15605 3 -2.81855 0.263555 -1.5995 
8481 1 0.300525 -0.213679 3.90345 
7885 1 2.14985 0.389144 -0.920897 
7998 1 4.24638 -2.78231 1.94848 
7177 1 1.94543 -0.441976 1.26531 
13937 3 3.51889 2.28319 -0.447991 
13936 1 -4.75798 -2.93483 -1.00835 
18015 1 -6.86069 0.333879 1.79463 
18014 3 2.04849 1.79685 1.20356 
7459 1 2.099 1.3759 -1.79325 
574 1 -2.22006 -5.74819 5.20249 
7460 3 2.25922 -0.982964 -0.531798 
575 3 0.850565 3.18721 0.270825 
21306 1 -5.04872 4.9594 3.52734 
21305 3 0.937168 3.93404 -1.17837 
21304 1 3.21386 1.25403 -2.90309 
9460 1 -3.19802 -0.831899 6.99854 
11385 1 1.10629 -4.36705 0.636296 
7485 1 3.50315 7.24482 2.55848 
7484 3 0.426658 3.72867 -1.81553 
9461 3 -2.86637 -1.93379 -0.322638 
576 1 -3.73637 1.08377 -0.299774 
9462 1 -2.28384 0.856958 -2.63822 
16054 1 -4.90927 0.22845 0.542475 
16055 3 1.57382 -1.14266 -0.466051 
16056 1 3.4595 2.73237 -1.64741 
7483 1 -3.22085 3.01783 0.061679 
7908 1 1.81228 0.508513 0.689515 
7907 3 1.60725 0.537157 2.70517 
9643 1 1.54412 1.27883 0.429262 
4343 3 0.188034 2.26005 -1.0333 
4342 1 -3.33522 0.0847103 1.72386 
8 3 -2.52923 0.0544049 2.29497 
9 1 -4.04427 5.75247 -2.42713 
19327 1 -1.17402 -1.92017 -3.30666 
13324 1 0.379663 0.448849 -3.73032 
19329 1 -2.39007 -2.5049 8.53575 
7 1 -2.48703 -4.43297 -0.847913 
19328 3 -0.992041 1.78453 -1.38028 
13326 1 -0.499171 -3.104 1.27109 
14907 1 -0.804655 -0.455217 1.05417 
14906 3 0.400261 -2.65078 -3.73392 
8910 1 1.6169 2.36521 -1.60196 
13325 2 -0.355699 3.72646 -1.01804 
13794 1 -0.718844 0.804628 4.43966 
15167 3 -1.64049 2.377 -2.38359 
15166 1 -0.725582 -6.08617 4.61521 
20598 1 -2.42345 1.70976 -1.69216 
20597 3 0.579539 1.51842 -0.678097 
15168 1 0.898039 0.802883 -2.175 
187 1 -1.61319 -1.62881 -0.688889 
188 2 4.31343 -0.996381 0.466766 
189 1 0.496069 -5.20897 -0.464748 
5440 1 0.606323 -1.74998 2.45985 
15568 1 -3.14526 2.1682 1.47362 
15569 3 -3.50395 3.60579 -1.90937 
16025 3 -1.24168 -0.440968 -0.716481 
13938 1 -1.25989 5.36758 -1.8967 
162 1 6.10023 -4.45894 -2.27076 
21160 1 -0.970387 3.80225 -3.15003 
5593 1 -2.08051 3.59906 2.5105 
16024 1 -0.502676 -0.754704 2.2466 
160 1 3.55804 -0.0437292 -2.32757 
161 3 3.96751 -1.34525 -1.47462 
1008 1 0.805389 6.9129 3.38534 
984 1 0.603105 0.418873 -2.32568 
5595 1 -1.05413 -3.63526 -4.35499 
5594 3 -0.702997 -1.24784 0.986604 
21546 1 -0.360395 0.943781 5.11887 
21545 3 -2.26715 -1.41121 4.13867 
983 3 -2.59538 -1.56718 -0.799869 
11383 1 -3.74604 0.695554 -1.5914 
11384 3 -2.09336 1.75568 0.340096 
21543 1 1.65839 3.1838 6.28076 
982 1 0.928618 -2.84737 -0.973902 
7264 1 -8.21852 1.48932 0.624136 
21542 3 -0.203736 -1.38866 4.54329 
7906 1 3.11309 4.67434 1.30775 
5110 1 -1.38112 0.715052 -2.12781 
6874 1 -0.608727 1.39834 1.68487 
17065 1 6.19678 -0.938313 0.44199 
17066 3 -1.35962 2.40977 2.80693 
6875 3 1.77643 -0.884202 -4.2922 
6876 1 -3.38069 1.55149 0.879348 
7501 1 -3.90507 1.07995 6.36107 
16615 1 -1.2704 0.153322 1.38671 
21541 1 1.26931 -2.99223 5.17848 
5111 3 0.983709 -1.44907 4.79402 
5112 1 -1.25197 -1.44167 -2.81413 
4344 1 0.45055 6.66501 -6.35328 
1195 1 0.0864269 3.98711 1.63207 
11076 1 0.551549 2.86333 -0.55684 
11075 3 -1.10321 0.347899 4.00885 
1197 1 1.76792 -2.65485 2.96059 
1196 3 1.77053 -0.0808238 2.30096 
8321 3 0.503773 5.46438 -1.04172 
839 3 -0.454521 1.3802 -3.28065 
18092 3 2.04472 -0.120945 -2.36765 
18093 1 -3.58712 -4.26099 1.76936 
13793 3 3.8085 -4.19825 -0.368252 
13792 1 -5.50789 3.6771 -0.890326 
172 1 -6.60359 -0.36909 -5.11988 
838 1 -0.990793 -3.10378 0.985229 
174 1 0.876025 -0.0785994 3.97433 
5391 1 -1.16108 1.84096 4.41003 
18091 1 -1.80948 -4.4845 0.239153 
173 3 0.238436 -1.41508 2.09077 
18863 2 -5.50421 5.34413 -1.74457 
18864 1 0.619397 -0.181964 -4.97396 
18862 1 0.289407 -6.88304 7.27438 
11583 1 3.50203 7.00299 1.9762 
11582 3 -0.93193 0.399942 -5.24364 
19167 1 4.69375 3.3241 5.25009 
19312 1 1.07423 -0.704067 0.528618 
19166 3 0.278363 0.369928 2.54492 
19165 1 -1.52651 1.21119 -3.72428 
19313 3 -1.28558 1.94097 1.94016 
19314 1 -1.11394 2.00145 -0.599923 
17907 1 -3.93687 1.41057 -0.561662 
5977 1 -3.35134 -3.46448 0.757557 
8750 3 -3.70892 2.02787 0.165624 
2455 1 -1.49408 2.51242 7.14639 
8751 1 -0.241527 6.1312 -6.96953 
235 1 8.5007 -1.27333 -9.91851 
5023 1 -2.36319 1.65863 1.62929 
236 2 1.94539 1.23714 -0.521875 
15570 1 4.53205 2.12274 -4.02142 
14400 1 4.17507 5.10064 -5.30675 
14399 3 -5.25592 -1.52756 -1.06875 
14398 1 -1.674 -2.9058 -0.185438 
199 1 -1.11339 -2.53238 0.0877691 
18098 3 1.6149 2.95746 -3.00177 
21161 3 -4.44216 -0.20846 1.80647 
21162 1 -0.286106 4.16823 -2.79535 
13864 1 -2.40112 2.35266 3.79712 
13865 3 3.96744 -2.79771 -2.87132 
10582 1 -1.12723 1.36364 -4.51975 
10583 3 -1.80343 1.70888 -2.86516 
17848 1 4.0895 3.65806 -0.245235 
10584 1 1.34715 -7.99166 -6.93141 
18097 1 2.49928 -2.85075 3.26182 
16026 1 0.357698 3.26149 -1.22685 
13460 3 -2.35146 -4.64142 3.12241 
13866 1 0.382923 2.18307 3.31103 
14679 1 1.14813 -6.35048 2.81063 
9362 3 -1.11032 -0.691621 3.53104 
6549 1 -0.566029 8.5872 4.30883 
9361 1 2.62592 -2.26491 -3.50449 
9363 1 -1.91536 -2.20005 3.53563 
21225 1 -4.51858 -1.0049 2.44281 
13461 1 -3.96267 -4.19871 -2.65845 
14678 3 -0.127762 -0.481976 -3.02508 
14677 1 0.741501 -4.47148 10.6853 
6548 3 -3.81341 -0.239445 2.19552 
18005 3 -2.20913 1.68931 4.28754 
18006 1 0.589541 -1.79334 -0.348129 
6518 3 3.54631 3.84846 -4.07956 
6517 1 -3.59666 -1.45438 5.40607 
19894 1 4.95657 4.13419 -1.26355 
6519 1 4.07893 -0.799426 -5.30689 
7695 1 -2.2579 2.30101 -2.82069 
7694 3 4.1838 -0.314755 -3.01394 
12996 1 1.56015 -0.861057 1.07735 
18004 1 -3.07361 0.00758161 0.440877 
11074 1 -0.754205 1.14203 -6.4083 
13760 3 -2.05578 -0.775277 -1.00504 
15305 3 5.40622 -2.98083 0.60379 
13759 1 -10.4268 -6.24357 0.677522 
15306 1 2.51087 0.977879 1.47418 
13761 1 -1.94369 3.46962 0.164235 
8320 1 2.71099 -6.86606 -3.66869 
15314 3 0.919915 -3.4445 4.10316 
12995 3 0.112393 3.97549 0.28093 
11754 1 0.0459367 0.920576 -2.81995 
20340 1 1.52777 6.16422 -5.81434 
20339 3 -0.494926 -1.58609 2.43007 
20338 1 -2.03669 -4.42362 2.15578 
2578 1 -2.7865 -0.344972 -1.28712 
15315 1 -0.828417 4.37628 -4.30092 
9165 1 1.68401 -1.13346 7.60413 
19311 1 -4.17346 0.780162 0.334004 
19310 3 -3.5424 0.609753 2.29949 
14538 1 -1.23448 0.0278038 -1.69785 
18009 1 -0.340562 0.474777 -4.60857 
18008 3 -1.38626 2.56146 -2.73015 
19309 1 -2.52613 -0.624413 5.55984 
14537 3 1.95722 0.103452 -0.424258 
11759 3 -2.48867 0.765231 1.29877 
11760 1 0.847661 7.89181 3.27243 
6158 3 -3.11805 0.870239 -0.589671 
6159 1 2.80096 -2.15523 -1.32321 
18262 1 1.34234 0.926993 2.60849 
10147 1 -3.96561 2.31498 -1.64728 
10148 3 2.1235 2.24605 3.95676 
1042 1 -0.383177 -8.79138 -3.88718 
11758 1 -3.42762 -0.0636099 0.579818 
18264 1 -2.22287 -6.22311 -5.5323 
18263 3 2.94851 -0.371976 -2.83625 
15418 1 -3.76847 -2.8188 2.61004 
3831 1 2.21733 2.7518 6.50263 
3830 3 -0.775203 -1.19116 0.592867 
17906 2 4.53137 0.708005 3.41068 
17905 1 6.14931 -1.65166 -7.41687 
15420 1 -5.10785 -1.36018 -3.71901 
15419 3 0.549132 7.77859 -4.1084 
8749 1 -7.27895 -4.34719 2.50325 
8458 1 -2.9387 1.19314 -5.65632 
2456 3 0.151728 -0.956049 1.65286 
7375 1 -3.65395 3.73625 0.296616 
2027 2 0.0531864 0.542561 0.139279 
2028 1 5.07343 2.49164 0.156133 
2026 1 -5.66981 -0.42535 1.44681 
17740 1 -3.97589 6.10412 -6.34314 
15937 1 0.551318 1.69682 2.64292 
15938 2 1.71753 0.971511 -2.57112 
17741 3 -1.75015 0.267144 1.58365 
16072 1 0.716245 3.43363 1.82161 
17742 1 2.84429 4.88315 0.376232 
16073 3 -2.24426 2.78034 -1.40242 
16074 1 8.58361 -3.06843 -3.93264 
237 1 -1.05419 -5.3036 -3.18405 
15127 1 -4.20881 0.468313 4.30811 
10600 1 -2.38171 1.88015 -5.21417 
10602 1 -3.87349 -3.44516 -0.363518 
5024 3 2.44817 -0.786111 -0.706626 
15128 3 4.98887 -2.59875 -4.06149 
6563 3 1.81892 -1.13794 -1.10022 
6564 1 -0.188453 5.41132 1.71148 
8994 1 -1.04878 0.719166 1.27913 
8993 3 1.09075 4.88046 -4.63329 
15129 1 -0.878708 -2.42558 -2.8325 
12960 1 -1.52843 -1.88571 -3.9945 
8074 1 -3.20078 -1.83848 2.12333 
11657 3 -1.44293 3.76967 0.468343 
11658 1 -3.77904 2.55144 0.530827 
11656 1 -0.796625 -5.48601 -1.2872 
8075 3 3.01501 -1.69413 0.64005 
18966 1 1.27078 5.28582 -2.83625 
6562 1 -4.34173 0.660518 3.22374 
7086 1 -1.98014 1.6558 -3.57529 
18099 1 -3.93109 -2.88202 -1.3181 
936 1 0.826254 0.783889 -6.29668 
935 3 2.32148 0.481865 7.1531 
934 1 -8.28899 0.640783 -3.50271 
15574 1 6.04265 -0.505533 3.3322 
15575 3 0.0232293 3.9437 1.88686 
15576 1 -4.84638 0.128074 0.270829 
3760 1 -0.281247 -2.15477 1.59618 
3762 1 -0.214031 3.0573 -5.05277 
8344 1 2.02602 -0.108768 4.22091 
18690 1 -0.433629 3.03706 3.30616 
3761 3 0.401696 -2.18 2.28664 
9887 3 2.39756 -1.22988 0.980834 
9886 1 1.9336 0.811289 -1.88309 
19672 1 2.59618 0.179086 0.875578 
5106 1 -2.15419 -2.04037 -0.82915 
19673 3 -2.84051 2.11997 0.701682 
5105 3 -1.09293 -1.46605 -1.52508 
11738 3 1.08128 -1.10351 -0.715677 
15304 1 -2.91329 0.495062 3.68298 
9483 1 1.5197 -2.74988 5.55743 
19674 1 -5.41548 4.32607 -1.439 
9888 1 -5.99975 -1.47159 1.98271 
9482 3 0.849702 -2.6612 0.542797 
13630 1 -2.37139 -0.77249 -1.13134 
13631 3 2.69106 0.418909 -0.50942 
13632 1 2.85523 -0.416342 3.07838 
3600 1 2.07106 4.19229 10.9071 
17263 1 -4.10057 -6.08828 -4.4288 
9481 1 -4.8947 -0.131238 -4.86653 
20836 1 1.08026 -1.67146 5.76276 
17264 3 -3.03713 -1.56359 -0.0205156 
17265 1 0.0686844 1.1587 0.88296 
2580 1 0.277144 -7.76793 -6.43838 
2579 3 1.78553 6.71019 -1.68485 
6307 1 -6.34497 -6.05236 -4.62936 
3599 3 -2.469 2.25712 2.61365 
6095 3 -2.11052 -0.0855611 1.62521 
6096 1 1.62104 -7.53125 -3.83827 
6474 1 8.21982 0.707126 -1.78333 
18007 1 -1.82779 -1.09883 -4.77173 
15530 3 1.1486 -0.172047 2.45875 
15531 1 0.76716 6.95088 3.1806 
15529 1 -7.85819 0.304786 -1.81221 
20028 1 -5.72771 3.79721 -0.0987494 
5295 1 5.36969 -2.91791 0.193346 
6911 3 -0.160068 -1.99659 -3.21384 
6094 1 3.63987 -1.31977 1.943 
6910 1 1.63605 -0.619485 -1.05133 
18123 1 2.52118 0.342504 1.54155 
18122 3 -5.86345 -1.03954 -3.92421 
6912 1 6.06742 -2.44958 4.30016 
20027 3 -4.25449 5.06388 2.27837 
18474 1 7.36994 -4.06488 0.912827 
19614 1 2.07187 0.762362 -1.36906 
18473 3 -1.37162 2.69632 1.11358 
9249 1 1.35944 3.32403 2.98888 
6881 3 -0.724861 -1.57856 1.01745 
6880 1 -3.54003 4.06744 1.27927 
9247 1 -5.12136 -4.35229 -4.59326 
9248 3 3.66956 5.71059 0.564698 
10149 1 -3.13215 -2.58028 -7.23549 
12434 3 -5.05068 2.57346 -1.45765 
12433 1 -1.09614 6.44876 -3.17084 
6330 1 -0.26139 -3.75018 -9.19369 
6329 3 -2.00781 -0.443375 -0.240401 
6328 1 1.75537 0.467065 -1.68966 
10446 1 -4.5747 -1.80142 0.410612 
15403 1 -6.0206 1.52066 -4.3297 
15404 3 -2.51911 -2.7179 -0.78865 
12435 1 4.88482 2.04659 5.22421 
8979 1 -0.79055 5.99162 7.06007 
7597 1 -3.39103 2.11513 -3.86983 
7377 1 2.23208 -1.70695 -0.87943 
15549 1 0.862824 7.14859 0.0164251 
7376 3 5.12608 -0.628947 1.80001 
10445 3 -1.10947 -0.0130808 -1.95725 
15405 1 -3.19463 2.50069 -1.94187 
7599 1 -1.1942 -1.26043 2.54255 
7598 3 2.09487 -1.99571 -0.502499 
1422 1 -4.18673 1.71698 2.22601 
15547 1 3.17476 -0.350913 0.937153 
15548 3 0.278277 3.83531 -0.654405 
15121 1 4.18071 -1.47767 -5.79809 
15123 1 3.15311 0.158141 -0.72799 
8992 1 -4.53246 -2.2087 0.122174 
15122 3 -4.18543 -0.121673 4.58037 
13078 1 1.137 -0.997362 0.356121 
12959 3 3.47644 2.38019 3.13765 
12958 1 -1.85709 -5.77656 -0.823464 
19129 1 0.965041 3.62054 4.37575 
1953 1 -7.10345 -0.884413 1.23499 
1952 3 1.22511 2.25485 0.0100003 
8076 1 3.60076 -8.14966 -0.581871 
6582 1 -0.858397 2.68787 2.79762 
6581 3 0.909791 -0.528805 -0.0783044 
14738 3 3.436 4.40772 1.42827 
6580 1 -1.3785 3.74235 -2.42055 
6243 1 2.63508 -1.86106 4.87871 
14739 1 1.20435 -4.22847 6.1343 
1951 1 1.35468 1.2098 -1.89659 
7812 1 1.2285 -3.78349 -0.189172 
473 3 -0.0714201 2.47749 3.44853 
12365 3 -0.99086 -1.87379 -0.938674 
12366 1 -5.08363 -0.691487 2.44091 
12364 1 0.686567 3.46558 -2.59643 
21024 1 6.72706 2.27841 2.77748 
14737 1 4.99426 7.02882 0.407564 
7084 1 0.461425 -4.58524 2.97206 
474 1 -5.77594 -1.24429 -3.43392 
4218 1 3.7289 -7.24782 -3.77006 
5673 1 -3.46284 -5.09055 1.4315 
7085 3 -2.74381 -3.45798 2.63043 
9397 1 1.51488 2.74924 5.88808 
21023 3 3.36094 2.79327 -0.633461 
20640 1 1.28112 -1.31576 -2.07358 
472 1 -1.80496 -6.5464 -2.33125 
20639 3 -2.28668 2.21317 -0.298274 
20638 1 -3.64081 1.31043 -0.443056 
10407 1 3.76293 -3.90346 -3.4504 
21022 1 -0.511386 -0.187584 2.25794 
13216 1 -1.06587 -0.885107 6.45534 
10965 1 4.95713 -5.39584 -3.27785 
10964 3 -0.196761 -1.96461 3.96517 
10406 3 -1.56096 -4.24448 2.75068 
1371 1 0.36419 -2.85207 -1.22481 
10405 1 1.28293 -1.18931 -4.58881 
11739 1 5.64057 3.56168 -1.4776 
2170 1 2.0346 1.0699 -1.11476 
2172 1 -7.15686 -1.70916 -1.71792 
3962 3 1.18908 0.886313 -2.6544 
3963 1 0.416308 -2.8512 0.844904 
2171 3 0.912177 -0.554789 1.89657 
10453 1 -2.36267 1.8369 5.49767 
10454 3 5.65575 2.20395 3.22688 
10455 1 -4.7268 5.76119 3.80872 
451 1 9.91812 0.626225 0.831323 
452 3 -0.18428 2.52737 0.982429 
18139 1 -1.36222 6.14223 0.447749 
18141 1 -2.31134 1.00077 3.66744 
3526 1 -0.528483 2.16234 1.17849 
3527 3 -2.56393 -1.39393 3.49014 
3528 1 -0.36342 2.60947 -3.50912 
3598 1 -2.30022 1.56408 2.28692 
9220 1 -0.168378 2.38408 -2.99667 
9221 3 2.07258 0.175301 1.29591 
9222 1 6.88492 -2.10542 -2.70825 
20457 1 0.571647 -3.58578 3.04793 
20456 3 -4.20951 0.510481 -3.82974 
10001 3 -1.94888 1.74032 2.66461 
3378 1 -3.96926 0.0491423 3.60382 
3377 3 2.71136 1.37425 2.51623 
10000 1 0.129588 1.90598 -0.845939 
16573 1 -1.44187 -4.31315 1.25296 
205 1 7.48453 6.35386 -0.435333 
965 3 5.04205 6.64972 5.9956 
16574 3 1.77867 -2.47762 3.86538 
3376 1 0.0471557 -3.46176 1.9121 
964 1 8.73131 3.83135 2.17521 
10018 1 -0.148827 -2.56763 4.0642 
206 3 -0.181054 0.225705 1.93056 
6882 1 -2.38913 5.12318 -4.58236 
8978 3 0.27704 -0.511822 -2.87553 
10020 1 -3.57937 -1.96934 -2.88545 
10019 3 2.719 -0.648086 1.28781 
3903 1 1.91312 -3.40994 -5.72239 
3902 3 1.78251 0.471061 2.0644 
3901 1 3.81082 4.29871 -0.757342 
8977 1 2.41662 -1.56744 0.955735 
961 1 -4.90474 -3.00073 6.98674 
16215 1 -0.524122 3.98505 -3.55411 
963 1 -3.97069 1.43047 11.828 
962 3 -3.38891 0.592963 -0.0891531 
19060 1 -0.9041 -0.19755 -1.10278 
12439 1 1.74389 0.884236 -4.49009 
12440 3 4.46302 -0.119697 0.0773221 
12441 1 5.96773 -2.37225 6.10069 
16214 3 1.21872 -1.87085 0.851465 
19061 3 0.877888 2.41607 0.935787 
5086 1 -3.73373 0.458935 2.15661 
5087 3 0.420949 0.0743572 -1.39555 
20751 1 1.15883 -4.71938 -1.47683 
20750 3 2.63032 -2.30219 -0.832116 
20749 1 4.77583 1.74573 -2.83916 
6523 1 4.11144 3.27725 2.45425 
16528 1 -2.58691 -2.73747 0.998953 
16243 1 -2.42116 -3.70704 1.27318 
6524 3 -1.09441 -3.04698 -1.15449 
16529 3 -0.735691 1.90198 -1.80277 
15707 2 4.43505 -3.27291 0.704678 
15708 1 -6.04458 -0.0922511 -0.0486602 
9308 3 -0.63017 -1.6429 -0.772547 
9309 1 1.49083 -3.29107 0.0426459 
9016 1 -1.22536 -1.73149 -1.96243 
9307 1 -1.26199 2.08855 -5.21691 
9017 3 -4.05862 3.41218 -2.4587 
3089 3 4.71273 -0.0081696 0.740559 
3090 1 -2.4445 -2.58689 1.64547 
5016 1 1.92341 -0.464445 0.748711 
5015 3 -0.773019 2.72299 -2.0136 
5014 1 -2.87012 5.7501 -1.57616 
20599 1 -0.731147 2.04183 -1.09552 
20600 3 -2.21057 2.23131 -0.273642 
20601 1 2.81116 -1.53816 4.6109 
8521 1 1.83352 -0.455762 -1.98218 
8522 3 -2.90273 2.80438 0.982684 
5671 1 2.0422 2.95049 7.69065 
1058 3 -0.468665 -1.03326 -1.90761 
7810 1 -0.771826 -4.86996 -0.291175 
14611 1 0.414421 3.50121 -0.564924 
14613 1 1.0674 -1.75174 -1.14366 
1059 1 -3.82176 -1.43243 -2.3074 
14612 3 -0.648573 -0.44002 -1.71829 
8523 1 0.382019 -5.85648 -2.62439 
16018 1 -4.80292 -7.70149 -3.84259 
7811 3 -2.10651 2.81261 2.0448 
5672 3 -0.972343 5.49829 -0.678729 
11169 1 3.51994 -2.97839 2.083 
4632 1 -4.33498 -4.71184 -6.09627 
810 1 -3.54257 2.64146 -0.462444 
808 1 2.18974 4.00105 2.39975 
4631 3 0.857353 -1.7608 -0.189987 
4630 1 -7.64905 -2.9138 0.309175 
809 3 1.93991 -0.318839 2.34107 
16861 1 3.8266 5.2149 -1.25525 
13218 1 4.90153 0.927095 3.66871 
11525 3 -1.03746 -1.5135 2.81233 
13217 3 0.654491 2.85384 -5.14681 
711 1 2.49 -4.76474 -9.62963 
710 3 -0.426998 -3.14492 -0.471165 
709 1 -0.677783 -2.56204 -4.55957 
11524 1 3.87429 3.30134 1.76633 
15971 3 3.72121 -0.762541 0.265221 
7341 1 -4.70115 4.87386 1.54133 
7340 3 -4.45659 0.597658 2.89181 
4946 3 -3.69686 2.92094 -0.708597 
4947 1 6.40792 5.06965 9.40463 
3961 1 -2.18244 2.80898 2.424 
20911 1 -7.03692 -3.02039 2.22275 
15970 1 -3.08738 3.73469 -1.5843 
20913 1 -2.24491 -4.20613 4.87925 
20912 3 0.202023 -0.238725 -3.00933 
9480 1 3.71085 5.20403 4.26919 
9738 1 3.68178 0.200507 2.19064 
10627 1 -2.66837 1.066 -0.578168 
96 1 2.62521 1.92694 4.02005 
9479 3 3.62696 -2.44636 2.82501 
15996 1 8.20456 6.15423 -1.69923 
9736 1 -3.99378 -0.149571 2.87475 
9737 3 -0.826473 -1.02459 -1.70514 
9717 1 3.27449 -3.38858 -1.16094 
9715 1 -5.68676 -3.71893 2.27551 
9716 3 3.24021 -0.169256 1.61603 
20455 1 0.7692 -0.61138 1.95091 
11409 1 -1.21059 1.3419 4.59024 
11408 3 1.57059 -1.04325 -1.55159 
11407 1 -0.393928 -3.86104 1.42748 
10351 1 2.37501 -2.33168 -0.59452 
5187 1 -1.98961 1.42142 -2.10283 
15051 1 2.23714 -0.701537 2.82742 
11260 1 0.323097 1.98529 -0.562248 
5186 3 -1.42716 4.70065 4.73515 
13708 1 6.1743 2.96675 -0.0110681 
11261 3 0.201464 2.41548 -3.85549 
11262 1 -1.33219 1.51415 -5.1935 
207 1 -8.17102 0.117573 3.5293 
10890 1 -0.943215 -0.0648463 1.99409 
19308 1 4.9769 -7.48013 9.72326 
10889 3 2.37269 2.27794 -1.16019 
10888 1 -0.953637 -4.48933 -3.69819 
10252 1 6.63126 4.85282 2.70273 
19307 3 0.734774 1.01711 -4.81132 
10253 3 1.48135 -0.980842 -1.7001 
14859 1 1.74613 2.04799 -0.615908 
7468 1 -0.967714 0.840108 7.4765 
7469 3 -2.47846 -2.35357 -0.37535 
7470 1 4.58019 -0.548877 -4.39726 
15944 3 0.75867 -1.14492 -2.50773 
15943 1 -0.4011 -2.89524 0.631497 
10035 1 4.7109 1.84928 -5.8134 
14858 3 0.0584551 0.802992 2.20172 
10034 3 4.84557 0.694466 -0.584599 
3914 3 -2.3881 -2.43023 1.96006 
3915 1 -1.61482 3.30477 2.25976 
5956 1 -8.36719 2.21755 2.9741 
15945 1 8.15668 0.50475 1.8848 
19764 1 0.276965 4.77018 -1.26693 
19763 3 1.31225 3.69607 -0.269917 
19762 1 3.69759 2.22184 -2.57504 
6919 1 -6.34758 -5.36461 3.63397 
6920 3 -2.41939 -2.09381 -5.86682 
16213 1 4.51131 0.623678 -0.0860585 
13044 1 3.44421 2.26223 7.81701 
13043 3 2.51318 -2.04936 2.5526 
13042 1 2.51164 -4.92844 1.61629 
16454 3 0.287577 -1.71107 2.62875 
6525 1 -4.10378 -1.72909 3.9914 
6921 1 -0.170595 -4.42578 -3.15799 
14426 3 2.30028 -2.22192 1.3264 
14382 1 1.27313 -2.95363 1.2722 
14425 1 4.30948 -4.50005 2.16134 
14381 3 -0.531316 -1.3116 -0.499479 
14380 1 2.52781 2.73282 0.480366 
14427 1 0.393902 3.59787 -1.96825 
19276 1 1.03304 2.55486 1.3856 
19277 2 2.35705 1.66407 -1.90147 
10272 1 -1.08159 0.0169276 1.41019 
17037 1 0.386238 -2.95796 2.20943 
10270 1 1.14839 -0.44119 7.50467 
19278 1 2.7884 -3.91159 -0.990467 
10271 2 1.0231 1.81438 0.62143 
2078 2 -1.64849 0.607354 -1.83226 
2079 1 0.84738 -3.02125 4.29353 
2077 1 4.25967 -4.68131 -3.43116 
16020 1 1.32377 2.66059 1.93395 
16019 3 2.52907 -0.344348 0.40901 
11745 1 -1.77372 -0.271806 1.19934 
11744 3 1.773 -1.38693 1.76302 
4945 1 6.23826 -2.77777 2.14606 
6162 1 -3.67267 -5.70382 5.68293 
6161 3 1.22825 1.20467 4.44908 
6160 1 0.357546 1.50485 0.395689 
7033 1 -1.4959 -0.357824 7.01786 
7034 3 0.568748 -3.24017 -6.25947 
15972 1 -3.02999 2.33581 -3.97822 
20658 1 1.11075 0.27317 4.0299 
20657 3 -1.34992 -1.37956 -9.23753 
20656 1 1.38875 0.742913 1.98756 
17428 1 -0.840167 -1.6807 -3.4204 
17429 3 -2.59113 -0.376083 1.57325 
17430 1 -4.52544 -0.959032 0.217228 
21133 1 -7.89208 -1.97236 0.24734 
21134 3 1.57499 -3.1262 0.847075 
14964 1 0.0653536 8.32877 -7.51618 
95 3 -1.86214 -3.98022 0.947645 
94 1 0.781718 -3.44028 1.10216 
14963 3 1.10738 1.5957 2.13584 
10752 1 -3.04373 -8.26237 0.211121 
10751 3 0.100878 1.16089 -0.688637 
14962 1 -2.95662 -0.92338 5.96199 
1842 1 -0.485427 5.8728 -0.242931 
21135 1 2.28138 -1.80841 0.443003 
1841 3 -2.05573 6.292 0.546172 
517 1 -2.3857 -9.66829 -1.09135 
3425 3 -5.51565 2.86312 -0.7279 
15050 3 -0.732876 0.831987 2.70327 
10750 1 4.22233 -3.30418 -6.11444 
11806 1 0.390972 -5.97388 -2.55366 
11807 3 1.1334 -3.13896 1.74805 
10353 1 -0.51725 3.1918 6.25857 
11808 1 -0.501342 -2.78042 0.831495 
17676 1 -1.43558 -3.09296 -0.137827 
8845 1 -3.80841 6.17919 -2.20703 
17675 3 -0.243745 -2.52419 -0.682786 
3424 1 0.461929 -2.0528 0.0994001 
15049 1 0.385807 1.78752 3.03852 
13710 1 0.375123 8.56184 -4.91811 
8640 1 -1.83548 7.07259 0.312537 
8639 3 2.14139 -1.25923 1.04828 
8638 1 -0.227946 -1.5773 1.78295 
13709 3 -1.56261 0.605962 1.64736 
4283 3 2.98619 -0.538965 1.56939 
3683 3 3.9391 -4.24594 2.1152 
3682 1 -2.23042 0.492445 -3.09152 
14857 1 -0.0909849 1.82251 -2.71773 
3684 1 -0.86839 -1.1876 -0.695922 
11829 1 2.2599 3.65583 2.01721 
11828 3 0.325634 4.71024 3.51383 
11827 1 -1.80106 -0.544134 -2.0842 
3643 1 2.68347 -4.2802 -6.47463 
3644 2 -4.75513 -3.05955 -2.15529 
4282 1 1.03887 -2.45423 -6.64318 
18427 1 0.0982929 -6.33933 2.00193 
5957 3 -5.28188 2.60644 -3.58356 
5958 1 0.343492 2.05053 -1.61375 
13306 1 4.83242 -0.956736 0.943531 
5228 3 3.10997 2.97908 -4.71696 
18429 1 3.24949 0.296315 -3.29435 
13307 3 -0.647114 4.26173 -2.60832 
18428 3 0.238945 2.48951 0.78943 
13308 1 0.0732433 -2.91003 1.30781 
5229 1 0.894158 -0.820998 -5.05554 
2959 1 7.44182 4.29653 0.947004 
2960 3 -3.24137 -4.7903 -2.71449 
2961 1 5.63205 0.777133 5.2146 
8350 1 -0.149758 -7.32733 0.612898 
17036 2 -1.73348 3.71118 -3.90509 
12058 1 -1.17201 -7.90832 5.80638 
14604 1 0.0801333 -1.70563 -0.494428 
5821 1 3.42802 8.84603 -3.72949 
5823 1 -0.930996 2.8784 4.51606 
5822 3 1.7986 2.11153 -1.16834 
14603 3 1.88161 2.19647 -2.01652 
14602 1 2.43079 -1.06012 4.48301 
20250 1 -3.49248 -2.3464 -4.04009 
20249 3 -0.790138 1.45783 1.55766 
1612 1 0.251683 -6.36497 -6.21459 
20248 1 -4.61681 2.13399 1.93865 
8846 3 2.44715 -1.66839 1.69452 
6612 1 -6.65202 1.45332 1.9639 
8847 1 7.70485 -5.47072 -2.35079 
2643 1 2.21598 -1.83914 4.99556 
2642 3 -3.11235 0.634956 1.27008 
16750 1 -3.79826 -0.655736 3.3674 
16751 2 0.503387 -1.76604 -0.62221 
3645 1 5.13524 3.68155 -0.88417 
12791 2 1.92108 2.6665 1.26435 
12790 1 0.577231 -2.20241 -1.98582 
8932 1 -0.5339 -2.36034 -3.12385 
12792 1 -0.588632 2.70024 1.22931 
8934 1 -1.52304 -0.900189 1.06212 
8933 3 0.935504 -1.69487 -0.182447 
15695 2 1.26228 -2.03443 2.02341 
15694 1 -4.50768 -4.56924 0.0561786 
8479 1 -0.274364 -1.24973 2.98141 
9713 3 -1.1901 -0.942302 2.08138 
9712 1 4.23726 1.20737 2.59632 
3184 1 5.68876 -1.20591 -1.59152 
9714 1 -0.307068 2.90571 -0.117345 
8480 3 5.24584 -2.08702 -2.44687 
3895 1 -7.80804 1.58803 -0.211662 
3896 3 1.6284 -2.70187 0.968304 
3897 1 3.56505 -0.210595 1.26632 
417 1 4.86633 -1.77422 -1.07263 
18013 1 -3.69958 -1.71829 -0.0804257 
3186 1 3.04654 3.05373 0.0506527 
3185 3 3.55141 4.1484 0.543582 
7937 3 -2.14455 4.34534 6.3815 
17194 1 0.630235 6.67042 2.93823 
7938 1 0.489056 3.95948 -3.07822 
17195 3 -3.52041 1.91086 -0.683303 
17196 1 2.97162 -1.21605 -5.22096 
3132 1 -1.63845 0.74005 2.59501 
3131 3 -3.109 1.76495 1.89743 
15337 1 1.71832 4.32473 -0.467025 
6057 1 -0.900399 -2.73098 -2.77323 
416 3 -5.15083 -0.480631 3.56392 
6771 1 -4.34006 1.52693 1.26273 
415 1 2.64466 2.53109 -0.521732 
6770 3 4.42692 -0.345637 -1.25027 
6769 1 -0.93701 -1.5438 -2.36033 
3384 1 -0.418624 2.05863 3.08427 
15162 1 1.04457 -0.0271026 -2.56612 
15161 3 -0.174948 0.121773 1.64932 
12039 1 -2.01647 -1.54629 -1.43341 
8909 3 1.04229 0.173333 0.670663 
3383 3 0.847951 -3.13648 -0.0475314 
3382 1 -2.52833 2.49218 -0.559394 
8908 1 -3.48983 3.23086 -2.08155 
1309 1 4.75743 -0.122412 -2.91489 
796 1 5.33894 -1.11046 -2.77025 
798 1 -3.50171 -6.08354 2.56013 
797 3 2.79292 -0.471661 0.555757 
20596 1 -1.75738 -5.48985 0.673658 
12032 3 1.07815 -1.83475 -0.151145 
12623 3 0.495748 0.0227995 1.13891 
21544 1 4.21923 2.07256 5.41149 
7936 1 -4.67468 -1.95589 -0.209904 
17247 1 -2.38988 -4.50551 -4.50869 
12033 1 -2.39239 0.486154 -0.445311 
12622 1 1.86968 0.100376 -2.17257 
12624 1 -0.225423 1.38501 6.38364 
15219 1 -1.93709 1.54516 -3.09563 
17067 1 -0.709222 1.97667 1.4687 
6883 1 0.565568 2.47393 6.17436 
3130 1 -0.98364 -1.30743 -1.63155 
17246 3 1.12185 -3.05508 -1.33607 
17245 1 2.61364 2.15683 1.63297 
1294 1 -4.77589 -4.67051 -1.02763 
8429 3 0.412963 0.985429 -1.06137 
8430 1 1.67938 0.614923 2.82952 
1295 3 1.19651 -2.9022 0.876478 
20754 1 2.27422 -8.16196 -1.15792 
7618 1 2.90128 -3.26459 -4.74097 
1296 1 0.392445 -1.27449 -4.43042 
8428 1 -0.37949 5.91713 0.197832 
7619 3 0.909335 2.0724 -1.30534 
12038 3 -1.0905 1.12375 -0.46706 
12037 1 1.43306 -1.99023 -1.36972 
7521 1 -3.54899 1.16795 -2.59248 
7520 3 -0.724635 1.84214 -1.83877 
7519 1 -1.18367 1.4299 1.93531 
20299 1 1.16362 0.614965 0.673042 
7620 1 -4.05061 2.46412 -4.20883 
1310 3 -1.02725 -0.00770305 1.41973 
5390 3 -2.23337 -0.18095 -2.18676 
5389 1 -0.440291 1.64438 -3.11125 
20079 1 -2.08414 2.80102 -0.414635 
20078 3 0.816495 -0.750586 1.85094 
20077 1 -4.24691 4.23963 -1.51665 
16889 3 -1.03359 -1.43853 0.0966214 
16888 1 -9.03912 0.829159 -3.24286 
13564 1 -4.49491 -0.379638 -2.22447 
13565 2 0.81324 3.13084 -3.15317 
13566 1 0.550147 -0.741027 -6.2404 
921 1 4.80684 1.69666 -1.26085 
10333 1 -6.91177 1.63823 0.624777 
10334 3 -1.79829 -4.78434 -0.622029 
10335 1 -1.80096 3.90955 2.34161 
11581 1 8.05958 -5.27587 -5.36047 
5933 3 -0.847595 0.850788 0.0385764 
11706 1 6.02137 1.61481 -1.20394 
5932 1 -3.31834 -2.63041 2.37388 
11705 3 -0.0968013 0.686211 -0.43201 
5978 3 -2.897 -0.665781 0.622398 
5979 1 1.70204 -3.27839 4.19988 
11704 1 -1.47075 -4.17651 3.04877 
11179 1 0.877363 6.59769 -2.3744 
12031 1 4.36563 0.583745 1.4335 
17566 1 -5.06989 -2.86293 -1.4777 
15277 1 -1.56799 5.42989 -6.20338 
15218 3 -0.740846 5.47551 -3.89776 
21224 3 -2.96159 1.60677 -2.16908 
21404 3 1.45605 -2.17114 3.93952 
21223 1 1.069 -6.05908 -0.669679 
21403 1 -7.66064 2.41799 -1.34399 
15217 1 -2.05631 0.933442 1.70618 
21405 1 0.766631 0.761862 3.6737 
12294 1 5.09192 2.11666 0.293542 
12293 3 2.7434 2.79346 -1.98796 
21219 1 -3.59691 -0.621875 2.78423 
12292 1 -4.60851 3.16745 3.23006 
6885 1 0.781871 3.45048 -11.2157 
6884 3 3.02011 2.20205 2.34658 
19 1 -1.9327 4.09059 1.75517 
21 1 3.07258 -10.6404 -1.30926 
5248 1 0.219129 4.19973 0.877406 
20 3 0.739904 -0.304405 -0.131361 
7693 1 -4.07843 -3.17187 1.45117 
20753 3 0.85369 0.799532 -0.585002 
20301 1 -0.166888 2.98946 3.89169 
20300 3 -0.737779 -2.30561 1.38494 
4107 1 -8.07458 1.77097 3.02206 
4106 3 1.47452 2.6725 -3.33518 
4105 1 -0.165809 -3.8634 -2.37892 
11753 3 0.466617 -4.45429 -0.160473 
15313 1 5.93679 -2.03442 -4.40902 
7143 1 -10.5255 -0.251581 0.801727 
7142 3 -0.271661 3.65927 1.24578 
11811 1 4.8524 1.73888 4.67921 
7141 1 4.08143 -0.873218 3.49715 
3112 1 0.304852 0.935168 1.19841 
5560 1 2.82981 2.13203 -3.80615 
11752 1 0.616191 -1.7005 4.36908 
58 1 -7.89195 4.78988 3.7478 
5561 3 -3.01457 -0.195139 3.56039 
5562 1 5.08073 -5.43893 2.59975 
919 1 5.42012 1.82867 0.373977 
14536 1 -7.11262 0.603179 -2.31672 
20523 1 -4.86369 -4.25939 -2.90982 
20522 3 -0.515693 0.80914 -0.776345 
920 3 0.0461733 0.438096 -2.55399 
14843 3 0.251615 0.357807 -1.53007 
16183 1 5.55608 -0.18653 2.05377 
14844 1 1.79737 3.33649 0.87731 
20521 1 -0.259309 -0.969882 0.361689 
5271 1 -0.954755 1.97862 -5.10632 
5270 3 -1.26756 -0.232472 3.13456 
14842 1 2.51776 2.75835 2.46708 
6157 1 -6.57974 2.2622 9.32387 
18072 1 4.19222 0.311622 -2.34374 
5934 1 -4.55954 1.08704 5.10075 
5269 1 -0.653981 -1.07147 -1.9725 
18071 3 0.40391 2.62022 2.47537 
18070 1 4.14662 0.954568 0.497607 
184 1 0.366102 3.98006 -4.54114 
185 3 4.97704 1.70772 -0.822317 
7593 1 1.96531 -8.99102 -3.39165 
15732 1 -0.171 -6.83741 -1.8676 
15731 2 2.04187 -1.36824 -1.70636 
7592 3 2.29888 0.469602 3.97062 
4874 3 -2.60033 -2.44656 -3.64877 
4873 1 2.32298 -0.994662 -2.89466 
4875 1 -2.35499 -3.9172 2.91302 
15730 1 0.885128 -3.49305 -0.915038 
15939 1 2.73305 1.03626 8.73244 
11181 1 5.32357 -5.6526 -3.97652 
18964 1 -1.12421 6.9607 -1.54012 
11180 3 -1.42975 1.85256 -0.504908 
18965 3 1.33397 -0.916341 -5.1993 
19535 3 -2.68918 1.06273 -0.901331 
19536 1 3.84668 1.30381 -3.40593 
5572 1 0.234689 -0.314416 -7.69464 
5573 3 2.82897 0.420482 3.31502 
19534 1 0.195039 0.271126 -0.211783 
19895 3 -5.60774 0.905791 -5.04212 
19896 1 2.70754 3.69202 2.70712 
19542 1 1.79807 -2.66105 -0.242584 
5574 1 -3.95118 -0.911817 -3.6669 
11244 1 0.90046 -5.29419 6.98118 
11242 1 1.89121 -0.446041 4.11389 
11243 3 4.73742 -1.38436 3.26741 
8345 3 0.0599744 2.40366 0.518562 
8346 1 0.242961 2.58299 -5.93791 
5249 3 0.106239 -0.155465 -0.109216 
5250 1 5.68644 2.18335 2.04001 
3084 1 0.776051 1.76449 0.477577 
3083 3 -1.78308 1.88085 -3.33185 
3082 1 -6.6118 -0.402836 -0.31072 
2057 3 -2.04464 -0.325578 -0.50238 
2058 1 -2.22843 -0.932288 -5.90346 
1369 1 -4.81695 -0.663178 -1.60071 
2056 1 2.66245 4.96811 -5.53609 
2082 1 0.722202 1.25648 0.595006 
2080 1 5.82464 8.55856 0.791896 
2081 3 3.92721 3.95437 -3.36545 
19736 3 -0.291529 -0.100309 -0.616851 
19735 1 2.09653 0.433107 0.112046 
6457 1 1.02885 5.19857 3.86849 
6458 3 3.88573 -0.0452666 1.44218 
60 1 3.78436 -6.64034 5.49364 
6308 3 -0.233359 -4.54218 -1.10395 
6309 1 0.0259993 -1.13777 -2.36844 