ITEM: TIMESTEP
40000000
ITEM: NUMBER OF ATOMS
2106
ITEM: BOX BOUNDS pp pp pp
0.0000000000000000e+00 5.0000000000000000e+01
0.0000000000000000e+00 5.0000000000000000e+01
0.0000000000000000e+00 5.0000000000000000e+01
ITEM: ATOMS id type vx vy vz 
750 1 -7.54004 -0.786851 -3.17708 
4486 1 7.87436 -3.50382 2.65705 
4488 1 -4.42066 -0.0108161 3.82998 
4487 2 -2.14813 -3.13748 -0.203122 
9455 2 -2.96547 -1.25709 -0.885932 
9454 1 3.86642 0.72824 1.70963 
15496 1 -1.37606 0.797359 -5.99695 
15497 2 -2.51961 3.5671 1.28891 
15498 1 5.08169 5.64947 5.99966 
9456 1 4.72355 -1.55137 3.35586 
5136 1 -3.60223 -2.33782 2.50964 
21408 1 4.90096 -1.08128 3.76236 
5135 2 -0.471886 1.5206 -3.28177 
18347 2 -1.10544 5.26573 -1.85296 
18346 1 1.57896 -2.86683 2.3762 
18348 1 -1.90255 0.49799 6.17439 
852 1 -1.52308 -6.53286 -2.5883 
1126 1 -4.00222 2.17448 0.926296 
12672 1 -3.80437 -3.01514 0.319036 
748 1 -2.06532 -1.30943 -4.44641 
749 2 -1.64373 1.61577 -4.00538 
8084 2 1.96164 2.57658 -1.7629 
5838 1 -3.25329 0.608729 0.18166 
5837 2 -3.46667 -1.33452 0.589946 
8085 1 -0.0721367 -1.62021 -2.71591 
5836 1 -1.38849 -2.78178 -4.23004 
8083 1 -1.64782 3.11197 0.324796 
3478 1 -3.7503 -0.261852 -2.25068 
15749 2 -0.727832 -3.2915 0.336327 
10246 1 4.52065 -0.226389 -1.86596 
15748 1 2.11695 -4.94273 -6.50594 
9159 1 0.261507 -0.750729 -3.19926 
985 1 -4.10054 3.30676 0.397286 
11381 2 1.38629 -6.25685 2.44002 
10247 2 0.94799 -1.84573 0.398031 
10248 1 -1.23222 2.67034 6.3754 
19497 1 -1.6073 1.34722 -0.179786 
9158 2 0.420748 -0.285968 2.36859 
3935 2 0.0409249 -2.61577 -3.12447 
3936 1 -4.75352 -4.97797 0.16264 
3934 1 0.645935 -3.48383 -3.09578 
19141 1 -0.391296 -1.94738 2.60578 
9157 1 6.89875 2.83996 -2.33211 
16351 1 -2.15829 3.9782 -1.85475 
21263 2 -1.8741 -5.21375 1.98438 
16352 2 3.70027 2.12385 0.451975 
3814 1 3.75459 -3.05823 4.06468 
14766 1 -4.85965 4.75058 -3.63846 
14765 2 -0.296017 5.18968 1.60481 
8176 1 0.176009 1.08619 2.17434 
19143 1 1.01285 3.22848 4.8591 
4354 1 3.96028 2.52189 4.01304 
19142 2 0.445112 -0.597635 -0.73456 
4355 2 0.559611 -1.10073 0.225701 
3816 1 2.90878 7.26318 0.813317 
14728 1 2.7048 2.61798 2.03857 
7574 2 0.0541781 3.08871 0.0629254 
4356 1 -2.60751 -2.45343 3.54825 
7573 1 -0.0755478 -2.74024 5.82274 
7575 1 -0.760082 -1.65247 2.31664 
15210 1 -5.03004 0.631169 3.826 
15209 2 -1.27909 -0.263222 1.63687 
16867 1 -1.02221 3.11716 -3.72104 
850 1 0.316987 -0.567562 -0.587629 
781 1 -2.48476 4.64556 -0.688525 
782 2 -2.99056 -1.62669 -0.233743 
851 2 0.629784 2.02423 -1.53451 
17841 1 -1.13932 2.09977 -3.35351 
11965 1 1.3777 -0.0792016 -2.53085 
11966 2 0.270565 -2.13692 1.4986 
17840 2 1.85677 -1.76257 -3.42371 
17839 1 -0.0464612 3.40629 -1.05781 
11967 1 -0.63367 -4.84695 -4.42913 
1127 2 -3.43194 -1.91897 -1.14702 
13745 2 -0.333772 5.11655 0.964051 
19742 2 -1.95685 0.580435 -1.8282 
1306 1 -0.213834 2.30618 2.71441 
1307 2 1.51936 -3.36065 -1.03936 
9628 1 -8.21886 -0.38633 -1.39382 
19743 1 2.60202 -1.92734 2.39707 
9629 2 0.687032 -4.72574 -1.81273 
1495 1 8.00367 0.342077 4.69146 
9630 1 3.65306 -2.88913 2.56942 
19741 1 -4.89118 0.213444 0.0585992 
13974 1 0.414769 -4.52252 -3.00295 
13973 2 0.502681 1.95149 -0.507101 
13972 1 -1.71579 -0.324572 0.215761 
17679 1 3.19901 -1.51161 -3.98987 
17678 2 1.5006 1.03304 -2.55017 
17677 1 -0.142595 -1.85155 2.12458 
5506 1 -2.64636 -4.41705 -3.82876 
11380 1 -8.61528 5.74129 3.39957 
10315 1 -2.7487 0.949191 -4.25269 
8946 1 3.03722 3.36388 2.08614 
5507 2 0.977315 -2.64618 1.09501 
8945 2 0.429145 -2.75441 -1.59563 
11382 1 2.12434 0.636088 -5.2532 
7966 1 -0.757733 0.574464 5.89333 
7967 2 -2.69608 -0.525556 6.82772 
10316 2 -1.91671 -0.407634 -1.12527 
8944 1 2.67795 0.939017 5.06547 
20574 1 -4.10914 5.29776 2.20516 
20572 1 -4.57825 1.45875 -6.82278 
21264 1 -2.80666 -6.33493 1.67943 
20573 2 -1.4617 2.78682 1.66134 
8116 1 -1.09273 3.4026 3.78557 
10464 1 -0.670004 -5.01544 -3.39112 
6468 1 4.75124 0.263127 -9.19004 
3815 2 -1.34062 2.71258 -3.11561 
10463 2 0.136203 -1.51776 -0.326156 
18680 2 -4.43707 -3.31253 -2.23649 
18679 1 0.856355 0.11469 -3.16187 
4671 1 -3.5096 4.538 0.63477 
4529 2 1.57103 -1.37854 0.0318453 
4530 1 -3.07545 3.68477 -4.86207 
18681 1 -3.70468 4.34307 3.68565 
3790 1 1.39056 0.383639 0.0107247 
10462 1 3.63829 0.814453 0.162819 
16111 1 -1.89348 -0.718893 2.82052 
16600 1 -2.86345 -2.03499 -2.19343 
16601 2 2.80629 -1.55607 0.284234 
4670 2 -3.96035 -3.11589 -8.42929 
4669 1 -2.67801 2.13848 5.03476 
11185 1 0.292108 3.65954 -3.22674 
14321 2 -0.488727 -1.12853 -0.527043 
16112 2 0.268674 -0.117728 0.719802 
14322 1 -0.3979 -1.63342 -0.457234 
16868 2 1.72876 -2.06154 -2.67084 
16113 1 0.730013 6.30645 -3.97383 
16869 1 2.32338 -4.1231 0.740451 
8505 1 6.76976 2.03515 -3.2953 
13746 1 -0.994156 1.48615 0.366951 
11685 1 1.97637 -4.02026 2.75322 
5890 1 7.70102 7.13446 -1.19056 
11683 1 2.35518 -3.04445 -0.051976 
11684 2 -3.9769 0.382082 2.80124 
3992 2 1.14261 -1.41078 -1.20614 
8504 2 -4.25168 -0.867499 -0.865538 
3993 1 -0.197119 -2.12152 -3.44469 
6676 1 -6.60832 0.619221 -0.694931 
9238 1 -4.68789 0.0019545 -4.56467 
3991 1 -3.73576 0.808123 -2.9573 
9240 1 -4.64156 -4.3612 -0.883158 
9239 2 -0.931435 2.93005 0.446475 
12854 2 1.65037 2.03871 2.63015 
14756 2 1.41555 -0.25511 3.91485 
12853 1 -2.22721 -4.4232 0.724216 
14755 1 1.74537 -0.31635 0.900056 
12855 1 6.17239 1.49918 -3.14082 
9573 1 -3.59363 -6.8996 3.01202 
16610 2 2.5543 1.56054 1.67167 
9572 2 -1.46875 -3.49525 2.35158 
16611 1 6.89905 -2.28227 -4.93056 
7228 1 -3.33697 -0.824504 2.75136 
16609 1 1.48173 -1.61414 3.13142 
17031 1 -0.578978 7.85126 -1.225 
17030 2 -0.352887 -1.0438 -0.0796929 
7229 2 0.752007 -2.69748 1.81009 
17029 1 -1.13505 -0.885734 6.31528 
14136 1 -1.65781 -3.42792 5.58295 
5781 1 -1.22258 -6.83972 -3.93485 
14566 1 -1.69087 -2.97575 -4.55779 
7230 1 2.8748 -0.576166 3.20797 
7984 1 -0.98301 2.0127 -0.224447 
5508 1 -0.977801 3.95204 1.24661 
20649 1 -2.42356 -0.488591 4.65504 
20647 1 -3.07696 0.853113 0.808096 
14568 1 -2.54174 2.34517 -1.95444 
1326 1 2.59157 0.161325 -5.6458 
14567 2 -0.688498 -1.0805 -2.10888 
20648 2 1.9888 -2.35055 0.212441 
11839 1 2.42756 7.67278 -1.45971 
13212 1 -4.83104 -2.3763 1.31069 
1324 1 3.61558 4.52604 -5.11511 
1325 2 5.32056 0.317279 6.04251 
8117 2 2.26054 1.32843 3.88193 
8118 1 -2.36657 -2.19744 5.08573 
11840 2 1.97191 1.37794 1.78549 
11841 1 0.242384 -3.32972 1.47776 
13537 1 1.0779 -2.35732 0.269775 
8193 1 2.13317 -0.658139 -7.23863 
8192 2 0.163769 3.56243 -0.240234 
8191 1 -0.00877398 -0.915584 -2.93214 
13538 2 1.45512 -2.3386 1.94746 
5859 1 0.52646 0.861628 -4.05657 
4219 1 -8.68745 1.56399 -1.76105 
11174 2 -0.359676 0.0855286 -2.71324 
11175 1 1.37428 -1.89912 -4.68564 
11212 1 2.76572 -0.674881 1.96088 
11173 1 3.15102 5.74681 1.35887 
4220 2 -2.86624 1.83439 -0.249136 
11214 1 -0.673614 -4.72073 -5.63586 
11213 2 0.49 -2.93459 -3.84951 
14320 1 -1.3439 0.31781 5.5438 
5863 1 5.71308 5.39899 -0.827919 
5865 1 -5.59488 -5.16953 2.31369 
6469 1 5.31115 -1.07602 4.98613 
6470 2 -3.47787 5.86411 -1.82398 
5864 2 2.13574 6.29214 -2.40828 
3044 2 -2.92909 -2.81526 -6.52298 
3043 1 2.04458 -1.81491 2.88185 
15186 1 -1.44655 -4.93393 4.38838 
15184 1 -4.59479 5.54216 0.882626 
3045 1 -6.83469 2.48839 -1.63603 
15185 2 -0.26215 1.91262 -1.2412 
11595 1 -1.45108 -1.57731 1.96839 
8503 1 -5.86567 -3.24264 0.263572 
11594 2 -1.51496 0.186283 -0.254204 
11593 1 -4.24158 2.48035 1.89392 
3849 1 3.59713 -3.74171 -2.2872 
6390 1 -0.183756 0.563221 0.100968 
1771 1 0.855456 -0.834588 1.69752 
18482 2 -1.23574 0.908034 -1.65028 
14757 1 1.17835 -3.12154 4.50336 
15976 1 0.470353 -3.57654 -0.193313 
2583 1 5.6836 1.09601 1.16557 
2582 2 -2.21066 -3.79792 2.1386 
2581 1 6.0442 1.57796 1.98954 
9468 1 4.93484 1.36372 2.5995 
9467 2 -0.932595 -0.529986 -3.14465 
18483 1 -0.970022 0.823668 0.720934 
13778 2 1.30685 -2.12814 -0.0563909 
8623 1 1.93877 1.5568 -0.273264 
15977 2 -4.12355 -2.35221 -2.25332 
15978 1 -4.84265 0.124057 -1.71969 
8624 3 0.12317 0.36364 2.81151 
13777 1 4.7308 0.475803 0.57623 
8625 1 0.882682 -1.6904 2.52755 
9571 1 4.85404 0.290402 -0.596287 
15545 2 -0.841134 -2.64193 0.388159 
15544 1 0.722053 5.54638 -1.36379 
16717 1 0.212163 1.10431 2.82403 
5779 1 2.74343 -3.45177 2.94172 
5780 2 -1.77195 3.91404 3.428 
2234 2 -3.97699 0.184031 -0.560398 
2233 1 -1.05327 5.92546 -3.6002 
2235 1 3.30591 -0.531523 -3.66869 
16719 1 -1.03373 -0.0607764 -2.6441 
15546 1 2.92629 2.4526 -4.35692 
3392 2 2.38008 -1.82046 1.81806 
3391 1 -2.19958 1.5872 -4.07485 
3229 1 -0.149339 -4.85821 2.87663 
3393 1 1.787 -5.12365 -1.90505 
3230 2 -1.85195 -0.692653 -0.973865 
16237 1 -1.35538 -2.57055 2.60031 
3231 1 0.596211 -0.669106 -2.70618 
18574 1 0.310112 2.09204 1.69019 
13210 1 -0.773721 -2.40549 1.03922 
5724 1 -0.0111782 8.78619 -3.89642 
16576 1 5.42669 2.60273 -3.35834 
5723 2 -2.47296 -1.22486 -0.369829 
5722 1 2.49412 -1.82894 -2.19801 
1828 1 -1.40074 3.75143 -0.335336 
13539 1 -6.59079 0.119093 1.33472 
16577 2 0.26702 1.78207 -0.93932 
14272 1 7.20436 -2.82119 1.54842 
12172 1 -5.66881 -0.645341 -1.24162 
14274 1 -2.22185 5.45966 -2.64868 
14273 2 -1.80016 2.72515 -1.54976 
11091 1 8.14 3.61564 -1.45582 
11090 2 -1.41029 1.00337 -3.59288 
4221 1 2.64992 2.62261 0.139054 
9543 1 2.75371 -1.79512 0.607157 
9542 2 -4.8839 0.843563 -2.02274 
9541 1 -0.277189 3.10063 -2.03678 
14571 1 3.4803 0.784726 -2.94259 
14570 2 -2.57029 1.13999 1.52023 
3916 1 -3.48441 4.33259 4.21656 
3918 1 4.68493 -5.8225 -2.57109 
3917 2 1.58122 6.26893 1.20071 
19664 2 2.90883 1.73003 0.70847 
6471 1 -1.28013 1.61125 -2.93188 
4716 1 2.39545 -4.77638 -0.692994 
19665 1 -3.00581 1.81311 -4.58911 
14569 1 -3.30117 4.82499 -2.60425 
12869 2 4.13931 -1.74724 -0.870656 
21375 1 -2.78973 -2.60608 -1.63185 
12868 1 -2.84876 -5.60965 -8.29432 
12870 1 -4.61188 -2.20102 -5.4364 
326 2 -2.19269 1.43511 1.05672 
325 1 -4.37095 -1.97508 3.67259 
3848 2 -2.51421 -3.54092 -3.40966 
11178 1 -1.81437 -3.13613 -3.19615 
3847 1 4.68791 -2.40493 2.65236 
11177 2 -2.71517 1.14566 2.20127 
11176 1 1.72569 -4.61731 5.70707 
327 1 -0.839731 -5.96659 -4.24897 
14430 1 0.505311 2.31833 -3.73319 
14429 2 -1.84073 0.0488068 1.16004 
6389 2 0.293948 1.98038 -3.50044 
1396 1 -2.96867 1.80871 0.382228 
1720 1 3.48376 -1.52921 -3.42627 
17160 1 0.324278 0.908889 -0.238862 
1722 1 -4.06847 4.00305 -0.639759 
1721 2 1.25016 0.359933 -2.35418 
17159 2 3.66203 -2.54114 -2.68949 
13289 2 -0.144671 -2.96084 0.657225 
13288 1 -2.30926 5.44274 0.968138 
14753 2 -1.52226 -2.05015 0.344553 
16850 2 1.18718 -1.58105 -1.36918 
16849 1 -1.97517 -8.21479 0.876068 
17158 1 1.7556 5.00189 1.30629 
10762 1 -8.07421 -0.634166 2.19724 
14752 1 -2.57002 -2.71541 -2.57952 
14754 1 -3.28699 -0.97423 0.449095 
15003 1 -4.4046 1.24246 2.61426 
11077 1 -3.73877 -1.8789 -5.2392 
16851 1 -5.97865 5.69354 -0.370546 
16239 1 -0.375533 -3.22455 3.53103 
801 1 -6.75808 -1.65057 6.87018 
16238 2 -8.01135 -0.686402 2.43998 
14598 1 5.18374 -0.346981 3.25456 
8095 1 5.98899 0.143706 -2.05248 
12173 2 -1.11953 1.19945 3.44017 
800 2 2.02572 -6.433 1.903 
12174 1 0.0299484 -3.70532 4.64923 
6034 1 -3.17351 5.2435 0.879492 
6035 2 -3.80205 1.14795 1.24258 
6178 1 0.391211 -0.956107 -1.07383 
6036 1 3.1016 -0.28748 1.77699 
8096 2 0.30721 -0.42093 -0.89883 
799 1 0.476555 -1.55654 -4.06676 
11089 1 3.31417 5.82411 0.779047 
7394 2 -0.667432 -2.42972 -5.79397 
20866 1 0.286874 -1.27881 -10.173 
7393 1 -5.65119 3.2429 -1.94127 
7395 1 -0.0219571 9.56408 1.52414 
17182 1 -2.68783 3.58336 3.4947 
14367 1 1.46768 -3.81746 1.60334 
14366 2 2.38417 0.0431151 0.744018 
21394 1 2.81248 9.2997 -1.21724 
6970 1 0.39588 -3.18413 -1.97163 
21395 2 -0.60937 -1.11734 0.249504 
20867 2 -2.3436 -1.54275 -1.08017 
13527 1 -0.637771 1.05655 -8.28281 
2018 2 -2.54817 2.9485 3.341 
2017 1 1.971 0.971682 -6.08503 
20868 1 3.97268 0.902775 -1.82464 
2019 1 -2.03761 -0.497595 -6.18664 
16829 2 1.35918 0.0938182 -2.38641 
21396 1 -0.831615 6.4572 -4.28285 
16828 1 3.18265 -0.120285 0.351569 
13138 1 1.16396 1.50291 5.04495 
13139 2 -3.04932 -0.214106 1.16688 
10517 2 -3.19 -2.00847 2.33669 
2479 1 -3.02097 -0.23821 6.18195 
2480 2 -0.535574 -1.59405 3.18829 
13140 1 0.222767 3.48915 0.734723 
10518 1 0.582757 4.58994 0.127552 
1491 1 -0.154582 2.67126 -3.46554 
1490 2 -1.83977 3.96586 1.49248 
1489 1 2.43924 0.860106 -4.87783 
569 3 0.245783 -0.657438 -2.29943 
570 1 -0.426441 -0.515147 -10.8167 
18172 1 1.1304 -2.30262 0.361162 
18173 2 -0.164701 3.11038 1.87491 
18174 1 3.80713 -8.38045 2.71783 
17161 1 -3.96842 -0.392825 5.87085 
17162 3 1.51735 4.06853 3.93738 
17163 1 -6.36206 3.04976 -4.07194 
13668 1 -1.54266 1.4356 -4.96299 
13667 2 -1.1224 -2.30199 0.512908 
11251 1 0.272821 8.3656 1.0298 
14597 2 0.130465 -1.63157 -5.9622 
3171 1 3.43912 -1.41556 -0.298595 
3547 1 4.53428 3.59998 -3.16823 
3169 1 3.56538 5.73886 8.42737 
3170 2 1.34308 2.96021 2.15249 
3548 2 0.687318 -3.85569 1.91764 
13666 1 -0.966275 -1.09421 -1.07208 
14596 1 -4.94713 3.6706 -3.14747 
7137 1 1.03788 -1.35047 -8.11952 
7135 1 0.0319679 2.49782 5.1227 
42 1 -2.30065 1.07624 -2.1609 
7136 2 0.174775 -0.489164 -4.05093 
21465 1 -0.923057 -4.2852 -2.71901 
13807 1 -5.67933 -2.06362 -0.419534 
21464 2 1.41898 -6.36277 -4.06274 
6179 2 3.29622 3.40648 1.26914 
6180 1 2.87067 3.90344 -4.70882 
21463 1 -7.45701 -2.17898 1.01285 
19464 1 -1.96953 -2.96145 -5.6046 
10773 1 3.1703 2.43833 1.37477 
17649 1 -0.10568 -0.303641 -2.98096 
17648 2 -6.98195 -0.0640104 -7.6196 
13809 1 1.46397 -4.71305 -9.01993 
10800 1 2.78063 2.90717 5.09026 
13808 2 -1.57377 2.01866 -0.717349 
19463 2 0.347864 -2.09934 6.60348 
19462 1 3.47441 1.74358 0.409187 
10771 1 6.01327 5.82932 -0.806913 
8307 1 -0.325278 0.334204 -1.32988 
8306 2 -0.431455 -0.860194 -3.15486 
8305 1 -2.86993 1.48041 -0.343071 
16903 1 -2.97629 1.06598 3.33111 
16324 1 4.05711 3.37485 3.3103 
10772 2 5.29523 -2.37897 0.308766 
6054 1 2.49718 2.5289 -0.613198 
21204 1 -3.46602 -1.80677 4.8157 
21203 2 5.50319 2.42527 1.15584 
21202 1 -3.5197 -3.00803 -3.84235 
13114 1 -1.26573 -1.93464 6.17304 
13115 2 -0.932056 -2.05041 -2.02461 
568 1 -5.34715 -2.59615 -1.06961 
21056 2 -0.293555 -0.91197 3.93297 
21055 1 3.54168 0.459932 -3.25142 
41 2 -1.86344 -3.32664 1.9084 
40 1 -3.90099 4.88109 0.912717 
3783 1 1.75753 -7.16198 1.26498 
3549 1 -8.40247 6.6251 2.957 
19641 1 -2.06047 -0.865075 2.06989 
19640 3 -2.70815 1.29304 -0.422848 
19639 1 2.30676 -3.1247 1.95904 
12799 1 0.589279 -2.56956 -3.33809 
3782 2 -3.55599 -0.669005 -0.933608 
12800 2 0.935381 -2.05575 0.330339 
13116 1 0.880801 -3.46637 1.45578 
4771 1 0.0724358 -1.32395 5.32954 
4772 3 -1.9224 -0.134815 2.7275 
3565 1 -3.68151 -3.48226 -6.71824 
4773 1 8.80157 -2.3213 -1.81717 
3566 2 -4.50234 1.85511 0.248243 
3567 1 7.3139 -2.45975 -4.66185 
5622 1 5.0392 -4.65603 5.12553 
8186 2 -4.18193 0.470725 0.0155204 
8185 1 -1.02261 1.42107 0.693567 
8178 1 -3.5821 5.94097 2.28042 
8187 1 -7.06499 5.99537 -0.567355 
5621 2 -0.902999 -0.795136 -1.64755 
18743 2 1.14778 1.76071 0.562077 
18742 1 -1.06236 -4.53325 -1.58374 
5620 1 3.76749 -0.888393 1.80367 
18744 1 -2.60887 -0.479217 -0.450227 
12992 2 5.36471 -3.50339 1.69681 
5134 1 0.576805 3.59741 -4.36993 
12991 1 6.91279 -1.23984 -4.63654 
2689 1 -0.584709 3.82482 3.86722 
10056 1 -4.29497 -2.10498 -2.56529 
1776 1 -0.943662 -7.71865 0.528256 
12993 1 -3.251 -1.98766 -1.44103 
2691 1 2.91304 -1.9551 7.25133 
2690 2 1.90797 5.98199 -3.43021 
7747 1 -0.678878 -2.20339 -2.75228 
3479 3 -2.93054 2.63887 -1.86653 
3480 1 -3.2674 0.610915 -0.501441 
924 1 5.02631 -1.37283 -1.41506 
986 2 0.170709 2.54799 -7.28955 
19495 1 -7.41918 -1.73913 1.14423 
19496 2 1.1243 -2.25458 0.508694 
987 1 -3.66675 2.42536 3.30202 
7188 1 5.86223 -0.891365 3.50086 
21262 1 4.46009 5.5918 2.93818 
7187 2 -1.65715 0.316181 -0.976252 
7186 1 -3.18612 -2.58108 -1.7615 
15363 1 1.5811 5.49966 0.845322 
15362 2 -4.36414 5.32395 -0.909542 
15361 1 -5.10199 -1.65949 -2.97929 
18153 1 2.44065 -2.65986 0.149385 
18152 2 1.61425 1.59412 3.38207 
18151 1 4.54933 7.19301 2.59772 
16855 1 -7.58041 3.53462 7.52293 
8177 2 2.44023 3.62639 -0.38241 
17672 2 0.175401 -1.5729 0.353341 
17673 1 0.648667 -1.9847 -3.87332 
14719 1 -0.199484 -6.52878 5.31535 
14764 1 -1.85805 3.71071 -5.45734 
14720 2 0.066024 -1.10277 0.316248 
2776 1 0.563655 -3.69532 5.41849 
1774 1 1.67296 -6.09641 2.11044 
1775 2 -0.353467 2.70955 1.42289 
10055 2 2.34318 1.82004 1.08113 
7816 1 -5.74127 0.846533 -3.53251 
10054 1 3.22157 -3.85836 -4.57478 
20743 1 -3.18765 0.588865 0.40467 
1045 1 3.85235 -0.693141 0.28564 
20744 2 -3.98759 -5.05629 -3.79855 
20745 1 1.93327 -6.02292 1.74449 
7817 2 3.77704 0.31921 -1.18538 
7748 2 -2.88396 3.74275 -1.61567 
15208 1 2.36613 -0.409499 -1.49324 
7749 1 1.33195 -2.16754 7.41583 
4081 1 -5.40585 -2.0066 -0.53848 
4083 1 1.36864 1.10648 4.23914 
4082 2 3.03794 2.68406 3.5113 
13744 1 3.54804 3.74199 -0.0638227 
1308 1 3.28714 -0.141353 0.0699641 
922 1 0.567705 -1.89383 -2.75758 
923 2 -0.695209 -1.36629 -0.326124 
19739 2 -0.0848141 1.46472 0.43064 
19740 1 -4.31647 -0.447222 4.52038 
17367 1 -1.71305 1.58589 0.279778 
17366 2 -1.7409 -7.77871 1.19736 
7968 1 3.82442 3.3475 -0.214398 
17365 1 5.05939 1.01615 -4.41815 
21315 1 -0.464886 5.04542 -5.57192 
21314 2 -3.89885 -1.83299 0.0920115 
21313 1 -0.122899 -2.65687 -4.9515 
8442 1 3.73603 -2.87033 -3.6647 
13149 1 -1.14183 -5.45855 -0.617919 
13148 2 1.40134 -0.271358 -1.94846 
13147 1 0.200299 -3.39258 -3.41121 
8441 2 3.086 1.5118 3.10578 
3792 1 -1.27349 -2.34139 1.68746 
14701 1 3.01543 5.48168 -9.5814 
3791 2 0.205691 -0.383381 2.81883 
14721 1 6.27165 -3.06913 -0.94068 
16856 2 0.961549 0.893961 2.31224 
16857 1 -2.37775 -2.90664 -3.44858 
8067 1 -3.2346 2.37942 5.7911 
18844 1 -3.19007 -1.98611 -0.365493 
18845 2 1.48336 2.18909 -4.08048 
18846 1 -1.12058 0.752952 0.597421 
7026 1 -2.17939 -5.65944 1.77191 
13046 2 -2.56726 0.19258 3.57003 
14702 2 3.40154 -2.40833 0.088636 
7025 2 0.917814 1.31846 -2.88891 
11186 2 1.36108 1.09955 1.31599 
6415 1 -4.00522 2.6274 1.28137 
2484 1 0.900232 0.147034 1.93237 
2482 1 -4.26845 -1.90459 -3.01705 
2483 2 -4.16418 -3.47288 0.11097 
6416 2 -1.83817 -3.81405 0.844379 
6417 1 -2.07033 -2.45467 -0.274667 
13045 1 4.8221 -2.97452 -1.4783 
1046 2 0.11188 -0.0881347 -0.332586 
1047 1 2.15823 5.67132 1.05935 
3064 1 3.41737 -0.541793 2.37931 
11187 1 -0.326062 -2.16669 -1.11533 
8704 1 0.517492 -1.87049 2.5956 
8705 2 2.43199 -1.33001 -1.53412 
8706 1 -5.82009 1.90569 0.054089 
485 2 3.71913 -0.719783 2.5633 
484 1 5.91015 3.14048 -7.44808 
11014 1 5.56057 -3.78726 1.1374 
11015 2 -3.78081 3.26701 1.98044 
13951 1 -4.01055 5.82166 -1.91681 
19738 1 1.10672 0.230814 1.14926 
11016 1 4.26643 -4.21317 3.05514 
6004 1 4.57806 -4.05966 1.72749 
6005 2 2.46134 -1.7652 1.21826 
6006 1 5.17401 4.92887 7.17815 
14134 1 -4.13457 -4.51294 0.835968 
520 1 1.07171 -1.02944 4.98043 
521 2 -1.75683 4.14458 4.95596 
522 1 -1.12885 1.8634 5.40521 
14135 2 1.74282 -1.34166 6.49224 
16411 1 -1.84957 0.841079 -0.110146 
16412 2 3.28818 -1.97697 2.65179 
16413 1 -4.69117 0.944057 3.61576 
5858 2 -2.03058 -0.773532 -1.59538 
5857 1 1.78939 -2.10447 -0.64754 
1441 1 -3.87017 -4.40135 -2.60071 
1442 2 -3.11353 -2.53914 2.25466 
1443 1 1.15171 1.42001 1.13957 
2260 1 -0.0739407 -3.40492 -1.32419 
3789 1 3.8449 -4.53159 3.54186 
13047 1 2.5167 -1.19232 -2.46774 
2262 1 3.08281 3.50512 0.840312 
2261 2 2.4759 0.620837 1.2284 
10958 2 -5.95544 -0.849864 -2.35678 
14703 1 1.19637 0.357301 0.997695 
3787 1 -2.34647 -4.21545 -0.674053 
20052 1 -1.17007 -5.85965 1.31416 
10959 1 2.87394 1.31018 0.728752 
3788 2 1.73649 -2.20632 -1.02265 
10957 1 1.20672 -0.217576 5.24349 
21168 1 2.21156 4.54702 2.68496 
21167 2 -1.91434 -3.33857 2.22903 
21166 1 1.57795 -3.51083 -1.65792 
8181 1 2.67765 -2.10183 1.4135 
16708 1 2.27662 -0.285289 2.52758 
8180 2 2.11123 -0.154041 1.44319 
8179 1 -5.81702 3.47671 1.13602 
16710 1 -0.331509 2.06408 -1.66953 
16709 2 1.75976 -1.50319 -0.175297 
2824 1 5.79393 4.72866 -1.03469 
2825 2 2.63863 0.964325 -0.95662 
15963 1 0.929451 -1.30642 5.52817 
15962 2 1.27523 -0.0256489 -1.21667 
2826 1 1.16338 6.04471 -6.59617 
6677 2 -0.578632 -0.288615 -3.54393 
6678 1 1.20261 -5.22108 0.871084 
16579 1 -0.345922 -5.73824 -0.190012 
3097 1 -6.24132 2.78067 -5.51878 
3098 2 -2.21189 0.549535 0.69747 
9466 1 1.2184 2.95696 -1.20888 
16581 1 1.40333 2.03422 -0.50026 
16580 2 -3.11702 3.66117 -1.63416 
21425 3 -0.435852 -2.36528 1.30577 
21426 1 0.349193 2.45656 4.70409 
21424 1 0.371266 -0.76739 -5.51615 
16718 2 1.53086 -1.81416 2.29697 
21241 1 0.869026 -3.66572 -1.3848 
21242 3 -0.586563 -0.518528 -2.71744 
21243 1 -6.47274 7.89719 -0.747566 
10763 2 2.71432 0.153351 -1.6648 
10764 1 -0.915103 -2.84846 0.00598748 
2600 2 2.17912 -1.64115 -1.78083 
4924 1 1.90381 -1.38474 1.52717 
4925 2 3.95337 -0.678018 0.455543 
5500 1 2.5881 -0.235458 -3.94026 
5501 2 -1.18593 -2.06524 -3.85377 
5502 1 -2.62462 -5.8207 2.00977 
2827 1 -3.06945 -2.25659 6.24913 
2601 1 3.27227 0.685305 3.65052 
1829 2 4.47086 1.79887 -1.44049 
2599 1 1.08922 4.28788 2.13348 
1830 1 1.62965 0.623086 -4.45437 
4967 2 -0.0122681 -3.36364 2.30565 
9949 1 -0.675595 -2.19852 1.16049 
9950 2 -1.72317 0.101134 -4.97632 
9951 1 3.90672 8.55619 4.81235 
4966 1 -3.10921 -0.733498 3.53833 
19010 2 -3.55382 5.61949 0.19808 
20116 1 1.52642 -0.339687 -1.40658 
19009 1 4.21753 1.62065 3.64262 
20118 1 1.24233 0.724225 1.74943 
14935 1 1.83761 -1.5823 -2.24583 
4968 1 0.436264 1.81535 -2.81489 
6971 2 -3.10551 3.85463 1.12777 
5377 1 -2.47481 -2.49914 -0.553603 
14854 1 -6.85475 0.699627 -0.883554 
14855 2 2.06188 -0.488978 0.166616 
14856 1 2.58747 -2.28789 -3.93075 
16338 1 6.00196 -0.452608 3.55684 
6972 1 -1.22093 5.74331 -1.04269 
16337 2 -1.28111 0.704225 -1.16531 
14936 2 -0.752111 -0.451799 0.530732 
14937 1 0.613737 10.6078 4.86215 
21374 2 0.610515 0.528498 2.18355 
21373 1 0.135989 -1.7937 -7.58158 
16336 1 -1.75202 0.798912 0.456561 
6408 1 -0.0140978 1.36705 -0.380189 
6407 2 1.42193 3.93455 -0.913838 
5171 2 0.2085 2.76869 1.00207 
5170 1 -0.253698 -2.00626 2.0333 
20327 2 -1.42633 -1.19275 -2.07203 
20328 1 -0.489041 1.3078 -1.98962 
20326 1 -8.51968 -5.93584 -3.9315 
20496 1 4.79222 -5.39397 1.35857 
20495 2 3.1539 -0.191168 -1.51344 
15961 1 3.07641 7.41079 -2.91136 
5403 1 1.22039 -4.23156 1.79392 
6406 1 5.96065 2.63031 -1.20186 
11844 1 0.516211 6.66727 -2.23898 
11843 2 -3.56615 0.0399424 -2.36802 
11842 1 1.19785 4.62237 1.35888 
20188 1 -2.23276 -3.69224 -2.97722 
5402 2 3.29861 -0.492392 -1.97661 
82 1 1.28801 1.92132 -0.242385 
13131 1 6.74687 0.972631 -2.94548 
6980 2 -1.64461 -0.125221 1.51986 
6981 1 3.82906 -1.03729 -9.15834 
1398 1 -1.97455 0.828025 -0.264432 
5401 1 -0.959774 -0.941387 -1.96119 
7272 1 -1.13767 -2.50201 4.03941 
7270 1 -3.45869 -0.775793 -1.02351 
7271 2 -5.71516 -0.148464 2.21903 
83 2 1.10484 -0.348416 3.25087 
84 1 -5.27141 -0.379159 -2.76846 
1397 2 1.4818 0.224838 0.164603 
8093 2 -3.11313 2.04291 -1.83407 
8094 1 0.470006 -3.70177 3.99534 
15002 2 2.50252 -0.0475883 3.97361 
4926 1 4.47807 6.80437 1.92354 
6820 1 -1.78137 2.66515 0.524836 
6821 2 -3.37471 -2.33591 2.68865 
15001 1 -2.42186 -5.11548 -5.37509 
15350 2 -0.918272 0.0533578 3.38773 
15349 1 -4.57522 1.36859 2.12378 
15351 1 -3.66838 -0.814061 -0.440659 
18322 1 3.75677 4.4789 -4.92538 
18323 2 -1.11241 1.16595 0.906521 
8097 1 6.90813 -3.25572 0.856112 
20117 2 -0.883445 1.16039 -0.477808 
5380 1 -3.93069 1.70527 0.729014 
5381 2 2.8745 0.234284 1.22889 
15928 1 4.35819 1.96247 0.0903364 
14283 1 -2.37079 3.76921 -1.91577 
5382 1 3.57925 -4.26605 -0.23697 
17184 1 0.243618 -1.86956 -3.83985 
18324 1 2.40137 0.103545 0.2035 
14281 1 -1.22887 -0.296917 0.676353 
6634 1 -4.09783 4.64459 4.75666 
14282 2 0.110551 0.248638 1.24816 
6635 2 -1.71649 -0.597513 4.16308 
20494 1 5.9379 -5.27559 1.70678 
6636 1 -5.31979 -3.27361 -6.89067 
17183 2 -1.37995 2.22777 2.91383 
11578 1 0.989792 -2.77037 -8.62419 
13914 1 0.930819 -3.72493 -2.04965 
16830 1 1.57364 5.77356 1.04741 
21121 1 -0.105255 1.5723 2.70295 
21122 2 -1.91889 -0.082353 0.586124 
21123 1 -5.8355 1.02283 -4.42803 
6862 1 4.31387 0.123128 -1.43994 
6863 2 0.3932 -2.84851 0.620032 
20189 2 3.32112 3.95258 1.20388 
2481 1 3.50013 -0.416346 -1.50777 
18640 1 -1.24765 1.48387 -1.22704 
18641 2 0.333285 -2.26991 -1.47215 
18642 1 -0.975365 1.34151 -3.49428 
20190 1 -1.58741 2.2023 2.18917 
5753 2 0.150995 -1.68748 -3.86028 
5752 1 2.22978 0.181329 -1.76309 
7976 2 -0.173662 -3.97038 -3.25042 
7977 1 -5.27758 -4.56177 8.11836 
7975 1 -3.33881 4.82694 -8.23542 
8092 1 -3.17329 -0.393488 -0.26727 
5341 1 -1.51668 3.05925 0.714436 
5342 3 -0.480259 1.22594 3.11672 
18703 1 0.465888 -6.06809 -4.49019 
5343 1 -2.07407 -1.20316 0.403836 
18704 2 2.59097 0.319572 -1.64458 
14860 1 -1.60597 -0.0996058 1.25515 
8128 1 -2.36952 4.75694 4.82228 
8130 1 -2.32368 1.7005 -0.232732 
8129 2 -4.41768 1.33076 0.227765 
14861 2 -0.610774 -3.19126 -0.0838068 
18705 1 -1.68804 0.736574 1.04519 
16896 1 -2.90264 6.01443 -3.39246 
12565 1 -1.62561 -0.74933 1.02504 
12566 3 3.60285 -0.550975 0.515881 
13913 2 -5.59586 0.63986 -1.72605 
13912 1 1.47484 -4.28204 5.84067 
16895 2 4.00285 -0.0802261 -2.59284 
17647 1 4.50113 -0.350512 1.87062 
16894 1 3.83428 -2.30485 3.76804 
3414 1 -2.36519 3.49904 -4.16357 
15617 2 0.0504508 -2.92452 -0.20121 
16904 2 -1.94369 2.17811 -0.285573 
16905 1 0.622353 -2.77455 -5.39277 
18639 1 -0.191984 0.402951 1.12502 
17895 1 -1.65568 -0.479639 2.08379 
3413 2 -5.53156 -0.838537 2.22089 
3412 1 3.82755 4.28525 -3.38441 
18638 2 -1.97961 -3.81479 -0.291815 
18637 1 3.91883 -4.36858 4.19176 
5754 1 -0.441118 -0.627764 -1.39726 
2451 1 -2.15046 -0.0169524 -2.64477 
2449 1 0.737028 5.382 1.09201 
2450 2 -4.63282 1.63136 3.46835 
4316 3 1.48253 -5.58423 0.263573 
4317 1 0.857802 -4.18224 -1.4769 
12567 1 -0.776478 1.80015 0.727909 
12801 1 1.90334 -0.239005 2.88514 
10797 1 -2.11059 2.73962 -1.32542 
10796 3 -3.0585 1.51964 -4.21746 
10795 1 4.68425 0.301469 -0.550363 
18537 1 5.61257 -7.97153 4.78896 
9409 1 3.7818 1.90759 -1.32308 
18536 2 -3.36228 0.124055 -1.64439 
9410 2 -2.16431 3.39523 -0.835873 
9411 1 -0.478818 1.23926 6.26674 
11107 1 -6.64564 -0.140022 0.0771731 
11108 2 -2.10855 -2.06496 4.63339 
5244 1 2.91888 5.87731 -5.70248 
16221 1 8.16679 2.1481 -2.91936 
16219 1 -4.55011 5.93045 5.75526 
16220 3 2.18701 0.566122 -1.03915 
18535 1 0.42568 0.466145 -6.57428 
1218 1 1.59306 -0.428521 2.86454 
10862 2 3.24502 -2.73641 1.87846 
10861 1 -0.733566 1.70281 -4.16413 
6739 1 1.05844 -3.50114 0.763781 
6740 2 -0.589869 -0.308094 4.20688 
6741 1 1.13209 3.59783 0.364961 
11109 1 2.0603 -3.34422 3.29091 
17671 1 4.80999 -2.70599 -2.80311 
19212 1 2.05023 -10.4217 3.21032 
19211 2 2.35821 2.44419 3.31782 
19210 1 -0.00302499 1.32421 0.666722 
582 1 -2.9904 -4.62173 0.197252 
5243 2 1.24526 -1.12482 1.35526 
5242 1 -0.964586 4.03137 1.1174 
10863 1 -0.388788 4.66045 0.0472941 
2778 1 1.39896 -0.290631 1.68897 
12400 1 1.46684 -5.64629 -2.51588 
12401 2 0.108501 -0.447665 5.01128 
2777 2 -0.947815 -5.69465 0.985618 
9254 2 1.08028 0.494305 1.53206 
9253 1 1.60495 -0.0721542 -3.36681 
12402 1 1.1078 -0.125357 -5.9881 
9255 1 4.07734 -1.14528 -0.416561 
7818 1 -4.19895 1.0752 -1.69424 
7590 1 -4.01108 0.376207 -8.90278 
7064 2 -1.41879 -0.240088 4.68619 
7065 1 0.670628 4.36308 1.92086 
20623 1 0.0114573 -2.51392 0.535709 
7063 1 -0.713561 0.702737 0.256965 
20624 2 -2.71837 -3.14076 2.92715 
20625 1 -4.0413 -0.276246 -0.455644 
1039 1 7.68368 -2.32195 6.71259 
11365 1 7.43707 1.89734 -5.5466 
1040 2 -3.09939 1.47734 -1.97711 
8440 1 1.64276 5.1393 -0.672693 
17697 1 -5.06177 -0.0356896 4.66646 
17696 2 2.78695 -2.50939 -0.576278 
8066 2 -3.9856 6.88583 0.802956 
1041 1 -0.638843 2.23142 1.6715 
8065 1 -2.36648 -1.16335 -1.52534 
18707 2 -1.67319 2.57253 0.167156 
2370 1 2.2991 0.390644 1.36622 
18708 1 -4.63429 -1.88482 -3.3113 
2369 2 -2.96165 -2.48799 -4.72691 
18706 1 -2.3972 -2.29378 2.40341 
8893 1 1.4152 5.94888 -3.10874 
2368 1 2.11238 1.44279 -3.29703 
3768 1 -1.16169 -2.25184 -5.55487 
3766 1 6.68045 1.06234 -0.432921 
3767 2 -1.72017 4.14224 -2.64483 
486 1 0.996822 2.15478 0.835853 
3065 2 0.843207 0.505394 4.94089 
3066 1 0.079012 -0.192617 -2.67644 
11019 1 -1.41519 -8.68773 4.62728 
13953 1 -1.149 -2.81445 -0.510236 
11018 2 -0.814894 0.21676 2.28194 
11017 1 1.42512 2.26213 -0.499982 
13952 2 -0.110003 7.62033 1.54384 
16542 1 -2.25573 -3.17109 4.57041 
16541 3 -1.40022 3.90464 -2.56124 
16540 1 6.24893 -3.95042 -0.458839 
17748 1 2.67811 -7.26727 -0.584165 
17747 3 1.67162 0.301206 -3.75305 
17746 1 -1.40135 1.93709 -0.318909 
15933 1 -0.507435 -2.16305 -0.315252 
15932 2 1.53368 2.64612 0.182643 
15533 2 -0.436975 -1.73528 -0.804234 
15532 1 -5.99449 -3.34668 6.78678 
11682 1 -1.61399 -1.20331 1.84479 
15534 1 2.41756 5.44823 -1.04708 
15931 1 0.672577 -0.284525 3.1539 
11681 2 -4.25386 0.167292 -0.949243 
11680 1 -2.64206 -4.29636 -0.0647655 
2653 1 -0.619323 2.0904 -3.02324 
17695 1 -1.25197 -1.31815 -6.32665 
2654 2 2.79673 -3.47764 4.85184 
2655 1 2.07854 -3.6048 0.533719 
1855 1 5.80408 -7.89454 1.46152 
1856 2 -0.0520339 -0.365103 2.26352 
1857 1 2.54848 1.11188 1.14724 
11695 1 2.91006 -0.254692 6.54714 
11696 2 2.25788 -0.00790725 -1.12684 
11697 1 4.20246 -2.51066 0.1428 
9321 1 -0.490059 -7.54345 -2.14408 
9319 1 -3.46158 1.40477 -4.55355 
9320 2 1.26321 -1.64751 1.25237 
3050 2 1.65113 -0.096975 1.58203 
3051 1 5.48041 6.79324 6.59814 
7024 1 -5.28239 0.966625 -2.91261 
10110 1 1.10787 1.10705 3.31294 
8294 2 0.927244 0.616136 1.83814 
3099 1 -5.52091 2.57947 0.486031 
8293 1 -5.02695 -2.35928 -5.40268 
8295 1 -2.64405 2.22029 1.49677 
16802 2 0.0472298 -2.99274 1.51709 
9328 1 -0.556518 -3.1567 -0.1605 
7388 2 1.74447 0.150909 -4.57876 
7389 1 -0.903214 -2.61661 -5.94407 
7387 1 0.988829 -1.39914 5.48981 
17704 1 -1.98365 -2.19709 1.3806 