ITEM: TIMESTEP
0
ITEM: NUMBER OF ATOMS
1248
ITEM: BOX BOUNDS pp pp pp
0.0000000000000000e+00 5.0000000000000000e+01
0.0000000000000000e+00 5.0000000000000000e+01
0.0000000000000000e+00 5.0000000000000000e+01
ITEM: ATOMS id type 
316 1 
317 2 
318 1 
430 1 
431 2 
432 1 
508 1 
509 2 
510 1 
1222 1 
1223 2 
1224 1 
1276 1 
1277 2 
1278 1 
1336 1 
1337 2 
1338 1 
1513 1 
1514 2 
1515 1 
1522 1 
1523 2 
1524 1 
1621 1 
1622 2 
1623 1 
1624 1 
1625 2 
1626 1 
1630 1 
1631 2 
1632 1 
2416 1 
2417 2 
2418 1 
3202 1 
3203 2 
3204 1 
3244 1 
3245 2 
3246 1 
3310 1 
3311 2 
3312 1 
3316 1 
3317 2 
3318 1 
3436 1 
3437 2 
3438 1 
3484 1 
3485 2 
3486 1 
3724 1 
3725 2 
3726 1 
4408 1 
4409 2 
4410 1 
4561 1 
4562 2 
4563 1 
4705 1 
4706 2 
4707 1 
5485 1 
5486 2 
5487 1 
5590 1 
5591 2 
5592 1 
5653 1 
5654 2 
5655 1 
6022 1 
6023 2 
6024 1 
6664 1 
6665 2 
6666 1 
6781 1 
6782 2 
6783 1 
6901 1 
6902 2 
6903 1 
6928 1 
6929 2 
6930 1 
7027 1 
7028 2 
7029 1 
7201 1 
7202 2 
7203 1 
7204 1 
7205 2 
7206 1 
7756 1 
7757 2 
7758 1 
7867 1 
7868 2 
7869 1 
7888 1 
7889 2 
7890 1 
7930 1 
7931 2 
7932 1 
8905 1 
8906 2 
8907 1 
9199 1 
9200 2 
9201 1 
9316 1 
9317 2 
9318 1 
10096 1 
10097 2 
10098 1 
10216 1 
10217 3 
10218 1 
10324 1 
10325 3 
10326 1 
10336 1 
10337 2 
10338 1 
10381 1 
10382 2 
10383 1 
10465 1 
10466 2 
10467 1 
11101 1 
11102 2 
11103 1 
11113 1 
11114 2 
11115 1 
11128 1 
11129 3 
11130 1 
11350 1 
11351 2 
11352 1 
11353 1 
11354 2 
11355 1 
12241 1 
12242 2 
12243 1 
12445 1 
12446 3 
12447 1 
12547 1 
12548 3 
12549 1 
12553 1 
12554 2 
12555 1 
12562 1 
12563 2 
12564 1 
12601 1 
12602 2 
12603 1 
13141 1 
13142 2 
13143 1 
13162 1 
13163 2 
13164 1 
13165 1 
13166 2 
13167 1 
13222 1 
13223 2 
13224 1 
13261 1 
13262 2 
13263 1 
13327 1 
13328 2 
13329 1 
13453 1 
13454 2 
13455 1 
14221 1 
14222 2 
14223 1 
14296 1 
14297 2 
14298 1 
14344 1 
14345 2 
14346 1 
14353 1 
14354 2 
14355 1 
14521 1 
14522 2 
14523 1 
14590 1 
14591 2 
14592 1 
15673 1 
15674 2 
15675 1 
15685 1 
15686 2 
15687 1 
15721 1 
15722 2 
15723 1 
16525 1 
16526 2 
16527 1 
16561 1 
16562 2 
16563 1 
17299 1 
17300 2 
17301 1 
17413 1 
17414 2 
17415 1 
17419 1 
17420 2 
17421 1 
17524 1 
17525 2 
17526 1 
17650 1 
17651 2 
17652 1 
17656 1 
17657 2 
17658 1 
18382 1 
18383 2 
18384 1 
18727 1 
18728 2 
18729 1 
18787 1 
18788 2 
18789 1 
19450 1 
19451 3 
19452 1 
19627 1 
19628 2 
19629 1 
19690 1 
19691 2 
19692 1 
20725 1 
20726 2 
20727 1 
20773 1 
20774 2 
20775 1 
20782 1 
20783 2 
20784 1 
280 1 
281 2 
282 1 
331 1 
332 2 
333 1 
1177 1 
1178 3 
1179 1 
1246 1 
1247 2 
1248 1 
1255 1 
1256 2 
1257 1 
1297 1 
1298 2 
1299 1 
1372 1 
1373 2 
1374 1 
1426 1 
1427 3 
1428 1 
1609 1 
1610 2 
1611 1 
1675 1 
1676 2 
1677 1 
2275 1 
2276 2 
2277 1 
2338 1 
2339 2 
2340 1 
2371 1 
2372 3 
2373 1 
2383 1 
2384 2 
2385 1 
2434 1 
2435 2 
2436 1 
2629 1 
2630 2 
2631 1 
3211 1 
3212 2 
3213 1 
3232 1 
3233 2 
3234 1 
3349 1 
3350 2 
3351 1 
3511 1 
3512 2 
3513 1 
3520 1 
3521 2 
3522 1 
4420 1 
4421 2 
4422 1 
4495 1 
4496 2 
4497 1 
4546 1 
4547 2 
4548 1 
4549 1 
4550 2 
4551 1 
4594 1 
4595 2 
4596 1 
4606 1 
4607 2 
4608 1 
4657 1 
4658 2 
4659 1 
4720 1 
4721 2 
4722 1 
4837 1 
4838 2 
4839 1 
4909 1 
4910 2 
4911 1 
5491 1 
5492 2 
5493 1 
5494 1 
5495 2 
5496 1 
5674 1 
5675 2 
5676 1 
5689 1 
5690 2 
5691 1 
5854 1 
5855 2 
5856 1 
5860 1 
5861 2 
5862 1 
5914 1 
5915 2 
5916 1 
6049 1 
6050 2 
6051 1 
6712 1 
6713 2 
6714 1 
6760 1 
6761 2 
6762 1 
6811 1 
6812 3 
6813 1 
6871 1 
6872 2 
6873 1 
6931 1 
6932 2 
6933 1 
7120 1 
7121 2 
7122 1 
8137 1 
8138 2 
8139 1 
8215 1 
8216 2 
8217 1 
8254 1 
8255 2 
8256 1 
8269 1 
8270 2 
8271 1 
8923 1 
8924 2 
8925 1 
8929 1 
8930 2 
8931 1 
9091 1 
9092 2 
9093 1 
9175 1 
9176 3 
9177 1 
9331 1 
9332 2 
9333 1 
9997 1 
9998 2 
9999 1 
10237 1 
10238 2 
10239 1 
10357 1 
10358 2 
10359 1 
10471 1 
10472 2 
10473 1 
10558 1 
10559 2 
10560 1 
11131 1 
11132 2 
11133 1 
11254 1 
11255 2 
11256 1 
12298 1 
12299 2 
12300 1 
12472 1 
12473 2 
12474 1 
12532 1 
12533 2 
12534 1 
12571 1 
12572 2 
12573 1 
12598 1 
12599 2 
12600 1 
12631 1 
12632 2 
12633 1 
12646 1 
12647 2 
12648 1 
13183 1 
13184 2 
13185 1 
13189 1 
13190 2 
13191 1 
13249 1 
13250 2 
13251 1 
13303 1 
13304 2 
13305 1 
13438 1 
13439 3 
13440 1 
14383 1 
14384 2 
14385 1 
14455 1 
14456 2 
14457 1 
14500 1 
14501 2 
14502 1 
15331 1 
15332 2 
15333 1 
15463 1 
15464 2 
15465 1 
15511 1 
15512 2 
15513 1 
15637 1 
15638 2 
15639 1 
15703 1 
15704 2 
15705 1 
16531 1 
16532 2 
16533 1 
16591 1 
16592 2 
16593 1 
16735 1 
16736 2 
16737 1 
17332 1 
17333 2 
17334 1 
17554 1 
17555 2 
17556 1 
17623 1 
17624 2 
17625 1 
17629 1 
17630 2 
17631 1 
18475 1 
18476 2 
18477 1 
18526 1 
18527 2 
18528 1 
18592 1 
18593 2 
18594 1 
18655 1 
18656 3 
18657 1 
18658 1 
18659 2 
18660 1 
18763 1 
18764 2 
18765 1 
18820 1 
18821 2 
18822 1 
18889 1 
18890 3 
18891 1 
19720 1 
19721 2 
19722 1 
19858 1 
19859 2 
19860 1 
20575 1 
20576 2 
20577 1 
20578 1 
20579 2 
20580 1 
20611 1 
20612 2 
20613 1 
20863 1 
20864 2 
20865 1 
20875 1 
20876 2 
20877 1 
20917 1 
20918 2 
20919 1 
21031 1 
21032 2 
21033 1 
625 1 
626 2 
627 1 
670 1 
671 3 
672 1 
745 1 
746 2 
747 1 
970 1 
971 2 
972 1 
973 1 
974 3 
975 1 
1093 1 
1094 2 
1095 1 
1810 1 
1811 2 
1812 1 
1813 1 
1814 2 
1815 1 
1867 1 
1868 2 
1869 1 
1990 1 
1991 3 
1992 1 
2005 1 
2006 2 
2007 1 
2059 1 
2060 2 
2061 1 
2185 1 
2186 2 
2187 1 
2728 1 
2729 2 
2730 1 
2761 1 
2762 2 
2763 1 
2896 1 
2897 2 
2898 1 
2953 1 
2954 3 
2955 1 
3016 1 
3017 2 
3018 1 
3079 1 
3080 2 
3081 1 
4096 1 
4097 2 
4098 1 
4210 1 
4211 2 
4212 1 
4222 1 
4223 2 
4224 1 
5167 1 
5168 2 
5169 1 
5188 1 
5189 2 
5190 1 
5221 1 
5222 2 
5223 1 
5233 1 
5234 3 
5235 1 
5413 1 
5414 3 
5415 1 
6361 1 
6362 2 
6363 1 
6430 1 
6431 2 
6432 1 
6505 1 
6506 2 
6507 1 
6508 1 
6509 3 
6510 1 
7324 1 
7325 2 
7326 1 
7336 1 
7337 3 
7338 1 
7405 1 
7406 2 
7407 1 
7450 1 
7451 2 
7452 1 
8584 1 
8585 2 
8586 1 
9382 1 
9383 2 
9384 1 
9556 1 
9557 3 
9558 1 
9613 1 
9614 3 
9615 1 
9733 1 
9734 2 
9735 1 
9748 1 
9749 2 
9750 1 
9781 1 
9782 2 
9783 1 
9910 1 
9911 2 
9912 1 
10621 1 
10622 2 
10623 1 
10747 1 
10748 2 
10749 1 
10753 1 
10754 2 
10755 1 
10810 1 
10811 3 
10812 1 
11008 1 
11009 2 
11010 1 
11542 1 
11543 2 
11544 1 
11719 1 
11720 2 
11721 1 
11761 1 
11762 2 
11763 1 
11773 1 
11774 3 
11775 1 
11776 1 
11777 2 
11778 1 
11779 1 
11780 2 
11781 1 
11950 1 
11951 2 
11952 1 
12682 1 
12683 2 
12684 1 
12742 1 
12743 2 
12744 1 
12802 1 
12803 3 
12804 1 
12808 1 
12809 2 
12810 1 
12856 1 
12857 2 
12858 1 
12901 1 
12902 2 
12903 1 
12922 1 
12923 2 
12924 1 
12976 1 
12977 2 
12978 1 
13093 1 
13094 3 
13095 1 
13099 1 
13100 3 
13101 1 
13804 1 
13805 2 
13806 1 
13822 1 
13823 3 
13824 1 
13939 1 
13940 2 
13941 1 
13942 1 
13943 3 
13944 1 
14050 1 
14051 2 
14052 1 
14161 1 
14162 2 
14163 1 
14173 1 
14174 2 
14175 1 
14782 1 
14783 2 
14784 1 
14788 1 
14789 3 
14790 1 
14887 1 
14888 2 
14889 1 
14947 1 
14948 2 
14949 1 
14965 1 
14966 2 
14967 1 
15088 1 
15089 2 
15090 1 
15799 1 
15800 2 
15801 1 
15982 1 
15983 2 
15984 1 
16141 1 
16142 2 
16143 1 
16204 1 
16205 3 
16206 1 
16747 1 
16748 2 
16749 1 
16822 1 
16823 2 
16824 1 
16882 1 
16883 2 
16884 1 
16885 1 
16886 2 
16887 1 
16942 1 
16943 2 
16944 1 
16990 1 
16991 2 
16992 1 
17008 1 
17009 2 
17010 1 
17062 1 
17063 2 
17064 1 
18064 1 
18065 2 
18066 1 
18088 1 
18089 2 
18090 1 
18187 1 
18188 3 
18189 1 
18310 1 
18311 2 
18312 1 
18904 1 
18905 2 
18906 1 
19084 1 
19085 2 
19086 1 
19288 1 
19289 2 
19290 1 
20056 1 
20057 2 
20058 1 
20104 1 
20105 2 
20106 1 
20161 1 
20162 2 
20163 1 
20185 1 
20186 2 
20187 1 
20356 1 
20357 2 
20358 1 
20428 1 
20429 2 
20430 1 
20488 1 
20489 2 
20490 1 
21130 1 
21131 2 
21132 1 
21181 1 
21182 2 
21183 1 
586 1 
587 2 
588 1 
757 1 
758 2 
759 1 
877 1 
878 2 
879 1 
931 1 
932 2 
933 1 
940 1 
941 2 
942 1 
949 1 
950 2 
951 1 
1012 1 
1013 2 
1014 1 
1015 1 
1016 2 
1017 1 
1018 1 
1019 2 
1020 1 
1060 1 
1061 2 
1062 1 
1717 1 
1718 2 
1719 1 
1795 1 
1796 2 
1797 1 
1831 1 
1832 2 
1833 1 
2092 1 
2093 2 
2094 1 
2140 1 
2141 2 
2142 1 
2197 1 
2198 2 
2199 1 
2812 1 
2813 3 
2814 1 
2878 1 
2879 2 
2880 1 
2983 1 
2984 2 
2985 1 
3943 1 
3944 2 
3945 1 
3994 1 
3995 3 
3996 1 
4117 1 
4118 2 
4119 1 
4132 1 
4133 2 
4134 1 
4174 1 
4175 2 
4176 1 
4249 1 
4250 2 
4251 1 
4309 1 
4310 2 
4311 1 
4312 1 
4313 2 
4314 1 
4960 1 
4961 2 
4962 1 
5032 1 
5033 3 
5034 1 
5077 1 
5078 3 
5079 1 
5083 1 
5084 2 
5085 1 
5329 1 
5330 2 
5331 1 
5431 1 
5432 2 
5433 1 
6229 1 
6230 2 
6231 1 
6514 1 
6515 2 
6516 1 
6535 1 
6536 2 
6537 1 
6586 1 
6587 2 
6588 1 
7594 1 
7595 2 
7596 1 
7675 1 
7676 3 
7677 1 
7738 1 
7739 2 
7740 1 
8491 1 
8492 2 
8493 1 
8500 1 
8501 2 
8502 1 
8509 1 
8510 2 
8511 1 
8569 1 
8570 2 
8571 1 
8695 1 
8696 3 
8697 1 
9535 1 
9536 2 
9537 1 
9577 1 
9578 2 
9579 1 
9649 1 
9650 2 
9651 1 
9700 1 
9701 2 
9702 1 
9751 1 
9752 2 
9753 1 
9814 1 
9815 3 
9816 1 
9838 1 
9839 2 
9840 1 
9895 1 
9896 2 
9897 1 
10618 1 
10619 2 
10620 1 
10657 1 
10658 2 
10659 1 
10663 1 
10664 2 
10665 1 
10840 1 
10841 2 
10842 1 
10966 1 
10967 2 
10968 1 
11563 1 
11564 2 
11565 1 
11575 1 
11576 2 
11577 1 
11749 1 
11750 2 
11751 1 
11791 1 
11792 2 
11793 1 
11797 1 
11798 2 
11799 1 
11920 1 
11921 2 
11922 1 
11926 1 
11927 2 
11928 1 
11932 1 
11933 2 
11934 1 
11983 1 
11984 2 
11985 1 
12706 1 
12707 2 
12708 1 
12814 1 
12815 2 
12816 1 
13018 1 
13019 2 
13020 1 
13117 1 
13118 2 
13119 1 
13132 1 
13133 2 
13134 1 
13834 1 
13835 2 
13836 1 
13909 1 
13910 2 
13911 1 
13966 1 
13967 2 
13968 1 
13969 1 
13970 2 
13971 1 
14098 1 
14099 3 
14100 1 
14731 1 
14732 2 
14733 1 
14797 1 
14798 2 
14799 1 
14809 1 
14810 2 
14811 1 
14851 1 
14852 2 
14853 1 
14914 1 
14915 2 
14916 1 
14923 1 
14924 2 
14925 1 
15058 1 
15059 2 
15060 1 
15100 1 
15101 2 
15102 1 
15811 1 
15812 2 
15813 1 
16174 1 
16175 2 
16176 1 
16249 1 
16250 2 
16251 1 
16771 1 
16772 2 
16773 1 
16792 1 
16793 2 
16794 1 
16834 1 
16835 2 
16836 1 
17095 1 
17096 2 
17097 1 
17146 1 
17147 2 
17148 1 
17875 1 
17876 2 
17877 1 
17971 1 
17972 2 
17973 1 
18178 1 
18179 2 
18180 1 
18931 1 
18932 2 
18933 1 
19000 1 
19001 2 
19002 1 
19069 1 
19070 2 
19071 1 
19072 1 
19073 3 
19074 1 
19177 1 
19178 2 
19179 1 
19231 1 
19232 2 
19233 1 
19291 1 
19292 2 
19293 1 
19369 1 
19370 2 
19371 1 
19423 1 
19424 2 
19425 1 
20134 1 
20135 2 
20136 1 
20251 1 
20252 2 
20253 1 
20371 1 
20372 2 
20373 1 
20392 1 
20393 2 
20394 1 
21118 1 
21119 2 
21120 1 
21169 1 
21170 2 
21171 1 
21178 1 
21179 2 
21180 1 
21280 1 
21281 2 
21282 1 
21358 1 
21359 2 
21360 1 
21580 1 
21581 2 
21582 1 
