ITEM: TIMESTEP
40000000
ITEM: NUMBER OF ATOMS
2349
ITEM: BOX BOUNDS pp pp pp
0.0000000000000000e+00 5.0000000000000000e+01
0.0000000000000000e+00 5.0000000000000000e+01
0.0000000000000000e+00 5.0000000000000000e+01
ITEM: ATOMS id type xs ys zs
20416 1 0.2729 0.945735 0.534764
249 1 0.270268 0.943967 0.53514
20417 3 0.28067 0.949689 0.535128
248 2 0.264317 0.940791 0.53695
20418 1 0.286795 0.952753 0.532332
19107 1 0.25336 0.938411 0.559351
19106 2 0.254443 0.935409 0.55219
19105 1 0.258251 0.937318 0.54585
247 1 0.260155 0.938106 0.543294
15808 1 0.210428 0.962637 0.552244
20703 1 0.210687 0.959922 0.55355
20702 3 0.211828 0.953012 0.556673
20701 1 0.208623 0.948991 0.562975
18111 1 0.207939 0.947429 0.565401
17959 1 0.253128 0.940188 0.562405
17960 3 0.253394 0.94392 0.569034
8737 1 0.163332 0.982114 0.566955
15809 2 0.209638 0.97029 0.548762
15810 1 0.212782 0.977661 0.54797
13918 1 0.214369 0.980514 0.54816
13919 3 0.217529 0.98797 0.548961
13920 1 0.219863 0.986073 0.556634
1948 1 0.220787 0.985096 0.558974
1949 3 0.223509 0.981729 0.564863
1950 1 0.230983 0.979873 0.569126
7709 2 0.269382 0.980396 0.547236
7710 1 0.274502 0.976656 0.541435
7708 1 0.271671 0.985892 0.55343
4824 1 0.272481 0.988398 0.55523
4823 2 0.273173 0.994531 0.561149
4822 1 0.269394 0.993055 0.567298
3270 1 0.267778 0.992765 0.569639
8851 1 0.175863 0.0188892 0.587116
2698 1 0.174115 0.0165838 0.586466
2699 3 0.170833 0.010471 0.584031
2700 1 0.170424 0.00320637 0.588392
18823 1 0.170013 0.000498172 0.589765
8852 3 0.180378 0.023602 0.589209
8853 1 0.184778 0.0302943 0.5896
6675 1 0.22825 0.0171789 0.600452
8349 1 0.186085 0.0331113 0.590218
8348 3 0.18889 0.0402836 0.592625
8347 1 0.191167 0.0473626 0.594299
14325 1 0.264896 0.0534549 0.600497
4912 1 0.267555 0.0520905 0.598603
4913 2 0.273771 0.0483954 0.593784
4914 1 0.281614 0.0457156 0.59101
14638 1 0.171474 0.0841858 0.600369
14639 3 0.171657 0.0786942 0.594951
14640 1 0.178394 0.0733895 0.596972
19906 1 0.180603 0.0711859 0.59782
19907 3 0.186153 0.0655494 0.599129
13498 1 0.195597 0.060811 0.599943
19908 1 0.193184 0.0619766 0.599348
2001 1 0.193253 0.076779 0.600485
21453 1 0.228373 0.0794349 0.595397
21452 3 0.229592 0.0715475 0.598178
8689 1 0.153133 0.888138 0.576359
8690 2 0.151936 0.888124 0.584743
8691 1 0.154362 0.889295 0.592331
21481 1 0.155273 0.889912 0.595123
14820 1 0.135216 0.896208 0.59159
14819 2 0.135149 0.896131 0.600134
1510 1 0.172356 0.890336 0.587938
1511 3 0.179433 0.888864 0.591494
1512 1 0.186568 0.88928 0.596399
17028 1 0.189858 0.889352 0.598321
4165 1 0.247895 0.899734 0.598266
5056 1 0.138435 0.932538 0.599865
15564 1 0.140964 0.931184 0.598744
15563 3 0.147266 0.926487 0.595754
15562 1 0.153876 0.923159 0.59643
1643 3 0.167778 0.938515 0.581721
18144 1 0.156642 0.920897 0.596539
18143 3 0.162096 0.916494 0.596623
18142 1 0.169135 0.913556 0.599508
21336 1 0.171736 0.912315 0.60029
9206 3 0.18386 0.937437 0.600271
1644 1 0.17207 0.936519 0.575107
9205 1 0.186057 0.931531 0.59626
12643 1 0.186769 0.928905 0.594757
13364 3 0.207375 0.917902 0.588573
12644 3 0.189244 0.922241 0.589794
12645 1 0.196508 0.920497 0.588605
13363 1 0.199145 0.919745 0.58851
13365 1 0.21413 0.920166 0.58677
315 1 0.217001 0.920999 0.585954
13520 3 0.207422 0.938859 0.590563
13521 1 0.205572 0.935771 0.598634
313 1 0.230692 0.924211 0.583785
2107 1 0.233953 0.924714 0.583215
2108 3 0.242292 0.925838 0.582106
314 3 0.223208 0.923817 0.585861
2109 1 0.248804 0.925789 0.58286
2365 1 0.251464 0.925639 0.582733
2366 3 0.259205 0.924388 0.58296
1637 3 0.252403 0.922246 0.60012
1638 1 0.255455 0.923372 0.592333
2367 1 0.257166 0.923757 0.590043
19201 1 0.282248 0.911728 0.600687
20047 1 0.122556 0.96013 0.598998
546 1 0.151909 0.963855 0.584754
9105 1 0.149 0.964598 0.585546
9104 3 0.142123 0.966714 0.587417
1642 1 0.161519 0.940933 0.58673
545 3 0.159331 0.961863 0.58169
544 1 0.167325 0.960322 0.576986
12981 1 0.169577 0.960243 0.575212
2586 1 0.18539 0.958796 0.575543
12979 1 0.182872 0.958605 0.574449
12980 3 0.175434 0.95844 0.570484
16136 3 0.184792 0.958916 0.599989
2585 3 0.193195 0.960139 0.577649
2584 1 0.19091 0.962756 0.584794
13519 1 0.205964 0.940728 0.582969
18109 1 0.205802 0.941206 0.579975
18110 3 0.206528 0.94258 0.57232
20413 1 0.195653 0.963006 0.600081
20414 3 0.202362 0.966391 0.598027
9977 3 0.214799 0.96715 0.580121
16137 1 0.192782 0.961528 0.600181
9978 1 0.221758 0.960535 0.578307
17911 1 0.233348 0.943905 0.592435
4713 1 0.232298 0.945208 0.590104
4712 3 0.227158 0.94997 0.585597
4711 1 0.228496 0.956767 0.589777
10723 1 0.228794 0.959299 0.591446
10724 3 0.228963 0.964425 0.597969
17912 3 0.237589 0.940451 0.598138
17961 1 0.252892 0.946787 0.575671
9564 1 0.252573 0.948509 0.578326
9563 3 0.252198 0.953889 0.585093
9562 1 0.252255 0.95711 0.590584
2271 1 0.251897 0.958666 0.593746
11735 3 0.120512 0.98627 0.598541
9103 1 0.137012 0.974134 0.58632
13488 1 0.135892 0.976064 0.585916
11736 1 0.1259 0.985774 0.592665
13487 3 0.134479 0.983477 0.584809
13486 1 0.128092 0.985194 0.590594
18523 1 0.155801 0.970433 0.597486
8738 3 0.16811 0.979086 0.573477
8739 1 0.174577 0.976729 0.57823
19893 1 0.176808 0.976331 0.58045
19892 3 0.182088 0.975624 0.58557
18824 3 0.168927 0.993446 0.59456
1266 1 0.186529 0.998385 0.591137
18524 3 0.15914 0.977148 0.595076
18525 1 0.163094 0.982723 0.593643
18825 1 0.164807 0.985254 0.593763
1265 3 0.191166 0.993996 0.585294
1264 1 0.195961 0.989144 0.581839
19891 1 0.1879 0.98071 0.588086
2008 1 0.198211 0.987091 0.580634
9976 1 0.209323 0.974115 0.579252
2009 3 0.202462 0.981313 0.577935
6283 1 0.20802 0.973629 0.598442
20415 1 0.206066 0.971781 0.598042
2010 1 0.207443 0.976042 0.578757
15753 1 0.218275 0.987688 0.593499
6284 3 0.213001 0.979907 0.599095
6285 1 0.216714 0.985546 0.595242
15751 1 0.229447 0.995665 0.590648
15752 3 0.222998 0.991326 0.590519
3559 1 0.233427 0.979362 0.570203
3560 3 0.240369 0.979797 0.573899
3561 1 0.242148 0.979902 0.582447
19725 1 0.242791 0.98001 0.585309
19724 3 0.244102 0.98179 0.592962
10725 1 0.231012 0.971198 0.600554
19723 1 0.248371 0.98486 0.59913
3269 2 0.26491 0.990693 0.577056
3268 1 0.266079 0.98472 0.581652
2156 3 0.266868 0.975201 0.588847
2157 1 0.268178 0.974692 0.595835
2155 1 0.266772 0.982126 0.583467
14074 1 0.268153 0.973936 0.598737
15254 3 0.143358 0.0196138 0.621586
2069 3 0.154067 0.00510589 0.607159
21106 1 0.151683 5.52696e-05 0.627551
15253 1 0.143748 0.0136105 0.625577
15255 1 0.142904 0.0265197 0.619997
16384 1 0.142844 0.0296391 0.619532
21108 1 0.144108 0.0110972 0.627592
2070 1 0.158499 0.0123046 0.6064
11194 1 0.160322 0.0154749 0.606278
11195 3 0.16438 0.0224877 0.605074
10425 1 0.171872 0.0116835 0.62648
10424 3 0.163855 0.0129728 0.624314
10423 1 0.159407 0.0138392 0.618496
13491 1 0.174908 0.0105159 0.627532
13490 3 0.181875 0.00791176 0.630428
14770 1 0.183594 0.0077042 0.608633
10716 1 0.183549 0.0102565 0.60967
14771 3 0.184086 0.000372094 0.606426
10715 3 0.184677 0.0178378 0.613089
4209 1 0.202844 0.00166726 0.613248
4208 3 0.207502 0.00749718 0.608861
6673 1 0.215437 0.0138507 0.606406
4207 1 0.213038 0.0121175 0.607048
2683 1 0.209734 0.0212036 0.628592
11412 1 0.209961 0.0241213 0.627579
2684 3 0.210379 0.0133652 0.630436
10714 1 0.189337 0.0240842 0.611409
4046 3 0.190101 0.0281045 0.630853
20460 1 0.19132 0.0265218 0.611004
6674 3 0.22133 0.0183117 0.604811
10124 3 0.237895 0.0146936 0.617395
10125 1 0.238727 0.0221738 0.619925
10123 1 0.235511 0.00825058 0.614663
10105 1 0.234628 0.00525455 0.614024
16513 1 0.26486 0.0107705 0.626344
843 1 0.263311 0.00913551 0.624317
16514 3 0.269792 0.0153219 0.630021
842 3 0.260594 0.00608796 0.617777
17384 2 0.315599 0.00587868 0.612236
17385 1 0.323387 0.0083553 0.611241
557 3 0.15228 0.0524521 0.625625
16385 3 0.14316 0.0379163 0.618328
16386 1 0.146222 0.0446117 0.621195
556 1 0.148348 0.047081 0.622227
11196 1 0.166693 0.030365 0.604943
13369 1 0.167744 0.0332205 0.605075
13370 3 0.169816 0.0414764 0.605493
13371 1 0.169928 0.0490033 0.607309
1048 1 0.170141 0.0520379 0.608427
1049 3 0.169904 0.0598771 0.612507
7790 2 0.169623 0.0406287 0.631011
558 1 0.158381 0.0576934 0.625793
7789 1 0.174462 0.0396774 0.624533
11411 3 0.211346 0.0312624 0.626657
11410 1 0.211769 0.038282 0.631457
13500 1 0.208906 0.0558662 0.604957
13499 3 0.202327 0.0578059 0.601039
2200 1 0.211462 0.0549989 0.606344
20459 3 0.195446 0.0333619 0.609904
20458 1 0.197443 0.0412605 0.609017
7682 3 0.199444 0.0531778 0.621474
7683 1 0.201804 0.0541302 0.613749
2201 3 0.21715 0.0508996 0.6105
16734 1 0.19435 0.0495678 0.63122
7681 1 0.195945 0.0503493 0.628492
8842 1 0.246998 0.0588325 0.607641
14323 1 0.249952 0.0570764 0.606803
8089 1 0.237353 0.0360471 0.618754
8090 3 0.231413 0.0407191 0.616361
2202 1 0.22232 0.0471358 0.61307
8091 1 0.22486 0.0450418 0.614012
14324 2 0.257329 0.054446 0.604052
9553 1 0.163079 0.0857631 0.612869
6651 1 0.162797 0.0884179 0.612003
1050 1 0.168374 0.0672113 0.612871
9555 1 0.167469 0.0705566 0.613223
9554 3 0.16486 0.077965 0.615614
10854 1 0.183123 0.0701854 0.63051
9064 1 0.180209 0.0697965 0.630851
10853 3 0.190866 0.0719996 0.629045
1999 1 0.204675 0.0796186 0.609736
7626 1 0.205748 0.0790615 0.612044
10852 1 0.197779 0.0740996 0.62401
7624 1 0.200419 0.0743069 0.622459
7625 3 0.20635 0.0747023 0.618633
2000 2 0.200346 0.0809946 0.603631
8843 3 0.240346 0.0624199 0.610308
21451 1 0.233767 0.0685758 0.603984
8844 1 0.235711 0.0669083 0.606079
10458 1 0.169022 0.105184 0.610826
10457 3 0.173749 0.111128 0.609661
10456 1 0.181186 0.112643 0.606995
7125 1 0.183655 0.112867 0.606245
6650 2 0.162986 0.0955176 0.610121
6649 1 0.167346 0.103161 0.610661
7124 2 0.190552 0.11114 0.605281
7123 1 0.195112 0.105141 0.606332
209 3 0.170297 0.860123 0.608668
208 1 0.173738 0.85458 0.603725
1079 3 0.167197 0.863757 0.626125
1078 1 0.167873 0.863103 0.618319
210 1 0.168322 0.862558 0.615885
10530 1 0.109153 0.886953 0.613775
10529 2 0.114547 0.892794 0.613482
10528 1 0.118573 0.897629 0.618976
7243 1 0.12005 0.899749 0.620924
7244 2 0.123486 0.904524 0.625605
13054 1 0.133032 0.905394 0.629208
7245 1 0.129813 0.905608 0.627825
14818 1 0.137813 0.901283 0.604684
1708 1 0.13835 0.903278 0.60631
21335 3 0.177833 0.908314 0.603892
21482 3 0.157685 0.893676 0.602736
21483 1 0.162865 0.892611 0.608933
20400 1 0.165097 0.892036 0.611136
20399 3 0.169687 0.891981 0.618087
20398 1 0.173974 0.897967 0.621649
18777 1 0.175695 0.900348 0.622444
18776 3 0.18054 0.906597 0.625182
2593 1 0.183322 0.8825 0.629593
12015 1 0.180689 0.88222 0.631046
5935 1 0.214145 0.897454 0.618658
5936 3 0.217628 0.900521 0.612904
17026 1 0.204112 0.888651 0.604481
17027 3 0.196451 0.890567 0.601559
2595 1 0.198871 0.88445 0.625768
8937 1 0.202111 0.884011 0.625336
2594 3 0.191133 0.885465 0.627071
18775 1 0.188149 0.905857 0.628943
12522 1 0.190634 0.90545 0.629802
8936 3 0.20973 0.883969 0.626155
12521 3 0.198768 0.904337 0.631282
8935 1 0.214418 0.884356 0.631017
5937 1 0.219429 0.90763 0.608871
4166 3 0.248593 0.899166 0.605882
4167 1 0.248546 0.899696 0.614022
14131 1 0.248414 0.900321 0.61767
14132 3 0.247742 0.900701 0.625333
14133 1 0.243076 0.902552 0.631227
8688 1 0.263912 0.908008 0.625727
14837 2 0.289597 0.899783 0.624828
14838 1 0.295559 0.901012 0.621152
19819 1 0.284827 0.909007 0.630731
14836 1 0.286405 0.907021 0.628895
8955 1 0.0882422 0.937404 0.614135
4666 1 0.0992955 0.916789 0.628567
19195 1 0.10398 0.928218 0.625031
19196 2 0.10769 0.930477 0.631323
1709 3 0.139704 0.910864 0.609349
1710 1 0.136253 0.916369 0.605106
2405 3 0.153953 0.928562 0.629303
2404 1 0.156443 0.93079 0.621207
5057 3 0.132265 0.936969 0.603798
5058 1 0.132608 0.937741 0.611913
20676 1 0.132809 0.93833 0.614596
3889 1 0.157092 0.912996 0.622673
21334 1 0.184567 0.909475 0.606805
8832 1 0.187618 0.90966 0.608513
3891 1 0.166364 0.919322 0.611627
3890 3 0.161939 0.9143 0.616013
2014 1 0.157714 0.932695 0.61888
2015 3 0.161703 0.937681 0.612411
19270 1 0.175708 0.920537 0.612613
19271 3 0.180261 0.926128 0.616793
19272 1 0.18575 0.926615 0.622027
8368 1 0.187695 0.927272 0.623864
8831 3 0.195839 0.910295 0.611272
8369 3 0.192282 0.928541 0.63044
8830 1 0.202093 0.913855 0.614083
21237 1 0.204241 0.915413 0.615544
21236 3 0.210502 0.919504 0.619372
21235 1 0.207581 0.925199 0.614985
14691 1 0.206179 0.927453 0.612871
14690 3 0.202962 0.930585 0.607465
14689 1 0.204999 0.934139 0.601121
18334 1 0.223591 0.928026 0.608342
18335 3 0.224411 0.935459 0.612236
15075 1 0.220295 0.910797 0.607304
1636 1 0.247988 0.921952 0.60658
7855 1 0.245997 0.92186 0.609528
15074 3 0.222227 0.917183 0.604087
15073 1 0.223497 0.925394 0.607253
7856 3 0.241457 0.922353 0.616981
7857 1 0.236296 0.925291 0.622009
880 1 0.234576 0.927038 0.623816
1395 1 0.220109 0.938343 0.631418
881 3 0.229969 0.93107 0.630006
19202 3 0.278389 0.912223 0.607942
19203 1 0.273677 0.91579 0.613543
12691 1 0.26744 0.925369 0.621347
8686 1 0.266082 0.922211 0.621397
8687 3 0.262605 0.914568 0.621822
12692 3 0.268819 0.934203 0.621609
8953 1 0.0897674 0.949023 0.624363
8954 2 0.0909619 0.940975 0.621131
20132 2 0.0820887 0.963692 0.627345
20131 1 0.0894658 0.965109 0.624971
17955 1 0.0925253 0.966296 0.623925
19715 2 0.116931 0.948686 0.631224
19716 1 0.123539 0.946527 0.627774
17954 2 0.099311 0.969154 0.620755
14743 1 0.124319 0.961146 0.629284
20048 3 0.127514 0.958696 0.604754
20674 1 0.126166 0.945174 0.626346
14744 3 0.130926 0.964368 0.629441
20675 3 0.132463 0.941155 0.622311
211 1 0.149836 0.954275 0.619747
13633 1 0.148416 0.953613 0.617072
13634 3 0.14487 0.954458 0.609792
13635 1 0.13786 0.956739 0.607817
20049 1 0.134814 0.957276 0.606706
212 3 0.153306 0.955487 0.627413
13423 1 0.136656 0.969585 0.621991
14745 1 0.134924 0.968459 0.623999
2246 3 0.166819 0.952319 0.601337
9207 1 0.18408 0.943331 0.606147
9583 1 0.183775 0.944861 0.608946
9584 3 0.182494 0.947787 0.616334
16135 1 0.177988 0.956043 0.601644
2247 1 0.174695 0.955107 0.60172
7507 1 0.179064 0.944905 0.625927
9585 1 0.180209 0.945669 0.623523
2016 1 0.162808 0.943342 0.607019
2245 1 0.163522 0.945527 0.605222
14582 3 0.170023 0.967939 0.615492
6400 1 0.173995 0.967825 0.62656
14581 1 0.173483 0.968147 0.623845
14583 1 0.165373 0.962034 0.613372
1394 3 0.212344 0.942064 0.630978
18636 1 0.189145 0.949095 0.626387
4183 1 0.217906 0.944255 0.610402
4184 3 0.213867 0.951561 0.609149
4185 1 0.215688 0.958113 0.612457
10734 1 0.215654 0.96083 0.614381
10733 3 0.215874 0.966986 0.619262
7382 3 0.194168 0.968806 0.616648
18336 1 0.219594 0.941721 0.610855
3063 1 0.240729 0.950105 0.625886
17913 1 0.243428 0.939574 0.603827
20182 1 0.245548 0.939664 0.606286
20184 1 0.249936 0.941053 0.619835
20183 3 0.250109 0.941341 0.611716
19777 1 0.249739 0.940951 0.622704
19778 3 0.250336 0.941133 0.630874
10732 1 0.220362 0.968499 0.625784
4867 1 0.222114 0.969208 0.62793
3061 1 0.233953 0.951185 0.614453
3062 3 0.233039 0.951753 0.622079
2182 1 0.250177 0.964163 0.612158
2183 3 0.249975 0.966816 0.619595
2269 1 0.250311 0.963376 0.609383
2184 1 0.248807 0.968067 0.627615
7615 1 0.249067 0.967927 0.630337
2270 3 0.251431 0.960906 0.601404
17724 1 0.267628 0.944943 0.625427
12693 1 0.267817 0.942086 0.624732
17723 3 0.267384 0.953147 0.627424
17722 1 0.268478 0.959148 0.631496
8783 3 0.295243 0.946397 0.630257
8782 1 0.298101 0.949675 0.622954
3328 1 0.29878 0.951721 0.620352
3329 3 0.299869 0.956955 0.614547
3330 1 0.300776 0.963135 0.61017
6952 1 0.300952 0.966168 0.608055
17953 1 0.10257 0.97611 0.618158
12783 1 0.103616 0.978603 0.617196
12781 1 0.113631 0.985749 0.607666
11734 1 0.115663 0.985804 0.605003
12782 3 0.108 0.985112 0.61393
2068 1 0.14884 0.998783 0.608214
11992 1 0.147134 0.996358 0.608346
11993 3 0.140675 0.990382 0.609552
11994 1 0.14021 0.983427 0.612574
13425 1 0.140179 0.981282 0.613279
13424 3 0.140419 0.973725 0.616297
8224 1 0.153205 0.998246 0.626776
12838 1 0.131832 0.999985 0.630857
3529 1 0.178385 0.994851 0.621103
3531 1 0.167228 0.98881 0.623438
8226 1 0.164367 0.989272 0.623425
3530 3 0.174237 0.988312 0.621352
8225 3 0.157308 0.991408 0.624874
14772 1 0.186019 0.992616 0.605536
11035 1 0.186669 0.989915 0.605021
7383 1 0.195962 0.969946 0.625407
3885 1 0.196392 0.970545 0.628314
11036 3 0.188609 0.982576 0.603165
11037 1 0.191487 0.976023 0.609786
7381 1 0.192239 0.973877 0.611468
5068 1 0.205702 0.989744 0.623182
18972 1 0.202509 0.989759 0.623696
5069 3 0.213984 0.988915 0.621864
18971 3 0.194973 0.990856 0.624458
18970 1 0.191757 0.989188 0.631414
5070 1 0.220938 0.993126 0.617948
9396 1 0.23162 0.973565 0.602301
7722 1 0.250168 0.986066 0.601379
10106 3 0.231719 0.997768 0.613436
9395 3 0.231392 0.979443 0.607067
9394 1 0.230732 0.986848 0.610223
10107 1 0.231007 0.989917 0.61098
18385 1 0.241178 0.99296 0.631123
18386 3 0.24418 0.986161 0.629635
14075 3 0.270071 0.973059 0.607462
4271 3 0.271271 0.983669 0.621826
4270 1 0.271555 0.978797 0.616342
14076 1 0.271457 0.976791 0.614156
7721 3 0.254459 0.989202 0.608095
7720 1 0.256374 0.997439 0.611591
841 1 0.257101 0.999948 0.613216
4272 1 0.26867 0.987055 0.628455
10440 1 0.267977 0.988356 0.6309
6954 1 0.306745 0.978054 0.603554
6953 3 0.302552 0.971917 0.603217
17745 1 0.30818 0.980507 0.603269
17744 3 0.312606 0.988094 0.603592
17743 1 0.31315 0.993803 0.608165
17383 1 0.313618 0.996698 0.610102
21296 2 0.0773077 0.0247869 0.657437
21295 1 0.0710367 0.020124 0.657667
12840 1 0.117537 0.00732683 0.63287
17692 1 0.0971187 0.0242732 0.660004
12839 3 0.125037 0.00322195 0.632378
19356 1 0.113092 0.00979351 0.655055
14622 1 0.114088 0.010227 0.657823
12552 1 0.123874 0.020244 0.647586
19355 3 0.110479 0.00834496 0.647798
19354 1 0.106893 0.00381793 0.641735
3442 1 0.105743 0.00192398 0.639854
12551 3 0.130535 0.0164156 0.650358
12550 1 0.134859 0.00878073 0.65222
1919 3 0.152444 0.0228719 0.644995
1918 1 0.14708 0.0281729 0.642468
10143 1 0.135313 0.00645456 0.652459
21107 3 0.146011 0.00530814 0.632416
4045 1 0.182599 0.0260367 0.632951
1920 1 0.156534 0.0172437 0.645055
9549 1 0.158527 0.01475 0.644775
9548 3 0.162976 0.00824963 0.644695
9547 1 0.165524 0.00137646 0.642516
612 1 0.174708 0.022714 0.654041
10563 1 0.174806 0.0241501 0.651912
13489 1 0.186684 0.00868538 0.638404
611 3 0.173368 0.0184339 0.660969
2685 1 0.211925 0.00692417 0.633806
5793 1 0.188516 0.00859871 0.641105
13821 1 0.192944 0.0134957 0.657913
19794 1 0.209613 0.0263245 0.65502
5792 3 0.192192 0.0089222 0.648565
5791 1 0.192851 0.0125658 0.655588
12420 1 0.21194 0.00467647 0.635832
5965 1 0.216081 0.0115708 0.660244
19792 1 0.215638 0.0144782 0.660075
19793 3 0.213507 0.0221812 0.65883
5966 3 0.218457 0.00302028 0.660505
7605 1 0.208041 0.0282969 0.653459
3801 1 0.236482 0.0264655 0.635264
15375 1 0.240199 0.0089286 0.639818
15374 3 0.237837 0.0023652 0.636836
3800 3 0.231869 0.029504 0.641608
13435 1 0.247538 0.00634001 0.65301
13436 3 0.242056 0.00983248 0.657334
3799 1 0.232164 0.0299837 0.649766
5073 1 0.232533 0.0301866 0.652701
13437 1 0.235487 0.00815077 0.653237
2188 1 0.27137 0.0260721 0.632286
16515 1 0.271261 0.0230172 0.631782
19863 1 0.262687 0.0238724 0.654501
12469 1 0.261047 0.0238135 0.652011
4491 1 0.262209 0.00278268 0.661332
12470 3 0.257381 0.022948 0.646556
19862 3 0.268063 0.0225556 0.659876
12471 1 0.257907 0.0262345 0.638172
4490 3 0.264076 0.00199446 0.653347
1808 3 0.293364 0.0135016 0.641847
14379 1 0.289102 0.00499512 0.647654
1807 1 0.290295 0.00725836 0.646078
1809 1 0.299498 0.0164418 0.644332
7171 1 0.302399 0.0174872 0.645184
7172 2 0.309114 0.0196522 0.647446
7173 1 0.313281 0.0259795 0.650338
5092 1 0.315105 0.0281377 0.651052
16066 1 0.145154 0.0303588 0.641472
16067 3 0.14073 0.035964 0.638097
351 1 0.139074 0.0431862 0.644032
350 3 0.138772 0.0489126 0.649492
349 1 0.142838 0.0523842 0.655822
16068 1 0.139532 0.0414309 0.64195
17094 1 0.144205 0.0542083 0.657965
821 3 0.151277 0.0355187 0.660583
820 1 0.155255 0.0400844 0.654904
7791 1 0.171499 0.0366427 0.636765
10561 1 0.172459 0.0345914 0.639405
10562 3 0.174169 0.0304761 0.646294
4895 3 0.175494 0.053685 0.649806
9058 1 0.166155 0.0498493 0.648491
4894 1 0.168706 0.0514364 0.648848
4896 1 0.181188 0.0516569 0.645429
16732 1 0.183462 0.0505778 0.643406
9059 3 0.160378 0.0458069 0.647705
9060 1 0.156655 0.0414762 0.652816
7648 1 0.21227 0.0410912 0.632953
4047 1 0.194375 0.0342084 0.63262
16733 3 0.189624 0.0491224 0.638126
7604 3 0.202874 0.0338124 0.649371
7603 1 0.199209 0.0382548 0.654639
6859 1 0.197385 0.03977 0.655813
6860 3 0.193196 0.0454187 0.659631
7649 3 0.213908 0.0467063 0.636829
7650 1 0.217383 0.0468727 0.643725
2421 1 0.218949 0.0468347 0.646783
11941 1 0.248427 0.0575367 0.63458
3631 1 0.25027 0.0547475 0.635464
5072 3 0.233468 0.030438 0.660197
2420 3 0.223232 0.0471043 0.654669
2419 1 0.226442 0.0480782 0.661964
3632 2 0.254749 0.0475648 0.638745
2189 3 0.269479 0.0346114 0.634117
2190 1 0.263918 0.0408261 0.635906
3633 1 0.261612 0.0427374 0.63663
16471 1 0.252422 0.0601347 0.660934
2315 2 0.271075 0.0569185 0.647613
2316 1 0.278099 0.0547136 0.652475
12267 1 0.280468 0.0542715 0.654278
12266 2 0.28655 0.0526713 0.659012
5093 2 0.32054 0.0347741 0.651557
5094 1 0.325145 0.0408465 0.65334
9674 3 0.137687 0.0699265 0.642416
17686 1 0.148705 0.067394 0.642354
9673 1 0.145994 0.0682293 0.642206
17687 3 0.155738 0.0644754 0.642629
7830 1 0.132059 0.0790067 0.641904
7829 2 0.127623 0.0872275 0.642908
9675 1 0.133557 0.0765651 0.641861
9065 3 0.172128 0.0679136 0.633532
17688 1 0.163081 0.0660773 0.639124
9066 1 0.165932 0.0667648 0.637594
5596 1 0.174449 0.0760888 0.655974
6838 1 0.191468 0.066369 0.661847
6840 1 0.199784 0.0706876 0.650804
6839 3 0.193713 0.0698544 0.655297
11892 1 0.20257 0.0706608 0.648864
11890 1 0.216925 0.0719543 0.641971
11891 3 0.210104 0.0703542 0.644457
11942 2 0.2432 0.0630178 0.632359
3078 1 0.219919 0.072563 0.640826
3076 1 0.234318 0.0691186 0.633758
11943 1 0.237086 0.067348 0.633328
3077 2 0.227474 0.0732262 0.636615
11873 2 0.219909 0.0884991 0.661572
15215 2 0.253827 0.0644792 0.65078
15214 1 0.252861 0.0607228 0.658356
15216 1 0.261003 0.0627773 0.649132
2314 1 0.264106 0.0616198 0.648679
7828 1 0.124847 0.0950595 0.643681
1405 1 0.193379 0.108003 0.633037
1406 2 0.195589 0.115697 0.632975
1407 1 0.201642 0.120044 0.635365
3156 1 0.203726 0.121548 0.636544
3155 3 0.20977 0.12482 0.638626
715 1 0.206121 0.135393 0.639365
3154 1 0.207164 0.132884 0.639329
716 3 0.203351 0.143692 0.640458
717 1 0.20029 0.150589 0.645369
17210 3 0.10975 0.878218 0.637895
17211 1 0.10825 0.871045 0.640174
17622 1 0.14128 0.876139 0.652412
1080 1 0.17153 0.864021 0.631699
6113 2 0.199107 0.859463 0.643553
6112 1 0.199618 0.868618 0.645534
19957 1 0.200037 0.8715 0.645581
6114 1 0.196073 0.852622 0.641373
4668 1 0.103519 0.903574 0.637145
8125 1 0.105364 0.90129 0.63819
8126 3 0.109673 0.895801 0.641973
8127 1 0.108612 0.888458 0.6405
17209 1 0.108659 0.885303 0.640242
13055 3 0.140051 0.904691 0.632064
13056 1 0.147822 0.905475 0.632617
13092 1 0.1508 0.905876 0.633863
17621 2 0.142858 0.883959 0.652322
12360 1 0.147102 0.89281 0.655558
17620 1 0.145145 0.890338 0.654697
12359 3 0.151315 0.899458 0.656053
12358 1 0.150287 0.908008 0.655179
12013 1 0.173287 0.88106 0.643483
7929 1 0.172749 0.88113 0.646144
7928 3 0.171055 0.881734 0.654101
7927 1 0.169194 0.883192 0.661125
8164 1 0.180222 0.899463 0.651979
16987 1 0.183184 0.897609 0.652179
12014 3 0.174045 0.881485 0.635882
13091 3 0.158193 0.906228 0.637837
13090 1 0.164535 0.905401 0.642554
8166 1 0.166426 0.90452 0.644729
8165 3 0.173546 0.903471 0.649377
16988 3 0.1903 0.89528 0.650887
16989 1 0.193224 0.888641 0.648788
19959 1 0.195873 0.885782 0.647847
19383 1 0.213626 0.903479 0.647641
10651 1 0.213078 0.903664 0.650703
19958 3 0.200989 0.879194 0.645919
9729 1 0.21627 0.884137 0.633014
12520 1 0.205675 0.904155 0.634956
19381 1 0.2086 0.904324 0.636076
19382 3 0.214939 0.903926 0.639358
10652 3 0.212456 0.903595 0.658052
3753 1 0.241528 0.90396 0.633613
9727 1 0.225164 0.88591 0.646202
15621 1 0.226325 0.887031 0.647923
9728 3 0.220848 0.882893 0.63901
15620 3 0.231735 0.890206 0.654073
15619 1 0.239808 0.889135 0.65225
3752 3 0.236857 0.905771 0.639851
11332 1 0.243244 0.88826 0.651214
21377 3 0.247797 0.908539 0.65922
20682 1 0.274452 0.888572 0.645312
20681 3 0.272661 0.896435 0.644099
11333 3 0.251027 0.887789 0.64969
11334 1 0.252853 0.889002 0.657527
8949 1 0.253707 0.889276 0.660178
20680 1 0.267362 0.901593 0.646113
4633 1 0.265683 0.903917 0.646732
4667 2 0.0989902 0.90952 0.633218
19197 1 0.108435 0.929603 0.638904
19555 1 0.108954 0.929769 0.641244
19556 3 0.112098 0.928852 0.648396
19557 1 0.118617 0.924928 0.653358
6303 1 0.121126 0.923958 0.65542
17388 1 0.149925 0.911111 0.654841
2406 1 0.147049 0.930472 0.633288
17387 3 0.149707 0.918915 0.653971
20491 1 0.144419 0.931189 0.635191
20492 3 0.138798 0.932508 0.639189
17386 1 0.147962 0.926172 0.652955
6302 3 0.127847 0.921723 0.659967
3964 1 0.143295 0.929788 0.659249
3965 3 0.14525 0.938282 0.658618
14285 3 0.168408 0.930421 0.647616
3985 1 0.168819 0.930999 0.65812
14284 1 0.168472 0.93112 0.655214
8531 3 0.185262 0.915586 0.660806
14286 1 0.170905 0.934224 0.64094
7509 1 0.171732 0.936215 0.638192
8532 1 0.189672 0.90962 0.659633
8370 1 0.199527 0.927587 0.635123
21231 1 0.202213 0.927153 0.637241
21230 3 0.208291 0.926277 0.643154
21229 1 0.215831 0.923184 0.642836
20434 1 0.208811 0.934267 0.653161
882 1 0.223163 0.936345 0.631735
3751 1 0.233105 0.911948 0.6452
5599 1 0.232026 0.913769 0.646777
5600 3 0.228964 0.919294 0.651053
8235 1 0.227836 0.929923 0.649859
5601 1 0.227806 0.927375 0.650107
17310 1 0.246382 0.934176 0.658841
1861 1 0.219819 0.925561 0.661494
11893 1 0.247402 0.934689 0.655821
11894 3 0.250029 0.936461 0.648305
8234 3 0.227382 0.937028 0.649856
19779 1 0.249811 0.939283 0.637437
11895 1 0.250102 0.938416 0.640643
4634 3 0.26209 0.911018 0.649883
7233 1 0.273719 0.922397 0.640028
21378 1 0.254086 0.910763 0.654273
4635 1 0.255919 0.910786 0.653031
7232 3 0.268406 0.929091 0.643043
7231 1 0.268886 0.936689 0.646246
16108 1 0.268655 0.9393 0.647457
19821 1 0.275828 0.919465 0.638766
19820 3 0.281127 0.914872 0.634522
20689 1 0.264467 0.931864 0.657369
9450 1 0.290222 0.937046 0.654449
4600 1 0.289858 0.933822 0.655183
4602 1 0.287681 0.917574 0.656783
4601 3 0.288485 0.925563 0.656816
1889 2 0.0810803 0.966327 0.645173
1890 1 0.0805785 0.965555 0.637394
20133 1 0.0807969 0.965211 0.634908
1888 1 0.0769683 0.965554 0.651694
19714 1 0.108746 0.950148 0.633013
6129 1 0.105933 0.950524 0.633966
6128 2 0.0982157 0.952289 0.636353
15572 2 0.0948407 0.943386 0.650995
6127 1 0.0956988 0.948963 0.641996
15571 1 0.0951327 0.947399 0.644849
3754 1 0.103494 0.942233 0.659275
15573 1 0.101366 0.942733 0.657535
16130 3 0.122491 0.962291 0.651139
16131 1 0.124663 0.964465 0.657702
20493 1 0.13784 0.940288 0.640703
13334 3 0.13472 0.950201 0.642928
13335 1 0.137448 0.942913 0.641064
11342 3 0.143309 0.965345 0.652159
13333 1 0.129974 0.954612 0.646871
16129 1 0.127799 0.956735 0.648272
213 1 0.155942 0.953151 0.634792
11341 1 0.14236 0.957244 0.650914
18507 1 0.125676 0.96498 0.660714
3966 1 0.138671 0.94086 0.660857
7508 3 0.175294 0.941386 0.632574
6401 3 0.175644 0.968228 0.634178
18607 1 0.156979 0.952478 0.637538
18608 3 0.159866 0.951567 0.644188
1390 1 0.164378 0.953293 0.655436
18609 1 0.163027 0.953152 0.652497
6402 1 0.179957 0.965846 0.64033
11871 1 0.181767 0.964244 0.642883
11870 3 0.183999 0.960347 0.649026
11869 1 0.1853 0.9528 0.652827
12337 1 0.185756 0.950055 0.654018
12338 3 0.186426 0.942469 0.656401
18634 1 0.203938 0.948598 0.63308
1393 1 0.20619 0.947396 0.632935
18635 3 0.195533 0.95067 0.632683
20435 3 0.207664 0.940764 0.657336
3883 1 0.201129 0.967074 0.641547
3127 1 0.202106 0.965637 0.643938
3128 3 0.204268 0.961596 0.650711
3129 1 0.210731 0.957688 0.647955
12352 1 0.213393 0.956393 0.646934
12354 1 0.222717 0.946397 0.648284
8233 1 0.22421 0.943645 0.649026
12353 3 0.219698 0.953635 0.644994
7616 3 0.248811 0.967194 0.638614
11490 1 0.249361 0.96548 0.648757
7617 1 0.248854 0.966037 0.646122
11489 3 0.250204 0.963795 0.656591
8512 1 0.269197 0.961143 0.633516
8513 3 0.271596 0.966347 0.63938
16109 3 0.268286 0.946163 0.651448
7634 3 0.279979 0.964956 0.661791
11488 1 0.255607 0.966924 0.660612
16110 1 0.264068 0.948434 0.659182
11655 1 0.263121 0.948863 0.661906
8784 1 0.29097 0.942693 0.635961
9449 3 0.29126 0.944188 0.652033
9448 1 0.295799 0.949752 0.651992
20155 1 0.297455 0.952251 0.652676
20156 3 0.300537 0.959349 0.654317
5805 1 0.303192 0.969473 0.655157
20157 1 0.302323 0.966699 0.654564
3443 3 0.102263 0.995674 0.635385
3444 1 0.108584 0.99051 0.636542
18697 1 0.110931 0.98885 0.636844
18698 3 0.117684 0.984354 0.637856
21240 1 0.117167 0.991592 0.653288
21239 3 0.1149 0.990214 0.661177
10142 3 0.137329 0.99905 0.65252
15329 3 0.138125 0.983343 0.637494
15328 1 0.145919 0.978987 0.637876
15330 1 0.12977 0.984178 0.637787
18699 1 0.126145 0.984183 0.637743
11937 1 0.143018 0.990329 0.656429
10141 1 0.141358 0.992683 0.655356
11935 1 0.144899 0.975548 0.655896
11343 1 0.144079 0.972575 0.654815
4684 1 0.148524 0.977577 0.637694
4685 3 0.155828 0.975112 0.637802
11936 3 0.146084 0.983893 0.658558
11617 1 0.166377 0.998844 0.642409
3254 3 0.167262 0.974212 0.654014
3255 1 0.162775 0.974089 0.647145
4686 1 0.160419 0.974424 0.644895
11619 1 0.176508 0.988801 0.641706
11618 3 0.168741 0.990141 0.642132
2848 1 0.178964 0.988456 0.641916
2849 3 0.186674 0.987201 0.642356
4793 3 0.183634 0.994093 0.660824
3253 1 0.173548 0.973871 0.659107
21301 1 0.175933 0.973809 0.66083
12419 3 0.213634 0.997443 0.640941
3884 3 0.197634 0.970921 0.636176
2850 1 0.190846 0.988646 0.634904
12759 1 0.208724 0.990771 0.649678
12758 3 0.203776 0.987096 0.654046
12418 1 0.210201 0.992577 0.647196
12757 1 0.204795 0.98151 0.659269
13894 1 0.204547 0.979421 0.661459
15373 1 0.239894 0.995632 0.63236
4868 3 0.226679 0.969843 0.634061
4869 1 0.228346 0.971156 0.641654
15226 1 0.228998 0.971779 0.644541
15227 3 0.229935 0.97248 0.652864