ITEM: TIMESTEP
40000000
ITEM: NUMBER OF ATOMS
7173
ITEM: BOX BOUNDS pp pp pp
0.0000000000000000e+00 5.0000000000000000e+01
0.0000000000000000e+00 5.0000000000000000e+01
0.0000000000000000e+00 5.0000000000000000e+01
ITEM: ATOMS id type xs ys zs
14893 1 0.277335 0.00180634 0.0290826
14894 3 0.27323 0.00725059 0.0316316
6689 3 0.347921 0.0129588 0.0181508
5458 1 0.346064 0.0024063 0.0212117
6688 1 0.349875 0.0191174 0.0137609
6690 1 0.346848 0.00549419 0.0204356
10073 2 0.724347 0.0246181 0.00363036
10072 1 0.720352 0.0314014 0.00826479
18337 1 0.856966 0.00241346 0.0154169
17977 1 0.56726 0.0317836 0.0187202
17978 3 0.565615 0.0326592 0.026309
17948 3 0.715312 0.039059 0.0139721
17947 1 0.710499 0.0393016 0.0199614
17949 1 0.719041 0.0333461 0.00975744
12640 1 0.863338 0.0628749 0.0262582
12642 1 0.849352 0.0587584 0.0297334
12641 3 0.856089 0.0604736 0.0254878
4432 1 0.700869 0.0674382 0.0261624
14687 3 0.187406 0.0995522 0.016136
14686 1 0.182708 0.096142 0.00875671
14688 1 0.190714 0.0988313 0.0230995
15580 1 0.255056 0.125712 0.0102066
15581 3 0.260987 0.130957 0.00631374
15582 1 0.265864 0.133542 0.00123281
8601 1 0.393218 0.151781 0.0105473
8600 3 0.387342 0.157161 0.00727674
4674 1 0.443815 0.15371 0.00664722
3705 1 0.836517 0.157216 0.0298859
8599 1 0.379691 0.160716 0.00502486
4673 2 0.439388 0.159226 0.00214205
9366 1 0.774149 0.170568 0.00117625
9365 2 0.778056 0.177505 0.00406964
9364 1 0.783418 0.178007 0.00893382
3719 2 0.949532 0.168033 0.00203761
3720 1 0.956065 0.165831 0.00536679
2731 1 0.958144 0.16529 0.00718459
2732 3 0.963711 0.16285 0.0121538
2733 1 0.969656 0.164724 0.0156354
8315 2 0.112699 0.217 0.0142223
8316 1 0.105082 0.216119 0.0139152
8314 1 0.121327 0.217165 0.0112985
17056 1 0.441695 0.207984 0.00479424
5528 2 0.642878 0.199321 0.00923074
5529 1 0.642643 0.2071 0.0122126
5527 1 0.642651 0.191482 0.011322
20800 1 0.642721 0.210073 0.0131625
20801 3 0.641387 0.217312 0.0155566
20802 1 0.643106 0.218065 0.0240868
16427 2 0.962537 0.208902 0.00290804
16426 1 0.960395 0.215687 0.00272027
15889 1 0.959324 0.218191 0.00224366
7653 1 0.147263 0.225026 0.014728
10200 1 0.14962 0.226055 0.0129525
7652 2 0.14224 0.223293 0.0212923
19215 1 0.14816 0.22637 0.030103
7651 1 0.146226 0.22493 0.0276165
10199 3 0.155099 0.229726 0.00920547
10198 1 0.153559 0.236326 0.00416176
4069 1 0.427852 0.246518 0.0313648
16169 3 0.602578 0.268824 0.0313211
16168 1 0.610359 0.271427 0.0304523
7963 1 0.851658 0.274723 0.00568838
7964 3 0.857136 0.280239 0.0053813
9342 1 0.960185 0.269557 0.0199266
9341 3 0.956262 0.265366 0.0147287
9340 1 0.957284 0.266788 0.00725956
6061 1 0.957786 0.267123 0.00441681
8746 1 0.0867418 0.327317 0.00536371
8748 1 0.0955213 0.338628 0.0130866
8747 2 0.0916186 0.332344 0.0102815
1968 1 0.0600895 0.375104 0.0231032
16448 2 0.0582273 0.409344 0.0288071
16447 1 0.0592791 0.406378 0.0215793
1966 1 0.0544087 0.385501 0.023457
1967 2 0.0621815 0.382647 0.0260302
5097 1 0.201988 0.393926 0.00671501
17590 1 0.294241 0.404961 0.0270669
3093 1 0.551425 0.402541 0.0129024
3091 1 0.559297 0.401239 0.0265218
3092 3 0.554433 0.40137 0.0201492
5907 1 0.561751 0.401359 0.0285016
4232 3 0.945858 0.407418 0.0155213
4233 1 0.941574 0.401505 0.0193049
14672 2 0.528285 0.443262 0.0104636
14671 1 0.531425 0.436679 0.00953975
20499 1 0.938795 0.434381 0.00741721
4231 1 0.945493 0.415811 0.0140589
20498 3 0.940922 0.426902 0.00904221
20497 1 0.944301 0.419175 0.0127363
2548 1 0.0324981 0.465299 0.0276156
2549 2 0.036345 0.472802 0.027659
13854 1 0.0967204 0.456761 0.00839733
13853 2 0.0979512 0.455707 8.49362e-05
17305 1 0.364596 0.465111 0.00311075
14673 1 0.525023 0.449882 0.0126127
8540 2 0.580457 0.461774 0.0294141
8541 1 0.583201 0.459182 0.0219904
7147 1 0.860078 0.460064 0.0295332
7956 1 0.933223 0.460543 0.0137635
7955 3 0.940777 0.464652 0.0144084
7954 1 0.942453 0.463901 0.00763723
1188 1 0.9918 0.444027 4.96375e-05
10803 1 0.991428 0.460565 0.00972343
10802 2 0.993699 0.453914 0.00668453
10801 1 0.992077 0.446575 0.00181772
2550 1 0.0354837 0.480901 0.0268614
13878 1 0.329814 0.484611 0.0267428
13876 1 0.342044 0.486195 0.0199539
13877 2 0.335643 0.482232 0.0215163
6937 1 0.784178 0.494844 0.00510102
6939 1 0.796282 0.494469 0.000834344
6938 2 0.789923 0.499233 0.00577388
15717 1 0.89686 0.487816 0.00678366
15716 3 0.893992 0.492799 0.000709667
14895 1 0.27152 0.00924758 0.038666
2313 1 0.652584 0.0302541 0.0412917
15586 1 0.6531 0.0283355 0.0426647
15587 3 0.65611 0.0235935 0.0480415
15588 1 0.652361 0.0211351 0.054394
19170 1 0.483747 0.0320009 0.0612475
19169 2 0.476263 0.0340792 0.0595267
19168 1 0.468755 0.0375506 0.0599914
17979 1 0.566516 0.0323996 0.0347609
2311 1 0.654906 0.0417579 0.0378229
2312 3 0.649862 0.0357204 0.0361209
7528 1 0.65674 0.0441697 0.0382488
7529 2 0.661413 0.0499137 0.0407178
7530 1 0.660089 0.0566861 0.0386049
21110 3 0.639658 0.0512687 0.0612848
16516 1 0.679335 0.0541788 0.0578648
7692 1 0.680536 0.0554616 0.0548133
7690 1 0.690277 0.0607551 0.0413864
4434 1 0.692757 0.0615194 0.0393076
7691 3 0.684539 0.0579371 0.0469108
4433 2 0.697781 0.0638148 0.0333346
9387 1 0.86822 0.0739684 0.0460649
9386 2 0.862116 0.0678502 0.0471607
9385 1 0.855494 0.0643753 0.0509156
11673 1 0.969653 0.0663242 0.0616874
1567 1 0.628791 0.0997931 0.0582572
9401 2 0.87678 0.11392 0.060612
9400 1 0.87648 0.116489 0.0537998
15856 1 0.273622 0.146748 0.047137
14088 1 0.273669 0.146393 0.0500644
14087 2 0.275618 0.144778 0.0572323
8896 1 0.298987 0.151113 0.0472155
15858 1 0.274652 0.153446 0.0336733
15857 2 0.27479 0.148632 0.039736
8897 2 0.298956 0.152013 0.0541118
14214 1 0.30506 0.146533 0.0623631
8898 1 0.303092 0.147894 0.0599308
4886 3 0.862169 0.155749 0.0335012
3703 1 0.850996 0.157332 0.034581
4885 1 0.854472 0.156834 0.0344706
4887 1 0.868853 0.152223 0.0366302
3727 1 0.871082 0.150745 0.0375692
3728 2 0.876795 0.145396 0.0410383
3729 1 0.881664 0.138631 0.0422337
18514 1 0.909864 0.132289 0.0623746
18515 3 0.915719 0.13808 0.0618907
11065 1 0.96595 0.157261 0.0621654
14186 3 0.70291 0.182961 0.0593691
14185 1 0.702192 0.189741 0.0541304
3704 3 0.842787 0.158786 0.0339469
21557 3 0.953088 0.182176 0.0630311
21558 1 0.949375 0.183211 0.0560812
11066 3 0.972921 0.161486 0.0602578
11067 1 0.979607 0.161273 0.0565681
8606 2 0.143728 0.199213 0.0443675
8605 1 0.138151 0.192853 0.043296
8607 1 0.150792 0.203559 0.0435634
11915 3 0.168218 0.200169 0.0428348
11916 1 0.165051 0.20063 0.034644
11914 1 0.172556 0.196211 0.0472547
2835 1 0.633955 0.201919 0.0371008
2834 2 0.640436 0.203549 0.0432104
10510 1 0.656142 0.219204 0.0529963
10512 1 0.64608 0.209462 0.0498798
2833 1 0.644472 0.208037 0.048459
10511 2 0.650509 0.214283 0.0538196
6465 1 0.938059 0.216354 0.0569578
6464 3 0.939225 0.220715 0.0489608
19213 1 0.148974 0.234789 0.0415922
19214 2 0.152425 0.23049 0.0359921
4070 2 0.4353 0.245769 0.0337051
4071 1 0.440143 0.247613 0.0395173
6463 1 0.933694 0.223149 0.0437378
12176 3 0.535234 0.281625 0.0540645
15805 1 0.524319 0.285261 0.0570628
12175 1 0.527181 0.283424 0.0563336
12177 1 0.5411 0.276046 0.0557317
16170 1 0.597095 0.268535 0.0353899
13588 1 0.51496 0.307179 0.0506656
13590 1 0.512252 0.297177 0.0536999
15807 1 0.513514 0.295315 0.0551083
13589 3 0.508679 0.302605 0.0490503
15806 2 0.51788 0.290189 0.0591172
8741 2 0.841696 0.295224 0.0630973
11419 1 0.831891 0.288529 0.0391253
11420 3 0.831878 0.288663 0.0474294
11421 1 0.836148 0.291039 0.0547388
8740 1 0.837575 0.292281 0.0567868
17820 1 0.0902271 0.337159 0.0600537
9071 2 0.501004 0.348704 0.0523159
9072 1 0.505136 0.346968 0.0587676
19054 1 0.506607 0.346165 0.0613237
9070 1 0.498513 0.355412 0.0491539
14943 1 0.16783 0.409251 0.0555297
17591 3 0.295012 0.403014 0.034452
17592 1 0.297473 0.400336 0.0416483
3613 1 0.298887 0.398773 0.0444077
3614 2 0.302301 0.397076 0.0513173
3615 1 0.303901 0.392915 0.0579144
5905 1 0.575314 0.402007 0.0345548
5906 2 0.567879 0.40085 0.0338204
18146 3 0.0491988 0.425547 0.0353223
18147 1 0.0538352 0.418865 0.0328046
16449 1 0.0548512 0.416539 0.0320273
18145 1 0.0479817 0.43323 0.0349363
14942 3 0.175107 0.412482 0.0575448
5649 1 0.181552 0.432375 0.0614392
14941 1 0.182251 0.415635 0.0571295
10701 1 0.0210717 0.45994 0.0620649
10700 3 0.0275972 0.462165 0.0584214
10699 1 0.0286719 0.469922 0.0560802
7431 1 0.20525 0.454884 0.0526596
7430 3 0.21003 0.450519 0.0572741
7429 1 0.216547 0.454448 0.0595959
8539 1 0.579368 0.466845 0.0357226
7148 3 0.866576 0.463695 0.033289
19234 1 0.868971 0.469858 0.0409881
7149 1 0.868015 0.467537 0.0387788
19235 2 0.870375 0.474296 0.0465349
16648 1 0.196128 0.481265 0.0558644
16649 3 0.191612 0.485925 0.0510132
16650 1 0.188484 0.492974 0.0481544
11290 1 0.258036 0.498328 0.03513
11291 2 0.255185 0.505878 0.0382322
9005 2 0.541398 0.477055 0.0581542
9006 1 0.539288 0.480266 0.051115
18915 1 0.752466 0.496232 0.0408791
18914 3 0.754802 0.502386 0.0452607
9801 1 0.759923 0.500103 0.0565045
18913 1 0.758691 0.500457 0.0532523
15262 1 0.854276 0.506884 0.0604627
19236 1 0.873279 0.481258 0.049002
8330 2 0.876077 0.491249 0.0533011
8329 1 0.87464 0.484037 0.0500246
8331 1 0.870453 0.496615 0.0565558
15264 1 0.868393 0.498675 0.0574378
15263 3 0.862752 0.503803 0.05903
812 2 0.0297226 0.0133611 0.074029
811 1 0.0339195 0.00719378 0.0722132
813 1 0.0340258 0.0187796 0.0784911
10433 2 0.493602 0.0292821 0.0794757
10432 1 0.500105 0.0245378 0.0763689
11359 1 0.958123 0.0223174 0.0944561
10434 1 0.489127 0.0351159 0.0805434
2329 1 0.616585 0.0386393 0.0733299
2330 3 0.613098 0.0426691 0.0798975
2331 1 0.60752 0.0495218 0.0807734
21109 1 0.635224 0.0568478 0.0652959
21111 1 0.646302 0.0472515 0.0643508
6697 1 0.664939 0.0473456 0.0662942
6698 2 0.656824 0.0450103 0.0677635
6699 1 0.649005 0.046061 0.0654619
16517 3 0.675433 0.0518085 0.0645009
16518 1 0.66804 0.0483587 0.0652882
3981 1 0.299592 0.0930266 0.0897984
3980 2 0.29529 0.0915489 0.0820858
3979 1 0.289362 0.0949491 0.0787678
20712 1 0.49844 0.0944622 0.0850494
17083 1 0.524466 0.0665273 0.0916897
1569 1 0.636488 0.0912971 0.0676171
15949 1 0.638536 0.0894513 0.0681313
15950 2 0.644389 0.0838019 0.0687137
15951 1 0.652213 0.0834583 0.0668735
9790 1 0.654713 0.083068 0.0663844
9791 3 0.661884 0.0820275 0.0641848
9792 1 0.667782 0.0864339 0.0684085
16186 1 0.669902 0.0876151 0.0697224
16187 3 0.677152 0.0896591 0.0749096
16188 1 0.685345 0.0904472 0.0746602
15381 1 0.688317 0.0907576 0.074362
15380 2 0.696683 0.090203 0.0741718
15379 1 0.701846 0.0938572 0.0800797
11672 3 0.963877 0.0715436 0.0639032
11671 1 0.961084 0.0790437 0.0645443
4026 1 0.960443 0.0821072 0.065133
4025 3 0.959326 0.0889137 0.0660572
4024 1 0.952311 0.0921885 0.0643921
4862 3 0.262006 0.0965382 0.0903193
4861 1 0.269031 0.0975222 0.0867964
8257 1 0.276235 0.103455 0.0690187
8259 1 0.287152 0.0958796 0.077803
8258 3 0.280109 0.0989596 0.0752738
20710 1 0.510669 0.104512 0.0855366
20711 2 0.506266 0.0984093 0.0820543
1568 2 0.630155 0.0954103 0.0648151
8941 1 0.704128 0.0958318 0.0816212
8942 3 0.708093 0.100314 0.0866266
8943 1 0.709793 0.107138 0.0892293
7408 1 0.846667 0.118953 0.0880148
9402 1 0.873487 0.114023 0.0678305
5812 1 0.871908 0.113576 0.0701668
5813 2 0.867569 0.11176 0.0768808
5814 1 0.859823 0.113408 0.0784476
7410 1 0.856812 0.114424 0.0793312
7409 3 0.850371 0.115655 0.0812414
14086 1 0.277211 0.142544 0.0643645
14213 2 0.310313 0.143307 0.066938
14212 1 0.316423 0.136637 0.0655987
15556 1 0.926519 0.130707 0.0873905
18516 1 0.921606 0.140098 0.0674833
15557 3 0.928265 0.130822 0.0781985
15558 1 0.933706 0.135546 0.0736891
10739 3 0.978442 0.138951 0.0732121
10740 1 0.974515 0.141128 0.0670673
10738 1 0.978435 0.134654 0.0804614
18395 3 0.97956 0.132456 0.0917848
18394 1 0.979079 0.133788 0.0836967
3967 1 0.0869385 0.180219 0.0874487
3968 3 0.080375 0.18521 0.0902864
11388 1 0.0896567 0.178186 0.0865737
3969 1 0.0722869 0.186697 0.0927415
11387 3 0.0953003 0.172798 0.0844475
11386 1 0.100733 0.166886 0.082799
12753 1 0.412217 0.183346 0.0818317
12752 3 0.419107 0.186349 0.0849402
12751 1 0.426268 0.188794 0.0863289
4733 3 0.694166 0.177424 0.0751399
4734 1 0.687869 0.173305 0.0766463
4732 1 0.698306 0.179007 0.0686413
14187 1 0.699854 0.179726 0.0661977
21556 1 0.959878 0.178171 0.0648039
13965 1 0.145571 0.19798 0.0926777
9893 2 0.147856 0.2064 0.0731153
9892 1 0.141812 0.209028 0.06702
9894 1 0.154308 0.204456 0.0787167
12817 1 0.190392 0.19366 0.0797198
1440 1 0.208344 0.215574 0.0676124
12818 3 0.196264 0.196098 0.0753998
1438 1 0.201844 0.202445 0.0703415
12819 1 0.200283 0.200408 0.071687
1439 2 0.205566 0.207941 0.0659119
10548 1 0.206696 0.216766 0.0867839
20899 1 0.613058 0.190629 0.0915629
14128 1 0.877972 0.206458 0.0757739
14129 2 0.871407 0.205121 0.0778768
16093 1 0.860371 0.201494 0.0796527
14130 1 0.863314 0.20249 0.0793902
16094 3 0.85257 0.199585 0.0791148
16095 1 0.848762 0.192039 0.0783833
10546 1 0.200026 0.229386 0.0828518
10547 2 0.201773 0.222482 0.0853116
5443 1 0.231479 0.238176 0.0763314
5445 1 0.222023 0.248003 0.0743622
5444 2 0.224884 0.241035 0.0758689
13464 1 0.6028 0.282767 0.0918494
13463 3 0.603597 0.27494 0.0900081
13462 1 0.607764 0.26776 0.0912886
17129 3 0.613627 0.258041 0.095063
17130 1 0.609434 0.264763 0.0921253
12044 3 0.175963 0.285705 0.0911801
12043 1 0.177669 0.286738 0.0845369
17610 1 0.266829 0.313588 0.0816188
2783 3 0.432184 0.287388 0.0936043
2784 1 0.435967 0.292713 0.087229
8742 1 0.842483 0.299387 0.069184
17818 1 0.0990547 0.345026 0.06851
17819 3 0.0924495 0.34405 0.06451
17608 1 0.260673 0.324985 0.0897404
17609 3 0.264946 0.319362 0.0860605
12529 1 0.513825 0.324725 0.0847404
12531 1 0.511045 0.334357 0.0738905
19056 1 0.510154 0.33673 0.0722347
12530 3 0.511751 0.327121 0.0777503
19055 3 0.509423 0.343148 0.0682273
1212 1 0.421123 0.369494 0.09226
1211 3 0.427701 0.364506 0.0906699
1210 1 0.43264 0.3614 0.0853389
15444 1 0.88634 0.356265 0.0951198
5648 3 0.185301 0.43107 0.0683698
5647 1 0.189843 0.430701 0.075057
9043 1 0.469987 0.422266 0.0935623
9045 1 0.476741 0.436164 0.0898674
9044 2 0.475242 0.429311 0.0933851
17337 1 0.331017 0.469404 0.0707574
1239 1 0.417803 0.45457 0.092436
11906 2 0.434684 0.474325 0.0725221
11905 1 0.428554 0.47108 0.0687286
9004 1 0.537914 0.473374 0.0637813
6011 3 0.315237 0.489743 0.073092
6010 1 0.319654 0.483676 0.0723407
15987 1 0.313426 0.501016 0.0755872
6012 1 0.313898 0.49792 0.0753888
17336 2 0.325446 0.47573 0.0689802
17335 1 0.321568 0.481993 0.0715049
21534 1 0.336076 0.496102 0.0898072
21532 1 0.342338 0.487173 0.0786853
21533 2 0.338251 0.490258 0.08411
11907 1 0.437723 0.476114 0.0776026
5473 1 0.546075 0.498184 0.0946463
9799 1 0.757414 0.497374 0.0689889
9800 3 0.762425 0.499119 0.0643284
9356 2 0.0482285 0.01301 0.101603
9355 1 0.0529333 0.00619001 0.103386
9357 1 0.0461777 0.0203021 0.102725
4677 1 0.200424 0.000738083 0.117985
9811 1 0.210564 0.0127961 0.110025
9813 1 0.202144 0.00299861 0.117372
9812 2 0.208338 0.00738714 0.116338
19626 1 0.758048 0.00178935 0.102195
11360 3 0.965337 0.0246357 0.097772
9346 1 0.973173 0.0290866 0.104375
11361 1 0.97064 0.0269724 0.103033
16711 1 0.29726 0.0355583 0.115896
16712 2 0.304935 0.0371363 0.117476
16713 1 0.312456 0.0366542 0.117492
9348 1 0.983855 0.0349591 0.112034
9347 3 0.979104 0.0322876 0.10645
4196 2 0.238781 0.078359 0.11466
4197 1 0.235452 0.07262 0.119404
4195 1 0.244692 0.082777 0.111116
7438 1 0.246779 0.0847956 0.109529
7439 2 0.25172 0.0876708 0.10379
4863 1 0.257018 0.0922687 0.0954626
7440 1 0.255371 0.0906269 0.0979272
17084 2 0.528584 0.0724429 0.0956097
17085 1 0.534091 0.0752237 0.100133
17018 3 0.856836 0.0778046 0.122181
17019 1 0.861134 0.0842938 0.120064
16317 1 0.0741419 0.111517 0.12022
9804 1 0.585362 0.104877 0.126888
6696 1 0.856725 0.125256 0.111817
6695 3 0.854362 0.12652 0.120387
8057 3 0.860719 0.120372 0.102041
8056 1 0.861914 0.112158 0.100644
8058 1 0.857823 0.12432 0.108996
19499 3 0.265619 0.1453 0.108145
19500 1 0.265052 0.151776 0.113545
19498 1 0.270805 0.141798 0.103441
17600 2 0.967971 0.140423 0.123918
2422 1 0.975707 0.131897 0.102739
18396 1 0.976824 0.131939 0.0999596
2423 3 0.973669 0.13006 0.109829
2424 1 0.971551 0.135844 0.114933
17599 1 0.970517 0.13757 0.11707
20900 3 0.615409 0.189009 0.097957
2858 3 0.622985 0.182257 0.113938
2857 1 0.619614 0.186196 0.107225
20901 1 0.618223 0.187512 0.104956
2859 1 0.623923 0.177062 0.120168
15424 1 0.624703 0.17544 0.122972
21600 1 0.937042 0.161519 0.123053
21598 1 0.950532 0.161833 0.115422
21599 3 0.944093 0.164268 0.119204
13964 2 0.150733 0.196275 0.0980754
13963 1 0.156587 0.193731 0.102863
11622 1 0.209246 0.213637 0.125824
3948 1 0.24682 0.221185 0.116838
18960 1 0.61006 0.209882 0.124016
5488 1 0.908271 0.216907 0.108095
5490 1 0.918694 0.206919 0.10655
5489 2 0.915664 0.21482 0.106773
3946 1 0.245407 0.236284 0.111531
3947 2 0.243283 0.228674 0.114961
816 1 0.344247 0.237115 0.120699
815 2 0.351722 0.236971 0.120299
814 1 0.35922 0.234303 0.122253
13867 1 0.431819 0.246979 0.104995
734 2 0.428047 0.271988 0.105256
735 1 0.430252 0.264272 0.105627
733 1 0.429949 0.279332 0.101378
13869 1 0.431189 0.261653 0.105597
13868 2 0.433241 0.254682 0.105479
2782 1 0.430389 0.281504 0.0986293
17128 1 0.619274 0.254054 0.0954472
15013 1 0.752682 0.261814 0.111151
21440 3 0.771566 0.279618 0.121049
21439 1 0.766541 0.27245 0.119026
15015 1 0.764669 0.270296 0.118398
15014 3 0.759994 0.264633 0.113598
12045 1 0.17989 0.286529 0.0975374
12051 1 0.420299 0.308592 0.118969
12050 3 0.426322 0.303966 0.122353
12049 1 0.434201 0.306994 0.118558
18733 1 0.604912 0.309906 0.101789
18735 1 0.591553 0.303749 0.101167
18734 3 0.597003 0.309169 0.100746
18256 1 0.607779 0.309674 0.102136
18257 3 0.615356 0.309821 0.103215
18258 1 0.623692 0.309994 0.101453
21441 1 0.777159 0.285875 0.123624
12738 1 0.779165 0.288145 0.124743
11202 1 0.596644 0.319431 0.115173
11201 3 0.601264 0.324997 0.117031
20122 1 0.618886 0.341064 0.116637
9024 1 0.620068 0.342542 0.118421
11200 1 0.606197 0.329632 0.114617
20124 1 0.608327 0.331671 0.113779
20123 3 0.615069 0.336284 0.111636
9023 2 0.622972 0.347811 0.123507
10189 1 0.996874 0.341255 0.125716
7032 1 0.0609698 0.353953 0.120645
7031 2 0.0633134 0.358281 0.126022
10158 1 0.619292 0.367539 0.0977545
10157 3 0.618225 0.362575 0.10365
10156 1 0.615822 0.363928 0.111141
14735 3 0.629916 0.377986 0.119955
14736 1 0.63292 0.372348 0.124594
1161 1 0.633709 0.37043 0.125746
15443 2 0.886451 0.359904 0.10275
15442 1 0.883377 0.36593 0.105695
4372 1 0.882269 0.3686 0.10637
4374 1 0.886438 0.379777 0.114156
4373 3 0.881453 0.375244 0.108321
10289 3 0.937385 0.368194 0.0955352
10290 1 0.933695 0.363819 0.101052
11319 1 0.931663 0.361968 0.103226
11318 2 0.92716 0.357603 0.107747
11317 1 0.92182 0.355109 0.113584
10288 1 0.945266 0.37014 0.0979573
14779 1 0.302709 0.390031 0.116393
14781 1 0.306212 0.403493 0.122839
14780 2 0.304965 0.396941 0.118252
14734 1 0.628867 0.386104 0.12206
18801 1 0.461874 0.44327 0.126687
18800 3 0.456274 0.439471 0.1211
18799 1 0.454738 0.434102 0.114713
16523 2 0.705641 0.439949 0.125934
16524 1 0.711712 0.438097 0.121887
853 1 0.367505 0.452189 0.115822
855 1 0.379172 0.461895 0.115824
854 3 0.374056 0.455824 0.11398
1237 1 0.414918 0.458748 0.106872
1238 2 0.416285 0.456865 0.0998677
12342 1 0.414281 0.459718 0.109203
12341 2 0.411873 0.464155 0.116039
18714 1 0.411586 0.469658 0.126468
12340 1 0.411345 0.467818 0.123624
7846 1 0.425338 0.460395 0.120218
7848 1 0.438574 0.456284 0.123003
7847 2 0.432535 0.458109 0.117198
14153 3 0.826036 0.459908 0.105733
14152 1 0.828759 0.463464 0.0983823
14154 1 0.822979 0.454733 0.11048
8744 2 0.180949 0.506393 0.104765
6044 3 0.172729 0.484334 0.122329
8743 1 0.180382 0.498145 0.105462
20957 2 0.181497 0.487589 0.105974
20958 1 0.180482 0.495218 0.105673
6043 1 0.176578 0.485314 0.115695
20956 1 0.177577 0.485757 0.113306
5474 2 0.544038 0.504797 0.0982988
5475 1 0.543732 0.504015 0.10696
1000 1 0.830076 0.499495 0.117609
11974 1 0.179683 0.0624415 0.151072
6037 1 0.460346 0.0390784 0.144198
6038 3 0.461136 0.0390983 0.152387
6039 1 0.464544 0.0433599 0.15861
7262 2 0.0103521 0.09473 0.158432
11975 3 0.177864 0.0655332 0.158794
18511 1 0.389522 0.0797957 0.133145
18512 2 0.393648 0.0750231 0.138696
18513 1 0.399364 0.0706024 0.138478
15583 1 0.507701 0.0883201 0.12916
15584 3 0.514002 0.0896264 0.134106
15585 1 0.521124 0.0888592 0.135377
21298 1 0.523899 0.0887743 0.135724
21299 3 0.532133 0.0875701 0.138046
21300 1 0.537481 0.0925532 0.140047
17017 1 0.854453 0.0715815 0.127658
7261 1 0.0153212 0.101874 0.158037
16316 3 0.0716361 0.109238 0.128263
16315 1 0.0772611 0.103394 0.127834
9802 1 0.573168 0.108161 0.132404
10177 1 0.556634 0.109902 0.140849
10178 2 0.564957 0.11077 0.140745
10179 1 0.571237 0.109084 0.134376
9803 2 0.578589 0.104859 0.128021
6694 1 0.85282 0.128747 0.128471
17601 1 0.963856 0.141736 0.130284
15425 2 0.626969 0.170802 0.129555
15426 1 0.628754 0.169706 0.137084
2708 3 0.66913 0.178275 0.158671
2707 1 0.673925 0.180322 0.152993
11621 2 0.210178 0.20874 0.131502
11620 1 0.211224 0.2013 0.13205
18958 1 0.624142 0.205425 0.13138
18959 2 0.616674 0.206974 0.130163
12448 1 0.650908 0.213659 0.154774
12450 1 0.658729 0.209813 0.14043
12449 3 0.655371 0.212031 0.14786
15232 1 0.116146 0.243577 0.155699
15233 2 0.111831 0.241374 0.149056
15234 1 0.108927 0.235406 0.144722
8827 1 0.422798 0.251631 0.147317
12 1 0.719878 0.251214 0.129032
2861 3 0.119378 0.282032 0.134788
2862 1 0.121157 0.274508 0.135208
18341 2 0.110067 0.281909 0.154598
18340 1 0.111564 0.27477 0.154758
19773 1 0.391026 0.269969 0.155866
19771 1 0.376637 0.267875 0.156381
19772 2 0.383739 0.270686 0.153622
7047 1 0.374088 0.26644 0.158035
3004 1 0.394007 0.269323 0.156448
8828 2 0.418108 0.256957 0.151478
8829 1 0.410837 0.260197 0.152951
3005 3 0.401839 0.266913 0.156668
3006 1 0.408084 0.261966 0.153672
11 2 0.72688 0.254947 0.128307
10 1 0.732745 0.25961 0.132707
17132 2 0.780854 0.259395 0.157351
17133 1 0.787382 0.259659 0.153534
9226 1 0.789704 0.259842 0.152351
9227 3 0.796878 0.260451 0.149159
9228 1 0.803454 0.264329 0.146733
2860 1 0.113269 0.286992 0.135622
21206 3 0.570957 0.303483 0.141656
21207 1 0.575235 0.304522 0.14893
21205 1 0.56669 0.30249 0.134854
5154 1 0.749597 0.298774 0.158719
12737 2 0.784821 0.292984 0.128619
12736 1 0.790689 0.297436 0.132121
10191 1 0.00170433 0.336081 0.133563
5868 1 0.378634 0.341309 0.154684
5867 3 0.382297 0.346404 0.148109
4281 1 0.927069 0.327869 0.147174
4280 2 0.918415 0.328115 0.14489
4279 1 0.911017 0.329981 0.14321
10190 2 0.999012 0.343655 0.13392
7030 1 0.0638398 0.363098 0.131739
16012 1 0.0644671 0.364244 0.133999
16013 3 0.0677491 0.367875 0.140973
16014 1 0.0659587 0.376142 0.140463
19481 3 0.381272 0.364722 0.146904
19480 1 0.382416 0.356655 0.146278
5866 1 0.382469 0.353633 0.146274
19482 1 0.387188 0.369612 0.144074
21274 1 0.388448 0.374358 0.156215
20293 1 0.576151 0.376673 0.157774
9022 1 0.628314 0.35225 0.127223
1160 3 0.63657 0.363222 0.12877
1159 1 0.641825 0.359499 0.132454
10130 2 0.882749 0.373353 0.145784
10129 1 0.882447 0.380439 0.150483
10131 1 0.884743 0.371263 0.137507
21276 1 0.391009 0.391216 0.154361
21275 3 0.388953 0.382907 0.155495
12560 3 0.504401 0.408944 0.135355
20294 3 0.581201 0.383303 0.157525
20295 1 0.58532 0.388402 0.153489
12664 1 0.586771 0.390541 0.151547
12665 2 0.592046 0.395458 0.146337
12666 1 0.599983 0.398609 0.144145
7281 1 0.714494 0.41135 0.144261
7279 1 0.712961 0.399395 0.133825
7280 2 0.712464 0.405565 0.13904
7795 1 0.882239 0.382999 0.151827
7796 2 0.881491 0.390112 0.154587
7797 1 0.884701 0.397276 0.158814
20110 1 0.131291 0.436687 0.137758
20111 3 0.129911 0.429142 0.139377
20112 1 0.126447 0.421935 0.135276
12559 1 0.505492 0.413606 0.144228
12561 1 0.503392 0.416513 0.131124
16522 1 0.699864 0.437243 0.13092
18713 3 0.413202 0.473534 0.133663
7246 1 0.415938 0.475376 0.1445
18712 1 0.415028 0.474795 0.141346
6045 1 0.168406 0.485769 0.128521
6210 1 0.208395 0.499454 0.129428
6209 3 0.200917 0.503931 0.129531
7247 3 0.420938 0.476738 0.151484
7248 1 0.418716 0.480191 0.157603
20409 1 0.632713 0.504829 0.154196
401 2 0.882606 0.494765 0.146765
400 1 0.879837 0.501043 0.151159
402 1 0.884739 0.486432 0.145748
21490 1 0.0410054 0.019685 0.175
3273 1 0.0449383 0.00979917 0.187695
21492 1 0.0427139 0.0114729 0.186134
21491 2 0.0381459 0.0164383 0.181501
12185 2 0.30994 0.0178458 0.18792
12184 1 0.313205 0.0100943 0.187067
2320 1 0.440757 0.00581885 0.16399
2321 3 0.445564 0.0117035 0.165167
2322 1 0.443991 0.0202015 0.167654
19325 3 0.619569 0.0160901 0.177821
19324 1 0.623858 0.0110978 0.182968
19326 1 0.618546 0.0227771 0.171771
20205 1 0.983731 0.0312912 0.17949
20203 1 0.981986 0.0290017 0.167035
5281 1 0.168945 0.0622782 0.183618
7701 1 0.510482 0.0517077 0.168807
7700 2 0.509993 0.0438546 0.165347
7699 1 0.513255 0.0396678 0.159893
20204 3 0.985778 0.0323401 0.172534
20628 1 0.00392019 0.063748 0.188901
20627 3 0.00394049 0.0676014 0.18007
20626 1 0.00699229 0.0706683 0.172789
18168 1 0.00825534 0.0718744 0.170253
18167 2 0.0116317 0.0763941 0.164375
18166 1 0.0113657 0.0834104 0.160847
7263 1 0.0108033 0.0860408 0.160224
11976 1 0.176749 0.066931 0.167363
5283 1 0.17577 0.0670057 0.170282
5282 2 0.173587 0.0657812 0.178719
5420 3 0.145717 0.117555 0.176462
5421 1 0.14183 0.120144 0.183257
5395 1 0.140071 0.121717 0.18589
6692 2 0.16327 0.117324 0.173235
6693 1 0.170946 0.11335 0.171704
5419 1 0.152406 0.115899 0.173977
6691 1 0.155599 0.116403 0.173293
18360 1 0.452915 0.116703 0.165415
18359 3 0.458781 0.1195 0.172409
18358 1 0.46552 0.122037 0.175696
2709 1 0.666948 0.178 0.167576
1344 1 0.840337 0.175442 0.170175
1343 2 0.843381 0.182406 0.171958
1342 1 0.846479 0.184469 0.178542
14676 1 0.847959 0.186123 0.181182
14675 3 0.85264 0.189919 0.187453
7895 3 0.959487 0.15865 0.189199
7896 1 0.957024 0.159335 0.181659
19973 2 0.158418 0.203408 0.179763
19972 1 0.15279 0.20945 0.180199
19974 1 0.162866 0.196145 0.178485
11771 3 0.349074 0.221638 0.181692
11770 1 0.349003 0.221472 0.173659
11772 1 0.357263 0.222151 0.185723
9210 1 0.346671 0.23409 0.187148
9208 1 0.354063 0.245217 0.181747
16875 1 0.355809 0.245839 0.179159
16874 3 0.360837 0.248656 0.173482
9209 3 0.349248 0.242513 0.187485
10775 2 0.768649 0.24801 0.16656
10774 1 0.773812 0.252368 0.162935
10776 1 0.763777 0.251279 0.171836
18342 1 0.109376 0.283495 0.162284
10117 1 0.108808 0.283289 0.165589
10118 2 0.107738 0.283667 0.173288
15898 1 0.178415 0.263621 0.169906
15899 3 0.175344 0.261493 0.176221
15900 1 0.174569 0.253711 0.180271
16873 1 0.364716 0.254851 0.168854
7045 1 0.365773 0.256514 0.167416
7046 3 0.368029 0.263874 0.162788
20908 1 0.379255 0.273918 0.188196
20909 3 0.37905 0.271886 0.180098
20910 1 0.38203 0.268478 0.174507
17222 3 0.415456 0.269031 0.176082
17223 1 0.411431 0.271095 0.169822
17221 1 0.424353 0.267196 0.176441
13775 3 0.619043 0.255929 0.169248
13774 1 0.622966 0.264298 0.169431
13776 1 0.615703 0.255436 0.161944
4467 1 0.752864 0.269325 0.176231
4466 3 0.745927 0.273568 0.17365
4465 1 0.739925 0.277448 0.169292
17131 1 0.775343 0.253964 0.161184
10119 1 0.105724 0.287251 0.180437
6546 1 0.387574 0.295798 0.189289
5153 2 0.753232 0.305248 0.161911
5152 1 0.757119 0.307137 0.168278
620 3 0.761785 0.309816 0.178051
619 1 0.758677 0.31397 0.184592
20586 1 0.758202 0.3152 0.187079
621 1 0.758543 0.307873 0.170799
3275 3 0.209937 0.328159 0.180615
3276 1 0.21123 0.334444 0.177217
3274 1 0.214646 0.321752 0.182561
5277 1 0.371601 0.321061 0.166406
5276 2 0.371979 0.321171 0.174303
10413 1 0.370815 0.328555 0.18186
5275 1 0.371138 0.326554 0.17996
10412 2 0.370576 0.333845 0.186785
4679 3 0.39253 0.333581 0.166459
4678 1 0.389902 0.333412 0.173178
4680 1 0.391355 0.340039 0.161559
4950 1 0.770751 0.334506 0.187282
4230 1 0.141971 0.352919 0.185182
9624 1 0.141255 0.353396 0.182019
9623 3 0.139517 0.353768 0.174789
9622 1 0.13547 0.356701 0.168424
11646 1 0.44876 0.38044 0.181982
11645 2 0.454061 0.376415 0.177794
11644 1 0.458177 0.372674 0.172367
20146 1 0.885572 0.398973 0.160648
20148 1 0.893208 0.410049 0.16734
20147 2 0.88948 0.403027 0.165323
21434 3 0.96434 0.407669 0.173019
21433 1 0.972131 0.409542 0.170029
12883 1 0.871025 0.414193 0.190673
12885 1 0.857342 0.418271 0.188076
21435 1 0.957225 0.412301 0.172548
16002 1 0.257791 0.447465 0.169726
16001 2 0.262598 0.448507 0.163687
16000 1 0.265161 0.453533 0.159104
15847 1 0.429813 0.471201 0.184314
15848 3 0.424683 0.471078 0.177651
15849 1 0.424668 0.463572 0.174681
8562 1 0.555157 0.473932 0.162217
8560 1 0.571118 0.475558 0.160373
8561 3 0.562756 0.473687 0.162729
9374 3 0.933331 0.45911 0.184265
9373 1 0.92647 0.459917 0.182124
9375 1 0.940508 0.457939 0.180611
7320 1 0.168104 0.507134 0.172393
5652 1 0.202603 0.498177 0.172645
5651 3 0.205914 0.4935 0.17764
5650 1 0.214671 0.492679 0.180484
10365 1 0.417696 0.481912 0.160298
10364 3 0.414462 0.4863 0.165938
10363 1 0.413482 0.490537 0.172308
20547 1 0.634459 0.507135 0.188511
3271 1 0.0555024 0.000355503 0.19674
3272 2 0.0495349 0.0054002 0.193026
12186 1 0.305873 0.0209616 0.19327
16309 1 0.766298 0.0150186 0.216434
16310 3 0.769537 0.0208826 0.211113
16311 1 0.771951 0.0225117 0.20333
7923 1 0.981113 0.00143375 0.221146
69 1 0.212937 0.060494 0.219631
6837 1 0.150399 0.0726594 0.1984
6836 2 0.150551 0.0794572 0.192803
6835 1 0.152566 0.0865977 0.195221
7834 1 0.154092 0.0890834 0.195777
68 2 0.207424 0.0668776 0.221407
4288 1 0.532533 0.0738805 0.215366
4290 1 0.540862 0.080412 0.202368
4289 2 0.53567 0.0788418 0.208721
5396 2 0.136948 0.123108 0.192755
18190 1 0.163261 0.11947 0.197157
7835 3 0.158213 0.0961855 0.198024
7836 1 0.157916 0.103378 0.198503
18192 1 0.158068 0.106595 0.198915
18191 2 0.159781 0.114289 0.199883
9794 3 0.138964 0.138299 0.203934
5397 1 0.139692 0.128663 0.198519
9793 1 0.13984 0.131784 0.199786
9795 1 0.138131 0.141007 0.21157
379 1 0.235186 0.14729 0.198707
380 2 0.240543 0.153156 0.202448
381 1 0.243709 0.158377 0.206444
7894 1 0.96147 0.152462 0.194977