ITEM: TIMESTEP
40000000
ITEM: NUMBER OF ATOMS
1608
ITEM: BOX BOUNDS pp pp pp
0.0000000000000000e+00 5.0000000000000000e+01
0.0000000000000000e+00 5.0000000000000000e+01
0.0000000000000000e+00 5.0000000000000000e+01
ITEM: ATOMS id type xs ys zs
2971 1 0.98879 0.157447 0.310083
2972 2 0.985732 0.151337 0.3151
17855 2 0.998634 0.184105 0.304717
1417 1 0.990111 0.159687 0.308549
1418 3 0.99378 0.165182 0.304648
1419 1 0.995248 0.173054 0.303899
17854 1 0.996264 0.176384 0.303944
17856 1 0.992852 0.188919 0.301351
10219 1 0.973076 0.181213 0.310868
2445 1 0.979368 0.187921 0.297597
2443 1 0.973581 0.180975 0.307569
2444 2 0.975287 0.181475 0.299651
14866 1 0.923794 0.19429 0.300499
14867 3 0.927091 0.197178 0.307889
14868 1 0.925621 0.197808 0.316307
3205 1 0.945465 0.217495 0.316361
3794 2 0.985973 0.196272 0.298341
3793 1 0.991071 0.191151 0.300561
3795 1 0.980927 0.190832 0.297112
9421 1 0.0210151 0.121803 0.345858
2281 1 0.01999 0.123308 0.343372
6490 1 0.0380239 0.10425 0.343727
6492 1 0.0352006 0.118706 0.342936
6491 2 0.0390363 0.111694 0.340081
4795 1 0.0801578 0.126162 0.348475
3019 1 0.0833038 0.126575 0.347388
14971 1 0.931532 0.122795 0.331112
16332 1 0.951637 0.115265 0.337387
16331 2 0.948386 0.117707 0.34447
3678 1 0.976323 0.119266 0.32437
3677 2 0.977116 0.125391 0.322793
2283 1 0.0174831 0.132611 0.330375
2282 2 0.0168119 0.127179 0.336836
1350 1 0.0141942 0.144684 0.34776
3020 3 0.0906782 0.127885 0.344057
3021 1 0.0917598 0.133166 0.338761
3465 1 0.907834 0.136368 0.327295
3464 2 0.902067 0.134241 0.33138
3463 1 0.904566 0.134285 0.339273
6543 1 0.90537 0.134071 0.341726
6020 2 0.907653 0.156226 0.34362
14972 2 0.926937 0.129146 0.332902
6019 1 0.913613 0.153128 0.340844
17853 1 0.916484 0.151672 0.340279
17852 2 0.922283 0.146994 0.338392
17851 1 0.924308 0.138741 0.336523
14973 1 0.925111 0.136259 0.335805
5461 1 0.939243 0.140609 0.345346
11111 2 0.945221 0.149427 0.342103
11112 1 0.940376 0.142536 0.344016
19878 1 0.953018 0.14651 0.324685
19877 2 0.953152 0.139658 0.322405
1685 2 0.969454 0.133948 0.341219
19876 1 0.958807 0.133287 0.323945
11110 1 0.947604 0.15602 0.339279
4999 1 0.9938 0.13169 0.325465
5000 2 0.998397 0.131227 0.332699
3676 1 0.983184 0.128186 0.320087
2973 1 0.979625 0.14706 0.319846
1684 1 0.970468 0.139322 0.335356
2670 1 0.970807 0.141211 0.333597
5001 1 0.996122 0.137234 0.335324
20841 1 0.994774 0.139803 0.336086
20840 2 0.990271 0.146517 0.337896
20839 1 0.988137 0.152675 0.341417
13773 1 0.987534 0.15507 0.343579
13716 1 0.977129 0.133114 0.348356
1686 1 0.975215 0.133792 0.346968
2669 2 0.971962 0.145543 0.327008
2668 1 0.976892 0.14637 0.321664
6672 1 0.0157271 0.176412 0.324604
6671 2 0.0193845 0.169533 0.325787
4391 2 0.009968 0.185347 0.322324
4390 1 0.0145286 0.178963 0.324354
4392 1 0.00183665 0.186355 0.323178
6670 1 0.0252196 0.168622 0.330292
14419 1 0.0279851 0.168294 0.331732
156 1 0.00195465 0.186271 0.346427
1022 2 0.0297505 0.189966 0.340034
14010 1 0.00398298 0.187575 0.345521
14420 2 0.033805 0.168302 0.336045
14421 1 0.0402927 0.172551 0.33929
17857 1 0.0422653 0.174613 0.34045
17859 1 0.0556011 0.183051 0.347054
8041 1 0.0579234 0.184361 0.348308
17858 2 0.0490465 0.179704 0.343704
6021 1 0.905437 0.161558 0.349631
21348 1 0.916141 0.170585 0.331926
21347 2 0.916995 0.175311 0.338538
21346 1 0.918793 0.181662 0.343296
6804 1 0.918984 0.184326 0.34553
21397 1 0.948591 0.159068 0.338537
21398 2 0.952244 0.166413 0.33709
21399 1 0.957444 0.16704 0.34286
10221 1 0.968229 0.181969 0.326309
9589 1 0.951259 0.175514 0.348879
4816 1 0.959299 0.167192 0.344884
13772 2 0.986588 0.159432 0.348941
9424 1 0.999474 0.162535 0.329022
6982 1 0.999304 0.186625 0.323217
9425 2 0.993319 0.167646 0.325257
9426 1 0.985742 0.169787 0.32673
10220 2 0.970487 0.182765 0.31835
155 2 0.995061 0.183095 0.349342
14008 1 0.0190398 0.191317 0.342199
1023 1 0.022117 0.191376 0.341636
14009 2 0.0107126 0.191768 0.342857
703 1 0.0372992 0.197195 0.342045
1021 1 0.0356391 0.195469 0.341164
704 2 0.0427715 0.202655 0.34478
32 3 0.0574726 0.219023 0.341468
31 1 0.0609884 0.21459 0.344851
4737 1 0.0629978 0.212181 0.346781
19335 1 0.924433 0.198148 0.319638
19334 2 0.92213 0.199086 0.326847
19333 1 0.927711 0.198794 0.333824
607 1 0.929701 0.198943 0.335993
608 2 0.937285 0.199644 0.339986
3206 2 0.950923 0.21301 0.319834
10378 1 0.96008 0.212624 0.326274
3207 1 0.957847 0.211847 0.323992
609 1 0.944837 0.197769 0.34122
8730 1 0.947549 0.197309 0.341785
10379 2 0.965179 0.213754 0.331142
8729 2 0.955198 0.195432 0.344608
6983 2 0.991545 0.190572 0.324636
6984 1 0.984659 0.194234 0.324022
10380 1 0.971567 0.211564 0.335068
11029 1 0.973508 0.210885 0.336327
11030 2 0.979864 0.210117 0.341494
11031 1 0.980662 0.209395 0.349316
11071 1 0.0215898 0.242151 0.349639
11072 2 0.0154993 0.238897 0.346316
14586 1 0.0205525 0.22229 0.349711
11073 1 0.00806904 0.241082 0.343545
33 1 0.0621961 0.22514 0.34305
5191 1 0.920609 0.240121 0.340293
3371 3 0.909258 0.237564 0.342068
3370 1 0.917914 0.239292 0.340971
3372 1 0.9107 0.231112 0.3471
20991 1 0.910898 0.228322 0.349428
5192 2 0.928515 0.242101 0.339148
5193 1 0.936129 0.238494 0.338746
12528 1 0.93902 0.2369 0.338656
12526 1 0.950565 0.232074 0.333697
12527 2 0.94467 0.232605 0.337643
7556 2 0.0321564 0.0912465 0.380178
7557 1 0.0391762 0.0901085 0.376905
1288 1 0.0411697 0.090044 0.37582
1290 1 0.0526584 0.0939035 0.367824
1289 2 0.0490222 0.0892408 0.372494
565 1 0.956169 0.0879939 0.371926
12876 1 0.95635 0.0909225 0.370313
566 2 0.955794 0.0805711 0.375407
9422 2 0.0239611 0.117462 0.351244
9423 1 0.0259633 0.116221 0.35848
15514 1 0.00518979 0.0961481 0.350538
18630 1 0.0272923 0.115402 0.361475
18629 2 0.029523 0.111628 0.368102
14276 2 0.00677048 0.125062 0.375821
15515 3 0.00107768 0.101239 0.354047
19587 1 0.0421285 0.122895 0.359807
18628 1 0.0342153 0.110648 0.374178
18880 1 0.03557 0.110125 0.376718
2870 2 0.0598832 0.112219 0.379851
4796 3 0.0718685 0.126192 0.349812
2869 1 0.0623612 0.108467 0.373626
11234 2 0.927372 0.125739 0.364695
17212 1 0.934941 0.12373 0.381429
12875 2 0.957733 0.0984839 0.366041
16330 1 0.948794 0.117453 0.352519
469 1 0.948931 0.116727 0.355462
470 2 0.948991 0.115516 0.363597
471 1 0.953035 0.108226 0.364148
12874 1 0.954301 0.105565 0.364063
1118 2 0.963589 0.125627 0.372387
1119 1 0.96552 0.118755 0.374548
11245 1 0.966813 0.116086 0.375981
11246 2 0.969208 0.109355 0.377972
768 1 0.952943 0.10928 0.377932
15516 1 0.996822 0.107608 0.35634
9921 1 0.995286 0.110341 0.357048
9920 2 0.993025 0.115876 0.360004
9919 1 0.988311 0.121405 0.356453
13714 1 0.986842 0.124078 0.355348
16993 1 0.989847 0.120056 0.373687
16994 2 0.987161 0.124811 0.379442
1348 1 0.010895 0.158283 0.350836
1349 2 0.011137 0.150573 0.350635
10848 1 0.0254548 0.146111 0.35078
14277 1 0.00403454 0.131884 0.37165
16566 1 0.00304077 0.134037 0.369492
16565 2 0.00032799 0.138575 0.364379
16381 1 0.0183815 0.157803 0.371499
9250 1 0.0161295 0.156849 0.372991
9251 2 0.0091365 0.154775 0.377235
19585 1 0.0368246 0.135823 0.356651
19586 2 0.0397282 0.12981 0.360057
10846 1 0.0358167 0.137636 0.355383
10847 2 0.0323151 0.143615 0.350463
14314 1 0.0343915 0.154822 0.3702
16383 1 0.0319396 0.15578 0.369836
14315 2 0.041197 0.150277 0.371328
14316 1 0.0434171 0.143114 0.375346
4534 1 0.0444382 0.141097 0.37686
8286 1 0.0581894 0.148104 0.354264
2770 1 0.0596374 0.145281 0.353907
8285 2 0.053817 0.155108 0.354143
4535 2 0.047877 0.136969 0.38072
2772 1 0.0658577 0.132996 0.352179
4797 1 0.0672476 0.130884 0.351418
2771 2 0.0626 0.138234 0.354052
2464 1 0.0715159 0.149442 0.380327
2466 1 0.0828999 0.140813 0.373567
2145 1 0.08497 0.139132 0.372282
2465 2 0.0779679 0.146224 0.377632
2144 3 0.0903873 0.134377 0.368687
2143 1 0.0929368 0.131583 0.361212
6542 2 0.90807 0.134284 0.350138
7915 1 0.906023 0.139182 0.359587
7917 1 0.903588 0.149457 0.371418
6541 1 0.906392 0.137945 0.356824
7916 2 0.904973 0.143613 0.366329
5462 2 0.935761 0.134497 0.350285
11233 1 0.930441 0.128699 0.35735
5463 1 0.932024 0.130018 0.35493
5846 2 0.928931 0.144226 0.370758
5847 1 0.925792 0.151288 0.374308
6877 1 0.924231 0.15354 0.376331
11235 1 0.92827 0.132653 0.367521
5845 1 0.928319 0.135731 0.368694
4927 1 0.933695 0.156314 0.361473
948 1 0.957742 0.134084 0.367735
1117 1 0.959767 0.131583 0.36905
947 2 0.95343 0.139311 0.364377
12210 1 0.953055 0.149928 0.365936
946 1 0.953122 0.146874 0.365377
12209 2 0.951775 0.156904 0.365471
17213 2 0.941451 0.129549 0.379876
17214 1 0.949139 0.134058 0.379719
5364 1 0.951234 0.136164 0.380669
13715 2 0.9831 0.130566 0.352168
16564 1 0.996018 0.141338 0.358404
18450 1 0.976971 0.150212 0.368892
18449 2 0.974351 0.142183 0.370361
18448 1 0.978975 0.135794 0.367338
15347 2 0.987888 0.155398 0.381089
6108 1 0.0112187 0.161094 0.350885
6107 2 0.0128154 0.168739 0.350096
16382 2 0.0249902 0.159229 0.36784
6106 1 0.0184292 0.17274 0.353731
2637 1 0.0207872 0.174035 0.355142
2636 2 0.0271697 0.178527 0.358711
19611 1 0.012986 0.186407 0.378263
4093 1 0.0110328 0.183986 0.377163
4094 2 0.005955 0.177984 0.373668
4095 1 0.000728881 0.172844 0.369773
8284 1 0.0545204 0.16025 0.360338
2635 1 0.0311593 0.178832 0.364499
13665 1 0.0326295 0.178814 0.366192
13664 2 0.0375763 0.179442 0.371791
13663 1 0.037231 0.18273 0.379125
21312 1 0.0549242 0.162194 0.363158
21311 2 0.0564041 0.166844 0.369303
8042 2 0.0638424 0.187604 0.352348
21310 1 0.0633216 0.167123 0.372381
6878 2 0.920026 0.159243 0.380146
4929 1 0.936086 0.16889 0.353384
9591 1 0.938062 0.171589 0.352766
4928 2 0.931113 0.163374 0.355932
9231 1 0.920645 0.172319 0.372758
9230 2 0.92418 0.179654 0.372324
9229 1 0.930149 0.177733 0.366927
9590 2 0.943717 0.177763 0.351414
17150 2 0.941377 0.166825 0.37623
12208 1 0.946754 0.161653 0.369324
17151 1 0.944975 0.16286 0.371462
4817 2 0.965267 0.169172 0.350559
4818 1 0.967452 0.167928 0.358078
11668 1 0.968414 0.167371 0.360765
11670 1 0.968737 0.162284 0.374596
8972 2 0.954884 0.182279 0.375407
8971 1 0.955567 0.177585 0.380845
8973 1 0.94987 0.18747 0.373547
7432 1 0.947889 0.189466 0.372632
8274 1 0.968126 0.161079 0.377039
13771 1 0.989369 0.16171 0.354818
2065 1 0.990332 0.162769 0.357912
11669 2 0.970778 0.165811 0.368533
2066 2 0.994261 0.165389 0.36477
2067 1 0.999094 0.17133 0.36844
3514 1 0.989123 0.186868 0.357938
3515 2 0.985389 0.188869 0.364978
154 1 0.990649 0.18611 0.355176
19609 1 0.0210456 0.198479 0.381479
1449 1 0.0138779 0.19463 0.362229
1448 2 0.0190259 0.199854 0.361704
15554 2 0.00367696 0.214642 0.366659
15651 1 0.0231738 0.201091 0.381069
15650 2 0.0295227 0.206696 0.380281
1447 1 0.0209989 0.207665 0.359049
14584 1 0.0214429 0.210615 0.358096
14585 2 0.0213825 0.21829 0.356546
15555 1 0.00219637 0.220992 0.364156
705 1 0.0421316 0.203432 0.351551
4498 1 0.0419959 0.20389 0.354374
12951 1 0.0556019 0.191834 0.380042
15649 1 0.0303969 0.213112 0.377903
3492 1 0.0308918 0.215944 0.376786
12950 2 0.0539939 0.197394 0.374404
12949 1 0.0500475 0.201346 0.368945
4499 2 0.0428105 0.204776 0.36181
4500 1 0.0479913 0.2023 0.367054
8043 1 0.0661404 0.194976 0.351959
4735 1 0.066447 0.198228 0.351196
4736 3 0.0656112 0.205694 0.350276
20989 1 0.908593 0.214967 0.356816
6031 1 0.908318 0.211774 0.357387
6803 2 0.920386 0.192565 0.349874
6802 1 0.915848 0.196163 0.354663
6033 1 0.914045 0.197627 0.356204
6032 2 0.909918 0.203471 0.359342
1157 2 0.924758 0.216519 0.372322
7434 1 0.937163 0.20049 0.368353
1156 1 0.927338 0.216431 0.365165
261 1 0.928718 0.216244 0.361698
260 2 0.931062 0.215519 0.354333
259 1 0.93827 0.216946 0.352051
1158 1 0.929581 0.213007 0.378767
14901 1 0.930444 0.21182 0.381086
5777 2 0.949543 0.217148 0.349903
19675 1 0.958639 0.220683 0.355007
5778 1 0.95644 0.219738 0.35344
7433 2 0.942949 0.19528 0.370749
8728 1 0.957659 0.198493 0.351689
12987 1 0.959043 0.199387 0.354122
12986 2 0.964441 0.201587 0.36028
19676 2 0.966199 0.221819 0.360169
5776 1 0.941203 0.217598 0.351598
7234 1 0.980895 0.209552 0.352686
6619 1 0.978141 0.191111 0.372178
3516 1 0.979972 0.190395 0.3705
6620 2 0.972414 0.192473 0.378479
15553 1 0.999635 0.209631 0.371544
8496 1 0.999018 0.20712 0.373663
12985 1 0.972039 0.205029 0.361207
7236 1 0.975335 0.206498 0.361503
7235 2 0.982369 0.209344 0.360549
8495 2 0.997155 0.200421 0.37745
3859 1 0.00133002 0.223633 0.363066
3490 1 0.0258451 0.225817 0.37489
19998 1 0.0231638 0.226958 0.374849
19997 2 0.0160654 0.2296 0.375338
19996 1 0.0113849 0.233064 0.380292
3491 2 0.0330807 0.222583 0.374373
20990 2 0.910195 0.22258 0.354392
1151 2 0.926026 0.240936 0.381006
1152 1 0.931826 0.236138 0.381513
195 1 0.966379 0.235945 0.380397
9214 1 0.968931 0.238054 0.379993
14102 2 0.946501 0.251277 0.354537
3250 1 0.947253 0.252262 0.366252
14101 1 0.947742 0.252174 0.362893
3251 2 0.946968 0.252117 0.374356
19677 1 0.972956 0.225967 0.357496
3860 2 0.999324 0.230211 0.35962
3861 1 0.992243 0.231059 0.358025
2448 1 0.989443 0.231116 0.357464
2447 2 0.982335 0.230995 0.355329
2446 1 0.975444 0.227898 0.356624
12408 1 0.974238 0.252973 0.359734
9215 2 0.975235 0.243122 0.378758
9216 1 0.979903 0.250542 0.379398
7152 1 0.981421 0.25304 0.379894
8417 2 0.986583 0.225779 0.381047
9077 2 0.00138538 0.270613 0.380237
17254 1 0.00849454 0.278976 0.379858
9076 1 0.00688588 0.276348 0.379552
5383 1 0.919466 0.26546 0.371017
5384 2 0.921819 0.271874 0.37508
5385 1 0.925412 0.278264 0.380072
12407 2 0.967967 0.256779 0.361804
14103 1 0.940875 0.256307 0.352486
18376 1 0.956924 0.268773 0.379616
18378 1 0.963892 0.265308 0.366707
18377 2 0.960547 0.270324 0.372385
12406 1 0.965057 0.263447 0.365562
17255 3 0.012422 0.285891 0.380433
17256 1 0.0136386 0.292896 0.379018
14878 1 0.0141497 0.296123 0.378434
14879 3 0.016604 0.303392 0.377531
14880 1 0.0212264 0.310575 0.377371
8463 1 0.000624912 0.0896218 0.387862
7555 1 0.0282992 0.0927547 0.385607
7926 1 0.0269068 0.0933782 0.388464
7925 2 0.0235076 0.0935723 0.395582
13686 1 0.019879 0.0911766 0.406593
7924 1 0.0209601 0.0919144 0.403525
8462 2 0.00120602 0.0863865 0.396151
1691 2 0.937125 0.0846176 0.38977
1690 1 0.930682 0.0830159 0.388859
567 1 0.957441 0.0755744 0.381854
43 1 0.946363 0.0870264 0.392747
1692 1 0.943729 0.0858242 0.392023
44 2 0.952707 0.0915266 0.394247
19616 2 0.969243 0.0754327 0.41149
8461 1 0.99469 0.0831748 0.400481
19812 1 0.992606 0.0821702 0.40211
19811 2 0.986239 0.0791459 0.405988
19810 1 0.979009 0.077036 0.408598
19617 1 0.976249 0.0762022 0.409438
11833 1 0.0111905 0.120677 0.385287
14275 1 0.00948994 0.122188 0.382381
5055 1 0.0176722 0.11547 0.400537
11835 1 0.0168299 0.116668 0.39767
5054 2 0.0200514 0.1119 0.406579
11834 2 0.0147691 0.118457 0.391673
9180 1 0.00225304 0.109534 0.407342
21466 1 0.00259818 0.110526 0.410252
18881 2 0.039409 0.111554 0.38244
18882 1 0.0405415 0.114623 0.389398
2871 1 0.0539535 0.114936 0.383986
3928 1 0.0404791 0.116084 0.392228
3929 2 0.0412781 0.119908 0.399951
3930 1 0.0357626 0.125352 0.401657
9294 1 0.0712056 0.126147 0.396106
15033 1 0.0820621 0.100674 0.386391
15032 2 0.0791345 0.103839 0.394693
15031 1 0.0809458 0.107013 0.40057
9292 1 0.0611118 0.120751 0.388234
3279 1 0.893891 0.125903 0.390381
3278 2 0.898962 0.120327 0.39146
3277 1 0.900323 0.125485 0.3974
8878 1 0.923235 0.115953 0.391056
8879 2 0.927029 0.116936 0.38407
12117 1 0.921731 0.115046 0.393822
8880 1 0.932771 0.121365 0.382004
16252 1 0.923935 0.110212 0.411236
18865 1 0.936563 0.106884 0.407433
12115 1 0.922436 0.110952 0.407891
12116 2 0.919173 0.111984 0.400691
45 1 0.958744 0.0967356 0.395634
9273 1 0.961087 0.0987687 0.396304
18866 2 0.941941 0.107734 0.400844
9272 2 0.968095 0.103058 0.399503
18867 1 0.945112 0.107892 0.393858
767 2 0.94761 0.108823 0.384101
766 1 0.945808 0.107962 0.391271
17468 2 0.95954 0.12382 0.394814
17467 1 0.95327 0.124993 0.400322
14725 1 0.951223 0.125455 0.402425
9271 1 0.974316 0.104418 0.404855
11247 1 0.975347 0.107099 0.381669
17275 1 0.978235 0.106301 0.382942
17276 2 0.985238 0.104884 0.386543
13615 1 0.980456 0.126161 0.408515
17277 1 0.991536 0.107138 0.392257
9178 1 0.993955 0.107892 0.394465
9179 2 0.999745 0.108158 0.399791
16744 1 0.982727 0.126736 0.407534
13616 2 0.974043 0.1244 0.41143
9211 1 0.97663 0.10499 0.406364
9212 2 0.982605 0.105384 0.410747
29 2 0.0290981 0.133174 0.400059
10303 1 0.0217578 0.140454 0.396667
10305 1 0.0140033 0.150416 0.387784
9252 1 0.0127552 0.151677 0.384431
10304 2 0.0168175 0.14675 0.393675
11230 1 0.00760635 0.15469 0.413319
7023 1 0.00439146 0.154923 0.412176
28 1 0.0239816 0.138221 0.397798
8900 2 0.00980788 0.131201 0.4086
8899 1 0.00253635 0.131381 0.407818
30 1 0.03322 0.127636 0.40185
3739 1 0.0559154 0.157231 0.387825
4536 1 0.0474678 0.13907 0.387627
3346 1 0.0475874 0.139848 0.389943
3347 2 0.0477024 0.143355 0.396852
3348 1 0.0501842 0.143795 0.404027
16627 1 0.0511937 0.144376 0.406832
3740 2 0.063153 0.154794 0.385738
3741 1 0.0691864 0.150662 0.381544
9293 2 0.0650831 0.126993 0.391993
8734 1 0.875714 0.148993 0.407187
13641 1 0.87589 0.150848 0.41001
8735 2 0.877042 0.144656 0.399926
17669 2 0.901849 0.132351 0.406331
17668 1 0.900673 0.1272 0.399344
11295 1 0.891815 0.128285 0.390441
8736 1 0.880427 0.139743 0.395251
11294 2 0.887448 0.133812 0.391866
11293 1 0.882037 0.137752 0.393633
3297 1 0.901915 0.15818 0.395333
2238 1 0.900915 0.157688 0.398097
2237 2 0.89771 0.156947 0.405574
5267 2 0.92216 0.13019 0.411158
5266 1 0.926401 0.129923 0.405939
20181 1 0.910491 0.134352 0.392059
20180 2 0.915569 0.138014 0.386261
20179 1 0.922447 0.138451 0.389205
370 1 0.925009 0.139092 0.390683
371 2 0.931451 0.141535 0.393685
372 1 0.93539 0.149378 0.391877
8718 1 0.937454 0.151701 0.39131
17469 1 0.966522 0.127315 0.394429
10671 1 0.968855 0.128802 0.393596
14726 2 0.945971 0.128045 0.407228
8717 2 0.94265 0.157459 0.391407
8273 2 0.966512 0.157206 0.384561
14727 1 0.944833 0.133813 0.413208
8272 1 0.960576 0.150492 0.384159
5362 1 0.958502 0.147844 0.383839
5363 2 0.954417 0.142333 0.383199
4937 2 0.961418 0.144354 0.403809
4936 1 0.969358 0.14674 0.40428
4938 1 0.955016 0.141659 0.407706
16995 1 0.980722 0.129468 0.382854
10669 1 0.978649 0.130692 0.38425
16745 2 0.989163 0.129194 0.40396
10670 2 0.974243 0.133009 0.389646
12879 1 0.972359 0.147738 0.402893
11087 2 0.995016 0.140479 0.389945
11086 1 0.993103 0.135516 0.395274
16746 1 0.992146 0.134048 0.397686
11088 1 0.991572 0.146482 0.386509
15346 1 0.989985 0.148528 0.385356
12878 2 0.978763 0.150101 0.401671
7021 1 0.989775 0.151972 0.404832
12877 1 0.986839 0.151408 0.403739
7022 2 0.996785 0.154212 0.408348
15909 1 0.0080934 0.17431 0.407641
8518 1 0.0101461 0.174262 0.405811
8519 2 0.015335 0.174818 0.399355
8520 1 0.0201251 0.171202 0.39445
898 1 0.022369 0.170329 0.392934
899 2 0.028199 0.167722 0.388808
15908 2 0.00173704 0.173649 0.412737
603 1 0.0371347 0.183734 0.381708
4113 1 0.0561444 0.189724 0.38168
4112 2 0.0562226 0.183143 0.3858
771 1 0.0537078 0.158849 0.3882
770 2 0.0470554 0.163188 0.387869
602 2 0.0356294 0.187603 0.387909
1323 1 0.0603039 0.174255 0.401811
9666 1 0.0386774 0.174445 0.410579
9665 2 0.0396096 0.180659 0.407426
900 1 0.0363408 0.166736 0.388896
769 1 0.0392526 0.166187 0.38868
4111 1 0.0583437 0.177041 0.384739
9664 1 0.0461894 0.184838 0.409036
3731 2 0.0341099 0.164483 0.413278
3730 1 0.0382222 0.171893 0.411264
1322 2 0.0620268 0.173939 0.408837
1321 1 0.0668506 0.168131 0.412548
7879 1 0.88905 0.188534 0.395972
3296 2 0.903652 0.16005 0.388559
2236 1 0.897501 0.162415 0.411163
6879 1 0.913552 0.160958 0.384571
3295 1 0.911291 0.160917 0.385726
21357 1 0.912996 0.184249 0.392285
13300 1 0.912233 0.18666 0.390709
21355 1 0.917934 0.170402 0.400102
9000 1 0.918646 0.168069 0.401734
21356 2 0.915831 0.177653 0.397555
8999 2 0.919387 0.161764 0.406852
13800 1 0.926676 0.190218 0.409071
17149 1 0.941977 0.164645 0.383041
8716 1 0.942171 0.163154 0.384942
3710 2 0.969597 0.16811 0.404002
5081 2 0.957671 0.173585 0.390429
5082 1 0.956203 0.176422 0.383249
5080 1 0.961905 0.170494 0.396031
3709 1 0.963574 0.16975 0.398146
181 1 0.943096 0.181356 0.384023
182 2 0.93961 0.184731 0.390529
183 1 0.944224 0.189404 0.393599
9275 2 0.950244 0.159548 0.413272
14058 1 0.94907 0.170013 0.412869
9276 1 0.948919 0.167054 0.412639
3711 1 0.974169 0.166129 0.410464
15348 1 0.986637 0.16255 0.382955
12467 2 0.985189 0.172525 0.388509
12468 1 0.985983 0.16533 0.383714
12466 1 0.987599 0.18031 0.38949
3628 1 0.989468 0.183095 0.390257
3629 2 0.995185 0.189343 0.391196
15012 1 0.975891 0.165748 0.412795
19610 2 0.0169258 0.192241 0.381826
19399 1 0.0288334 0.192186 0.396138
19400 2 0.023996 0.194408 0.40254
19401 1 0.0182698 0.199111 0.406127
20194 1 0.0162652 0.200837 0.406898
7517 2 0.0176588 0.218696 0.396137
7518 1 0.023583 0.216919 0.399342
7516 1 0.0102981 0.218163 0.393987
16980 1 0.00788536 0.218244 0.393293
12321 1 0.0263091 0.21584 0.400596
16979 2 0.000397166 0.21826 0.390389
20195 2 0.0098919 0.203769 0.408642
601 1 0.0306281 0.19134 0.393417
12320 2 0.0335728 0.212805 0.404372
12319 1 0.0394896 0.209438 0.401868
6751 1 0.0421487 0.207062 0.40073
6752 2 0.0482577 0.202611 0.39829
13612 1 0.0560805 0.199323 0.40375
6753 1 0.0538654 0.200257 0.402492
13613 2 0.0625846 0.196681 0.408471
7880 2 0.892456 0.190664 0.403384
7881 1 0.891078 0.190869 0.41138
15401 2 0.907342 0.210577 0.385155
15400 1 0.909015 0.20268 0.385927
15402 1 0.909616 0.218889 0.384731
9189 1 0.910486 0.221691 0.384822
13301 2 0.910918 0.192424 0.385933
13302 1 0.909637 0.199444 0.385919
16463 2 0.92042 0.218399 0.401999
7402 1 0.937417 0.208818 0.398768
14899 1 0.93619 0.208584 0.395908
14900 2 0.933091 0.208319 0.387996
16462 1 0.920215 0.209288 0.401635
13014 1 0.920695 0.205983 0.40223
13013 2 0.922516 0.198727 0.403672
13012 1 0.924926 0.192366 0.407085
7403 2 0.940576 0.209112 0.406049
21423 1 0.964684 0.193119 0.400496
2530 1 0.96196 0.193572 0.399927
14 2 0.957968 0.216397 0.395585
14557 1 0.965218 0.211454 0.391069
15 1 0.963312 0.21244 0.392628
2531 2 0.953415 0.194237 0.396324
2532 1 0.9469 0.190967 0.394835
13 1 0.95421 0.221246 0.400598
7404 1 0.944009 0.21042 0.412993
14559 1 0.970674 0.201518 0.384649
6621 1 0.971017 0.199141 0.383078
14558 2 0.972133 0.20886 0.388024
16978 1 0.994062 0.221857 0.387448
8494 1 0.994608 0.19632 0.384099
7199 2 0.987151 0.19324 0.411616
21422 2 0.971681 0.190406 0.401825
3630 1 0.994319 0.194332 0.386426
7100 2 0.984414 0.215206 0.406277
21421 1 0.978666 0.191564 0.405237
7200 1 0.981426 0.192267 0.406948
7101 1 0.977819 0.213157 0.409017
9916 1 0.975097 0.211488 0.410485
14397 1 0.0103885 0.235212 0.382887
14396 2 0.00784665 0.240541 0.388371
14395 1 0.00756342 0.246326 0.393919
7513 1 0.00752333 0.248455 0.396141
7515 1 0.00437899 0.252347 0.409905
16880 2 0.0149021 0.236514 0.410944
21034 1 0.00293432 0.251736 0.412396
16879 1 0.0221743 0.23931 0.409158
9403 1 0.0245907 0.240139 0.407532
9404 2 0.0316472 0.241331 0.401347
9405 1 0.0385393 0.243285 0.399497
2266 1 0.0409405 0.244068 0.399345
2267 2 0.0479361 0.246331 0.398254
2268 1 0.0553562 0.249287 0.397087
12850 1 0.05845 0.250663 0.396886
20468 3 0.0519 0.229905 0.411986
16554 1 0.071615 0.226217 0.400605
16553 2 0.0745917 0.231337 0.394855
16552 1 0.080869 0.232979 0.390364
12851 2 0.0656331 0.253097 0.397446
9188 2 0.912148 0.230003 0.384268
9501 1 0.933997 0.234607 0.382045
1150 1 0.921323 0.236343 0.382328
17076 1 0.9231 0.230078 0.402281
17075 2 0.92408 0.237866 0.401785
9187 1 0.919306 0.234526 0.382989
16464 1 0.922792 0.227004 0.402329
11969 2 0.938132 0.250815 0.399978
11970 1 0.93173 0.245567 0.399495
17074 1 0.929736 0.243739 0.399802
193 1 0.952749 0.232532 0.381705
194 2 0.960275 0.232406 0.382027
9500 2 0.941319 0.232122 0.38276
9499 1 0.94898 0.232347 0.381586
17536 1 0.952829 0.223508 0.402493
17537 2 0.950559 0.229008 0.408187
5565 1 0.961139 0.252644 0.402036
3252 1 0.946051 0.253441 0.382052
5564 2 0.960943 0.248932 0.395122
5563 1 0.959669 0.243334 0.388498
8418 1 0.99243 0.222755 0.386432
7099 1 0.988542 0.222033 0.407616
5816 2 0.976093 0.232762 0.395971
8416 1 0.980532 0.229051 0.386379
5817 1 0.978765 0.230141 0.389174
19589 2 0.993579 0.231534 0.408873
19590 1 0.989904 0.22463 0.408003
19588 1 0.990274 0.237783 0.408092
17998 1 0.989564 0.240583 0.407284
17999 2 0.987285 0.248077 0.40303
5815 1 0.974067 0.23298 0.404208
18025 1 0.973687 0.232841 0.406676
7514 2 0.00729477 0.253802 0.402369
12852 1 0.0712431 0.255263 0.402171
11968 1 0.934778 0.25717 0.402783
13507 1 0.933517 0.259612 0.404077
13508 2 0.929241 0.264694 0.408491
13509 1 0.931147 0.27264 0.410969
7151 2 0.985277 0.260041 0.38325
7150 1 0.992686 0.263427 0.38231
9078 1 0.995201 0.2654 0.381925
18000 1 0.982902 0.254434 0.404336
16698 1 0.985328 0.282716 0.40032
16697 3 0.980039 0.283759 0.396026
1575 1 0.987484 0.281753 0.402319
1574 2 0.992774 0.278696 0.407635
12124 1 0.98078 0.256315 0.405133
12125 2 0.975263 0.261279 0.40741
12126 1 0.975076 0.266937 0.41155
16696 1 0.972753 0.287017 0.395298
13685 2 0.018174 0.0893968 0.41403
13684 1 0.012317 0.0920879 0.419897
5049 1 0.00949609 0.0925178 0.421743
5048 2 0.00278307 0.0927064 0.426139
1075 1 0.05326 0.0944642 0.428238
1076 2 0.0597735 0.0898432 0.428767
1077 1 0.0626613 0.0879127 0.436237
19615 1 0.962247 0.0782414 0.413621
12919 1 0.953035 0.0870899 0.42007
14533 1 0.953285 0.0896677 0.42187
12920 2 0.95254 0.0807857 0.415883
12921 1 0.959462 0.0790802 0.414291
4162 1 0.99147 0.09368 0.42581
5047 1 0.994057 0.092731 0.42606
10590 1 0.987539 0.0771752 0.444503
7335 1 0.0152237 0.0971288 0.444806
1693 1 0.0248539 0.110991 0.440016
7333 1 0.0241279 0.108556 0.440549
1694 2 0.0269784 0.119831 0.439875
7334 2 0.0230783 0.10037 0.442562
1695 1 0.0234088 0.12357 0.43398
13530 1 0.0221557 0.124433 0.431035
21467 2 0.00152032 0.112903 0.419563
21468 1 0.000639156 0.113776 0.427306
5053 1 0.0221767 0.108957 0.413529
17803 1 0.0229287 0.108784 0.416258
17804 2 0.0272967 0.107305 0.423841
17805 1 0.0341746 0.104888 0.425072
5881 1 0.037107 0.103967 0.425079
5882 2 0.0442383 0.0999074 0.4258
8036 2 0.0567548 0.116909 0.41343
5883 1 0.0508003 0.0961328 0.427512
8037 1 0.0505183 0.12078 0.417344
14104 1 0.0484454 0.122015 0.418442
14105 2 0.0414819 0.126656 0.4223
2864 2 0.0708886 0.106854 0.417573
15624 1 0.0818317 0.10364 0.417038
2863 1 0.0788364 0.104389 0.417264
15623 3 0.0894126 0.101217 0.417247
2865 1 0.0654272 0.111107 0.416968
8035 1 0.0629331 0.113166 0.415861
15622 1 0.0953999 0.10338 0.422775
8385 1 0.908436 0.124758 0.431496
16254 1 0.933003 0.103336 0.417477
16253 2 0.927232 0.108577 0.418845
5268 1 0.917382 0.124562 0.415574
15630 1 0.909368 0.123555 0.433857
3949 1 0.936802 0.125828 0.433138
18243 1 0.938787 0.123117 0.433575
15629 2 0.911689 0.120959 0.440852
14534 2 0.953781 0.0954907 0.427638
8817 1 0.959123 0.121915 0.421029
6271 1 0.958897 0.118746 0.420126
6272 2 0.957413 0.110899 0.41789
6273 1 0.956268 0.103442 0.42252
14535 1 0.955522 0.100924 0.423957
5120 2 0.966617 0.103401 0.440741
18242 2 0.94225 0.116477 0.43154
18241 1 0.94446 0.112328 0.436908
20074 1 0.945728 0.110801 0.439056
4235 2 0.968921 0.126634 0.442841
9213 1 0.982758 0.101097 0.416672
4164 1 0.983023 0.0994362 0.419374
4163 2 0.983235 0.0961639 0.426174
12500 2 0.997712 0.116241 0.438581
12499 1 0.999612 0.114357 0.43042
13617 1 0.975017 0.121232 0.41892
5983 1 0.971058 0.110746 0.432142
5121 1 0.970039 0.108971 0.434736
5984 2 0.974603 0.114641 0.426916
5985 1 0.97498 0.119427 0.421182
12501 1 0.992976 0.111251 0.44111
3106 1 0.990872 0.109445 0.442415
13529 2 0.0187646 0.126976 0.423739
13528 1 0.0132533 0.12792 0.417769
8901 1 0.0113408 0.128704 0.415339
11231 2 0.0152609 0.154356 0.415446
6342 1 0.0245572 0.147848 0.416517
11232 1 0.0220346 0.149602 0.416342
16620 1 0.0250097 0.144 0.440825
12081 1 0.0271713 0.142993 0.440485
16619 2 0.016786 0.145527 0.440616
13219 1 0.000199479 0.131866 0.42755
14091 1 0.00579932 0.147611 0.444363
16618 1 0.00855072 0.147505 0.44317
13220 2 0.00215245 0.139487 0.425408
16628 2 0.0540852 0.145618 0.413849
16629 1 0.0531305 0.151763 0.419711
6341 2 0.0315886 0.144258 0.418844
12080 2 0.0333811 0.139405 0.439629
12079 1 0.0415443 0.14014 0.439547
6340 1 0.0360245 0.137059 0.419462
14106 1 0.0374051 0.134391 0.419923
4556 2 0.0515888 0.142941 0.442207
4557 1 0.0540514 0.150394 0.444354
4555 1 0.0443339 0.140915 0.439568
8335 1 0.0525815 0.154468 0.421715
9844 1 0.0798055 0.156065 0.415603
13640 2 0.876973 0.154995 0.415769
688 1 0.868244 0.141287 0.444383
689 3 0.87489 0.14342 0.440024
690 1 0.882733 0.144802 0.436934
17670 1 0.903476 0.131864 0.413394
8383 1 0.904252 0.131262 0.417113
8384 2 0.904949 0.127846 0.424816
20478 1 0.88525 0.145307 0.435909
20477 2 0.892939 0.146264 0.434374
20476 1 0.901388 0.149173 0.433429
307 1 0.904146 0.150363 0.432926
13639 1 0.879032 0.158118 0.4224
3950 2 0.933213 0.131915 0.432883
3951 1 0.926298 0.135953 0.43106
308 2 0.911724 0.154482 0.432058
309 1 0.919276 0.158031 0.428326
19591 1 0.938668 0.157298 0.442426
15743 2 0.942903 0.142917 0.41754
15742 1 0.944236 0.136211 0.414959
15744 1 0.944961 0.149967 0.415336
9274 1 0.945842 0.152271 0.414802
8816 2 0.95914 0.128815 0.424614
8815 1 0.958931 0.134761 0.430039
7806 1 0.959155 0.137136 0.431662
7805 2 0.958438 0.143956 0.434641
4234 1 0.961369 0.129073 0.445101
7804 1 0.95812 0.145821 0.441599
2644 1 0.958194 0.147092 0.444377
1108 1 0.980931 0.157023 0.435478
12244 1 0.985114 0.144214 0.416285
12246 1 0.976752 0.137317 0.428458
12245 2 0.980147 0.141554 0.422285
13221 1 0.999523 0.147042 0.427609
13264 1 0.999009 0.149721 0.427848
13265 2 0.9965 0.157681 0.428205
6064 1 0.976753 0.13396 0.443124
4236 1 0.974625 0.131505 0.442607
6065 2 0.981999 0.139931 0.444278
15907 1 0.00514906 0.179842 0.416899
11662 1 0.00623633 0.182062 0.418702
16910 2 0.0152407 0.165448 0.433069
16911 1 0.0151906 0.159312 0.426684
16909 1 0.0122906 0.166915 0.440837
11663 2 0.00890643 0.188017 0.42447
11664 1 0.0164904 0.18676 0.423334
2652 1 0.0188884 0.186134 0.423109
2651 2 0.0257982 0.182793 0.424243
3732 1 0.0306853 0.168021 0.420421